BC400c t= 6460.00000 step= 6460000
111600
    14G12c C00D    1   4.649  12.645  10.683  0.4041  0.5986 -0.9194
    14G12c O00B    2   4.787  12.641  10.693  1.6603 -1.7760 -1.7436
    14G12c C025    3   4.838  12.657  10.567 -1.4690  0.0503 -1.7625
    14G12c C026    4   4.900  12.790  10.566  0.6866  0.4275 -0.7973
    14G12c H00Y    5   4.891  12.828  10.668 -4.0664 -4.2439  0.7499
    14G12c H00X    6   4.847  12.852  10.493  5.1958  4.2220 -1.1099
    14G12c O00C    7   5.042  12.777  10.545 -0.1156 -0.9827  1.2389
    14G12c H00W    8   5.046  12.741  10.458 -6.2814  2.3936 -0.7653
    14G12c C027    9   4.825  12.559  10.463 -0.5597 -0.1579  0.8569
    14G12c O00D   10   4.744  12.452  10.495  0.8303  0.2125 -0.3223
    14G12c H00Z   11   4.720  12.473  10.584  2.7567 -0.2712  0.3485
    14G12c C028   12   4.857  12.579  10.323  0.6999 -0.0233 -0.0958
    14G12c C029   13   4.977  12.517  10.265  0.1270 -0.9105  1.5143
    14G12c H010   14   5.053  12.446  10.293 -0.2890 -2.4804 -1.2227
    14G12c C02T   15   5.018  12.553  10.130  0.6147  0.0349  0.7350
    14G12c H01O   16   5.112  12.505  10.106  2.1987  1.8671  2.9478
    14G12c C02S   17   4.935  12.630  10.054  1.1426  1.3740 -0.7762
    14G12c O00J   18   4.990  12.673   9.942 -0.3110  1.2840 -1.0353
    14G12c H01P   19   4.947  12.749   9.907  1.8949  3.8275  1.4985
    14G12c C02R   20   4.837  12.720  10.111 -0.1352  1.0583 -0.4973
    14G12c O00I   21   4.782  12.817  10.044  0.7252 -1.0277 -0.3868
    14G12c C02Q   22   4.706  12.923  10.095  0.8456  1.5911  1.0386
    14G12c H01N   23   4.614  12.878  10.132 -1.6162  1.5090 -4.5512
    14G12c H01R   24   4.664  12.992  10.022 -2.7740  1.4822  2.8713
    14G12c H01Q   25   4.772  12.968  10.168  2.7468 -4.8429  3.5889
    14G12c C02A   26   4.771  12.688  10.242 -0.7673  0.0863 -1.0195
    14G12c H011   27   4.687  12.744  10.280  1.4122  2.0296  1.1541
    14G12c C00C   28   4.582  12.757  10.639 -1.4035  0.6894  0.8946
    14G12c H012   29   4.645  12.843  10.619  0.9790 -1.4444 -1.0397
    14G12c C00B   30   4.452  12.767  10.596 -0.8665  1.5185 -0.7920
    14G12c C00A   31   4.371  12.874  10.547  0.6633  0.2144 -0.1636
    14G12c C009   32   4.380  13.011  10.598 -2.4054  0.0192 -1.5038
    14G12c C008   33   4.462  13.086  10.685 -0.1279 -0.6822  0.2388
    14G12c H013   34   4.560  13.070  10.727 -1.7702 -0.1758  4.4863
    14G12c C007   35   4.412  13.215  10.720  1.7731  0.5822 -1.4430
    14G12c H014   36   4.485  13.265  10.782 -3.6982  4.3424  2.4598
    14G12c C006   37   4.278  13.265  10.688 -0.1382  0.0599  0.5468
    14G12c C005   38   4.204  13.156  10.631 -0.5694  0.7639 -0.0422
    14G12c C004   39   4.057  13.185  10.612  0.2912  1.3166  1.1556
    14G12c C003   40   3.974  13.096  10.543 -1.1180 -0.2627  0.3398
    14G12c C002   41   3.835  13.115  10.542  1.6978  0.8266 -1.2867
    14G12c C001   42   3.716  13.044  10.513  0.9192  0.9870 -0.6483
    14G12c C00M   43   3.728  12.911  10.529  0.2223 -0.2121  0.2580
    14G12c C00L   44   3.806  12.812  10.482  0.1114  1.5737  0.1460
    14G12c C00R   45   3.825  12.687  10.557  0.4164 -1.2354  0.7982
    14G12c C00Q   46   3.743  12.610  10.648 -0.1005 -0.5404  0.1725
    14G12c C00V   47   3.785  12.470  10.654  0.7267 -0.1063  1.1970
    14G12c C00U   48   3.924  12.446  10.655  0.1752  0.3661  1.0093
    14G12c C00T   49   4.008  12.541  10.598 -1.6138 -0.4838 -0.4580
    14G12c C016   50   4.149  12.531  10.605 -2.4831  2.0986 -0.6017
    14G12c C015   51   4.203  12.423  10.676  0.1742 -1.5248 -0.1925
    14G12c C010   52   4.119  12.312  10.692  0.4388  0.9085 -0.8465
    14G12c C011   53   4.188  12.189  10.737 -1.6116  0.0705 -0.1087
    14G12c H005   54   4.112  12.118  10.765  1.8140 -4.4971 -1.8431
    14G12c C012   55   4.325  12.178  10.781 -1.7127  0.0529  0.0774
    14G12c C017   56   4.361  12.052  10.853  0.4078 -1.4532 -0.8257
    14G12c O002   57   4.434  12.094  10.979  1.4912  0.0191 -0.3603
    14G12c H004   58   4.481  12.014  10.996  0.2708 -1.0620 -1.8977
    14G12c C018   59   4.324  11.934  10.796 -0.7861  0.7483 -0.9658
    14G12c O001   60   4.209  11.907  10.717  0.9247 -0.4064 -1.1765
    14G12c H003   61   4.230  11.938  10.630  3.5149  0.9503 -0.1433
    14G12c C019   62   4.395  11.809  10.861 -1.0879 -0.9804 -0.8161
    14G12c H002   63   4.469  11.846  10.933 -2.7486  1.5615 -0.3434
    14G12c H001   64   4.321  11.753  10.917  1.1405 -4.1401 -0.9274
    14G12c O000   65   4.447  11.745  10.738 -1.3437 -0.9201  1.5931
    14G12c C01A   66   4.551  11.665  10.739  1.5840  0.7746 -0.8088
    14G12c C02K   67   4.657  11.684  10.651  1.1587 -0.0001 -0.4130
    14G12c O00G   68   4.685  11.815  10.624 -0.0895  0.4326  0.3036
    14G12c C02M   69   4.775  11.824  10.507 -0.4448  0.5991 -1.3400
    14G12c H01G   70   4.854  11.892  10.541 -0.2741  1.1223 -2.7711
    14G12c H01F   71   4.811  11.736  10.453 -0.0735  1.3615 -2.3452
    14G12c H01E   72   4.709  11.858  10.428 -0.6376 -1.5661 -2.1504
    14G12c C02J   73   4.738  11.573  10.611  0.3392  0.4406 -0.1402
    14G12c H01H   74   4.831  11.564  10.558  2.1543  0.1657  2.9624
    14G12c C02I   75   4.725  11.445  10.657 -1.6925  0.9934 -0.4697
    14G12c C02N   76   4.780  11.306  10.625  0.1136 -0.5996 -1.2607
    14G12c H01M   77   4.749  11.211  10.666 -2.6649 -1.5687 -5.2601
    14G12c C02O   78   4.918  11.285  10.628  0.1756 -0.9887 -1.0444
    14G12c H01L   79   4.978  11.203  10.664  0.3506 -0.5531 -0.3299
    14G12c C02P   80   5.048  11.370  10.619  0.0244  0.4570  0.1327
    14G12c H01K   81   5.136  11.307  10.625 -3.3496 -4.6979 -1.4723
    14G12c H01J   82   5.042  11.442  10.700  1.3270 -1.4236  1.9363
    14G12c O00H   83   5.022  11.426  10.494 -2.7495  0.3573  0.2639
    14G12c H01I   84   4.939  11.384  10.475 -4.6546  2.3785  3.6406
    14G12c C02H   85   4.634  11.434  10.746 -1.5135 -0.3335  0.3466
    14G12c H01C   86   4.637  11.342  10.803 -2.7579  0.1602  1.2167
    14G12c C02L   87   4.541  11.532  10.781 -0.1143  0.7992  1.2240
    14G12c H01D   88   4.433  11.529  10.789 -1.1816 11.1651 -2.4784
    14G12c C013   89   4.411  12.293  10.739  0.5509 -1.0738 -0.8427
    14G12c H000   90   4.511  12.286  10.779 -1.1496 -3.9951  3.3365
    14G12c C014   91   4.352  12.410  10.690  0.5234  0.2862 -0.6584
    14G12c C00F   92   4.424  12.526  10.679  0.3406 -2.4978  0.6410
    14G12c C00H   93   4.239  12.641  10.575 -0.9123 -1.0990 -1.0223
    14G12c C00I   94   4.177  12.740  10.494  0.8068 -1.8777 -0.7687
    14G12c C00J   95   4.038  12.739  10.472 -0.0781  1.5065  0.6982
    14G12c C00Z   96   3.982  12.316  10.693  0.7491 -0.9894 -0.6333
    14G12c C00Y   97   3.888  12.216  10.723 -1.0815  0.0340 -1.5233
    14G12c H006   98   3.915  12.111  10.723  3.7872  1.1297  1.0268
    14G12c C00X   99   3.749  12.239  10.729 -1.7768  0.7220  0.9389
    14G12c O003  100   3.667  12.138  10.773 -0.1324 -0.7023  1.6864
    14G12c C01B  101   3.544  12.128  10.720 -0.4657  1.6437  0.1670
    14G12c H009  102   3.556  12.046  10.648  2.7480  0.4748  1.9366
    14G12c H008  103   3.501  12.186  10.638 -4.4372 -4.7971 -2.7378
    14G12c H007  104   3.465  12.080  10.778 -0.5743 -7.4343 -6.4148
    14G12c C00W  105   3.707  12.373  10.694 -1.5206 -0.4536 -0.9343
    14G12c O004  106   3.572  12.395  10.704  0.5640 -2.0515 -1.3006
    14G12c C01C  107   3.536  12.537  10.720  0.6528 -2.4332 -0.8808
    14G12c H00A  108   3.452  12.535  10.651  2.5811  2.0721 -3.5630
    14G12c C00P  109   3.622  12.641  10.702 -0.7520  1.0322  0.1840
    14G12c C00O  110   3.567  12.786  10.699  0.0211  0.3536 -0.5979
    14G12c C01D  111   3.429  12.789  10.746 -1.2229 -0.5983 -0.3055
    14G12c H00S  112   3.393  12.708  10.807  1.0030  0.0878  2.0133
    14G12c C01E  113   3.380  12.915  10.792  1.3917  0.1147  1.3117
    14G12c O008  114   3.263  12.940  10.865  0.4336  0.2591 -1.3543
    14G12c C01V  115   3.176  12.840  10.906 -0.1669 -0.4302 -0.8908
    14G12c C01Z  116   3.143  12.808  11.069  1.6592 -0.2953 -0.1787
    14G12c H00R  117   3.069  12.887  11.085  5.6488  4.3431 -3.2360
    14G12c H00Q  118   3.137  12.700  11.080  2.3022 -0.3157 -0.0434
    14G12c O009  119   3.252  12.792  11.160 -1.1953  1.1926  1.0982
    14G12c H00P  120   3.311  12.771  11.088 -1.3068 -3.1815  2.1374
    14G12c C01W  121   3.113  12.774  10.798 -0.4791 -0.1493  1.7738
    14G12c H00O  122   3.144  12.809  10.701  1.1856  0.1858  2.4072
    14G12c C01X  123   3.003  12.663  10.814 -1.2069 -0.8513 -0.6033
    14G12c H00N  124   3.006  12.603  10.723 -0.0839 -0.9903 -0.4810
    14G12c H00M  125   3.029  12.593  10.894 -0.8295 -2.4111 -2.0513
    14G12c C01Y  126   2.874  12.696  10.880 -1.4590  0.4985 -0.4024
    14G12c C02D  127   2.810  12.604  10.970  1.0869 -1.2751 -0.0102
    14G12c H019  128   2.861  12.513  11.000  1.0494 -1.5989 -0.9139
    14G12c C02C  129   2.700  12.646  11.045 -0.8353 -1.3458 -1.1805
    14G12c H01A  130   2.643  12.597  11.123 -4.8010  0.1760 -2.9676
    14G12c C02B  131   2.669  12.784  11.054  0.4783 -0.6672  1.0714
    14G12c O00E  132   2.567  12.823  11.124  0.3702 -0.4893 -0.9116
    14G12c H01B  133   2.533  12.911  11.117 -1.1457 -0.8685  1.1266
    14G12c C02F  134   2.721  12.889  10.957  0.4704 -0.6778 -0.3103
    14G12c O00F  135   2.661  13.021  10.936  1.4442 -0.1297 -0.0906
    14G12c C02G  136   2.718  13.103  10.835 -0.0293  0.1383 -0.9467
    14G12c H017  137   2.639  13.178  10.828  0.5002  1.2632  3.7709
    14G12c H016  138   2.811  13.145  10.874  4.5981 -4.5184 -6.1849
    14G12c H015  139   2.735  13.055  10.738  2.3245  3.7986 -2.4810
    14G12c C02E  140   2.834  12.836  10.872  1.7524  2.3799 -2.1742
    14G12c H018  141   2.916  12.889  10.826  2.0948  3.6471 -0.1313
    14G12c C01F  142   3.465  13.017  10.745 -1.1269 -0.1017 -1.0344
    14G12c C01G  143   3.458  13.153  10.777 -1.0775 -1.0242 -0.5325
    14G12c H00L  144   3.380  13.201  10.835  1.1218  0.4160  1.2965
    14G12c C01H  145   3.566  13.240  10.753 -1.1549  3.1540 -2.3511
    14G12c H00B  146   3.598  13.307  10.831  5.0173  2.8818 -4.3459
    14G12c C01I  147   3.653  13.208  10.638 -0.1301  0.8773  1.2349
    14G12c C01U  148   3.543  13.012  10.628  1.3734  0.8170  0.3633
    14G12c C00S  149   3.958  12.658  10.550  0.9803  1.1764 -0.5711
    14G12c C00K  150   3.946  12.860  10.462 -1.5038 -0.3303 -0.9515
    14G12c C00N  151   3.611  12.884  10.608 -0.1372 -1.6018  0.1577
    14G12c C000  152   3.598  13.113  10.559 -1.0580 -1.0171  0.8590
    14G12c C01J  153   3.795  13.211  10.637  0.3679 -0.1683 -0.1154
    14G12c C01K  154   3.875  13.340  10.659  0.8074  0.4087  0.4104
    14G12c C01P  155   3.831  13.476  10.682  0.7284 -1.0722 -0.6124
    14G12c C01Q  156   3.692  13.498  10.718  0.3314  0.5282  2.1151
    14G12c H00G  157   3.608  13.458  10.664  1.1444  0.9491  0.4930
    14G12c C01R  158   3.651  13.611  10.805 -1.5468 -0.0791 -1.4366
    14G12c H00F  159   3.704  13.684  10.864 -2.3157  0.3610 -1.2910
    14G12c C01S  160   3.514  13.643  10.827 -0.7112  1.8541 -0.9052
    14G12c H00E  161   3.448  13.560  10.803  0.0671  0.2313  2.2036
    14G12c H00D  162   3.497  13.665  10.933  6.5219  2.1026  0.4313
    14G12c O005  163   3.447  13.756  10.776 -0.3672 -0.5977  0.5753
    14G12c H00C  164   3.505  13.831  10.785 -1.8845  1.0341 -2.3848
    14G12c C01O  165   3.923  13.578  10.696 -0.2279  1.4755  0.9943
    14G12c H00H  166   3.864  13.659  10.738 -3.8075  0.1714 -1.2859
    14G12c C01N  167   4.068  13.562  10.686  0.7917  0.4397 -0.5440
    14G12c O006  168   4.157  13.657  10.720 -1.2464 -1.1752  1.0059
    14G12c C01T  169   4.170  13.757  10.624 -0.4169  0.9563 -0.4462
    14G12c H00K  170   4.252  13.821  10.657 -1.2361  0.7943  2.0056
    14G12c H00J  171   4.081  13.817  10.605  2.0266  4.7438 -0.6412
    14G12c H00I  172   4.208  13.724  10.527 -4.4096  1.2745 -2.2488
    14G12c C01M  173   4.098  13.423  10.655 -0.0849  1.6083 -1.3467
    14G12c C020  174   4.036  12.974  10.488  0.0534 -0.0351 -2.2214
    14G12c C021  175   4.169  12.976  10.493 -0.3677 -0.0962 -0.4828
    14G12c C01L  176   4.001  13.313  10.647 -0.4850  0.1947  0.4272
    14G12c O007  177   4.247  13.395  10.646  0.8564 -1.5105  2.2880
    14G12c C022  178   4.242  13.043  10.585  1.1005 -0.3110  0.6678
    14G12c C023  179   4.249  12.858  10.477  0.3171 -2.1301  0.3376
    14G12c C00G  180   4.380  12.643  10.614  0.0607 -0.7188  1.6345
    14G12c C00E  181   4.565  12.539  10.727  0.5511 -1.1686 -0.9670
    14G12c O00A  182   4.651  12.445  10.778  0.8100  0.3222  0.3595
    14G12c C024  183   4.708  12.479  10.899  0.0887 -0.9601  0.3447
    14G12c H00V  184   4.736  12.378  10.928  2.6500 -0.8369 -1.5011
    14G12c H00U  185   4.641  12.515  10.977 -0.9361 -1.5758 -0.2505
    14G12c H00T  186   4.790  12.551  10.895 -3.0010  2.5903 -3.4072
    24G12c C00D  187   7.324  12.440   6.230  0.6894  0.6221 -0.0006
    24G12c O00B  188   7.228  12.365   6.166  0.3596  0.7895 -1.5098
    24G12c C025  189   7.130  12.431   6.093 -0.8103  2.0098  0.6847
    24G12c C026  190   7.182  12.541   5.990 -1.1653 -0.7862 -1.7815
    24G12c H00Y  191   7.158  12.514   5.888  0.5048 -3.0923 -1.5931
    24G12c H00X  192   7.279  12.590   6.001 -0.5129 -2.8644  3.3541
    24G12c O00C  193   7.109  12.661   6.015 -2.0682  0.9439 -1.0150
    24G12c H00W  194   7.133  12.709   6.093 -6.1551 -0.4740  1.2826
    24G12c C027  195   6.998  12.382   6.112  0.3199  0.2119 -0.0307
    24G12c O00D  196   6.899  12.426   6.040  0.2584 -1.8919  0.1210
    24G12c H00Z  197   6.823  12.422   6.095  0.9272  2.4721  1.4940
    24G12c C028  198   6.962  12.281   6.212 -2.1787 -2.0348  0.6388
    24G12c C029  199   6.874  12.298   6.311  0.5057 -1.0477  0.3815
    24G12c H010  200   6.818  12.383   6.345  4.5105  0.8590  2.5086
    24G12c C02T  201   6.842  12.194   6.394  1.0927 -0.2499 -0.9560
    24G12c H01O  202   6.766  12.222   6.466  1.8041 -3.1759  1.0389
    24G12c C02S  203   6.921  12.080   6.393  1.0130  1.3115 -0.2035
    24G12c O00J  204   6.920  11.988   6.492 -2.2881 -0.1683  0.7840
    24G12c H01P  205   6.923  11.898   6.462  2.0110 -0.3599  1.5596
    24G12c C02R  206   7.018  12.064   6.287 -0.8878  0.4228 -0.8586
    24G12c O00I  207   7.081  11.950   6.271  1.2000  0.5773 -0.8429
    24G12c C02Q  208   7.220  11.946   6.331 -0.6249  0.3663  0.1359
    24G12c H01N  209   7.235  11.943   6.439 -0.9761 -5.5338  0.1777
    24G12c H01R  210   7.244  11.844   6.301 -3.0319  0.1700 -1.2008
    24G12c H01Q  211   7.292  12.005   6.273 -2.4448  0.6353 -1.9250
    24G12c C02A  212   7.040  12.169   6.192 -0.5507  1.0217 -0.1089
    24G12c H011  213   7.108  12.160   6.108 -2.5426  2.8237 -1.9671
    24G12c C00C  214   7.453  12.452   6.185 -0.2341 -0.0737  0.0648
    24G12c H012  215   7.469  12.384   6.103  2.4057  1.1679 -0.5047
    24G12c C00B  216   7.536  12.564   6.237 -2.4601 -1.1486 -0.0627
    24G12c C00A  217   7.663  12.624   6.192  1.6053 -1.7044  1.3298
    24G12c C009  218   7.768  12.554   6.119 -0.2640  1.8745  0.0519
    24G12c C008  219   7.781  12.421   6.046 -0.1906 -0.8291  0.0935
    24G12c H013  220   7.693  12.372   6.008  0.6123 -2.4765  0.3509
    24G12c C007  221   7.912  12.359   6.066 -0.1070 -1.1066 -0.4273
    24G12c H014  222   7.941  12.259   6.039 -2.7686 -3.2835  4.3001
    24G12c C006  223   8.013  12.432   6.125  1.0452  1.1797 -0.4828
    24G12c C005  224   8.003  12.573   6.142  0.6967  0.4601  0.2610
    24G12c C004  225   8.107  12.645   6.204 -0.0958  0.0522 -1.5749
    24G12c C003  226   8.073  12.770   6.270  1.3760 -1.8518 -0.7539
    24G12c C002  227   8.181  12.842   6.353  2.2087  1.3955  0.2083
    24G12c C001  228   8.188  12.960   6.442 -1.6345 -0.3522  1.4765
    24G12c C00M  229   8.085  12.986   6.551 -0.7661 -0.7555  0.4346
    24G12c C00L  230   7.951  12.958   6.524  0.8980  0.3934 -1.0927
    24G12c C00R  231   7.854  12.938   6.622  1.1464  1.9037 -1.6218
    24G12c C00Q  232   7.861  12.943   6.767 -0.4511 -0.8373  0.1516
    24G12c C00V  233   7.739  12.905   6.829 -0.1887 -1.2581 -1.0590
    24G12c C00U  234   7.614  12.862   6.764  1.1455  1.5691 -0.5467
    24G12c C00T  235   7.620  12.853   6.627 -0.1923  0.3224 -2.1726
    24G12c C016  236   7.529  12.780   6.538 -0.1667 -0.0531  0.5451
    24G12c C015  237   7.441  12.694   6.618 -0.8924 -0.7584  0.7379
    24G12c C010  238   7.448  12.700   6.753  2.1763 -1.4411  0.5917
    24G12c C011  239   7.340  12.626   6.825 -0.0380 -0.3743  1.8338
    24G12c H005  240   7.295  12.645   6.920  2.0687  4.0938  2.0714
    24G12c C012  241   7.267  12.527   6.765 -1.7065 -0.2693  0.0212
    24G12c C017  242   7.167  12.468   6.843 -0.0606 -0.1629  1.3099
    24G12c O002  243   7.057  12.534   6.855  1.2728 -1.9498  0.5376
    24G12c H004  244   7.003  12.515   6.930 -5.8829 -4.0684 -4.6588
    24G12c C018  245   7.179  12.337   6.895 -0.8833 -0.2483  1.0048
    24G12c O001  246   7.322  12.315   6.899 -0.8722 -1.6395 -0.8735
    24G12c H003  247   7.317  12.284   6.989  1.7410 -1.6246 -0.6864
    24G12c C019  248   7.089  12.262   6.970  0.1421 -0.0396 -0.2335
    24G12c H002  249   6.988  12.257   6.928 -2.3048  0.9137  5.0038
    24G12c H001  250   7.105  12.156   6.953 -4.6173 -0.9348  0.0720
    24G12c O000  251   7.105  12.282   7.122 -0.0926  1.1724  0.3873
    24G12c C01A  252   7.020  12.236   7.210  1.3986 -0.8012  0.9972
    24G12c C02K  253   7.076  12.200   7.335 -0.4728  1.5931 -1.8973
    24G12c O00G  254   7.210  12.231   7.346  0.5959  1.4192  0.5924
    24G12c C02M  255   7.299  12.139   7.269  0.4466  1.3898 -0.1724
    24G12c H01G  256   7.273  12.034   7.280  0.8586  1.1032 -1.8168
    24G12c H01F  257   7.313  12.151   7.162  0.1336 -0.1098 -0.3926
    24G12c H01E  258   7.390  12.157   7.326 -0.2365 -2.9212  2.5198
    24G12c C02J  259   6.990  12.176   7.446  0.0553 -1.1159  0.9111
    24G12c H01H  260   7.051  12.166   7.535 -3.5541 -7.1035  3.0196
    24G12c C02I  261   6.855  12.203   7.423 -0.2586 -1.3836 -0.4506
    24G12c C02N  262   6.757  12.192   7.535 -0.9216 -0.5432  0.8264
    24G12c H01M  263   6.780  12.198   7.640  1.6382  1.6241  0.1926
    24G12c C02O  264   6.625  12.142   7.515 -1.1171  1.0574 -1.6665
    24G12c H01L  265   6.604  12.123   7.411 -2.1781 -0.2128 -1.2343
    24G12c C02P  266   6.517  12.106   7.618  0.4506  0.6291 -0.1524
    24G12c H01K  267   6.552  12.107   7.721  2.9260  0.2354 -0.9593
    24G12c H01J  268   6.449  12.191   7.605 -2.8549 -2.2719 -2.5965
    24G12c O00H  269   6.480  11.964   7.621  1.0984 -0.5250 -1.1720
    24G12c H01I  270   6.402  11.920   7.653 -1.8617  2.4733 -3.8388
    24G12c C02H  271   6.803  12.249   7.301 -1.4064  0.3294 -0.3666
    24G12c H01C  272   6.710  12.296   7.274 -1.7804 -1.4361 -2.2485
    24G12c C02L  273   6.887  12.254   7.184 -0.7980  0.1837 -0.9393
    24G12c H01D  274   6.846  12.301   7.096 -1.2673  5.7373  1.9920
    24G12c C013  275   7.283  12.500   6.633  0.7635  1.3059  0.0817
    24G12c H000  276   7.217  12.429   6.585  1.3472  2.0554 -1.8461
    24G12c C014  277   7.361  12.593   6.553  0.0340 -1.4862  0.6335
    24G12c C00F  278   7.370  12.591   6.419 -0.7154  0.6978 -0.7679
    24G12c C00H  279   7.564  12.747   6.413  0.2924 -0.0394  0.1271
    24G12c C00I  280   7.681  12.791   6.358  0.0990  0.7833 -1.3789
    24G12c C00J  281   7.760  12.872   6.435  0.5566 -0.5658  1.0450
    24G12c C00Z  282   7.518  12.804   6.828 -0.9364 -0.0487 -1.5198
    24G12c C00Y  283   7.519  12.801   6.967  1.0255  1.4393  1.0433
    24G12c H006  284   7.449  12.755   7.035  1.6007 -5.1597 -2.4563
    24G12c C00X  285   7.597  12.891   7.038  1.1167  0.2678  0.2561
    24G12c O003  286   7.577  12.917   7.172 -1.0754 -0.4991 -0.6029
    24G12c C01B  287   7.551  13.061   7.205 -2.5457 -0.3670  2.3986
    24G12c H009  288   7.561  13.125   7.117  3.3902 -1.7874  1.7888
    24G12c H008  289   7.641  13.073   7.265 -2.5336 -1.7988  2.6862
    24G12c H007  290   7.449  13.045   7.239 -2.3015 -3.5427  1.8592
    24G12c C00W  291   7.725  12.937   6.970  1.7362 -1.0213 -0.4112
    24G12c O004  292   7.829  12.994   7.036 -0.9226  2.0639 -0.5981
    24G12c C01C  293   7.953  12.992   6.990 -0.5470 -0.3921 -0.2783
    24G12c H00A  294   8.030  13.013   7.063  2.3332  4.6096 -4.4460
    24G12c C00P  295   7.978  12.972   6.847 -0.1233  0.4957  0.8057
    24G12c C00O  296   8.116  12.976   6.802  2.0032  0.3899  0.8953
    24G12c C01D  297   8.201  12.944   6.898 -0.4421 -0.1275 -2.2247
    24G12c H00S  298   8.164  12.901   6.990 -3.0300 -1.4820 -3.8222
    24G12c C01E  299   8.328  12.903   6.875 -1.5770  1.2492  0.8224
    24G12c O008  300   8.411  12.837   6.961 -0.1708  0.1860  0.1429
    24G12c C01V  301   8.394  12.721   7.031 -0.5495 -0.6974  1.3486
    24G12c C01Z  302   8.519  12.690   7.101 -0.9286  0.4618  1.6100
    24G12c H00R  303   8.539  12.588   7.132  1.2620 -0.8405 -3.4602
    24G12c H00Q  304   8.607  12.717   7.043 -2.7340  3.5923  0.2150
    24G12c O009  305   8.542  12.729   7.237  0.6733 -0.6885 -0.6346
    24G12c H00P  306   8.549  12.820   7.215  0.5981 -0.0615  1.7870
    24G12c C01W  307   8.286  12.651   7.039 -1.4634 -0.4662  0.1532
    24G12c H00O  308   8.206  12.682   6.975 -0.8213  4.5784  1.6097
    24G12c C01X  309   8.267  12.516   7.100 -0.9086  0.7943 -0.2069
    24G12c H00N  310   8.317  12.504   7.197 -1.4145 -1.2599 -0.1760
    24G12c H00M  311   8.160  12.518   7.122 -0.4671 -2.7426  2.7877
    24G12c C01Y  312   8.287  12.397   7.002  0.0100  0.1941  1.7978
    24G12c C02D  313   8.204  12.383   6.888  1.6901  1.6643  2.1987
    24G12c H019  314   8.127  12.458   6.876  1.2782  0.9105 -0.1053
    24G12c C02C  315   8.187  12.262   6.804  0.7819  1.6235 -0.6699
    24G12c H01A  316   8.114  12.231   6.730  5.2422  3.2323 -6.1245
    24G12c C02B  317   8.274  12.159   6.840  0.6636 -1.4246  0.4454
    24G12c O00E  318   8.271  12.037   6.790  0.5868  0.2445  0.7437
    24G12c H01B  319   8.360  12.010   6.810 -0.0731 -2.6070  0.0635
    24G12c C02F  320   8.388  12.172   6.931 -1.0790 -0.5123  0.5384
    24G12c O00F  321   8.465  12.062   6.957 -0.5103 -1.6875 -0.3944
    24G12c C02G  322   8.422  11.989   7.065 -1.1258  1.7309 -0.7855
    24G12c H017  323   8.325  12.024   7.101 -2.1361 -3.2834  1.7041
    24G12c H016  324   8.386  11.887   7.051 -2.2391  2.1967 -1.3647
    24G12c H015  325   8.495  11.944   7.132 -1.9854 -5.2337 -4.0707
    24G12c C02E  326   8.379  12.290   7.017 -0.0368  0.3072 -0.7907
    24G12c H018  327   8.446  12.309   7.099 -3.0737  4.8377  0.8143
    24G12c C01F  328   8.356  12.879   6.743  0.8690  1.2137  0.9036
    24G12c C01G  329   8.459  12.797   6.697  0.9288 -0.3791  2.1179
    24G12c H00L  330   8.523  12.736   6.759  1.3920 -2.5835 -0.3973
    24G12c C01H  331   8.453  12.751   6.562 -0.3124 -0.4542  0.5917
    24G12c H00B  332   8.535  12.688   6.531 -2.8099 -1.4543 -4.5123
    24G12c C01I  333   8.372  12.817   6.470 -0.5405 -0.4147 -1.1768
    24G12c C01U  334   8.295  12.957   6.635  0.2884 -0.1354 -0.1862
    24G12c C00S  335   7.734  12.914   6.566  0.4262 -0.3241  0.0968
    24G12c C00K  336   7.888  12.892   6.405 -0.3079  0.2122 -0.9617
    24G12c C00N  337   8.157  12.990   6.675  0.0815  0.5334 -0.7687
    24G12c C000  338   8.305  12.938   6.505 -1.6248  1.5943  0.6928
    24G12c C01J  339   8.309  12.772   6.348  0.0045  0.3032 -0.1581
    24G12c C01K  340   8.338  12.634   6.287 -0.5511  2.4392  0.6804
    24G12c C01P  341   8.459  12.567   6.282 -1.3459 -0.8190  0.7438
    24G12c C01Q  342   8.591  12.641   6.298  0.7267 -0.2986 -0.0575
    24G12c H00G  343   8.587  12.741   6.258  0.1620  0.1649  1.1436
    24G12c C01R  344   8.714  12.586   6.328  0.0109 -0.1366 -0.4769
    24G12c H00F  345   8.727  12.504   6.397 -4.5470  4.6828  6.8963
    24G12c C01S  346   8.856  12.656   6.312  2.0500 -0.8668  0.7488
    24G12c H00E  347   8.827  12.753   6.271  1.6785 -1.8122 -1.2780
    24G12c H00D  348   8.889  12.705   6.403  4.9376 -2.8636  0.8254
    24G12c O005  349   8.935  12.620   6.219  0.8674 -1.2374 -0.3510
    24G12c H00C  350   8.953  12.699   6.171  1.2600  2.0066  4.7132
    24G12c C01O  351   8.483  12.431   6.250  1.0145  1.0922  0.1780
    24G12c H00H  352   8.573  12.371   6.258  0.1651 -0.0643  1.1549
    24G12c C01N  353   8.369  12.358   6.199  0.0862 -0.5269  0.8261
    24G12c O006  354   8.401  12.231   6.165  0.1819  0.1237  0.3067
    24G12c C01T  355   8.452  12.143   6.250  0.5056  2.3291  2.5569
    24G12c H00K  356   8.504  12.065   6.194 -1.5185  3.4928 -1.1427
    24G12c H00J  357   8.374  12.095   6.310 -2.6091  3.9238 -0.0284
    24G12c H00I  358   8.544  12.158   6.306  2.1337  2.2679 -0.0169
    24G12c C01M  359   8.238  12.434   6.189  0.3347 -0.7892 -0.8040
    24G12c C020  360   7.936  12.813   6.298 -0.8320 -0.1965 -2.4435
    24G12c C021  361   7.838  12.766   6.198 -0.4360 -1.4633 -0.1574
    24G12c C01L  362   8.228  12.578   6.235  0.1519  0.1203 -0.0103
    24G12c O007  363   8.127  12.360   6.145 -0.5009 -0.1326 -0.3268
    24G12c C022  364   7.881  12.641   6.123  2.5056  1.7475  1.2122
    24G12c C023  365   7.699  12.754   6.227 -0.0540  0.9205  0.4484
    24G12c C00G  366   7.487  12.636   6.354  1.7241  0.3437  0.0103
    24G12c C00E  367   7.271  12.522   6.340 -1.1062  0.0257  0.9698
    24G12c O00A  368   7.141  12.522   6.383 -0.9358  0.2860  1.4404
    24G12c C024  369   7.070  12.650   6.377  0.4259 -1.0395  0.1707
    24G12c H00V  370   7.088  12.718   6.461  5.5444 -0.3203 -1.3685
    24G12c H00U  371   6.963  12.631   6.378 -0.1216  1.3638 -3.2043
    24G12c H00T  372   7.104  12.698   6.285  1.8133  2.1206  2.2329
    34G12c C00D  373   7.304   0.868   2.069  0.1551  0.4542  0.1453
    34G12c O00B  374   7.286   0.934   2.187 -0.5691  0.0108 -0.3717
    34G12c C025  375   7.205   0.935   2.292  1.2597  1.1959  0.6572
    34G12c C026  376   7.239   1.039   2.383 -1.9153  0.7830  0.6725
    34G12c H00Y  377   7.211   1.022   2.487  0.0095  5.3827  2.0953
    34G12c H00X  378   7.175   1.125   2.361 -5.1235 -2.0440 -1.6323
    34G12c O00C  379   7.389   1.076   2.384 -0.0785  0.9042 -1.7630
    34G12c H00W  380   7.413   1.107   2.298 -1.9808 -0.4172 -2.8047
    34G12c C027  381   7.114   0.833   2.331 -0.0432 -1.2902  1.0890
    34G12c O00D  382   7.087   0.712   2.262 -1.0690 -0.6567  0.8532
    34G12c H00Z  383   7.063   0.676   2.346 -4.1194  1.2082  0.8576
    34G12c C028  384   7.083   0.822   2.479 -2.3735 -2.2079  0.7934
    34G12c C029  385   7.109   0.709   2.567  0.0469  0.5328 -1.2033
    34G12c H010  386   7.177   0.631   2.536 -1.3257  0.1456 -3.3302
    34G12c C02T  387   7.049   0.690   2.681  0.6953 -1.2957  1.2911
    34G12c H01O  388   7.072   0.604   2.743  1.5989  0.8295  4.0163
    34G12c C02S  389   6.992   0.808   2.748 -0.4938  0.7367 -0.3017
    34G12c O00J  390   6.998   0.813   2.887  0.2604 -1.1623  0.5533
    34G12c H01P  391   7.051   0.887   2.911 -3.0483  1.6028 -0.2747
    34G12c C02R  392   6.979   0.920   2.677 -0.6664 -1.1590 -0.4653
    34G12c O00I  393   6.914   1.033   2.733  2.1123 -0.9321  2.2688
    34G12c C02Q  394   6.980   1.151   2.791  1.4246  0.6465 -0.6535
    34G12c H01N  395   7.048   1.194   2.717 -1.0300 -3.4729 -5.6048
    34G12c H01R  396   6.910   1.234   2.788 -0.7309 -1.1793 -2.3964
    34G12c H01Q  397   7.017   1.097   2.878 -2.3107 -1.7348 -0.4411
    34G12c C02A  398   7.009   0.922   2.540 -1.5199 -0.0677  0.2380
    34G12c H011  399   6.974   1.021   2.514  4.5841  1.6198 -2.7509
    34G12c C00C  400   7.430   0.856   2.016  0.2467 -0.4479 -3.4360
    34G12c H012  401   7.514   0.873   2.082 -5.0153  2.3073  3.1502
    34G12c C00B  402   7.455   0.800   1.899  1.5622 -1.8305  0.4042
    34G12c C00A  403   7.585   0.751   1.859  0.0307  0.6270  0.6693
    34G12c C009  404   7.709   0.812   1.886 -1.7538 -0.3329  0.8829
    34G12c C008  405   7.761   0.917   1.951 -0.1745 -1.0261  0.7428
    34G12c H013  406   7.738   0.971   2.041 -2.0977  0.5632 -0.6385
    34G12c C007  407   7.895   0.965   1.913  0.5986  0.8332  1.1120
    34G12c H014  408   7.964   1.022   1.974 -2.3131  0.1530  5.1957
    34G12c C006  409   7.942   0.934   1.789  1.6577 -0.8191  0.5429
    34G12c C005  410   7.894   0.818   1.732 -0.1635 -0.5730  0.6548
    34G12c C004  411   7.926   0.784   1.594  0.3846  0.9991  0.2591
    34G12c C003  412   7.841   0.700   1.528  1.0443 -0.5136  0.4486
    34G12c C002  413   7.886   0.680   1.389 -0.7215 -0.8651 -0.6348
    34G12c C001  414   7.842   0.598   1.294  0.3452  0.6420  1.6532
    34G12c C00M  415   7.699   0.580   1.251 -1.3295  0.7828  0.2057
    34G12c C00L  416   7.611   0.547   1.345 -0.5476  0.4747  0.6563
    34G12c C00R  417   7.471   0.568   1.309  0.6837 -0.5768 -0.8909
    34G12c C00Q  418   7.385   0.622   1.203  0.6781 -0.4455  0.4635
    34G12c C00V  419   7.263   0.663   1.238  0.4221  0.9549 -2.5470
    34G12c C00U  420   7.213   0.654   1.377 -0.0872 -0.0306  0.3915
    34G12c C00T  421   7.290   0.623   1.476 -1.3465  0.9430 -0.8951
    34G12c C016  422   7.261   0.665   1.610 -0.0903  1.0055 -0.5582
    34G12c C015  423   7.138   0.711   1.638 -2.2689  0.1231  0.4249
    34G12c C010  424   7.045   0.728   1.542 -1.0145 -1.1519  0.5407
    34G12c C011  425   6.919   0.736   1.574 -0.1456 -0.5729 -1.3456
    34G12c H005  426   6.846   0.714   1.498  0.9505  1.7621 -3.1329
    34G12c C012  427   6.871   0.760   1.706 -0.5819 -2.3124 -0.5092
    34G12c C017  428   6.726   0.754   1.740 -0.3249 -1.1006  0.0449
    34G12c O002  429   6.700   0.671   1.851 -0.8198  0.8015 -0.3772
    34G12c H004  430   6.607   0.672   1.867 -0.3108 -0.4217  2.9706
    34G12c C018  431   6.638   0.842   1.683  0.5583  1.3278  0.3429
    34G12c O001  432   6.667   0.925   1.588  0.6502 -0.5509 -1.5174
    34G12c H003  433   6.701   0.880   1.512 -4.0056  2.4414 -5.7071
    34G12c C019  434   6.515   0.867   1.772  0.1601  0.4134  0.3766
    34G12c H002  435   6.498   0.897   1.876 -4.2981  1.8449 -0.6730
    34G12c H001  436   6.473   0.949   1.714  0.1926 -0.3367 -0.7228
    34G12c O000  437   6.434   0.750   1.744 -0.0003 -1.3040 -0.6986
    34G12c C01A  438   6.298   0.763   1.770 -1.8248 -0.5974 -2.5433
    34G12c C02K  439   6.220   0.654   1.724 -0.9276 -1.8733  1.1298
    34G12c O00G  440   6.255   0.556   1.638 -0.2178 -0.1364 -0.2262
    34G12c C02M  441   6.172   0.541   1.514 -0.6561 -1.8909  1.0059
    34G12c H01G  442   6.142   0.631   1.461  3.5290 -0.3060  1.1028
    34G12c H01F  443   6.248   0.499   1.448  1.7912  3.1173  0.3830
    34G12c H01E  444   6.084   0.479   1.528 -3.8522  2.9276  3.5318
    34G12c C02J  445   6.078   0.671   1.744  0.5242  1.6071 -0.1152
    34G12c H01H  446   6.018   0.582   1.727  1.1166  1.5925 -2.2952
    34G12c C02I  447   6.008   0.758   1.845 -2.0012  1.1028  0.7849
    34G12c C02N  448   5.889   0.749   1.907  0.8739 -0.6354  0.2969
    34G12c H01M  449   5.860   0.650   1.939 -2.0970 -0.0548 -0.4838
    34G12c C02O  450   5.796   0.847   1.917 -0.9267  1.2001 -0.8296
    34G12c H01L  451   5.828   0.947   1.892  7.7312 -0.5034  2.0929
    34G12c C02P  452   5.660   0.828   1.962 -0.1801  0.8309 -0.7630
    34G12c H01K  453   5.638   0.881   2.055  4.0390 -0.7174  1.2709
    34G12c H01J  454   5.602   0.887   1.891  1.2901 -0.9014 -3.5000
    34G12c O00H  455   5.621   0.688   1.935 -0.7130 -0.0971  0.7226
    34G12c H01I  456   5.564   0.669   2.008 -2.0055  0.1297 -0.2286
    34G12c C02H  457   6.109   0.849   1.886  0.5785  1.2236 -1.4330
    34G12c H01C  458   6.057   0.915   1.953 -2.8310 -3.3118  0.6004
    34G12c C02L  459   6.237   0.870   1.844 -1.2319 -0.1191 -0.8153
    34G12c H01D  460   6.286   0.958   1.882  3.4790 -2.2218 -1.6917
    34G12c C013  461   6.980   0.797   1.795 -0.1608  1.1848 -0.5965
    34G12c H000  462   6.949   0.796   1.899 -1.3035 -1.0998 -0.9063
    34G12c C014  463   7.120   0.776   1.762  0.0752  0.9487  0.5457
    34G12c C00F  464   7.221   0.813   1.838 -0.1416 -0.6661  0.1865
    34G12c C00H  465   7.366   0.676   1.707 -0.0375 -1.2503 -0.2125
    34G12c C00I  466   7.494   0.619   1.681 -0.6535  0.2279  2.2978
    34G12c C00J  467   7.516   0.551   1.545  0.5761 -1.0378 -0.2304
    34G12c C00Z  468   7.081   0.705   1.409 -1.4100  0.2461  1.1203
    34G12c C00Y  469   6.998   0.752   1.303 -0.7803  0.6822 -0.8822
    34G12c H006  470   6.913   0.818   1.309 -3.3199 -2.6551  1.8720
    34G12c C00X  471   7.043   0.750   1.174  1.1101 -2.5901 -0.9025
    34G12c O003  472   6.956   0.831   1.097  1.1721 -0.1941 -0.1791
    34G12c C01B  473   6.943   0.792   0.952  1.2162  0.8747 -1.8524
    34G12c H009  474   6.998   0.878   0.914 -0.7917  4.7888  3.4490
    34G12c H008  475   6.838   0.778   0.927  1.4404 -2.2601 -1.2453
    34G12c H007  476   6.981   0.709   0.893 -3.6027 -3.3081  0.4922
    34G12c C00W  477   7.174   0.711   1.141 -0.1760  0.0792 -0.2004
    34G12c O004  478   7.216   0.728   1.013 -0.6502  0.2731  0.6734
    34G12c C01C  479   7.332   0.654   0.965 -0.6049  0.7515  0.3002
    34G12c H00A  480   7.339   0.640   0.858 -4.6596  4.6976 -0.6406
    34G12c C00P  481   7.426   0.648   1.062  1.4140 -1.0694  0.1338
    34G12c C00O  482   7.566   0.678   1.032  0.3113  0.7783  1.2857
    34G12c C01D  483   7.596   0.738   0.906 -0.6538 -0.3238 -1.8671
    34G12c H00S  484   7.516   0.788   0.853 -2.3037  1.9292  2.5185
    34G12c C01E  485   7.731   0.785   0.873  0.9890  0.8074  0.2522
    34G12c O008  486   7.750   0.858   0.750 -0.4754 -1.3204 -0.9832
    34G12c C01V  487   7.646   0.883   0.664 -0.4449 -1.7607 -0.4250
    34G12c C01Z  488   7.660   0.823   0.525 -0.0210  1.0953  0.2671
    34G12c H00R  489   7.677   0.726   0.572  9.0946  1.1094 -2.1118
    34G12c H00Q  490   7.580   0.784   0.462 -0.4522  1.0633  0.8235
    34G12c O009  491   7.783   0.839   0.462  0.2674  0.2790 -0.8741
    34G12c H00P  492   7.825   0.924   0.469 -0.5092  0.5027  1.5702
    34G12c C01W  493   7.554   0.989   0.706  0.6953  0.1945  0.2320
    34G12c H00O  494   7.593   1.037   0.794  6.7288  0.0654 -2.1104
    34G12c C01X  495   7.435   1.057   0.623  1.1109 -0.2455 -0.0076
    34G12c H00N  496   7.412   0.981   0.549 -3.4351  1.7764 -0.8311
    34G12c H00M  497   7.338   1.061   0.672 -0.6507 -4.9732 -2.8473
    34G12c C01Y  498   7.492   1.176   0.564 -1.0499  0.3579 -0.4734
    34G12c C02D  499   7.417   1.274   0.474  0.0352 -0.3373 -2.2773
    34G12c H019  500   7.313   1.246   0.464 -0.1264  0.5707 -3.3129
    34G12c C02C  501   7.469   1.407   0.438 -0.3459  0.5477 -0.0904
    34G12c H01A  502   7.416   1.494   0.402 -0.8508 -2.6228 -7.9527
    34G12c C02B  503   7.605   1.420   0.432 -0.3674  1.9068 -2.0187
    34G12c O00E  504   7.664   1.544   0.401  1.3128  1.1387 -0.0522
    34G12c H01B  505   7.749   1.578   0.426 -0.4105  5.5277  0.1793
    34G12c C02F  506   7.698   1.322   0.477  1.2983  0.6421 -0.0676
    34G12c O00F  507   7.831   1.340   0.482  0.5400  0.5215  0.1755
    34G12c C02G  508   7.921   1.231   0.517  0.3250 -1.0158  0.1845
    34G12c H017  509   7.904   1.173   0.607 -4.8187  0.1302  0.0742
    34G12c H016  510   8.030   1.241   0.510  0.0056  0.6045 -4.6708
    34G12c H015  511   7.933   1.162   0.433  1.3490 -3.4267  2.2596
    34G12c C02E  512   7.635   1.218   0.549  0.6407 -0.3519 -0.2763
    34G12c H018  513   7.670   1.117   0.570  1.8778  0.7194  3.1392
    34G12c C01F  514   7.815   0.768   0.974 -0.9286  1.1998  0.9312
    34G12c C01G  515   7.930   0.847   0.982  1.2599 -0.3417  0.6767
    34G12c H00L  516   7.973   0.924   0.920 -1.1797  0.0899 -0.5668
    34G12c C01H  517   8.008   0.842   1.099 -0.9330  1.0941 -1.6979
    34G12c H00B  518   8.051   0.940   1.106  3.4608 -0.5944 -3.5376
    34G12c C01I  519   7.986   0.748   1.195 -0.1170 -0.5880 -0.0661
    34G12c C01U  520   7.794   0.667   1.069 -1.4130  0.1401  0.7331
    34G12c C00S  521   7.424   0.577   1.450  0.5197 -0.0194 -0.4843
    34G12c C00K  522   7.640   0.558   1.485 -0.9184 -0.3574 -1.9678
    34G12c C00N  523   7.677   0.651   1.122  0.6234  0.3878  0.6577
    34G12c C000  524   7.905   0.643   1.167 -1.2114  1.3427  0.6817
    34G12c C01J  525   7.981   0.772   1.339 -1.4853 -0.4724 -1.1894
    34G12c C01K  526   8.049   0.871   1.393  0.6425 -0.6158  1.1103
    34G12c C01P  527   8.175   0.928   1.369  0.0382 -0.3923 -1.2859
    34G12c C01Q  528   8.261   0.881   1.253  0.9496  0.8156 -1.1486
    34G12c H00G  529   8.236   0.785   1.209  1.2769  1.0336 -1.8178
    34G12c C01R  530   8.370   0.933   1.202  0.3479  0.1957  0.1613
    34G12c H00F  531   8.421   1.025   1.227  0.9914  0.6128 -2.4886
    34G12c C01S  532   8.433   0.874   1.079  0.8011 -0.5777  1.1674
    34G12c H00E  533   8.402   0.796   1.009 -1.5375 -1.2919  2.9264
    34G12c H00D  534   8.417   0.933   0.989 -3.1693  0.2242  2.2738
    34G12c O005  535   8.571   0.848   1.111 -0.8487 -0.8872  0.2482
    34G12c H00C  536   8.642   0.880   1.056 -2.3744 -0.7237 -1.6720
    34G12c C01O  537   8.234   1.040   1.445 -0.2647  1.5706 -0.9816
    34G12c H00H  538   8.338   1.053   1.420  0.1774  0.8666  0.4267
    34G12c C01N  539   8.161   1.073   1.562 -1.3021  0.1832  0.4810
    34G12c O006  540   8.169   1.179   1.629  0.4262 -0.6470 -0.5765
    34G12c C01T  541   8.241   1.290   1.589 -0.2464  0.6190  0.5209
    34G12c H00K  542   8.350   1.295   1.593 -0.1748 -1.1463  1.4647
    34G12c H00J  543   8.230   1.313   1.483  0.4676 -3.3037 -0.4864
    34G12c H00I  544   8.196   1.353   1.666 -0.7197 -3.6029  3.9226
    34G12c C01M  545   8.063   0.986   1.609 -0.1814 -1.1765 -0.0219
    34G12c C020  546   7.734   0.624   1.578 -1.6839 -0.3041  0.0110
    34G12c C021  547   7.719   0.641   1.713 -1.1677  1.7139  1.8246
    34G12c C01L  548   8.013   0.872   1.532  0.6340  1.5230  0.2208
    34G12c O007  549   8.018   1.025   1.732 -0.2902 -0.3722  1.7385
    34G12c C022  550   7.785   0.745   1.780 -2.3317  1.8424  0.1533
    34G12c C023  551   7.596   0.650   1.771  0.0630 -0.9150  0.4575
    34G12c C00G  552   7.348   0.763   1.813 -0.1935  1.6905  1.0852
    34G12c C00E  553   7.202   0.883   1.964 -0.3376  0.0221 -1.1503
    34G12c O00A  554   7.089   0.968   1.956 -0.6390 -0.2605 -1.8508
    34G12c C024  555   7.096   1.078   2.026  0.0153 -0.2082 -0.1004
    34G12c H00V  556   7.037   1.069   2.117 -2.2646  1.4088 -1.3463
    34G12c H00U  557   7.036   1.148   1.967 -4.1580  0.4402  4.6006
    34G12c H00T  558   7.183   1.131   2.065 -0.4281  0.7312 -0.3696
    44G12c C00D  559   7.812  11.697   4.336 -0.1084 -0.9560  0.8007
    44G12c O00B  560   7.935  11.644   4.299  1.0274 -0.4942 -0.2706
    44G12c C025  561   7.982  11.624   4.180 -1.5272  0.2111 -0.0962
    44G12c C026  562   7.977  11.471   4.150 -0.1529  2.1809 -0.3702
    44G12c H00Y  563   8.073  11.432   4.183 -2.4035  1.1270  5.3955
    44G12c H00X  564   7.977  11.432   4.048  0.3530 -1.3395  0.9161
    44G12c O00C  565   7.897  11.394   4.227 -0.6248 -0.8771 -0.0086
    44G12c H00W  566   7.817  11.444   4.240  0.8777  0.9900  2.5754
    44G12c C027  567   8.063  11.715   4.114  1.0970  0.2881  0.6103
    44G12c O00D  568   8.047  11.854   4.120 -0.6873 -0.6793  0.7460
    44G12c H00Z  569   8.067  11.876   4.210 -0.7323 -1.6932  1.0100
    44G12c C028  570   8.102  11.674   3.984 -0.5180  0.7341 -0.7605
    44G12c C029  571   8.238  11.632   3.943 -0.4843 -0.3501  1.6549
    44G12c H010  572   8.301  11.663   4.025  2.5930 -2.1034  0.0381
    44G12c C02T  573   8.268  11.601   3.805  0.8229 -0.2011  0.5803
    44G12c H01O  574   8.367  11.574   3.770  3.1004  5.6668  1.8986
    44G12c C02S  575   8.164  11.591   3.718 -0.6729  0.5449 -2.4044
    44G12c O00J  576   8.184  11.567   3.584 -0.1094  1.2735 -0.1613
    44G12c H01P  577   8.106  11.595   3.538 -0.3929  3.3411  1.4850
    44G12c C02R  578   8.038  11.622   3.758  1.3809 -0.8845  1.5010
    44G12c O00I  579   7.940  11.606   3.647 -1.4876  0.8519 -1.0456
    44G12c C02Q  580   7.828  11.519   3.661  1.9576  0.4256  0.0440
    44G12c H01N  581   7.841  11.412   3.641  1.8025 -0.2401  3.1763
    44G12c H01R  582   7.805  11.495   3.765 -2.3845  2.8517 -0.2762
    44G12c H01Q  583   7.747  11.570   3.610  2.5552  1.1418 -0.1976
    44G12c C02A  584   8.013  11.685   3.887  1.0814 -0.1934 -0.8606
    44G12c H011  585   7.923  11.727   3.929 -0.1537  0.1318 -3.6664
    44G12c C00C  586   7.737  11.791   4.250 -1.3748 -0.1445 -0.5291
    44G12c H012  587   7.785  11.849   4.172 -0.5105  1.9886  1.5274
    44G12c C00B  588   7.597  11.813   4.287 -1.2698 -0.4708  0.1848
    44G12c C00A  589   7.504  11.910   4.220 -0.2672 -0.0625 -0.1725
    44G12c C009  590   7.534  12.002   4.111 -1.1583 -0.0450 -0.5842
    44G12c C008  591   7.645  12.075   4.061 -1.2874 -0.7955  0.4061
    44G12c H013  592   7.739  12.027   4.039 -2.7734 -2.2575 -3.1567
    44G12c C007  593   7.615  12.209   4.016 -2.2902  0.9415  1.9254
    44G12c H014  594   7.695  12.270   3.977  0.0084 -0.0431  4.9544
    44G12c C006  595   7.491  12.281   4.021 -0.0989 -0.3598  0.4999
    44G12c C005  596   7.388  12.193   4.052 -0.4149  0.3400 -1.0591
    44G12c C004  597   7.258  12.253   4.069  0.1972  0.0559  1.2152
    44G12c C003  598   7.155  12.171   4.135 -1.8547  0.3261 -1.1399
    44G12c C002  599   7.032  12.245   4.166 -0.3407 -0.4174  1.1029
    44G12c C001  600   6.913  12.188   4.242  1.9045  0.2756 -0.3407
    44G12c C00M  601   6.928  12.128   4.376 -0.7493 -0.4017  2.3920
    44G12c C00L  602   7.015  12.036   4.405 -1.6502  0.3138 -0.7796
    44G12c C00R  603   7.059  12.007   4.537  0.8049 -1.3759  2.3316
    44G12c C00Q  604   7.022  12.043   4.668 -1.2951 -0.4245  1.3632
    44G12c C00V  605   7.103  11.994   4.774  0.3814 -0.4453 -1.1269
    44G12c C00U  606   7.231  11.928   4.755 -1.8956  1.7053  0.6839
    44G12c C00T  607   7.261  11.878   4.627  0.8413  0.5228 -2.5192
    44G12c C016  608   7.382  11.829   4.577 -0.4288 -0.3668 -1.9537
    44G12c C015  609   7.482  11.823   4.676 -2.2308  1.2003  1.0680
    44G12c C010  610   7.445  11.845   4.811  0.3088  0.1485  1.0189
    44G12c C011  611   7.539  11.826   4.901 -0.2459 -0.4215 -0.3471
    44G12c H005  612   7.536  11.836   5.008 -3.0906 -3.6340 -0.0328
    44G12c C012  613   7.646  11.751   4.886 -0.1095 -1.1104  0.7338
    44G12c C017  614   7.739  11.703   4.990  0.1368  0.6440  0.7077
    44G12c O002  615   7.671  11.612   5.074  0.9277  0.4476  1.1936
    44G12c H004  616   7.669  11.635   5.165  2.3528 -5.0121  2.8247
    44G12c C018  617   7.869  11.740   5.016 -0.5690 -0.8253 -0.1779
    44G12c O001  618   7.934  11.824   4.923  0.2784 -0.6235  0.6631
    44G12c H003  619   7.870  11.861   4.865 -0.0526  1.8728  2.5699
    44G12c C019  620   7.952  11.666   5.140 -0.5248  1.1057 -1.1976
    44G12c H002  621   8.015  11.591   5.094  0.6641  0.7293  0.9727
    44G12c H001  622   8.024  11.747   5.151  0.3391 -0.0827  2.3829
    44G12c O000  623   7.871  11.588   5.239 -0.3802 -0.1091  1.1625
    44G12c C01A  624   7.925  11.582   5.364  0.1762 -0.5397 -1.5639
    44G12c C02K  625   8.011  11.476   5.374  0.2408  0.3988 -2.3109
    44G12c O00G  626   8.014  11.400   5.263  0.7533 -1.3522 -1.2834
    44G12c C02M  627   7.963  11.270   5.288  0.1412  0.7134 -0.9526
    44G12c H01G  628   7.855  11.284   5.296  0.4903  5.6293 -3.1486
    44G12c H01F  629   8.036  11.247   5.366  1.1728 -2.8931 -2.8602
    44G12c H01E  630   7.985  11.215   5.196 -1.2226 -5.0922  1.9013
    44G12c C02J  631   8.062  11.447   5.499  1.4166  2.3004  0.6293
    44G12c H01H  632   8.103  11.350   5.521 -4.3233  0.0568  2.5429
    44G12c C02I  633   8.032  11.541   5.613  0.6783 -0.5628 -0.8433
    44G12c C02N  634   8.091  11.516   5.736 -3.1666 -1.3651  0.9662
    44G12c H01M  635   8.024  11.497   5.819 -0.7081  0.4514  3.4411
    44G12c C02O  636   8.216  11.495   5.758 -0.4990 -1.4262  1.3495
    44G12c H01L  637   8.289  11.496   5.679 -1.1395 -1.6912  0.7523
    44G12c C02P  638   8.256  11.467   5.907 -0.1643  1.4671 -0.1107
    44G12c H01K  639   8.188  11.398   5.957  0.9994  3.5641  4.6427
    44G12c H01J  640   8.360  11.441   5.891  0.0945  0.3963  3.0170
    44G12c O00H  641   8.240  11.601   5.964  0.7751 -0.1803 -0.3120
    44G12c H01I  642   8.155  11.615   5.923  1.8005  3.6629 -1.3773
    44G12c C02H  643   7.963  11.651   5.579  0.3283  0.8781 -0.9937
    44G12c H01C  644   7.956  11.729   5.653  4.5306  0.1493  0.3369
    44G12c C02L  645   7.916  11.691   5.457 -0.6742  0.6796 -1.6346
    44G12c H01D  646   7.902  11.788   5.412  5.6498  0.9770 -3.5522
    44G12c C013  647   7.653  11.682   4.764 -0.3644  0.8134 -0.5469
    44G12c H000  648   7.662  11.577   4.742 -1.0806  0.2662  1.6629
    44G12c C014  649   7.596  11.758   4.649  0.9641  0.6417 -0.8475
    44G12c C00F  650   7.631  11.744   4.505 -0.3429  1.2794  0.6458
    44G12c C00H  651   7.412  11.816   4.433 -0.3162 -0.3490 -0.7643
    44G12c C00I  652   7.316  11.861   4.348 -1.9712 -1.0832  0.1172
    44G12c C00J  653   7.196  11.909   4.397 -0.8069 -0.8807 -1.9537
    44G12c C00Z  654   7.317  11.883   4.853  1.2997 -1.0564 -1.5093
    44G12c C00Y  655   7.291  11.916   4.987 -1.0123 -0.1218  1.9680
    44G12c H006  656   7.353  11.893   5.072 -1.1957 -2.8655  1.4214
    44G12c C00X  657   7.163  11.979   5.017  1.3931  1.3761 -1.8135
    44G12c O003  658   7.088  11.990   5.126 -0.7372  0.8427  0.3915
    44G12c C01B  659   7.173  11.987   5.233  1.0217  0.1133 -1.1289
    44G12c H009  660   7.221  12.081   5.205 -7.3902  5.0648 -0.8816
    44G12c H008  661   7.196  11.881   5.225-11.2114 -3.6883  1.9023
    44G12c H007  662   7.104  12.000   5.317  0.0173 -3.0036 -1.3996
    44G12c C00W  663   7.079  12.002   4.909 -0.1061  0.5670 -0.2363
    44G12c O004  664   6.964  12.065   4.942  0.5168  0.7243  0.0767
    44G12c C01C  665   6.881  12.130   4.856  0.9631  0.7459 -0.9003
    44G12c H00A  666   6.776  12.141   4.874  1.8220  4.2207  2.4451
    44G12c C00P  667   6.924  12.133   4.714  0.8493  0.6339 -0.7564
    44G12c C00O  668   6.862  12.225   4.624 -1.0110  2.5203 -1.1237
    44G12c C01D  669   6.807  12.339   4.677 -1.1999 -0.3531  1.6121
    44G12c H00S  670   6.791  12.348   4.784  0.2112  6.6054  1.5188
    44G12c C01E  671   6.798  12.455   4.610 -1.1580  0.9242  0.0429
    44G12c O008  672   6.760  12.564   4.689 -1.2322  1.5746  1.1713
    44G12c C01V  673   6.863  12.658   4.733  0.6197  1.2437  0.6215
    44G12c C01Z  674   6.790  12.760   4.807  0.9937 -0.7542  0.6980
    44G12c H00R  675   6.695  12.798   4.770  3.5716  4.4578 -1.1216
    44G12c H00Q  676   6.777  12.726   4.910  0.5733 -0.0835  0.8675
    44G12c O009  677   6.838  12.885   4.841 -0.0449  1.8610  0.0783
    44G12c H00P  678   6.790  12.946   4.786 -2.2448 -0.3848 -0.5765
    44G12c C01W  679   6.993  12.654   4.711  1.1135 -1.2031  0.3291
    44G12c H00O  680   7.022  12.573   4.647  5.4133  0.2192  0.3056
    44G12c C01X  681   7.115  12.745   4.766 -1.0493 -0.0164  0.8842
    44G12c H00N  682   7.136  12.830   4.701 -6.8660  1.3378  0.4649
    44G12c H00M  683   7.073  12.770   4.864 -2.2506 -5.6709  1.9664
    44G12c C01Y  684   7.234  12.678   4.833  1.6530 -1.2739  0.5228
    44G12c C02D  685   7.336  12.627   4.754 -2.2143 -2.5944  0.1497
    44G12c H019  686   7.338  12.662   4.652 -2.2332  2.7015  1.8601
    44G12c C02C  687   7.453  12.576   4.836 -0.6059 -0.9802 -2.2877
    44G12c H01A  688   7.549  12.564   4.788  1.9020  2.6916  1.5077
    44G12c C02B  689   7.461  12.593   4.972 -0.7067  0.5067  0.4507
    44G12c O00E  690   7.561  12.561   5.054  2.1588  0.2475 -0.6898
    44G12c H01B  691   7.518  12.558   5.138 -3.4193  0.5392 -3.2933
    44G12c C02F  692   7.345  12.638   5.044 -0.0066  0.7218  0.8429
    44G12c O00F  693   7.309  12.610   5.178 -0.0672 -0.0857 -0.3297
    44G12c C02G  694   7.211  12.517   5.228  0.9180 -0.3664  2.4810
    44G12c H017  695   7.270  12.433   5.265  6.4590  5.3125  7.9082
    44G12c H016  696   7.139  12.484   5.154 -0.5346  2.8095  2.4106
    44G12c H015  697   7.159  12.567   5.310  2.8344  2.1718  2.2163
    44G12c C02E  698   7.237  12.687   4.968 -0.6296 -0.3228 -0.3348
    44G12c H018  699   7.147  12.715   5.021  0.3574 -5.1216  4.4295
    44G12c C01F  700   6.809  12.450   4.471  0.2016  1.7000  2.0218
    44G12c C01G  701   6.793  12.549   4.373  0.2058  0.8577  0.1894
    44G12c H00L  702   6.769  12.641   4.425  4.4610  1.2795  1.6033
    44G12c C01H  703   6.847  12.550   4.245 -0.1558  0.8359  1.0661
    44G12c H00B  704   6.873  12.652   4.219 -2.5754  1.5936  1.4500
    44G12c C01I  705   6.888  12.421   4.192 -1.2264  1.6396  0.4329
    44G12c C01U  706   6.831  12.329   4.405 -0.0418 -1.4566 -0.6274
    44G12c C00S  707   7.176  11.929   4.536  1.4355 -1.6121 -1.3196
    44G12c C00K  708   7.119  12.005   4.324 -0.4166  2.3508 -0.0509
    44G12c C00N  709   6.872  12.214   4.478 -0.0713 -1.1878  0.5133
    44G12c C000  710   6.843  12.313   4.268  0.7843  0.4535  0.9031
    44G12c C01J  711   7.017  12.385   4.155 -0.5082  0.1497 -0.5470
    44G12c C01K  712   7.117  12.465   4.088  1.2245 -1.8425  0.7858
    44G12c C01P  713   7.102  12.597   4.024 -0.3693 -0.1478  0.0445
    44G12c C01Q  714   6.970  12.642   3.972  2.7495  2.4129 -1.3617
    44G12c H00G  715   6.942  12.589   3.882 -1.7601 -0.5993  1.6001
    44G12c C01R  716   6.932  12.770   4.018 -1.1688  0.0790 -0.2476
    44G12c H00F  717   6.846  12.810   3.966 -0.6909 -2.5385 -3.2230
    44G12c C01S  718   7.025  12.837   4.117  0.6995  0.0352  0.0313
    44G12c H00E  719   7.073  12.761   4.179 -2.4322 -1.6503  0.5206
    44G12c H00D  720   7.073  12.917   4.061 -2.5705  2.2222  0.2513
    44G12c O005  721   6.935  12.891   4.212  1.0672  0.0864  0.0448
    44G12c H00C  722   6.979  12.954   4.265  2.5019  1.5565 -2.7746
    44G12c C01O  723   7.216  12.674   4.010  2.3060 -0.5697  0.7470
    44G12c H00H  724   7.206  12.775   3.974  3.2440 -0.9611 -0.6693
    44G12c C01N  725   7.348  12.619   4.022  1.4311  1.7772 -1.0850
    44G12c O006  726   7.463  12.668   3.987 -0.3280 -1.0539 -0.1793
    44G12c C01T  727   7.484  12.783   4.062 -0.7970 -0.4183  1.1129
    44G12c H00K  728   7.402  12.851   4.086  1.6002  2.3866  1.5726
    44G12c H00J  729   7.505  12.730   4.155  0.5309 -3.5752 -0.9025
    44G12c H00I  730   7.582  12.828   4.051 -2.0885  1.3201 -5.2377
    44G12c C01M  731   7.352  12.476   4.032 -0.3433  0.2007 -1.3751
    44G12c C020  732   7.184  12.045   4.190  0.3824 -0.2814 -2.1373
    44G12c C021  733   7.293  11.975   4.139  1.3635  0.5227 -0.0544
    44G12c C01L  734   7.237  12.393   4.054 -0.1519 -0.5965 -0.9173
    44G12c O007  735   7.471  12.418   4.018 -0.2963  0.6819  0.2610
    44G12c C022  736   7.397  12.053   4.080 -0.3722 -0.9873  0.0278
    44G12c C023  737   7.365  11.875   4.215 -1.4028  0.6561  0.2940
    44G12c C00G  738   7.543  11.777   4.399 -1.0373 -1.7687  0.4386
    44G12c C00E  739   7.765  11.692   4.480 -2.0013 -0.2554 -1.7599
    44G12c O00A  740   7.842  11.655   4.594 -0.5605 -0.5470  0.5265
    44G12c C024  741   7.985  11.609   4.573 -0.0491  1.3204 -0.6687
    44G12c H00V  742   8.018  11.508   4.547  5.5489  3.7295 -3.8444
    44G12c H00U  743   8.033  11.627   4.670 -3.5302 -2.2915  1.8993
    44G12c H00T  744   8.037  11.665   4.495 -3.2995  2.0694 -2.3628
    54G12c C00D  745  10.906   6.899   7.162 -0.1535  0.5843 -1.3614
    54G12c O00B  746  10.823   6.795   7.141 -1.0581 -0.7153  1.1134
    54G12c C025  747  10.878   6.690   7.083  0.5855 -1.0568  1.3619
    54G12c C026  748  11.000   6.703   6.992 -1.1787 -0.3151  0.5545
    54G12c H00Y  749  10.996   6.766   6.904  4.3690  0.0217  0.3979
    54G12c H00X  750  10.983   6.617   6.927  3.3207 -4.0239  3.9638
    54G12c O00C  751  11.131   6.713   7.039 -0.3563 -0.7542 -0.4399
    54G12c H00W  752  11.158   6.699   7.128  0.8054  1.7851 -0.3419
    54G12c C027  753  10.850   6.577   7.149  1.1834  0.7173  0.0334
    54G12c O00D  754  10.761   6.554   7.260  0.0652  0.6479  0.4228
    54G12c H00Z  755  10.764   6.648   7.266 -1.5603  0.9875 -2.7267
    54G12c C028  756  10.913   6.442   7.120  1.1333 -1.7374  0.1237
    54G12c C029  757  10.998   6.413   7.233  1.5221  0.6727  1.7233
    54G12c H010  758  11.045   6.497   7.282  5.1371  1.2050 -2.4586
    54G12c C02T  759  11.015   6.282   7.256  0.7450  0.7706 -0.4693
    54G12c H01O  760  11.054   6.248   7.351  0.3184 -3.6821 -1.7566
    54G12c C02S  761  10.985   6.167   7.163 -0.5947  0.4547 -0.6598
    54G12c O00J  762  11.035   6.047   7.184 -2.3445  0.2431  1.5483
    54G12c H01P  763  11.041   6.013   7.096  1.7906  3.2173  0.5231
    54G12c C02R  764  10.935   6.203   7.040 -0.3054  1.2547  2.0317
    54G12c O00I  765  10.941   6.111   6.941  0.9856  1.1125 -1.2617
    54G12c C02Q  766  11.041   6.119   6.842 -0.1393 -0.4706  0.7501
    54G12c H01N  767  11.023   6.012   6.848 -2.3539 -0.4623 -3.4188
    54G12c H01R  768  11.142   6.147   6.872  0.6225  2.8625 -4.2075
    54G12c H01Q  769  11.019   6.139   6.737  0.0600 -3.6318  0.0517
    54G12c C02A  770  10.883   6.336   7.014  1.5197  0.0308 -0.0510
    54G12c H011  771  10.816   6.371   6.936 -1.2883 -2.6957  1.0197
    54G12c C00C  772  10.917   7.022   7.090 -1.4265 -0.5861  0.6157
    54G12c H012  773  10.886   6.985   6.993 -0.9388 -1.0544  0.6393
    54G12c C00B  774  10.963   7.140   7.152 -0.4633 -0.2835 -0.1332
    54G12c C00A  775  10.968   7.273   7.109 -0.8916 -1.1453  0.9354
    54G12c C009  776  10.937   7.325   6.979 -1.1627  0.8719  0.3052
    54G12c C008  777  10.918   7.260   6.850  0.9168  0.1492  0.6302
    54G12c H013  778  10.906   7.154   6.835 -8.0550  0.2954  3.6918
    54G12c C007  779  10.983   7.324   6.732  1.7469 -0.0101 -1.7027
    54G12c H014  780  10.996   7.255   6.650 -1.8699 -5.1098  1.6220
    54G12c C006  781  11.048   7.447   6.729  1.0388 -1.3542 -1.0530
    54G12c C005  782  11.069   7.493   6.856  0.7802 -1.5700  0.6272
    54G12c C004  783  11.171   7.584   6.873  0.1643  0.6331 -0.9152
    54G12c C003  784  11.205   7.624   7.008  1.1589  1.4825 -0.5619
    54G12c C002  785  11.313   7.727   7.004 -2.3324  0.2284 -1.9518
    54G12c C001  786  11.385   7.780   7.121  0.4886  0.9652  0.6770
    54G12c C00M  787  11.449   7.685   7.217  1.5218 -0.2503  0.1945
    54G12c C00L  788  11.365   7.611   7.311 -1.0135 -0.8963 -0.7028
    54G12c C00R  789  11.420   7.491   7.376 -1.1831 -0.3272 -1.0941
    54G12c C00Q  790  11.553   7.459   7.415  0.1863 -1.0012  0.4134
    54G12c C00V  791  11.540   7.350   7.499  0.2950  0.4339 -0.0921
    54G12c C00U  792  11.432   7.256   7.527  0.3516 -1.5212  0.7061
    54G12c C00T  793  11.325   7.283   7.438  1.4593  0.0737 -2.0482
    54G12c C016  794  11.225   7.185   7.411 -0.4614  1.2806 -0.6047
    54G12c C015  795  11.249   7.057   7.459 -0.2108 -0.4652  0.4791
    54G12c C010  796  11.339   7.038   7.575  0.7633 -0.5052  0.6949
    54G12c C011  797  11.356   6.913   7.631  1.7363  0.4038 -1.0619
    54G12c H005  798  11.454   6.906   7.675  4.3859  5.2580 -5.5918
    54G12c C012  799  11.264   6.810   7.601 -1.7667 -0.5648  1.7992
    54G12c C017  800  11.243   6.703   7.699  0.6969 -1.8574 -0.0249
    54G12c O002  801  11.117   6.663   7.722 -0.7812 -0.8653 -0.4419
    54G12c H004  802  11.162   6.604   7.781  0.2170  0.9473  0.6643
    54G12c C018  803  11.332   6.621   7.760 -0.2726 -0.3540 -0.1801
    54G12c O001  804  11.311   6.505   7.839 -0.0044  0.5532 -0.1072
    54G12c H003  805  11.403   6.488   7.856  1.3695  3.5311 -3.9127
    54G12c C019  806  11.481   6.668   7.786 -0.9359 -0.3306 -0.2133
    54G12c H002  807  11.503   6.674   7.679  8.7590 -8.9268  0.4863
    54G12c H001  808  11.506   6.754   7.848 -2.9134 -1.2644  1.9413
    54G12c O000  809  11.565   6.557   7.832  0.3047  0.8561  1.3814
    54G12c C01A  810  11.696   6.572   7.787  0.7812  1.1465  1.0828
    54G12c C02K  811  11.747   6.558   7.657 -0.1988  0.8605  1.0781
    54G12c O00G  812  11.674   6.574   7.555 -0.2655 -0.6486  0.8333
    54G12c C02M  813  11.667   6.475   7.450  1.5412  0.4030  1.4882
    54G12c H01G  814  11.731   6.390   7.472  1.8086  1.3191  4.4858
    54G12c H01F  815  11.690   6.527   7.357 -1.9123 -5.1238 -2.7079
    54G12c H01E  816  11.561   6.458   7.466  0.8453  1.8393 -1.3644
    54G12c C02J  817  11.882   6.575   7.627  1.3169 -0.9037 -1.2798
    54G12c H01H  818  11.921   6.587   7.527 -3.5636 -0.0264 -3.2222
    54G12c C02I  819  11.972   6.599   7.723  1.8428  0.2498 -0.8356
    54G12c C02N  820  12.124   6.613   7.701  1.0466 -1.8388 -2.1835
    54G12c H01M  821  12.178   6.679   7.636  1.6409 -0.4311 -0.3151
    54G12c C02O  822  12.202   6.536   7.776  0.1802 -1.3922 -0.6850
    54G12c H01L  823  12.154   6.460   7.835  5.0941 -2.5616  2.0955
    54G12c C02P  824  12.345   6.529   7.768 -2.3451  0.4303 -1.1357
    54G12c H01K  825  12.397   6.625   7.775 -1.8004  0.0399  0.3477
    54G12c H01J  826  12.353   6.464   7.855  3.8266  3.5847  0.8802
    54G12c O00H  827  12.375   6.444   7.673 -1.6341 -0.6215 -0.7574
    54G12c H01I  828  12.466   6.418   7.672 -0.5851  2.7387  0.7893
    54G12c C02H  829  11.924   6.625   7.843  0.6705  2.0516  0.2057
    54G12c H01C  830  12.004   6.672   7.898  4.8748 -2.0428 -2.0409
    54G12c C02L  831  11.794   6.586   7.882 -1.4596  1.2376  0.0909
    54G12c H01D  832  11.760   6.595   7.984  0.1370  1.3700  0.6288
    54G12c C013  833  11.167   6.841   7.495 -0.0850 -2.6535 -2.6158
    54G12c H000  834  11.110   6.753   7.466 -1.0358 -1.7334 -3.5558
    54G12c C014  835  11.149   6.963   7.429 -1.4729  0.4708 -0.9872
    54G12c C00F  836  11.047   6.994   7.330  0.2631 -2.5118 -0.8121
    54G12c C00H  837  11.127   7.224   7.320  0.7986 -0.6964 -0.6576
    54G12c C00I  838  11.116   7.357   7.283  2.0916  1.3336 -1.0562
    54G12c C00J  839  11.221   7.439   7.305  1.4121  0.2765  0.6181
    54G12c C00Z  840  11.439   7.136   7.589 -0.2644  0.8618  1.1701
    54G12c C00Y  841  11.567   7.121   7.656 -0.9604  0.9424  2.4689
    54G12c H006  842  11.599   7.034   7.711 -1.4540 -0.1312  1.0840
    54G12c C00X  843  11.661   7.224   7.668  1.5992 -0.1980  1.0905
    54G12c O003  844  11.782   7.208   7.747  0.3515 -0.5975 -0.0264
    54G12c C01B  845  11.886   7.157   7.677  0.2122 -1.2183  1.6855
    54G12c H009  846  11.899   7.243   7.610  6.0219 -1.4420  2.2689
    54G12c H008  847  11.892   7.056   7.637  3.0436 -0.6297  0.4847
    54G12c H007  848  11.962   7.142   7.754 -0.9670 -5.9034  2.0841
    54G12c C00W  849  11.654   7.324   7.584  0.1782 -0.5300 -0.8304
    54G12c O004  850  11.750   7.413   7.595  0.5394  1.1350 -2.0744
    54G12c C01C  851  11.783   7.504   7.497  0.7828  0.4557 -0.3379
    54G12c H00A  852  11.887   7.528   7.483 -0.3627  5.5014 -0.9026
    54G12c C00P  853  11.677   7.542   7.404  0.0089 -1.1403  2.1430
    54G12c C00O  854  11.699   7.630   7.296  1.0986 -0.2373  0.7508
    54G12c C01D  855  11.823   7.674   7.252 -0.3754  0.5902 -0.8872
    54G12c H00S  856  11.926   7.644   7.266 -0.1489  1.2110 -1.2028
    54G12c C01E  857  11.841   7.717   7.117 -1.0369 -0.6563 -0.3868
    54G12c O008  858  11.980   7.719   7.063  1.1628 -0.9843 -0.2923
    54G12c C01V  859  12.003   7.619   6.975 -0.3249  0.3664 -0.4108
    54G12c C01Z  860  12.153   7.595   6.958  0.9021 -0.6078  1.0287
    54G12c H00R  861  12.217   7.568   7.042  3.4923  8.7095  2.5979
    54G12c H00Q  862  12.203   7.692   6.964 -3.6265  1.7936  1.9141
    54G12c O009  863  12.195   7.546   6.838 -0.4576  0.1761  0.0852
    54G12c H00P  864  12.210   7.453   6.844  2.6063  0.7595  2.4357
    54G12c C01W  865  11.901   7.541   6.913  2.2838 -1.9172 -1.3569
    54G12c H00O  866  11.795   7.558   6.929  1.7628 -1.5742 -4.8262
    54G12c C01X  867  11.929   7.448   6.793  1.0144 -1.1290  0.9595
    54G12c H00N  868  12.031   7.408   6.791  2.7611  3.0995 -1.2562
    54G12c H00M  869  11.872   7.355   6.790  7.1354 -5.1334 -1.6366
    54G12c C01Y  870  11.903   7.492   6.644  0.1325  0.7117 -0.4314
    54G12c C02D  871  11.958   7.622   6.602 -0.6870  1.1455 -0.4088
    54G12c H019  872  11.999   7.693   6.672  3.6575 -0.2212 -1.4355
    54G12c C02C  873  11.958   7.652   6.456  0.8875 -1.0248 -1.4247
    54G12c H01A  874  12.043   7.715   6.434  1.7076 -2.5624 -2.8102
    54G12c C02B  875  11.889   7.563   6.370 -1.4908 -0.6231  1.5414
    54G12c O00E  876  11.916   7.567   6.233  0.7018  0.5070  0.4319
    54G12c H01B  877  11.844   7.514   6.204 -0.9555 -1.7038  7.7693
    54G12c C02F  878  11.836   7.448   6.413  0.7384 -1.4876 -0.5277
    54G12c O00F  879  11.767   7.381   6.325  1.2094 -0.0631  0.3289
    54G12c C02G  880  11.800   7.233   6.280 -0.1204 -0.2896 -1.3663
    54G12c H017  881  11.768   7.152   6.345  2.4739  0.7803  1.4216
    54G12c H016  882  11.907   7.228   6.300  0.6342  0.2135 -4.9026
    54G12c H015  883  11.741   7.183   6.204  0.3409  0.1013 -1.9893
    54G12c C02E  884  11.855   7.400   6.545  0.3866  0.0480 -1.0832
    54G12c H018  885  11.834   7.298   6.572  4.2966  0.4800  4.5076
    54G12c C01F  886  11.733   7.761   7.041 -1.4507  0.1796  0.2877
    54G12c C01G  887  11.723   7.821   6.897 -0.4668  0.5340 -1.6661
    54G12c H00L  888  11.817   7.844   6.849  0.0652 -4.7575 -3.4090
    54G12c C01H  889  11.601   7.850   6.839 -0.2405 -1.2924 -0.1431
    54G12c H00B  890  11.600   7.826   6.733  3.2505 -2.2693 -0.0220
    54G12c C01I  891  11.479   7.854   6.919 -1.8749 -2.4507  1.4384
    54G12c C01U  892  11.619   7.792   7.120  0.5505  1.1070 -1.3317
    54G12c C00S  893  11.319   7.405   7.386 -0.7813  0.5187  1.0027
    54G12c C00K  894  11.230   7.565   7.258 -0.5120 -1.0417 -0.9055
    54G12c C00N  895  11.593   7.696   7.216 -1.7067 -1.0684  0.2101
    54G12c C000  896  11.501   7.840   7.065  0.8535 -0.3443 -0.4884
    54G12c C01J  897  11.368   7.786   6.882  0.5971  1.9683  0.2759
    54G12c C01K  898  11.310   7.764   6.767  0.6358 -0.7517  0.1787
    54G12c C01P  899  11.319   7.849   6.652  0.6398 -1.1304  0.8623
    54G12c C01Q  900  11.338   7.992   6.655  1.5266 -1.2125 -0.9018
    54G12c H00G  901  11.433   8.041   6.674  0.9099  1.0931 -3.4730
    54G12c C01R  902  11.236   8.081   6.650 -0.4211 -0.3812  1.0044
    54G12c H00F  903  11.155   8.027   6.602  1.6041  0.5241 -3.6567
    54G12c C01S  904  11.265   8.228   6.672  0.1688  1.7372  0.8258
    54G12c H00E  905  11.298   8.301   6.599  7.9955  0.3945  2.5626
    54G12c H00D  906  11.166   8.236   6.717  0.8690  2.2130  2.3381
    54G12c O005  907  11.345   8.231   6.786  0.3116 -1.3697  0.4068
    54G12c H00C  908  11.299   8.167   6.838 -1.5287 -3.1554 -3.2363
    54G12c C01O  909  11.255   7.806   6.535  0.1559 -1.3161  1.3092
    54G12c H00H  910  11.255   7.884   6.461 -1.6820 -1.6961  0.8719
    54G12c C01N  911  11.193   7.696   6.511 -1.0403 -0.5955 -0.7141
    54G12c O006  912  11.106   7.703   6.408 -0.0603 -0.5067  0.4885
    54G12c C01T  913  11.073   7.572   6.355  0.0236 -1.1374  0.9677
    54G12c H00K  914  11.024   7.500   6.421  3.1279 -3.4850  0.8363
    54G12c H00J  915  10.987   7.582   6.289 -0.6133 -8.8854  0.0768
    54G12c H00I  916  11.163   7.527   6.313 -2.2370 -0.2422 -5.2856
    54G12c C01M  917  11.164   7.606   6.621 -2.4106  0.9949  0.8385
    54G12c C020  918  11.163   7.558   7.125  0.2682 -0.6865 -0.3447
    54G12c C021  919  11.047   7.484   7.098  1.2047  0.4518  0.9842
    54G12c C01L  920  11.219   7.645   6.760 -0.3859  0.0997  1.6635
    54G12c O007  921  11.097   7.491   6.614 -1.1088  0.6249  1.2562
    54G12c C022  922  10.984   7.468   6.974  0.7040  0.2482  0.2010
    54G12c C023  923  11.017   7.383   7.190  0.5821  2.0667 -0.3291
    54G12c C00G  924  11.035   7.122   7.274 -2.2580 -1.1536  0.2113
    54G12c C00E  925  10.952   6.907   7.298 -0.5892  0.2187 -0.3910
    54G12c O00A  926  10.894   6.828   7.408  0.4642  0.0005 -0.3590
    54G12c C024  927  10.740   6.802   7.428  1.3062 -0.1390  0.6774
    54G12c H00V  928  10.682   6.825   7.339  4.5748  1.3711 -1.1360
    54G12c H00U  929  10.696   6.858   7.511  0.9350  0.0613  0.3490
    54G12c H00T  930  10.698   6.701   7.426  2.3734 -0.5703 -0.1111
    64G12c C00D  931  11.810   8.571   1.891 -0.0884 -0.2649 -0.1508
    64G12c O00B  932  11.738   8.495   1.990  0.3243 -1.0449 -0.0865
    64G12c C025  933  11.790   8.377   2.032 -0.4844 -1.9300  0.5489
    64G12c C026  934  11.734   8.253   1.960  0.3371  0.2778 -0.3245
    64G12c H00Y  935  11.654   8.207   2.018  4.5704 -5.4129  1.4592
    64G12c H00X  936  11.810   8.181   1.928 -2.0384  0.0171 -6.0669
    64G12c O00C  937  11.646   8.271   1.845  0.2496  0.3262  0.0167
    64G12c H00W  938  11.696   8.328   1.788  1.5174 -0.9958 -0.2152
    64G12c C027  939  11.890   8.377   2.115 -0.3137 -0.1870  1.1841
    64G12c O00D  940  11.875   8.473   2.218  0.5876 -0.6485  0.5460
    64G12c H00Z  941  11.929   8.447   2.291  0.5871 -7.0385 -1.3976
    64G12c C028  942  11.994   8.275   2.119  1.5928 -0.6507 -0.3673
    64G12c C029  943  12.116   8.337   2.094  0.6915 -2.1789 -0.4292
    64G12c H010  944  12.126   8.423   2.030  2.5754 -4.3256 -3.1234
    64G12c C02T  945  12.226   8.264   2.090 -2.5482 -0.7516 -0.5104
    64G12c H01O  946  12.303   8.337   2.066 -4.6242  0.8566 -2.4486
    64G12c C02S  947  12.236   8.124   2.107  1.7873 -0.3365 -0.4365
    64G12c O00J  948  12.348   8.064   2.099  0.4263  1.7091 -0.3958
    64G12c H01P  949  12.329   7.991   2.156 -2.2444  2.7052  0.0389
    64G12c C02R  950  12.122   8.049   2.168  2.0648 -0.3392 -1.0388
    64G12c O00I  951  12.123   7.910   2.189 -0.1279 -0.1263 -0.8756
    64G12c C02Q  952  12.144   7.844   2.070 -0.1143  1.0240 -0.7666
    64G12c H01N  953  12.041   7.817   2.046  1.2675 -1.9253 -3.6546
    64G12c H01R  954  12.127   7.913   1.988 -2.2866  0.9902 -0.3827
    64G12c H01Q  955  12.241   7.796   2.057 -0.2175  1.4189 -3.0677
    64G12c C02A  956  12.002   8.126   2.162  1.7708  0.1958  0.1044
    64G12c H011  957  11.909   8.075   2.181 -0.6527  5.3685  3.0159
    64G12c C00C  958  11.914   8.499   1.835 -1.4918 -0.1724  2.0568
    64G12c H012  959  11.965   8.411   1.868 -0.6685  1.2629  4.7397
    64G12c C00B  960  11.959   8.529   1.704  0.1939  1.1895  0.2347
    64G12c C00A  961  12.047   8.448   1.624  1.3811 -1.7641 -0.6265
    64G12c C009  962  12.154   8.350   1.636  0.7475 -1.0653 -0.7699
    64G12c C008  963  12.223   8.297   1.746 -1.2801  0.3282  1.6223
    64G12c H013  964  12.185   8.332   1.840-10.2562  4.5645 -2.9347
    64G12c C007  965  12.361   8.246   1.722 -1.1299  0.3507  1.4948
    64G12c H014  966  12.422   8.216   1.805  1.3836  2.9845  0.6962
    64G12c C006  967  12.433   8.264   1.601 -1.5982 -1.4220 -0.4032
    64G12c C005  968  12.347   8.309   1.501 -1.4417 -0.3467 -0.8138
    64G12c C004  969  12.409   8.330   1.373  1.0268 -0.4397  0.2882
    64G12c C003  970  12.337   8.394   1.267 -0.2126 -0.5200  1.1459
    64G12c C002  971  12.404   8.435   1.137 -1.1424  0.9659 -0.8740
    64G12c C001  972  12.361   8.529   1.036 -0.4727  0.2180 -0.9740
    64G12c C00M  973  12.307   8.664   1.058 -0.5891  0.3284  0.5073
    64G12c C00L  974  12.187   8.685   1.132  0.2801  2.6929  0.1877
    64G12c C00R  975  12.144   8.821   1.166  1.0458  0.6765 -0.0563
    64G12c C00Q  976  12.197   8.954   1.136  0.2850 -0.9223 -0.9270
    64G12c C00V  977  12.132   9.045   1.221 -0.0303  0.7534 -0.1561
    64G12c C00U  978  12.032   9.001   1.330 -0.1466  0.3315  0.3812
    64G12c C00T  979  12.004   8.865   1.350 -1.3588 -0.8284  0.0130
    64G12c C016  980  11.945   8.812   1.473 -0.4334 -2.0168  0.7768
    64G12c C015  981  11.880   8.916   1.552 -0.9713 -1.7717 -0.5923
    64G12c C010  982  11.901   9.046   1.520  1.1828  0.1497  0.9799
    64G12c C011  983  11.797   9.129   1.583 -0.4688 -0.4031 -0.8026
    64G12c H005  984  11.766   9.218   1.529 -1.9963 -1.2925 -1.4372
    64G12c C012  985  11.726   9.099   1.708  0.8109 -0.6507  0.4770
    64G12c C017  986  11.647   9.205   1.772 -0.9322 -0.7934 -0.2601
    64G12c O002  987  11.720   9.325   1.812  1.0041  0.0647  0.6332
    64G12c H004  988  11.671   9.372   1.877  0.7130  4.8152 -2.6963
    64G12c C018  989  11.524   9.176   1.795 -0.8493 -0.3109  0.8096
    64G12c O001  990  11.474   9.052   1.772  0.4266  0.7524  0.7924
    64G12c H003  991  11.560   9.024   1.746 -1.1051 -4.1637  0.5819
    64G12c C019  992  11.410   9.265   1.832  0.4118 -2.0877 -0.8997
    64G12c H002  993  11.343   9.276   1.746 -3.5762 -1.8161  2.0880
    64G12c H001  994  11.342   9.235   1.911  3.6159 -1.1621  2.3071
    64G12c O000  995  11.444   9.412   1.849  0.6256  0.1610  0.5277
    64G12c C01A  996  11.355   9.494   1.778 -0.3080 -0.2547  1.9625
    64G12c C02K  997  11.412   9.619   1.714  0.9915  0.5436 -1.7082
    64G12c O00G  998  11.545   9.609   1.704 -1.7625 -0.7897 -0.6870
    64G12c C02M  999  11.632   9.608   1.810  0.4676  0.6471 -1.0327
    64G12c H01G 1000  11.630   9.711   1.847 -6.6621 -1.8086  7.1285
    64G12c H01F 1001  11.571   9.563   1.888 -4.4793  8.2523  0.1087
    64G12c H01E 1002  11.723   9.568   1.765 -0.3393  2.5153 -4.5009
    64G12c C02J 1003  11.328   9.729   1.657  0.8513 -0.3904  0.4610
    64G12c H01H 1004  11.390   9.814   1.633  2.1394 -0.6533  2.6538
    64G12c C02I 1005  11.186   9.702   1.624  0.6253  1.3734 -0.0951
    64G12c C02N 1006  11.119   9.797   1.556  0.2319 -1.1649  1.7618
    64G12c H01M 1007  11.055   9.774   1.472 -1.9114  1.5109  2.5806
    64G12c C02O 1008  11.120   9.920   1.606  0.4997 -1.0544  1.0884
    64G12c H01L 1009  11.151   9.934   1.708 -6.4363  5.0118  2.8139
    64G12c C02P 1010  11.013  10.029   1.579  0.3068 -2.1921  1.7896
    64G12c H01K 1011  11.054  10.079   1.492 -0.2515  0.4867  3.0192
    64G12c H01J 1012  10.930   9.959   1.590  1.8530 -3.5918  5.2598
    64G12c O00H 1013  11.015  10.143   1.659  1.1550  0.2595  0.4104
    64G12c H01I 1014  10.963  10.141   1.738  0.4336  3.7915  0.0747
    64G12c C02H 1015  11.143   9.574   1.695 -0.3667  0.8859  0.2436
    64G12c H01C 1016  11.038   9.550   1.697 -1.6557  6.0104 -0.3108
    64G12c C02L 1017  11.215   9.482   1.776 -0.1664  0.7919  0.2610
    64G12c H01D 1018  11.168   9.407   1.838  4.7325 -2.7270  0.0246
    64G12c C013 1019  11.765   8.985   1.757  0.1397 -0.8699 -0.1871
    64G12c H000 1020  11.757   8.977   1.865 -1.7565  2.5395  0.0102
    64G12c C014 1021  11.821   8.882   1.670 -0.2241  0.3741 -0.1385
    64G12c C00F 1022  11.838   8.749   1.717 -0.3044 -0.8130  1.7064
    64G12c C00H 1023  11.944   8.678   1.518 -0.4704 -0.5194  0.0330
    64G12c C00I 1024  12.002   8.583   1.417 -1.0970 -1.2443  0.2147
    64G12c C00J 1025  12.053   8.647   1.291 -0.0141 -0.5161 -0.3385
    64G12c C00Z 1026  11.961   9.090   1.405  0.6266  1.3129  0.6662
    64G12c C00Y 1027  11.982   9.219   1.382 -0.6031 -0.2200 -0.7959
    64G12c H006 1028  11.923   9.284   1.445  1.6312  3.4282 -2.3033
    64G12c C00X 1029  12.075   9.273   1.274 -1.0631  1.1254  1.4469
    64G12c O003 1030  12.104   9.404   1.277  1.3927 -1.0930 -0.0816
    64G12c C01B 1031  12.062   9.471   1.179 -0.5618 -0.1243  0.1809
    64G12c H009 1032  11.972   9.489   1.238 -1.0066 -4.4415  0.9308
    64G12c H008 1033  12.019   9.418   1.095  0.1902  4.1855 -3.1042
    64G12c H007 1034  12.083   9.575   1.154  0.5783  0.6341  3.9850
    64G12c C00W 1035  12.153   9.184   1.210 -1.0745  0.5412  1.1933
    64G12c O004 1036  12.252   9.238   1.146 -0.8975 -0.1681  0.8630
    64G12c C01C 1037  12.322   9.153   1.066  0.4286  1.2972 -1.6574
    64G12c H00A 1038  12.394   9.198   1.000  0.0167  5.9194  0.8218
    64G12c C00P 1039  12.317   9.009   1.073 -0.1391 -1.6601  0.4516
    64G12c C00O 1040  12.426   8.911   1.043  0.8054  0.0739 -0.3323
    64G12c C01D 1041  12.555   8.961   1.034 -0.4455  0.4976  0.6962
    64G12c H00S 1042  12.556   9.053   1.091  1.4013  2.4913 -2.3636
    64G12c C01E 1043  12.670   8.879   1.002  1.3682 -1.0707 -2.3123
    64G12c O008 1044  12.798   8.920   1.010  0.3008  0.1985  0.2817
    64G12c C01V 1045  12.822   9.025   1.089  1.0053 -1.2473 -1.8828
    64G12c C01Z 1046  12.939   9.112   1.024 -1.4598 -2.2064 -0.3188
    64G12c H00R 1047  12.891   9.209   1.015 -0.3501 -1.6664 -0.4188
    64G12c H00Q 1048  12.956   9.064   0.928 -3.7627  0.5254 -2.1610
    64G12c O009 1049  13.068   9.143   1.042  0.3966  0.9285  0.5787
    64G12c H00P 1050  13.096   9.077   1.103  1.0829 -2.2196 -2.9316
    64G12c C01W 1051  12.779   9.061   1.213  1.4610 -0.7573  1.8479
    64G12c H00O 1052  12.719   8.977   1.242  1.9064 -0.4523  3.6716
    64G12c C01X 1053  12.803   9.210   1.277  0.6109  1.7977  0.6767
    64G12c H00N 1054  12.830   9.296   1.215  0.8592  1.4774  0.3412
    64G12c H00M 1055  12.694   9.208   1.272  0.6805 -2.5434 -1.2457
    64G12c C01Y 1056  12.856   9.174   1.405  0.5395  0.1474 -0.5690
    64G12c C02D 1057  12.997   9.186   1.426 -0.6761 -0.6861  0.1299
    64G12c H019 1058  13.075   9.196   1.352  0.8803  1.0735  1.9316
    64G12c C02C 1059  13.047   9.149   1.554  0.3444 -0.4560 -0.0598
    64G12c H01A 1060  13.155   9.150   1.556  0.6318 -4.1511 -4.4203
    64G12c C02B 1061  12.966   9.095   1.658  2.6678 -0.5516  1.9719
    64G12c O00E 1062  13.032   9.021   1.753 -1.6954  0.6089  0.3553
    64G12c H01B 1063  13.007   8.932   1.735 -0.5288  0.8308 -2.6426
    64G12c C02F 1064  12.838   9.050   1.616 -1.6330  0.9461 -0.2874
    64G12c O00F 1065  12.782   8.954   1.693 -0.5544 -1.5136  0.0992
    64G12c C02G 1066  12.702   8.852   1.632  0.7994 -0.2162 -1.2659
    64G12c H017 1067  12.606   8.894   1.601 -1.9773 -0.5489  5.9129
    64G12c H016 1068  12.657   8.798   1.715  0.1991  3.7813  1.1420
    64G12c H015 1069  12.763   8.782   1.575  5.1112 -1.8691  4.8878
    64G12c C02E 1070  12.788   9.096   1.500  1.5148  0.1798  0.3518
    64G12c H018 1071  12.687   9.067   1.473  1.9104 -1.8180  0.9462
    64G12c C01F 1072  12.650   8.745   0.994 -0.5068  0.1088  0.7756
    64G12c C01G 1073  12.760   8.655   0.984  0.0160  0.1250  0.8170
    64G12c H00L 1074  12.862   8.689   0.986  2.5149 -6.6244  2.9879
    64G12c C01H 1075  12.734   8.529   1.033  0.3701 -0.1305 -0.2770
    64G12c H00B 1076  12.835   8.499   1.053  0.0585 -5.7612 -5.6595
    64G12c C01I 1077  12.606   8.483   1.048 -0.5282  0.4563 -1.0893
    64G12c C01U 1078  12.513   8.687   0.974  0.6705 -1.1005 -0.1179
    64G12c C00S 1079  12.044   8.782   1.252 -1.7525  0.2203 -0.3395
    64G12c C00K 1080  12.162   8.583   1.218 -0.4783 -0.7565  0.6662
    64G12c C00N 1081  12.415   8.762   1.031 -0.6142 -0.8875  0.2079
    64G12c C000 1082  12.491   8.544   0.982 -0.9554 -1.4783 -0.9313
    64G12c C01J 1083  12.545   8.381   1.127 -0.4014  0.2600 -0.4381
    64G12c C01K 1084  12.620   8.324   1.235 -0.5000 -0.3357  0.9962
    64G12c C01P 1085  12.753   8.265   1.230  0.0421 -2.3248  0.3873
    64G12c C01Q 1086  12.814   8.232   1.111 -0.9753  0.7233  0.8638
    64G12c H00G 1087  12.906   8.279   1.082 -0.3707  1.0976  3.2743
    64G12c C01R 1088  12.746   8.170   1.022  0.1421 -1.0245 -0.9529
    64G12c H00F 1089  12.671   8.108   1.067  0.7239  1.9672  4.6058
    64G12c C01S 1090  12.797   8.117   0.899 -2.6354  0.1459 -0.4282
    64G12c H00E 1091  12.752   8.158   0.809 -4.6978  0.0408  0.5220
    64G12c H00D 1092  12.880   8.169   0.852  2.9002 -5.5074  2.4331
    64G12c O005 1093  12.824   7.981   0.882  0.5728 -0.0767  1.6146
    64G12c H00C 1094  12.842   7.956   0.971 -3.0334 -0.0759  2.4132
    64G12c C01O 1095  12.819   8.237   1.348  0.0265 -0.7852  1.4516
    64G12c H00H 1096  12.926   8.222   1.350  0.1624 -0.5967 -1.9195
    64G12c C01N 1097  12.757   8.212   1.463  0.0460  0.4754 -0.8401
    64G12c O006 1098  12.827   8.198   1.571  0.7905  0.4671  0.3360
    64G12c C01T 1099  12.780   8.164   1.705 -0.9517 -1.7970 -1.7019
    64G12c H00K 1100  12.860   8.176   1.779  4.1892 -5.0695 -6.3379
    64G12c H00J 1101  12.743   8.065   1.734  0.8923 -1.7471  1.1040
    64G12c H00I 1102  12.719   8.248   1.739  0.4828 -1.0117 -1.0113
    64G12c C01M 1103  12.619   8.252   1.468 -0.1591 -0.7572  1.5760
    64G12c C020 1104  12.201   8.450   1.292  0.3512  1.2800 -0.2450
    64G12c C021 1105  12.145   8.400   1.423 -1.7134 -0.4309 -0.4860
    64G12c C01L 1106  12.555   8.335   1.363 -0.3505 -2.4600  0.0618
    64G12c O007 1107  12.573   8.252   1.592 -0.1627  1.8702  0.2040
    64G12c C022 1108  12.215   8.336   1.510 -1.8411 -1.0800  0.1863
    64G12c C023 1109  12.054   8.467   1.485  0.8110  1.6189 -0.6341
    64G12c C00G 1110  11.905   8.642   1.640  0.0358 -0.7883 -0.5342
    64G12c C00E 1111  11.768   8.696   1.834 -0.0468 -0.4533  0.0891
    64G12c O00A 1112  11.696   8.781   1.906 -1.2160 -0.2486  0.6819
    64G12c C024 1113  11.602   8.712   1.990  0.5562  0.2137 -1.6671
    64G12c H00V 1114  11.622   8.696   2.096 -4.3258  1.4665 -0.4509
    64G12c H00U 1115  11.561   8.623   1.943  0.0073  0.4536 -1.6415
    64G12c H00T 1116  11.511   8.772   1.986 -3.0996 -4.9659 -9.6266
    74G12c C00D 1117   1.979   6.757   8.998  0.7013 -0.2924 -1.0013
    74G12c O00B 1118   2.031   6.835   9.090  0.1534 -0.4409  1.8949
    74G12c C025 1119   2.171   6.814   9.110 -1.1945 -1.2839 -0.4269
    74G12c C026 1120   2.220   6.810   9.266  0.1625 -1.5184  1.5681
    74G12c H00Y 1121   2.273   6.715   9.254 -2.6785 -2.9271 -0.7202
    74G12c H00X 1122   2.124   6.790   9.315 -0.9734 -4.2495 -1.5245
    74G12c O00C 1123   2.272   6.928   9.307  0.7255  0.8373  0.9428
    74G12c H00W 1124   2.295   6.997   9.247  0.9863  2.0107  2.3690
    74G12c C027 1125   2.269   6.817   9.011 -0.0735 -1.5246 -0.6968
    74G12c O00D 1126   2.233   6.820   8.883 -0.1658 -0.3690 -0.0815
    74G12c H00Z 1127   2.288   6.878   8.832  2.8870 -1.0572  2.2882
    74G12c C028 1128   2.409   6.826   9.030  1.0838  0.5068 -0.1399
    74G12c C029 1129   2.481   6.907   8.938 -0.8235 -1.0162 -2.0108
    74G12c H010 1130   2.427   6.962   8.862 -2.7839 -1.6407 -1.0901
    74G12c C02T 1131   2.619   6.918   8.966  0.6767 -2.3262  1.7791
    74G12c H01O 1132   2.671   6.978   8.892 -1.9057 -0.7263  1.1792
    74G12c C02S 1133   2.682   6.835   9.059 -1.6748  1.1543 -0.9202
    74G12c O00J 1134   2.817   6.817   9.031 -0.1849 -1.5948 -1.0438
    74G12c H01P 1135   2.838   6.731   9.064  2.5263  0.1911  2.2182
    74G12c C02R 1136   2.626   6.724   9.118 -1.2795 -0.8409  0.5435
    74G12c O00I 1137   2.721   6.636   9.179  1.5942 -0.4804 -0.0419
    74G12c C02Q 1138   2.769   6.649   9.312  0.7421 -0.1829 -0.9422
    74G12c H01N 1139   2.707   6.631   9.400  4.3529  0.1018  1.7463
    74G12c H01R 1140   2.820   6.744   9.323  6.2882 -3.3306  3.1176
    74G12c H01Q 1141   2.849   6.575   9.313 -1.2938 -2.5425 -3.7304
    74G12c C02A 1142   2.488   6.713   9.090  1.1079  0.0626  0.0950
    74G12c H011 1143   2.429   6.628   9.119 -0.5702  0.9038 -0.7639
    74G12c C00C 1144   1.906   6.827   8.898 -1.3825 -0.9936 -1.1920
    74G12c H012 1145   1.905   6.932   8.873  2.5572 -1.9760 -6.4032
    74G12c C00B 1146   1.891   6.774   8.775  1.2913 -1.9026 -1.6989
    74G12c C00A 1147   1.868   6.831   8.646  0.5140  0.4676 -0.5940
    74G12c C009 1148   1.870   6.975   8.614 -2.2453  2.2427  0.9792
    74G12c C008 1149   1.903   7.097   8.668  0.0831  0.2254  0.3783
    74G12c H013 1150   1.967   7.120   8.752  1.1634  3.1646 -1.2012
    74G12c C007 1151   1.875   7.225   8.610  0.1149 -0.9649 -0.7554
    74G12c H014 1152   1.923   7.310   8.657  5.1548 -1.9820 -3.6762
    74G12c C006 1153   1.780   7.230   8.515  0.1132  0.6799  0.6414
    74G12c C005 1154   1.760   7.104   8.441  1.4956  1.4465 -3.3404
    74G12c C004 1155   1.655   7.101   8.361  0.9870  0.8039 -0.0689
    74G12c C003 1156   1.596   6.967   8.340  0.4022 -0.3210 -0.7654
    74G12c C002 1157   1.483   6.961   8.245  0.3216 -0.1730  0.3458
    74G12c C001 1158   1.403   6.847   8.197 -0.5836  2.0091 -1.3329
    74G12c C00M 1159   1.385   6.736   8.269  0.4879 -0.7178  1.0513
    74G12c C00L 1160   1.488   6.677   8.329 -1.7721  1.7602  0.9596
    74G12c C00R 1161   1.461   6.563   8.416  0.9158 -1.5712  1.9782
    74G12c C00Q 1162   1.365   6.455   8.435  1.8048 -1.5602 -0.2968
    74G12c C00V 1163   1.392   6.353   8.531  0.6892 -0.7323 -0.0040
    74G12c C00U 1164   1.520   6.344   8.599 -1.6589  0.3734  0.9605
    74G12c C00T 1165   1.603   6.445   8.594  1.6823 -1.1229  0.6658
    74G12c C016 1166   1.704   6.473   8.685 -0.9091  0.8774 -1.9046
    74G12c C015 1167   1.744   6.392   8.779 -1.2729  0.3388 -0.1395
    74G12c C010 1168   1.674   6.273   8.780  0.7799  0.3171  1.4332
    74G12c C011 1169   1.706   6.181   8.858 -0.1505 -0.5249 -0.7757
    74G12c H005 1170   1.678   6.084   8.822 -3.5207 -2.6102  6.5139
    74G12c C012 1171   1.811   6.189   8.961  1.6283 -1.6216  1.2836
    74G12c C017 1172   1.828   6.086   9.056 -1.3581  0.9862 -0.5624
    74G12c O002 1173   1.738   6.000   9.083  0.0230  0.7106 -0.3550
    74G12c H004 1174   1.676   5.986   9.013  0.6658  4.2017 -1.7191
    74G12c C018 1175   1.958   6.051   9.071  0.4139  0.9711 -1.3843
    74G12c O001 1176   2.061   6.143   9.039  1.1124 -0.1677 -1.1263
    74G12c H003 1177   2.139   6.114   9.083  3.7845 -0.7008 -5.9596
    74G12c C019 1178   1.989   5.943   9.189  0.6018 -0.2577  1.5039
    74G12c H002 1179   1.986   5.965   9.296  3.2707  1.0567  1.3489
    74G12c H001 1180   1.945   5.846   9.169  7.5548 -3.8388  1.7428
    74G12c O000 1181   2.137   5.955   9.188 -1.3747  0.6527  0.2693
    74G12c C01A 1182   2.204   5.849   9.248  0.7542  0.5226 -1.3238
    74G12c C02K 1183   2.210   5.712   9.205  0.5145  0.8666 -0.3551
    74G12c O00G 1184   2.149   5.692   9.082 -0.8788 -1.7847  0.3232
    74G12c C02M 1185   2.223   5.621   8.978 -0.1650 -1.5409 -0.0353
    74G12c H01G 1186   2.152   5.539   8.978  3.1511 -4.5313  1.2607
    74G12c H01F 1187   2.298   5.557   9.023  3.2520  4.0734  2.8977
    74G12c H01E 1188   2.211   5.644   8.872  3.9353  0.2957 -0.2113
    74G12c C02J 1189   2.248   5.599   9.284 -0.3902  0.4432  0.6294
    74G12c H01H 1190   2.222   5.496   9.262 -2.7973  0.8342  1.5278
    74G12c C02I 1191   2.289   5.635   9.425  0.1994  1.6861 -1.9520
    74G12c C02N 1192   2.330   5.536   9.527 -0.8456 -0.8791  2.1092
    74G12c H01M 1193   2.379   5.446   9.494 -6.2941 -4.0183  1.8008
    74G12c C02O 1194   2.320   5.560   9.657  0.4480  0.0676  0.0517
    74G12c H01L 1195   2.311   5.660   9.699  3.8434 -0.1073  1.3032
    74G12c C02P 1196   2.312   5.454   9.744 -0.3826  0.1078  0.1388
    74G12c H01K 1197   2.259   5.458   9.839 -4.3380 -3.7261 -1.7315
    74G12c H01J 1198   2.303   5.350   9.712  7.3757 -1.0848  0.7947
    74G12c O00H 1199   2.441   5.418   9.759 -1.3712  0.6547 -0.3624
    74G12c H01I 1200   2.479   5.504   9.756 -1.6778  0.7294 -4.2421
    74G12c C02H 1201   2.329   5.770   9.446 -0.4893  0.0473 -0.4316
    74G12c H01C 1202   2.398   5.774   9.529 -1.9427  0.8455  0.7550
    74G12c C02L 1203   2.293   5.878   9.373  0.7007 -0.7318  0.6385
    74G12c H01D 1204   2.317   5.967   9.430  1.1279 -1.4857  1.6660
    74G12c C013 1205   1.836   6.330   8.984 -0.2812 -0.8886  0.4471
    74G12c H000 1206   1.886   6.331   9.080 -1.8978 -1.4658  1.3131
    74G12c C014 1207   1.825   6.427   8.877 -0.8405  1.3554 -1.1432
    74G12c C00F 1208   1.881   6.560   8.887  0.6196  0.2431 -0.4613
    74G12c C00H 1209   1.775   6.588   8.667 -0.2586  1.0086  0.1891
    74G12c C00I 1210   1.764   6.649   8.538  1.7521  2.0402  0.9194
    74G12c C00J 1211   1.675   6.614   8.440 -1.6357  0.2333  0.7082
    74G12c C00Z 1212   1.569   6.242   8.683  0.1728 -0.6397 -1.2075
    74G12c C00Y 1213   1.481   6.128   8.680  0.3450 -0.3200  0.7194
    74G12c H006 1214   1.481   6.040   8.742 -9.1578  0.8401  3.2207
    74G12c C00X 1215   1.355   6.140   8.607  0.2315  1.9076  0.9105
    74G12c O003 1216   1.291   6.014   8.623 -0.8046  0.3468 -0.3469
    74G12c C01B 1217   1.142   5.991   8.631 -1.3317  0.4661  1.5915
    74G12c H009 1218   1.092   6.035   8.545 -3.4848 -6.0214 -0.7185
    74G12c H008 1219   1.111   6.059   8.711 -4.7378  1.6635 -0.6104
    74G12c H007 1220   1.098   5.892   8.624 -2.8797  1.2826 -1.1125
    74G12c C00W 1221   1.311   6.249   8.541  1.8532 -0.7418  1.5773
    74G12c O004 1222   1.179   6.252   8.472 -0.7646  0.5757  0.0227
    74G12c C01C 1223   1.120   6.372   8.465  0.9345 -0.2932 -0.7643
    74G12c H00A 1224   1.079   6.363   8.565 -9.9880 -8.3696 -4.9741
    74G12c C00P 1225   1.217   6.470   8.418  0.1159  0.7704 -1.2185
    74G12c C00O 1226   1.168   6.599   8.360 -0.3906 -0.2358 -0.6220
    74G12c C01D 1227   1.038   6.633   8.356 -1.2487  0.1386 -0.7834
    74G12c H00S 1228   0.973   6.557   8.395  0.4638  2.0984  6.5976
    74G12c C01E 1229   0.989   6.770   8.341  1.0777  0.0829  0.2184
    74G12c O008 1230   0.864   6.796   8.360 -0.1188  1.3661  1.3323
    74G12c C01V 1231   0.793   6.755   8.464  3.0630  0.3657  1.6804
    74G12c C01Z 1232   0.683   6.648   8.444 -1.1885 -0.4806 -0.3961
    74G12c H00R 1233   0.590   6.696   8.411  1.1824  3.6192 -1.4788
    74G12c H00Q 1234   0.675   6.593   8.351 -1.6313  1.5013 -1.5505
    74G12c O009 1235   0.674   6.548   8.549 -0.1298  1.0804  0.4230
    74G12c H00P 1236   0.765   6.523   8.559  0.4155  2.0651 -1.6882
    74G12c C01W 1237   0.794   6.810   8.590 -1.4576  1.6016  0.8227
    74G12c H00O 1238   0.745   6.762   8.673  2.8327 -0.8254  2.1064
    74G12c C01X 1239   0.895   6.913   8.647  0.0542 -0.9773  0.7179
    74G12c H00N 1240   0.885   7.011   8.600  2.1820 -0.6739  0.8228
    74G12c H00M 1241   0.873   6.944   8.749  1.4236  4.8043 -0.5200
    74G12c C01Y 1242   1.056   6.909   8.641  0.9828 -2.0792 -0.0431
    74G12c C02D 1243   1.135   6.804   8.662 -0.5263  0.0610 -0.4913
    74G12c H019 1244   1.094   6.707   8.688 -1.2534  0.0804 -1.5357
    74G12c C02C 1245   1.273   6.795   8.656 -1.1870  0.9671  0.3658
    74G12c H01A 1246   1.323   6.700   8.672 -5.5917 -2.4601 -4.4242
    74G12c C02B 1247   1.333   6.917   8.628  1.9021  0.0913 -1.0141
    74G12c O00E 1248   1.473   6.908   8.670 -0.7068 -0.5234 -0.6035
    74G12c H01B 1249   1.527   6.871   8.602  0.3057  5.2883 -3.3076
    74G12c C02F 1250   1.255   7.031   8.631 -1.1625  0.2105 -1.7185
    74G12c O00F 1251   1.344   7.141   8.643  0.1509  0.1491  0.4913
    74G12c C02G 1252   1.326   7.229   8.752  0.1659 -0.7794  0.2469
    74G12c H017 1253   1.278   7.159   8.821 -1.8512  1.0723  0.7616
    74G12c H016 1254   1.252   7.309   8.744  1.9563  1.4306  4.1881
    74G12c H015 1255   1.413   7.257   8.812  1.1405 -0.0244 -1.4842
    74G12c C02E 1256   1.120   7.037   8.632 -0.9400 -0.2360 -1.0177
    74G12c H018 1257   1.078   7.136   8.624  1.8676  1.9923  6.5541
    74G12c C01F 1258   1.067   6.861   8.272  1.0841 -0.8860 -1.0936
    74G12c C01G 1259   1.048   7.010   8.264 -0.0763 -0.2813 -0.6989
    74G12c H00L 1260   0.948   7.043   8.290 -1.3893 -4.5582  0.1237
    74G12c C01H 1261   1.149   7.095   8.206  0.3408 -1.1010 -0.5229
    74G12c H00B 1262   1.123   7.199   8.205  8.9659  1.4589 -0.9092
    74G12c C01I 1263   1.275   7.032   8.170  2.1683 -0.6177 -1.2435
    74G12c C01U 1264   1.198   6.810   8.225  0.0704  1.4202 -0.9342
    74G12c C00S 1265   1.581   6.511   8.474 -0.8231 -0.2184  2.1414
    74G12c C00K 1266   1.614   6.706   8.366  1.1169 -0.6216  0.7432
    74G12c C00N 1267   1.253   6.712   8.310 -0.9271 -1.4986 -1.2401
    74G12c C000 1268   1.285   6.890   8.149  1.6298 -0.1423 -0.8379
    74G12c C01J 1269   1.404   7.073   8.228  0.5583  0.7419 -0.5268
    74G12c C01K 1270   1.442   7.205   8.283 -0.2010 -0.4411  0.7925
    74G12c C01P 1271   1.402   7.337   8.265  2.6272 -1.3740 -0.0943
    74G12c C01Q 1272   1.301   7.382   8.170 -1.4990 -1.5620  0.2082
    74G12c H00G 1273   1.214   7.423   8.219 -0.0259 -1.0109  2.4536
    74G12c C01R 1274   1.343   7.405   8.033 -0.8700 -0.4605 -0.6106
    74G12c H00F 1275   1.434   7.374   7.983  2.2209 -2.1700  5.4063
    74G12c C01S 1276   1.266   7.477   7.921 -0.4412  2.1316  0.0144
    74G12c H00E 1277   1.269   7.585   7.933  2.2529  2.8331 -5.4015
    74G12c H00D 1278   1.329   7.449   7.836 -5.6204 -1.8547 -2.8481
    74G12c O005 1279   1.141   7.408   7.946 -0.4280  0.6701 -0.1063
    74G12c H00C 1280   1.095   7.470   8.001 -2.1120  1.7191 -2.6299
    74G12c C01O 1281   1.454   7.463   8.289  2.5683 -0.3839 -0.5521
    74G12c H00H 1282   1.423   7.566   8.283  0.7036 -0.8635  0.3578
    74G12c C01N 1283   1.568   7.455   8.368  0.1298  2.9727  0.1151
    74G12c O006 1284   1.646   7.549   8.386  0.4712 -0.5981  1.3939
    74G12c C01T 1285   1.705   7.607   8.253  0.2503  1.0175  0.2117
    74G12c H00K 1286   1.796   7.559   8.290  0.6738  0.6660 -1.2665
    74G12c H00J 1287   1.688   7.712   8.277 -3.7610  0.4562  0.1698
    74G12c H00I 1288   1.678   7.581   8.151  1.9776 -4.6355  0.9942
    74G12c C01M 1289   1.620   7.330   8.396  1.5169 -0.0455 -0.9236
    74G12c C020 1290   1.673   6.841   8.362 -0.4681  1.3033 -0.9545
    74G12c C021 1291   1.800   6.861   8.428 -1.2145 -0.5160  0.4641
    74G12c C01L 1292   1.565   7.199   8.343  0.2207 -0.6866 -1.1666
    74G12c O007 1293   1.704   7.346   8.483  2.0320  0.3513  0.3281
    74G12c C022 1294   1.831   6.984   8.476  0.0496  0.6732 -1.1243
    74G12c C023 1295   1.840   6.761   8.522  0.4810  0.0088 -0.7725
    74G12c C00G 1296   1.855   6.641   8.766  0.3486 -0.6826  1.5638
    74G12c C00E 1297   1.970   6.612   8.987  0.4337 -0.1216  0.0893
    74G12c O00A 1298   2.053   6.554   9.083  0.9030  0.7770 -0.8561
    74G12c C024 1299   2.182   6.504   9.039 -0.0769  1.6258  1.4217
    74G12c H00V 1300   2.235   6.565   8.964  0.8379 -0.0039  0.7164
    74G12c H00U 1301   2.173   6.399   9.010 -1.2407  3.9322 -8.6743
    74G12c H00T 1302   2.257   6.525   9.115  0.2955  2.0319  0.9555
    84G12c C00D 1303   4.301   3.277   1.684 -0.8834 -0.6299 -2.5209
    84G12c O00B 1304   4.283   3.349   1.566  1.0787 -0.1244  0.7701
    84G12c C025 1305   4.201   3.465   1.566 -0.3461 -0.0592  0.3714
    84G12c C026 1306   4.056   3.437   1.577 -0.4903  0.5267 -0.4292
    84G12c H00Y 1307   4.033   3.374   1.491 -0.8952 -0.0049  0.0579
    84G12c H00X 1308   3.982   3.516   1.561  0.6332  2.7965  4.7333
    84G12c O00C 1309   4.014   3.376   1.692  1.3267  1.2215 -1.5623
    84G12c H00W 1310   4.071   3.302   1.698  0.1603 -0.1933 -5.7722
    84G12c C027 1311   4.262   3.576   1.512  1.6330 -1.2843  0.3965
    84G12c O00D 1312   4.395   3.588   1.482  0.8965 -0.0328 -0.5328
    84G12c H00Z 1313   4.450   3.533   1.537 -2.6039 -2.2362  0.9520
    84G12c C028 1314   4.185   3.680   1.428 -1.2054 -0.0475 -1.0202
    84G12c C029 1315   4.073   3.751   1.483 -1.7026  1.5578 -0.2620
    84G12c H010 1316   4.083   3.748   1.590 -0.8490 -0.0460 -0.3615
    84G12c C02T 1317   4.037   3.863   1.403  1.5753 -0.1755  0.4569
    84G12c H01O 1318   3.980   3.951   1.428  4.1740  0.6985  3.6958
    84G12c C02S 1319   4.052   3.854   1.263 -0.8582  0.0846  1.0980
    84G12c O00J 1320   3.991   3.936   1.179  1.4301  0.3348 -1.3027
    84G12c H01P 1321   3.990   3.899   1.092 -2.4299  1.7806 -2.0020
    84G12c C02R 1322   4.153   3.769   1.207  0.1561 -0.9909 -0.3735
    84G12c O00I 1323   4.165   3.755   1.064 -0.9434 -0.5121  0.2291
    84G12c C02Q 1324   4.244   3.854   1.015  0.2080 -1.4719 -1.8695
    84G12c H01N 1325   4.212   3.939   1.074 -1.7204 -4.1777  1.1262
    84G12c H01R 1326   4.228   3.913   0.925  3.0264 -1.0259 -2.1369
    84G12c H01Q 1327   4.350   3.851   1.042 -0.0736 -1.2067 -0.7004
    84G12c C02A 1328   4.235   3.700   1.300  1.8499  2.1017 -1.0783
    84G12c H011 1329   4.318   3.641   1.266 -3.4523 -5.4169 -2.2755
    84G12c C00C 1330   4.284   3.329   1.814  0.2236 -0.2419 -1.7311
    84G12c H012 1331   4.259   3.434   1.807  0.5957 -0.1951 -2.3731
    84G12c C00B 1332   4.348   3.265   1.917 -1.5204  0.3954  0.2489
    84G12c C00A 1333   4.400   3.341   2.031  0.2455  1.6161 -1.4993
    84G12c C009 1334   4.438   3.486   2.062 -0.1024 -0.2057 -1.1912
    84G12c C008 1335   4.399   3.611   2.016  0.1430 -0.6973 -0.3372
    84G12c H013 1336   4.315   3.637   1.954  1.0154  4.1975  0.3099
    84G12c C007 1337   4.489   3.718   2.051  0.7934  2.0077  0.0225
    84G12c H014 1338   4.468   3.820   2.024  3.9900  3.4656  2.6561
    84G12c C006 1339   4.610   3.690   2.131 -0.4050 -0.1677 -0.0584
    84G12c C005 1340   4.616   3.568   2.195 -2.4597  0.8838  2.3503
    84G12c C004 1341   4.721   3.542   2.279  1.2404 -0.3305  0.3352
    84G12c C003 1342   4.729   3.412   2.346  1.6067  0.9797 -0.7245
    84G12c C002 1343   4.845   3.385   2.439 -0.1627 -0.0381  0.2327
    84G12c C001 1344   4.892   3.263   2.488 -1.3210  1.1405  1.1280
    84G12c C00M 1345   4.916   3.156   2.411 -0.8107 -1.0880  0.5945
    84G12c C00L 1346   4.814   3.088   2.348 -0.4201  0.3778  0.5895
    84G12c C00R 1347   4.821   2.991   2.237 -1.4874  0.4123  1.1947
    84G12c C00Q 1348   4.943   2.917   2.192  2.0295  1.7547  1.3780
    84G12c C00V 1349   4.907   2.834   2.084 -2.2063  1.1974 -1.4125
    84G12c C00U 1350   4.782   2.822   2.018 -0.5342 -1.2690  0.5257
    84G12c C00T 1351   4.679   2.905   2.043  1.0377 -2.5460 -1.0056
    84G12c C016 1352   4.593   2.979   1.956  2.4715  1.8156 -1.7400
    84G12c C015 1353   4.581   2.910   1.839 -0.5856 -0.1907 -0.0878
    84G12c C010 1354   4.650   2.787   1.819  1.5489 -2.4163 -0.5855
    84G12c C011 1355   4.623   2.730   1.693  0.4895  0.6092 -0.3570
    84G12c H005 1356   4.684   2.648   1.659 -1.6318 -2.1402  2.1510
    84G12c C012 1357   4.506   2.759   1.609  0.5841 -0.9105  1.7152
    84G12c C017 1358   4.473   2.688   1.489  0.9583 -0.8186 -0.4528
    84G12c O002 1359   4.403   2.576   1.507 -0.2209 -0.8078  0.9739
    84G12c H004 1360   4.351   2.572   1.586 -2.0365 -6.4328 -0.2090
    84G12c C018 1361   4.539   2.719   1.380  2.8364  0.1488  1.2789
    84G12c O001 1362   4.615   2.837   1.381  0.3125 -0.4338  0.3592
    84G12c H003 1363   4.678   2.825   1.312 -4.2084-10.3688 -3.0943
    84G12c C019 1364   4.524   2.626   1.267 -1.6176  0.1563  0.9369
    84G12c H002 1365   4.476   2.530   1.289 -1.2580 -0.5148 -1.0603
    84G12c H001 1366   4.426   2.611   1.220  1.6691 -1.7760 -6.0193
    84G12c O000 1367   4.639   2.647   1.187  1.0826 -0.2381  0.1792
    84G12c C01A 1368   4.666   2.562   1.090  0.9318 -3.1100  0.1486
    84G12c C02K 1369   4.705   2.415   1.100  1.8137  0.3568 -0.2587
    84G12c O00G 1370   4.691   2.333   1.211 -0.0162  0.4196 -0.1559
    84G12c C02M 1371   4.808   2.288   1.281 -0.9691  0.9905 -2.7297
    84G12c H01G 1372   4.864   2.259   1.193 -0.1142 -4.8456 -0.4704
    84G12c H01F 1373   4.799   2.206   1.352 -3.4134  0.1844 -3.9177
    84G12c H01E 1374   4.866   2.369   1.327  0.0116 -1.9166  1.4725
    84G12c C02J 1375   4.740   2.369   0.979 -0.1912  0.0944 -0.0084
    84G12c H01H 1376   4.748   2.261   0.975  2.6303  0.3139 -4.5661
    84G12c C02I 1377   4.775   2.443   0.872  1.1674 -0.0972 -0.5665
    84G12c C02N 1378   4.870   2.387   0.797  0.0990  0.4551  0.4232
    84G12c H01M 1379   4.942   2.312   0.826 -2.3314 -4.6971 -5.5525
    84G12c C02O 1380   4.864   2.415   0.671  0.0837  1.7383 -0.7606
    84G12c H01L 1381   4.787   2.490   0.654 -0.8552  2.1028  4.2642
    84G12c C02P 1382   4.959   2.378   0.585 -0.3227  0.1482  0.2322
    84G12c H01K 1383   5.058   2.399   0.626  1.4232 -3.6991 -1.7749
    84G12c H01J 1384   4.966   2.270   0.572  2.2681  0.6092 -3.1122
    84G12c O00H 1385   4.998   2.433   0.471 -0.2178 -0.7802  0.5872
    84G12c H01I 1386   4.913   2.458   0.440 -1.4153 -2.7548  2.1873
    84G12c C02H 1387   4.751   2.587   0.882  0.6786 -0.0693 -1.1854
    84G12c H01C 1388   4.792   2.663   0.817  1.4670 -0.2370 -0.8848
    84G12c C02L 1389   4.697   2.650   0.978  0.0043  1.5859  0.4404
    84G12c H01D 1390   4.658   2.751   0.972 -7.9291 -1.1829 -2.1284
    84G12c C013 1391   4.434   2.876   1.647 -1.6354 -1.3524  1.0836
    84G12c H000 1392   4.355   2.912   1.583 -1.5908 -4.0614 -0.5831
    84G12c C014 1393   4.483   2.963   1.750  0.6538  0.7935 -1.6457
    84G12c C00F 1394   4.422   3.081   1.785  0.0572 -2.0890  0.7239
    84G12c C00H 1395   4.504   3.081   2.012 -0.4562 -0.0774 -0.8426
    84G12c C00I 1396   4.507   3.133   2.135  0.9268 -0.1873  1.1166
    84G12c C00J 1397   4.618   3.090   2.209 -0.4519  0.9080 -1.7524
    84G12c C00Z 1398   4.771   2.770   1.895 -0.4758  0.0896 -0.3593
    84G12c C00Y 1399   4.874   2.676   1.842  1.7176 -0.1932  1.1918
    84G12c H006 1400   4.864   2.582   1.791  1.6886 -1.3867  3.3474
    84G12c C00X 1401   5.000   2.677   1.918 -0.2722 -0.4823 -0.0853
    84G12c O003 1402   5.126   2.622   1.868  0.3598 -1.1689 -1.1057
    84G12c C01B 1403   5.127   2.537   1.755  0.5157 -1.4976 -1.6499
    84G12c H009 1404   5.052   2.550   1.678 -1.6145 -1.8507  0.3224
    84G12c H008 1405   5.105   2.443   1.805 -2.1287 -2.7431 -5.0608
    84G12c H007 1406   5.236   2.528   1.756  0.9588  2.5747  0.1758
    84G12c C00W 1407   5.011   2.750   2.023  0.5711 -1.4579  0.1179
    84G12c O004 1408   5.148   2.759   2.067  0.4333  0.3785  0.8395
    84G12c C01C 1409   5.167   2.818   2.194 -0.3805 -1.7106  0.2121
    84G12c H00A 1410   5.249   2.805   2.263 -1.8840  0.2627  2.4538
    84G12c C00P 1411   5.069   2.901   2.248  2.5058 -0.7110 -0.2428
    84G12c C00O 1412   5.120   3.004   2.341  1.6761  0.5733  1.4650
    84G12c C01D 1413   5.264   3.029   2.334  0.2768  0.8906 -0.1409
    84G12c H00S 1414   5.319   2.980   2.254  3.4065  3.1089  0.5412
    84G12c C01E 1415   5.325   3.146   2.380  2.1137  0.3352 -0.6447
    84G12c O008 1416   5.443   3.191   2.340  0.4884 -0.0928  0.4977
    84G12c C01V 1417   5.529   3.112   2.254 -1.2442 -1.2363 -0.1732
    84G12c C01Z 1418   5.568   2.968   2.275  0.1164  0.2530 -0.0430
    84G12c H00R 1419   5.515   2.914   2.196 -1.0073 -4.0285  3.4821
    84G12c H00Q 1420   5.673   2.982   2.248  0.1869 -2.3701 -1.2491
    84G12c O009 1421   5.565   2.954   2.412 -0.6652  0.7131  1.4075
    84G12c H00P 1422   5.477   2.963   2.444 -2.0627  5.3009 -3.0711
    84G12c C01W 1423   5.545   3.156   2.126  1.5151 -0.2176 -1.0744
    84G12c H00O 1424   5.584   3.094   2.047  5.0114  2.7884 -1.8762
    84G12c C01X 1425   5.481   3.275   2.066 -0.0726 -0.9689 -0.4554
    84G12c H00N 1426   5.412   3.252   1.985  1.5491 -5.7348 -0.6751
    84G12c H00M 1427   5.461   3.336   2.154 -2.5472 -2.9559  0.4413
    84G12c C01Y 1428   5.595   3.353   1.996 -0.7650 -1.1449 -0.6605
    84G12c C02D 1429   5.674   3.462   2.057  2.7520 -0.1645  1.0233
    84G12c H019 1430   5.700   3.477   2.161  0.6466  2.7958  1.2026
    84G12c C02C 1431   5.765   3.530   1.982  0.2422 -0.3297  0.6725
    84G12c H01A 1432   5.843   3.582   2.036 -0.3595  1.1718  0.1300
    84G12c C02B 1433   5.793   3.497   1.841 -1.3402 -0.0148 -1.3373
    84G12c O00E 1434   5.901   3.537   1.774 -0.4768 -0.3693 -0.0691
    84G12c H01B 1435   5.901   3.459   1.722 -0.0678  1.0713 -2.3047
    84G12c C02F 1436   5.715   3.395   1.787  0.8878  0.9619 -0.4415
    84G12c O00F 1437   5.742   3.362   1.657  0.1627  0.3075  0.0948
    84G12c C02G 1438   5.660   3.453   1.562  2.2346  0.9058  0.4939
    84G12c H017 1439   5.688   3.454   1.457  0.0071 -3.5528 -0.2768
    84G12c H016 1440   5.624   3.545   1.608 -4.0427 -0.4925 -1.0909
    84G12c H015 1441   5.558   3.414   1.554  0.4407  5.2283  1.2776
    84G12c C02E 1442   5.607   3.340   1.858 -0.2170 -1.0015  0.8706
    84G12c H018 1443   5.550   3.275   1.794  3.8373 -1.1845 -2.8201
    84G12c C01F 1444   5.248   3.235   2.452 -0.0696 -0.9914  1.6183
    84G12c C01G 1445   5.272   3.388   2.443  0.2306  0.1397 -0.1781
    84G12c H00L 1446   5.369   3.412   2.402  1.3983 -3.5597  0.2507
    84G12c C01H 1447   5.179   3.484   2.455 -0.6474 -0.0060 -0.5475
    84G12c H00B 1448   5.186   3.591   2.444 -0.4426  0.3000  2.1565
    84G12c C01I 1449   5.045   3.447   2.493 -3.0373  0.9210  0.3856
    84G12c C01U 1450   5.109   3.208   2.480 -0.6700  0.4003  0.5726
    84G12c C00S 1451   4.698   2.972   2.171  0.1743  0.9844  2.0658
    84G12c C00K 1452   4.688   3.159   2.312 -1.5784  0.2035  0.6806
    84G12c C00N 1453   5.051   3.117   2.395  0.0817  0.4810 -0.5441
    84G12c C000 1454   5.023   3.313   2.534 -0.3053  0.6404 -1.0022
    84G12c C01J 1455   4.929   3.502   2.461 -0.5593  0.3126  1.3552
    84G12c C01K 1456   4.925   3.622   2.394  0.0241 -0.0721 -2.4079
    84G12c C01P 1457   5.004   3.740   2.418  1.6505  1.8976  1.0366
    84G12c C01Q 1458   5.052   3.770   2.550 -0.1111  0.7043 -0.7893
    84G12c H00G 1459   5.104   3.705   2.620 -4.8170 -0.3216  1.9378
    84G12c C01R 1460   4.997   3.879   2.606  0.6588 -1.3351 -1.5512
    84G12c H00F 1461   4.936   3.959   2.567 -3.2291 -2.0984  2.4795
    84G12c C01S 1462   5.048   3.920   2.751  1.0874  1.5538 -0.9289
    84G12c H00E 1463   5.129   3.850   2.770 -0.7488 -2.0805 -5.5498
    84G12c H00D 1464   5.035   4.026   2.772  3.9408  2.1645 -2.0472
    84G12c O005 1465   4.937   3.884   2.827 -1.7524 -0.8209 -1.6141
    84G12c H00C 1466   4.963   3.798   2.857  2.2010 -0.2573 -3.1324
    84G12c C01O 1467   4.999   3.835   2.328 -1.3889  0.1359  0.3445
    84G12c H00H 1468   5.046   3.924   2.366 -2.5762  0.0316  2.0915
    84G12c C01N 1469   4.929   3.855   2.218  1.8239 -0.2609 -0.3179
    84G12c O006 1470   4.922   3.980   2.137 -0.7145  2.8050 -0.2230
    84G12c C01T 1471   4.894   3.974   2.002  1.0427  0.7100 -0.9335
    84G12c H00K 1472   4.954   4.041   1.940 -1.0095  2.4561 -1.1244
    84G12c H00J 1473   4.804   4.032   1.981  0.4733 -0.9758 -3.2672
    84G12c H00I 1474   4.902   3.870   1.971 -1.4399  1.5161 -4.6089
    84G12c C01M 1475   4.834   3.745   2.200 -0.8416  1.6247 -0.2252
    84G12c C020 1476   4.647   3.302   2.297 -0.3043 -0.8330 -1.7028
    84G12c C021 1477   4.525   3.346   2.234 -2.1803 -1.4269 -0.9073
    84G12c C01L 1478   4.825   3.635   2.291 -0.1524 -1.3291 -0.2351
    84G12c O007 1479   4.721   3.784   2.117 -0.5961  0.5807  0.7139
    84G12c C022 1480   4.511   3.479   2.177 -1.1843 -2.7875 -0.2486
    84G12c C023 1481   4.445   3.268   2.138 -0.1203 -1.1530  0.1585
    84G12c C00G 1482   4.429   3.142   1.907 -0.7877  0.5377 -1.9522
    84G12c C00E 1483   4.379   3.169   1.678 -0.4383  0.5055 -1.2479
    84G12c O00A 1484   4.432   3.131   1.553  0.2717 -0.6354 -0.1901
    84G12c C024 1485   4.571   3.170   1.532 -0.3446  0.2024  0.1036
    84G12c H00V 1486   4.620   3.107   1.606 -0.0542 -0.6904 -0.8364
    84G12c H00U 1487   4.580   3.115   1.438 -1.9796 -1.0946  0.6740
    84G12c H00T 1488   4.626   3.264   1.533 -2.9552  1.7876 -0.3380
    94G12c C00D 1489   7.211  10.199  11.714  0.4617 -0.7259 -0.5162
    94G12c O00B 1490   7.273  10.083  11.755  1.1668 -0.8690  0.3539
    94G12c C025 1491   7.209   9.979  11.799 -0.2246 -0.7806 -0.4347
    94G12c C026 1492   7.274   9.965  11.947  0.6394 -0.7341  2.3127
    94G12c H00Y 1493   7.244   9.886  12.015  2.8901 -2.9545  0.7896
    94G12c H00X 1494   7.224  10.054  11.986  1.0530  0.4026  0.3485
    94G12c O00C 1495   7.398  10.010  11.955  0.2181 -1.2404 -0.0224
    94G12c H00W 1496   7.399  10.079  11.890 -1.0458 -0.1160  1.1074
    94G12c C027 1497   7.137   9.895  11.725  2.3927 -1.7265 -0.7748
    94G12c O00D 1498   7.176   9.916  11.598 -0.0238 -0.5297 -0.7905
    94G12c H00Z 1499   7.220   9.989  11.639  2.7859 -3.4521  1.7441
    94G12c C028 1500   7.078   9.771  11.758 -1.9712  0.3564  0.6708
    94G12c C029 1501   7.011   9.749  11.872 -0.9653 -0.4332  0.2383
    94G12c H010 1502   7.019   9.842  11.927 -3.9901  1.0634 -1.7116
    94G12c C02T 1503   6.941   9.635  11.886 -0.8108  0.6038  1.0203
    94G12c H01O 1504   6.878   9.617  11.972  2.3235 -4.0931  2.5170
    94G12c C02S 1505   6.970   9.527  11.804  0.2110 -0.7283  1.4800
    94G12c O00J 1506   6.906   9.409  11.812 -0.6380  0.5307  0.3975
    94G12c H01P 1507   6.947   9.364  11.740  5.9974 -1.8148  5.1285
    94G12c C02R 1508   7.033   9.544  11.679  1.0139  1.1950  0.8171
    94G12c O00I 1509   7.034   9.416  11.619  0.2311 -0.4519 -0.4420
    94G12c C02Q 1510   7.043   9.429  11.476 -1.4153 -1.6644 -0.1584
    94G12c H01N 1511   6.949   9.375  11.464 -0.5450 -2.1776 -6.6221
    94G12c H01R 1512   7.133   9.386  11.432 -1.8109 -1.6649 -0.9961
    94G12c H01Q 1513   7.007   9.523  11.433 -0.3181 -0.6151  1.1826
    94G12c C02A 1514   7.101   9.667  11.654 -1.0836  0.4026 -0.0089
    94G12c H011 1515   7.173   9.686  11.576 -0.8359  1.0543  0.3703
    94G12c C00C 1516   7.088  10.215  11.660 -0.0077  0.7277 -0.3544
    94G12c H012 1517   7.063  10.113  11.635  1.8987  0.2480 -0.3303
    94G12c C00B 1518   7.017  10.342  11.669  0.2091 -1.5482  0.9644
    94G12c C00A 1519   6.885  10.342  11.623 -0.2567 -0.3064  0.2100
    94G12c C009 1520   6.834  10.269  11.517 -0.5021  0.0261  0.4245
    94G12c C008 1521   6.868  10.153  11.433 -0.8908 -0.3698 -0.2036
    94G12c H013 1522   6.933  10.068  11.423  0.8641  0.3558  3.7810
    94G12c C007 1523   6.788  10.140  11.313  0.4347 -1.1431  0.1793
    94G12c H014 1524   6.810  10.054  11.252 -2.7842  2.7048 -7.0476
    94G12c C006 1525   6.699  10.234  11.269  1.5971  0.4120  0.6557
    94G12c C005 1526   6.677  10.339  11.357 -2.1385 -0.3412 -1.9186
    94G12c C004 1527   6.627  10.464  11.303 -1.1118  0.8975 -0.1181
    94G12c C003 1528   6.638  10.585  11.379 -0.7778 -0.1685  2.2897
    94G12c C002 1529   6.577  10.705  11.324  2.3653 -2.6505  0.2789
    94G12c C001 1530   6.541  10.842  11.367 -1.1705  2.3799  0.0505
    94G12c C00M 1531   6.647  10.921  11.437 -0.1732 -1.0336 -0.2160
    94G12c C00L 1532   6.723  10.871  11.538 -1.3744 -0.8911  0.5669
    94G12c C00R 1533   6.845  10.918  11.585 -0.2375  1.5896 -0.3922
    94G12c C00Q 1534   6.922  11.044  11.573  0.5143  0.8161  1.0037
    94G12c C00V 1535   7.036  11.044  11.659 -0.0908 -0.0564 -1.8350
    94G12c C00U 1536   7.111  10.935  11.706  0.1220 -0.7227  1.1933
    94G12c C00T 1537   7.053  10.819  11.688 -0.3682  0.2658 -0.3409
    94G12c C016 1538   7.101  10.690  11.731 -1.6793  0.0673  0.3949
    94G12c C015 1539   7.235  10.689  11.779 -0.6304 -0.1919 -0.9842
    94G12c C010 1540   7.307  10.811  11.778  0.1066 -0.2251 -0.6070
    94G12c C011 1541   7.435  10.797  11.836  0.7209 -1.5805 -0.3260
    94G12c H005 1542   7.487  10.885  11.869 -2.9981 -0.6962  3.5914
    94G12c C012 1543   7.493  10.685  11.899 -0.4913 -0.5191 -0.8132
    94G12c C017 1544   7.600  10.685  12.003  0.7884 -0.2760 -0.1683
    94G12c O002 1545   7.579  10.774  12.097  0.0687 -0.0744  1.0377
    94G12c H004 1546   7.657  10.827  12.090  0.4153 -0.8410 -1.6810
    94G12c C018 1547   7.700  10.589  12.029 -0.0397 -0.5524  1.0178
    94G12c O001 1548   7.734  10.489  11.946  0.8908 -0.9391  0.2703
    94G12c H003 1549   7.702  10.501  11.858  2.3098  4.9918  0.3602
    94G12c C019 1550   7.803  10.619  12.152  0.5247  0.5260  1.5593
    94G12c H002 1551   7.886  10.666  12.099  2.2403  0.5862  4.1601
    94G12c H001 1552   7.781  10.695  12.227  1.0279 -0.2993  2.5549
    94G12c O000 1553   7.858  10.513  12.221  1.3746  0.0023  0.3727
    94G12c C01A 1554   8.003  10.521  12.226  0.5387  0.1107  0.5202
    94G12c C02K 1555   8.077  10.633  12.279  1.0337  0.0462 -0.9404
    94G12c O00G 1556   8.017  10.759  12.308  0.6784 -0.0604 -0.0353
    94G12c C02M 1557   8.062  10.893  12.261  0.5966 -0.2571 -0.0113
    94G12c H01G 1558   7.992  10.974  12.244  3.6863  1.9888 -2.6354
    94G12c H01F 1559   8.153  10.922  12.208  1.4450 -5.9445 -2.0950
    94G12c H01E 1560   8.109  10.908  12.358  3.5134  1.0462 -1.5676
    94G12c C02J 1561   8.214  10.620  12.303 -1.0552  0.4462  0.0689
    94G12c H01H 1562   8.278  10.706  12.319 -0.3983  0.0653 -0.4781
    94G12c C02I 1563   8.286  10.499  12.280 -0.2049 -0.4099  0.0328
    94G12c C02N 1564   8.423  10.496  12.313  1.0776  0.2974 -0.5216
    94G12c H01M 1565   8.474  10.573  12.368 -1.0798 -0.8288  3.2104
    94G12c C02O 1566   8.497  10.419  12.223 -0.1389 -1.6806  0.9103
    94G12c H01L 1567   8.455  10.351  12.151  2.6223 -4.0665  1.4279
    94G12c C02P 1568   8.654  10.390  12.243  0.5464 -0.9920 -0.6274
    94G12c H01K 1569   8.692  10.477  12.297 -1.4870  1.8145 -3.5761
    94G12c H01J 1570   8.688  10.303  12.299  0.4914  1.3249  3.2329
    94G12c O00H 1571   8.707  10.394  12.119  0.1427  0.3848 -1.8274
    94G12c H01I 1572   8.753  10.317  12.088 -2.0515 -2.0410  0.6639
    94G12c C02H 1573   8.210  10.394  12.227 -1.5368 -0.8953  0.5611
    94G12c H01C 1574   8.243  10.291  12.221 -2.6213 -1.4546  3.4721
    94G12c C02L 1575   8.078  10.405  12.200  0.2261 -0.2397  0.1379
    94G12c H01D 1576   8.019  10.325  12.156  0.0854 -4.5059  7.3350
    94G12c C013 1577   7.412  10.570  11.865 -1.3133 -1.7883  0.7788
    94G12c H000 1578   7.449  10.475  11.900  4.9749 -1.0368 -2.8739
    94G12c C014 1579   7.280  10.558  11.820  0.3989  1.3813 -0.0800
    94G12c C00F 1580   7.219  10.447  11.765 -1.8519 -1.1540 -0.6151
    94G12c C00H 1581   7.027  10.577  11.713  0.7825  0.1443 -2.4175
    94G12c C00I 1582   6.891  10.577  11.681  0.2646  0.8576  0.2204
    94G12c C00J 1583   6.837  10.700  11.633 -0.3002 -1.0775 -1.7047
    94G12c C00Z 1584   7.240  10.933  11.722 -0.2560  0.4031 -1.8085
    94G12c C00Y 1585   7.297  11.043  11.763  2.2927 -0.4200 -0.3160
    94G12c H006 1586   7.405  11.042  11.771  2.7580 -0.5652 -4.9620
    94G12c C00X 1587   7.230  11.176  11.734 -0.3546  2.0104  0.3957
    94G12c O003 1588   7.280  11.296  11.770 -0.0169  0.9566  1.1418
    94G12c C01B 1589   7.394  11.307  11.848 -1.6411 -1.0178 -0.3727
    94G12c H009 1590   7.423  11.412  11.846 -2.2750 -0.7622  2.2186
    94G12c H008 1591   7.469  11.238  11.809  0.6912  0.0798  2.0071
    94G12c H007 1592   7.394  11.266  11.949 -0.0142  0.3218  0.1890
    94G12c C00W 1593   7.101  11.170  11.681  1.0022  0.6590 -1.1300
    94G12c O004 1594   7.038  11.278  11.634  0.0414  0.1089  0.3886
    94G12c C01C 1595   6.989  11.249  11.506  1.4499 -0.6885 -0.3637
    94G12c H00A 1596   7.007  11.306  11.416  3.1529  2.6165  2.0042
    94G12c C00P 1597   6.885  11.148  11.490 -2.1206 -0.5878 -0.2340
    94G12c C00O 1598   6.795  11.133  11.381 -1.5218 -0.6624 -0.1566
    94G12c C01D 1599   6.833  11.207  11.265 -0.5949 -0.2331  0.7541
    94G12c H00S 1600   6.919  11.272  11.261 -0.5618 -0.3664 -0.6437
    94G12c C01E 1601   6.758  11.192  11.137 -1.0878  1.0328  0.0074
    94G12c O008 1602   6.796  11.270  11.024 -1.1650  0.7730  0.1050
    94G12c C01V 1603   6.758  11.402  11.005 -1.1669 -0.4766 -0.3393
    94G12c C01Z 1604   6.885  11.480  10.976  1.1080  1.3643  0.8091
    94G12c H00R 1605   6.934  11.562  11.028  2.8877  3.2044 -3.5879
    94G12c H00Q 1606   6.957  11.400  10.958  0.0945  0.2972  1.3576
    94G12c O009 1607   6.883  11.528  10.856  0.2862 -1.0903  0.6894
    94G12c H00P 1608   6.957  11.534  10.797  0.8193 -2.4541  1.2089
    94G12c C01W 1609   6.630  11.436  11.012 -1.5270 -0.0156 -0.5731
    94G12c H00O 1610   6.556  11.360  11.033  0.8601 -1.1998  4.1664
    94G12c C01X 1611   6.574  11.582  11.004  0.6701  0.6239  0.2846
    94G12c H00N 1612   6.592  11.636  11.096 -0.6201  2.0468 -0.2784
    94G12c H00M 1613   6.639  11.640  10.939  0.4678  0.1167 -0.3860
    94G12c C01Y 1614   6.430  11.585  10.952  0.5410 -0.4294  0.2426
    94G12c C02D 1615   6.334  11.493  11.014  1.0993 -0.7122  0.8384
    94G12c H019 1616   6.368  11.435  11.098 -0.0480  0.5477  2.2089
    94G12c C02C 1617   6.214  11.457  10.959 -0.3526 -0.0630 -1.0105
    94G12c H01A 1618   6.144  11.388  11.003  3.9167 -4.2389 -0.3086
    94G12c C02B 1619   6.194  11.492  10.820  0.5656  0.3786 -0.0827
    94G12c O00E 1620   6.090  11.437  10.753 -0.5655 -0.0438  0.5601
    94G12c H01B 1621   6.079  11.464  10.662 -3.3667  0.9386  1.1445
    94G12c C02F 1622   6.268  11.591  10.758  0.2774  0.2171 -0.2502
    94G12c O00F 1623   6.250  11.606  10.623 -0.3497  0.6212 -0.1615
    94G12c C02G 1624   6.335  11.555  10.535  0.4154  0.2281  0.0474
    94G12c H017 1625   6.327  11.639  10.467 -0.8254  2.9869  3.4621
    94G12c H016 1626   6.293  11.472  10.478 -1.6033  1.7742 -0.7780
    94G12c H015 1627   6.441  11.532  10.525  0.5037  2.3272 -5.0304
    94G12c C02E 1628   6.386  11.642  10.829 -0.1625 -0.1392  0.7136
    94G12c H018 1629   6.439  11.734  10.809 -2.3365  0.3276 -3.2821
    94G12c C01F 1630   6.686  11.072  11.120  0.4067 -1.2438 -0.6414
    94G12c C01G 1631   6.662  10.986  11.014 -1.9150 -0.7883 -0.4216
    94G12c H00L 1632   6.698  11.038  10.927  7.0028  5.5924  6.0664
    94G12c C01H 1633   6.578  10.862  11.013 -0.9283 -0.7582  2.3442
    94G12c H00B 1634   6.566  10.788  10.935  3.0709  1.5874 -0.7050
    94G12c C01I 1635   6.524  10.830  11.143 -1.4265  1.2369  1.1627
    94G12c C01U 1636   6.627  11.029  11.239  1.5787  0.3144  0.0614
    94G12c C00S 1637   6.911  10.812  11.665  0.2210 -2.4060 -0.0721
    94G12c C00K 1638   6.719  10.728  11.556  1.1385 -1.4899 -1.3274
    94G12c C00N 1639   6.691  11.039  11.360 -0.1241  0.2743  0.3527
    94G12c C000 1640   6.537  10.915  11.250  1.2152 -1.3374  0.9349
    94G12c C01J 1641   6.536  10.700  11.190  0.2657  0.8509 -0.0789
    94G12c C01K 1642   6.525  10.569  11.107  0.8353  0.3434  0.0192
    94G12c C01P 1643   6.489  10.561  10.968  0.4020  0.3481 -0.0676
    94G12c C01Q 1644   6.381  10.643  10.909  0.5195 -1.5853 -1.0305
    94G12c H00G 1645   6.415  10.713  10.834  0.2034  5.8335  5.2032
    94G12c C01R 1646   6.241  10.637  10.923 -1.1289 -2.0569 -0.1079
    94G12c H00F 1647   6.178  10.713  10.879  0.3952  2.2108  4.6400
    94G12c C01S 1648   6.193  10.547  11.040  1.1766  2.1682 -0.5841
    94G12c H00E 1649   6.202  10.440  11.053 -6.6651  0.7205 -3.9438
    94G12c H00D 1650   6.274  10.566  11.110 -1.5688 -0.0186  3.4247
    94G12c O005 1651   6.069  10.568  11.098 -0.6706  1.4740  0.1738
    94G12c H00C 1652   5.995  10.595  11.047 -4.0949 -4.0711  1.7888
    94G12c C01O 1653   6.546  10.459  10.892 -1.1629  0.7011  0.6291
    94G12c H00H 1654   6.542  10.470  10.785  2.1363  3.5229  0.6962
    94G12c C01N 1655   6.587  10.344  10.947  0.7133 -1.0814  0.8256
    94G12c O006 1656   6.629  10.246  10.852 -0.7998 -1.6969  1.0754
    94G12c C01T 1657   6.537  10.142  10.829 -0.4933  0.4462 -1.8202
    94G12c H00K 1658   6.444  10.198  10.818  0.0792  1.3378 -2.0469
    94G12c H00J 1659   6.563  10.065  10.756  0.6077  1.8993 -2.9805
    94G12c H00I 1660   6.535  10.097  10.929 -5.0323  3.8614 -0.1993
    94G12c C01M 1661   6.591  10.333  11.090  0.0754  1.1968 -1.4033
    94G12c C020 1662   6.689  10.600  11.506 -2.7536 -0.6306  0.2196
    94G12c C021 1663   6.704  10.469  11.563 -0.4580 -1.5601 -1.0934
    94G12c C01L 1664   6.570  10.453  11.165 -0.3604  1.2467  0.8154
    94G12c O007 1665   6.638  10.223  11.150 -2.2082 -1.4412  0.6157
    94G12c C022 1666   6.734  10.361  11.478 -1.1399 -1.0115 -1.8143
    94G12c C023 1667   6.805  10.457  11.651 -0.5157  0.1861 -0.2730
    94G12c C00G 1668   7.092  10.458  11.715  1.7495  0.4063 -1.6056
    94G12c C00E 1669   7.291  10.319  11.750 -0.6363  0.4297  1.0455
    94G12c O00A 1670   7.429  10.322  11.758 -0.0149 -1.2947  0.1760
    94G12c C024 1671   7.515  10.249  11.687 -1.3872 -0.8873 -0.0218
    94G12c H00V 1672   7.538  10.258  11.580  4.8713 -0.9633  1.0926
    94G12c H00U 1673   7.609  10.265  11.740 -1.7061 -3.0644  1.2684
    94G12c H00T 1674   7.499  10.144  11.714  3.3233 -2.1004 -1.4313
   104G12c C00D 1675   7.767   1.063  12.284 -0.3601 -0.8931  1.1240
   104G12c O00B 1676   7.828   1.034  12.154  0.6247 -1.1840  1.5247
   104G12c C025 1677   7.771   1.120  12.060 -2.0446  0.9876 -0.2427
   104G12c C026 1678   7.693   1.061  11.941  0.5161  0.0277  1.7278
   104G12c H00Y 1679   7.605   0.997  11.949  2.8062 -4.3899 -4.6322
   104G12c H00X 1680   7.772   1.015  11.881 -2.0660 -0.7644 -1.1842
   104G12c O00C 1681   7.631   1.149  11.867 -0.6237  0.9080  0.1908
   104G12c H00W 1682   7.647   1.125  11.777 -1.6953 -0.2270  0.2861
   104G12c C027 1683   7.786   1.256  12.068  0.6845 -1.2199 -0.0900
   104G12c O00D 1684   7.726   1.352  11.988 -0.3587  0.4187 -0.3112
   104G12c H00Z 1685   7.633   1.335  11.989 -1.6667  6.4207 -1.7806
   104G12c C028 1686   7.889   1.305  12.168 -0.7050  0.2487 -0.9958
   104G12c C029 1687   8.021   1.265  12.181  0.2498 -0.9279 -0.5883
   104G12c H010 1688   8.059   1.215  12.093  4.3218  5.9055 -3.1277
   104G12c C02T 1689   8.110   1.318  12.271  0.9246  1.5851 -0.6518
   104G12c H01O 1690   8.214   1.295  12.259  2.0136  4.7809  1.8637
   104G12c C02S 1691   8.054   1.363  12.378 -0.9487  0.5997 -0.7908
   104G12c O00J 1692   8.142   1.362  12.482  1.1526 -0.9054 -1.4382
   104G12c H01P 1693   8.142   1.417  12.558 -7.0160  7.0979 -6.1845
   104G12c C02R 1694   7.922   1.398  12.399  0.2711 -0.3558 -0.6379
   104G12c O00I 1695   7.892   1.438  12.535 -1.4403 -0.3401 -0.8750
   104G12c C02Q 1696   7.841   1.556  12.581 -1.5932  0.4885  0.5312
   104G12c H01N 1697   7.904   1.645  12.580 -0.6589 -0.1607 -0.1953
   104G12c H01R 1698   7.788   1.534  12.673 -4.8553 -0.0080 -1.3925
   104G12c H01Q 1699   7.773   1.569  12.497  3.3619  6.3746 -3.0257
   104G12c C02A 1700   7.840   1.377  12.291  0.7116  1.3850  0.5983
   104G12c H011 1701   7.735   1.405  12.294  0.6068  0.9477  1.4275
   104G12c C00C 1702   7.635   1.094  12.300  0.0444  1.3692  1.7400
   104G12c H012 1703   7.553   1.069  12.233  0.3004 -7.8535  4.1211
   104G12c C00B 1704   7.566   1.090  12.424 -0.2184 -0.4103 -0.5422
   104G12c C00A 1705   7.420   1.087  12.443  1.4272 -0.2860  1.3370
   104G12c C009 1706   7.318   1.137  12.347  0.1365 -0.1901  1.1562
   104G12c C008 1707   7.330   1.211  12.218  1.2949  1.0531 -0.3773
   104G12c H013 1708   7.400   1.187  12.139 -0.0765  1.3434 -1.7142
   104G12c C007 1709   7.283   1.330  12.179 -1.1200  2.3279 -0.4029
   104G12c H014 1710   7.305   1.360  12.078 -2.3974  5.3665  0.1637
   104G12c C006 1711   7.205   1.399  12.270  0.1829 -0.1270 -1.3472
   104G12c C005 1712   7.174   1.334  12.396  0.6683  0.0739  0.5476
   104G12c C004 1713   7.139   1.411  12.508  1.0154 -0.6997 -0.4007
   104G12c C003 1714   7.144   1.366  12.639 -1.1655 -0.1256  1.3835
   104G12c C002 1715   7.076   1.436  12.745 -0.1136  0.7371  0.4571
   104G12c C001 1716   7.076   1.425  12.889 -0.2425 -2.0961  0.1812
   104G12c C00M 1717   7.185   1.409  12.970 -0.6159 -0.7156  1.0242
   104G12c C00L 1718   7.269   1.305  12.936  1.1059 -0.1083 -0.3407
   104G12c C00R 1719   7.403   1.291  12.982 -0.0310  1.2653  0.0443
   104G12c C00Q 1720   7.473   1.368  13.084  0.8812 -0.7646 -0.4709
   104G12c C00V 1721   7.608   1.320  13.095  1.6156  0.5134 -0.0101
   104G12c C00U 1722   7.687   1.241  12.996  1.7224 -0.1800  0.0498
   104G12c C00T 1723   7.616   1.173  12.906 -2.5308 -1.4781 -1.1054
   104G12c C016 1724   7.665   1.133  12.780  0.8484  2.4317 -0.5661
   104G12c C015 1725   7.799   1.139  12.756 -0.4585  2.4171 -1.5963
   104G12c C010 1726   7.884   1.179  12.874  0.4061  0.1155  0.6638
   104G12c C011 1727   8.022   1.166  12.862 -0.3715  0.1561  1.5208
   104G12c H005 1728   8.090   1.215  12.929  3.6109  2.9910 -4.2240
   104G12c C012 1729   8.073   1.151  12.736  0.4802  0.2896  2.0925
   104G12c C017 1730   8.199   1.206  12.718  1.3076  2.3647  0.8090
   104G12c O002 1731   8.305   1.109  12.699  0.8455 -1.9906 -0.3075
   104G12c H004 1732   8.349   1.075  12.775  3.5111  1.6460 -0.1019
   104G12c C018 1733   8.210   1.339  12.740 -0.3985 -1.5015 -0.0086
   104G12c O001 1734   8.099   1.423  12.750 -0.7843  1.2938  1.5674
   104G12c H003 1735   8.030   1.414  12.687 -0.5173 -0.2302  1.4675
   104G12c C019 1736   8.340   1.379  12.814  0.9712 -0.7781  0.1154
   104G12c H002 1737   8.357   1.297  12.884 -7.3325 -3.5570 -0.5290
   104G12c H001 1738   8.429   1.381  12.751 -0.5394  1.2131 -2.0379
   104G12c O000 1739   8.312   1.476  12.920 -2.0268 -0.6534 -1.6442
   104G12c C01A 1740   8.410   1.570  12.956 -1.5830 -1.1586  0.1930
   104G12c C02K 1741   8.538   1.526  13.013 -0.8117 -1.8288 -0.1786
   104G12c O00G 1742   8.577   1.398  13.051 -0.0329  1.7824 -0.5214
   104G12c C02M 1743   8.498   1.367  13.144  0.3994 -2.5202  2.5590
   104G12c H01G 1744   8.474   1.264  13.170  3.9475 -3.6622  1.4953
   104G12c H01F 1745   8.397   1.394  13.112  2.1078 -1.6387 -2.5060
   104G12c H01E 1746   8.478   1.412  13.242 -1.0219  5.7592 -1.0321
   104G12c C02J 1747   8.636   1.634  13.035  0.3232 -1.0014 -0.3776
   104G12c H01H 1748   8.732   1.591  13.062  0.5726 -1.4137 -1.8265
   104G12c C02I 1749   8.593   1.771  13.030 -0.7812  0.1908  0.7385
   104G12c C02N 1750   8.680   1.883  13.063  0.2444 -0.5764  1.3921
   104G12c H01M 1751   8.640   1.980  13.088  7.3841  3.5367 -1.7077
   104G12c C02O 1752   8.814   1.872  13.056 -1.2672 -0.1866  0.2511
   104G12c H01L 1753   8.888   1.795  13.041 -2.7577 -2.1499  2.6434
   104G12c C02P 1754   8.865   1.996  13.101  0.0310 -0.0253  0.1078
   104G12c H01K 1755   8.784   2.065  13.126 -0.1176  1.6818 -4.5687
   104G12c H01J 1756   8.950   1.985  13.168  0.1104  0.2563  0.0579
   104G12c O00H 1757   8.891   2.044  12.972  0.0460  0.1143 -1.1364
   104G12c H01I 1758   8.814   1.998  12.942 -0.8074 -0.1173  1.2850
   104G12c C02H 1759   8.458   1.813  12.998 -0.4723 -0.3495 -0.8513
   104G12c H01C 1760   8.403   1.904  13.013  0.3096 -0.3040  2.0998
   104G12c C02L 1761   8.372   1.712  12.956  0.2370  0.1156 -1.5037
   104G12c H01D 1762   8.276   1.741  12.915 -0.4066 -2.0412 -1.5601
   104G12c C013 1763   7.989   1.112  12.627 -0.4524 -1.4913 -0.6328
   104G12c H000 1764   8.055   1.132  12.544  1.2894 -0.6244  0.9213
   104G12c C014 1765   7.846   1.111  12.636 -0.5596 -1.0864 -0.6627
   104G12c C00F 1766   7.779   1.091  12.525 -2.1010  2.2748 -0.1214
   104G12c C00H 1767   7.581   1.097  12.667 -0.0233  1.4820  1.0737
   104G12c C00I 1768   7.445   1.103  12.684 -1.5820  2.1856 -0.1313
   104G12c C00J 1769   7.395   1.129  12.817  0.3997 -0.7944  1.8105
   104G12c C00Z 1770   7.822   1.243  12.985 -0.7213 -0.1991  1.7291
   104G12c C00Y 1771   7.893   1.312  13.085  0.5483 -2.0803 -0.5498
   104G12c H006 1772   8.000   1.329  13.079  0.1901  1.3936  1.4702
   104G12c C00X 1773   7.825   1.381  13.191 -0.3445  0.7503  1.3620
   104G12c O003 1774   7.893   1.483  13.269  0.7441  0.5236 -1.8300
   104G12c C01B 1775   8.030   1.516  13.247 -0.1152  0.1961 -0.4526
   104G12c H009 1776   8.048   1.590  13.325  3.1480  2.9806 -3.6762
   104G12c H008 1777   8.054   1.550  13.147 -1.2897  1.0613 -0.4466
   104G12c H007 1778   8.097   1.446  13.298  1.8285  1.9609 -0.5092
   104G12c C00W 1779   7.690   1.391  13.195 -0.0093 -2.2730 -0.4063
   104G12c O004 1780   7.635   1.482  13.288  0.2130 -0.3933  0.2040
   104G12c C01C 1781   7.508   1.532  13.262  0.7698 -0.0930  0.8338
   104G12c H00A 1782   7.432   1.586  13.317 -2.9560 -4.0838 -0.1291
   104G12c C00P 1783   7.435   1.491  13.146  0.3704  0.4406 -0.3326
   104G12c C00O 1784   7.318   1.570  13.101 -0.4023  0.7156 -0.2473
   104G12c C01D 1785   7.344   1.719  13.137  0.9244 -1.5424  1.1549
   104G12c H00S 1786   7.425   1.770  13.185  1.1004 -0.0213 -0.6835
   104G12c C01E 1787   7.252   1.826  13.081 -1.4444 -0.0068  1.1876
   104G12c O008 1788   7.285   1.959  13.093 -1.2143  0.7828  0.4844
   104G12c C01V 1789   7.409   2.001  13.144 -1.1292 -0.6355  0.6476
   104G12c C01Z 1790   7.403   2.005  13.284  1.4988 -1.2904 -1.0892
   104G12c H00R 1791   7.443   1.924  13.345  2.8873  1.4552  1.8160
   104G12c H00Q 1792   7.445   2.105  13.293 -6.0884  1.7852  7.3563
   104G12c O009 1793   7.265   2.034  13.323 -0.2683  0.5103 -0.6359
   104G12c H00P 1794   7.218   1.962  13.284 -1.2599  1.0115 -0.3656
   104G12c C01W 1795   7.496   2.053  13.059  0.4288 -0.3905 -1.3685
   104G12c H00O 1796   7.505   2.067  12.952 -2.2344 -1.0182 -1.7118
   104G12c C01X 1797   7.619   2.126  13.104  0.7343  0.2828 -0.3099
   104G12c H00N 1798   7.684   2.076  13.176  5.2332  5.5999 -0.3571
   104G12c H00M 1799   7.692   2.118  13.023 -1.2614 -4.3114 -1.8462
   104G12c C01Y 1800   7.593   2.263  13.151 -0.5351 -0.0646  1.2238
   104G12c C02D 1801   7.590   2.334  13.270 -1.0318 -0.5923  0.5872
   104G12c H019 1802   7.621   2.267  13.349 -3.2038 -6.0836 -2.8921
   104G12c C02C 1803   7.524   2.465  13.287 -1.0334  0.3976  0.5111
   104G12c H01A 1804   7.543   2.514  13.381  5.9116 -2.4706  0.9320
   104G12c C02B 1805   7.447   2.511  13.181  0.4459 -0.8739 -1.4936
   104G12c O00E 1806   7.401   2.631  13.203  0.3378 -0.5474 -0.1289
   104G12c H01B 1807   7.373   2.626  13.293 -0.3667 -3.6029 -0.4747
   104G12c C02F 1808   7.488   2.468  13.052 -0.1110 -1.1912  1.1848
   104G12c O00F 1809   7.467   2.527  12.920 -0.5892  0.1730 -1.3889
   104G12c C02G 1810   7.346   2.575  12.876  0.4991  2.4600  1.7779
   104G12c H017 1811   7.348   2.628  12.781  1.2278  3.7194  2.4616
   104G12c H016 1812   7.283   2.487  12.872 -0.4608  3.1911 -5.3677
   104G12c H015 1813   7.304   2.653  12.940  1.2401  3.0085  1.6105
   104G12c C02E 1814   7.551   2.341  13.043 -0.2344 -2.0694  1.5170
   104G12c H018 1815   7.536   2.295  12.947 -4.4919  3.3266 -0.7424
   104G12c C01F 1816   7.143   1.767  13.012  0.8319  1.6055  2.0389
   104G12c C01G 1817   7.079   1.839  12.906 -2.1149 -0.1890 -0.4799
   104G12c H00L 1818   7.098   1.946  12.903  8.3575 -1.5449 -6.1070
   104G12c C01H 1819   7.004   1.785  12.799  3.1232  0.8588  1.0258
   104G12c H00B 1820   6.958   1.852  12.729 -1.1587  0.0788  2.9623
   104G12c C01I 1821   6.990   1.644  12.806 -0.1845  0.3805 -1.3123
   104G12c C01U 1822   7.106   1.624  13.009  1.1171 -0.9681 -0.2331
   104G12c C00S 1823   7.477   1.197  12.903  1.0288  0.6380  0.7373
   104G12c C00K 1824   7.275   1.232  12.806 -0.6688 -2.2496 -2.6007
   104G12c C00N 1825   7.206   1.535  13.021 -0.1669  1.2565  1.2702
   104G12c C000 1826   7.030   1.566  12.922  0.3022 -0.3110  0.5796
   104G12c C01J 1827   7.000   1.548  12.701  2.1625 -0.4583  0.4055
   104G12c C01K 1828   6.960   1.584  12.572  0.8732 -0.2843 -1.3794
   104G12c C01P 1829   6.860   1.667  12.514  1.9839  0.0001  1.7603
   104G12c C01Q 1830   6.719   1.686  12.578 -0.6193  0.5428  0.5084
   104G12c H00G 1831   6.636   1.740  12.534  0.6819  1.9701 -0.2370
   104G12c C01R 1832   6.678   1.588  12.671  0.5668 -1.3269 -0.0447
   104G12c H00F 1833   6.762   1.545  12.723  3.6122 -1.0059 -4.3860
   104G12c C01S 1834   6.543   1.550  12.703  0.8867  1.0905 -0.2994
   104G12c H00E 1835   6.521   1.490  12.614  2.2566 -0.0480  0.1063
   104G12c H00D 1836   6.529   1.477  12.783  0.6108  1.9763  0.4722
   104G12c O005 1837   6.440   1.657  12.691 -2.3487 -0.5999  2.1674
   104G12c H00C 1838   6.390   1.655  12.611 -3.7204  1.0493  2.9688
   104G12c C01O 1839   6.890   1.725  12.387  0.6371  2.0105  0.1468
   104G12c H00H 1840   6.811   1.762  12.324 -4.0188 -2.1087  3.2259
   104G12c C01N 1841   7.000   1.689  12.310 -0.9645 -0.9228  0.9894
   104G12c O006 1842   7.014   1.740  12.183  0.5389  0.2236  2.0360
   104G12c C01T 1843   6.934   1.670  12.079 -0.3087 -0.2784  0.7068
   104G12c H00K 1844   6.839   1.714  12.049  0.4295  2.5911  2.4033
   104G12c H00J 1845   6.928   1.562  12.093  1.6109 -1.0553 -3.3749
   104G12c H00I 1846   6.994   1.704  11.994 -2.2840  1.9546  0.1670
   104G12c C01M 1847   7.077   1.575  12.348 -0.2590  0.3025  1.2877
   104G12c C020 1848   7.222   1.257  12.669  1.7281 -1.5679 -0.1046
   104G12c C021 1849   7.251   1.182  12.555  0.4347  1.2818 -0.0740
   104G12c C01L 1850   7.068   1.529  12.489 -0.2892 -0.7184  0.1664
   104G12c O007 1851   7.176   1.536  12.267 -1.5802  0.2076  0.4475
   104G12c C022 1852   7.211   1.207  12.429 -0.1086 -0.0885 -0.3730
   104G12c C023 1853   7.369   1.102  12.572 -1.5780 -2.1823  0.1373
   104G12c C00G 1854   7.646   1.087  12.546 -0.4725  2.1682  0.3687
   104G12c C00E 1855   7.832   1.031  12.400 -2.8006  0.0633  0.8421
   104G12c O00A 1856   7.955   0.995  12.406  0.0732  0.7471  0.7783
   104G12c C024 1857   8.000   0.868  12.360  0.1415  1.3708 -1.5644
   104G12c H00V 1858   7.971   0.780  12.417  2.4037  1.2837 -0.4979
   104G12c H00U 1859   7.940   0.830  12.278 -2.5066  1.6404  0.2018
   104G12c H00T 1860   8.107   0.872  12.338  1.8111 -1.3154  4.7856
   114G12c C00D 1861   0.993   9.990   8.182  1.0567  0.5270 -0.6940
   114G12c O00B 1862   0.855   9.968   8.181 -0.6510  0.0256  0.2325
   114G12c C025 1863   0.786   9.842   8.204  0.8346 -0.2741  0.9815
   114G12c C026 1864   0.726   9.780   8.080 -1.4225  0.0676  1.0354
   114G12c H00Y 1865   0.729   9.673   8.099  4.9279 -0.2858 -0.7695
   114G12c H00X 1866   0.631   9.831   8.065  1.8186  4.9338 -5.6303
   114G12c O00C 1867   0.823   9.772   7.992 -0.6384 -1.0568  0.0744
   114G12c H00W 1868   0.801   9.806   7.907  3.1386  0.8220 -0.2501
   114G12c C027 1869   0.773   9.785   8.328 -0.5581 -0.2013  0.2054
   114G12c O00D 1870   0.870   9.816   8.430  0.0917  0.1099  0.0097
   114G12c H00Z 1871   0.886   9.898   8.474 -0.7234 -0.1348  0.7753
   114G12c C028 1872   0.670   9.685   8.335 -0.1745  0.1685 -0.0167
   114G12c C029 1873   0.533   9.715   8.353 -0.6166  0.3323  0.7949
   114G12c H010 1874   0.500   9.815   8.326 -7.3286 -1.0394  3.0728
   114G12c C02T 1875   0.435   9.615   8.380  1.4692 -0.5584 -1.0291
   114G12c H01O 1876   0.338   9.662   8.386  2.1721  1.4276 -4.3901
   114G12c C02S 1877   0.476   9.475   8.382 -0.3655  0.0398 -1.1803
   114G12c O00J 1878   0.386   9.374   8.424  1.5673 -0.1442  0.1168
   114G12c H01P 1879   0.435   9.293   8.422  0.1306 -1.0122 -1.0965
   114G12c C02R 1880   0.621   9.455   8.382  0.4457  0.1679 -0.8904
   114G12c O00I 1881   0.674   9.333   8.432  1.4150 -0.8202  0.5541
   114G12c C02Q 1882   0.769   9.350   8.548 -0.3837 -0.6393 -0.8456
   114G12c H01N 1883   0.860   9.410   8.538 -2.7145  2.6175 -4.2564
   114G12c H01R 1884   0.804   9.256   8.590  1.0101 -0.1388 -0.8771
   114G12c H01Q 1885   0.694   9.378   8.622  0.5779  4.5491 -1.6370
   114G12c C02A 1886   0.709   9.557   8.351 -0.4703  0.0381  0.8843
   114G12c H011 1887   0.807   9.515   8.331 -0.4489 -1.8665  4.5297
   114G12c C00C 1888   1.068   9.896   8.254 -0.3882  0.6079  0.6872
   114G12c H012 1889   1.014   9.807   8.283  1.3781  0.0261  2.2330
   114G12c C00B 1890   1.215   9.900   8.228  0.2684  2.5739 -1.6977
   114G12c C00A 1891   1.311   9.806   8.284  0.6368 -0.5426  2.3207
   114G12c C009 1892   1.291   9.678   8.344 -1.6465  2.5849 -1.3430
   114G12c C008 1893   1.194   9.615   8.441 -1.6388 -0.7637 -1.5365
   114G12c H013 1894   1.089   9.640   8.441 -1.8565 -1.6746 -1.5368
   114G12c C007 1895   1.241   9.582   8.582 -0.7229 -0.5491 -0.0373
   114G12c H014 1896   1.196   9.548   8.673  0.8376  0.9304  1.3237
   114G12c C006 1897   1.369   9.574   8.596 -0.4831  0.8978  1.3574
   114G12c C005 1898   1.464   9.605   8.495 -1.9249  0.5215 -0.0566
   114G12c C004 1899   1.599   9.647   8.541 -0.0970  2.4551  0.3541
   114G12c C003 1900   1.682   9.722   8.457 -1.8194 -1.0626  0.9165
   114G12c C002 1901   1.815   9.740   8.500  0.1165 -0.8383 -1.6190
   114G12c C001 1902   1.932   9.800   8.458 -1.3015  0.6274  0.3557
   114G12c C00M 1903   1.931   9.928   8.393 -1.2485 -1.3173  0.9590
   114G12c C00L 1904   1.852   9.964   8.279  1.0788  0.5208  1.2553
   114G12c C00R 1905   1.800  10.097   8.253 -0.1061 -0.7639  1.5593
   114G12c C00Q 1906   1.845  10.228   8.296 -1.3230  0.3500  1.6813
   114G12c C00V 1907   1.787  10.336   8.215 -0.5900 -0.1975  2.8313
   114G12c C00U 1908   1.652  10.329   8.171  1.0852  0.6644 -1.2679
   114G12c C00T 1909   1.601  10.210   8.156  0.4094  1.9627 -0.6236
   114G12c C016 1910   1.464  10.177   8.130  1.2687 -0.3143 -1.7838
   114G12c C015 1911   1.376  10.277   8.127 -0.6807  0.5328 -0.9509
   114G12c C010 1912   1.431  10.416   8.124  1.1495 -1.0885 -1.2628
   114G12c C011 1913   1.345  10.530   8.114 -0.7289 -0.3727  0.2539
   114G12c H005 1914   1.386  10.630   8.115  1.3565 -1.1986  3.4883
   114G12c C012 1915   1.200  10.508   8.099  1.2371  1.4610 -0.8459
   114G12c C017 1916   1.123  10.617   8.032  0.9656 -0.9427  0.4763
   114G12c O002 1917   1.086  10.574   7.905  0.8424  1.4100 -0.4779
   114G12c H004 1918   1.023  10.526   7.956  1.3321 -1.1432 -2.2064
   114G12c C018 1919   1.113  10.749   8.084 -0.9615  0.2407 -0.1306
   114G12c O001 1920   1.133  10.765   8.209  0.1879 -1.8746  0.9609
   114G12c H003 1921   1.098  10.853   8.209 -3.8330 -3.3390 -2.8148
   114G12c C019 1922   1.098  10.875   7.992  2.6444 -0.6900  0.6930
   114G12c H002 1923   1.186  10.869   7.929  1.0381 -1.6198 -1.5243
   114G12c H001 1924   1.032  10.849   7.909  5.7933 -6.9542 -0.1088
   114G12c O000 1925   1.107  10.998   8.065 -0.8089  0.2156  0.5416
   114G12c C01A 1926   1.219  11.064   8.044 -0.9604 -0.1569  1.4084
   114G12c C02K 1927   1.221  11.207   8.048  1.7463  0.9714  0.2665
   114G12c O00G 1928   1.093  11.260   7.999 -0.8334 -1.0053  0.3071
   114G12c C02M 1929   1.022  11.371   8.070  1.4531  1.3828  0.9113
   114G12c H01G 1930   1.036  11.379   8.178 -1.1034 -1.7206  1.5330
   114G12c H01F 1931   0.919  11.338   8.061  4.2813 -8.3338 -1.3736
   114G12c H01E 1932   1.008  11.459   8.007  3.6882 -0.4480 -2.3001
   114G12c C02J 1933   1.323  11.297   8.093 -1.4793  0.1308 -1.8021
   114G12c H01H 1934   1.306  11.403   8.096  0.5415  0.6727 -5.9962
   114G12c C02I 1935   1.451  11.231   8.128  0.4411 -0.1511  0.7857
   114G12c C02N 1936   1.572  11.329   8.150  0.9897  0.4754  0.1046
   114G12c H01M 1937   1.670  11.301   8.184  0.8247 -2.5312 -1.7598
   114G12c C02O 1938   1.570  11.473   8.137 -0.2700 -2.7810  0.0335
   114G12c H01L 1939   1.499  11.553   8.152 -2.4748 -5.1100  2.4809
   114G12c C02P 1940   1.700  11.554   8.175 -0.0446  2.4237 -0.2318
   114G12c H01K 1941   1.701  11.536   8.283  0.9750 -5.0818 -1.2422
   114G12c H01J 1942   1.779  11.488   8.139 -1.6145 -1.1893  2.5290
   114G12c O00H 1943   1.728  11.696   8.133 -0.0568 -1.2156  0.9411
   114G12c H01I 1944   1.675  11.744   8.194 -1.5829 -0.8645 -0.6126
   114G12c C02H 1945   1.448  11.093   8.104 -0.0970 -0.4295 -2.7871
   114G12c H01C 1946   1.548  11.051   8.109  2.1525  4.7202  1.2927
   114G12c C02L 1947   1.345  11.014   8.056  0.4009 -1.5702 -0.2513
   114G12c H01D 1948   1.354  10.910   8.082  6.2862 -1.9002 -2.8461
   114G12c C013 1949   1.162  10.366   8.094 -0.1913 -0.3206 -2.0584
   114G12c H000 1950   1.060  10.362   8.060  0.1190 -3.3151 -2.7895
   114G12c C014 1951   1.243  10.254   8.124 -1.0218 -0.5150  2.1894
   114G12c C00F 1952   1.192  10.120   8.130 -0.0145  0.8410  0.3274
   114G12c C00H 1953   1.415  10.042   8.161 -1.1926 -0.6940 -0.9472
   114G12c C00I 1954   1.509   9.930   8.181  1.9882 -1.7599  1.4010
   114G12c C00J 1955   1.647   9.965   8.177  0.0033 -0.2587  0.3336
   114G12c C00Z 1956   1.568  10.440   8.147 -1.5937 -1.1193 -0.0121
   114G12c C00Y 1957   1.638  10.567   8.138  0.7683 -0.8154 -0.0173
   114G12c H006 1958   1.596  10.653   8.088 -4.1468 -3.0269  0.0736
   114G12c C00X 1959   1.781  10.586   8.167  1.9070 -1.5134 -0.4514
   114G12c O003 1960   1.875  10.693   8.135  0.2168 -0.6392 -0.9547
   114G12c C01B 1961   1.938  10.671   8.017 -1.1543  0.6655  1.4659
   114G12c H009 1962   1.895  10.597   7.949  4.1602 -0.7731 -0.6404
   114G12c H008 1963   2.028  10.631   8.064 -3.0568 -0.3458  4.3967
   114G12c H007 1964   1.971  10.743   7.942  3.1086  0.6184  3.1518
   114G12c C00W 1965   1.821  10.479   8.241 -0.4755 -0.7079  0.2600
   114G12c O004 1966   1.940  10.489   8.314  0.0207  0.2780 -0.0711
   114G12c C01C 1967   1.961  10.404   8.412  0.7004 -0.1348  2.4152
   114G12c H00A 1968   1.962  10.432   8.516 -2.8560  1.7561  2.0192
   114G12c C00P 1969   1.935  10.263   8.396  1.7184  0.1892 -1.1317
   114G12c C00O 1970   2.008  10.174   8.474 -0.0810  0.6407 -0.1519
   114G12c C01D 1971   2.076  10.225   8.590  0.5864  1.1388 -0.9729
   114G12c H00S 1972   2.095  10.319   8.639 -2.0105 -1.6091  5.8706
   114G12c C01E 1973   2.102  10.146   8.689  0.2146  0.9003 -0.5596
   114G12c O008 1974   2.158  10.179   8.829 -0.6616  0.5121  0.0630
   114G12c C01V 1975   2.286  10.161   8.862  0.8038 -0.6534 -0.2739
   114G12c C01Z 1976   2.354  10.229   8.976  1.2358  0.9953  1.1849
   114G12c H00R 1977   2.280  10.289   9.028 -4.7143 -4.5633 -0.3048
   114G12c H00Q 1978   2.404  10.151   9.034 -1.0659 -4.0422 -3.2511
   114G12c O009 1979   2.427  10.332   8.917  1.4922 -0.5140 -0.4396
   114G12c H00P 1980   2.466  10.378   8.990  1.0368  1.0076 -1.1365
   114G12c C01W 1981   2.361  10.073   8.789 -0.6368 -0.9455  2.0016
   114G12c H00O 1982   2.320  10.000   8.721 -4.8304 -0.4643  3.8381
   114G12c C01X 1983   2.504  10.022   8.815  0.2939 -0.1547 -1.7185
   114G12c H00N 1984   2.574  10.027   8.731  0.2582 -0.1697 -1.7484
   114G12c H00M 1985   2.568  10.069   8.889 -0.6295 -0.8509 -0.4696
   114G12c C01Y 1986   2.501   9.865   8.843  0.4515 -0.4489 -0.1066
   114G12c C02D 1987   2.418   9.836   8.950  0.1617 -1.0020 -0.6658
   114G12c H019 1988   2.377   9.914   9.012  3.4000  1.8277 -1.9677
   114G12c C02C 1989   2.391   9.687   8.950 -1.0442  0.1631 -0.8237
   114G12c H01A 1990   2.326   9.660   9.032  2.4406  1.7474  2.6021
   114G12c C02B 1991   2.455   9.605   8.856 -0.4794  2.1459 -0.0096
   114G12c O00E 1992   2.460   9.474   8.907 -1.6072  0.4362 -0.8582
   114G12c H01B 1993   2.464   9.461   9.000  2.0735 -1.2882 -1.1705
   114G12c C02F 1994   2.543   9.648   8.758 -0.7679  0.5054 -0.9141
   114G12c O00F 1995   2.632   9.563   8.695 -0.2248 -0.0219 -0.9087
   114G12c C02G 1996   2.591   9.451   8.615 -0.4447 -1.8191 -0.6615
   114G12c H017 1997   2.679   9.443   8.551  1.1302  6.8698 -0.1265
   114G12c H016 1998   2.526   9.489   8.537 -1.3485 -1.3546  0.3028
   114G12c H015 1999   2.528   9.382   8.671 -1.5187 -1.7001 -1.7091
   114G12c C02E 2000   2.565   9.785   8.743  0.1611  0.6221  0.0478
   114G12c H018 2001   2.632   9.821   8.666 -0.1616  1.3640  0.1112
   114G12c C01F 2002   2.071  10.008   8.708  1.7303  0.6287 -0.7224
   114G12c C01G 2003   2.034   9.943   8.823  0.4443  0.9438  0.2801
   114G12c H00L 2004   2.035   9.997   8.916 -7.3657 -1.6790  2.3125
   114G12c C01H 2005   1.991   9.803   8.804  0.7471 -0.7183  0.3871
   114G12c H00B 2006   1.938   9.757   8.887 -2.1183  0.8020 -0.5491
   114G12c C01I 2007   1.953   9.752   8.681 -0.7264 -1.1215  0.3189
   114G12c C01U 2008   2.058   9.948   8.577  0.2400 -0.3591  1.0303
   114G12c C00S 2009   1.683  10.089   8.192 -0.5321  0.3749 -0.5218
   114G12c C00K 2010   1.722   9.892   8.264 -0.0426 -0.1063 -0.0585
   114G12c C00N 2011   2.002  10.026   8.467 -1.2781  0.1145  1.6468
   114G12c C000 2012   2.011   9.825   8.574 -0.3939 -0.4100 -2.0614
   114G12c C01J 2013   1.845   9.676   8.631  0.4268 -0.5351 -0.1174
   114G12c C01K 2014   1.769   9.611   8.724  0.0017  0.3287 -0.4609
   114G12c C01P 2015   1.793   9.526   8.844  0.7991 -1.3714  0.5774
   114G12c C01Q 2016   1.936   9.500   8.874  0.2497  0.3109  1.5174
   114G12c H00G 2017   2.030   9.511   8.824 -1.9671  2.8475 -2.3212
   114G12c C01R 2018   1.987   9.476   8.998 -1.0004  0.6401  0.1048
   114G12c H00F 2019   1.924   9.455   9.084 -1.2208 -2.9648 -0.8565
   114G12c C01S 2020   2.094   9.370   9.046  0.3656  0.0974  0.3559
   114G12c H00E 2021   2.162   9.388   9.130  2.5941 -0.0379 -1.3984
   114G12c H00D 2022   2.177   9.405   8.987 -0.2916 -1.5436 -1.5880
   114G12c O005 2023   2.042   9.238   9.019  1.0931 -0.4261 -0.0626
   114G12c H00C 2024   1.953   9.227   9.049  0.7199  1.7267 -0.2815
   114G12c C01O 2025   1.679   9.478   8.924  0.7848  0.4083  2.8853
   114G12c H00H 2026   1.691   9.413   9.009  0.7575 -2.9424  0.4329
   114G12c C01N 2027   1.557   9.473   8.874 -1.5054  1.8890 -0.5490
   114G12c O006 2028   1.437   9.445   8.948  0.5033  1.0742 -0.9130
   114G12c C01T 2029   1.434   9.454   9.086 -1.1029 -0.1251  0.9157
   114G12c H00K 2030   1.374   9.385   9.145  1.3252 -0.6155  2.8917
   114G12c H00J 2031   1.387   9.550   9.064  3.4725  1.6199 -1.8109
   114G12c H00I 2032   1.531   9.428   9.127 -0.6429 -4.2029 -2.4109
   114G12c C01M 2033   1.546   9.521   8.741 -0.8473  0.5022  0.6624
   114G12c C020 2034   1.644   9.784   8.328  1.3885 -0.7877 -1.3160
   114G12c C021 2035   1.518   9.720   8.291  0.6339  0.3678 -0.1712
   114G12c C01L 2036   1.638   9.594   8.663 -0.0532 -1.4459 -0.3136
   114G12c O007 2037   1.410   9.525   8.702 -2.1279  0.2500  0.6521
   114G12c C022 2038   1.430   9.648   8.362 -0.5797  0.5135 -0.0918
   114G12c C023 2039   1.437   9.820   8.231 -0.8631  0.9407  0.5534
   114G12c C00G 2040   1.272  10.013   8.172 -1.0624  0.9909 -0.3413
   114G12c C00E 2041   1.048  10.092   8.132  0.1080 -0.0318  0.3588
   114G12c O00A 2042   0.931  10.155   8.075  0.3178 -1.5801 -0.4128
   114G12c C024 2043   0.914  10.169   7.925 -0.2129 -1.2402  1.1807
   114G12c H00V 2044   0.828  10.133   7.869 -4.1649  2.5156  4.4123
   114G12c H00U 2045   0.999  10.133   7.868  3.5182  3.0382  3.6810
   114G12c H00T 2046   0.937  10.270   7.889 -3.5607 -1.9017 -3.0915
   124G12c C00D 2047  11.146   1.282  13.495  0.8561  2.0946  1.1570
   124G12c O00B 2048  11.191   1.414  13.500 -0.3744 -0.8192  1.6054
   124G12c C025 2049  11.083   1.494  13.498  1.3141 -0.0458  1.2493
   124G12c C026 2050  11.029   1.517  13.344 -0.9561 -0.4462 -2.7010
   124G12c H00Y 2051  11.127   1.506  13.298 -1.3188 -0.0103 -3.5874
   124G12c H00X 2052  11.010   1.618  13.308 -1.3368  1.0370  1.3878
   124G12c O00C 2053  10.927   1.432  13.299  0.6575 -0.5915 -0.4940
   124G12c H00W 2054  10.944   1.370  13.229 -1.0109  2.9102 -4.1702
   124G12c C027 2055  11.064   1.587  13.605  1.6019  1.4448  1.2305
   124G12c O00D 2056  11.136   1.564  13.715 -1.5115 -1.2256 -1.3577
   124G12c H00Z 2057  11.229   1.549  13.722 -2.4127 -7.6626 -0.3498
   124G12c C028 2058  10.958   1.674  13.615 -0.9250  0.3369 -0.3408
   124G12c C029 2059  10.825   1.639  13.632  2.1947  1.1478 -2.5961
   124G12c H010 2060  10.796   1.540  13.599 -4.1883  3.9926 -6.4093
   124G12c C02T 2061  10.716   1.727  13.661  1.3443 -0.1416  2.6359
   124G12c H01O 2062  10.617   1.689  13.678  2.2356 -3.6400  0.4739
   124G12c C02S 2063  10.728   1.869  13.660 -1.0612 -0.8410  0.9087
   124G12c O00J 2064  10.626   1.953  13.681 -0.8925 -0.2190 -0.0197
   124G12c H01P 2065  10.671   2.035  13.673 -0.5184 -0.2504  1.6165
   124G12c C02R 2066  10.864   1.900  13.668  1.3183  0.1608 -0.8031
   124G12c O00I 2067  10.886   2.027  13.717  0.1417 -0.2602 -0.0243
   124G12c C02Q 2068  10.946   2.082  13.607  1.3946 -0.5702 -0.6522
   124G12c H01N 2069  11.044   2.065  13.564  2.2598  0.7897  0.6982
   124G12c H01R 2070  10.980   2.177  13.649  0.7412 -1.6109  2.3653
   124G12c H01Q 2071  10.879   2.123  13.532  2.9411  6.3590  1.4040
   124G12c C02A 2072  10.970   1.816  13.639  0.0549  0.6872  0.5262
   124G12c H011 2073  11.074   1.843  13.645  1.3098 -4.1697  2.9109
   124G12c C00C 2074  11.061   1.232  13.587  1.1544  0.7999 -1.3792
   124G12c H012 2075  11.029   1.303  13.662  2.8670  0.2635 -0.1292
   124G12c C00B 2076  11.014   1.106  13.597 -1.1731  1.7002  0.2322
   124G12c C00A 2077  10.925   1.046  13.695 -1.9673 -0.7747 -0.3373
   124G12c C009 2078  10.960   1.063  13.826 -0.7899  0.0933  0.9169
   124G12c C008 2079  11.046   1.152  13.901 -0.8069 -0.1136  0.0600
   124G12c H013 2080  11.094   1.226  13.838  0.4486 -4.2529 -4.1187
   124G12c C007 2081  11.063   1.122  14.037 -0.1071 -1.0013 -1.6326
   124G12c H014 2082  11.144   1.176  14.083  2.6396 -4.4924 -2.1215
   124G12c C006 2083  10.996   1.010  14.095  1.1637  0.1272 -0.4616
   124G12c C005 2084  10.921   0.922  14.011 -0.7477  1.4049 -0.5911
   124G12c C004 2085  10.880   0.790  14.061 -1.0403 -0.6005  2.8510
   124G12c C003 2086  10.864   0.687  13.958 -1.8259 -0.7710 -0.7698
   124G12c C002 2087  10.834   0.557  14.000 -0.1283 -0.8628 -0.2060
   124G12c C001 2088  10.801   0.440  13.927 -0.1511  1.0211  0.5099
   124G12c C00M 2089  10.871   0.391  13.803 -0.2412  1.7585 -0.6247
   124G12c C00L 2090  10.911   0.483  13.711  0.2974 -1.0254 -0.1345
   124G12c C00R 2091  11.032   0.489  13.636  0.0791  1.7968 -0.2013
   124G12c C00Q 2092  11.128   0.382  13.593 -0.5754 -0.9606 -0.3875
   124G12c C00V 2093  11.235   0.422  13.511  0.3814  0.0581 -2.0002
   124G12c C00U 2094  11.238   0.551  13.455  0.9280 -1.1075 -0.0226
   124G12c C00T 2095  11.123   0.638  13.449 -1.5405  2.6910 -0.9174
   124G12c C016 2096  11.136   0.775  13.447  0.4455 -0.5124 -0.0026
   124G12c C015 2097  11.245   0.813  13.373  0.6784  0.4148 -2.5548
   124G12c C010 2098  11.337   0.710  13.328  0.6155  0.9269  1.5259
   124G12c C011 2099  11.437   0.751  13.236  0.3707 -1.0287 -0.4269
   124G12c H005 2100  11.535   0.714  13.213  0.5988 -1.1499  0.7216
   124G12c C012 2101  11.442   0.890  13.199 -0.4039 -0.5959 -0.4201
   124G12c C017 2102  11.559   0.951  13.116  0.2652  0.8208 -1.6034
   124G12c O002 2103  11.553   0.965  12.985  1.9442  0.2967  1.0416
   124G12c H004 2104  11.465   0.967  12.950  0.9935 -3.3627  2.9543
   124G12c C018 2105  11.667   0.998  13.181  0.1752  0.5421 -2.8644
   124G12c O001 2106  11.758   1.078  13.109  0.3763  0.4219  1.7191
   124G12c H003 2107  11.735   1.054  13.020  2.5106 -1.9261  1.7504
   124G12c C019 2108  11.714   0.987  13.336 -0.7758 -0.2453 -0.5840
   124G12c H002 2109  11.807   0.931  13.346 -3.9747 -5.0099  6.7629
   124G12c H001 2110  11.695   1.083  13.385  2.4366 -1.3196  3.0372
   124G12c O000 2111  11.625   0.913  13.424  0.0937 -0.6215 -0.3391
   124G12c C01A 2112  11.646   0.956  13.552  1.0609  0.9979 -0.6666
   124G12c C02K 2113  11.759   0.899  13.615 -0.0341 -0.5431 -0.0739
   124G12c O00G 2114  11.862   0.846  13.538  0.6423 -0.5370  0.9373
   124G12c C02M 2115  11.988   0.857  13.584 -1.6094  0.1496 -0.2118
   124G12c H01G 2116  12.013   0.762  13.631 -3.7272  0.9271  2.6197
   124G12c H01F 2117  12.000   0.901  13.683  1.9648 -4.5477  1.6218
   124G12c H01E 2118  12.074   0.867  13.519 -0.0014 -3.0358  1.3033
   124G12c C02J 2119  11.762   0.927  13.756  1.0603 -0.5011 -0.7341
   124G12c H01H 2120  11.838   0.890  13.823  1.2050  2.5717  0.8719
   124G12c C02I 2121  11.658   0.997  13.833  0.7043 -1.8214 -1.9460
   124G12c C02N 2122  11.650   1.018  13.979 -1.1305  0.4897  1.3311
   124G12c H01M 2123  11.673   1.107  14.036  7.0607  0.3492 -0.9983
   124G12c C02O 2124  11.632   0.910  14.055 -0.2916  1.7234  0.0644
   124G12c H01L 2125  11.608   0.821  13.998 -1.3907  2.4614 -0.6549
   124G12c C02P 2126  11.608   0.905  14.204  0.4889 -0.7974  0.3571
   124G12c H01K 2127  11.510   0.861  14.216  1.3437 -2.8425  0.0090
   124G12c H01J 2128  11.645   0.848  14.289 -5.1792 -7.2430 -1.1218
   124G12c O00H 2129  11.591   1.018  14.292 -0.4407  1.0744 -0.4224
   124G12c H01I 2130  11.587   1.092  14.234  1.0052  1.5689  0.0742
   124G12c C02H 2131  11.559   1.047  13.758 -0.1430  0.5647  0.1188
   124G12c H01C 2132  11.479   1.104  13.802 -1.8039 -3.6482  2.9565
   124G12c C02L 2133  11.537   1.012  13.628 -1.7927  1.3357 -0.1645
   124G12c H01D 2134  11.440   1.034  13.586 -0.8104  1.8541 -2.2129
   124G12c C013 2135  11.341   0.982  13.245  1.2861  0.7880  0.5710
   124G12c H000 2136  11.328   1.078  13.195  2.2555  0.2358 -0.7713
   124G12c C014 2137  11.256   0.952  13.352 -0.4899  0.3598  1.4385
   124G12c C00F 2138  11.188   1.036  13.432 -0.1053  0.5604 -0.4613
   124G12c C00H 2139  11.051   0.869  13.514 -0.4113  0.4250 -0.7445
   124G12c C00I 2140  10.937   0.827  13.585 -0.5617  0.5851 -0.7254
   124G12c C00J 2141  10.920   0.683  13.580  0.1666 -0.0644  0.0686
   124G12c C00Z 2142  11.346   0.587  13.380 -0.6345  1.6364 -0.0875
   124G12c C00Y 2143  11.434   0.496  13.347 -1.2899 -1.7671  1.4919
   124G12c H006 2144  11.520   0.504  13.283 -0.9478  4.0928  2.4431
   124G12c C00X 2145  11.421   0.370  13.400  0.8411 -1.0674  0.9909
   124G12c O003 2146  11.523   0.267  13.367  0.2676 -1.5692  1.0690
   124G12c C01B 2147  11.636   0.291  13.455  0.6296  0.8642 -1.1943
   124G12c H009 2148  11.626   0.220  13.537  0.1443 -2.7404 -4.2941
   124G12c H008 2149  11.632   0.386  13.510 -4.4344 -0.0045  0.2043
   124G12c H007 2150  11.718   0.281  13.383  3.9002 -2.1832  2.7213
   124G12c C00W 2151  11.318   0.314  13.471  0.4165 -0.7380 -0.1965
   124G12c O004 2152  11.315   0.176  13.508 -0.6844  2.1509 -1.1772
   124G12c C01C 2153  11.203   0.149  13.586  1.8279 -1.1767  0.5695
   124G12c H00A 2154  11.190   0.055  13.639 -0.9444  2.0911  6.1157
   124G12c C00P 2155  11.123   0.253  13.656 -0.2291  0.7050  1.3659
   124G12c C00O 2156  11.069   0.227  13.785  0.6830 -0.3841  0.1037
   124G12c C01D 2157  11.105   0.106  13.867 -0.3662  1.0150 -0.2800
   124G12c H00S 2158  11.180   0.033  13.840 -2.9072 -1.5425 -0.5875
   124G12c C01E 2159  11.102   0.093  14.009  1.0088 -0.5391  0.8614
   124G12c O008 2160  11.194   0.023  14.088  0.5883 -0.9159 -0.9624
   124G12c C01V 2161  11.283  -0.062  14.027 -1.7594 -0.6637  2.4163
   124G12c C01Z 2162  11.235  -0.212  14.020 -0.7247  1.0047 -0.9094
   124G12c H00R 2163  11.294  -0.287  13.968  1.4163  1.0975  1.2661
   124G12c H00Q 2164  11.202  -0.268  14.107 -4.7607 -1.3416 -3.7933
   124G12c O009 2165  11.132  -0.198  13.928 -1.2869  0.3841 -0.4571
   124G12c H00P 2166  11.079  -0.273  13.946 -2.8745  2.8273  6.3382
   124G12c C01W 2167  11.404  -0.028  13.990 -0.8333 -0.3093 -0.3517
   124G12c H00O 2168  11.463  -0.100  13.936  1.5931  0.8323  0.7260
   124G12c C01X 2169  11.480   0.092  13.954  1.7293  0.4616  0.3007
   124G12c H00N 2170  11.530   0.077  13.859  0.4312 -3.4401  0.1589
   124G12c H00M 2171  11.420   0.183  13.962  4.7876  2.3499  2.7367
   124G12c C01Y 2172  11.582   0.124  14.062  1.3409 -0.5088  0.6362
   124G12c C02D 2173  11.687   0.027  14.102 -1.1335 -0.9297  1.0966
   124G12c H019 2174  11.686  -0.071  14.055  1.6280  1.6101 -4.7567
   124G12c C02C 2175  11.774   0.053  14.194  0.1025  1.9170 -1.2254
   124G12c H01A 2176  11.817  -0.044  14.214  0.6043  1.8877 -2.3895
   124G12c C02B 2177  11.797   0.195  14.211  0.7382  1.6158  0.3311
   124G12c O00E 2178  11.897   0.241  14.304 -0.6205  1.5884  1.0141
   124G12c H01B 2179  11.899   0.336  14.303 -5.3854  1.8409 -2.0996
   124G12c C02F 2180  11.695   0.287  14.183  1.1510 -0.8159  1.1828
   124G12c O00F 2181  11.743   0.411  14.187 -0.8607  0.5358  0.0332
   124G12c C02G 2182  11.640   0.488  14.260  0.1283  1.3278 -0.3432
   124G12c H017 2183  11.538   0.468  14.228  1.2319 -4.5209 -0.7187
   124G12c H016 2184  11.659   0.593  14.241  1.5909  1.2832  0.7879
   124G12c H015 2185  11.628   0.482  14.368 -4.1707 -1.3781 -0.8458
   124G12c C02E 2186  11.571   0.251  14.123  0.3735  0.0988  0.3465
   124G12c H018 2187  11.482   0.308  14.101 -5.8468 -6.5216  5.9605
   124G12c C01F 2188  11.006   0.179  14.068  0.8342  0.4610 -0.6340
   124G12c C01G 2189  11.010   0.193  14.214 -1.1817 -1.7204  0.5010
   124G12c H00L 2190  11.088   0.142  14.267  2.4223 -2.4290 -5.0537
   124G12c C01H 2191  10.926   0.302  14.250  0.7699 -2.0521  0.6122
   124G12c H00B 2192  10.914   0.337  14.351 -0.7073  1.6946 -0.7716
   124G12c C01I 2193  10.854   0.397  14.161  0.8726  1.5058  0.1387
   124G12c C01U 2194  10.937   0.268  13.986  1.0212 -0.5456 -1.9595
   124G12c C00S 2195  11.030   0.599  13.540  0.2428 -0.8578 -0.8702
   124G12c C00K 2196  10.870   0.626  13.711  0.5281 -0.1301  0.7293
   124G12c C00N 2197  10.956   0.283  13.850 -2.5369 -0.4054 -0.6037
   124G12c C000 2198  10.832   0.346  14.027  1.1466  0.0340 -0.8020
   124G12c C01J 2199  10.834   0.534  14.140 -0.0060  0.3605  1.5348
   124G12c C01K 2200  10.859   0.630  14.243  1.3051 -0.1120 -1.4797
   124G12c C01P 2201  10.868   0.618  14.395  0.4860 -1.5695  1.6626
   124G12c C01Q 2202  10.790   0.501  14.460 -0.1539 -0.3178  0.0845
   124G12c H00G 2203  10.692   0.470  14.426 -1.2823  0.7146  2.2622
   124G12c C01R 2204  10.836   0.433  14.573 -1.0592 -0.7696 -0.8997
   124G12c H00F 2205  10.933   0.459  14.611 -2.2110  0.5722  1.2300
   124G12c C01S 2206  10.757   0.339  14.644  0.5484 -1.9561  0.1417
   124G12c H00E 2207  10.839   0.304  14.707 -1.9409 -2.0749  3.4861
   124G12c H00D 2208  10.685   0.397  14.703 -1.4889  2.7045 -6.3924
   124G12c O005 2209  10.692   0.208  14.605  0.0022 -0.3880  1.0453
   124G12c H00C 2210  10.743   0.175  14.533 -4.6166 -1.2194 -2.1069
   124G12c C01O 2211  10.984   0.688  14.459  0.0316  0.2610  0.1831
   124G12c H00H 2212  11.030   0.662  14.553 -0.4356 -0.0384  0.3314
   124G12c C01N 2213  11.028   0.797  14.386  1.5442 -1.4313  0.5656
   124G12c O006 2214  11.134   0.878  14.422 -0.4105  0.2895  0.6156
   124G12c C01T 2215  11.242   0.806  14.496 -0.5276  0.2139  0.1416
   124G12c H00K 2216  11.246   0.700  14.472 -0.9928  0.2350 -0.0378
   124G12c H00J 2217  11.218   0.824  14.601  2.4910 -0.9500  1.0671
   124G12c H00I 2218  11.343   0.843  14.483 -0.8066  1.9583  2.5544
   124G12c C01M 2219  10.962   0.837  14.264 -0.0095  0.2570 -0.5293
   124G12c C020 2220  10.848   0.725  13.815 -0.5484 -0.2325  1.4123
   124G12c C021 2221  10.817   0.863  13.795 -0.1660  0.6120  1.1372
   124G12c C01L 2222  10.872   0.752  14.193 -0.3411 -1.0292 -2.8940
   124G12c O007 2223  11.014   0.952  14.215  0.0575 -0.1945 -0.3472
   124G12c C022 2224  10.888   0.957  13.886  0.5103 -1.0100  1.4574
   124G12c C023 2225  10.851   0.920  13.661 -1.0854 -0.2421 -0.2136
   124G12c C00G 2226  11.073   1.002  13.502 -0.2523  0.0258 -1.9629
   124G12c C00E 2227  11.220   1.180  13.419 -1.2552 -1.0712  0.6629
   124G12c O00A 2228  11.323   1.236  13.352  1.2115 -0.1823  0.8390
   124G12c C024 2229  11.444   1.238  13.425 -0.9262 -0.9598  0.3374
   124G12c H00V 2230  11.459   1.301  13.512 -4.4948  0.5490 -0.0651
   124G12c H00U 2231  11.480   1.136  13.439 -0.2990 -0.2838  4.2087
   124G12c H00T 2232  11.517   1.268  13.350 -0.3781 -2.4289  0.2717
   134G12c C00D 2233  11.715   1.729   5.927 -0.7491 -0.3288  2.3620
   134G12c O00B 2234  11.845   1.749   5.893  0.7810  0.5773  0.5699
   134G12c C025 2235  11.890   1.866   5.837 -0.1134 -0.5380  2.2981
   134G12c C026 2236  11.862   1.883   5.671 -1.5651  1.7939  0.2790
   134G12c H00Y 2237  11.857   1.774   5.682  0.5326  1.8745  2.7528
   134G12c H00X 2238  11.958   1.909   5.627 -0.9975 -3.6684 -2.1597
   134G12c O00C 2239  11.726   1.937   5.656 -1.1329  0.3429 -0.8325
   134G12c H00W 2240  11.691   1.905   5.737 -0.4064 -0.4490 -0.8219
   134G12c C027 2241  11.991   1.934   5.898  1.3975  1.0844 -0.0029
   134G12c O00D 2242  12.087   1.864   5.981 -0.2539  0.3022 -0.3697
   134G12c H00Z 2243  12.164   1.918   5.972  2.4751 -3.0661  1.5067
   134G12c C028 2244  12.016   2.073   5.856 -0.4695 -0.7602  0.4354
   134G12c C029 2245  12.122   2.137   5.931 -0.6720 -0.2066  3.1541
   134G12c H010 2246  12.184   2.072   5.991 -0.5784 -0.6837  2.5449
   134G12c C02T 2247  12.187   2.274   5.891  1.3942  1.4468  1.7269
   134G12c H01O 2248  12.284   2.313   5.918  4.6677 -0.8548 -5.5304
   134G12c C02S 2249  12.124   2.346   5.797 -1.2841 -0.0919  1.2461
   134G12c O00J 2250  12.177   2.466   5.765 -0.0707 -0.5613  0.1255
   134G12c H01P 2251  12.130   2.528   5.712  3.6480  0.4993 -2.1532
   134G12c C02R 2252  12.018   2.284   5.730  0.0082 -0.8126  0.6498
   134G12c O00I 2253  11.939   2.378   5.675 -0.3916 -1.0310 -1.5729
   134G12c C02Q 2254  11.806   2.404   5.720  2.4822  0.4002 -0.7083
   134G12c H01N 2255  11.785   2.452   5.816  0.6362  4.3047 -2.9225
   134G12c H01R 2256  11.750   2.319   5.757  0.5977  1.4829 -0.9675
   134G12c H01Q 2257  11.727   2.425   5.647  1.3635 -2.6321 -0.4188
   134G12c C02A 2258  11.968   2.152   5.758  0.3892 -0.7079  0.3064
   134G12c H011 2259  11.880   2.137   5.697  1.9274  0.9295 -2.3599
   134G12c C00C 2260  11.681   1.609   5.984 -0.4712  0.1542  0.1802
   134G12c H012 2261  11.757   1.536   6.009 -4.5497 -3.3949  2.9021
   134G12c C00B 2262  11.549   1.571   6.006  1.5510  1.3467 -0.3717
   134G12c C00A 2263  11.501   1.450   6.053 -0.6336 -0.9092 -0.4496
   134G12c C009 2264  11.557   1.321   6.062 -0.7369  0.4746 -0.4239
   134G12c C008 2265  11.658   1.253   5.976 -0.6404 -0.7975  0.4781
   134G12c H013 2266  11.718   1.318   5.913 -1.3202 -3.2106 -2.8146
   134G12c C007 2267  11.632   1.116   5.915 -0.6538 -1.7566  0.2639
   134G12c H014 2268  11.712   1.094   5.846 -1.9550  5.5767 -4.1751
   134G12c C006 2269  11.535   1.035   5.965 -0.9660 -0.9913 -0.0460
   134G12c C005 2270  11.452   1.104   6.049 -0.6071  1.2989  1.5155
   134G12c C004 2271  11.327   1.036   6.081 -0.0447  0.0109 -0.8334
   134G12c C003 2272  11.210   1.123   6.102 -1.5115 -0.0784 -0.4071
   134G12c C002 2273  11.076   1.071   6.080  0.5903  1.0327  0.0248
   134G12c C001 2274  10.946   1.107   6.111 -0.6912  0.4085 -0.0136
   134G12c C00M 2275  10.913   1.223   6.045 -0.6989 -0.1646 -0.8884
   134G12c C00L 2276  10.988   1.350   6.035  0.3936  1.2237  0.1467
   134G12c C00R 2277  10.939   1.459   5.969 -2.3029  0.6161 -2.2300
   134G12c C00Q 2278  10.834   1.506   5.883  0.6826 -1.5472  0.5059
   134G12c C00V 2279  10.870   1.627   5.808  0.5919 -0.3226 -0.6935
   134G12c C00U 2280  10.988   1.689   5.827 -0.1068  0.5567 -1.8003
   134G12c C00T 2281  11.069   1.656   5.922 -0.1811 -0.5984 -1.2892
   134G12c C016 2282  11.203   1.699   5.934 -1.7343  0.9088  0.5786
   134G12c C015 2283  11.227   1.809   5.857 -2.6003  0.0750  1.3264
   134G12c C010 2284  11.145   1.845   5.750  0.4622 -1.2465  0.4747
   134G12c C011 2285  11.193   1.933   5.650 -1.0239 -0.3364  0.6451
   134G12c H005 2286  11.127   1.950   5.566 -0.2001 -3.3843 -0.6995
   134G12c C012 2287  11.317   1.981   5.643 -0.6880  0.7440 -0.6814
   134G12c C017 2288  11.345   2.090   5.549 -2.1160 -0.6630 -1.5824
   134G12c O002 2289  11.265   2.094   5.434 -0.6087  0.3343  0.8906
   134G12c H004 2290  11.312   2.155   5.378  1.3882  2.6275  4.8732
   134G12c C018 2291  11.427   2.190   5.596  0.0728  1.8314  0.9622
   134G12c O001 2292  11.491   2.180   5.728 -1.8911 -1.3918  0.9868
   134G12c H003 2293  11.490   2.085   5.729  0.8320 -1.4512  0.9028
   134G12c C019 2294  11.449   2.329   5.517 -0.4308  0.7698  0.2442
   134G12c H002 2295  11.365   2.384   5.475  2.0919  5.7695  1.4133
   134G12c H001 2296  11.512   2.405   5.562 -0.9480 -0.1836  2.6527
   134G12c O000 2297  11.497   2.328   5.391 -0.8492  1.4825 -0.0589
   134G12c C01A 2298  11.590   2.216   5.349  0.1524  1.0782 -2.8351
   134G12c C02K 2299  11.586   2.175   5.211 -1.8885 -0.1770 -0.0590
   134G12c O00G 2300  11.502   2.215   5.113  1.1957 -0.6513 -0.6702
   134G12c C02M 2301  11.399   2.307   5.145 -1.5022  0.1841  0.8730
   134G12c H01G 2302  11.372   2.258   5.239 -1.6691  0.6015  1.0426
   134G12c H01F 2303  11.438   2.397   5.192 -2.9739  0.4637  1.5772
   134G12c H01E 2304  11.349   2.306   5.048 -4.7563 -0.2480  2.4929
   134G12c C02J 2305  11.681   2.084   5.167  1.2659 -0.5988 -0.1725
   134G12c H01H 2306  11.655   2.059   5.066  5.7547 -6.3109 -0.1686
   134G12c C02I 2307  11.771   2.033   5.261 -1.2444  0.9129 -0.8887
   134G12c C02N 2308  11.832   1.909   5.242  1.1847  1.5452 -1.7848
   134G12c H01M 2309  11.889   1.847   5.310  1.7883 -2.6466 -5.8591
   134G12c C02O 2310  11.845   1.850   5.116 -0.1198 -1.0329 -1.3636
   134G12c H01L 2311  11.816   1.888   5.020 -2.0283 -4.2711 -2.1430
   134G12c C02P 2312  11.922   1.719   5.081 -3.0067  0.3006  1.2041
   134G12c H01K 2313  11.978   1.674   5.162  1.5854  1.2211 -1.2691
   134G12c H01J 2314  11.864   1.643   5.030 -2.6940  0.7088  0.2264
   134G12c O00H 2315  11.996   1.744   4.967  0.2424 -0.2601  0.0207
   134G12c H01I 2316  11.969   1.673   4.911 -3.8731  0.7827  0.5031
   134G12c C02H 2317  11.792   2.107   5.375 -1.2164 -0.7557  0.1449
   134G12c H01C 2318  11.859   2.083   5.456  9.1077  2.6555 -6.4037
   134G12c C02L 2319  11.695   2.197   5.422  0.1004 -0.6970 -0.6700
   134G12c H01D 2320  11.736   2.270   5.491  1.7953  1.7009 -4.0301
   134G12c C013 2321  11.411   1.923   5.726  1.4485 -0.0727  1.9564
   134G12c H000 2322  11.514   1.945   5.703  1.9760 -2.3100  2.0918
   134G12c C014 2323  11.359   1.835   5.832 -1.1915 -1.2049 -0.2749
   134G12c C00F 2324  11.472   1.774   5.906  0.5280 -1.1908 -0.0700
   134G12c C00H 2325  11.315   1.630   6.014 -1.1588 -1.5771 -0.0253
   134G12c C00I 2326  11.280   1.528   6.093  0.4355 -0.2492  0.9885
   134G12c C00J 2327  11.143   1.492   6.081 -0.4629 -0.1160 -0.0643
   134G12c C00Z 2328  11.010   1.805   5.745 -2.1789  1.5130 -1.3428
   134G12c C00Y 2329  10.922   1.831   5.641  0.3772 -1.0919  0.6190
   134G12c H006 2330  10.974   1.845   5.547 -1.4433 -0.7520 -0.3673
   134G12c C00X 2331  10.800   1.767   5.625  1.0679  1.4152  1.1320
   134G12c O003 2332  10.702   1.782   5.532  0.4109  0.2866  1.3483
   134G12c C01B 2333  10.619   1.911   5.559  0.8372 -0.1239 -0.7805
   134G12c H009 2334  10.610   1.907   5.668  2.2309 -1.2068 -0.6828
   134G12c H008 2335  10.519   1.883   5.526  1.0616 -3.1356  0.8999
   134G12c H007 2336  10.650   2.011   5.531  0.5924  0.5084  1.1049
   134G12c C00W 2337  10.761   1.671   5.723 -1.4712  0.9506 -0.9788
   134G12c O004 2338  10.642   1.620   5.705  1.0672 -0.5247 -1.8045
   134G12c C01C 2339  10.635   1.490   5.738 -0.3376 -0.7400  0.0561
   134G12c H00A 2340  10.534   1.456   5.758 -0.9636  2.5690  2.9914
   134G12c C00P 2341  10.729   1.430   5.825 -1.4625  0.4716  0.7445
   134G12c C00O 2342  10.736   1.276   5.839  1.1771  0.4612 -0.9300
   134G12c C01D 2343  10.658   1.199   5.747 -0.7633 -0.4921 -0.1563
   134G12c H00S 2344  10.625   1.265   5.668 -4.0004 -1.8859 -0.0356
   134G12c C01E 2345  10.635   1.058   5.758  0.1636 -1.1980 -1.5690
   134G12c O008 2346  10.568   0.991   5.677 -1.3144 -0.2245  1.2544
   134G12c C01V 2347  10.592   1.016   5.546  0.1621  0.0799 -0.7318
   134G12c C01Z 2348  10.675   0.918   5.493  1.0848 -0.7439  0.1056
   134G12c H00R 2349  10.736   0.977   5.424 -1.9067 -0.6572 -2.5966
   134G12c H00Q 2350  10.749   0.889   5.567  3.1703  2.8626 -0.4268
   134G12c O009 2351  10.600   0.792   5.436  1.6520 -0.1194  0.0210
   134G12c H00P 2352  10.538   0.753   5.496  0.3476  1.5758 -0.2135
   134G12c C01W 2353  10.554   1.125   5.476 -0.3386  1.7866  1.0875
   134G12c H00O 2354  10.495   1.208   5.513  0.2037  2.9950 -0.7073
   134G12c C01X 2355  10.608   1.174   5.337  0.3105 -0.0376 -1.0284
   134G12c H00N 2356  10.658   1.270   5.338  1.6433 -0.7021 -2.2727
   134G12c H00M 2357  10.681   1.113   5.283 -0.8349 -2.4200  0.0376
   134G12c C01Y 2358  10.503   1.148   5.237 -0.0160  0.7489 -0.5031
   134G12c C02D 2359  10.449   1.019   5.194  1.9824 -0.9857  0.1382
   134G12c H019 2360  10.503   0.937   5.237 -0.4631 -1.8676  1.6148
   134G12c C02C 2361  10.330   1.025   5.115  1.4364 -0.5486  0.4872
   134G12c H01A 2362  10.301   0.921   5.116 -2.6663  0.5005  1.9812
   134G12c C02B 2363  10.279   1.148   5.064  1.1991 -0.6542 -0.0406
   134G12c O00E 2364  10.162   1.156   4.998 -1.1644 -0.1900  1.1079
   134G12c H01B 2365  10.147   1.245   4.971 -2.2815 -0.4448  0.8772
   134G12c C02F 2366  10.330   1.274   5.116  0.2334  0.6421  1.1118
   134G12c O00F 2367  10.300   1.390   5.049  0.0653 -0.1009 -0.4405
   134G12c C02G 2368  10.371   1.392   4.921 -1.4006 -0.3927  0.0341
   134G12c H017 2369  10.382   1.495   4.888  5.0278 -0.3994  1.4138
   134G12c H016 2370  10.456   1.326   4.905  0.1747  1.5488  0.1623
   134G12c H015 2371  10.298   1.347   4.854 -5.0867 -4.7563  6.4312
   134G12c C02E 2372  10.422   1.270   5.218  0.4245 -0.3184 -1.3527
   134G12c H018 2373  10.490   1.341   5.174  0.5904  0.7554  0.5928
   134G12c C01F 2374  10.688   0.996   5.869 -2.2782 -0.3554 -0.3816
   134G12c C01G 2375  10.728   0.851   5.863  0.6474 -0.3925  0.0060
   134G12c H00L 2376  10.666   0.782   5.807 -3.4373  3.0097  0.1013
   134G12c C01H 2377  10.857   0.808   5.914  0.3064  0.9195  3.2114
   134G12c H00B 2378  10.907   0.739   5.849 -4.1286 -1.6091  2.2694
   134G12c C01I 2379  10.921   0.897   6.004  0.2588  1.2515  0.5577
   134G12c C01U 2380  10.766   1.071   5.968 -0.0570 -0.0230  0.1405
   134G12c C00S 2381  11.044   1.534   5.989  0.5473  0.2478 -1.0131
   134G12c C00K 2382  11.107   1.363   6.112  0.8074  1.7671  0.6218
   134G12c C00N 2383  10.803   1.204   5.949 -1.3579 -0.3009  0.2425
   134G12c C000 2384  10.850   1.005   6.058 -1.1745 -0.4114  0.3544
   134G12c C01J 2385  11.059   0.940   6.031  1.1100 -1.2547  0.2255
   134G12c C01K 2386  11.172   0.856   6.035 -0.4245 -0.1206  2.1552
   134G12c C01P 2387  11.170   0.712   6.037 -0.2523  0.2018  1.2389
   134G12c C01Q 2388  11.055   0.624   6.011  0.3548 -1.1882 -0.2624
   134G12c H00G 2389  11.055   0.578   5.913 -0.2817  2.6596 -2.1738
   134G12c C01R 2390  10.968   0.603   6.121  0.1748  0.0346  0.3742
   134G12c H00F 2391  10.997   0.658   6.209  1.1178  0.2426 -0.0545
   134G12c C01S 2392  10.865   0.476   6.117 -0.2059  2.0317 -0.6228
   134G12c H00E 2393  10.848   0.437   6.017  2.0555  5.1155 -2.3238
   134G12c H00D 2394  10.921   0.407   6.180 -2.2501  0.8177 -0.0675
   134G12c O005 2395  10.733   0.494   6.157  0.1889 -0.0994  0.0611
   134G12c H00C 2396  10.716   0.569   6.211  3.6919  2.0854 -1.6128
   134G12c C01O 2397  11.281   0.631   5.997  1.0210  0.9535  1.0812
   134G12c H00H 2398  11.272   0.537   5.945  1.6973  0.8046  1.2183
   134G12c C01N 2399  11.410   0.681   6.010  1.1288  0.5289 -0.7142
   134G12c O006 2400  11.533   0.630   5.984  0.0910 -0.2973 -0.3370
   134G12c C01T 2401  11.535   0.492   5.979 -0.0717 -0.4821  0.8793
   134G12c H00K 2402  11.485   0.420   5.913  2.2781  8.2947-12.4436
   134G12c H00J 2403  11.557   0.447   6.076 -1.4259 -1.3954  0.7682
   134G12c H00I 2404  11.635   0.475   5.938 -0.9054 -2.7675 -0.3276
   134G12c C01M 2405  11.410   0.826   6.002  0.6989 -0.8978  0.2811
   134G12c C020 2406  11.225   1.275   6.125 -0.7688 -0.9049 -0.8592
   134G12c C021 2407  11.360   1.312   6.154  2.3133  0.0648  0.5585
   134G12c C01L 2408  11.296   0.914   6.034 -1.3313  0.0308  1.4168
   134G12c O007 2409  11.523   0.897   5.967 -0.3435  0.2582 -0.8762
   134G12c C022 2410  11.464   1.229   6.104  0.4140  0.1158  0.5457
   134G12c C023 2411  11.394   1.450   6.146 -0.1051  0.0056 -0.0646
   134G12c C00G 2412  11.449   1.657   5.986 -0.3665  0.7835  0.1028
   134G12c C00E 2413  11.603   1.811   5.904  1.4999 -0.8378  0.5364
   134G12c O00A 2414  11.634   1.936   5.883 -1.3798  0.0915  0.2104
   134G12c C024 2415  11.662   2.003   6.004  0.0003  0.5518  1.4949
   134G12c H00V 2416  11.769   2.006   6.025  0.4114  5.3196 -0.7980
   134G12c H00U 2417  11.621   2.103   6.004  1.3554  1.1267  0.7704
   134G12c H00T 2418  11.629   1.953   6.096 -1.2583  2.7631  2.2753
   144G12c C00D 2419   0.336  10.142  12.901  0.5971 -0.6639 -0.7661
   144G12c O00B 2420   0.366  10.200  13.035  0.2100 -0.0100 -0.4854
   144G12c C025 2421   0.331  10.327  13.086 -1.5907  0.7067  0.1423
   144G12c C026 2422   0.219  10.330  13.183  0.8136  0.4155  1.8723
   144G12c H00Y 2423   0.245  10.265  13.266 -0.4080 -2.5237  0.0317
   144G12c H00X 2424   0.200  10.437  13.193  3.6490  1.2600 -0.8816
   144G12c O00C 2425   0.121  10.337  13.091  1.0379 -1.1777  0.7825
   144G12c H00W 2426   0.052  10.283  13.124 -2.1515  0.3396 -3.0326
   144G12c C027 2427   0.410  10.425  13.032  1.4079 -0.3058  0.3287
   144G12c O00D 2428   0.531  10.429  12.950  0.5983  0.4970 -1.2568
   144G12c H00Z 2429   0.534  10.519  12.979  1.5961  1.3861 -3.9376
   144G12c C028 2430   0.386  10.557  13.083 -1.1350  0.0694  1.8069
   144G12c C029 2431   0.424  10.582  13.230 -1.5500  1.1441 -0.3543
   144G12c H010 2432   0.511  10.519  13.241 -0.7391  1.5316 -3.9797
   144G12c C02T 2433   0.421  10.720  13.256  0.5548 -0.0202  0.2683
   144G12c H01O 2434   0.460  10.741  13.354 -0.5612  8.7960 -0.7491
   144G12c C02S 2435   0.370  10.827  13.184  0.1105  1.0746 -2.1251
   144G12c O00J 2436   0.361  10.950  13.242 -1.7813 -0.3907  0.3962
   144G12c H01P 2437   0.429  10.933  13.305 -3.8200 -2.9956  1.9817
   144G12c C02R 2438   0.327  10.804  13.054 -0.7638 -0.4624 -2.3448
   144G12c O00I 2439   0.303  10.906  12.972 -1.0439  0.1994  0.0769
   144G12c C02Q 2440   0.175  10.883  12.900  2.0563 -2.2796  0.1844
   144G12c H01N 2441   0.104  10.804  12.926 -1.5110  0.8391  0.2306
   144G12c H01R 2442   0.185  10.827  12.807  0.6059  0.9602 -2.0254
   144G12c H01Q 2443   0.124  10.978  12.885  4.8267 -0.3841  2.1339
   144G12c C02A 2444   0.366  10.676  13.003  0.6039  0.9999 -0.1027
   144G12c H011 2445   0.384  10.680  12.897  0.7184  2.5997 -0.0269
   144G12c C00C 2446   0.210  10.151  12.849  0.2498 -0.1648 -0.2110
   144G12c H012 2447   0.147  10.233  12.883  4.4720 -0.2868  9.5594
   144G12c C00B 2448   0.162  10.056  12.747  1.1395 -0.2446  2.0303
   144G12c C00A 2449   0.022  10.089  12.682  0.5110  0.2958 -0.9855
   144G12c C009 2450  -0.116  10.093  12.747  0.7501  2.0676  0.3565
   144G12c C008 2451  -0.144  10.123  12.882 -0.3736 -2.3176 -0.0893
   144G12c H013 2452  -0.078  10.183  12.942 -2.5441  5.1385 -4.4539
   144G12c C007 2453  -0.268  10.070  12.925 -2.3104 -0.5118 -0.8920
   144G12c H014 2454  -0.292  10.099  13.027  3.8563 -2.1041  1.2563
   144G12c C006 2455  -0.337   9.968  12.840 -2.4540 -0.3853 -0.7059
   144G12c C005 2456  -0.296   9.951  12.709  0.0662  0.4368  0.0943
   144G12c C004 2457  -0.349   9.843  12.633 -0.7926  0.5552  0.7081
   144G12c C003 2458  -0.287   9.817  12.515 -2.2376 -0.0648 -0.2902
   144G12c C002 2459  -0.347   9.700  12.451 -0.3871  0.4368  1.3643
   144G12c C001 2460  -0.314   9.644  12.324  0.0266 -0.7534 -0.0543
   144G12c C00M 2461  -0.183   9.588  12.316 -0.4815  0.4236  0.6085
   144G12c C00L 2462  -0.069   9.686  12.303 -0.5743  0.0248  1.8778
   144G12c C00R 2463   0.064   9.624  12.308 -0.1575 -1.0774 -1.0564
   144G12c C00Q 2464   0.116   9.481  12.300 -0.7632  1.1035  0.8718
   144G12c C00V 2465   0.243   9.460  12.352  0.1362 -0.2596 -1.2285
   144G12c C00U 2466   0.303   9.571  12.428  0.8052 -0.9668  0.3378
   144G12c C00T 2467   0.242   9.696  12.453 -0.2822  0.5456  1.1277
   144G12c C016 2468   0.298   9.795  12.529 -0.4757  0.3212 -1.4783
   144G12c C015 2469   0.418   9.772  12.595  0.8539  0.6851 -0.3926
   144G12c C010 2470   0.490   9.654  12.568  0.0328  0.5050  0.1284
   144G12c C011 2471   0.629   9.637  12.623  1.4995 -2.2799 -0.3671
   144G12c H005 2472   0.683   9.544  12.615  0.9309 -2.8880  2.5283
   144G12c C012 2473   0.683   9.748  12.700  1.2996 -0.0122 -1.8285
   144G12c C017 2474   0.827   9.732  12.729  0.3849  0.0623  0.8308
   144G12c O002 2475   0.902   9.760  12.613  0.2115  0.6889 -0.6783
   144G12c H004 2476   0.885   9.852  12.600  6.1135  2.7326  4.0763
   144G12c C018 2477   0.898   9.658  12.814  0.9302  0.2294 -0.9165
   144G12c O001 2478   0.872   9.608  12.931  1.1080  1.0989 -1.2154
   144G12c H003 2479   0.963   9.592  12.951 -0.9432 -4.0725  5.7810
   144G12c C019 2480   1.054   9.602  12.795  2.5179 -0.8658 -0.2514
   144G12c H002 2481   1.073   9.561  12.696  4.7997  0.1384 -0.2679
   144G12c H001 2482   1.122   9.687  12.782  2.6962 -1.4464 -3.5468
   144G12c O000 2483   1.091   9.551  12.928  0.6811  0.3835  0.5308
   144G12c C01A 2484   1.209   9.493  12.941 -0.7088  0.5547 -0.1090
   144G12c C02K 2485   1.252   9.526  13.068 -1.6031 -0.7411  0.6206
   144G12c O00G 2486   1.162   9.585  13.143 -0.5721 -0.4954  1.0635
   144G12c C02M 2487   1.182   9.666  13.256 -0.2280  0.9261  0.7097
   144G12c H01G 2488   1.094   9.730  13.260 -0.9418 -0.0115  0.2233
   144G12c H01F 2489   1.248   9.751  13.239  5.4753 -3.8904 -3.3099
   144G12c H01E 2490   1.193   9.618  13.353 -2.6560 -3.0145 -0.8367
   144G12c C02J 2491   1.390   9.494  13.098 -0.1175 -1.2620  1.0660
   144G12c H01H 2492   1.428   9.523  13.195  4.4770  7.3627 -2.7215
   144G12c C02I 2493   1.477   9.444  12.993  0.6070  1.1915  0.8403
   144G12c C02N 2494   1.601   9.403  13.037  0.9116 -0.0578  0.2270
   144G12c H01M 2495   1.604   9.364  13.138  0.2803  4.3729  2.0864
   144G12c C02O 2496   1.715   9.451  12.991  0.1856  1.6709  0.5002
   144G12c H01L 2497   1.720   9.508  12.899 -3.5127 -2.2445 -2.3308
   144G12c C02P 2498   1.833   9.417  13.069 -1.0150 -1.0435 -0.7616
   144G12c H01K 2499   1.830   9.308  13.067 -4.7801 -1.0277  0.5409
   144G12c H01J 2500   1.916   9.413  12.999 -0.6772 -1.7955 -0.3208
   144G12c O00H 2501   1.814   9.487  13.193 -0.5100  1.5541  1.2011
   144G12c H01I 2502   1.790   9.426  13.261 -1.1915  1.0192  0.5005
   144G12c C02H 2503   1.426   9.413  12.857 -0.2273 -0.1895 -0.3863
   144G12c H01C 2504   1.459   9.317  12.820  2.7805  0.6636 -0.0485
   144G12c C02L 2505   1.301   9.446  12.842  1.2978  1.3898 -0.7250
   144G12c H01D 2506   1.280   9.459  12.737  0.0428  4.0088 -0.2053
   144G12c C013 2507   0.605   9.855  12.732 -0.1974  0.0474 -0.0813
   144G12c H000 2508   0.640   9.920  12.810  0.1702 -1.1730  0.8010
   144G12c C014 2509   0.472   9.865  12.681 -1.8335 -1.6049  1.4649
   144G12c C00F 2510   0.387   9.963  12.736 -0.2295  1.1075 -1.5246
   144G12c C00H 2511   0.221   9.901  12.568  1.1084  0.5241  0.8244
   144G12c C00I 2512   0.095   9.909  12.516 -1.4879 -1.1750 -0.2507
   144G12c C00J 2513   0.066   9.834  12.403  1.2715  0.0090  0.0382
   144G12c C00Z 2514   0.443   9.563  12.467  0.2209 -0.4169 -0.0827
   144G12c C00Y 2515   0.508   9.448  12.433  0.8136  2.3477  0.5381
   144G12c H006 2516   0.602   9.438  12.483  3.5584 -5.8350 -5.2556
   144G12c C00X 2517   0.460   9.344  12.340  0.8402  0.1369  0.6893
   144G12c O003 2518   0.529   9.230  12.307 -1.8343  0.9623 -0.8898
   144G12c C01B 2519   0.671   9.243  12.307 -3.5231  0.6147 -0.1026
   144G12c H009 2520   0.720   9.146  12.307 -2.1575  1.2859  1.0888
   144G12c H008 2521   0.696   9.316  12.384  3.4589 -3.0465  1.5052
   144G12c H007 2522   0.726   9.295  12.229  3.9006 -5.2785  0.6498
   144G12c C00W 2523   0.321   9.350  12.310  0.9797 -0.2413 -0.8730
   144G12c O004 2524   0.283   9.271  12.209 -0.1057 -0.6455  0.6469
   144G12c C01C 2525   0.151   9.266  12.190 -0.1643  0.4999  0.5737
   144G12c H00A 2526   0.120   9.172  12.146  6.1733 -0.7417 -1.7040
   144G12c C00P 2527   0.054   9.371  12.224 -0.4068 -0.6304  0.8145
   144G12c C00O 2528  -0.096   9.344  12.230 -1.3822 -0.1620 -1.4246
   144G12c C01D 2529  -0.142   9.217  12.249 -2.0132  1.2215  1.8008
   144G12c H00S 2530  -0.071   9.144  12.213 -3.0003  0.2737  1.7572
   144G12c C01E 2531  -0.266   9.187  12.294 -2.4387 -1.3884  1.5473
   144G12c O008 2532  -0.323   9.065  12.311  2.0940 -1.1940  1.5341
   144G12c C01V 2533  -0.264   8.954  12.272  0.8781  1.5240 -1.6071
   144G12c C01Z 2534  -0.272   8.918  12.125  1.3409  0.8574  0.5833
   144G12c H00R 2535  -0.365   8.883  12.082 -0.3863  3.6369  1.9311
   144G12c H00Q 2536  -0.281   9.017  12.082  0.4682  0.2229 -0.7141
   144G12c O009 2537  -0.139   8.864  12.082 -0.6649 -0.5972  1.4946
   144G12c H00P 2538  -0.114   8.892  11.995 -4.6555 -4.7692 -1.1807
   144G12c C01W 2539  -0.216   8.866  12.374  1.1441 -0.7263  0.2105
   144G12c H00O 2540  -0.207   8.926  12.463 -0.9998 -1.5070  0.9911
   144G12c C01X 2541  -0.166   8.718  12.378 -0.2510  0.3005 -0.7115
   144G12c H00N 2542  -0.144   8.699  12.273 -9.0445  3.9982 -3.7159
   144G12c H00M 2543  -0.070   8.736  12.425 -0.4058  7.2219 -2.4446
   144G12c C01Y 2544  -0.276   8.635  12.443  1.3510  0.3554  0.7619
   144G12c C02D 2545  -0.408   8.636  12.377 -1.9455  1.0024 -1.1610
   144G12c H019 2546  -0.435   8.726  12.323 -3.0742  2.3169  1.4605
   144G12c C02C 2547  -0.494   8.522  12.408  0.4510 -0.0301  0.1599
   144G12c H01A 2548  -0.583   8.551  12.356 -1.9620  0.6288  4.4271
   144G12c C02B 2549  -0.473   8.437  12.526  0.2631  1.2627  1.5147
   144G12c O00E 2550  -0.556   8.336  12.541  1.6045 -0.0102 -1.5061
   144G12c H01B 2551  -0.514   8.275  12.600  1.7388  2.6171  1.2329
   144G12c C02F 2552  -0.354   8.430  12.593  0.9645 -0.0419 -0.2462
   144G12c O00F 2553  -0.344   8.368  12.722  0.2621  0.8063  0.0304
   144G12c C02G 2554  -0.445   8.431  12.816 -0.2931 -0.2554  0.6609
   144G12c H017 2555  -0.548   8.406  12.842 -1.1100  0.3648 -1.8562
   144G12c H016 2556  -0.438   8.539  12.803  2.8523 -0.8371 -3.3143
   144G12c H015 2557  -0.398   8.414  12.913  1.3138  2.9458  0.5199
   144G12c C02E 2558  -0.261   8.533  12.548  0.1168  0.3594 -0.0419
   144G12c H018 2559  -0.169   8.541  12.604  1.4450 -2.4359 -1.7239
   144G12c C01F 2560  -0.363   9.292  12.306  1.3699 -0.6213 -1.1545
   144G12c C01G 2561  -0.491   9.284  12.377 -1.4003  1.1400 -1.6621
   144G12c H00L 2562  -0.540   9.196  12.415  1.3155 -0.9320 -2.7969
   144G12c C01H 2563  -0.535   9.397  12.461  1.2439  0.2633  0.2122
   144G12c H00B 2564  -0.624   9.381  12.520  3.9070 -1.4974  3.9467
   144G12c C01I 2565  -0.478   9.527  12.424  0.3549  2.1802  0.6112
   144G12c C01U 2566  -0.338   9.418  12.277  1.7099  1.5077 -1.4027
   144G12c C00S 2567   0.131   9.720  12.377  1.3148 -0.1539  1.3716
   144G12c C00K 2568  -0.062   9.802  12.383  0.1310 -0.2738 -1.6718
   144G12c C00N 2569  -0.194   9.438  12.281  1.0272  0.7290 -1.0035
   144G12c C000 2570  -0.407   9.540  12.295  0.1627  0.8783 -0.2655
   144G12c C01J 2571  -0.460   9.635  12.514  1.3043 -0.0723  1.9346
   144G12c C01K 2572  -0.539   9.666  12.627 -1.5274 -0.2903 -0.2422
   144G12c C01P 2573  -0.664   9.611  12.679 -0.5655 -1.0380 -1.0539
   144G12c C01Q 2574  -0.765   9.585  12.589  0.6145  0.1952 -0.5771
   144G12c H00G 2575  -0.739   9.518  12.508  2.0216 -3.0316  2.4269
   144G12c C01R 2576  -0.876   9.664  12.579 -0.4436  0.2881  0.6351
   144G12c H00F 2577  -0.915   9.747  12.636 -8.7401 -1.4313 -1.8497
   144G12c C01S 2578  -0.973   9.633  12.478  0.6067  0.7797  0.0434
   144G12c H00E 2579  -0.932   9.595  12.385  4.0519 -2.8223  2.8917
   144G12c H00D 2580  -1.032   9.549  12.514  5.6020 -2.0826  1.9268
   144G12c O005 2581  -1.052   9.749  12.443 -0.8872  0.6653  0.4927
   144G12c H00C 2582  -1.007   9.831  12.436 -4.0091  2.1618 -4.9199
   144G12c C01O 2583  -0.695   9.658  12.801 -0.8629  0.2834 -1.4114
   144G12c H00H 2584  -0.780   9.599  12.832  3.6603 -5.8767  0.2538
   144G12c C01N 2585  -0.608   9.748  12.874  0.2901 -0.6985  1.0455
   144G12c O006 2586  -0.660   9.784  12.991  1.2995  0.8494  0.3097
   144G12c C01T 2587  -0.735   9.893  12.966 -1.2182 -2.0064 -1.0742
   144G12c H00K 2588  -0.814   9.898  12.891 -0.2884  7.6170 -2.0012
   144G12c H00J 2589  -0.711   9.997  12.946 -1.5590 -2.1072 -2.0175
   144G12c H00I 2590  -0.769   9.861  13.065  3.6802  0.9728  1.7592
   144G12c C01M 2591  -0.500   9.817  12.813  0.8733 -0.1566 -1.0052
   144G12c C020 2592  -0.162   9.875  12.462  0.6214  0.6172  0.6668
   144G12c C021 2593  -0.139  10.005  12.539 -2.7038  0.7344  1.6003
   144G12c C01L 2594  -0.461   9.772  12.685 -0.3695 -0.1242 -0.8543
   144G12c O007 2595  -0.448   9.929  12.885 -0.2636  1.3393  0.8478
   144G12c C022 2596  -0.204  10.036  12.656  1.5385  0.2971  0.0167
   144G12c C023 2597   0.009  10.013  12.558 -0.5287  0.3394 -1.2706
   144G12c C00G 2598   0.262   9.988  12.673  2.9264 -0.2713  0.3691
   144G12c C00E 2599   0.421  10.033  12.857 -2.3351 -0.0735  1.1365
   144G12c O00A 2600   0.526  10.030  12.955  1.6616  0.6713  0.3182
   144G12c C024 2601   0.504   9.917  13.044  1.6587 -0.5832 -1.7301
   144G12c H00V 2602   0.587   9.847  13.034  6.3327  4.7309 -2.5867
   144G12c H00U 2603   0.406   9.876  13.069  2.4166 -1.0932  0.5651
   144G12c H00T 2604   0.540   9.971  13.132 -7.4822 -6.6479  6.7098
   154G12c C00D 2605   0.108   3.655   6.369  2.3573  0.2000  1.0985
   154G12c O00B 2606   0.000   3.622   6.449 -0.5344 -0.6091  1.3867
   154G12c C025 2607  -0.127   3.591   6.396  0.8140 -0.2487 -0.0446
   154G12c C026 2608  -0.243   3.697   6.425  0.5438 -0.8470 -0.1748
   154G12c H00Y 2609  -0.305   3.717   6.338 -1.3032 -0.5892  1.1821
   154G12c H00X 2610  -0.218   3.800   6.450  2.3499 -1.0525 -1.0038
   154G12c O00C 2611  -0.337   3.647   6.483  0.2200  0.4101 -0.5185
   154G12c H00W 2612  -0.376   3.691   6.557 -4.4632  1.6332 -3.5094
   154G12c C027 2613  -0.150   3.468   6.325  0.3084 -0.8106  1.8277
   154G12c O00D 2614  -0.051   3.368   6.318 -0.1807  0.6960 -1.0201
   154G12c H00Z 2615   0.034   3.404   6.338 -1.6442  5.9394 -3.4890
   154G12c C028 2616  -0.278   3.443   6.254 -0.2175  0.1293  1.5789
   154G12c C029 2617  -0.376   3.347   6.281 -1.8843 -0.2518 -1.4840
   154G12c H010 2618  -0.363   3.273   6.359 -1.6289 -0.8821 -2.1170
   154G12c C02T 2619  -0.502   3.353   6.204  0.4665 -0.9239  0.5069
   154G12c H01O 2620  -0.599   3.307   6.220  0.5352 -4.1335 -6.2759
   154G12c C02S 2621  -0.515   3.433   6.080  2.4889  0.1869 -1.9245
   154G12c O00J 2622  -0.635   3.492   6.046 -0.6809 -0.5750  0.7931
   154G12c H01P 2623  -0.641   3.556   5.976  2.4941  1.7412  2.5211
   154G12c C02R 2624  -0.414   3.524   6.053 -0.4538  0.6348  0.4609
   154G12c O00I 2625  -0.426   3.597   5.931  0.8821  1.7873  1.9400
   154G12c C02Q 2626  -0.313   3.645   5.874 -0.3805  0.5589 -0.2516
   154G12c H01N 2627  -0.273   3.741   5.907 -0.0478 -0.6940  3.1313
   154G12c H01R 2628  -0.350   3.653   5.771  0.1556  7.6197 -0.1415
   154G12c H01Q 2629  -0.228   3.578   5.887 -1.8200 -1.5578 -1.3190
   154G12c C02A 2630  -0.305   3.529   6.151 -1.0796  0.5340  0.1693
   154G12c H011 2631  -0.247   3.620   6.142  4.2410 -2.5008  1.5068
   154G12c C00C 2632   0.100   3.772   6.278 -0.7298 -0.4567  0.4430
   154G12c H012 2633   0.003   3.818   6.269  1.5749  4.5720 -0.5384
   154G12c C00B 2634   0.218   3.826   6.204 -0.8053 -0.7217 -1.0683
   154G12c C00A 2635   0.237   3.960   6.133 -1.0130 -1.4655  1.2102
   154G12c C009 2636   0.116   4.029   6.046 -0.7396 -0.4429  0.1911
   154G12c C008 2637  -0.017   4.032   6.061 -0.3692 -0.1305  1.5763
   154G12c H013 2638  -0.062   3.984   6.146  0.6760 -4.5304 -0.2027
   154G12c C007 2639  -0.075   4.085   5.944 -1.5609 -0.5972  0.0604
   154G12c H014 2640  -0.180   4.099   5.966  0.1483  6.1085  5.8103
   154G12c C006 2641  -0.004   4.158   5.845  0.1420 -0.8487 -1.1826
   154G12c C005 2642   0.136   4.158   5.859  1.3959  0.4960 -0.3583
   154G12c C004 2643   0.220   4.161   5.741  0.9652  0.0302 -1.4547
   154G12c C003 2644   0.348   4.107   5.746 -0.7995  0.7975 -0.3689
   154G12c C002 2645   0.437   4.130   5.637  1.2055  0.0108 -0.2224
   154G12c C001 2646   0.570   4.092   5.582  1.7999  0.3360  0.6354
   154G12c C00M 2647   0.623   3.970   5.621 -1.4009 -1.1409  0.4058
   154G12c C00L 2648   0.626   3.938   5.758  0.8958  0.2659 -0.4946
   154G12c C00R 2649   0.672   3.804   5.798  2.1097 -0.4326  0.8034
   154G12c C00Q 2650   0.727   3.684   5.720 -0.6942 -1.5239 -2.0331
   154G12c C00V 2651   0.741   3.575   5.800 -0.8710 -0.2942 -0.6784
   154G12c C00U 2652   0.687   3.559   5.937 -0.2687 -0.1836  0.3049
   154G12c C00T 2653   0.623   3.665   5.996  1.7006 -1.5754  0.5533
   154G12c C016 2654   0.520   3.651   6.095 -0.7309 -0.8228 -0.5455
   154G12c C015 2655   0.502   3.528   6.142  0.1115 -2.1961  0.6116
   154G12c C010 2656   0.598   3.429   6.117 -1.0587 -0.2676 -0.4107
   154G12c C011 2657   0.590   3.299   6.179 -1.1193 -0.4020 -0.8032
   154G12c H005 2658   0.665   3.222   6.185 -1.9987 -1.1422  1.3065
   154G12c C012 2659   0.475   3.262   6.264  1.2727  0.7547  0.3906
   154G12c C017 2660   0.443   3.127   6.286  0.1722  0.4181 -0.5537
   154G12c O002 2661   0.313   3.087   6.269  1.1243  0.9907 -0.3796
   154G12c H004 2662   0.309   2.992   6.272  0.8203  1.0368  1.1870
   154G12c C018 2663   0.538   3.053   6.348 -1.1150 -0.2677  0.4976
   154G12c O001 2664   0.662   3.095   6.381 -1.4475 -0.3083 -0.5490
   154G12c H003 2665   0.677   3.180   6.419 -0.5379 -3.0978  5.8726
   154G12c C019 2666   0.537   2.907   6.349 -0.2142 -1.9520  0.8019
   154G12c H002 2667   0.633   2.893   6.398 -2.9156  1.0088  7.5767
   154G12c H001 2668   0.443   2.885   6.400 -0.4505 -4.5415 -0.6465
   154G12c O000 2669   0.571   2.836   6.238 -1.8909  0.8235 -0.9663
   154G12c C01A 2670   0.668   2.739   6.253 -1.1609  1.6794 -1.5561
   154G12c C02K 2671   0.622   2.616   6.254  0.4173 -1.2000  0.1641
   154G12c O00G 2672   0.483   2.592   6.222  0.4862 -1.0220 -0.5943
   154G12c C02M 2673   0.458   2.469   6.162 -0.3192  1.1516  0.6714
   154G12c H01G 2674   0.453   2.475   6.054  2.1984 -0.0500  0.4459
   154G12c H01F 2675   0.503   2.380   6.205 -0.7289  0.6894  0.1380
   154G12c H01E 2676   0.352   2.480   6.182  0.2979 -0.1112  5.2983
   154G12c C02J 2677   0.719   2.509   6.292 -0.9735  1.6817 -0.9784
   154G12c H01H 2678   0.659   2.422   6.270  1.6280  0.5151 -3.9217
   154G12c C02I 2679   0.857   2.533   6.292 -1.9716  0.1577  0.3887
   154G12c C02N 2680   0.956   2.442   6.289 -0.2926  0.6929 -1.0466
   154G12c H01M 2681   1.059   2.439   6.257 -1.6831  0.3499 -5.9690
   154G12c C02O 2682   0.921   2.327   6.356  0.1703  0.5516 -1.7655
   154G12c H01L 2683   0.829   2.306   6.408  0.3454  4.7193  0.3956
   154G12c C02P 2684   1.016   2.225   6.382  0.9033 -0.4731  0.0778
   154G12c H01K 2685   1.105   2.238   6.320  3.3588 -6.4424  1.9815
   154G12c H01J 2686   1.063   2.182   6.471  4.4260  7.2551  2.3303
   154G12c O00H 2687   0.951   2.117   6.321 -1.3499  0.3567  0.0651
   154G12c H01I 2688   0.867   2.157   6.303 -2.6074 -2.9807 -1.9746
   154G12c C02H 2689   0.895   2.658   6.249 -0.4014 -0.0667  0.2638
   154G12c H01C 2690   0.999   2.675   6.273 -1.0245 -0.1669  3.3074
   154G12c C02L 2691   0.811   2.773   6.248 -0.4810  0.6988 -0.0495
   154G12c H01D 2692   0.851   2.870   6.224  1.3768 -0.7979 -3.2074
   154G12c C013 2693   0.393   3.364   6.295 -0.8534 -0.8811 -0.2476
   154G12c H000 2694   0.307   3.331   6.352  1.3776  0.1897  3.9282
   154G12c C014 2695   0.414   3.509   6.259  0.1369 -1.6395  1.0172
   154G12c C00F 2696   0.343   3.623   6.301 -0.5397 -0.0343  0.4950
   154G12c C00H 2697   0.438   3.759   6.131  1.0719  0.8944  1.7962
   154G12c C00I 2698   0.458   3.888   6.084  0.7790 -0.5070  0.8922
   154G12c C00J 2699   0.560   3.897   5.962  0.2442 -1.1112  1.9252
   154G12c C00Z 2700   0.681   3.439   6.005  0.5599  0.4503 -1.1082
   154G12c C00Y 2701   0.725   3.316   5.954  0.4621  1.0151  1.8456
   154G12c H006 2702   0.723   3.212   5.983  2.4857 -0.8096 -3.7344
   154G12c C00X 2703   0.795   3.345   5.828  0.2242  3.6038 -1.8382
   154G12c O003 2704   0.863   3.232   5.786  0.5358 -0.6797  1.1245
   154G12c C01B 2705   0.792   3.133   5.708  0.4827  0.0538  1.3404
   154G12c H009 2706   0.709   3.157   5.642  1.3120 -0.1311  0.2217
   154G12c H008 2707   0.754   3.078   5.795 -0.7602 -2.6424 -0.8349
   154G12c H007 2708   0.873   3.091   5.648  2.4626  2.2921  2.3603
   154G12c C00W 2709   0.789   3.466   5.748  0.1732  0.3036  0.4777
   154G12c O004 2710   0.819   3.459   5.611  0.7189  0.3929 -0.0514
   154G12c C01C 2711   0.784   3.561   5.525  0.4580  0.3061 -0.4590
   154G12c H00A 2712   0.822   3.541   5.426  3.2792  1.5049  0.3494
   154G12c C00P 2713   0.734   3.670   5.577  0.5395 -1.1929  0.9973
   154G12c C00O 2714   0.679   3.768   5.472 -0.7032  1.4720  0.5777
   154G12c C01D 2715   0.651   3.732   5.326 -0.4020  1.7648  0.4300
   154G12c H00S 2716   0.677   3.630   5.304-10.3560 -1.1709 -0.2172
   154G12c C01E 2717   0.580   3.807   5.225 -1.8860  0.2370 -1.5554
   154G12c O008 2718   0.546   3.769   5.098  0.2876 -0.3877 -0.0586
   154G12c C01V 2719   0.576   3.635   5.066  0.0993 -1.4411 -1.6216
   154G12c C01Z 2720   0.501   3.514   5.103  0.8084  0.5142  0.0623
   154G12c H00R 2721   0.534   3.423   5.153 -4.1683 -3.7611 -3.8559
   154G12c H00Q 2722   0.445   3.541   5.192  4.8957  0.8885  2.6521
   154G12c O009 2723   0.447   3.506   4.988 -0.0765  0.0543  0.0139
   154G12c H00P 2724   0.440   3.595   4.956  2.2753  0.3095  0.1393
   154G12c C01W 2725   0.688   3.607   5.007  0.3483 -0.6431  2.8813
   154G12c H00O 2726   0.750   3.694   4.992 -3.9348  1.8033 -2.5709
   154G12c C01X 2727   0.760   3.476   4.993  0.4431 -0.5364  0.0950
   154G12c H00N 2728   0.860   3.494   5.031 -0.1064  0.2787  1.1624
   154G12c H00M 2729   0.731   3.382   5.040  4.5742 -1.7515  0.4049
   154G12c C01Y 2730   0.784   3.437   4.841 -2.2249 -0.3389 -0.5604
   154G12c C02D 2731   0.852   3.529   4.759  2.2234  0.3187 -1.8505
   154G12c H019 2732   0.912   3.604   4.807  4.6555  0.3969 -4.8093
   154G12c C02C 2733   0.852   3.528   4.621 -1.2582  0.6551 -1.3486
   154G12c H01A 2734   0.925   3.571   4.554  1.1428 -1.4313 -0.1621
   154G12c C02B 2735   0.779   3.425   4.564  0.1051  0.3320 -1.4204
   154G12c O00E 2736   0.785   3.415   4.432 -0.2711 -0.2932 -2.0139
   154G12c H01B 2737   0.726   3.361   4.381 -1.0993 -6.8394  4.9737
   154G12c C02F 2738   0.701   3.328   4.639 -1.0377  1.2877  0.5498
   154G12c O00F 2739   0.640   3.240   4.548 -0.4150  0.1610 -1.6873
   154G12c C02G 2740   0.670   3.107   4.568 -0.6501  0.2691 -0.9417
   154G12c H017 2741   0.649   3.059   4.472  6.2239 -2.5012 -1.3448
   154G12c H016 2742   0.600   3.077   4.646  0.2321  1.8206  0.4911
   154G12c H015 2743   0.775   3.114   4.598 -0.3299 -1.2991 -1.6149
   154G12c C02E 2744   0.706   3.337   4.775  0.7160  0.2506 -0.8146
   154G12c H018 2745   0.658   3.262   4.836  1.1171 -1.7537 -2.8869
   154G12c C01F 2746   0.547   3.933   5.274 -0.4648 -1.5060  0.3288
   154G12c C01G 2747   0.447   4.002   5.203  0.7935  0.2017  0.9716
   154G12c H00L 2748   0.413   3.995   5.101  0.6483  6.5934  0.4037
   154G12c C01H 2749   0.385   4.101   5.273  0.5844 -0.1590  0.5010
   154G12c H00B 2750   0.284   4.127   5.244 -0.5532  0.3649  4.6685
   154G12c C01I 2751   0.442   4.150   5.392 -0.8827  0.6587  1.5041
   154G12c C01U 2752   0.595   3.975   5.404 -0.0376 -0.3906 -0.5604
   154G12c C00S 2753   0.643   3.793   5.942  1.8603  0.8380 -0.2360
   154G12c C00K 2754   0.530   3.981   5.855  0.1101 -0.2048 -0.9349
   154G12c C00N 2755   0.655   3.892   5.500  1.6459 -2.1725  0.4556
   154G12c C000 2756   0.569   4.096   5.449 -0.5554  0.2394  2.4584
   154G12c C01J 2757   0.364   4.171   5.506 -0.3083  0.1235  1.0103
   154G12c C01K 2758   0.231   4.238   5.513  0.1085  1.6134 -0.2047
   154G12c C01P 2759   0.164   4.321   5.418 -2.3114  0.1869 -1.7513
   154G12c C01Q 2760   0.237   4.386   5.314  1.0593  0.1663 -1.7110
   154G12c H00G 2761   0.285   4.325   5.239 -1.3243 -5.0767  0.7622
   154G12c C01R 2762   0.240   4.527   5.300 -0.5152 -0.3036  0.6566
   154G12c H00F 2763   0.203   4.593   5.377 -1.0031 -3.9202  3.6753
   154G12c C01S 2764   0.322   4.593   5.207  0.1436 -0.9982  0.6294
   154G12c H00E 2765   0.395   4.521   5.171 -0.6025 -0.0804 -2.8973
   154G12c H00D 2766   0.386   4.679   5.226 -1.1803 -0.3803  2.4641
   154G12c O005 2767   0.226   4.638   5.117 -0.7420 -0.1071 -0.5840
   154G12c H00C 2768   0.133   4.635   5.133 -0.2841  3.5221  3.4699
   154G12c C01O 2769   0.030   4.358   5.430  0.5436 -0.0704  0.6859
   154G12c H00H 2770  -0.022   4.431   5.369  0.8879  1.3889  2.1036
   154G12c C01N 2771  -0.032   4.330   5.546 -1.2040 -0.5908  0.3317
   154G12c O006 2772  -0.155   4.372   5.542 -1.3001  0.7091  0.1235
   154G12c C01T 2773  -0.251   4.304   5.464 -0.3729 -1.0821 -0.4860
   154G12c H00K 2774  -0.298   4.214   5.502  3.1714 -5.6733 -6.0691
   154G12c H00J 2775  -0.237   4.272   5.360 -0.1918 -0.8579 -0.5323
   154G12c H00I 2776  -0.327   4.382   5.471  2.8208  2.1257  0.1186
   154G12c C01M 2777   0.028   4.257   5.639 -1.2397  0.5203  1.0708
   154G12c C020 2778   0.403   4.048   5.856 -0.6625 -0.1316  1.7928
   154G12c C021 2779   0.339   4.073   5.975 -0.6975 -1.3676  0.4634
   154G12c C01L 2780   0.163   4.211   5.627  0.6526 -1.1280  0.8863
   154G12c O007 2781  -0.049   4.226   5.749  0.6454  0.8669  1.9006
   154G12c C022 2782   0.197   4.112   5.964  1.1329  0.1857 -1.3693
   154G12c C023 2783   0.367   3.997   6.098 -0.3213 -1.7806  0.0907
   154G12c C00G 2784   0.330   3.733   6.212  1.2079 -1.3681  0.7439
   154G12c C00E 2785   0.240   3.615   6.400  1.1100  1.5273 -0.5621
   154G12c O00A 2786   0.254   3.503   6.480 -0.0953  0.1804  0.2093
   154G12c C024 2787   0.279   3.529   6.607  1.5933 -0.8650  0.1754
   154G12c H00V 2788   0.189   3.517   6.668  1.4963 -6.2404 -0.8024
   154G12c H00U 2789   0.309   3.634   6.600 -3.6146  0.7330 -0.2463
   154G12c H00T 2790   0.363   3.468   6.641 -0.3255 -5.4814 -2.8858
   164G12c C00D 2791   2.663   7.052   5.638 -0.5237  0.4162  0.5395
   164G12c O00B 2792   2.553   6.973   5.688  0.2178  0.6234  1.0330
   164G12c C025 2793   2.521   6.989   5.826 -0.1723 -0.2990 -0.4447
   164G12c C026 2794   2.371   7.015   5.867  1.1272 -0.5047 -0.3694
   164G12c H00Y 2795   2.302   6.932   5.850 -2.1409  0.7999  4.9808
   164G12c H00X 2796   2.325   7.095   5.809  0.0863 -0.8623 -0.0482
   164G12c O00C 2797   2.338   7.077   5.984 -0.6259 -1.4596  2.3268
   164G12c H00W 2798   2.246   7.100   5.982  0.6637  4.6897 -4.8610
   164G12c C027 2799   2.599   6.929   5.924  0.0435  0.0563  2.1485
   164G12c O00D 2800   2.577   6.913   6.053 -0.5029 -0.4715  1.3908
   164G12c H00Z 2801   2.493   6.927   6.095 -0.3090 -3.2680  2.8471
   164G12c C028 2802   2.712   6.838   5.883 -2.9781  1.9293  1.2505
   164G12c C029 2803   2.838   6.848   5.938  1.3211  0.3484 -0.0094
   164G12c H010 2804   2.865   6.924   6.010  0.8510 -1.0239  1.6476
   164G12c C02T 2805   2.939   6.761   5.881 -0.2844  0.5501 -0.9336
   164G12c H01O 2806   3.042   6.788   5.864 -0.2228  1.8606  1.3303
   164G12c C02S 2807   2.910   6.644   5.800 -1.2898 -1.5471 -0.9297
   164G12c O00J 2808   3.009   6.585   5.741  0.8249 -0.1502  1.5152
   164G12c H01P 2809   3.033   6.644   5.670  3.5386 -2.3256  0.5243
   164G12c C02R 2810   2.778   6.630   5.756 -1.3097  2.0140  0.8050
   164G12c O00I 2811   2.740   6.537   5.660 -0.1945 -0.0873  0.3670
   164G12c C02Q 2812   2.748   6.413   5.739  0.2435 -0.2756  0.3834
   164G12c H01N 2813   2.646   6.386   5.710 -0.7640  3.3273  0.3239
   164G12c H01R 2814   2.825   6.345   5.703 -1.8739 -4.0147  2.4659
   164G12c H01Q 2815   2.767   6.383   5.842  1.3178  0.0072  0.2769
   164G12c C02A 2816   2.686   6.730   5.788  0.1002  0.4980  1.3659
   164G12c H011 2817   2.619   6.742   5.704  4.9844 -0.8514 -3.0389
   164G12c C00C 2818   2.765   7.116   5.718  0.9292  0.5286  0.9862
   164G12c H012 2819   2.767   7.089   5.822  6.6854 -2.1282  0.3900
   164G12c C00B 2820   2.847   7.212   5.658 -1.6173 -0.1672 -0.3883
   164G12c C00A 2821   2.962   7.286   5.716 -1.2038 -0.3952  2.2671
   164G12c C009 2822   3.005   7.341   5.837 -0.5563  0.8262 -2.8899
   164G12c C008 2823   2.955   7.316   5.978  0.4865  0.2128 -1.2078
   164G12c H013 2824   2.860   7.266   5.990  2.4583 -3.8142 -1.7193
   164G12c C007 2825   3.024   7.390   6.077 -1.8785  0.8076  0.6804
   164G12c H014 2826   3.005   7.365   6.180 -1.6057 -3.5594 -0.2226
   164G12c C006 2827   3.118   7.474   6.047 -0.4981 -0.2316  1.5134
   164G12c C005 2828   3.164   7.480   5.914 -0.9198  0.0086 -0.3705
   164G12c C004 2829   3.262   7.579   5.873  1.0449  0.0578  0.0856
   164G12c C003 2830   3.292   7.585   5.732  1.6515  0.5382 -0.0120
   164G12c C002 2831   3.382   7.687   5.692  0.5840 -1.3138 -0.5361
   164G12c C001 2832   3.425   7.732   5.565 -1.3845 -0.7990 -0.4107
   164G12c C00M 2833   3.342   7.738   5.450  0.2293 -0.2464  1.7242
   164G12c C00L 2834   3.255   7.629   5.410 -1.0706  0.2733 -0.0868
   164G12c C00R 2835   3.152   7.639   5.313  0.9573  1.0358 -0.2762
   164G12c C00Q 2836   3.118   7.740   5.220 -1.6476 -0.2884 -0.9869
   164G12c C00V 2837   2.998   7.693   5.147 -1.2521  0.3987  0.4090
   164G12c C00U 2838   2.915   7.581   5.180 -1.6324  0.0190  1.2135
   164G12c C00T 2839   2.949   7.489   5.280 -2.2365 -0.5069 -1.1769
   164G12c C016 2840   2.888   7.380   5.332  0.8440 -0.2631 -0.5088
   164G12c C015 2841   2.767   7.353   5.267  0.2999 -1.4278  0.8331
   164G12c C010 2842   2.722   7.440   5.158  0.7333 -0.8521  0.3812
   164G12c C011 2843   2.596   7.405   5.102 -0.5381  0.1195  0.0268
   164G12c H005 2844   2.554   7.472   5.029 -2.8065 -2.0114 -0.7143
   164G12c C012 2845   2.502   7.310   5.153  0.0076  0.3401 -0.3078
   164G12c C017 2846   2.372   7.296   5.100  0.1086 -0.6806 -0.3834
   164G12c O002 2847   2.265   7.297   5.190  0.2398  0.3383 -1.1658
   164G12c H004 2848   2.286   7.338   5.272 -1.8819  0.5683 -0.7199
   164G12c C018 2849   2.348   7.252   4.974 -1.1255  0.2981  0.0465
   164G12c O001 2850   2.216   7.224   4.960  0.1296 -2.6163 -0.2602
   164G12c H003 2851   2.201   7.246   5.050 -3.2563  2.3688 -1.7878
   164G12c C019 2852   2.463   7.254   4.862  0.7576  3.0227  0.2245
   164G12c H002 2853   2.542   7.191   4.903 -0.7148  1.2348  0.4277
   164G12c H001 2854   2.424   7.173   4.799  0.7597  6.2353 -4.0949
   164G12c O000 2855   2.492   7.368   4.798  1.8395 -0.2357  0.0246
   164G12c C01A 2856   2.461   7.404   4.664 -0.4202 -0.6261  0.4760
   164G12c C02K 2857   2.474   7.536   4.633 -0.1039  1.5169 -0.2497
   164G12c O00G 2858   2.466   7.628   4.734 -0.3676  0.2473  0.7753
   164G12c C02M 2859   2.353   7.707   4.752  1.4809 -2.5635 -1.1007
   164G12c H01G 2860   2.297   7.750   4.669  2.6261 -4.4790 -2.9026
   164G12c H01F 2861   2.373   7.767   4.841 -4.1866 -0.8146 -0.8481
   164G12c H01E 2862   2.286   7.638   4.802  3.6683 -4.5772 -0.8521
   164G12c C02J 2863   2.487   7.582   4.494  0.1837  1.1727 -1.1928
   164G12c H01H 2864   2.496   7.689   4.488  4.0634  1.0572  1.0826
   164G12c C02I 2865   2.504   7.488   4.390 -0.4260 -0.6193  0.8998
   164G12c C02N 2866   2.534   7.515   4.247 -0.2897  1.1970  0.0586
   164G12c H01M 2867   2.454   7.565   4.194 -4.1212 -0.6898  3.7277
   164G12c C02O 2868   2.666   7.536   4.211 -0.5822  0.9041  1.2734
   164G12c H01L 2869   2.718   7.480   4.288 -3.5479 -2.9802  0.6373
   164G12c C02P 2870   2.726   7.579   4.093 -0.0455  0.3739 -0.3636
   164G12c H01K 2871   2.814   7.519   4.073 -0.8246 -0.7665 -0.3802
   164G12c H01J 2872   2.654   7.616   4.019  7.0279  8.9684 -3.9096
   164G12c O00H 2873   2.780   7.704   4.128 -0.4811 -0.6724  0.1639
   164G12c H01I 2874   2.760   7.725   4.218 -0.4247 -7.0052  1.8887
   164G12c C02H 2875   2.483   7.361   4.430 -0.8123 -0.2658 -0.4133
   164G12c H01C 2876   2.458   7.297   4.347  0.3375  2.8890 -3.3186
   164G12c C02L 2877   2.468   7.312   4.555 -0.0705 -0.8146  1.1683
   164G12c H01D 2878   2.446   7.207   4.568 -4.2859 -0.2425 -0.5342
   164G12c C013 2879   2.548   7.241   5.270 -0.3055  0.4452  1.3861
   164G12c H000 2880   2.487   7.154   5.291 -5.2206  3.1524 -0.7395
   164G12c C014 2881   2.684   7.253   5.319  0.6598  0.5309  0.6202
   164G12c C00F 2882   2.731   7.181   5.429  1.2580  0.8104 -1.7069
   164G12c C00H 2883   2.927   7.321   5.454  0.2411 -0.4793 -1.1042
   164G12c C00I 2884   3.048   7.342   5.492  2.2470 -2.5376 -1.2587
   164G12c C00J 2885   3.138   7.428   5.419  0.6076 -0.6468 -1.0310
   164G12c C00Z 2886   2.796   7.545   5.105 -0.1562  1.1827 -2.6640
   164G12c C00Y 2887   2.748   7.632   5.002 -1.6185 -1.0603  0.4712
   164G12c H006 2888   2.657   7.633   4.944  0.3488  3.3695 -2.8398
   164G12c C00X 2889   2.813   7.754   4.989 -0.7216  0.2912  1.5047
   164G12c O003 2890   2.783   7.857   4.917 -0.3496  1.0365 -0.4427
   164G12c C01B 2891   2.657   7.889   4.867 -0.4670 -1.1121  0.7139
   164G12c H009 2892   2.678   7.992   4.840  2.4974 -0.4263  5.0560
   164G12c H008 2893   2.561   7.904   4.916  1.1506  1.3903  3.2800
   164G12c H007 2894   2.643   7.831   4.776 -4.0037  5.6275 -3.4501
   164G12c C00W 2895   2.949   7.775   5.043  1.2423 -0.5321 -1.0017
   164G12c O004 2896   3.015   7.893   5.013 -0.0859 -0.4412  0.2491
   164G12c C01C 2897   3.128   7.940   5.073  1.1369 -0.9836 -0.0243
   164G12c H00A 2898   3.162   8.029   5.021  0.5560  0.0897  1.4185
   164G12c C00P 2899   3.184   7.866   5.188  0.3028  1.1479  2.2762
   164G12c C00O 2900   3.280   7.935   5.271  1.3929  0.7209 -0.2917
   164G12c C01D 2901   3.311   8.079   5.255  0.2317  1.2149 -0.4268
   164G12c H00S 2902   3.248   8.130   5.184 -2.0155  4.3849  3.5673
   164G12c C01E 2903   3.345   8.160   5.371 -0.9718  0.9177  0.0049
   164G12c O008 2904   3.336   8.299   5.374 -0.0362 -0.5604 -0.7179
   164G12c C01V 2905   3.413   8.420   5.322  2.1172 -0.9654  0.0259
   164G12c C01Z 2906   3.498   8.500   5.415  0.0862 -2.4120 -0.4403
   164G12c H00R 2907   3.483   8.603   5.384 -3.0867 -3.0874 -1.3977
   164G12c H00Q 2908   3.539   8.448   5.501  1.7044 -3.5012 -1.8428
   164G12c O009 2909   3.640   8.497   5.350  2.1604 -1.0955  1.0590
   164G12c H00P 2910   3.675   8.547   5.423 -0.9334  1.8026  0.7274
   164G12c C01W 2911   3.359   8.452   5.200 -0.9901 -1.6559 -0.2675
   164G12c H00O 2912   3.289   8.385   5.152 -4.6763  1.5182  0.4728
   164G12c C01X 2913   3.422   8.567   5.115  2.1800  1.5813  1.4518
   164G12c H00N 2914   3.354   8.564   5.029  2.0334 -1.5325  1.5954
   164G12c H00M 2915   3.435   8.650   5.184 -0.2928  3.1267  0.1195
   164G12c C01Y 2916   3.539   8.492   5.061 -0.8977 -0.4090 -1.0713
   164G12c C02D 2917   3.639   8.579   5.062  1.0739 -0.5198  0.7029
   164G12c H019 2918   3.608   8.679   5.037 -1.3708 -1.1771  1.0221
   164G12c C02C 2919   3.768   8.560   5.069  1.1682  0.6617 -2.1489
   164G12c H01A 2920   3.835   8.642   5.047  2.2176  0.1439 -0.8849
   164G12c C02B 2921   3.799   8.421   5.060  0.7929 -0.6319  0.5562
   164G12c O00E 2922   3.935   8.396   5.070 -1.0268  0.2084 -1.1663
   164G12c H01B 2923   3.953   8.314   5.114 -8.3015  0.9349  4.1436
   164G12c C02F 2924   3.690   8.316   5.033 -1.0891 -1.0097 -0.9302
   164G12c O00F 2925   3.733   8.201   5.035  0.4901 -0.0648 -0.9067
   164G12c C02G 2926   3.678   8.089   4.969  0.6013  0.0677  1.9588
   164G12c H017 2927   3.721   8.086   4.869  0.2199 -3.8555  1.8386
   164G12c H016 2928   3.573   8.061   4.977 -1.3799  5.8182 -0.5081
   164G12c H015 2929   3.759   8.038   5.020 -0.0298  3.8480  7.2148
   164G12c C02E 2930   3.561   8.355   5.068 -0.0331  0.6857  1.3983
   164G12c H018 2931   3.484   8.278   5.066 -6.7368  6.8536 -2.7568
   164G12c C01F 2932   3.374   8.093   5.493  0.3902  1.0929  1.0459
   164G12c C01G 2933   3.354   8.126   5.632 -0.2816  1.1797 -0.2304
   164G12c H00L 2934   3.296   8.217   5.637 -3.6734 -0.8464 -1.0369
   164G12c C01H 2935   3.398   8.045   5.748  1.2517  0.0490  1.3475
   164G12c H00B 2936   3.364   8.058   5.850  2.8216  1.9729  1.6541
   164G12c C01I 2937   3.433   7.909   5.717  3.1111 -0.5704  0.4458
   164G12c C01U 2938   3.417   7.954   5.484  0.9655  1.2933  0.2832
   164G12c C00S 2939   3.078   7.516   5.330 -0.5651  1.0098  0.9989
   164G12c C00K 2940   3.240   7.511   5.487 -1.5586  1.6806 -2.9792
   164G12c C00N 2941   3.347   7.876   5.396  2.3697  0.1923 -2.5994
   164G12c C000 2942   3.458   7.874   5.582 -0.3432 -1.3862 -1.6693
   164G12c C01J 2943   3.410   7.788   5.794 -0.2574 -1.3427  0.4881
   164G12c C01K 2944   3.377   7.789   5.940 -0.5534 -1.0465  1.7828
   164G12c C01P 2945   3.441   7.855   6.054 -0.3588  0.1747  0.4877
   164G12c C01Q 2946   3.543   7.957   6.018  0.5434 -0.1346 -0.9581
   164G12c H00G 2947   3.510   8.053   5.982 -0.1186 -0.1944 -0.5106
   164G12c C01R 2948   3.667   7.916   6.010  0.3786 -0.6339 -0.4451
   164G12c H00F 2949   3.681   7.831   6.075 -0.2235 -0.1173  0.3676
   164G12c C01S 2950   3.773   8.027   6.006  0.7625  1.5539  1.4389
   164G12c H00E 2951   3.777   8.078   6.102 -1.0410  1.4562  1.5931
   164G12c H00D 2952   3.871   7.981   6.001  0.5905  1.4489 -2.9727
   164G12c O005 2953   3.781   8.126   5.893  1.7748 -0.1455  0.6553
   164G12c H00C 2954   3.708   8.120   5.833  1.7036  1.5014  0.5433
   164G12c C01O 2955   3.394   7.828   6.183  1.5843 -0.0450  0.3334
   164G12c H00H 2956   3.449   7.873   6.264 -0.6026 -2.5968  3.3763
   164G12c C01N 2957   3.300   7.731   6.219  0.1261 -0.1525  1.5318
   164G12c O006 2958   3.246   7.698   6.339 -0.3602 -0.1360 -0.4294
   164G12c C01T 2959   3.300   7.763   6.445  1.3382 -0.2272  0.6005
   164G12c H00K 2960   3.376   7.840   6.462 -1.3282  3.5157 -3.6012
   164G12c H00J 2961   3.371   7.690   6.486  1.8595 -0.0054  0.1064
   164G12c H00I 2962   3.230   7.785   6.526  0.7297 -4.3771  1.3604
   164G12c C01M 2963   3.272   7.652   6.110  1.0788  0.1662  0.2662
   164G12c C020 2964   3.240   7.499   5.630 -0.3046  0.7411 -0.2456
   164G12c C021 2965   3.169   7.400   5.687 -0.7579 -0.2109 -1.4416
   164G12c C01L 2966   3.306   7.672   5.970  0.9206  0.4413  0.7855
   164G12c O007 2967   3.172   7.547   6.148  0.5504 -0.0240  0.9219
   164G12c C022 2968   3.122   7.404   5.815 -0.2530  1.8880  0.7716
   164G12c C023 2969   3.068   7.317   5.632  0.6473 -0.8390  0.4861
   164G12c C00G 2970   2.845   7.225   5.514  1.0868  2.3779 -0.2035
   164G12c C00E 2971   2.654   7.085   5.498  0.7146  1.3186  1.6301
   164G12c O00A 2972   2.564   7.016   5.430 -0.0134  0.4734  0.2856
   164G12c C024 2973   2.603   6.896   5.357 -1.5235 -0.1450 -0.2894
   164G12c H00V 2974   2.598   6.802   5.412 -1.5823  1.2252  2.1098
   164G12c H00U 2975   2.702   6.930   5.328  0.2726 -4.2000  0.6447
   164G12c H00T 2976   2.534   6.904   5.273 -0.3276  4.3626 -0.9485
   174G12c C00D 2977   1.105   0.617   2.958  1.5597 -0.6061 -0.6751
   174G12c O00B 2978   1.176   0.526   3.010 -0.0847  0.9034 -1.7872
   174G12c C025 2979   1.210   0.529   3.138 -0.9426 -0.8146 -1.5586
   174G12c C026 2980   1.352   0.552   3.168  1.9849  0.2364 -0.0514
   174G12c H00Y 2981   1.372   0.597   3.266 -0.4678  5.1598 -1.6522
   174G12c H00X 2982   1.380   0.596   3.073  3.6349 -0.4145  0.1166
   174G12c O00C 2983   1.427   0.420   3.177 -0.0616 -0.4084  0.1941
   174G12c H00W 2984   1.413   0.397   3.087  2.5488 -2.6330  0.3134
   174G12c C027 2985   1.132   0.489   3.238  1.6883 -0.3816 -0.8292
   174G12c O00D 2986   0.995   0.493   3.228 -0.2444  0.1717  0.8789
   174G12c H00Z 2987   0.990   0.516   3.319  2.3625 -4.7822  2.4386
   174G12c C028 2988   1.176   0.478   3.370 -0.9643  0.2153  0.3118
   174G12c C029 2989   1.234   0.360   3.423 -0.3675 -0.8227  0.2558
   174G12c H010 2990   1.259   0.272   3.366  0.3036  0.4418 -1.4484
   174G12c C02T 2991   1.237   0.346   3.558 -0.3008  0.5469  0.9676
   174G12c H01O 2992   1.274   0.262   3.615 -1.2479 -0.8457 -0.4200
   174G12c C02S 2993   1.194   0.445   3.644 -0.5260 -1.2059  0.1727
   174G12c O00J 2994   1.185   0.439   3.784  0.1586 -2.2072  0.3400
   174G12c H01P 2995   1.193   0.395   3.867  2.9354  2.9432  3.0543
   174G12c C02R 2996   1.177   0.582   3.600  1.0338  0.6608  0.5930
   174G12c O00I 2997   1.175   0.700   3.658  0.9195  0.3965 -0.3962
   174G12c C02Q 2998   1.267   0.739   3.750  0.8624  0.7057 -1.3042
   174G12c H01N 2999   1.366   0.782   3.735  0.1465  2.8178 -0.2330
   174G12c H01R 3000   1.207   0.778   3.832  0.8584  1.4437 -1.6494
   174G12c H01Q 3001   1.313   0.650   3.791  1.9391  1.4619 -0.8613
   174G12c C02A 3002   1.161   0.581   3.464  1.3471  1.3643  0.0250
   174G12c H011 3003   1.113   0.665   3.418  2.9745  4.2505  3.3559
   174G12c C00C 3004   0.959   0.612   2.930 -0.5038  0.1753 -1.7558
   174G12c H012 3005   0.891   0.530   2.947 -1.6062  0.4099 -4.6740
   174G12c C00B 3006   0.881   0.738   2.935 -0.6708  0.2205 -0.2640
   174G12c C00A 3007   0.746   0.757   2.978  1.2855 -0.8221  2.6204
   174G12c C009 3008   0.624   0.686   2.944 -1.1088 -0.9597  1.9787
   174G12c C008 3009   0.622   0.556   2.878 -0.0210  0.8878  1.7699
   174G12c H013 3010   0.700   0.481   2.873 -3.2647 -2.5309 -3.5795
   174G12c C007 3011   0.495   0.521   2.819 -0.5855  0.0360 -1.0793
   174G12c H014 3012   0.460   0.419   2.815  3.7474 -1.5859 -0.3344
   174G12c C006 3013   0.389   0.610   2.805 -0.6061  0.9293 -0.9717
   174G12c C005 3014   0.410   0.747   2.830 -0.4199 -0.2260 -0.8453
   174G12c C004 3015   0.323   0.854   2.796  1.0660 -1.2845 -0.3454
   174G12c C003 3016   0.376   0.979   2.826  0.4375 -0.4244 -2.2788
   174G12c C002 3017   0.288   1.087   2.795 -0.3395 -0.0741 -0.9737
   174G12c C001 3018   0.290   1.229   2.821  0.9102 -0.9770 -0.4181
   174G12c C00M 3019   0.412   1.310   2.803 -0.3253  0.3286 -0.4282
   174G12c C00L 3020   0.538   1.260   2.863  0.8358  1.9381 -1.5799
   174G12c C00R 3021   0.669   1.309   2.808 -0.2135  0.4697 -0.7543
   174G12c C00Q 3022   0.710   1.419   2.711  1.0245 -1.8260 -0.1514
   174G12c C00V 3023   0.847   1.417   2.686 -0.5584  0.0450  0.1370
   174G12c C00U 3024   0.939   1.311   2.734 -0.9313  0.6726 -1.2148
   174G12c C00T 3025   0.895   1.197   2.801 -0.9136  0.2567 -0.4689
   174G12c C016 3026   0.964   1.084   2.845 -0.2856  0.6906  1.5841
   174G12c C015 3027   1.098   1.100   2.841 -0.2465  1.7213 -1.2686
   174G12c C010 3028   1.155   1.206   2.763 -0.6615 -0.8098 -1.7880
   174G12c C011 3029   1.297   1.196   2.757 -0.5931 -0.5658 -0.9086
   174G12c H005 3030   1.366   1.270   2.720  0.2187  0.0473  1.6797
   174G12c C012 3031   1.361   1.099   2.834  1.2334 -0.4196  0.0390
   174G12c C017 3032   1.517   1.103   2.835  0.7192  0.8316 -0.8937
   174G12c O002 3033   1.561   1.231   2.893  0.3661  0.8075 -1.3001
   174G12c H004 3034   1.485   1.268   2.936 -0.7506 -0.5458 -2.0867
   174G12c C018 3035   1.614   1.007   2.822 -0.7677  1.4822  1.2314
   174G12c O001 3036   1.569   0.888   2.764 -0.7343  0.9855 -0.3297
   174G12c H003 3037   1.478   0.904   2.744 -1.4783  1.7754  3.3082
   174G12c C019 3038   1.753   1.015   2.874 -0.2195  0.7882  1.0132
   174G12c H002 3039   1.806   1.108   2.852  5.7061 -2.6882 -0.5127
   174G12c H001 3040   1.762   1.018   2.983 -5.4047 -1.5759  1.6420
   174G12c O000 3041   1.829   0.926   2.804 -0.5801  0.9986 -1.2118
   174G12c C01A 3042   1.963   0.959   2.809  0.0713 -0.1391  1.8678
   174G12c C02K 3043   2.035   0.939   2.697 -0.8099 -0.4332 -0.8474
   174G12c O00G 3044   1.993   0.958   2.566  0.3859 -0.0247 -1.4168
   174G12c C02M 3045   2.006   0.874   2.442 -0.5037  2.5842  0.4053
   174G12c H01G 3046   1.963   0.775   2.457  3.8434  0.8495  2.2732
   174G12c H01F 3047   1.935   0.909   2.367 -2.6901  3.6066  2.8708
   174G12c H01E 3048   2.112   0.856   2.421 -1.1975  1.0054 -1.8902
   174G12c C02J 3049   2.163   0.969   2.709  1.4317 -0.6778  0.0304
   174G12c H01H 3050   2.203   0.965   2.609 -1.7393 -4.5256 -1.1974
   174G12c C02I 3051   2.227   1.009   2.821  1.3431 -0.0531 -0.9118
   174G12c C02N 3052   2.361   1.027   2.820 -0.0990  1.0585  2.4240
   174G12c H01M 3053   2.389   1.112   2.881  0.5493  1.5418  1.4524
   174G12c C02O 3054   2.456   0.953   2.742  1.2882 -0.5628  1.1134
   174G12c H01L 3055   2.419   0.862   2.698 -0.5576  0.3620  0.6993
   174G12c C02P 3056   2.601   0.986   2.714  0.4317 -1.5094  0.7786
   174G12c H01K 3057   2.597   0.980   2.605  0.4988 -5.6160  0.9104
   174G12c H01J 3058   2.628   1.089   2.736  7.8149 -3.0774  0.3803
   174G12c O00H 3059   2.675   0.916   2.804  0.6193 -1.3958 -0.5493
   174G12c H01I 3060   2.620   0.895   2.878  0.4963 -0.7423 -0.4498
   174G12c C02H 3061   2.159   1.045   2.928 -0.7792  0.7433 -0.4771
   174G12c H01C 3062   2.188   1.097   3.018 -1.0534 -0.3000  0.2192
   174G12c C02L 3063   2.029   1.011   2.926  0.6778 -2.2530 -0.7136
   174G12c H01D 3064   1.966   1.036   3.009  2.5287 -0.2899  0.1384
   174G12c C013 3065   1.299   0.995   2.915  0.4996 -0.0190  1.1525
   174G12c H000 3066   1.348   0.911   2.962  1.2939 -1.6883 -2.4604
   174G12c C014 3067   1.161   0.980   2.894 -2.2706  0.4842 -0.8333
   174G12c C00F 3068   1.099   0.857   2.922  2.0407 -0.2198  0.2952
   174G12c C00H 3069   0.901   0.981   2.906  1.8783 -0.0155 -1.0489
   174G12c C00I 3070   0.762   1.006   2.962 -0.6206  0.2221  0.5973
   174G12c C00J 3071   0.702   1.124   2.921 -1.1416 -0.9002 -1.0653
   174G12c C00Z 3072   1.076   1.302   2.701 -0.2556 -0.3827  1.1374
   174G12c C00Y 3073   1.116   1.407   2.604 -0.2431 -0.3694  1.7976
   174G12c H006 3074   1.224   1.402   2.602 -0.2399 -0.1736 -1.6090
   174G12c C00X 3075   1.041   1.519   2.559  0.5646 -0.3840  0.7200
   174G12c O003 3076   1.124   1.624   2.559  0.4259  0.3674  0.1950
   174G12c C01B 3077   1.072   1.748   2.624  1.1846 -0.7734  0.5460
   174G12c H009 3078   1.018   1.765   2.716 -4.3305  4.5917 -3.3225
   174G12c H008 3079   1.159   1.813   2.634  1.8437 -1.5086 -0.1977
   174G12c H007 3080   1.013   1.810   2.557 -2.9361 -5.0843 -0.0363
   174G12c C00W 3081   0.901   1.521   2.598 -1.8377 -0.0524  0.7210
   174G12c O004 3082   0.825   1.637   2.554 -0.1214  0.7779 -0.3393
   174G12c C01C 3083   0.698   1.632   2.601 -1.7075  0.6669  1.1390
   174G12c H00A 3084   0.677   1.735   2.624  0.6528  1.2166  0.9800
   174G12c C00P 3085   0.621   1.514   2.658  0.2229 -0.6682  0.7229
   174G12c C00O 3086   0.488   1.509   2.628  1.5277 -1.7145  0.7476
   174G12c C01D 3087   0.437   1.580   2.523 -0.5847 -1.2658  0.5010
   174G12c H00S 3088   0.496   1.640   2.455 -3.4084 -3.1068 -3.8612
   174G12c C01E 3089   0.310   1.538   2.479 -0.1656 -0.9729  0.9584
   174G12c O008 3090   0.237   1.615   2.392 -0.3456 -0.1099 -0.1729
   174G12c C01V 3091   0.203   1.748   2.420  0.8611 -1.6776 -1.9484
   174G12c C01Z 3092   0.066   1.780   2.342 -1.5622 -0.7556  0.0184
   174G12c H00R 3093   0.002   1.862   2.374 -2.2518 -1.5116  0.5987
   174G12c H00Q 3094   0.102   1.796   2.240 -0.9339  9.6504  1.2658
   174G12c O009 3095  -0.007   1.670   2.332  0.9150 -0.9289  1.1103
   174G12c H00P 3096   0.043   1.604   2.378  0.7176 -3.3437 -1.9729
   174G12c C01W 3097   0.294   1.830   2.494  0.6335 -0.1053 -0.0656
   174G12c H00O 3098   0.382   1.787   2.540 -0.9971 -3.6816 -0.1345
   174G12c C01X 3099   0.289   1.986   2.473  0.5790 -1.4556 -0.5034
   174G12c H00N 3100   0.385   2.017   2.430  1.9639  2.7279  5.1154
   174G12c H00M 3101   0.219   2.002   2.391 -3.5044-10.7069  0.5131
   174G12c C01Y 3102   0.263   2.032   2.611 -0.3886 -0.3427 -1.1355
   174G12c C02D 3103   0.155   2.120   2.609 -0.7245 -1.4718  0.7859
   174G12c H019 3104   0.089   2.152   2.529 -1.3438 -4.4010  0.0970
   174G12c C02C 3105   0.135   2.181   2.733  0.3702  0.2562 -1.8993
   174G12c H01A 3106   0.054   2.244   2.766 -1.8080 -6.3344  7.5104
   174G12c C02B 3107   0.209   2.169   2.847  0.0941 -0.9333  0.8304
   174G12c O00E 3108   0.166   2.245   2.959  0.9794 -0.3335 -0.3172
   174G12c H01B 3109   0.073   2.262   2.971  1.2692 -0.8062  3.3300
   174G12c C02F 3110   0.320   2.094   2.850 -1.0114  0.6053 -1.0898
   174G12c O00F 3111   0.394   2.072   2.962  0.1849  0.0267 -0.6060
   174G12c C02G 3112   0.339   1.971   3.038  0.9809 -0.4363  0.2084
   174G12c H017 3113   0.340   2.011   3.139  2.0252 -3.2052  1.3173
   174G12c H016 3114   0.369   1.867   3.025 -7.6584 -2.7519 -6.0880
   174G12c H015 3115   0.233   1.962   3.015 -0.5583  1.4705  5.7502
   174G12c C02E 3116   0.342   2.010   2.730 -0.4635 -0.0670 -0.2106
   174G12c H018 3117   0.426   1.943   2.721 -0.6887  0.1232 -4.8157
   174G12c C01F 3118   0.233   1.427   2.523  0.4451  0.4101 -1.3645
   174G12c C01G 3119   0.118   1.354   2.458 -1.6181 -0.3857  0.2919
   174G12c H00L 3120   0.116   1.377   2.353 -0.2940  4.6231  1.2162
   174G12c C01H 3121   0.082   1.218   2.510  0.6027  0.5332  0.1255
   174G12c H00B 3122   0.054   1.159   2.424  2.7000 -7.2031  4.2149
   174G12c C01I 3123   0.132   1.180   2.644  0.9610 -1.4018  1.2084
   174G12c C01U 3124   0.265   1.386   2.654  0.2933  0.3933 -0.2571
   174G12c C00S 3125   0.756   1.206   2.833 -1.2282  1.1341 -0.4145
   174G12c C00K 3126   0.566   1.138   2.907 -1.0883 -0.0268 -1.6038
   174G12c C00N 3127   0.403   1.405   2.695  1.0492  0.0664 -0.1400
   174G12c C000 3128   0.210   1.277   2.712 -0.0224  0.3711  1.5962
   174G12c C01J 3129   0.173   1.063   2.712  0.6242  0.6444  0.4678
   174G12c C01K 3130   0.124   0.934   2.684 -0.4325 -0.3564  0.1321
   174G12c C01P 3131   0.001   0.896   2.624 -0.6943 -1.3580  0.8097
   174G12c C01Q 3132  -0.099   0.978   2.538 -1.8517 -0.7617  0.0568
   174G12c H00G 3133  -0.079   0.984   2.432  2.0755 -2.9137  0.5993
   174G12c C01R 3134  -0.172   1.080   2.594  0.3907  0.0532  0.6120
   174G12c H00F 3135  -0.173   1.071   2.701  5.9162 -0.4485  0.7674
   174G12c C01S 3136  -0.234   1.195   2.514  0.8912  0.8362 -0.4392
   174G12c H00E 3137  -0.296   1.253   2.582  3.2834 -1.1598  3.6606
   174G12c H00D 3138  -0.189   1.259   2.438 -0.8839  1.1582 -1.2252
   174G12c O005 3139  -0.345   1.148   2.435 -1.6940  0.5828  0.4587
   174G12c H00C 3140  -0.336   1.056   2.415 -3.0230  0.6408 -0.4907
   174G12c C01O 3141  -0.022   0.751   2.616  0.7462 -0.4469  0.0760
   174G12c H00H 3142  -0.107   0.699   2.573  0.0052  0.7864  0.0106
   174G12c C01N 3143   0.053   0.646   2.681  1.0018 -1.2273  0.6088
   174G12c O006 3144  -0.010   0.521   2.675 -1.9251 -0.3631 -0.7421
   174G12c C01T 3145   0.040   0.425   2.760  0.6895 -0.4633 -0.0024
   174G12c H00K 3146  -0.058   0.381   2.778  0.5007 -0.3674 -0.7659
   174G12c H00J 3147   0.056   0.477   2.854 -0.2600  0.7127 -0.4906
   174G12c H00I 3148   0.118   0.360   2.719  2.1805 -3.7294  7.2567
   174G12c C01M 3149   0.177   0.681   2.708 -0.4782  0.2526  1.5167
   174G12c C020 3150   0.493   1.012   2.906 -1.4499  0.9605 -0.0395
   174G12c C021 3151   0.551   0.899   2.971 -1.0520 -0.0806 -1.0226
   174G12c C01L 3152   0.211   0.826   2.723  0.0062 -1.7261  0.5398
   174G12c O007 3153   0.262   0.580   2.753  1.1769  1.2172  0.1801
   174G12c C022 3154   0.530   0.778   2.915  1.0552 -0.3214  0.2703
   174G12c C023 3155   0.693   0.893   3.009  2.0874  1.7008  1.1313
   174G12c C00G 3156   0.970   0.858   2.925  0.3122  0.7672 -1.6243
   174G12c C00E 3157   1.160   0.741   2.925  0.2044  0.6217 -0.0766
   174G12c O00A 3158   1.293   0.722   2.892  0.7517  0.2202  0.0674
   174G12c C024 3159   1.312   0.700   2.761  0.0618 -1.2244 -0.1254
   174G12c H00V 3160   1.324   0.593   2.748 -1.0111 -1.2718 -0.7341
   174G12c H00U 3161   1.418   0.686   2.736  1.8997 -0.3278  6.2022
   174G12c H00T 3162   1.265   0.753   2.678  3.6137 -2.2227 -2.9217
   184G12c C00D 3163   9.379   1.081   8.908 -0.7899 -0.0413 -0.5839
   184G12c O00B 3164   9.307   0.959   8.925 -1.0754  0.7393 -0.4800
   184G12c C025 3165   9.272   0.938   9.047 -0.7531  0.0739 -0.9623
   184G12c C026 3166   9.394   0.838   9.100  0.3465  2.0773  0.4465
   184G12c H00Y 3167   9.408   0.809   9.205 -3.6555 -2.1480 -0.0264
   184G12c H00X 3168   9.489   0.891   9.104  1.6137 -0.2380  4.8548
   184G12c O00C 3169   9.427   0.737   9.017 -0.9365 -1.0264  0.6944
   184G12c H00W 3170   9.402   0.758   8.928 -1.3976 -3.2743  0.2570
   184G12c C027 3171   9.190   1.006   9.109  0.0147 -1.6348 -1.4723
   184G12c O00D 3172   9.108   1.112   9.065  2.5800  0.3658 -0.7981
   184G12c H00Z 3173   9.133   1.136   8.977  3.1680  1.1028 -0.4358
   184G12c C028 3174   9.163   0.986   9.251  0.4860 -1.4671 -0.9437
   184G12c C029 3175   9.140   1.095   9.340 -0.8930  0.0907  0.8566
   184G12c H010 3176   9.147   1.199   9.312  2.5268  0.3722  2.3940
   184G12c C02T 3177   9.095   1.090   9.476  0.1607 -0.4564  3.3688
   184G12c H01O 3178   9.074   1.177   9.537 -4.8461 -1.7736  3.7450
   184G12c C02S 3179   9.071   0.956   9.528 -0.4778 -1.5455  1.3858
   184G12c O00J 3180   9.003   0.947   9.634 -0.4597 -0.4741 -0.2749
   184G12c H01P 3181   8.944   1.021   9.630 -1.4625 -1.1111  1.9016
   184G12c C02R 3182   9.076   0.845   9.443 -0.5413 -0.1111 -0.9361
   184G12c O00I 3183   9.043   0.719   9.470  0.5204  0.1732  0.1714
   184G12c C02Q 3184   9.098   0.664   9.593  0.7359  0.6958 -0.8468
   184G12c H01N 3185   9.199   0.630   9.567  0.9043  1.0117 -0.5945
   184G12c H01R 3186   9.100   0.716   9.688  5.5136 -1.1174  0.2199
   184G12c H01Q 3187   9.063   0.561   9.589  2.4982  0.0098  0.6633
   184G12c C02A 3188   9.127   0.858   9.300 -0.2836 -0.2565  0.0792
   184G12c H011 3189   9.122   0.773   9.233  0.1681 -1.2847  1.3419
   184G12c C00C 3190   9.415   1.165   9.016  1.3118  1.0302 -0.2017
   184G12c H012 3191   9.393   1.154   9.122 -0.9438  6.1557 -0.0031
   184G12c C00B 3192   9.515   1.261   9.015 -0.5374 -2.9097  0.9133
   184G12c C00A 3193   9.598   1.312   9.126  0.5699 -0.7517  0.1229
   184G12c C009 3194   9.546   1.342   9.266 -0.1276 -0.7092 -1.0882
   184G12c C008 3195   9.433   1.305   9.339 -0.4679  0.7583  0.5498
   184G12c H013 3196   9.388   1.216   9.298  3.9235 -1.2076 -0.2535
   184G12c C007 3197   9.375   1.396   9.437  1.9882 -1.2314 -1.2980
   184G12c H014 3198   9.296   1.336   9.480  2.3622 -4.4376 -4.7909
   184G12c C006 3199   9.428   1.518   9.449  0.5923 -0.9616 -1.0308
   184G12c C005 3200   9.555   1.545   9.390  1.0810 -1.3174  2.0241
   184G12c C004 3201   9.603   1.675   9.379 -1.8948 -1.2090 -0.6628
   184G12c C003 3202   9.700   1.729   9.290  1.5693  0.0481 -0.3678
   184G12c C002 3203   9.753   1.863   9.297 -0.1710  0.2922 -1.3856
   184G12c C001 3204   9.825   1.950   9.199  0.9392  0.7401 -0.5952
   184G12c C00M 3205   9.813   1.926   9.049 -0.2152  0.5608 -0.4385
   184G12c C00L 3206   9.811   1.810   8.976 -0.2815 -0.2385 -0.2849
   184G12c C00R 3207   9.785   1.805   8.842 -0.9009  0.0671  0.9868
   184G12c C00Q 3208   9.781   1.902   8.738 -0.4103 -1.4474  0.8848
   184G12c C00V 3209   9.747   1.838   8.625  0.4395 -1.1047  0.8869
   184G12c C00U 3210   9.714   1.688   8.621 -2.4072 -0.0498  0.3072
   184G12c C00T 3211   9.719   1.607   8.724 -1.4734 -0.6390 -0.2028
   184G12c C016 3212   9.661   1.481   8.729 -1.7069 -0.4856  0.2944
   184G12c C015 3213   9.591   1.428   8.628  0.7454 -0.4396 -0.5875
   184G12c C010 3214   9.617   1.498   8.503  0.0485  1.3090  0.7640
   184G12c C011 3215   9.539   1.449   8.395 -1.3025  0.0209  0.2852
   184G12c H005 3216   9.559   1.491   8.297  7.2576 -7.4987 -1.9812
   184G12c C012 3217   9.461   1.336   8.397  0.3875  2.1977  2.2066
   184G12c C017 3218   9.399   1.276   8.294  0.2471  0.7612  0.8776
   184G12c O002 3219   9.466   1.176   8.212 -0.5338 -1.1293 -0.2988
   184G12c H004 3220   9.523   1.117   8.259  2.2025 -0.5744 -2.8316
   184G12c C018 3221   9.278   1.325   8.275  1.9012  0.2210 -0.6145
   184G12c O001 3222   9.229   1.431   8.357 -0.6703  1.2017  0.0262
   184G12c H003 3223   9.151   1.459   8.312 -0.6570  0.3645 -0.5391
   184G12c C019 3224   9.160   1.274   8.178  0.9299  0.2095 -1.0292
   184G12c H002 3225   9.147   1.323   8.082 -2.6267  5.0665  1.6931
   184G12c H001 3226   9.216   1.197   8.125 -0.1037 -4.9088  4.7099
   184G12c O000 3227   9.030   1.227   8.213  0.3817 -1.4949 -0.8851
   184G12c C01A 3228   8.995   1.106   8.134  0.3868 -0.6225 -0.2592
   184G12c C02K 3229   9.058   0.987   8.156 -1.5707  0.0154  0.2667
   184G12c O00G 3230   9.173   0.987   8.243  0.7311  0.2405 -0.7612
   184G12c C02M 3231   9.202   0.876   8.320 -1.0339 -1.4602 -0.2539
   184G12c H01G 3232   9.290   0.877   8.385  2.9146 -0.4618 -5.3165
   184G12c H01F 3233   9.240   0.820   8.234 -0.0493 -0.6063 -0.3826
   184G12c H01E 3234   9.114   0.828   8.363  0.2418 -2.8112  0.9428
   184G12c C02J 3235   9.027   0.874   8.072  0.5486 -0.1744 -0.0649
   184G12c H01H 3236   9.075   0.783   8.104 -2.6387 -3.5426 -4.3024
   184G12c C02I 3237   8.969   0.902   7.957  0.6769 -0.7576  1.9197
   184G12c C02N 3238   8.952   0.800   7.872  1.2757 -0.2517  1.0183
   184G12c H01M 3239   8.864   0.738   7.874 -2.1551  3.4774 -7.8852
   184G12c C02O 3240   9.033   0.786   7.766 -2.3449  0.1108 -0.9269
   184G12c H01L 3241   9.136   0.816   7.782 -3.6615  3.4525  1.6270
   184G12c C02P 3242   8.989   0.681   7.661 -1.1705 -0.1166 -0.0104
   184G12c H01K 3243   9.061   0.599   7.654 -0.0496  0.7256  1.4821
   184G12c H01J 3244   8.886   0.651   7.680 -0.0280 -4.1033  0.4336
   184G12c O00H 3245   8.953   0.741   7.529 -0.9599  0.1766 -1.3653
   184G12c H01I 3246   9.012   0.704   7.465  1.6810 -1.9758  2.0998
   184G12c C02H 3247   8.911   1.030   7.919  1.4987  0.8377  1.1464
   184G12c H01C 3248   8.852   1.051   7.832  0.9381  1.8016  1.7489
   184G12c C02L 3249   8.913   1.128   8.022 -0.0502  0.1027  0.5467
   184G12c H01D 3250   8.852   1.217   8.010 -1.2397 -0.8536 -0.7789
   184G12c C013 3251   9.458   1.271   8.524 -0.8652  0.3701  0.0756
   184G12c H000 3252   9.398   1.181   8.531  2.1964 -1.9041 -1.8876
   184G12c C014 3253   9.525   1.309   8.647  3.2785  0.1109 -0.6255
   184G12c C00F 3254   9.518   1.247   8.766  1.9725  0.2883  1.4706
   184G12c C00H 3255   9.658   1.421   8.868 -1.0583 -1.3959  0.6737
   184G12c C00I 3256   9.718   1.490   8.967  0.8029  1.5127 -1.3565
   184G12c C00J 3257   9.784   1.603   8.946 -0.0499  1.4786 -0.5685
   184G12c C00Z 3258   9.675   1.632   8.502 -0.3548  1.4023  1.2577
   184G12c C00Y 3259   9.673   1.710   8.377  0.9705 -1.2363  1.3558
   184G12c H006 3260   9.628   1.698   8.279 -0.2712  2.6487  1.3625
   184G12c C00X 3261   9.738   1.829   8.370 -1.2339 -0.4094  0.2649
   184G12c O003 3262   9.773   1.878   8.250  1.7876  0.4134  1.0948
   184G12c C01B 3263   9.733   2.006   8.213 -0.5556  0.6867 -1.0473
   184G12c H009 3264   9.630   1.979   8.190 -0.6144  0.1140 -0.1476
   184G12c H008 3265   9.785   2.010   8.117  1.8022  1.8468  0.2541
   184G12c H007 3266   9.773   2.090   8.268  3.6803 -2.0600  0.3339
   184G12c C00W 3267   9.758   1.910   8.490  1.2717 -0.2173 -0.1583
   184G12c O004 3268   9.799   2.047   8.498 -0.0385 -0.6086  1.0912
   184G12c C01C 3269   9.777   2.118   8.619  0.3973  0.7434 -1.4057
   184G12c H00A 3270   9.700   2.189   8.592 -2.2851 -1.6067 -0.1267
   184G12c C00P 3271   9.795   2.053   8.742 -0.1447  0.9201 -1.0944
   184G12c C00O 3272   9.787   2.116   8.872  3.0063 -0.8007  0.6916
   184G12c C01D 3273   9.696   2.239   8.873  0.0880  1.6466 -0.3881
   184G12c H00S 3274   9.697   2.306   8.788 -0.3745  1.7804 -0.2876
   184G12c C01E 3275   9.647   2.305   8.991 -0.9250  0.5530 -1.5557
   184G12c O008 3276   9.578   2.408   8.986  2.0814 -0.9434  0.0236
   184G12c C01V 3277   9.633   2.540   8.959  1.1801  0.9640  0.0651
   184G12c C01Z 3278   9.748   2.563   8.851 -0.4451  1.4124 -1.0375
   184G12c H00R 3279   9.845   2.612   8.852 -0.4923  1.5280 -1.7818
   184G12c H00Q 3280   9.772   2.470   8.902 -5.9488 -0.0486 -0.7628
   184G12c O009 3281   9.708   2.540   8.733  0.1189 -0.3729  0.0796
   184G12c H00P 3282   9.681   2.626   8.704 -3.3550 -0.3993  2.9297
   184G12c C01W 3283   9.563   2.651   8.973 -0.4679  0.8202 -0.9213
   184G12c H00O 3284   9.462   2.648   9.010 -1.7728  2.9173 -4.0637
   184G12c C01X 3285   9.575   2.802   8.924  0.6676  0.3204  0.9879
   184G12c H00N 3286   9.499   2.862   8.974 -0.2352  1.9734 -2.2320
   184G12c H00M 3287   9.681   2.824   8.909  0.0159  2.3351 -1.1280
   184G12c C01Y 3288   9.517   2.802   8.764 -2.0010  1.1263  1.9840
   184G12c C02D 3289   9.386   2.752   8.736 -0.5749 -1.5157 -1.3500
   184G12c H019 3290   9.349   2.713   8.829  5.7684 -0.1475  2.0512
   184G12c C02C 3291   9.320   2.769   8.617 -1.3750  3.4353 -0.0361
   184G12c H01A 3292   9.224   2.718   8.617  0.6777 -0.6309  1.7799
   184G12c C02B 3293   9.369   2.859   8.517  1.6049 -1.3030 -0.4659
   184G12c O00E 3294   9.274   2.894   8.410 -0.7899  0.4942 -0.8788
   184G12c H01B 3295   9.317   2.952   8.350  0.1406 -2.6566 -3.3545
   184G12c C02F 3296   9.478   2.937   8.563 -0.0901 -0.3395  0.6503
   184G12c O00F 3297   9.505   3.041   8.489  0.2422 -0.7717 -1.4466
   184G12c C02G 3298   9.551   3.164   8.546  1.5690 -1.3525 -2.7427
   184G12c H017 3299   9.472   3.227   8.506 -0.9491 -3.5593 -1.4630
   184G12c H016 3300   9.653   3.186   8.516  2.5877  5.4174  4.1777
   184G12c H015 3301   9.540   3.150   8.653 -2.3195 -1.9610 -3.1224
   184G12c C02E 3302   9.560   2.913   8.674 -0.3568 -1.5316  2.6691
   184G12c H018 3303   9.648   2.952   8.723 -1.5612  2.4994  1.7458
   184G12c C01F 3304   9.651   2.232   9.112  0.0246  0.9631  0.1744
   184G12c C01G 3305   9.588   2.279   9.244  1.6114  2.7352 -0.1773
   184G12c H00L 3306   9.514   2.357   9.254 -0.7612  0.2335  2.6400
   184G12c C01H 3307   9.601   2.183   9.356  1.1594 -0.3077  0.0318
   184G12c H00B 3308   9.520   2.180   9.427 -1.4975  3.9805 -2.6022
   184G12c C01I 3309   9.706   2.084   9.343 -0.9585 -1.2221  0.9294
   184G12c C01U 3310   9.747   2.138   9.115  0.9434 -0.6982  0.8019
   184G12c C00S 3311   9.767   1.667   8.822 -0.3884  0.4356  0.5464
   184G12c C00K 3312   9.788   1.701   9.055  0.9690 -0.3826 -0.5190
   184G12c C00N 3313   9.782   2.067   9.000 -0.4757  0.4256  0.9725
   184G12c C000 3314   9.796   2.085   9.233 -1.1223  0.7810 -2.1377
   184G12c C01J 3315   9.693   1.956   9.395  0.1757  1.9944 -0.8991
   184G12c C01K 3316   9.614   1.896   9.511  0.7252 -0.9424  0.8437
   184G12c C01P 3317   9.570   1.978   9.620  1.1966  0.2343 -0.5365
   184G12c C01Q 3318   9.597   2.117   9.648  1.7997 -0.0117  1.8547
   184G12c H00G 3319   9.520   2.191   9.632  1.7883 -0.0377  1.7876
   184G12c C01R 3320   9.700   2.151   9.731  1.3435  1.0305 -0.6477
   184G12c H00F 3321   9.741   2.247   9.706 -3.7941  4.7252  4.0312
   184G12c C01S 3322   9.824   2.068   9.776 -0.0990  1.1814 -0.6762
   184G12c H00E 3323   9.848   1.962   9.773  2.0276  1.4099  4.0442
   184G12c H00D 3324   9.890   2.111   9.700  2.8481 -4.2941 -1.4094
   184G12c O005 3325   9.850   2.115   9.902  0.2673  0.1676  0.7206
   184G12c H00C 3326   9.854   2.068   9.984  2.2787  1.1205  1.2204
   184G12c C01O 3327   9.468   1.938   9.704  0.2469  0.1942 -0.0377
   184G12c H00H 3328   9.469   1.994   9.796  0.2693  1.6753 -0.9339
   184G12c C01N 3329   9.432   1.796   9.699 -1.1328 -2.0364  2.1504
   184G12c O006 3330   9.356   1.739   9.806  0.2180 -0.7105 -0.5774
   184G12c C01T 3331   9.369   1.606   9.825 -1.7921 -1.8953  0.0683
   184G12c H00K 3332   9.466   1.558   9.813  1.7512  4.4605  1.5655
   184G12c H00J 3333   9.275   1.555   9.803 -0.9713 -4.0116  1.3309
   184G12c H00I 3334   9.369   1.603   9.934 -3.2739  4.5340  0.4323
   184G12c C01M 3335   9.466   1.720   9.573 -0.7373 -0.1725  1.8351
   184G12c C020 3336   9.733   1.644   9.177 -2.0916  2.3777 -1.5833
   184G12c C021 3337   9.714   1.497   9.203 -1.0710 -1.1161  0.4576
   184G12c C01L 3338   9.555   1.768   9.481  1.1629 -1.2856  3.0772
   184G12c O007 3339   9.390   1.602   9.554 -0.8504  0.6703  0.3922
   184G12c C022 3340   9.630   1.450   9.310 -1.3614 -0.4984  0.6757
   184G12c C023 3341   9.695   1.418   9.092  0.8821 -0.5531 -0.0944
   184G12c C00G 3342   9.575   1.305   8.883  0.7447  0.0718 -0.2732
   184G12c C00E 3343   9.436   1.127   8.778  0.2716  0.7334  0.0480
   184G12c O00A 3344   9.410   1.029   8.689 -0.2799 -0.9759  0.4236
   184G12c C024 3345   9.515   0.970   8.645  0.0850 -0.9713  0.3777
   184G12c H00V 3346   9.521   0.863   8.625 -3.6265 -1.2614  0.4116
   184G12c H00U 3347   9.529   0.999   8.541 -3.0114 -3.1877 -0.7314
   184G12c H00T 3348   9.602   0.994   8.707 -1.9758  0.6010  2.7576
   194G12c C00D 3349   1.928   7.623   4.263 -0.3069  0.8342  1.3497
   194G12c O00B 3350   1.841   7.525   4.258  0.2260  0.2886 -1.1279
   194G12c C025 3351   1.749   7.505   4.160  0.6081 -0.0839  1.0209
   194G12c C026 3352   1.798   7.524   4.010  0.1182  0.0530 -1.1707
   194G12c H00Y 3353   1.801   7.416   3.997 -3.4943  0.1049 -2.8481
   194G12c H00X 3354   1.906   7.537   4.001  0.9231 -5.7861 -2.1855
   194G12c O00C 3355   1.722   7.611   3.931 -1.5828 -1.3532  1.1285
   194G12c H00W 3356   1.630   7.599   3.948 -2.2456  3.4572  1.7755
   194G12c C027 3357   1.638   7.430   4.193  0.5930 -1.9575 -0.9021
   194G12c O00D 3358   1.608   7.420   4.328 -2.3446 -0.6084  0.1211
   194G12c H00Z 3359   1.674   7.437   4.393  0.9684 -2.7134 -2.5005
   194G12c C028 3360   1.534   7.399   4.096 -0.7123  0.8497 -0.3503
   194G12c C029 3361   1.459   7.505   4.044  0.0113 -0.2528 -0.4217
   194G12c H010 3362   1.465   7.607   4.077 -1.6864 -1.2132  3.0259
   194G12c C02T 3363   1.378   7.496   3.936  1.1677  0.4550  2.7770
   194G12c H01O 3364   1.364   7.587   3.879 -0.9538 -3.3192 -3.1985
   194G12c C02S 3365   1.342   7.380   3.886 -0.7684  1.1729 -1.2608
   194G12c O00J 3366   1.280   7.373   3.768  0.0441  0.1203  0.1065
   194G12c H01P 3367   1.308   7.283   3.775 -5.1891 -1.8854 -2.1868
   194G12c C02R 3368   1.418   7.272   3.945 -0.1891  0.0822 -0.5184
   194G12c O00I 3369   1.409   7.158   3.872  0.0882 -0.1163  0.9328
   194G12c C02Q 3370   1.315   7.067   3.928 -0.7026 -0.2191  0.0431
   194G12c H01N 3371   1.222   7.123   3.927 -2.1545 -2.4094  3.4871
   194G12c H01R 3372   1.326   7.061   4.036 -3.5887  8.6757  1.2134
   194G12c H01Q 3373   1.350   6.984   3.867  4.6239  0.7679  1.4968
   194G12c C02A 3374   1.510   7.280   4.042  0.9922 -0.6947 -1.0969
   194G12c H011 3375   1.566   7.188   4.054  4.3250  1.6298  2.3024
   194G12c C00C 3376   1.903   7.733   4.354 -0.4748 -0.2527 -0.5623
   194G12c H012 3377   1.797   7.731   4.374 -0.9427 -4.1125 -2.9919
   194G12c C00B 3378   1.993   7.850   4.382  0.2792  0.2006  1.1141
   194G12c C00A 3379   1.991   7.969   4.471  0.7017  0.8537 -0.2994
   194G12c C009 3380   1.890   8.055   4.537  0.5149  0.6705  3.2711
   194G12c C008 3381   1.753   8.081   4.512 -1.1280 -0.1370 -0.7978
   194G12c H013 3382   1.687   8.014   4.458  0.6837 -3.3557  0.8361
   194G12c C007 3383   1.696   8.202   4.528 -0.6372  0.6990  0.0236
   194G12c H014 3384   1.594   8.200   4.493 -0.6442 -2.8589  0.0432
   194G12c C006 3385   1.762   8.300   4.596  0.0102  0.0685 -1.3995
   194G12c C005 3386   1.895   8.286   4.623  0.0212  0.6629  1.2654
   194G12c C004 3387   1.987   8.386   4.645  0.1706 -0.1073 -0.4485
   194G12c C003 3388   2.126   8.352   4.631 -1.4411  0.9795  0.4337
   194G12c C002 3389   2.211   8.470   4.641 -0.1964 -0.4492  0.1163
   194G12c C001 3390   2.348   8.497   4.622  0.7083  0.8326  1.1886
   194G12c C00M 3391   2.424   8.428   4.510 -1.0446 -1.6350  0.3434
   194G12c C00L 3392   2.438   8.283   4.497  1.4312  0.5854 -1.6741
   194G12c C00R 3393   2.487   8.226   4.375  0.5098  1.0662  2.0975
   194G12c C00Q 3394   2.548   8.282   4.257  0.4826 -1.4426  0.3073
   194G12c C00V 3395   2.564   8.188   4.151 -0.4714 -0.9739  0.1715
   194G12c C00U 3396   2.484   8.071   4.138 -1.9068 -0.5031  0.4312
   194G12c C00T 3397   2.393   8.050   4.230  0.0067  0.8199 -1.1118
   194G12c C016 3398   2.325   7.931   4.225  0.4478  0.4780 -0.8995
   194G12c C015 3399   2.335   7.836   4.125 -0.4165  0.1633  1.1638
   194G12c C010 3400   2.437   7.860   4.037  1.9757 -0.3770 -1.1393
   194G12c C011 3401   2.431   7.774   3.925  1.7761 -0.5936 -0.3367
   194G12c H005 3402   2.514   7.779   3.857 -1.7602 -4.3960 -5.3592
   194G12c C012 3403   2.360   7.654   3.907  2.2858 -0.7251 -0.4559
   194G12c C017 3404   2.388   7.546   3.807 -0.7567  0.5077 -1.0589
   194G12c O002 3405   2.390   7.589   3.681 -0.6251 -0.4325  0.4233
   194G12c H004 3406   2.321   7.536   3.645  1.9207 -2.4931 -1.6491
   194G12c C018 3407   2.422   7.412   3.848  0.9565  0.6096  0.0331
   194G12c O001 3408   2.433   7.375   3.981  0.3477  0.3851  0.4087
   194G12c H003 3409   2.429   7.281   3.973 -3.7375  0.7436 -6.9951
   194G12c C019 3410   2.478   7.306   3.745 -1.9113  0.5533 -0.3908
   194G12c H002 3411   2.553   7.379   3.714 -1.5364  0.8429  1.1443
   194G12c H001 3412   2.569   7.263   3.787 -0.1747  3.2853 -1.2313
   194G12c O000 3413   2.427   7.175   3.733 -0.0468  0.0721  0.1656
   194G12c C01A 3414   2.506   7.079   3.661  1.1445  0.8202 -1.3298
   194G12c C02K 3415   2.523   7.088   3.516  0.1546  0.7175  0.9197
   194G12c O00G 3416   2.432   7.177   3.461 -0.0938  1.4870  0.9394
   194G12c C02M 3417   2.493   7.313   3.416 -0.8000  0.8273  1.7359
   194G12c H01G 3418   2.567   7.323   3.337  0.5066  4.0817  3.2689
   194G12c H01F 3419   2.549   7.349   3.502 -2.7399  0.1488  3.3234
   194G12c H01E 3420   2.431   7.403   3.417  0.4641  1.7787 -1.2999
   194G12c C02J 3421   2.616   7.025   3.446  0.5039  0.5116  0.6063
   194G12c H01H 3422   2.638   7.079   3.356  0.9927  2.2224  1.7188
   194G12c C02I 3423   2.727   6.967   3.507 -0.7139 -0.5703 -0.2577
   194G12c C02N 3424   2.824   6.918   3.423 -1.5927  1.0415 -0.5139
   194G12c H01M 3425   2.824   6.860   3.331  4.9384  1.6524 -1.1171
   194G12c C02O 3426   2.960   6.926   3.452  1.6306 -0.2621 -1.0886
   194G12c H01L 3427   2.987   6.962   3.550 -0.5194  2.1241 -1.3322
   194G12c C02P 3428   3.065   6.869   3.373  0.2694  0.6228  0.1923
   194G12c H01K 3429   3.141   6.827   3.439  0.1009  2.1524  1.3726
   194G12c H01J 3430   3.026   6.771   3.343  3.1035  0.5813 -3.6761
   194G12c O00H 3431   3.079   6.977   3.259 -1.1982  0.3320 -0.9241
   194G12c H01I 3432   3.145   7.042   3.274 -2.0175  0.6092  1.6346
   194G12c C02H 3433   2.715   6.954   3.652 -0.2205 -0.4296 -0.2869
   194G12c H01C 3434   2.799   6.899   3.693 -2.1329  0.6924  5.6268
   194G12c C02L 3435   2.606   6.992   3.723 -0.1461  0.7137 -0.4923
   194G12c H01D 3436   2.598   6.951   3.823 -4.5923  3.9983  0.6726
   194G12c C013 3437   2.255   7.663   4.003  0.3323 -0.2455 -0.8357
   194G12c H000 3438   2.199   7.572   3.988 -1.1551  0.8209 -1.8911
   194G12c C014 3439   2.236   7.748   4.112  0.5827  0.9111  0.2191
   194G12c C00F 3440   2.129   7.740   4.216 -0.4775  0.8063  0.8265
   194G12c C00H 3441   2.219   7.908   4.336 -1.1477 -1.0889  0.3079
   194G12c C00I 3442   2.211   8.005   4.437  0.1109 -0.8513  0.1144
   194G12c C00J 3443   2.328   8.081   4.454 -0.2766 -0.0386 -0.1717
   194G12c C00Z 3444   2.513   7.976   4.040  1.8505 -2.1089 -0.1872
   194G12c C00Y 3445   2.616   8.014   3.947 -0.8259  1.3299 -0.1865
   194G12c H006 3446   2.646   7.939   3.875 -6.3768  1.8582 -3.3662
   194G12c C00X 3447   2.693   8.129   3.950 -0.8549 -0.2642  0.4825
   194G12c O003 3448   2.790   8.165   3.868  0.1629 -3.0392 -0.8023
   194G12c C01B 3449   2.763   8.203   3.724  0.9934  0.7009 -0.2183
   194G12c H009 3450   2.675   8.262   3.703  0.8521  2.6646  4.9406
   194G12c H008 3451   2.726   8.107   3.689  0.8085  1.1137 -1.1425
   194G12c H007 3452   2.857   8.226   3.673 -0.9089  4.6092 -2.1416
   194G12c C00W 3453   2.649   8.219   4.040  0.1155 -1.4494 -0.8348
   194G12c O004 3454   2.712   8.345   4.029  0.4244  0.7227 -0.0196
   194G12c C01C 3455   2.660   8.436   4.100 -0.0420  0.3364 -0.2496
   194G12c H00A 3456   2.735   8.512   4.112 -1.0341  2.9315 -7.6539
   194G12c C00P 3457   2.584   8.416   4.219  0.6799 -0.8673  0.9942
   194G12c C00O 3458   2.544   8.527   4.302  0.3390  0.0263  1.6019
   194G12c C01D 3459   2.570   8.663   4.256 -0.9803  0.2779 -0.5661
   194G12c H00S 3460   2.609   8.656   4.156  3.7569 -1.4810  1.2324
   194G12c C01E 3461   2.532   8.790   4.329 -1.0038 -0.0200 -1.0138
   194G12c O008 3462   2.566   8.919   4.271 -0.3466 -0.0392 -0.4600
   194G12c C01V 3463   2.672   8.943   4.191 -1.2636  0.3997  0.2465
   194G12c C01Z 3464   2.631   8.934   4.040 -0.1437  1.9133 -1.5802
   194G12c H00R 3465   2.721   8.985   4.006  4.9015 -5.3979 -0.3697
   194G12c H00Q 3466   2.622   8.847   3.975 -0.7211  1.0178 -0.3154
   194G12c O009 3467   2.545   9.045   4.045 -1.7190  0.8025 -0.8489
   194G12c H00P 3468   2.521   9.047   4.136  7.5507  1.5798  2.1733
   194G12c C01W 3469   2.791   8.956   4.243  0.5056  1.6619  1.1679
   194G12c H00O 3470   2.802   8.956   4.351  0.6943 -1.3807  1.2131
   194G12c C01X 3471   2.931   8.984   4.170  0.2784  0.7935  0.5784
   194G12c H00N 3472   2.931   9.087   4.134 -5.5542 -1.1141 -6.0220
   194G12c H00M 3473   3.015   8.939   4.223  3.0373  2.2171 -2.4185
   194G12c C01Y 3474   2.998   8.900   4.053 -2.0830  0.1834  0.4035
   194G12c C02D 3475   3.104   8.962   3.985 -0.9942  0.5276 -2.1741
   194G12c H019 3476   3.138   9.055   4.029  3.0280 -2.2152  0.9298
   194G12c C02C 3477   3.160   8.916   3.869  0.7649 -1.6516 -0.0808
   194G12c H01A 3478   3.239   8.970   3.819 -1.3134  0.0612 -1.6102
   194G12c C02B 3479   3.117   8.789   3.831  0.3817 -0.6073 -0.3179
   194G12c O00E 3480   3.200   8.762   3.718 -0.5744 -0.6454  0.3644
   194G12c H01B 3481   3.199   8.671   3.746 -3.1426 -0.6365  0.4245
   194G12c C02F 3482   2.998   8.719   3.878  3.4302  0.9572  0.8339
   194G12c O00F 3483   2.937   8.616   3.820 -0.1848 -0.7822  0.8556
   194G12c C02G 3484   3.008   8.500   3.801  0.0342 -0.6522  0.6595
   194G12c H017 3485   3.058   8.450   3.884  2.5321 -1.2284 -1.1253
   194G12c H016 3486   3.084   8.500   3.723 -2.8424 -2.4069 -2.2281
   194G12c H015 3487   2.909   8.455   3.807 -0.0167 -1.4233 -4.3045
   194G12c C02E 3488   2.940   8.787   3.984  0.1816  2.3173 -0.3627
   194G12c H018 3489   2.850   8.758   4.036  1.4176 -1.8208 -0.3426
   194G12c C01F 3490   2.447   8.771   4.429  0.5752 -0.8449  0.5119
   194G12c C01G 3491   2.347   8.872   4.468  2.0496 -1.3522  1.0053
   194G12c H00L 3492   2.340   8.968   4.419 -1.4857 -0.7242  2.5797
   194G12c C01H 3493   2.234   8.829   4.561 -0.3382 -0.2446 -1.2132
   194G12c H00B 3494   2.132   8.857   4.541 -1.4019 -2.3230  1.0412
   194G12c C01I 3495   2.253   8.713   4.635  0.2962  0.1636  0.9036
   194G12c C01U 3496   2.450   8.648   4.500  1.1328  0.1198  0.8959
   194G12c C00S 3497   2.418   8.104   4.350 -0.2924 -0.1043 -0.4929
   194G12c C00K 3498   2.318   8.208   4.529 -0.5075 -1.1527 -0.0622
   194G12c C00N 3499   2.484   8.526   4.440  0.3928  0.5389 -0.3946
   194G12c C000 3500   2.366   8.636   4.615  0.1612  0.9848  0.5174
   194G12c C01J 3501   2.152   8.597   4.660  0.4364 -0.7552 -1.1518
   194G12c C01K 3502   2.005   8.609   4.700  0.0420  0.1128 -0.1440
   194G12c C01P 3503   1.936   8.727   4.751 -0.9864 -0.7694  0.5487
   194G12c C01Q 3504   2.015   8.832   4.832 -1.2226 -0.9364  0.4413
   194G12c H00G 3505   2.050   8.810   4.931 -0.2595  0.1761  0.3593
   194G12c C01R 3506   2.012   8.954   4.792  0.4608  1.0082 -0.9577
   194G12c H00F 3507   1.973   8.980   4.694  3.2965 -3.3156 -3.3848
   194G12c C01S 3508   2.050   9.077   4.853  1.2434  1.2210  0.2196
   194G12c H00E 3509   2.077   9.085   4.959  1.9282  2.4445 -0.0487
   194G12c H00D 3510   2.140   9.063   4.793 -0.1077  1.4626 -1.8712
   194G12c O005 3511   1.941   9.153   4.853 -0.7213 -1.2308 -0.1440
   194G12c H00C 3512   1.872   9.100   4.890  0.6815 -1.2062  2.6126
   194G12c C01O 3513   1.805   8.729   4.805 -0.3683 -3.1563  0.6047
   194G12c H00H 3514   1.793   8.801   4.885  0.6466  0.5955 -2.5079
   194G12c C01N 3515   1.728   8.623   4.760 -0.2754 -1.0274  0.2393
   194G12c O006 3516   1.581   8.627   4.770 -0.8380 -1.2366 -0.7131
   194G12c C01T 3517   1.536   8.734   4.846 -1.0153  0.4060  0.3716
   194G12c H00K 3518   1.566   8.831   4.806 -0.5578  1.0789  2.3041
   194G12c H00J 3519   1.570   8.708   4.946 -3.6663 -7.7956 -0.4478
   194G12c H00I 3520   1.435   8.694   4.835  0.8260 -4.2154 -0.9290
   194G12c C01M 3521   1.779   8.512   4.693 -1.5505  0.4385 -0.9559
   194G12c C020 3522   2.183   8.238   4.591  1.0560  0.7749 -1.9440
   194G12c C021 3523   2.093   8.135   4.592  0.8303 -0.0637  0.2610
   194G12c C01L 3524   1.926   8.502   4.667 -0.7884 -0.7830 -0.7291
   194G12c O007 3525   1.699   8.413   4.656 -1.0046  0.8502 -0.1202
   194G12c C022 3526   1.959   8.153   4.608 -0.3988  0.7281  2.1878
   194G12c C023 3527   2.107   8.006   4.530  0.9300 -0.1990  0.0321
   194G12c C00G 3528   2.112   7.828   4.310  0.7067  0.3682 -0.3614
   194G12c C00E 3529   2.056   7.621   4.212 -0.1751 -1.3401 -0.7039
   194G12c O00A 3530   2.096   7.499   4.154  0.9048 -0.3634 -0.3504
   194G12c C024 3531   2.155   7.420   4.254  0.2751  0.3783  1.0713
   194G12c H00V 3532   2.124   7.439   4.356 -0.3862 -1.4229  1.2153
   194G12c H00U 3533   2.256   7.461   4.258  3.2179 -6.3269  2.3753
   194G12c H00T 3534   2.147   7.319   4.214  2.1552  1.0147 -1.0139
   204G12c C00D 3535   3.215   7.131   8.270  0.2722 -0.0118 -1.3262
   204G12c O00B 3536   3.181   7.074   8.389  0.7275  1.7811  0.8867
   204G12c C025 3537   3.095   6.969   8.397  0.0818 -0.5174  2.0731
   204G12c C026 3538   3.098   6.931   8.544  1.3547 -0.3397  1.0237
   204G12c H00Y 3539   3.151   6.840   8.572  2.5395 -0.4016 -1.3552
   204G12c H00X 3540   2.994   6.923   8.578  1.7458  5.0066  4.2222
   204G12c O00C 3541   3.145   7.038   8.631  0.5881 -1.0040  1.4618
   204G12c H00W 3542   3.127   7.119   8.586 -2.4462 -1.7051  1.2925
   204G12c C027 3543   3.013   6.906   8.303  0.8886 -1.4126  0.0632
   204G12c O00D 3544   3.025   6.944   8.174  1.9821  0.2182 -0.7589
   204G12c H00Z 3545   3.022   6.860   8.131 -4.0330 -0.1720 -0.0250
   204G12c C028 3546   2.895   6.836   8.350  1.3048  1.0196 -1.5865
   204G12c C029 3547   2.873   6.712   8.312  0.3273 -0.9599 -0.3570
   204G12c H010 3548   2.945   6.644   8.267 -1.3438 -3.6134  0.8375
   204G12c C02T 3549   2.767   6.628   8.358  1.0263 -0.8153  0.9003
   204G12c H01O 3550   2.792   6.524   8.343 -0.1234 -0.5847 -3.0592
   204G12c C02S 3551   2.645   6.697   8.410  0.6328 -0.0634  0.9990
   204G12c O00J 3552   2.551   6.613   8.462  0.7271  0.6830 -0.7001
   204G12c H01P 3553   2.514   6.652   8.540  2.5401 -4.5392  3.0637
   204G12c C02R 3554   2.650   6.841   8.422 -0.3071  0.2447  0.1828
   204G12c O00I 3555   2.555   6.910   8.478  0.3712  0.3249 -0.2726
   204G12c C02Q 3556   2.563   7.059   8.492 -2.1149 -0.3516  1.2626
   204G12c H01N 3557   2.539   7.130   8.413 -2.2949 -1.9097 -0.1097
   204G12c H01R 3558   2.648   7.086   8.555  0.5945  0.8994 -2.7466
   204G12c H01Q 3559   2.480   7.050   8.563 -0.0388 -1.7500  3.6068
   204G12c C02A 3560   2.776   6.908   8.400 -0.1394  0.9504 -0.2951
   204G12c H011 3561   2.775   7.013   8.376  3.6851  0.1635 -4.5522
   204G12c C00C 3562   3.143   7.243   8.224  1.8784  0.9202  0.8223
   204G12c H012 3563   3.083   7.294   8.298 -0.4370  0.9832 -1.0594
   204G12c C00B 3564   3.168   7.315   8.112  0.6144  1.2601 -0.6594
   204G12c C00A 3565   3.090   7.425   8.049 -1.5616  1.5888 -0.2076
   204G12c C009 3566   2.952   7.458   8.057  0.4411 -0.1439 -1.5252
   204G12c C008 3567   2.839   7.419   8.150 -1.4712  0.9629 -1.0107
   204G12c H013 3568   2.856   7.357   8.237 -3.7629  1.2415 -0.3343
   204G12c C007 3569   2.716   7.403   8.076 -0.5624  0.4425 -0.1288
   204G12c H014 3570   2.660   7.325   8.126  1.4679 -2.1634 -1.7892
   204G12c C006 3571   2.677   7.472   7.964  1.3909 -0.0580 -0.1281
   204G12c C005 3572   2.785   7.524   7.899  1.4780  0.0044 -1.4111
   204G12c C004 3573   2.754   7.563   7.764  0.0843 -0.7224 -0.2535
   204G12c C003 3574   2.865   7.574   7.676  0.9911  0.0585 -0.9826
   204G12c C002 3575   2.828   7.553   7.528  1.0303 -0.9588 -0.4031
   204G12c C001 3576   2.902   7.515   7.415  2.4406 -1.5347 -0.2894
   204G12c C00M 3577   3.008   7.418   7.405  1.2728  0.8459  0.7333
   204G12c C00L 3578   3.128   7.451   7.475 -1.4708  0.8164  2.1206
   204G12c C00R 3579   3.217   7.346   7.476 -0.6613  1.3034 -1.1876
   204G12c C00Q 3580   3.270   7.251   7.376 -0.1512 -1.6755 -0.8154
   204G12c C00V 3581   3.377   7.164   7.424 -0.7090  1.1208  0.4510
   204G12c C00U 3582   3.409   7.153   7.559 -0.2141 -0.9362  0.4149
   204G12c C00T 3583   3.363   7.235   7.655  1.5929 -0.3874 -2.0977
   204G12c C016 3584   3.353   7.207   7.795 -0.1452  0.7791 -1.2702
   204G12c C015 3585   3.413   7.087   7.831 -0.2015  1.5035 -1.0083
   204G12c C010 3586   3.471   7.002   7.744  0.8092  0.3010  1.1427
   204G12c C011 3587   3.542   6.879   7.781  0.3284 -1.8881 -0.6968
   204G12c H005 3588   3.578   6.802   7.715  3.4012 -2.6502  1.7153
   204G12c C012 3589   3.529   6.841   7.930 -0.0864  0.8811  0.5274
   204G12c C017 3590   3.595   6.717   7.972 -1.1403 -1.5443 -0.0264
   204G12c O002 3591   3.741   6.729   7.971  0.0051  2.4581 -0.9554
   204G12c H004 3592   3.762   6.814   8.007 -1.5370 -0.6367  8.8148
   204G12c C018 3593   3.536   6.597   7.972 -1.5913  0.4413  0.2737
   204G12c O001 3594   3.401   6.578   7.927  0.8892 -0.2204  1.8630
   204G12c H003 3595   3.349   6.524   7.985  2.5373  1.8701  5.5155
   204G12c C019 3596   3.577   6.458   7.980  2.2653 -1.5932 -0.0414
   204G12c H002 3597   3.678   6.450   8.022  1.6543 -5.7466  0.9067
   204G12c H001 3598   3.575   6.414   7.880 -0.9310  3.6152 -2.4390
   204G12c O000 3599   3.509   6.402   8.078 -0.0149  0.7729  0.0811
   204G12c C01A 3600   3.380   6.358   8.088 -0.6304  1.6759  0.6783
   204G12c C02K 3601   3.324   6.416   8.199  0.4537 -1.4590 -0.2375
   204G12c O00G 3602   3.398   6.496   8.285  1.4255 -0.8531  0.2020
   204G12c C02M 3603   3.509   6.438   8.351 -0.7211 -0.9599  0.1103
   204G12c H01G 3604   3.578   6.517   8.379 -0.1158 -1.7170  0.8140
   204G12c H01F 3605   3.495   6.390   8.448  2.2968  0.4901  1.3320
   204G12c H01E 3606   3.593   6.392   8.298  3.2687 -2.6349  7.1168
   204G12c C02J 3607   3.180   6.386   8.216  0.1865  0.0506  0.0421
   204G12c H01H 3608   3.117   6.422   8.297  0.1694  1.1668 -0.4573
   204G12c C02I 3609   3.122   6.281   8.143  1.7805 -0.0594 -1.0433
   204G12c C02N 3610   3.002   6.221   8.168  0.8104 -0.5650 -0.4883
   204G12c H01M 3611   2.913   6.280   8.184  0.0966 -0.3442 -4.7296
   204G12c C02O 3612   3.001   6.087   8.194  1.6934  1.5449 -0.8416
   204G12c H01L 3613   3.093   6.033   8.177  0.4554 -1.3484  1.3903
   204G12c C02P 3614   2.875   6.015   8.257 -0.4688 -1.1124  1.3155
   204G12c H01K 3615   2.829   5.973   8.168  0.6185 -2.7575  1.5181
   204G12c H01J 3616   2.916   5.929   8.310 -0.9673  0.1425  3.8288
   204G12c O00H 3617   2.780   6.097   8.302 -0.0958  1.0267 -0.4148
   204G12c H01I 3618   2.697   6.051   8.307  1.7783 -2.1944  2.4318
   204G12c C02H 3619   3.187   6.240   8.029 -0.2273 -1.1289 -0.6935
   204G12c H01C 3620   3.123   6.172   7.976  3.9778 -6.2653  0.4451
   204G12c C02L 3621   3.315   6.285   7.990  0.3916 -1.9193 -1.7082
   204G12c H01D 3622   3.361   6.219   7.918 -4.0344  2.3543 -9.0448
   204G12c C013 3623   3.446   6.929   8.012 -0.3374  0.9811 -1.1421
   204G12c H000 3624   3.417   6.883   8.105  0.6208  2.4861 -0.0552
   204G12c C014 3625   3.399   7.060   7.969  0.9102  0.7728 -0.1944
   204G12c C00F 3626   3.334   7.142   8.054 -1.9161  1.1442 -0.5468
   204G12c C00H 3627   3.258   7.279   7.875 -2.6667  0.7894 -0.6991
   204G12c C00I 3628   3.203   7.400   7.830 -1.2399  1.9009  0.4789
   204G12c C00J 3629   3.195   7.413   7.688 -0.8004 -0.1664 -0.2925
   204G12c C00Z 3630   3.461   7.047   7.610 -1.6319  0.0138  0.8801
   204G12c C00Y 3631   3.521   6.958   7.520  0.3902 -1.4932 -0.6935
   204G12c H006 3632   3.606   6.895   7.542  1.1031  0.0920  1.3318
   204G12c C00X 3633   3.527   6.988   7.373  2.1412 -0.1592 -1.5561
   204G12c O003 3634   3.629   6.930   7.315 -1.2024  1.6756  1.5506
   204G12c C01B 3635   3.677   6.954   7.181  0.6575  0.1566 -1.2426
   204G12c H009 3636   3.756   7.026   7.205 -0.7187 -0.1095  4.8921
   204G12c H008 3637   3.710   6.876   7.112 -0.4001 -0.6524 -0.8410
   204G12c H007 3638   3.618   7.030   7.129 -1.0199  1.7865  2.8172
   204G12c C00W 3639   3.436   7.075   7.325  1.6664 -1.1064  0.4266
   204G12c O004 3640   3.408   7.085   7.192 -0.5936  0.6872 -0.1288
   204G12c C01C 3641   3.272   7.110   7.170  0.8714 -0.2107 -1.1270
   204G12c H00A 3642   3.236   7.009   7.185 -3.4462  0.3047 -6.4036
   204G12c C00P 3643   3.196   7.218   7.256  0.9020  0.0050 -0.5210
   204G12c C00O 3644   3.068   7.275   7.197 -2.9695 -0.3270  0.8063
   204G12c C01D 3645   3.005   7.204   7.092  1.1243 -0.3508 -1.9151
   204G12c H00S 3646   3.038   7.112   7.046  0.4903  0.4708 -4.0661
   204G12c C01E 3647   2.862   7.226   7.055  0.3551  0.1946  0.3955
   204G12c O008 3648   2.776   7.146   6.975  1.9036  1.4839  0.1713
   204G12c C01V 3649   2.850   7.056   6.887 -1.0291  1.2134  0.8549
   204G12c C01Z 3650   2.901   7.120   6.757 -1.4093  1.3162 -1.2474
   204G12c H00R 3651   2.937   7.213   6.801 -0.0296 -3.7378 10.1664
   204G12c H00Q 3652   2.971   7.059   6.699  1.7521  4.4122 -0.8479
   204G12c O009 3653   2.796   7.127   6.677  1.6821 -1.4139  0.1416
   204G12c H00P 3654   2.777   7.214   6.644  0.9815 -0.8718  1.9259
   204G12c C01W 3655   2.857   6.917   6.894  0.2617 -0.1550  0.2191
   204G12c H00O 3656   2.893   6.864   6.807 -3.6973 -2.2331 -0.3224
   204G12c C01X 3657   2.804   6.828   7.001 -1.0257 -0.9284 -0.3020
   204G12c H00N 3658   2.715   6.877   7.042  3.0216  6.2960  0.6607
   204G12c H00M 3659   2.791   6.734   6.947 -0.5514  3.2026 -8.5374
   204G12c C01Y 3660   2.913   6.816   7.090 -0.8788  0.5533  0.1759
   204G12c C02D 3661   2.987   6.693   7.135  0.5317  0.6898  1.5872
   204G12c H019 3662   2.966   6.600   7.083 -0.4768 -0.1435  3.4229
   204G12c C02C 3663   3.091   6.695   7.231  0.3916 -0.6777  0.8725
   204G12c H01A 3664   3.175   6.627   7.239  1.5650 -0.1431 -4.6647
   204G12c C02B 3665   3.117   6.818   7.305  1.2336 -0.1008  0.7188
   204G12c O00E 3666   3.211   6.841   7.398 -0.5240  0.1594  1.1623
   204G12c H01B 3667   3.193   6.920   7.448 -3.7995 -0.4455  1.0461
   204G12c C02F 3668   3.024   6.926   7.296 -1.1642  0.4101  0.3200
   204G12c O00F 3669   3.035   7.012   7.398  1.5905 -0.5269 -0.1694
   204G12c C02G 3670   2.928   7.039   7.510  2.2844  0.6357  1.3398
   204G12c H017 3671   2.957   7.130   7.562 -0.6837  0.7079  3.0186
   204G12c H016 3672   2.831   7.038   7.459  4.8254 -1.8709 -3.7029
   204G12c H015 3673   2.920   6.963   7.589 -2.9132 -4.4277 -3.5451
   204G12c C02E 3674   2.937   6.920   7.192  1.0399  0.1265 -0.7816
   204G12c H018 3675   2.853   6.987   7.188  2.4771  2.4320  3.9664
   204G12c C01F 3676   2.803   7.323   7.148  0.8044  1.1983 -2.4164
   204G12c C01G 3677   2.654   7.353   7.170  1.1152 -0.0330 -1.8658
   204G12c H00L 3678   2.600   7.281   7.110  1.5606 -1.9132 -0.0816
   204G12c C01H 3679   2.591   7.441   7.277 -0.9490  0.4527 -0.4748
   204G12c H00B 3680   2.486   7.449   7.299  0.7157  4.0929  8.1156
   204G12c C01I 3681   2.695   7.523   7.362  0.8765  0.3913  2.2062
   204G12c C01U 3682   2.873   7.418   7.225 -1.3801  0.6589  0.3746
   204G12c C00S 3683   3.279   7.342   7.611 -1.2047  1.5140  0.3514
   204G12c C00K 3684   3.103   7.498   7.616  0.6355 -1.8443  0.7507
   204G12c C00N 3685   2.996   7.366   7.271  1.6275 -1.3845  1.1170
   204G12c C000 3686   2.827   7.523   7.299 -0.7415  0.1159 -0.4199
   204G12c C01J 3687   2.689   7.575   7.489  0.2606  0.3233 -1.3851
   204G12c C01K 3688   2.580   7.580   7.574 -0.1824 -1.0091  1.0604
   204G12c C01P 3689   2.444   7.613   7.556 -0.2602  0.5471  0.7254
   204G12c C01Q 3690   2.405   7.692   7.445  0.7353 -0.9835  0.9773
   204G12c H00G 3691   2.343   7.645   7.369  1.9290 -2.7815  1.0861
   204G12c C01R 3692   2.446   7.823   7.413 -0.7597 -1.6770 -0.7543
   204G12c H00F 3693   2.531   7.847   7.475  0.4075 -2.3018 -2.0921
   204G12c C01S 3694   2.415   7.889   7.285  1.3838 -1.5276 -0.4653
   204G12c H00E 3695   2.446   7.993   7.278  1.6620 -1.4686  1.3935
   204G12c H00D 3696   2.430   7.812   7.210 -0.7321 -1.4912 -0.9514
   204G12c O005 3697   2.280   7.914   7.261 -1.4955  0.4953 -0.0625
   204G12c H00C 3698   2.240   7.891   7.344  6.4248 -7.4200  2.3757
   204G12c C01O 3699   2.355   7.616   7.660  0.9690 -0.5444  0.3503
   204G12c H00H 3700   2.263   7.673   7.653 -0.7721 -2.3754  5.5732
   204G12c C01N 3701   2.378   7.534   7.770  0.4496 -0.2904  0.4279
   204G12c O006 3702   2.302   7.518   7.875 -0.1663 -0.9822  0.1630
   204G12c C01T 3703   2.159   7.529   7.857  1.4328  0.0130 -1.3802
   204G12c H00K 3704   2.123   7.475   7.770  6.1878  2.4460 -5.0793
   204G12c H00J 3705   2.102   7.483   7.939 -3.0392  6.0332 -0.7724
   204G12c H00I 3706   2.130   7.634   7.860 -3.6696 -1.1963  5.0373
   204G12c C01M 3707   2.515   7.529   7.805 -0.2289 -0.1990  1.2408
   204G12c C020 3708   3.003   7.546   7.709 -0.8290  0.4658  0.7513
   204G12c C021 3709   3.017   7.538   7.857 -0.0358 -0.2503  0.6911
   204G12c C01L 3710   2.617   7.548   7.711 -1.4085 -0.7909 -0.3934
   204G12c O007 3711   2.546   7.474   7.927 -0.4082 -0.2825  1.2666
   204G12c C022 3712   2.912   7.553   7.958 -1.4052  1.0360 -0.2597
   204G12c C023 3713   3.122   7.470   7.916 -0.4725  1.1545 -0.2323
   204G12c C00G 3714   3.254   7.258   8.014 -0.1034  1.7428 -1.0153
   204G12c C00E 3715   3.321   7.093   8.192  2.2212 -0.2413 -1.3735
   204G12c O00A 3716   3.427   7.051   8.264  0.6557 -0.7052 -1.4355
   204G12c C024 3717   3.506   7.170   8.278 -1.9153  0.5016 -1.7521
   204G12c H00V 3718   3.604   7.148   8.321 -1.5887  2.6626 -1.3343
   204G12c H00U 3719   3.471   7.216   8.371  1.5994 -2.0451  0.9812
   204G12c H00T 3720   3.514   7.250   8.205  1.9008  2.2097  0.4244
   214G12c C00D 3721   5.986   3.973   0.109  1.0984 -0.3691  1.1436
   214G12c O00B 3722   6.105   3.910   0.111  0.1396 -0.3764  0.7596
   214G12c C025 3723   6.188   3.971   0.206 -1.2459 -0.3203  1.1004
   214G12c C026 3724   6.255   4.101   0.172 -1.0595  0.2684  0.9751
   214G12c H00Y 3725   6.262   4.156   0.267 -3.3686  1.4230  0.5153
   214G12c H00X 3726   6.196   4.176   0.119 -2.8288 -1.3318  0.6311
   214G12c O00C 3727   6.367   4.072   0.099 -0.1530  1.3841 -0.5647
   214G12c H00W 3728   6.355   3.990   0.053 -8.6702  1.3651  0.7542
   214G12c C027 3729   6.220   3.905   0.319 -1.8921 -1.0720 -0.0212
   214G12c O00D 3730   6.160   3.786   0.328  0.9688  0.3122  1.9855
   214G12c H00Z 3731   6.231   3.750   0.277 -0.6646  1.7166 -1.4891
   214G12c C028 3732   6.319   3.938   0.424 -2.6644 -0.1733  0.0274
   214G12c C029 3733   6.257   3.981   0.546 -1.7224 -0.2410  0.2361
   214G12c H010 3734   6.155   4.017   0.544 -0.9518  2.1757  1.6805
   214G12c C02T 3735   6.328   4.034   0.646 -1.0797  0.1996 -1.5022
   214G12c H01O 3736   6.287   4.090   0.729  1.8384  3.0520 -1.8319
   214G12c C02S 3737   6.466   4.026   0.645 -0.5099  0.4413  0.8180
   214G12c O00J 3738   6.526   4.021   0.763 -0.0465  0.7500 -1.8667
   214G12c H01P 3739   6.477   4.077   0.822  2.1818 -1.0857  1.9017
   214G12c C02R 3740   6.532   3.995   0.533 -0.3264  1.2126 -0.4525
   214G12c O00I 3741   6.676   3.999   0.524  0.5005 -1.3167  1.1297
   214G12c C02Q 3742   6.730   3.871   0.557 -0.5722  0.9845  0.6349
   214G12c H01N 3743   6.733   3.887   0.665 -0.7167 -5.0142  1.7269
   214G12c H01R 3744   6.674   3.777   0.552 -3.9488  3.0454 -3.6042
   214G12c H01Q 3745   6.824   3.840   0.510  2.0576  6.1970  2.0630
   214G12c C02A 3746   6.469   3.969   0.411 -0.9824 -1.2693 -1.4168
   214G12c H011 3747   6.532   3.988   0.326 -1.2671  0.8856 -1.1776
   214G12c C00C 3748   5.881   3.934   0.198  1.8343 -0.4482  1.3796
   214G12c H012 3749   5.918   3.877   0.283  4.8329  1.0192  1.1275
   214G12c C00B 3750   5.740   3.979   0.218 -0.7333 -0.4182  0.6546
   214G12c C00A 3751   5.626   3.938   0.294 -0.0874  0.1128  0.1001
   214G12c C009 3752   5.604   3.800   0.335 -0.2691 -0.8964 -0.9385
   214G12c C008 3753   5.670   3.677   0.324 -2.7158 -0.7281  1.1509
   214G12c H013 3754   5.771   3.671   0.286 -3.0396  3.3256 -0.6081
   214G12c C007 3755   5.603   3.564   0.342 -0.2674  1.1875  0.7873
   214G12c H014 3756   5.639   3.468   0.309 -1.4484  0.5343  1.3924
   214G12c C006 3757   5.457   3.560   0.364  1.2412  1.2851  1.3915
   214G12c C005 3758   5.402   3.684   0.367 -0.5289  1.1395 -0.1508
   214G12c C004 3759   5.264   3.689   0.329  0.8282  0.2535 -0.2455
   214G12c C003 3760   5.211   3.806   0.268  1.0251 -0.3608  0.9804
   214G12c C002 3761   5.071   3.797   0.251 -0.6346 -0.0409 -0.4102
   214G12c C001 3762   4.983   3.895   0.183 -1.0639  1.4210  1.8465
   214G12c C00M 3763   5.009   3.996   0.088 -0.9275  0.8139  1.3703
   214G12c C00L 3764   5.118   4.089   0.106 -0.1180  0.5140 -0.7685
   214G12c C00R 3765   5.201   4.155   0.009  0.4946 -0.1908  1.3752
   214G12c C00Q 3766   5.151   4.169  -0.130  1.3004 -1.1688  0.7291
   214G12c C00V 3767   5.237   4.224  -0.220 -0.7355  0.0221  0.5383
   214G12c C00U 3768   5.369   4.241  -0.178  0.3158 -0.4285  0.2512
   214G12c C00T 3769   5.431   4.224  -0.045  0.8837  1.8694  1.0761
   214G12c C016 3770   5.556   4.200  -0.018 -0.9400 -0.2237  1.3227
   214G12c C015 3771   5.647   4.229  -0.120 -1.4780  0.6066  1.6039
   214G12c C010 3772   5.608   4.284  -0.239  0.6918 -0.7930 -1.5034
   214G12c C011 3773   5.711   4.339  -0.322 -0.1744  0.0628 -1.1003
   214G12c H005 3774   5.695   4.345  -0.429  2.9835  1.1940 -1.5448
   214G12c C012 3775   5.838   4.357  -0.284 -0.9315  0.8580 -1.5438
   214G12c C017 3776   5.945   4.437  -0.353  0.6578 -0.1069 -0.9975
   214G12c O002 3777   6.060   4.354  -0.371 -0.6292  1.0234 -1.7437
   214G12c H004 3778   6.145   4.361  -0.331  1.7268 -0.0146 -6.2935
   214G12c C018 3779   5.929   4.578  -0.356  0.2811 -1.6783  1.7220
   214G12c O001 3780   5.802   4.634  -0.328 -0.6568  0.9766  0.2712
   214G12c H003 3781   5.751   4.587  -0.265  1.1203  0.0573  1.0774
   214G12c C019 3782   6.052   4.682  -0.372 -0.5166  0.5170  0.1741
   214G12c H002 3783   6.136   4.645  -0.429 -0.4978 -0.1061  0.5946
   214G12c H001 3784   6.004   4.779  -0.387 -0.3323  1.2750  3.8850
   214G12c O000 3785   6.099   4.669  -0.244 -0.6240 -1.3880 -0.0827
   214G12c C01A 3786   6.182   4.757  -0.175  0.4274 -0.8656 -0.0641
   214G12c C02K 3787   6.233   4.711  -0.055  0.5696  0.5684  0.9829
   214G12c O00G 3788   6.279   4.570  -0.057 -0.2217  1.9715  0.7528
   214G12c C02M 3789   6.299   4.481   0.058  0.9906 -0.8796 -1.4409
   214G12c H01G 3790   6.248   4.476   0.154 -4.4740  1.8210 -3.9873
   214G12c H01F 3791   6.300   4.373   0.042 -6.0087 -1.8872  2.7310
   214G12c H01E 3792   6.407   4.482   0.066  1.2361  2.2758 -4.1297
   214G12c C02J 3793   6.254   4.794   0.056 -0.6480  1.5524  1.3732
   214G12c H01H 3794   6.325   4.754   0.127 -0.1292  1.5071  0.8325
   214G12c C02I 3795   6.222   4.934   0.055  0.1076 -0.3482 -0.7875
   214G12c C02N 3796   6.236   5.033   0.173  0.9081 -0.7215 -0.1861
   214G12c H01M 3797   6.207   5.131   0.141  7.0314  1.2658 -0.2303
   214G12c C02O 3798   6.275   5.001   0.287 -1.7789  0.9112  1.4809
   214G12c H01L 3799   6.303   4.902   0.317 -4.0985  0.2989  1.7253
   214G12c C02P 3800   6.246   5.099   0.402  1.1806  0.7230 -0.5565
   214G12c H01K 3801   6.146   5.123   0.366  2.1555 -0.2370 -4.0553
   214G12c H01J 3802   6.216   5.063   0.501  1.0669 -3.5473 -2.0583
   214G12c O00H 3803   6.336   5.201   0.417  0.1464  2.4078 -2.0877
   214G12c H01I 3804   6.418   5.179   0.376  3.1034  3.6317  2.8043
   214G12c C02H 3805   6.204   4.989  -0.075  0.0304  0.0728 -0.4791
   214G12c H01C 3806   6.203   5.096  -0.087 -1.1684  0.5120  2.9130
   214G12c C02L 3807   6.167   4.904  -0.178  1.0694 -0.8458 -0.5021
   214G12c H01D 3808   6.116   4.953  -0.259 -7.8664 -0.5756  4.6327
   214G12c C013 3809   5.871   4.309  -0.154 -0.2885  1.4254  0.8543
   214G12c H000 3810   5.950   4.344  -0.089 -6.2374  7.9237  5.2884
   214G12c C014 3811   5.785   4.232  -0.079  0.4763  0.7065 -1.8558
   214G12c C00F 3812   5.821   4.136   0.029  2.3451 -0.0675  1.4460
   214G12c C00H 3813   5.582   4.140   0.101  0.4464 -0.7701 -0.9350
   214G12c C00I 3814   5.484   4.103   0.187  1.5696 -0.2319 -1.0015
   214G12c C00J 3815   5.350   4.155   0.173  1.3968 -0.7915 -0.6803
   214G12c C00Z 3816   5.465   4.284  -0.273 -0.8324 -2.9074  0.1175
   214G12c C00Y 3817   5.421   4.329  -0.404  0.2599  1.4134 -1.3126
   214G12c H006 3818   5.491   4.381  -0.468 -0.7485  0.1242 -3.5383
   214G12c C00X 3819   5.304   4.317  -0.445 -0.8377 -1.6939 -1.9890
   214G12c O003 3820   5.257   4.373  -0.569  0.7705 -0.4115 -1.1523
   214G12c C01B 3821   5.343   4.391  -0.673 -0.3680  0.7101  2.0988
   214G12c H009 3822   5.305   4.406  -0.774 -0.4855 -1.4476  1.8079
   214G12c H008 3823   5.411   4.475  -0.656 -1.1668  1.2109  2.9189
   214G12c H007 3824   5.401   4.300  -0.683  0.0476  1.0078  1.7814
   214G12c C00W 3825   5.208   4.267  -0.355  1.0810 -0.3303 -1.7730
   214G12c O004 3826   5.076   4.267  -0.389 -2.3592  1.8256 -0.4981
   214G12c C01C 3827   4.984   4.224  -0.298 -1.7646 -2.6968 -0.2332
   214G12c H00A 3828   4.884   4.262  -0.283  0.6106  1.5238  7.9696
   214G12c C00P 3829   5.018   4.151  -0.184  1.4468  0.1730 -1.0221
   214G12c C00O 3830   4.942   4.020  -0.169 -1.2285 -1.1491 -0.9534
   214G12c C01D 3831   4.866   3.956  -0.247 -1.1806  1.2832  1.3695
   214G12c H00S 3832   4.868   3.994  -0.348  2.4056  3.1395  2.0454
   214G12c C01E 3833   4.810   3.815  -0.232 -0.9158  0.2354  2.0052
   214G12c O008 3834   4.755   3.737  -0.337 -1.0633 -1.3256  0.8503
   214G12c C01V 3835   4.743   3.800  -0.459  0.5756  0.3982 -0.1271
   214G12c C01Z 3836   4.600   3.846  -0.464  1.5989 -0.8416  2.0943
   214G12c H00R 3837   4.527   3.806  -0.394 -2.8495  0.9725 -1.3373
   214G12c H00Q 3838   4.590   3.951  -0.490 -1.8570 -2.1283 -2.2919
   214G12c O009 3839   4.552   3.803  -0.594 -1.1806 -0.8184 -0.3132
   214G12c H00P 3840   4.571   3.713  -0.614  4.5550 -0.1087  1.2676
   214G12c C01W 3841   4.840   3.823  -0.545  0.2271 -1.6781 -1.3400
   214G12c H00O 3842   4.938   3.785  -0.521  3.7630  3.5086 -6.3930
   214G12c C01X 3843   4.850   3.892  -0.669 -1.7778  0.1397  1.5535
   214G12c H00N 3844   4.939   3.950  -0.691 -2.2460  1.5637  3.3432
   214G12c H00M 3845   4.760   3.954  -0.666 -1.5873  0.6451 -1.8882
   214G12c C01Y 3846   4.824   3.798  -0.788 -0.1306 -0.7686  0.1174
   214G12c C02D 3847   4.806   3.661  -0.775 -2.1095 -1.0739  0.5197
   214G12c H019 3848   4.843   3.609  -0.688  1.1599  3.7940  2.2353
   214G12c C02C 3849   4.718   3.601  -0.876  0.4481  0.5229 -1.3680
   214G12c H01A 3850   4.665   3.513  -0.841  4.6419 -1.4086  0.5771
   214G12c C02B 3851   4.675   3.668  -0.995 -0.1173  0.0394  0.2496
   214G12c O00E 3852   4.622   3.588  -1.092 -1.6601 -1.7027 -0.3501
   214G12c H01B 3853   4.595   3.598  -1.182 -0.0929 -3.0333 -0.9826
   214G12c C02F 3854   4.735   3.796  -1.010 -0.9339 -0.5568  0.5697
   214G12c O00F 3855   4.701   3.860  -1.118 -0.3488  0.4410 -0.3978
   214G12c C02G 3856   4.572   3.920  -1.109  1.0372  0.7320 -0.9311
   214G12c H017 3857   4.500   3.862  -1.166 -4.5789  3.4582  2.9562
   214G12c H016 3858   4.499   3.896  -1.032 -2.7963 -0.8332 -4.8584
   214G12c H015 3859   4.566   4.025  -1.135 -4.1047  0.3035 -2.0751
   214G12c C02E 3860   4.800   3.859  -0.908  0.4229 -0.4881  1.2637
   214G12c H018 3861   4.799   3.959  -0.948 -0.8726 -0.7707  0.5660
   214G12c C01F 3862   4.818   3.768  -0.105 -0.6365  0.1276  1.2213
   214G12c C01G 3863   4.800   3.634  -0.077 -2.3728 -0.3479 -1.7606
   214G12c H00L 3864   4.749   3.567  -0.144  0.8209 -0.3300 -4.2833
   214G12c C01H 3865   4.858   3.595   0.052 -0.3451 -0.8377 -0.3627
   214G12c H00B 3866   4.898   3.495   0.038  0.4768 -0.3411 -1.7235
   214G12c C01I 3867   4.902   3.688   0.148  1.2477  0.1208  0.1119
   214G12c C01U 3868   4.871   3.852   0.003 -0.8550 -0.3299 -0.5956
   214G12c C00S 3869   5.332   4.194   0.043 -1.2050 -0.8823  0.9876
   214G12c C00K 3870   5.230   4.059   0.196 -1.5027  0.6972 -0.7131
   214G12c C00N 3871   4.937   3.964  -0.036  0.7680 -0.1041 -1.1876
   214G12c C000 3872   4.878   3.822   0.129 -1.2990 -1.3740 -2.1962
   214G12c C01J 3873   4.997   3.683   0.249  0.7629 -0.9807 -0.3785
   214G12c C01K 3874   5.044   3.555   0.292 -0.4257 -0.9854  0.2358
   214G12c C01P 3875   4.981   3.429   0.309 -1.1198  0.5731  0.4270
   214G12c C01Q 3876   4.837   3.403   0.306  0.0793 -0.5767 -0.7029
   214G12c H00G 3877   4.794   3.459   0.387  2.7845  1.3262 -0.5045
   214G12c C01R 3878   4.771   3.324   0.222  1.1343 -1.8706  1.9081
   214G12c H00F 3879   4.833   3.321   0.134 -0.7635  1.9397  0.3209
   214G12c C01S 3880   4.624   3.300   0.207 -0.3870 -0.2081 -0.4594
   214G12c H00E 3881   4.614   3.290   0.099 -2.7372  3.6093 -0.6822
   214G12c H00D 3882   4.597   3.213   0.268  5.2288 -2.3490 -0.6968
   214G12c O005 3883   4.576   3.427   0.238 -0.9836 -0.0575 -0.0475
   214G12c H00C 3884   4.545   3.444   0.150 -3.4711  0.0769  0.8263
   214G12c C01O 3885   5.049   3.308   0.345  0.6742 -2.0813 -0.0091
   214G12c H00H 3886   5.003   3.218   0.383 -1.2376 -1.1993 -0.1602
   214G12c C01N 3887   5.195   3.317   0.359 -0.4556  0.7195  1.2088
   214G12c O006 3888   5.254   3.202   0.406 -1.3314  1.5533 -0.2840
   214G12c C01T 3889   5.391   3.174   0.348 -0.8249  0.4394  0.1578
   214G12c H00K 3890   5.448   3.184   0.440 -0.0411 -0.5351 -0.2200
   214G12c H00J 3891   5.446   3.243   0.285 -0.1793  3.9801  4.3132
   214G12c H00I 3892   5.405   3.078   0.299  0.4570 -4.3036  8.8112
   214G12c C01M 3893   5.255   3.443   0.368 -0.2170  1.0921 -0.8068
   214G12c C020 3894   5.281   3.939   0.263  0.2897  0.2000  1.1505
   214G12c C021 3895   5.408   3.923   0.323 -0.7446  1.4940  1.9321
   214G12c C01L 3896   5.185   3.557   0.334 -0.1830 -1.5140 -0.7248
   214G12c O007 3897   5.391   3.444   0.365 -1.0286  0.6030 -0.2893
   214G12c C022 3898   5.461   3.805   0.378  1.3997 -0.5245 -0.7525
   214G12c C023 3899   5.506   4.002   0.274  0.1750 -0.3857 -0.7948
   214G12c C00G 3900   5.718   4.091   0.124 -1.5150 -0.7965  0.2854
   214G12c C00E 3901   5.959   4.088   0.023  1.8796  0.2530 -1.3650
   214G12c O00A 3902   6.057   4.134  -0.047 -0.7586 -1.4024  2.0566
   214G12c C024 3903   6.079   4.047  -0.172 -0.2376 -0.1538  0.1463
   214G12c H00V 3904   6.127   3.963  -0.123  3.4639 -0.2478 -3.2799
   214G12c H00U 3905   6.003   4.021  -0.245  1.4189  0.9113 -2.0400
   214G12c H00T 3906   6.158   4.071  -0.244 -3.0090  1.3866 -2.5266
   224G12c C00D 3907  12.835   6.154   3.845  0.8864  0.7809 -1.6275
   224G12c O00B 3908  12.850   6.097   3.721  0.2552 -1.0658  0.0748
   224G12c C025 3909  12.970   6.087   3.658 -0.2433 -0.0487  0.4239
   224G12c C026 3910  13.051   6.211   3.638  0.0505 -0.2042  0.3771
   224G12c H00Y 3911  12.977   6.283   3.604  1.8672  1.7789  0.5399
   224G12c H00X 3912  13.077   6.181   3.536  3.6051  1.1567  0.7966
   224G12c O00C 3913  13.127   6.257   3.737 -0.6162  0.4103 -0.2071
   224G12c H00W 3914  13.130   6.217   3.822  2.4099  3.5280  1.3147
   224G12c C027 3915  13.027   5.963   3.643 -1.8940  0.4560  1.3934
   224G12c O00D 3916  12.944   5.861   3.647 -0.2576 -0.1380  0.9085
   224G12c H00Z 3917  12.971   5.797   3.712 -2.3377 -0.7948  1.1558
   224G12c C028 3918  13.183   5.951   3.611 -0.5404 -0.9436  0.7763
   224G12c C029 3919  13.211   5.815   3.619 -0.7660 -0.3519  1.5899
   224G12c H010 3920  13.132   5.748   3.649 -4.2650  3.4674  1.4290
   224G12c C02T 3921  13.330   5.762   3.555  1.8903  0.3699  1.2325
   224G12c H01O 3922  13.349   5.660   3.583  1.0187 -1.0470 -2.9869
   224G12c C02S 3923  13.408   5.844   3.482  0.0014  1.0754  0.1766
   224G12c O00J 3924  13.474   5.788   3.387  0.5647  0.1226 -1.1604
   224G12c H01P 3925  13.521   5.869   3.379  5.9705 -2.1032  3.9830
   224G12c C02R 3926  13.370   5.979   3.477 -0.0962  0.9117 -0.5469
   224G12c O00I 3927  13.447   6.077   3.398  1.0531  2.4989  0.4729
   224G12c C02Q 3928  13.418   6.207   3.411 -0.2076 -0.9349 -1.2019
   224G12c H01N 3929  13.331   6.195   3.346 -0.0411 -6.7152 -0.5996
   224G12c H01R 3930  13.486   6.239   3.332  0.8953 -3.9088 -1.5175
   224G12c H01Q 3931  13.438   6.254   3.507  0.2489 -1.3507 -1.0948
   224G12c C02A 3932  13.275   6.037   3.557  0.3601  0.8063 -1.4658
   224G12c H011 3933  13.272   6.143   3.576  3.9141  1.6394 -4.9749
   224G12c C00C 3934  12.760   6.271   3.835 -1.1267 -0.6590  0.0240
   224G12c H012 3935  12.736   6.292   3.732 -0.2314  2.3600  0.3915
   224G12c C00B 3936  12.708   6.330   3.959 -0.5248  0.9250  0.6836
   224G12c C00A 3937  12.614   6.434   3.973  0.5234  1.4526  0.5917
   224G12c C009 3938  12.581   6.541   3.884 -0.4474  0.6280  0.5956
   224G12c C008 3939  12.641   6.589   3.765 -0.7884  0.3013  0.8822
   224G12c H013 3940  12.711   6.531   3.705  1.6257  0.1646  3.7310
   224G12c C007 3941  12.630   6.721   3.717 -1.2939 -0.0507  1.7252
   224G12c H014 3942  12.673   6.748   3.622 -1.6157 -3.7910  0.4480
   224G12c C006 3943  12.564   6.822   3.806 -0.1924 -2.0221 -0.8477
   224G12c C005 3944  12.493   6.765   3.916 -0.0841  1.2738  0.0605
   224G12c C004 3945  12.455   6.844   4.036  0.8508 -1.2086  1.4699
   224G12c C003 3946  12.457   6.786   4.170 -1.2940 -0.5546  1.9053
   224G12c C002 3947  12.431   6.891   4.273  0.1324  0.9669 -1.6985
   224G12c C001 3948  12.413   6.879   4.407  0.1994 -1.2255 -1.5231
   224G12c C00M 3949  12.513   6.801   4.486  1.5274  1.0987 -0.1404
   224G12c C00L 3950  12.533   6.669   4.471  0.8752 -0.5133  0.0060
   224G12c C00R 3951  12.655   6.605   4.515 -0.4612  1.3168 -1.2464
   224G12c C00Q 3952  12.765   6.650   4.598 -0.0183 -0.5737  1.1135
   224G12c C00V 3953  12.886   6.579   4.597  0.6121  0.7723 -0.8474
   224G12c C00U 3954  12.908   6.474   4.499 -0.2612  0.4924  0.4020
   224G12c C00T 3955  12.804   6.418   4.422  0.1375 -0.0929  1.0298
   224G12c C016 3956  12.822   6.348   4.306  0.0031  0.7146  0.0226
   224G12c C015 3957  12.950   6.296   4.298  0.6887  0.2142  0.0555
   224G12c C010 3958  13.045   6.321   4.401  1.6255 -1.7682 -0.9556
   224G12c C011 3959  13.172   6.259   4.383 -0.2855 -1.5837  0.8699
   224G12c H005 3960  13.271   6.270   4.425 -1.3626 -1.9643  3.6053
   224G12c C012 3961  13.196   6.185   4.259  1.4445  0.8149  0.2012
   224G12c C017 3962  13.328   6.103   4.253 -1.2178 -0.8299  0.3972
   224G12c O002 3963  13.338   5.975   4.323  1.4175  1.6575  1.7491
   224G12c H004 3964  13.421   5.932   4.309  1.6299 -0.6031  8.0421
   224G12c C018 3965  13.432   6.143   4.181 -0.0782 -0.1843  0.9370
   224G12c O001 3966  13.452   6.272   4.163  0.7495 -0.3060  0.0981
   224G12c H003 3967  13.359   6.291   4.167  0.5332 -1.8191  3.4420
   224G12c C019 3968  13.547   6.042   4.149  0.9398 -3.2896  0.3380
   224G12c H002 3969  13.578   6.064   4.047  1.9034 -5.9083  0.0263
   224G12c H001 3970  13.625   6.005   4.215  2.6976 -0.0666  0.1668
   224G12c O000 3971  13.504   5.915   4.131  0.3579  1.3762  1.0387
   224G12c C01A 3972  13.592   5.820   4.081  0.0516 -0.6216  0.1872
   224G12c C02K 3973  13.540   5.701   4.032 -0.2214  1.0333  0.0487
   224G12c O00G 3974  13.409   5.666   4.071 -0.5445  1.9157  0.0529
   224G12c C02M 3975  13.405   5.595   4.188 -1.4471 -0.1366 -0.1777
   224G12c H01G 3976  13.304   5.593   4.230 -1.7358 -1.8532 -0.9092
   224G12c H01F 3977  13.466   5.645   4.264 -6.0883  1.3777  2.7984
   224G12c H01E 3978  13.470   5.513   4.218 -2.6501 -1.1572 -0.3427
   224G12c C02J 3979  13.611   5.598   3.966 -1.7255  1.3376  0.7597
   224G12c H01H 3980  13.565   5.500   3.964  1.0032  0.0432 -3.0452
   224G12c C02I 3981  13.744   5.633   3.940 -0.1589 -1.7282  0.0245
   224G12c C02N 3982  13.834   5.533   3.872  1.9833 -1.0397  1.1317
   224G12c H01M 3983  13.845   5.552   3.767  0.3795  6.0554  2.0087
   224G12c C02O 3984  13.895   5.432   3.932 -0.7596  0.8603  0.8852
   224G12c H01L 3985  13.948   5.364   3.867 -2.6957  0.7595 -0.6308
   224G12c C02P 3986  13.878   5.394   4.068 -2.0039 -0.2400 -0.4026
   224G12c H01K 3987  13.961   5.324   4.064  3.9789  6.2712 -0.5458
   224G12c H01J 3988  13.829   5.458   4.142  1.4860 -1.0486  2.7551
   224G12c O00H 3989  13.799   5.278   4.047  1.2676  0.0724 -0.4774
   224G12c H01I 3990  13.811   5.238   3.963  2.9116 -0.9821  0.2307
   224G12c C02H 3991  13.801   5.762   3.975 -1.1323  0.2497  0.3468
   224G12c H01C 3992  13.905   5.788   3.980 -2.1990  4.7164  1.6492
   224G12c C02L 3993  13.725   5.854   4.046 -1.2889 -0.2576  0.6999
   224G12c H01D 3994  13.741   5.957   4.072 -5.2615 -1.2734  8.9246
   224G12c C013 3995  13.093   6.143   4.181 -0.3173 -0.6546 -0.4669
   224G12c H000 3996  13.106   6.061   4.112  3.0631 -3.7925  3.6105
   224G12c C014 3997  12.962   6.200   4.189 -1.9897  0.6321 -0.5237
   224G12c C00F 3998  12.880   6.189   4.079  0.4394  1.2061  1.4329
   224G12c C00H 3999  12.723   6.335   4.211  0.2907 -0.4143 -0.9274
   224G12c C00I 4000  12.602   6.411   4.221 -0.8389 -0.8351 -0.7598
   224G12c C00J 4001  12.582   6.491   4.343  0.3892  0.7346  1.5612
   224G12c C00Z 4002  13.037   6.423   4.488 -0.0334  0.8557  2.3074
   224G12c C00Y 4003  13.146   6.487   4.557 -0.3698 -0.1282 -0.3795
   224G12c H006 4004  13.248   6.475   4.521 -0.3719 -1.0968 -0.0782
   224G12c C00X 4005  13.128   6.594   4.623 -1.3453  1.8279 -0.1768
   224G12c O003 4006  13.234   6.635   4.695  0.2611  0.8181  1.2593
   224G12c C01B 4007  13.351   6.672   4.641 -0.0726  1.7223 -1.0909
   224G12c H009 4008  13.427   6.597   4.617 -0.4786  2.0342 -3.5475
   224G12c H008 4009  13.419   6.743   4.686  1.2044  1.0061 -1.8551
   224G12c H007 4010  13.367   6.709   4.539  5.9176 -1.5779 -1.6015
   224G12c C00W 4011  12.997   6.636   4.647 -0.2421 -1.0845  0.2118
   224G12c O004 4012  12.992   6.743   4.737  0.9429  0.8007  0.5622
   224G12c C01C 4013  12.870   6.788   4.780 -2.0961 -1.4208 -1.1700
   224G12c H00A 4014  12.871   6.823   4.882 -1.9585 -7.6084  1.1870
   224G12c C00P 4015  12.766   6.772   4.681 -0.2591 -0.4371  0.2211
   224G12c C00O 4016  12.697   6.890   4.649 -1.3793 -0.6662 -0.0567
   224G12c C01D 4017  12.734   7.026   4.704 -0.5263  0.3284 -1.7024
   224G12c H00S 4018  12.797   7.028   4.791  1.7209 -2.5633 -3.1870
   224G12c C01E 4019  12.704   7.153   4.659  0.0978 -0.1765 -0.3926
   224G12c O008 4020  12.763   7.262   4.702  0.8618  1.0687 -0.9346
   224G12c C01V 4021  12.739   7.304   4.831 -1.1296  0.2584  1.2174
   224G12c C01Z 4022  12.886   7.358   4.880 -1.0957 -0.4175  1.0845
   224G12c H00R 4023  12.893   7.384   4.986  2.7832 -3.7118  1.7582
   224G12c H00Q 4024  12.920   7.257   4.860 -2.7407 -2.7027  8.3574
   224G12c O009 4025  12.906   7.489   4.806 -1.1364 -0.6473  2.2590
   224G12c H00P 4026  12.850   7.562   4.826 -2.5870  1.0216 -5.9671
   224G12c C01W 4027  12.628   7.335   4.896 -0.0587  0.2796 -0.8556
   224G12c H00O 4028  12.537   7.293   4.856  2.4752 -2.2299 -4.2396
   224G12c C01X 4029  12.612   7.383   5.043  0.8533  0.0369 -0.3339
   224G12c H00N 4030  12.680   7.463   5.072  2.5148 -2.3474  2.6544
   224G12c H00M 4031  12.524   7.446   5.032 -4.8282 -7.4674 -2.7923
   224G12c C01Y 4032  12.595   7.271   5.147  0.1885  0.7666  1.2546
   224G12c C02D 4033  12.618   7.128   5.114 -0.2521 -1.8923  0.6201
   224G12c H019 4034  12.660   7.103   5.018  7.7300  3.7008  2.1268
   224G12c C02C 4035  12.595   7.032   5.206  1.1200 -0.2221 -0.7019
   224G12c H01A 4036  12.602   6.928   5.176  6.0196 -0.8323  1.9299
   224G12c C02B 4037  12.565   7.084   5.341  1.3092 -1.0755 -0.4356
   224G12c O00E 4038  12.536   6.996   5.432 -0.4064  1.7772  1.0624
   224G12c H01B 4039  12.494   7.027   5.511  0.7348 -5.6780  5.0841
   224G12c C02F 4040  12.537   7.216   5.382  0.5121  0.2298  0.0460
   224G12c O00F 4041  12.523   7.246   5.517  0.7098  0.7339 -0.8260
   224G12c C02G 4042  12.398   7.251   5.576  0.8011 -0.7632  0.4300
   224G12c H017 4043  12.352   7.344   5.543 -1.7416 -3.4234 -4.0105
   224G12c H016 4044  12.387   7.241   5.684  0.9206  1.1205  0.6283
   224G12c H015 4045  12.340   7.167   5.539 -0.4804 -2.3587  5.6191
   224G12c C02E 4046  12.540   7.314   5.275  0.2349 -1.6804  0.4025
   224G12c H018 4047  12.519   7.419   5.286  5.8126  0.1120 -3.6205
   224G12c C01F 4048  12.592   7.157   4.569 -1.5595  0.8963 -0.4425
   224G12c C01G 4049  12.554   7.264   4.481 -0.3900 -0.4718  1.3496
   224G12c H00L 4050  12.609   7.355   4.501 -0.4677 -0.9619  4.0073
   224G12c C01H 4051  12.472   7.246   4.359 -0.1382  0.2181 -0.8413
   224G12c H00B 4052  12.493   7.316   4.280  2.5768  2.0996  1.4603
   224G12c C01I 4053  12.430   7.102   4.341  1.3638 -1.6367 -0.9894
   224G12c C01U 4054  12.523   7.021   4.543  0.7644  0.1791  0.1749
   224G12c C00S 4055  12.676   6.489   4.434 -0.3868 -0.5426 -1.0197
   224G12c C00K 4056  12.509   6.616   4.346  2.0541  0.0079  0.0469
   224G12c C00N 4057  12.592   6.901   4.558 -1.6719  1.6615  0.0030
   224G12c C000 4058  12.413   7.007   4.453 -0.5099 -1.3285  0.5451
   224G12c C01J 4059  12.413   7.024   4.233  0.7295 -1.6885 -0.3149
   224G12c C01K 4060  12.435   7.083   4.105 -1.2751  0.0299 -0.1031
   224G12c C01P 4061  12.395   7.206   4.052  2.7411  0.0409  0.8131
   224G12c C01Q 4062  12.292   7.291   4.090 -0.5791 -2.3139 -0.3339
   224G12c H00G 4063  12.315   7.395   4.104 -0.7979 -2.7455  3.7845
   224G12c C01R 4064  12.161   7.245   4.125  0.9295 -0.6490 -0.9258
   224G12c H00F 4065  12.141   7.141   4.147  0.3135 -1.5033 -5.1176
   224G12c C01S 4066  12.041   7.347   4.165  1.5548  0.6833  0.7524
   224G12c H00E 4067  11.977   7.280   4.222 -3.2959  3.8952 -0.5893
   224G12c H00D 4068  12.087   7.390   4.255  1.9147 -1.1011  1.4324
   224G12c O005 4069  12.015   7.412   4.041 -0.7511 -0.7241  0.4385
   224G12c H00C 4070  11.943   7.387   3.986  1.2431  2.7837 -4.1710
   224G12c C01O 4071  12.424   7.254   3.923 -0.1755  0.9504  1.0121
   224G12c H00H 4072  12.412   7.351   3.876  0.3341  4.2772  7.1781
   224G12c C01N 4073  12.469   7.167   3.845 -0.3653  1.6343 -1.3155
   224G12c O006 4074  12.507   7.183   3.713  0.5394 -0.6155 -0.1334
   224G12c C01T 4075  12.558   7.298   3.664 -1.4468 -0.0492 -0.2018
   224G12c H00K 4076  12.595   7.371   3.736  3.2542 -5.8147  3.7582
   224G12c H00J 4077  12.505   7.354   3.587  3.3589  3.5610 -1.1290
   224G12c H00I 4078  12.654   7.259   3.630 -1.6164  0.4914 -1.2970
   224G12c C01M 4079  12.493   7.034   3.888  0.0840  0.4674  0.7356
   224G12c C020 4080  12.483   6.652   4.201 -1.2304  1.0376  0.3192
   224G12c C021 4081  12.495   6.576   4.098 -0.4203  0.0017  0.1335
   224G12c C01L 4082  12.469   6.980   4.020  1.0350  0.7180  2.7512
   224G12c O007 4083  12.528   6.949   3.779  1.5530  0.0090 -0.6196
   224G12c C022 4084  12.501   6.633   3.960 -1.4010 -1.3798 -1.0566
   224G12c C023 4085  12.538   6.442   4.096 -0.3544  0.5863  0.0706
   224G12c C00G 4086  12.767   6.287   4.075  0.8753  1.3458 -0.3859
   224G12c C00E 4087  12.896   6.102   3.965  1.1893  1.1358  0.4191
   224G12c O00A 4088  12.942   5.973   3.979  0.7064 -0.0947  1.3117
   224G12c C024 4089  12.846   5.872   3.951  1.5835  1.1509  1.5702
   224G12c H00V 4090  12.756   5.877   4.011  0.3469  1.4965 -0.2706
   224G12c H00U 4091  12.875   5.770   3.924  0.2290  2.3518 -5.3701
   224G12c H00T 4092  12.820   5.893   3.847  2.6928  2.2448  1.5008
   234G12c C00D 4093  11.397   3.762   3.645 -0.4853  0.7891  1.4001
   234G12c O00B 4094  11.509   3.689   3.629  1.1389 -0.2532  1.6772
   234G12c C025 4095  11.604   3.705   3.518  1.1012 -0.3608  0.0018
   234G12c C026 4096  11.701   3.814   3.536  1.5337  0.9086 -0.4088
   234G12c H00Y 4097  11.660   3.908   3.499 -1.9538  0.6242  2.4970
   234G12c H00X 4098  11.794   3.815   3.479  0.1338 -0.8691 -2.8068
   234G12c O00C 4099  11.756   3.801   3.663  0.0278 -0.2148 -0.2545
   234G12c H00W 4100  11.695   3.821   3.732 -0.9198  1.0679 -1.4428
   234G12c C027 4101  11.592   3.632   3.409 -1.2338 -0.0180  1.2679
   234G12c O00D 4102  11.496   3.526   3.414  1.2147  1.7140  0.2311
   234G12c H00Z 4103  11.459   3.515   3.500 -0.3397 -0.0912 -0.6228
   234G12c C028 4104  11.656   3.653   3.285  0.4480 -0.8213 -0.9286
   234G12c C029 4105  11.587   3.723   3.184 -0.3777 -1.8671 -0.7955
   234G12c H010 4106  11.492   3.755   3.223  1.2786 -0.8942  2.6772
   234G12c C02T 4107  11.620   3.762   3.056  0.4892 -0.9012  0.6154
   234G12c H01O 4108  11.566   3.832   2.995 -3.6520 -5.0786 -0.8330
   234G12c C02S 4109  11.749   3.705   3.007 -0.9452 -0.4112 -0.1933
   234G12c O00J 4110  11.801   3.704   2.882  0.6152  0.1489  0.3443
   234G12c H01P 4111  11.757   3.786   2.865 -0.0292  0.0335  1.4259
   234G12c C02R 4112  11.834   3.634   3.102 -1.1566  0.0142  0.0981
   234G12c O00I 4113  11.962   3.595   3.077 -0.3217 -0.9269  1.7088
   234G12c C02Q 4114  11.985   3.485   2.983 -0.2263  0.2129  0.3590
   234G12c H01N 4115  12.046   3.412   3.037  0.7959  3.0380  3.2571
   234G12c H01R 4116  12.038   3.528   2.899  0.7583 -3.3356 -0.9313
   234G12c H01Q 4117  11.891   3.458   2.937  0.6027 -2.9359  0.3566
   234G12c C02A 4118  11.769   3.585   3.231  0.1228  0.6623  1.4076
   234G12c H011 4119  11.831   3.509   3.276 -3.2198 -2.1372  1.4687
   234G12c C00C 4120  11.297   3.764   3.550 -0.6555  0.6653  1.8937
   234G12c H012 4121  11.311   3.689   3.474 -4.8269  0.1210  1.5452
   234G12c C00B 4122  11.186   3.850   3.548 -0.6732  0.9829 -0.7572
   234G12c C00A 4123  11.099   3.877   3.431 -0.1715  0.3952 -0.0121
   234G12c C009 4124  11.104   3.894   3.282  0.0730  1.9092 -0.7324
   234G12c C008 4125  11.227   3.926   3.209  0.5306  0.1249  1.6997
   234G12c H013 4126  11.329   3.903   3.235 -0.3948  1.2255  6.9970
   234G12c C007 4127  11.199   4.003   3.087  0.3484  1.1376 -1.1010
   234G12c H014 4128  11.291   4.052   3.059 -0.3123 -0.5036 -6.7440
   234G12c C006 4129  11.069   4.058   3.046 -0.9397 -0.6124  0.8807
   234G12c C005 4130  10.961   4.030   3.140 -1.4201  1.7647  0.7877
   234G12c C004 4131  10.840   4.114   3.124 -0.4332 -0.6989 -0.5782
   234G12c C003 4132  10.757   4.131   3.238 -1.3061  0.0819  0.5307
   234G12c C002 4133  10.662   4.235   3.231  0.7619 -1.4217  0.6219
   234G12c C001 4134  10.569   4.276   3.330  0.1250  0.3043 -0.8135
   234G12c C00M 4135  10.611   4.318   3.462 -0.3510  0.9220  1.4496
   234G12c C00L 4136  10.682   4.232   3.555  1.7911 -1.6078  0.6611
   234G12c C00R 4137  10.751   4.278   3.672  1.5264 -0.4821  1.3705
   234G12c C00Q 4138  10.765   4.412   3.732 -0.2347  0.9663 -0.5363
   234G12c C00V 4139  10.860   4.407   3.836 -1.9177 -2.1163  0.4707
   234G12c C00U 4140  10.945   4.298   3.866  0.7013 -0.1554  0.4826
   234G12c C00T 4141  10.945   4.177   3.792  0.0817  0.5528 -0.2646
   234G12c C016 4142  11.038   4.083   3.792 -0.3361  0.2933  0.0306
   234G12c C015 4143  11.128   4.093   3.896 -0.7443 -0.4417 -1.8457
   234G12c C010 4144  11.132   4.205   3.983  0.3496  0.6122  0.7739
   234G12c C011 4145  11.249   4.225   4.065  0.1224  0.4285 -0.4654
   234G12c H005 4146  11.288   4.300   4.132  3.4229 -2.9663  1.6248
   234G12c C012 4147  11.339   4.119   4.077 -1.0107 -0.4704  0.9596
   234G12c C017 4148  11.413   4.090   4.205  0.3594 -1.0298  0.1956
   234G12c O002 4149  11.336   4.127   4.309  0.1439  0.4386  0.6279
   234G12c H004 4150  11.246   4.128   4.280  0.9669  1.0275 -2.0815
   234G12c C018 4151  11.548   4.046   4.222 -0.3305 -0.4274 -0.7852
   234G12c O001 4152  11.643   4.026   4.118 -0.6291 -0.4702 -1.4052
   234G12c H003 4153  11.712   3.981   4.165  6.0974  5.0033 -5.0778
   234G12c C019 4154  11.611   4.045   4.370  0.6471 -0.7289 -0.7935
   234G12c H002 4155  11.591   4.144   4.411  7.4244  1.7246 -2.7304
   234G12c H001 4156  11.558   3.964   4.421 -1.5160  0.2282 -1.4656
   234G12c O000 4157  11.762   4.002   4.361  0.2677 -0.4385  0.6255
   234G12c C01A 4158  11.838   4.080   4.420  0.1532  1.4576 -0.5447
   234G12c C02K 4159  11.926   4.061   4.533  0.0797 -0.6143 -1.5339
   234G12c O00G 4160  11.927   3.956   4.609  0.1348 -1.0525 -0.7307
   234G12c C02M 4161  11.837   3.978   4.717 -0.5857 -0.4583  0.5790
   234G12c H01G 4162  11.855   4.037   4.807 -0.6920  0.2328  0.1545
   234G12c H01F 4163  11.819   3.875   4.746  3.0863 -0.8658  1.6460
   234G12c H01E 4164  11.738   4.004   4.679 -1.9815 -3.5423  1.9349
   234G12c C02J 4165  11.987   4.175   4.590  0.6934  0.0049 -0.3195
   234G12c H01H 4166  12.020   4.132   4.683 -3.4830 -4.4816 -0.7502
   234G12c C02I 4167  12.022   4.283   4.511 -0.2784  0.1189  1.7917
   234G12c C02N 4168  12.131   4.357   4.547 -0.0496  0.5986  2.8086
   234G12c H01M 4169  12.157   4.457   4.517 -1.2646 -0.5465 -2.5380
   234G12c C02O 4170  12.232   4.296   4.612  0.7284  0.2469 -0.1281
   234G12c H01L 4171  12.222   4.197   4.654-12.8730  1.8509  2.9239
   234G12c C02P 4172  12.352   4.386   4.657 -1.7527  0.8253  1.1828
   234G12c H01K 4173  12.405   4.411   4.565  2.7436  1.7362  3.8745
   234G12c H01J 4174  12.310   4.482   4.687 -6.5145 -1.5633  2.6631
   234G12c O00H 4175  12.438   4.332   4.763 -1.5092  1.0415  0.4537
   234G12c H01I 4176  12.397   4.314   4.846 -2.6361 -0.4612 -0.3804
   234G12c C02H 4177  11.929   4.316   4.421  2.1026  0.8250  0.7353
   234G12c H01C 4178  11.934   4.402   4.356  1.0706  0.2946 -0.0563
   234G12c C02L 4179  11.835   4.214   4.374 -0.3693 -0.9631 -0.1939
   234G12c H01D 4180  11.833   4.220   4.266 -2.1256 -5.1647 -0.5063
   234G12c C013 4181  11.338   4.031   3.970  1.0667  0.8085  0.2366
   234G12c H000 4182  11.365   3.933   4.008 -2.7416 -1.1953 -1.9199
   234G12c C014 4183  11.243   4.011   3.877  1.6389 -1.2857  0.7031
   234G12c C00F 4184  11.256   3.922   3.768  0.7554  0.7747 -1.3926
   234G12c C00H 4185  11.036   3.975   3.692  0.0971 -1.9818  0.2260
   234G12c C00I 4186  10.945   3.992   3.579  1.2860  0.4091 -0.2354
   234G12c C00J 4187  10.827   4.066   3.615 -0.6504 -1.5741  1.8341
   234G12c C00Z 4188  11.044   4.316   3.957 -1.8083  0.3993 -0.6957
   234G12c C00Y 4189  11.066   4.441   4.015  0.3818 -0.4204 -0.2736
   234G12c H006 4190  11.153   4.468   4.073 -0.2270 -0.8496  0.8525
   234G12c C00X 4191  11.001   4.558   3.965 -0.8871 -0.8655 -1.2094
   234G12c O003 4192  11.023   4.682   4.018 -0.5226 -0.6217 -0.0032
   234G12c C01B 4193  11.121   4.746   3.931  2.0626 -1.4606 -0.3630
   234G12c H009 4194  11.225   4.722   3.911  2.8125  1.6709 -0.5696
   234G12c H008 4195  11.129   4.832   3.997 -1.5676  0.0954 -1.8058
   234G12c H007 4196  11.084   4.800   3.843  2.6262  1.4758  1.1284
   234G12c C00W 4197  10.899   4.540   3.872  0.8836  0.4010 -0.9283
   234G12c O004 4198  10.827   4.655   3.842 -0.8419  0.5879  1.3736
   234G12c C01C 4199  10.704   4.638   3.795  1.0559 -0.5415  0.1152
   234G12c H00A 4200  10.628   4.626   3.871  1.2980  0.3052  0.4971
   234G12c C00P 4201  10.691   4.537   3.699 -0.4093  0.4483 -1.2314
   234G12c C00O 4202  10.619   4.559   3.569 -0.2297 -0.2466  0.5148
   234G12c C01D 4203  10.568   4.683   3.531 -0.8913  0.1221 -0.1575
   234G12c H00S 4204  10.546   4.765   3.597 -6.0130 -1.2201 -0.0043
   234G12c C01E 4205  10.523   4.707   3.408  0.0168 -0.1021  0.0572
   234G12c O008 4206  10.463   4.837   3.380  2.9421  1.7966  0.3104
   234G12c C01V 4207  10.335   4.843   3.406  0.5958 -3.0401 -0.6308
   234G12c C01Z 4208  10.297   4.978   3.392 -0.3092 -0.0010 -1.2835
   234G12c H00R 4209  10.379   5.049   3.387 -4.4484  4.9796 -3.7095
   234G12c H00Q 4210  10.222   4.993   3.314  0.7367 -1.4668 -2.6134
   234G12c O009 4211  10.258   5.024   3.524 -0.5798 -0.6930  1.4636
   234G12c H00P 4212  10.335   5.000   3.574  0.2751  5.4521  3.4914
   234G12c C01W 4213  10.254   4.742   3.443  0.5370 -0.9337  0.1696
   234G12c H00O 4214  10.272   4.635   3.446 -4.7875 -1.9299  2.1043
   234G12c C01X 4215  10.095   4.755   3.447  0.9037 -0.1990 -0.9675
   234G12c H00N 4216  10.047   4.697   3.526 -0.2449 -1.3793 -2.4921
   234G12c H00M 4217  10.061   4.856   3.469  2.4554 -0.5467  3.4622
   234G12c C01Y 4218  10.023   4.651   3.345  0.3970 -0.2152 -0.3442
   234G12c C02D 4219   9.955   4.536   3.374  0.6223  1.1878  0.5402
   234G12c H019 4220   9.988   4.479   3.460 -0.6788  1.3008  1.1293
   234G12c C02C 4221   9.864   4.466   3.286  1.5629  0.4395  0.0170
   234G12c H01A 4222   9.837   4.364   3.307 -4.5974  1.9474  0.4121
   234G12c C02B 4223   9.831   4.542   3.164 -1.5517 -0.8436  1.1108
   234G12c O00E 4224   9.734   4.497   3.084 -2.2326  0.1020  0.9938
   234G12c H01B 4225   9.739   4.504   2.990 -3.3500 -3.9582  0.5222
   234G12c C02F 4226   9.877   4.675   3.143 -0.0383  0.2518  1.8383
   234G12c O00F 4227   9.840   4.733   3.026 -0.8018  0.1433 -1.1606
   234G12c C02G 4228   9.840   4.873   3.026 -0.2903 -0.3641 -0.7201
   234G12c H017 4229   9.770   4.915   3.099 -2.0516 -2.4700 -1.1368
   234G12c H016 4230   9.765   4.908   2.956 -0.2003 -0.3837 -0.8249
   234G12c H015 4231   9.935   4.911   2.989  1.3032 -2.3218  1.1802
   234G12c C02E 4232   9.985   4.706   3.225 -0.3753  1.5150 -2.1418
   234G12c H018 4233  10.041   4.795   3.201 -1.5837  2.2519 -2.3016
   234G12c C01F 4234  10.524   4.620   3.313  1.2721 -1.8697 -0.6133
   234G12c C01G 4235  10.524   4.644   3.184 -0.3391 -1.0691 -0.2242
   234G12c H00L 4236  10.539   4.746   3.152  4.8245 -1.2316  1.2056
   234G12c C01H 4237  10.547   4.541   3.092  0.5831  0.5795  0.1282
   234G12c H00B 4238  10.571   4.562   2.989  0.2691 -1.4775 -0.3847
   234G12c C01I 4239  10.552   4.405   3.134 -0.8123 -0.6670  0.1196
   234G12c C01U 4240  10.517   4.489   3.349  1.3205  0.9694  0.5104
   234G12c C00S 4241  10.854   4.186   3.694 -1.2659 -0.9358 -0.9948
   234G12c C00K 4242  10.750   4.115   3.502 -2.9596 -0.3176 -2.7187
   234G12c C00N 4243  10.587   4.463   3.471 -1.1999  0.0249 -0.7887
   234G12c C000 4244  10.501   4.378   3.258 -1.1856  0.2578  0.0444
   234G12c C01J 4245  10.609   4.289   3.099 -0.4413  1.4365  0.3340
   234G12c C01K 4246  10.695   4.274   2.992 -0.4241 -0.8170 -1.0684
   234G12c C01P 4247  10.694   4.315   2.850 -0.5595 -1.7945 -1.2291
   234G12c C01Q 4248  10.574   4.353   2.776  0.4113  1.1883  1.3666
   234G12c H00G 4249  10.491   4.408   2.820 -0.9758  0.1330  0.1407
   234G12c C01R 4250  10.574   4.360   2.642  0.0773 -0.0945 -0.8376
   234G12c H00F 4251  10.655   4.296   2.608  1.5903 -1.4920  4.8974
   234G12c C01S 4252  10.475   4.414   2.534 -0.6380  1.0795 -0.3961
   234G12c H00E 4253  10.404   4.337   2.503 -0.0930  0.5458 -0.3332
   234G12c H00D 4254  10.436   4.488   2.604  3.3726  1.0984  1.9777
   234G12c O005 4255  10.564   4.456   2.430  0.5992  1.1572 -0.7893
   234G12c H00C 4256  10.495   4.485   2.372 -1.0548 -4.2685 -1.7806
   234G12c C01O 4257  10.803   4.351   2.778  0.3234 -0.2276 -0.3223
   234G12c H00H 4258  10.815   4.415   2.692 -0.4619  2.8125  1.7522
   234G12c C01N 4259  10.928   4.297   2.810  0.2349  0.6007  1.0890
   234G12c O006 4260  11.036   4.274   2.727 -2.2114  2.0368 -1.1045
   234G12c C01T 4261  11.165   4.334   2.742  0.1068 -1.1668  1.5201
   234G12c H00K 4262  11.134   4.437   2.723 -8.2184 -3.0543  2.5752
   234G12c H00J 4263  11.238   4.346   2.662  1.5650  0.2173  3.0382
   234G12c H00I 4264  11.230   4.320   2.828  3.4341  6.5737  0.6907
   234G12c C01M 4265  10.924   4.203   2.918 -0.6657 -1.3653 -1.0297
   234G12c C020 4266  10.776   4.057   3.362  0.0869 -0.7645 -0.0270
   234G12c C021 4267  10.887   3.959   3.349  0.8914 -1.0679 -1.1143
   234G12c C01L 4268  10.818   4.209   3.017 -0.4769 -0.3312 -1.8835
   234G12c O007 4269  11.057   4.146   2.947  1.4935  0.3722 -0.3591
   234G12c C022 4270  10.982   3.956   3.253  0.4224  1.0053  2.2375
   234G12c C023 4271  10.975   3.936   3.460  1.1615  1.8366 -0.0325
   234G12c C00G 4272  11.154   3.906   3.670 -0.9957 -1.1993 -1.0732
   234G12c C00E 4273  11.377   3.838   3.765  0.8433  0.7324  2.1823
   234G12c O00A 4274  11.488   3.834   3.843 -1.4094  0.3688 -0.3532
   234G12c C024 4275  11.499   3.703   3.904  1.3619 -0.1045  0.8737
   234G12c H00V 4276  11.587   3.693   3.968 -1.7280  0.2689  5.3279
   234G12c H00U 4277  11.516   3.616   3.839 -0.4801 -1.2091  1.8295
   234G12c H00T 4278  11.411   3.698   3.966  3.8663 -3.2179  4.4136
   244G12c C00D 4279   7.700   5.446   4.210  1.5967 -0.2435 -1.4281
   244G12c O00B 4280   7.763   5.326   4.199 -0.1539 -0.0867  0.4487
   244G12c C025 4281   7.679   5.218   4.221  1.0229 -0.0033  0.5602
   244G12c C026 4282   7.663   5.135   4.353  0.6307 -0.7496 -0.2616
   244G12c H00Y 4283   7.565   5.144   4.400  1.4981 -4.7408  2.5336
   244G12c H00X 4284   7.737   5.185   4.415 -1.9771 -0.9905  3.1651
   244G12c O00C 4285   7.699   4.999   4.322  0.9513 -0.8845 -0.4142
   244G12c H00W 4286   7.710   4.973   4.232  0.0371  2.4819 -1.5876
   244G12c C027 4287   7.577   5.179   4.123 -1.1387  0.1116  1.3489
   244G12c O00D 4288   7.576   5.262   4.025  0.6723 -0.5016  1.3280
   244G12c H00Z 4289   7.643   5.329   4.023  3.0174 -2.8127  1.3921
   244G12c C028 4290   7.471   5.086   4.159 -0.4499 -0.8149  0.4538
   244G12c C029 4291   7.372   5.130   4.250  0.5076 -1.2116 -1.4267
   244G12c H010 4292   7.361   5.232   4.285 -1.2929 -1.1907 -1.9927
   244G12c C02T 4293   7.271   5.027   4.280  1.4960  1.7860  1.3462
   244G12c H01O 4294   7.187   5.044   4.345 -1.2963  2.1578 -2.1931
   244G12c C02S 4295   7.249   4.901   4.212  0.2499 -0.1088 -0.3998
   244G12c O00J 4296   7.130   4.831   4.230 -1.1267 -1.3139 -1.4311
   244G12c H01P 4297   7.137   4.752   4.178 -1.2175 -1.7642 -0.7693
   244G12c C02R 4298   7.344   4.873   4.105 -0.8192 -0.4734  0.3309
   244G12c O00I 4299   7.325   4.745   4.051 -0.1459 -1.9065 -0.2222
   244G12c C02Q 4300   7.422   4.692   3.970 -0.2751 -1.0716 -0.5831
   244G12c H01N 4301   7.443   4.760   3.888  0.9179  1.4010  1.6948
   244G12c H01R 4302   7.407   4.594   3.924 -6.5969  0.6934 -2.9097
   244G12c H01Q 4303   7.519   4.672   4.015 -1.9389 -1.0195  3.1903
   244G12c C02A 4304   7.449   4.958   4.084 -1.6858  0.4064  0.1188
   244G12c H011 4305   7.504   4.929   3.996 -2.1643 -6.0712  1.7317
   244G12c C00C 4306   7.637   5.469   4.335  0.8412  2.5668  1.0084
   244G12c H012 4307   7.660   5.417   4.426 -1.4790  2.1885  1.4267
   244G12c C00B 4308   7.575   5.589   4.362  0.7099 -0.6482  0.2539
   244G12c C00A 4309   7.505   5.625   4.485 -1.5471  2.3845 -0.4841
   244G12c C009 4310   7.420   5.531   4.558  0.3914 -2.1518  0.6760
   244G12c C008 4311   7.404   5.395   4.566  0.4328 -0.0274  2.3555
   244G12c H013 4312   7.486   5.340   4.523  0.1552 -1.4598  3.6118
   244G12c C007 4313   7.317   5.338   4.669 -0.3802 -1.6019 -0.2750
   244G12c H014 4314   7.327   5.243   4.719 -0.6852 -1.7347 -0.4675
   244G12c C006 4315   7.212   5.421   4.722  0.7068  0.4825  0.0749
   244G12c C005 4316   7.239   5.558   4.705  0.8072 -0.2772 -0.5791
   244G12c C004 4317   7.129   5.635   4.712  0.1269  0.3583 -0.5348
   244G12c C003 4318   7.135   5.772   4.663  0.4465  1.5416 -1.0753
   244G12c C002 4319   7.014   5.850   4.664 -1.7753 -1.1165  0.5286
   244G12c C001 4320   6.978   5.973   4.632  0.4436 -0.8781  1.2148
   244G12c C00M 4321   7.029   6.026   4.505 -0.1247  0.5112 -1.2288
   244G12c C00L 4322   7.164   6.052   4.471 -0.7680 -0.7424 -2.4863
   244G12c C00R 4323   7.192   6.081   4.328  1.7510  0.5930  1.8574
   244G12c C00Q 4324   7.112   6.134   4.222 -1.1221  0.8160 -2.4460
   244G12c C00V 4325   7.166   6.118   4.094  0.0928 -0.7894 -0.3406
   244G12c C00U 4326   7.279   6.023   4.079  0.4424 -0.6875 -1.5537
   244G12c C00T 4327   7.336   5.960   4.185  2.0112 -1.1449  1.2836
   244G12c C016 4328   7.438   5.876   4.176 -0.2491  1.4777  0.4364
   244G12c C015 4329   7.493   5.863   4.057  1.4800 -0.3238 -1.2407
   244G12c C010 4330   7.446   5.934   3.946  0.6667 -0.2882  1.4524
   244G12c C011 4331   7.519   5.962   3.832  0.4247 -1.6257 -1.3127
   244G12c H005 4332   7.507   6.034   3.752 -0.4919 -4.2753 -3.6310
   244G12c C012 4333   7.619   5.881   3.815 -1.8344  0.1654 -1.0009
   244G12c C017 4334   7.705   5.872   3.701  0.2861  0.8769  0.7549
   244G12c O002 4335   7.711   5.757   3.629  1.1619  2.1760  0.1849
   244G12c H004 4336   7.665   5.678   3.655  0.6361  0.7149 -4.5542
   244G12c C018 4337   7.792   5.976   3.684  1.6109  0.3055  1.7516
   244G12c O001 4338   7.892   5.995   3.594 -0.2348 -0.8780  0.2040
   244G12c H003 4339   7.962   5.943   3.631 -1.5072 -1.5274  1.7379
   244G12c C019 4340   7.763   6.117   3.729  1.8980 -0.9526 -0.7826
   244G12c H002 4341   7.713   6.175   3.651  0.7057  0.3044  0.8794
   244G12c H001 4342   7.706   6.116   3.821  1.3177  3.0837 -0.9733
   244G12c O000 4343   7.884   6.180   3.799  0.0468  0.8129  0.9233
   244G12c C01A 4344   7.861   6.274   3.902 -1.9591 -1.0562 -0.0038
   244G12c C02K 4345   7.743   6.359   3.887  0.8502 -0.5904 -1.1192
   244G12c O00G 4346   7.683   6.401   3.781 -0.2825  0.9900  0.4512
   244G12c C02M 4347   7.791   6.441   3.679 -0.5865 -0.2855 -0.9599
   244G12c H01G 4348   7.767   6.441   3.572  1.6458 -2.4355 -1.4984
   244G12c H01F 4349   7.829   6.539   3.708  3.1290 -2.4092  1.8084
   244G12c H01E 4350   7.879   6.378   3.669  1.7811  1.8769  4.2097
   244G12c C02J 4351   7.689   6.427   3.994  0.4252 -2.6567  2.3463
   244G12c H01H 4352   7.597   6.472   3.959 -0.8684 -6.8819 -0.0721
   244G12c C02I 4353   7.737   6.404   4.129 -1.1583 -0.6029 -0.0496
   244G12c C02N 4354   7.684   6.497   4.252 -0.3763  1.9504  1.3701
   244G12c H01M 4355   7.763   6.560   4.292  4.6018 -5.2566  3.9686
   244G12c C02O 4356   7.573   6.461   4.321 -2.1208  0.0844 -0.5909
   244G12c H01L 4357   7.543   6.519   4.407  5.6467  1.3555  1.6615
   244G12c C02P 4358   7.500   6.337   4.297  1.2796  0.2975  2.4476
   244G12c H01K 4359   7.584   6.275   4.265 -0.6665 -3.2103  3.9013
   244G12c H01J 4360   7.475   6.328   4.403  1.0536  4.0155  2.7680
   244G12c O00H 4361   7.406   6.352   4.196  0.4808 -0.5957 -0.6784
   244G12c H01I 4362   7.346   6.424   4.205 -0.5725 -1.6595  1.0791
   244G12c C02H 4363   7.844   6.313   4.146 -0.4295  1.1516  2.3856
   244G12c H01C 4364   7.872   6.313   4.251  2.2426 -2.1470  1.7801
   244G12c C02L 4365   7.909   6.268   4.032  0.9802 -0.0681  1.0383
   244G12c H01D 4366   7.996   6.206   4.017 -2.0725 -4.2125 -0.3365
   244G12c C013 4367   7.666   5.790   3.926 -2.3772 -1.1578 -0.1779
   244G12c H000 4368   7.729   5.716   3.878  2.3660  3.0368 -0.8174
   244G12c C014 4369   7.595   5.768   4.035 -1.4085  0.4894  0.2103
   244G12c C00F 4370   7.610   5.656   4.133 -0.6695  0.7822  0.8309
   244G12c C00H 4371   7.479   5.796   4.284 -0.1343  0.8813  0.8704
   244G12c C00I 4372   7.443   5.835   4.406 -0.8354 -1.0975 -0.3522
   244G12c C00J 4373   7.349   5.940   4.409  0.8153  1.5708 -0.2369
   244G12c C00Z 4374   7.341   6.018   3.960 -0.2840 -0.1066 -1.4821
   244G12c C00Y 4375   7.256   6.052   3.844 -0.4561 -1.9306  1.0076
   244G12c H006 4376   7.306   6.030   3.751 -1.7724  3.6913 -1.2253
   244G12c C00X 4377   7.133   6.113   3.837 -0.7844 -0.8381 -0.3435
   244G12c O003 4378   7.052   6.119   3.734 -1.0412  1.4334  0.4014
   244G12c C01B 4379   7.121   6.092   3.603 -0.8494  0.5282 -0.0155
   244G12c H009 4380   7.188   6.006   3.590 -0.4344  0.6836  0.9688
   244G12c H008 4381   7.069   6.128   3.515 -3.1400 -3.0392 -0.2423
   244G12c H007 4382   7.208   6.157   3.603  1.1335 -1.5730 -7.9064
   244G12c C00W 4383   7.100   6.173   3.973 -0.3495 -0.3145  1.3400
   244G12c O004 4384   6.999   6.265   3.986  1.5640 -0.0455 -0.9559
   244G12c C01C 4385   6.929   6.239   4.100  0.4565  0.1207  0.6295
   244G12c H00A 4386   6.866   6.325   4.118 -1.7002  0.6256 -7.2122
   244G12c C00P 4387   6.976   6.146   4.200 -0.1948 -1.5242  0.3650
   244G12c C00O 4388   6.883   6.088   4.298 -1.1438  0.7364 -0.4677
   244G12c C01D 4389   6.752   6.064   4.251  0.6724  1.5465  0.3556
   244G12c H00S 4390   6.728   6.109   4.156  2.3718 -3.7537 -2.7969
   244G12c C01E 4391   6.639   6.007   4.319 -0.4217  1.1798 -0.9840
   244G12c O008 4392   6.521   5.963   4.272  0.6404 -0.8406  0.5222
   244G12c C01V 4393   6.439   6.038   4.182 -1.7267 -0.9116 -2.0134
   244G12c C01Z 4394   6.292   6.027   4.235 -0.3246  0.2346  0.0647
   244G12c H00R 4395   6.314   6.053   4.339 -1.7975 -0.3470  0.5263
   244G12c H00Q 4396   6.222   6.084   4.175  0.8841 -1.5801 -3.2361
   244G12c O009 4397   6.252   5.891   4.234  1.6949 -0.5637 -0.9793
   244G12c H00P 4398   6.258   5.879   4.140 -0.8092  3.1970 -1.7212
   244G12c C01W 4399   6.482   6.134   4.092  0.1853 -0.5687  0.0671
   244G12c H00O 4400   6.578   6.099   4.057 -1.9910 -5.7764 -1.2182
   244G12c C01X 4401   6.386   6.203   3.986  0.1562  1.6039  0.2437
   244G12c H00N 4402   6.313   6.273   4.028 -1.2064  0.7756 -0.6870
   244G12c H00M 4403   6.440   6.293   3.956  2.2205 -0.6571 -3.2734
   244G12c C01Y 4404   6.291   6.110   3.910 -1.2751 -0.0511 -0.3136
   244G12c C02D 4405   6.162   6.152   3.878  1.1064  1.1737 -0.6180
   244G12c H019 4406   6.124   6.251   3.901  1.0892  0.6910  1.4964
   244G12c C02C 4407   6.086   6.067   3.807 -0.2335 -0.1721 -0.6846
   244G12c H01A 4408   5.983   6.097   3.797 -0.0989 -0.6499 -4.0982
   244G12c C02B 4409   6.132   5.947   3.765  0.6245 -0.1913  1.7246
   244G12c O00E 4410   6.030   5.860   3.713 -0.6850 -0.1011  0.2774
   244G12c H01B 4411   6.049   5.770   3.692  4.3207  0.7872  0.2695
   244G12c C02F 4412   6.250   5.893   3.801  0.1935  0.6425 -0.5571
   244G12c O00F 4413   6.285   5.769   3.783  0.4458 -0.7237  1.0278
   244G12c C02G 4414   6.218   5.692   3.886  1.3314  0.7916  0.8356
   244G12c H017 4415   6.305   5.684   3.952 -3.2373 -5.3077  6.9725
   244G12c H016 4416   6.184   5.602   3.835 -3.6164  0.5733  4.0757
   244G12c H015 4417   6.118   5.707   3.926  1.4419  0.3728  1.2760
   244G12c C02E 4418   6.335   5.980   3.860 -0.0204 -0.4618 -1.2284
   244G12c H018 4419   6.433   5.934   3.862  4.3981  7.9888  2.1480
   244G12c C01F 4420   6.681   5.977   4.442 -0.6220  1.2898  0.9931
   244G12c C01G 4421   6.614   5.867   4.513  0.0875 -1.1889  1.4543
   244G12c H00L 4422   6.517   5.831   4.480  1.1289 -3.2755  0.5963
   244G12c C01H 4423   6.682   5.787   4.608 -1.0131  1.0564  1.5878
   244G12c H00B 4424   6.639   5.696   4.648  2.0017 -2.2497 -2.3635
   244G12c C01I 4425   6.782   5.863   4.659  1.0669  0.7342  0.8778
   244G12c C01U 4426   6.802   6.016   4.502  0.7883  1.3277 -1.1869
   244G12c C00S 4427   7.317   6.029   4.301 -2.2617 -0.1729 -0.8140
   244G12c C00K 4428   7.253   5.950   4.511  0.0164  0.7339  0.3708
   244G12c C00N 4429   6.917   6.041   4.426  0.5774 -0.2532 -1.1665
   244G12c C000 4430   6.833   5.989   4.641  0.9419 -0.0031 -1.1685
   244G12c C01J 4431   6.895   5.797   4.724 -0.0612  0.1862 -1.3339
   244G12c C01K 4432   6.895   5.672   4.804 -0.4788  0.7464 -1.8852
   244G12c C01P 4433   6.784   5.625   4.887  0.3377  0.0999 -0.4009
   244G12c C01Q 4434   6.692   5.734   4.922 -0.2007  1.4534 -1.6179
   244G12c H00G 4435   6.736   5.807   4.988 -0.5678  3.3544 -3.4245
   244G12c C01R 4436   6.561   5.739   4.894  0.7921 -1.3013 -0.7219
   244G12c H00F 4437   6.523   5.657   4.836  5.0701 -2.8551 -1.4859
   244G12c C01S 4438   6.463   5.863   4.923 -1.3519 -0.4559 -0.1576
   244G12c H00E 4439   6.554   5.918   4.947  0.8456 -3.7013 -0.7738
   244G12c H00D 4440   6.415   5.881   4.826  4.9862  3.3365 -2.9333
   244G12c O005 4441   6.362   5.824   5.032  0.1107 -0.2546  0.8462
   244G12c H00C 4442   6.291   5.765   5.012  2.0157 -3.1777  2.2775
   244G12c C01O 4443   6.779   5.486   4.900  0.5858  1.8216 -0.5283
   244G12c H00H 4444   6.685   5.446   4.932  1.5235 -3.6963 -4.0460
   244G12c C01N 4445   6.893   5.396   4.884 -1.8417 -2.2729 -0.0133
   244G12c O006 4446   6.912   5.272   4.935  0.8778 -0.1984 -0.2391
   244G12c C01T 4447   6.817   5.166   4.972 -0.0078 -0.4536 -0.9799
   244G12c H00K 4448   6.711   5.187   4.987 -0.4227 -5.6749  5.7708
   244G12c H00J 4449   6.846   5.091   5.045  2.2081 -1.9455 -3.3066
   244G12c H00I 4450   6.827   5.110   4.879 -1.6712  0.3422 -1.6537
   244G12c C01M 4451   7.005   5.457   4.830 -0.8966 -0.1686  0.9724
   244G12c C020 4452   7.246   5.838   4.595  1.1159  2.1114 -0.8129
   244G12c C021 4453   7.364   5.745   4.611 -1.5842 -0.7917 -0.4776
   244G12c C01L 4454   7.010   5.594   4.779 -0.7452  0.7605  0.3473
   244G12c O007 4455   7.108   5.370   4.779 -2.1907  0.0656  0.5370
   244G12c C022 4456   7.351   5.607   4.654 -0.7142 -0.4529  0.2235
   244G12c C023 4457   7.480   5.764   4.524  0.0934 -1.4250 -0.2293
   244G12c C00G 4458   7.567   5.690   4.265 -2.4041 -0.3749  0.2266
   244G12c C00E 4459   7.682   5.550   4.112 -2.3097  0.2737  1.0443
   244G12c O00A 4460   7.765   5.538   4.013  2.1799  0.7670 -0.5312
   244G12c C024 4461   7.900   5.560   4.043 -0.1711  0.3757 -0.6646
   244G12c H00V 4462   7.947   5.479   3.986 -6.0082 -0.5768 -4.4867
   244G12c H00U 4463   7.916   5.579   4.150  2.8639  2.8841 -1.5070
   244G12c H00T 4464   7.925   5.658   4.004 -2.9138  2.0853  1.6768
   254G12c C00D 4465   3.407   5.419  10.922 -1.3281  0.0256  0.1399
   254G12c O00B 4466   3.445   5.497  11.031  0.1778  0.7903 -0.8098
   254G12c C025 4467   3.563   5.482  11.097  0.6935 -0.5911 -0.1325
   254G12c C026 4468   3.604   5.335  11.127 -0.8069 -0.2068 -0.9856
   254G12c H00Y 4469   3.691   5.359  11.188 -0.0908  0.6254 -2.3185
   254G12c H00X 4470   3.626   5.302  11.026 -0.4528  2.1835 -1.7011
   254G12c O00C 4471   3.523   5.268  11.227  0.0071  0.6169  0.3827
   254G12c H00W 4472   3.474   5.200  11.184 -0.4426  2.7418 -2.6145
   254G12c C027 4473   3.643   5.608  11.115  1.1142 -1.6717  0.6948
   254G12c O00D 4474   3.590   5.743  11.116 -1.6884  0.6379  0.1528
   254G12c H00Z 4475   3.550   5.756  11.032  2.9018  6.6923 -1.4598
   254G12c C028 4476   3.784   5.580  11.165  2.5575  0.3271 -1.0715
   254G12c C029 4477   3.887   5.503  11.132  0.4972  0.7684  1.0303
   254G12c H010 4478   3.874   5.425  11.058  1.7746 -2.1494  3.7658
   254G12c C02T 4479   4.032   5.515  11.154 -0.3511 -0.0211  1.9269
   254G12c H01O 4480   4.127   5.470  11.128 -1.4296 -0.1998 -2.0628
   254G12c C02S 4481   4.052   5.619  11.246  1.8680  0.7843 -1.4052
   254G12c O00J 4482   4.183   5.645  11.285 -0.7487 -0.7605  1.8004
   254G12c H01P 4483   4.186   5.733  11.320 -6.5220  0.1538  0.5752
   254G12c C02R 4484   3.951   5.689  11.317  0.9533  0.5664  0.2498
   254G12c O00I 4485   3.976   5.780  11.414  1.2476  0.6825  0.4519
   254G12c C02Q 4486   3.919   5.774  11.538 -0.1984  0.9301  0.0956
   254G12c H01N 4487   3.981   5.837  11.602  1.7042  1.1550 -1.9215
   254G12c H01R 4488   3.812   5.791  11.526 -0.3255  4.3222  4.6738
   254G12c H01Q 4489   3.970   5.683  11.567  2.1059  1.8877 -0.8811
   254G12c C02A 4490   3.823   5.685  11.266 -0.7297  0.2744 -0.1775
   254G12c H011 4491   3.755   5.748  11.320 -1.0428  1.2730 -1.7211
   254G12c C00C 4492   3.428   5.487  10.792 -1.4290  1.3919 -1.2389
   254G12c H012 4493   3.411   5.591  10.814 -1.0187  0.7648  2.3977
   254G12c C00B 4494   3.447   5.425  10.677 -0.7846  2.3108 -0.1406
   254G12c C00A 4495   3.500   5.482  10.563  0.0751 -1.7633 -0.1002
   254G12c C009 4496   3.483   5.620  10.511 -0.6683 -0.4024 -0.0515
   254G12c C008 4497   3.455   5.748  10.553  1.6441 -1.2461 -1.3364
   254G12c H013 4498   3.460   5.787  10.653 -3.3204  2.2784 -2.2467
   254G12c C007 4499   3.460   5.853  10.458 -1.3763  0.4673  1.3289
   254G12c H014 4500   3.483   5.957  10.474  0.5686  0.8192 -2.8861
   254G12c C006 4501   3.445   5.826  10.311  0.3343 -1.8629 -1.0941
   254G12c C005 4502   3.444   5.697  10.273  1.4897 -0.9018  1.3239
   254G12c C004 4503   3.438   5.646  10.139 -1.4361  0.1107 -0.2592
   254G12c C003 4504   3.424   5.505  10.114  0.6538 -0.1876 -0.8784
   254G12c C002 4505   3.406   5.469   9.985 -1.2400  0.2516  1.3229
   254G12c C001 4506   3.409   5.349   9.918  0.8051  0.4600  0.8556
   254G12c C00M 4507   3.357   5.227   9.975 -1.2517  1.0583  0.4681
   254G12c C00L 4508   3.399   5.182  10.095  0.0010 -0.5812 -0.5717
   254G12c C00R 4509   3.346   5.072  10.180  1.6774 -0.1095 -1.3244
   254G12c C00Q 4510   3.231   4.979  10.143 -0.6874  3.2676 -0.0968
   254G12c C00V 4511   3.172   4.919  10.252 -0.1762 -0.6889  1.1928
   254G12c C00U 4512   3.222   4.949  10.381  1.0121  1.1397 -0.3468
   254G12c C00T 4513   3.330   5.028  10.407 -1.0511 -2.0386  0.3882
   254G12c C016 4514   3.342   5.087  10.536  1.0819  0.4107  1.8448
   254G12c C015 4515   3.264   5.036  10.644 -0.2371 -0.8798  0.0513
   254G12c C010 4516   3.180   4.928  10.615  0.1202  0.3628 -0.6387
   254G12c C011 4517   3.118   4.869  10.732 -0.5320  1.1537 -0.6696
   254G12c H005 4518   3.054   4.782  10.731  2.2596 -0.9633 -2.5121
   254G12c C012 4519   3.167   4.883  10.859  0.6016  0.3824  0.8478
   254G12c C017 4520   3.145   4.796  10.980  2.5476 -0.6936 -0.1704
   254G12c O002 4521   3.020   4.736  11.005  0.1754 -0.1303  0.3288
   254G12c H004 4522   3.019   4.698  11.092  3.0388  1.2852  1.0316
   254G12c C018 4523   3.253   4.770  11.059  0.6227  0.0378 -0.1131
   254G12c O001 4524   3.223   4.697  11.160  0.6447  0.0128  0.1446
   254G12c H003 4525   3.164   4.768  11.181 -1.1713 -0.0201 -4.2587
   254G12c C019 4526   3.388   4.817  11.053 -0.3213 -1.6029  0.0667
   254G12c H002 4527   3.420   4.750  10.973 -3.2319 -1.3005 -1.3995
   254G12c H001 4528   3.391   4.912  10.998  0.6777 -3.9094 -4.0436
   254G12c O000 4529   3.468   4.824  11.183 -0.0172 -0.1213 -1.7466
   254G12c C01A 4530   3.608   4.802  11.147  1.1949  1.0083 -1.6498
   254G12c C02K 4531   3.678   4.785  11.271 -0.6446  2.3404 -1.3339
   254G12c O00G 4532   3.614   4.751  11.391  0.2226 -0.0496 -0.7446
   254G12c C02M 4533   3.541   4.627  11.400  0.8530 -0.5564  0.4092
   254G12c H01G 4534   3.616   4.549  11.389  2.8802  0.2342  6.6504
   254G12c H01F 4535   3.456   4.604  11.335 -2.6907  5.6962  2.4100
   254G12c H01E 4536   3.474   4.654  11.482 -2.4209 -5.4377 -0.4191
   254G12c C02J 4537   3.820   4.781  11.262 -1.5452  0.7195  1.2536
   254G12c H01H 4538   3.867   4.730  11.345 -5.4557 -5.1502  0.2011
   254G12c C02I 4539   3.898   4.854  11.156 -0.0262 -0.3604 -1.5383
   254G12c C02N 4540   4.038   4.844  11.147  0.7212  0.0382  0.2829
   254G12c H01M 4541   4.070   4.831  11.045  3.1408 -0.6878  1.1077
   254G12c C02O 4542   4.115   4.883  11.241 -1.7786 -1.0663 -1.2807
   254G12c H01L 4543   4.075   4.935  11.328 -2.6258  5.5917 -5.2953
   254G12c C02P 4544   4.258   4.879  11.213  0.8086 -1.5325  0.3193
   254G12c H01K 4545   4.274   4.781  11.167 -3.9214 -3.8783  3.2051
   254G12c H01J 4546   4.252   4.980  11.173 -0.3312 -2.7131 -2.6605
   254G12c O00H 4547   4.298   4.861  11.349  1.7077  0.4962  1.2659
   254G12c H01I 4548   4.370   4.922  11.334  2.3664 -0.6068 -0.1706
   254G12c C02H 4549   3.828   4.892  11.047  0.9998 -1.2414  0.3647
   254G12c H01C 4550   3.867   4.918  10.950 -0.2190  1.5202  0.5893
   254G12c C02L 4551   3.700   4.858  11.045  0.6929  1.7572 -1.0260
   254G12c H01D 4552   3.654   4.886  10.952 -3.3860 -0.1757  0.2834
   254G12c C013 4553   3.220   5.011  10.875  1.0449 -0.3447 -0.1545
   254G12c H000 4554   3.176   5.082  10.943 -0.7499 -0.4840 -1.1542
   254G12c C014 4555   3.280   5.086  10.770 -1.7734  1.4516  0.4859
   254G12c C00F 4556   3.353   5.216  10.784 -0.4750 -0.5431  0.5082
   254G12c C00H 4557   3.418   5.210  10.547  0.1487  2.4430  0.5794
   254G12c C00I 4558   3.464   5.266  10.433  0.1757 -1.4647 -0.0947
   254G12c C00J 4559   3.483   5.191  10.309  0.0575 -0.6819 -0.0280
   254G12c C00Z 4560   3.154   4.880  10.486 -0.0018 -1.5166 -1.4176
   254G12c C00Y 4561   3.032   4.793  10.461 -0.2960 -0.4612 -0.4150
   254G12c H006 4562   2.963   4.775  10.542 -2.7648  6.0747 -0.7725
   254G12c C00X 4563   2.996   4.776  10.335  0.1385  0.2670  1.0690
   254G12c O003 4564   2.874   4.697  10.302  0.2857 -0.2279  1.2071
   254G12c C01B 4565   2.880   4.585  10.227 -0.5133  1.0131  1.4849
   254G12c H009 4566   2.966   4.529  10.264 -2.1720 -0.2589  3.4432
   254G12c H008 4567   2.896   4.613  10.123 -0.9305  0.0047  1.1556
   254G12c H007 4568   2.795   4.518  10.221 -0.0589  0.5637 -0.3888
   254G12c C00W 4569   3.054   4.839  10.222 -0.8292 -2.7494  0.7370
   254G12c O004 4570   2.992   4.816  10.102 -1.3634  0.2797 -0.3196
   254G12c C01C 4571   3.071   4.851   9.993  0.4107  1.2256 -0.2063
   254G12c H00A 4572   3.115   4.779   9.925 -2.2149  2.6542 -3.5589
   254G12c C00P 4573   3.164   4.964  10.014 -0.9763  0.6319  0.5662
   254G12c C00O 4574   3.155   5.072   9.913  0.7010  0.5104 -0.8024
   254G12c C01D 4575   3.031   5.092   9.855  2.8875 -0.8942  1.2202
   254G12c H00S 4576   2.952   5.022   9.878 -1.6079  2.1020 -3.8857
   254G12c C01E 4577   3.007   5.203   9.767 -0.0750  0.3340  1.4290
   254G12c O008 4578   2.903   5.234   9.692  0.2022  0.0424  1.0737
   254G12c C01V 4579   2.800   5.146   9.628 -1.7586 -0.0609 -0.7126
   254G12c C01Z 4580   2.659   5.153   9.657  1.8794  0.2719  0.0446
   254G12c H00R 4581   2.629   5.189   9.755 -2.3807  3.3196 -2.1896
   254G12c H00Q 4582   2.621   5.200   9.566  0.1876 -4.7629 -2.0508
   254G12c O009 4583   2.648   5.016   9.655  0.8502 -2.0901  1.6818
   254G12c H00P 4584   2.660   4.946   9.594  0.8889 -1.6806  1.2212
   254G12c C01W 4585   2.847   5.066   9.519 -1.3682  0.2655  0.4293
   254G12c H00O 4586   2.800   4.983   9.468  2.3168 -2.3729  1.1056
   254G12c C01X 4587   2.975   5.079   9.437 -1.2150 -0.0890 -0.7906
   254G12c H00N 4588   3.043   5.156   9.473 -5.6436  3.4628  0.3705
   254G12c H00M 4589   3.031   4.989   9.462  2.8387  3.0389  2.0829
   254G12c C01Y 4590   2.911   5.079   9.301 -1.0804  1.2139 -1.3805
   254G12c C02D 4591   2.965   4.995   9.202  0.5068 -1.4240  0.8613
   254G12c H019 4592   3.047   4.939   9.244 -2.5909 -2.8817  5.3353
   254G12c C02C 4593   2.903   5.010   9.072 -1.3934  0.0222 -0.4197
   254G12c H01A 4594   2.955   4.954   8.996  0.1112 -1.8126  1.8633
   254G12c C02B 4595   2.806   5.115   9.038 -2.0938 -0.1767  0.1629
   254G12c O00E 4596   2.757   5.151   8.919 -1.2456 -0.1751  1.3275
   254G12c H01B 4597   2.764   5.245   8.908  1.8390 -0.6747 -1.7367
   254G12c C02F 4598   2.737   5.171   9.141  0.1827  0.1726  0.3886
   254G12c O00F 4599   2.626   5.264   9.109 -1.2717 -0.1066 -0.8890
   254G12c C02G 4600   2.675   5.395   9.132 -1.1729  2.5732  0.3705
   254G12c H017 4601   2.775   5.415   9.170 -2.7002  0.1574  6.1415
   254G12c H016 4602   2.606   5.466   9.178  0.3038  1.7369  4.0019
   254G12c H015 4603   2.687   5.434   9.031  3.2289 -2.4855 -1.2991
   254G12c C02E 4604   2.806   5.179   9.262  2.6309 -1.3204 -1.9610
   254G12c H018 4605   2.754   5.229   9.342  0.7013 -1.7823 -2.8904
   254G12c C01F 4606   3.117   5.294   9.726  2.7329 -0.1931 -1.7634
   254G12c C01G 4607   3.107   5.415   9.649 -1.2256 -0.6016 -0.0296
   254G12c H00L 4608   3.013   5.448   9.608 -0.6214  2.0790  0.6100
   254G12c C01H 4609   3.203   5.523   9.693 -0.7425  0.9246 -0.2324
   254G12c H00B 4610   3.155   5.618   9.679 -2.0003  0.7907  2.8120
   254G12c C01I 4611   3.309   5.499   9.775  0.0896  1.2721 -0.9091
   254G12c C01U 4612   3.237   5.280   9.805 -1.1209 -1.3214  0.6051
   254G12c C00S 4613   3.406   5.073  10.299 -1.4980  0.5139  1.5727
   254G12c C00K 4614   3.461   5.268  10.188  0.1832 -1.5314  0.9868
   254G12c C00N 4615   3.246   5.186   9.901  0.2707  0.9113  0.9879
   254G12c C000 4616   3.335   5.369   9.809  0.1891 -2.4203 -0.3764
   254G12c C01J 4617   3.364   5.567   9.886  1.1260  1.5666  0.6897
   254G12c C01K 4618   3.381   5.706   9.900 -1.2292 -2.0090  0.7212
   254G12c C01P 4619   3.384   5.805   9.797 -0.5063  0.1060 -0.0167
   254G12c C01Q 4620   3.391   5.754   9.661  0.4388 -1.3274  0.5328
   254G12c H00G 4621   3.459   5.693   9.603 -4.8258 -4.3403 -2.9689
   254G12c C01R 4622   3.307   5.808   9.577  0.6226 -0.3496 -0.0279
   254G12c H00F 4623   3.257   5.893   9.622  0.2531 -1.7587  2.3180
   254G12c C01S 4624   3.277   5.782   9.431 -0.9459 -1.7702  0.6426
   254G12c H00E 4625   3.216   5.847   9.368  1.2249 -0.1516  0.1262
   254G12c H00D 4626   3.239   5.682   9.410  3.8985 -3.9763  1.6379
   254G12c O005 4627   3.409   5.762   9.379 -0.7566  0.5590  0.2859
   254G12c H00C 4628   3.446   5.700   9.317 -4.2726  0.5139 -1.8927
   254G12c C01O 4629   3.425   5.937   9.828 -0.3202  0.4702  0.1379
   254G12c H00H 4630   3.467   5.997   9.749 -0.2818  3.7865  2.5987
   254G12c C01N 4631   3.430   5.972   9.965 -0.0500  0.7033 -0.3273
   254G12c O006 4632   3.478   6.097   9.982  0.2671 -1.6685  0.0772
   254G12c C01T 4633   3.616   6.120   9.919  0.6087 -0.9254  1.1596
   254G12c H00K 4634   3.694   6.046   9.903  0.7685  0.1024 -3.4579
   254G12c H00J 4635   3.619   6.135   9.811 -0.6683  2.3680  1.5176
   254G12c H00I 4636   3.661   6.207   9.966 -0.8231  1.7364 -2.1769
   254G12c C01M 4637   3.412   5.876  10.067 -1.8350  0.5530  1.0068
   254G12c C020 4638   3.462   5.407  10.209  1.1751  0.2438  0.5241
   254G12c C021 4639   3.511   5.466  10.328 -0.5645 -1.5002 -0.0882
   254G12c C01L 4640   3.404   5.738  10.037 -0.9060 -1.3518  1.4494
   254G12c O007 4641   3.426   5.927  10.208 -0.7526  0.6957 -0.0520
   254G12c C022 4642   3.467   5.584  10.376  1.2020  1.3827  1.1332
   254G12c C023 4643   3.488   5.401  10.447 -0.6974  0.2360 -1.1034
   254G12c C00G 4644   3.411   5.281  10.676  1.1063  2.1844 -0.4425
   254G12c C00E 4645   3.362   5.285  10.916 -2.0652  2.5524 -0.4423
   254G12c O00A 4646   3.335   5.234  11.034  1.5149  0.2576  0.3027
   254G12c C024 4647   3.223   5.288  11.124 -0.3926  0.4666 -0.0099
   254G12c H00V 4648   3.174   5.210  11.182 -1.2362  0.1009 -1.1835
   254G12c H00U 4649   3.138   5.330  11.070  1.9718  2.5768 -2.2401
   254G12c H00T 4650   3.256   5.352  11.205 -2.1821 -3.7965  4.3686
   264G12c C00D 4651  11.365   8.523  12.448  0.6862  0.6798  0.4883
   264G12c O00B 4652  11.276   8.450  12.507 -1.0792  0.3282 -0.0584
   264G12c C025 4653  11.338   8.348  12.588 -1.3789  0.0741 -0.7339
   264G12c C026 4654  11.396   8.227  12.512 -1.1966 -1.2920 -1.5612
   264G12c H00Y 4655  11.490   8.189  12.553 -0.5634  2.7316  0.9927
   264G12c H00X 4656  11.384   8.276  12.416 -1.7121  1.5435 -0.1093
   264G12c O00C 4657  11.319   8.117  12.513  1.1138 -1.1661 -1.2335
   264G12c H00W 4658  11.313   8.107  12.420  0.8635 -1.9424 -1.1426
   264G12c C027 4659  11.315   8.368  12.726  0.8408 -0.0509  1.2116
   264G12c O00D 4660  11.269   8.479  12.785 -0.4023  0.5075  1.3494
   264G12c H00Z 4661  11.323   8.483  12.862  0.1005  2.9819  0.9123
   264G12c C028 4662  11.346   8.256  12.829  1.4886  0.4569 -0.0236
   264G12c C029 4663  11.252   8.198  12.930  0.5418 -0.8800 -2.4383
   264G12c H010 4664  11.153   8.242  12.932  2.4392  3.6629 -1.9070
   264G12c C02T 4665  11.307   8.133  13.035 -0.7155  1.3399  2.5798
   264G12c H01O 4666  11.259   8.089  13.122 -2.4910  0.5890  1.2427
   264G12c C02S 4667  11.445   8.114  13.054 -1.9637  0.0257  1.0446
   264G12c O00J 4668  11.486   8.046  13.166 -0.6827 -0.1701  0.3117
   264G12c H01P 4669  11.566   8.093  13.184  2.4502 -4.6032 -1.2570
   264G12c C02R 4670  11.536   8.154  12.944 -0.5656  0.9023 -0.7305
   264G12c O00I 4671  11.664   8.105  12.946  0.1171  0.3981 -0.4762
   264G12c C02Q 4672  11.761   8.205  12.989 -0.8659  1.1267  0.8974
   264G12c H01N 4673  11.731   8.246  13.086 -4.0248 -4.5269  2.5332
   264G12c H01R 4674  11.851   8.146  13.009 -1.6459  0.2606  1.8654
   264G12c H01Q 4675  11.759   8.269  12.900  1.8047 -3.5839 -2.7865
   264G12c C02A 4676  11.490   8.225  12.841  1.1792 -1.6086  0.8315
   264G12c H011 4677  11.554   8.292  12.785  3.4853  0.4500  5.6397
   264G12c C00C 4678  11.465   8.609  12.504 -0.3285 -0.4581  0.0317
   264G12c H012 4679  11.487   8.584  12.607 -0.2738 -0.4268  0.0290
   264G12c C00B 4680  11.544   8.685  12.441 -1.8221 -0.0577 -0.7612
   264G12c C00A 4681  11.645   8.772  12.508  0.4678  1.4937 -1.2927
   264G12c C009 4682  11.692   8.794  12.647  0.3173  0.6143  1.6362
   264G12c C008 4683  11.620   8.790  12.773 -0.3478  0.7335  0.1766
   264G12c H013 4684  11.568   8.703  12.810 -2.9653  3.9314  4.6222
   264G12c C007 4685  11.612   8.910  12.848 -0.0793 -0.4781  0.2158
   264G12c H014 4686  11.525   8.893  12.910  1.7815 -5.6198  1.6589
   264G12c C006 4687  11.691   9.027  12.824  0.2558 -0.6730  0.8600
   264G12c C005 4688  11.772   9.021  12.716 -1.2968  1.3310  0.2150
   264G12c C004 4689  11.805   9.150  12.678  1.3234 -1.1416  0.3949
   264G12c C003 4690  11.862   9.166  12.550  0.8666 -0.8516  0.7852
   264G12c C002 4691  11.913   9.292  12.502  0.5454  1.1916 -0.4336
   264G12c C001 4692  11.951   9.341  12.376  0.5588 -0.2760 -1.0329
   264G12c C00M 4693  11.874   9.316  12.246 -0.8739  0.8309 -0.8827
   264G12c C00L 4694  11.853   9.190  12.203 -1.4457  0.5834  0.1909
   264G12c C00R 4695  11.766   9.149  12.088 -1.2732  0.0035 -1.8607
   264G12c C00Q 4696  11.698   9.221  11.994  0.8903  0.8574  0.7954
   264G12c C00V 4697  11.609   9.150  11.910 -0.6471 -0.4207 -1.2819
   264G12c C00U 4698  11.581   9.023  11.934 -0.0139 -0.9960  0.7181
   264G12c C00T 4699  11.622   8.969  12.059 -1.9560 -2.2655 -1.3864
   264G12c C016 4700  11.573   8.845  12.109 -1.1342  0.3414  1.0747
   264G12c C015 4701  11.467   8.800  12.035  0.3790  1.0555 -1.1644
   264G12c C010 4702  11.443   8.837  11.901 -1.1426  0.6002  0.6406
   264G12c C011 4703  11.358   8.760  11.818  2.9983 -0.5053  0.1715
   264G12c H005 4704  11.343   8.758  11.711 -6.1574 -0.2532  0.9943
   264G12c C012 4705  11.283   8.643  11.863 -1.6720 -0.1251 -0.2429
   264G12c C017 4706  11.196   8.551  11.772  0.1835 -0.7015 -0.0645
   264G12c O002 4707  11.149   8.635  11.669  1.1731 -1.2665 -0.7774
   264G12c H004 4708  11.160   8.728  11.670 -0.3995 -1.0524  2.4612
   264G12c C018 4709  11.218   8.422  11.762 -1.6414  0.0846 -2.3407
   264G12c O001 4710  11.300   8.331  11.813 -1.0885 -1.0038 -1.0240
   264G12c H003 4711  11.250   8.265  11.767  4.3511 -4.9473 -1.6945
   264G12c C019 4712  11.126   8.363  11.653  0.7590  0.5415  0.3322
   264G12c H002 4713  11.032   8.358  11.709 -1.7161 -0.3566 -3.7082
   264G12c H001 4714  11.096   8.423  11.568  4.6955  0.2034 -1.3829
   264G12c O000 4715  11.174   8.225  11.631  0.4980 -0.3927  0.2923
   264G12c C01A 4716  11.110   8.170  11.524  0.3211  1.1276  0.7156
   264G12c C02K 4717  11.033   8.056  11.539 -0.1830 -0.5105  0.7570
   264G12c O00G 4718  11.011   8.006  11.668 -0.2398  1.3241 -1.0503
   264G12c C02M 4719  10.880   8.007  11.691  0.4906  0.5823  0.4127
   264G12c H01G 4720  10.852   7.993  11.796  3.3088 -2.0466  0.9024
   264G12c H01F 4721  10.845   7.906  11.671  5.3011 -0.2504 -5.2081
   264G12c H01E 4722  10.815   8.059  11.621  3.0137  0.2633 -2.2629
   264G12c C02J 4723  10.992   7.976  11.429  0.5642 -1.3336  0.8369
   264G12c H01H 4724  10.935   7.887  11.453 -0.7844 -0.2734  1.6301
   264G12c C02I 4725  10.986   8.036  11.299  0.1210 -1.3988 -0.1845
   264G12c C02N 4726  10.899   7.983  11.197 -2.0487  0.2472 -0.5007
   264G12c H01M 4727  10.829   8.063  11.180 -1.0014  1.2104 -0.3205
   264G12c C02O 4728  10.924   7.855  11.154 -0.0024 -0.3195 -1.6363
   264G12c H01L 4729  11.007   7.807  11.203  0.9915 -0.5750 -3.5348
   264G12c C02P 4730  10.849   7.776  11.035  0.7387  0.7957 -0.3440
   264G12c H01K 4731  10.783   7.841  10.978 -0.3782 -4.5217 -5.5766
   264G12c H01J 4732  10.899   7.711  10.962  0.5337  2.9096 -2.4263
   264G12c O00H 4733  10.754   7.692  11.086  1.4400  0.9359 -0.3068
   264G12c H01I 4734  10.770   7.601  11.065 -3.3441 -0.3507  1.0050
   264G12c C02H 4735  11.030   8.162  11.285  1.0530 -0.3035  1.1623
   264G12c H01C 4736  11.013   8.242  11.214 -3.5813 -0.7828  1.5450
   264G12c C02L 4737  11.102   8.219  11.394 -1.2858  0.5113  0.4235
   264G12c H01D 4738  11.161   8.309  11.385  0.0210  0.1659  4.5826
   264G12c C013 4739  11.331   8.612  11.996 -0.0087  0.8874 -0.6436
   264G12c H000 4740  11.293   8.514  12.021  4.7776 -3.3931 -8.1873
   264G12c C014 4741  11.418   8.681  12.083 -0.0534 -0.1753  0.1823
   264G12c C00F 4742  11.436   8.643  12.225 -0.2913 -0.6808  0.8509
   264G12c C00H 4743  11.622   8.784  12.229 -1.4643  0.0799 -1.4286
   264G12c C00I 4744  11.724   8.857  12.290 -1.3631  1.3641 -0.5155
   264G12c C00J 4745  11.785   8.976  12.233 -0.6898 -2.7527 -1.3711
   264G12c C00Z 4746  11.509   8.954  11.849  0.5246 -1.7079 -1.6276
   264G12c C00Y 4747  11.449   9.010  11.738 -0.3924 -0.0033  0.6997
   264G12c H006 4748  11.386   8.945  11.680 -2.0830  3.1084 -1.1076
   264G12c C00X 4749  11.433   9.145  11.738 -0.4507 -0.1444 -0.2782
   264G12c O003 4750  11.335   9.230  11.684 -0.7123  0.0217  0.4484
   264G12c C01B 4751  11.258   9.169  11.581  1.1333  0.0855  0.4042
   264G12c H009 4752  11.251   9.237  11.496  1.8773  4.8226  3.9654
   264G12c H008 4753  11.154   9.192  11.603  1.7879  2.7753  0.8676
   264G12c H007 4754  11.269   9.070  11.536  0.7571 -0.7065  2.0344
   264G12c C00W 4755  11.532   9.223  11.815 -0.3704  0.3456  0.0508
   264G12c O004 4756  11.522   9.359  11.827  0.2805  0.0540 -0.1041
   264G12c C01C 4757  11.634   9.418  11.874 -1.8123 -1.6359 -0.0973
   264G12c H00A 4758  11.683   9.498  11.821  3.7456 -5.3209 -0.9153
   264G12c C00P 4759  11.696   9.365  11.990 -0.5209 -0.5265 -0.0012
   264G12c C00O 4760  11.734   9.461  12.091 -0.4522  0.6437  0.6477
   264G12c C01D 4761  11.687   9.596  12.077 -0.0488 -0.6171 -1.1322
   264G12c H00S 4762  11.617   9.625  12.000 -0.8058  2.3596  0.5746
   264G12c C01E 4763  11.714   9.694  12.178  0.1688  0.7955  0.5359
   264G12c O008 4764  11.671   9.810  12.129  0.0604 -0.1851  1.5583
   264G12c C01V 4765  11.706   9.931  12.195 -2.3819  1.0629 -1.8344
   264G12c C01Z 4766  11.849   9.961  12.180  0.4804 -0.2935  0.3380
   264G12c H00R 4767  11.922   9.904  12.238  2.9547 -2.3351 -4.5202
   264G12c H00Q 4768  11.854   9.952  12.072 -1.6476  0.1954  0.1715
   264G12c O009 4769  11.872  10.095  12.170  1.4861 -1.8956  0.4707
   264G12c H00P 4770  11.811  10.160  12.201 -0.2883 -0.0145 -6.1921
   264G12c C01W 4771  11.609   9.967  12.299  0.2536  0.5888  1.5523
   264G12c H00O 4772  11.530   9.893  12.296 -1.4934  2.4983 -3.0291
   264G12c C01X 4773  11.664  10.044  12.417  0.7522 -1.0713 -1.0656
   264G12c H00N 4774  11.771  10.034  12.432  0.7404 -5.2629 -2.9917
   264G12c H00M 4775  11.671  10.139  12.364  6.8574 -2.3007 -2.8129
   264G12c C01Y 4776  11.566  10.060  12.539 -1.1640  0.2440 -0.2727
   264G12c C02D 4777  11.595  10.175  12.631  1.0212  0.2351 -1.1785
   264G12c H019 4778  11.677  10.228  12.585  2.2264 -0.9062 -0.3452
   264G12c C02C 4779  11.504  10.183  12.745  1.1329 -0.3053  0.6774
   264G12c H01A 4780  11.519  10.275  12.801  0.5813  2.2431 -3.1401
   264G12c C02B 4781  11.398  10.084  12.760 -0.3382  1.7389  0.6978
   264G12c O00E 4782  11.305  10.108  12.874 -0.4178  0.8013  0.2072
   264G12c H01B 4783  11.293  10.021  12.908 -9.5020  2.1916  1.7843
   264G12c C02F 4784  11.365   9.993  12.668 -0.1278 -1.0940  0.3178
   264G12c O00F 4785  11.246   9.928  12.708 -1.6792  0.7038 -0.6323
   264G12c C02G 4786  11.165   9.889  12.598 -2.6204  0.0053 -2.1823
   264G12c H017 4787  11.184   9.975  12.533  2.1619  0.2418 -0.6745
   264G12c H016 4788  11.068   9.855  12.633 -1.6555 -2.0213 -1.3980
   264G12c H015 4789  11.217   9.812  12.539 -2.9735 -4.1761  2.6546
   264G12c C02E 4790  11.451   9.977  12.549 -0.6999 -2.6412  1.8327
   264G12c H018 4791  11.437   9.890  12.488  3.5696 -2.3892  0.3138
   264G12c C01F 4792  11.797   9.657  12.286 -2.6650  0.9220 -1.2936
   264G12c C01G 4793  11.837   9.731  12.397  1.0785  1.8129 -0.0985
   264G12c H00L 4794  11.797   9.831  12.383  1.0796  1.5766 -1.8722
   264G12c C01H 4795  11.847   9.652  12.518 -1.0245 -3.2132  0.2298
   264G12c H00B 4796  11.764   9.674  12.584  1.1532  1.5108  1.5335
   264G12c C01I 4797  11.914   9.528  12.513  0.2767  0.0567 -0.0846
   264G12c C01U 4798  11.867   9.531  12.274  1.3755  0.2176  0.7420
   264G12c C00S 4799  11.732   9.020  12.105  1.0882 -1.5456  0.1992
   264G12c C00K 4800  11.855   9.075  12.294  0.5928  0.0437  0.2853
   264G12c C00N 4801  11.811   9.432  12.196  0.7130  0.2384 -1.1805
   264G12c C000 4802  11.948   9.488  12.382 -0.2250  1.8126 -0.0632
   264G12c C01J 4803  11.885   9.410  12.591  1.2664  0.4535  1.2748
   264G12c C01K 4804  11.842   9.407  12.733 -0.1447  0.0475  0.7738
   264G12c C01P 4805  11.843   9.505  12.828 -1.7455 -1.1041 -1.2167
   264G12c C01Q 4806  11.930   9.615  12.807 -0.9108  0.0041  1.0497
   264G12c H00G 4807  12.022   9.619  12.750 -2.7842  3.4259 -1.9307
   264G12c C01R 4808  11.885   9.737  12.853  1.0064  0.2114 -0.4641
   264G12c H00F 4809  11.801   9.743  12.921 -1.4163  4.4567 -3.6237
   264G12c C01S 4810  11.940   9.883  12.835  0.4314 -0.5224 -0.2199
   264G12c H00E 4811  11.868   9.949  12.884  5.1036 -0.5217  7.4738
   264G12c H00D 4812  12.041   9.887  12.877 -0.8023 -1.2873  3.0304
   264G12c O005 4813  11.986   9.932  12.708 -0.3106 -0.1446 -1.2856
   264G12c H00C 4814  12.076   9.906  12.718  0.5414  1.4948 -4.1849
   264G12c C01O 4815  11.791   9.481  12.952  0.3777  0.9861  0.5371
   264G12c H00H 4816  11.785   9.554  13.031  1.5711  3.6582 -1.7196
   264G12c C01N 4817  11.712   9.367  12.962 -0.0545  0.7612  1.1095
   264G12c O006 4818  11.602   9.353  13.053 -0.5069  2.0525 -0.8332
   264G12c C01T 4819  11.608   9.285  13.176  0.0609  0.3483 -0.3006
   264G12c H00K 4820  11.635   9.368  13.240  5.0771  0.3781 -2.2437
   264G12c H00J 4821  11.681   9.204  13.179 -0.7581 -0.4749 -1.8033
   264G12c H00I 4822  11.515   9.255  13.225  0.2835  2.5857  1.5823
   264G12c C01M 4823  11.739   9.252  12.888 -0.2479  0.6448 -1.6679
   264G12c C020 4824  11.862   9.054  12.446  0.7946 -1.4529  0.7917
   264G12c C021 4825  11.819   8.927  12.506 -0.1628  0.0724  2.4935
   264G12c C01L 4826  11.796   9.269  12.765 -2.0974 -0.7452  0.5771
   264G12c O007 4827  11.652   9.147  12.890 -1.0498  0.8965  0.0594
   264G12c C022 4828  11.799   8.906  12.641  0.5980 -0.9000  0.3473
   264G12c C023 4829  11.747   8.828  12.431 -0.8429  0.7313  2.9404
   264G12c C00G 4830  11.533   8.703  12.297 -0.2382  1.0518 -0.3674
   264G12c C00E 4831  11.338   8.540  12.300  0.5289  1.3852  0.4852
   264G12c O00A 4832  11.253   8.477  12.215  0.1347 -0.8276  0.2225
   264G12c C024 4833  11.148   8.388  12.262 -1.2967 -0.7737 -0.2058
   264G12c H00V 4834  11.071   8.365  12.188  3.4185 -1.8634 -5.0709
   264G12c H00U 4835  11.183   8.307  12.326 -1.9080 -1.5879 -0.8929
   264G12c H00T 4836  11.075   8.436  12.328  0.5294 -2.4054  3.1644
   274G12c C00D 4837   3.539   4.374   4.936  1.0310 -0.9746  0.4789
   274G12c O00B 4838   3.449   4.431   4.857  0.0515  0.9683 -0.0028
   274G12c C025 4839   3.317   4.420   4.894  0.7028  0.0472 -0.2576
   274G12c C026 4840   3.272   4.475   5.037  0.1527  0.3905 -0.4599
   274G12c H00Y 4841   3.200   4.410   5.088 -0.2117 -2.2349 -4.1623
   274G12c H00X 4842   3.200   4.549   5.073 -0.7525 -0.6409 -0.1270
   274G12c O00C 4843   3.364   4.479   5.137  0.4225  0.3068 -0.9568
   274G12c H00W 4844   3.453   4.491   5.106 -0.9489  5.4477 -3.3989
   274G12c C027 4845   3.212   4.386   4.802 -1.4403 -0.7038 -1.1764
   274G12c O00D 4846   3.226   4.381   4.668 -0.7529 -0.3304  1.4905
   274G12c H00Z 4847   3.311   4.385   4.627 -2.4911 -2.2532 -2.5429
   274G12c C028 4848   3.080   4.393   4.854 -1.7696 -0.1522  0.7871
   274G12c C029 4849   2.997   4.474   4.776  0.6711 -1.2485  2.0213
   274G12c H010 4850   3.044   4.564   4.740  4.5659 -2.3206  4.0956
   274G12c C02T 4851   2.859   4.483   4.799  1.6369 -0.0415 -0.7956
   274G12c H01O 4852   2.784   4.538   4.744  5.5042  4.5091 -1.8338
   274G12c C02S 4853   2.796   4.385   4.876  2.0387  1.3064 -0.3090
   274G12c O00J 4854   2.662   4.348   4.844  0.7921  0.4515  0.3171
   274G12c H01P 4855   2.626   4.267   4.877 -2.9288  4.0959  5.9901
   274G12c C02R 4856   2.889   4.315   4.960 -2.1897  0.8351 -1.2568
   274G12c O00I 4857   2.821   4.291   5.092 -0.6852  0.3214  2.2097
   274G12c C02Q 4858   2.789   4.407   5.162  1.5060 -0.8992 -0.9940
   274G12c H01N 4859   2.718   4.487   5.144  2.4968 -0.6970 -4.3231
   274G12c H01R 4860   2.874   4.474   5.149 -4.2643  6.4259 -4.1241
   274G12c H01Q 4861   2.752   4.388   5.263  3.3041 -3.5426 -0.7561
   274G12c C02A 4862   3.024   4.289   4.936  1.8931 -0.9875 -1.0022
   274G12c H011 4863   3.074   4.215   4.996  3.6219 -2.5190 -4.2288
   274G12c C00C 4864   3.672   4.423   4.897  0.7279 -1.6274  0.1012
   274G12c H012 4865   3.673   4.476   4.803 -4.7465 -2.3265 -0.4666
   274G12c C00B 4866   3.779   4.382   4.971 -0.1779 -1.8681 -0.5121
   274G12c C00A 4867   3.921   4.392   4.947  1.9316 -1.1616 -0.3793
   274G12c C009 4868   3.985   4.418   4.821  0.7874 -1.3285  0.3033
   274G12c C008 4869   3.949   4.430   4.693  1.1335 -1.9274  0.8639
   274G12c H013 4870   3.855   4.479   4.672 -0.7091 -4.0678  3.6651
   274G12c C007 4871   4.045   4.375   4.590  0.7247 -0.4070  0.3796
   274G12c H014 4872   4.055   4.378   4.482  0.1054  1.0124  0.3521
   274G12c C006 4873   4.169   4.345   4.630 -0.0547 -0.8543  0.1585
   274G12c C005 4874   4.210   4.354   4.770  0.2440  1.1126  0.3188
   274G12c C004 4875   4.327   4.302   4.817 -0.6456  0.0735  0.2333
   274G12c C003 4876   4.341   4.280   4.956 -1.4813 -0.5681 -0.7936
   274G12c C002 4877   4.454   4.205   4.988  0.0781  0.5348 -1.2935
   274G12c C001 4878   4.510   4.206   5.122  0.1412  0.7808 -0.6719
   274G12c C00M 4879   4.435   4.139   5.236 -0.2959 -0.4441 -0.9442
   274G12c C00L 4880   4.295   4.197   5.269 -1.6967  0.0368  0.4687
   274G12c C00R 4881   4.214   4.142   5.372 -0.3218  0.6280  0.6582
   274G12c C00Q 4882   4.222   4.014   5.436 -1.1375 -2.2449 -0.9680
   274G12c C00V 4883   4.095   3.981   5.500 -0.3733  0.4414 -0.7820
   274G12c C00U 4884   3.972   4.051   5.477 -0.1792  1.3248 -0.5059
   274G12c C00T 4885   3.967   4.155   5.383 -0.0214  0.4797 -0.8518
   274G12c C016 4886   3.864   4.202   5.313 -0.0163  2.1762 -0.8888
   274G12c C015 4887   3.741   4.143   5.325 -0.0665 -0.4496  0.8571
   274G12c C010 4888   3.729   4.046   5.434 -0.5369  1.5246 -0.1416
   274G12c C011 4889   3.609   3.967   5.444 -0.2211  1.0650  0.4243
   274G12c H005 4890   3.574   3.876   5.492 -3.6927  0.5151 -2.9187
   274G12c C012 4891   3.500   4.003   5.355  1.5843  1.9810  0.6105
   274G12c C017 4892   3.381   3.917   5.338 -0.2325 -0.7037  2.3783
   274G12c O002 4893   3.361   3.851   5.206  0.1179 -0.3686 -0.4433
   274G12c H004 4894   3.434   3.803   5.169  0.0740  0.3247 -1.4304
   274G12c C018 4895   3.310   3.901   5.451 -0.8953 -2.0116 -1.6319
   274G12c O001 4896   3.338   3.943   5.582 -0.1844  0.8113  0.1694
   274G12c H003 4897   3.423   3.974   5.609  1.0201 -2.1717  0.0051
   274G12c C019 4898   3.158   3.821   5.424 -0.1095  0.4545 -0.9467
   274G12c H002 4899   3.187   3.739   5.358  1.1563  2.5365 -3.0724
   274G12c H001 4900   3.137   3.811   5.531 -2.4153  0.3868 -1.3859
   274G12c O000 4901   3.070   3.926   5.378  0.6653 -0.2354 -0.9556
   274G12c C01A 4902   2.970   3.886   5.296  0.3801  0.8623  0.0110
   274G12c C02K 4903   2.929   3.753   5.269 -0.8611  1.7984 -0.2362
   274G12c O00G 4904   3.002   3.638   5.295  1.1217 -0.3606  0.3802
   274G12c C02M 4905   2.977   3.521   5.221 -1.7752 -2.0886 -1.2845
   274G12c H01G 4906   2.893   3.481   5.279 -3.4455 -1.6090 -3.2811
   274G12c H01F 4907   3.036   3.429   5.215 -0.7573 -1.3365 -2.9452
   274G12c H01E 4908   2.977   3.545   5.115  0.9453 -1.8245 -1.2373
   274G12c C02J 4909   2.795   3.738   5.205  1.0231  2.6460  0.0463
   274G12c H01H 4910   2.777   3.636   5.175 -2.7962  2.8181  1.4920
   274G12c C02I 4911   2.706   3.836   5.197  0.6119 -1.3634 -1.6410
   274G12c C02N 4912   2.580   3.815   5.124 -0.8967  0.7550 -0.5311
   274G12c H01M 4913   2.583   3.740   5.046  0.4046  3.7100 -3.4262
   274G12c C02O 4914   2.496   3.920   5.115  1.5590  0.3180  1.1790
   274G12c H01L 4915   2.508   3.994   5.192  2.3835 -2.0677  3.4290
   274G12c C02P 4916   2.421   3.938   4.988 -0.1348  0.6744 -1.3227
   274G12c H01K 4917   2.476   3.978   4.903 -0.2826  1.3095 -1.1242
   274G12c H01J 4918   2.352   3.861   4.953  3.7108 -2.2872 -2.7187
   274G12c O00H 4919   2.339   4.054   5.024 -0.2120 -0.0057  1.5483
   274G12c H01I 4920   2.252   4.068   4.990 -0.1906 -0.1440  1.4352
   274G12c C02H 4921   2.764   3.969   5.204 -3.3078 -0.2330 -1.2703
   274G12c H01C 4922   2.692   4.047   5.186 -0.1910  4.6407  5.3957
   274G12c C02L 4923   2.877   4.001   5.280  1.4774 -0.1688  0.0328
   274G12c H01D 4924   2.888   4.106   5.300 -0.0610 -0.6249  3.6098
   274G12c C013 4925   3.511   4.132   5.288 -0.6057  1.0425  1.2544
   274G12c H000 4926   3.428   4.185   5.243 -1.6415 -2.5479 -1.3468
   274G12c C014 4927   3.637   4.182   5.245  0.8967 -0.3353 -0.5130
   274G12c C00F 4928   3.635   4.262   5.132 -1.0400  1.4202 -0.3538
   274G12c C00H 4929   3.875   4.286   5.196 -0.5096 -1.6239  1.1015
   274G12c C00I 4930   4.003   4.339   5.168  0.1213  0.6148  0.1486
   274G12c C00J 4931   4.112   4.307   5.250 -0.4513 -0.3156  0.0523
   274G12c C00Z 4932   3.845   3.987   5.489 -1.1848  0.6291 -2.3287
   274G12c C00Y 4933   3.840   3.862   5.576  1.1507  0.0438  1.9681
   274G12c H006 4934   3.745   3.813   5.565 -0.0264  2.0226  3.0034
   274G12c C00X 4935   3.959   3.789   5.592 -0.2783 -1.5501 -0.6762
   274G12c O003 4936   3.935   3.662   5.639  0.1897 -0.5148 -0.7228
   274G12c C01B 4937   3.822   3.620   5.700  0.6519 -0.2929 -0.0702
   274G12c H009 4938   3.823   3.535   5.632  3.6283  1.3645 -2.2441
   274G12c H008 4939   3.728   3.674   5.716 -0.8726 -1.8143 -3.2853
   274G12c H007 4940   3.856   3.570   5.790  2.7430 -5.0061 -3.2830
   274G12c C00W 4941   4.085   3.853   5.569 -0.5528  0.5929 -0.6564
   274G12c O004 4942   4.199   3.772   5.592  1.1038 -0.7706  0.3065
   274G12c C01C 4943   4.310   3.795   5.524  0.1866  0.4360 -0.9952
   274G12c H00A 4944   4.387   3.730   5.563 -3.5970 -3.5376  0.3591
   274G12c C00P 4945   4.317   3.901   5.428  0.5865 -0.3476 -0.9523
   274G12c C00O 4946   4.423   3.887   5.327 -1.5044  1.1916  0.9599
   274G12c C01D 4947   4.483   3.776   5.294  0.0859  0.6098  0.6383
   274G12c H00S 4948   4.432   3.688   5.330 -0.0704 -1.4824 -4.2913
   274G12c C01E 4949   4.594   3.755   5.217  0.3319  0.8034  1.1991
   274G12c O008 4950   4.638   3.621   5.201 -0.4653  0.8352  0.7198
   274G12c C01V 4951   4.776   3.588   5.233  0.9055 -2.5334 -0.6403
   274G12c C01Z 4952   4.856   3.695   5.308 -0.1990 -0.7465 -0.8390
   274G12c H00R 4953   4.886   3.760   5.226  0.5131 -0.4204 -0.3317
   274G12c H00Q 4954   4.803   3.752   5.383  0.1995  0.4799 -1.4831
   274G12c O009 4955   4.971   3.640   5.369 -0.7590  1.6607  0.0483
   274G12c H00P 4956   4.971   3.609   5.459 -3.8622 -1.8985 -1.0691
   274G12c C01W 4957   4.829   3.487   5.159 -0.5667  0.3726  0.9384
   274G12c H00O 4958   4.755   3.446   5.091  2.6784 -1.0932 -1.8756
   274G12c C01X 4959   4.967   3.485   5.095 -0.7346 -0.1457  0.8320
   274G12c H00N 4960   5.055   3.469   5.158 -0.2922  3.2609  1.1586
   274G12c H00M 4961   4.971   3.395   5.034 -0.7011  0.2935  0.1910
   274G12c C01Y 4962   4.995   3.595   5.007  0.0106  0.8216 -0.2107
   274G12c C02D 4963   5.106   3.680   5.046  0.5975 -0.2128  0.0951
   274G12c H019 4964   5.164   3.657   5.134  0.5094  1.9890  0.7777
   274G12c C02C 4965   5.121   3.805   4.982  0.2812 -0.9948  0.4639
   274G12c H01A 4966   5.202   3.875   5.002  0.4109 -0.4711 -1.7374
   274G12c C02B 4967   5.060   3.816   4.848 -0.0021  0.2904  0.2957
   274G12c O00E 4968   5.109   3.915   4.756  0.1268 -0.1421  0.2373
   274G12c H01B 4969   5.185   3.952   4.799 -3.7994  3.6704  4.3911
   274G12c C02F 4970   4.968   3.722   4.806  0.8801 -0.7243 -0.9230
   274G12c O00F 4971   4.925   3.760   4.680  0.2205  0.3991  0.8448
   274G12c C02G 4972   4.821   3.683   4.617 -3.0254 -0.0859 -0.9376
   274G12c H017 4973   4.865   3.600   4.563 -0.5610 -2.0890  3.8822
   274G12c H016 4974   4.731   3.649   4.668 -2.1892 -2.8868 -1.2507
   274G12c H015 4975   4.799   3.773   4.558  0.5824  0.2618 -1.8751
   274G12c C02E 4976   4.945   3.613   4.877 -1.5563 -0.4874  1.2123
   274G12c H018 4977   4.885   3.539   4.826 -1.0236 -1.5794  2.1342
   274G12c C01F 4978   4.629   3.861   5.139 -0.1762  0.2575 -0.4635
   274G12c C01G 4979   4.695   3.849   5.028  1.6136 -1.9290  1.6118
   274G12c H00L 4980   4.718   3.749   4.995  2.2709 -0.1414 -3.9431
   274G12c C01H 4981   4.679   3.948   4.923 -0.2584  0.7375  1.4164
   274G12c H00B 4982   4.684   3.918   4.819 -1.6565  3.9494  0.3769
   274G12c C01I 4983   4.638   4.062   4.962  0.2915 -0.3110 -0.5761
   274G12c C01U 4984   4.581   3.990   5.160 -0.3512  1.3329 -1.9107
   274G12c C00S 4985   4.091   4.220   5.360  1.5153  0.1675  0.6809
   274G12c C00K 4986   4.228   4.276   5.187 -1.5039 -0.4069 -2.1978
   274G12c C00N 4987   4.466   3.995   5.243 -0.2185 -0.7305  0.6097
   274G12c C000 4988   4.622   4.107   5.101 -1.2428  0.0995  0.2995
   274G12c C01J 4989   4.527   4.127   4.896 -0.2943 -1.4364  1.7620
   274G12c C01K 4990   4.518   4.143   4.751  0.2637  1.0635  1.2525
   274G12c C01P 4991   4.614   4.121   4.650 -0.4312 -0.2806  0.7020
   274G12c C01Q 4992   4.761   4.120   4.667 -0.8619  1.0639  0.3501
   274G12c H00G 4993   4.814   4.050   4.729  0.4310 -1.8308 -3.7721
   274G12c C01R 4994   4.851   4.204   4.618  0.7049  1.0597  0.7520
   274G12c H00F 4995   4.811   4.269   4.542 -3.4116 -3.6818 -1.4456
   274G12c C01S 4996   4.998   4.200   4.669  0.3628 -0.8482 -0.3497
   274G12c H00E 4997   5.055   4.283   4.626 -0.8248 -0.9469 -2.1678
   274G12c H00D 4998   5.025   4.158   4.766  3.2031 -1.9892 -1.5653
   274G12c O005 4999   5.088   4.118   4.601  0.4715 -0.1598 -0.5773
   274G12c H00C 5000   5.116   4.032   4.628 -3.1267 -0.0719  4.0078
   274G12c C01O 5001   4.573   4.120   4.511 -0.7535 -0.7307  1.2930
   274G12c H00H 5002   4.640   4.063   4.448  0.9534 -1.5598  3.7948
   274G12c C01N 5003   4.447   4.175   4.473  0.8678 -0.8352 -0.3422
   274G12c O006 5004   4.457   4.228   4.347  0.6522  0.0522  0.2791
   274G12c C01T 5005   4.478   4.118   4.255  1.4591  1.7068  0.7813
   274G12c H00K 5006   4.493   4.013   4.280 -0.8311  0.0017 -4.2846
   274G12c H00J 5007   4.550   4.127   4.174 -3.7097 -0.5960 -4.4016
   274G12c H00I 5008   4.381   4.143   4.211  2.0427 -0.7681 -2.0817
   274G12c C01M 5009   4.373   4.245   4.581 -1.5249  0.4803 -0.5173
   274G12c C020 5010   4.249   4.323   5.056  0.6534  1.5633  1.9033
   274G12c C021 5011   4.156   4.409   4.995 -0.8706  0.2648  1.3857
   274G12c C01L 5012   4.413   4.240   4.720  0.7717 -0.4086 -0.3173
   274G12c O007 5013   4.255   4.308   4.548  1.1888  0.0978 -0.5732
   274G12c C022 5014   4.127   4.396   4.855  0.9022  0.4327 -1.2816
   274G12c C023 5015   4.022   4.414   5.051 -0.6809  1.3275 -1.2303
   274G12c C00G 5016   3.763   4.320   5.103  0.6504 -1.7146  0.2566
   274G12c C00E 5017   3.527   4.267   5.027  0.9705  0.3528  0.3199
   274G12c O00A 5018   3.421   4.188   5.030 -0.4280  1.3561 -0.0073
   274G12c C024 5019   3.430   4.111   4.929  0.7880 -0.1218  0.8494
   274G12c H00V 5020   3.436   4.012   4.972 -2.7407 -0.5308  0.5112
   274G12c H00U 5021   3.345   4.135   4.865 -3.3553 -5.3593  3.9620
   274G12c H00T 5022   3.520   4.115   4.867 -2.7349  0.4161 -4.6272
   284G12c C00D 5023  12.199   9.317   3.135 -0.0245  0.1899 -0.1639
   284G12c O00B 5024  12.150   9.257   3.038  0.0046 -0.8336 -0.3620
   284G12c C025 5025  12.152   9.305   2.900  0.2518 -0.1941 -0.2028
   284G12c C026 5026  12.243   9.240   2.783  1.5354 -0.4941  0.9450
   284G12c H00Y 5027  12.351   9.232   2.799  2.6249  9.3604  1.5700
   284G12c H00X 5028  12.175   9.233   2.698 -1.7853  5.1220  2.8943
   284G12c O00C 5029  12.265   9.111   2.825  0.7593 -1.0402  0.2922
   284G12c H00W 5030  12.206   9.106   2.898  0.3365  1.4717  0.1710
   284G12c C027 5031  12.101   9.432   2.883 -0.0275 -2.0206  0.5804
   284G12c O00D 5032  12.033   9.515   2.978 -0.2509  0.2628  0.4532
   284G12c H00Z 5033  12.085   9.495   3.054 -0.4114  6.4626  2.5184
   284G12c C028 5034  12.112   9.498   2.757 -0.1493 -0.6588 -2.0004
   284G12c C029 5035  12.013   9.563   2.690  1.1540 -0.1194  1.6988
   284G12c H010 5036  11.919   9.525   2.727  2.4529 -3.5360  1.6765
   284G12c C02T 5037  12.031   9.626   2.573  0.8433 -0.2368  1.2964
   284G12c H01O 5038  11.951   9.680   2.526  3.1851  2.5035  0.2980
   284G12c C02S 5039  12.159   9.654   2.534  0.4535  0.5784 -0.0286
   284G12c O00J 5040  12.176   9.725   2.410 -0.2659  0.3929  0.0235
   284G12c H01P 5041  12.264   9.758   2.421 -1.8739  5.1534  0.1394
   284G12c C02R 5042  12.274   9.593   2.600 -1.0572 -0.4890  1.1352
   284G12c O00I 5043  12.399   9.631   2.606 -0.6364  0.6232  1.8630
   284G12c C02Q 5044  12.420   9.766   2.576  1.2576  0.1508  0.3777
   284G12c H01N 5045  12.529   9.777   2.575  1.0420  2.3798 -0.0732
   284G12c H01R 5046  12.373   9.830   2.650 -0.4085  5.0785 -4.6603
   284G12c H01Q 5047  12.397   9.798   2.475  0.7982  2.0099  1.0498
   284G12c C02A 5048  12.247   9.509   2.712 -0.3676 -1.2262  0.3934
   284G12c H011 5049  12.328   9.472   2.774  1.0274 -1.1360 -1.3477
   284G12c C00C 5050  12.302   9.406   3.123 -0.7903  0.4216 -1.8313
   284G12c H012 5051  12.309   9.438   3.020 -1.0315  1.9487 -1.3997
   284G12c C00B 5052  12.325   9.494   3.226 -0.7262  1.4827  1.0465
   284G12c C00A 5053  12.410   9.602   3.236 -0.3498  0.5754  0.5018
   284G12c C009 5054  12.549   9.610   3.195  0.6887 -0.6709 -0.0123
   284G12c C008 5055  12.641   9.522   3.137  1.2624 -0.3972  0.7951
   284G12c H013 5056  12.610   9.426   3.098 -0.5588 -1.1393  3.8456
   284G12c C007 5057  12.775   9.543   3.141 -0.5208 -1.3027  1.7001
   284G12c H014 5058  12.847   9.495   3.076 -2.8356 -6.3115  2.6617
   284G12c C006 5059  12.843   9.636   3.231 -1.2734  0.9041  2.7659
   284G12c C005 5060  12.747   9.723   3.292  0.1716 -0.4611 -0.0132
   284G12c C004 5061  12.780   9.798   3.393  1.3114  1.7347 -0.3657
   284G12c C003 5062  12.677   9.863   3.479  0.3593 -0.6489  2.0596
   284G12c C002 5063  12.723   9.937   3.587 -2.7393 -0.1795  0.8926
   284G12c C001 5064  12.655  10.014   3.697  1.1315  0.3306  0.0749
   284G12c C00M 5065  12.552   9.941   3.777 -1.3147 -0.2096  1.1841
   284G12c C00L 5066  12.433   9.891   3.718  0.2991  0.3245 -1.1754
   284G12c C00R 5067  12.350   9.799   3.792 -0.2494  0.1008 -0.0337
   284G12c C00Q 5068  12.329   9.760   3.924 -0.9948  0.2120 -0.3392
   284G12c C00V 5069  12.260   9.643   3.948 -0.7288  1.1904 -0.2771
   284G12c C00U 5070  12.221   9.566   3.829 -0.9270 -0.5576 -1.2870
   284G12c C00T 5071  12.245   9.614   3.699  1.4554  0.9513 -0.8164
   284G12c C016 5072  12.204   9.541   3.577  1.1488 -0.0303  0.1866
   284G12c C015 5073  12.157   9.410   3.608 -3.5821  1.4501  1.1335
   284G12c C010 5074  12.132   9.373   3.734 -0.9415 -0.6097 -0.5283
   284G12c C011 5075  12.101   9.232   3.765  0.4128 -1.3772 -0.8498
   284G12c H005 5076  12.081   9.191   3.863 -4.4599 -6.5657 -3.7079
   284G12c C012 5077  12.099   9.141   3.665  0.2277  0.0122 -0.7612
   284G12c C017 5078  12.087   8.995   3.671  2.2302  1.1987 -1.4140
   284G12c O002 5079  12.178   8.919   3.592  0.3477 -0.1018  0.3264
   284G12c H004 5080  12.243   8.913   3.661 -1.3578  1.5602  2.1324
   284G12c C018 5081  12.027   8.924   3.762  1.3338 -0.0629 -0.2090
   284G12c O001 5082  11.994   8.981   3.878 -0.2137  0.2683 -1.1548
   284G12c H003 5083  11.962   9.070   3.876 -2.4056 -0.4997 -2.4509
   284G12c C019 5084  12.037   8.775   3.799  0.7467  1.4457  0.1524
   284G12c H002 5085  12.132   8.757   3.848 -0.9193 -2.6634  2.2077
   284G12c H001 5086  11.950   8.746   3.858  0.6720  2.5944  0.6199
   284G12c O000 5087  12.031   8.712   3.674  0.3511 -0.6240 -0.9797
   284G12c C01A 5088  12.141   8.661   3.623  1.3198  0.3541 -0.5897
   284G12c C02K 5089  12.135   8.624   3.485 -2.4961  0.9046  1.1240
   284G12c O00G 5090  12.042   8.636   3.388 -0.7806  0.5539  1.0290
   284G12c C02M 5091  11.912   8.690   3.414  0.9622 -0.4041  1.3845
   284G12c H01G 5092  11.855   8.669   3.323  2.5822  1.0772 -0.0129
   284G12c H01F 5093  11.930   8.797   3.421 -4.5070  1.1691 -3.7161
   284G12c H01E 5094  11.882   8.650   3.511  2.1165 -1.4711  1.3160
   284G12c C02J 5095  12.260   8.588   3.430 -0.7108 -0.3911  0.0810
   284G12c H01H 5096  12.267   8.597   3.323  5.5664 -3.9177 -0.0276
   284G12c C02I 5097  12.366   8.533   3.492  0.1238 -1.0187 -0.2143
   284G12c C02N 5098  12.469   8.481   3.407 -2.1945  1.3687 -1.9642
   284G12c H01M 5099  12.523   8.550   3.344  0.1844  3.1044  1.8168
   284G12c C02O 5100  12.455   8.351   3.359  0.6040  1.3244  0.5565
   284G12c H01L 5101  12.402   8.275   3.416 -2.3147  0.0422 -3.6764
   284G12c C02P 5102  12.558   8.298   3.258  1.1747  0.0040 -0.3103
   284G12c H01K 5103  12.525   8.330   3.159 -2.0096  0.4129  0.8440
   284G12c H01J 5104  12.484   8.219   3.249  1.2057 -0.0074 -0.4753
   284G12c O00H 5105  12.674   8.246   3.302  0.0818  0.5881  2.3260
   284G12c H01I 5106  12.747   8.304   3.287  0.8898 -0.3201  2.6704
   284G12c C02H 5107  12.350   8.541   3.629  0.1368 -1.0876 -0.7835
   284G12c H01C 5108  12.428   8.495   3.688  1.1029  1.4499 -0.0555
   284G12c C02L 5109  12.247   8.603   3.699  0.4186 -0.1129  0.8896
   284G12c H01D 5110  12.276   8.615   3.802  2.0900  3.5665  0.0415
   284G12c C013 5111  12.099   9.192   3.534 -0.8133 -0.4336  0.1608
   284G12c H000 5112  12.095   9.145   3.436  3.6670 -3.4069  1.2476
   284G12c C014 5113  12.139   9.330   3.502  0.1183 -0.3268  1.0210
   284G12c C00F 5114  12.173   9.371   3.368  1.8799  0.3943 -3.3085
   284G12c C00H 5115  12.243   9.572   3.450  1.5174 -0.0718 -1.8814
   284G12c C00I 5116  12.324   9.684   3.434  0.5382  0.3411 -2.6066
   284G12c C00J 5117  12.333   9.778   3.555  0.1740 -0.4864 -2.3111
   284G12c C00Z 5118  12.155   9.456   3.851 -2.0575  1.2496  0.5861
   284G12c C00Y 5119  12.100   9.417   3.977  1.5147  1.1707  1.4400
   284G12c H006 5120  12.038   9.334   4.009  1.2530 -0.7954 -3.7399
   284G12c C00X 5121  12.132   9.491   4.088 -0.7058 -1.2188 -1.0689
   284G12c O003 5122  12.085   9.451   4.216 -1.1715  1.3552  0.6236
   284G12c C01B 5123  12.171   9.444   4.323 -0.6600  1.2748  0.5777
   284G12c H009 5124  12.172   9.342   4.361  1.1335  1.3891  0.8846
   284G12c H008 5125  12.127   9.521   4.386 -0.5733  2.8487 -1.2584
   284G12c H007 5126  12.273   9.475   4.298  0.1565 -1.6338  0.0220
   284G12c C00W 5127  12.218   9.600   4.078  0.2826  1.0703 -0.4757
   284G12c O004 5128  12.233   9.677   4.191 -0.7192 -1.2164 -0.3547
   284G12c C01C 5129  12.354   9.759   4.182  2.8006 -1.0260  0.5075
   284G12c H00A 5130  12.412   9.766   4.272  6.0849 -0.8485 -1.5185
   284G12c C00P 5131  12.403   9.812   4.050 -0.2887  0.8623  0.9447
   284G12c C00O 5132  12.536   9.868   4.029  0.2623 -0.1993  0.4691
   284G12c C01D 5133  12.638   9.875   4.141 -0.2485  0.4904  0.8603
   284G12c H00S 5134  12.618   9.840   4.241 -1.8418 -2.2659 -0.3652
   284G12c C01E 5135  12.771   9.915   4.126  0.5082  1.6602  2.5059
   284G12c O008 5136  12.862   9.927   4.227  1.8094 -0.8727 -1.1909
   284G12c C01V 5137  12.834   9.848   4.343 -0.8176  1.9511  1.1260
   284G12c C01Z 5138  12.868   9.693   4.315  0.1182 -0.4564  0.2045
   284G12c H00R 5139  12.880   9.683   4.207 -3.7223  6.8215 -1.1846
   284G12c H00Q 5140  12.952   9.650   4.370  2.0100  0.0532 -2.2176
   284G12c O009 5141  12.772   9.629   4.397 -1.2270  1.1809 -1.4504
   284G12c H00P 5142  12.755   9.537   4.383  4.3485 -1.1610  4.3377
   284G12c C01W 5143  12.784   9.932   4.443  0.2657 -1.3825 -0.5859
   284G12c H00O 5144  12.797  10.039   4.438  1.9907 -1.4906  1.1403
   284G12c C01X 5145  12.734   9.873   4.587  0.6129 -0.3563  0.9568
   284G12c H00N 5146  12.748   9.765   4.594  0.7521 -0.6315 -2.6122
   284G12c H00M 5147  12.798   9.931   4.653  0.6137  4.4388 -2.9592
   284G12c C01Y 5148  12.603   9.913   4.640  0.0548  1.6481  0.3225
   284G12c C02D 5149  12.517   9.979   4.561 -1.0296 -1.3053  1.2009
   284G12c H019 5150  12.545   9.988   4.457  4.8018  3.4587  2.9074
   284G12c C02C 5151  12.409  10.059   4.612 -1.3547  0.6647  0.6330
   284G12c H01A 5152  12.350  10.110   4.538 -0.6874  0.8324  0.2116
   284G12c C02B 5153  12.391  10.059   4.752 -1.8999 -0.8549  0.3470
   284G12c O00E 5154  12.286  10.116   4.797 -0.5395  0.7004  1.1465
   284G12c H01B 5155  12.260  10.103   4.887 -7.4936  2.5719 -0.2614
   284G12c C02F 5156  12.488  10.009   4.846  0.6195 -0.4704 -0.0298
   284G12c O00F 5157  12.477  10.018   4.991 -0.2602  0.4108  0.5113
   284G12c C02G 5158  12.365  10.080   5.045  0.3716  0.0112  0.9765
   284G12c H017 5159  12.371  10.184   5.014  1.2887  0.1405  1.5884
   284G12c H016 5160  12.389  10.108   5.148  2.7859 -0.3179  0.5333
   284G12c H015 5161  12.277  10.022   5.073 -1.1634  3.0254  2.6137
   284G12c C02E 5162  12.595   9.949   4.783 -1.0539  0.9204  0.0289
   284G12c H018 5163  12.672   9.903   4.843 -3.0620 -6.3430 -2.3905
   284G12c C01F 5164  12.808   9.963   4.010  1.4758 -0.7818  1.2560
   284G12c C01G 5165  12.946   9.954   3.970  0.2782  0.0366 -0.3315
   284G12c H00L 5166  13.030   9.900   4.012 -1.3784 -5.3494 -3.4622
   284G12c C01H 5167  12.984   9.975   3.821 -1.0113  0.8268  1.5018
   284G12c H00B 5168  13.052   9.931   3.750 -3.5165 -0.5001 -0.1579
   284G12c C01I 5169  12.880   9.999   3.736  0.7929  0.1578 -0.5825
   284G12c C01U 5170  12.718  10.001   3.907 -0.1293 -0.8024 -0.0964
   284G12c C00S 5171  12.292   9.741   3.679  0.8390 -1.4234  1.3052
   284G12c C00K 5172  12.429   9.873   3.572 -0.8865  1.2063  0.5022
   284G12c C00N 5173  12.587   9.941   3.920 -0.5905  0.3630  0.0628
   284G12c C000 5174  12.754  10.043   3.786  0.2939  0.5119 -0.0450
   284G12c C01J 5175  12.863   9.960   3.593 -0.5466  0.3069  0.5465
   284G12c C01K 5176  12.971   9.908   3.522 -1.9981 -1.4044 -1.8339
   284G12c C01P 5177  13.114   9.943   3.506  0.0604  0.3970 -0.0989
   284G12c C01Q 5178  13.173  10.070   3.545  0.3161 -1.3793 -0.6574
   284G12c H00G 5179  13.220  10.083   3.641 -3.9388  0.0383  1.3572
   284G12c C01R 5180  13.115  10.189   3.505 -0.8123 -1.3414  0.2596
   284G12c H00F 5181  13.053  10.169   3.419  2.7304 -2.2186 -2.1853
   284G12c C01S 5182  13.123  10.315   3.583 -1.0578  0.5956 -1.1663
   284G12c H00E 5183  13.126  10.397   3.511  1.2517 -0.1162 -1.9255
   284G12c H00D 5184  13.016  10.317   3.604 -0.5242  4.2899  1.8232
   284G12c O005 5185  13.200  10.317   3.705 -1.0605 -1.0164 -0.5030
   284G12c H00C 5186  13.228  10.406   3.722 -3.8065  0.7629 -4.6235
   284G12c C01O 5187  13.188   9.857   3.447  0.0895  0.1796 -0.2932
   284G12c H00H 5188  13.296   9.863   3.449  0.7207 -4.7039 -5.5617
   284G12c C01N 5189  13.160   9.749   3.370  0.2663  1.4584 -1.1164
   284G12c O006 5190  13.267   9.718   3.284  0.0051  0.8606 -0.2343
   284G12c C01T 5191  13.304   9.576   3.282 -2.2067 -1.8242 -1.6994
   284G12c H00K 5192  13.204   9.532   3.275 -3.3875  1.0423 -4.1536
   284G12c H00J 5193  13.326   9.561   3.388 -0.4346  2.5705 -1.3042
   284G12c H00I 5194  13.367   9.509   3.224  5.7605  0.1835  3.8076
   284G12c C01M 5195  13.020   9.737   3.344 -0.8173  0.9561  1.6213
   284G12c C020 5196  12.535   9.833   3.471  0.3777  0.4807 -0.3193
   284G12c C021 5197  12.514   9.765   3.347  0.9612 -2.0143  0.9135
   284G12c C01L 5198  12.921   9.818   3.423 -1.1113 -0.6421 -0.4181
   284G12c O007 5199  12.970   9.653   3.237 -1.1842 -0.2022 -0.2244
   284G12c C022 5200  12.603   9.739   3.244 -2.0315  1.0841 -0.1417
   284G12c C023 5201  12.400   9.707   3.325  0.5674 -0.3133 -0.1615
   284G12c C00G 5202  12.235   9.483   3.344 -1.3758  1.0843 -0.5114
   284G12c C00E 5203  12.143   9.277   3.260  0.8925 -0.0039  0.7001
   284G12c O00A 5204  12.010   9.227   3.259 -0.1031 -0.3842  0.9592
   284G12c C024 5205  11.906   9.265   3.192 -0.0810 -0.6427  1.4770
   284G12c H00V 5206  11.882   9.213   3.100 -0.0364  5.5663 -2.3206
   284G12c H00U 5207  11.931   9.364   3.152 -1.2177 -1.7189 -2.0367
   284G12c H00T 5208  11.828   9.279   3.267  1.7739  7.3982  2.3981
   294G12c C00D 5209   7.208  11.149   7.923  0.2567 -1.6912 -0.1680
   294G12c O00B 5210   7.086  11.193   7.938 -0.9929 -0.2853  1.6177
   294G12c C025 5211   7.023  11.322   7.917  1.2156  0.2648 -1.8298
   294G12c C026 5212   6.928  11.342   7.797 -0.5882  1.0533  0.3730
   294G12c H00Y 5213   6.821  11.361   7.795 -0.8821 -0.6357 -1.7787
   294G12c H00X 5214   6.946  11.281   7.708 -3.1868 -4.1294  3.1199
   294G12c O00C 5215   6.984  11.445   7.710  1.4119  0.9041  0.4211
   294G12c H00W 5216   7.077  11.430   7.705  1.0440 -3.1590  2.9541
   294G12c C027 5217   7.051  11.422   8.017 -1.1324  0.4099  0.2774
   294G12c O00D 5218   7.156  11.415   8.104 -1.4450 -0.5456 -1.0032
   294G12c H00Z 5219   7.165  11.482   8.170 -4.2254 -1.5706  0.5224
   294G12c C028 5220   7.015  11.566   7.971  1.6294  0.4499  1.1508
   294G12c C029 5221   6.894  11.618   8.018 -0.7016  0.4513 -0.9750
   294G12c H010 5222   6.821  11.568   8.081 -1.6673  3.4289  0.3658
   294G12c C02T 5223   6.858  11.753   7.965 -1.0682  0.7159  0.3411
   294G12c H01O 5224   6.766  11.806   7.986 -3.1442 -3.7932  3.3087
   294G12c C02S 5225   6.942  11.810   7.863 -0.8913 -0.1545 -0.2677
   294G12c O00J 5226   6.919  11.937   7.810  0.5893 -0.4011 -0.1862
   294G12c H01P 5227   6.981  11.965   7.744 -0.8951  3.1156 -0.1729
   294G12c C02R 5228   7.079  11.776   7.849 -1.6577 -0.2650  0.8674
   294G12c O00I 5229   7.153  11.879   7.802 -1.0212 -0.2314  0.2907
   294G12c C02Q 5230   7.240  11.940   7.915 -1.4204 -0.1528 -0.4959
   294G12c H01N 5231   7.339  11.900   7.894 -1.4603  0.1187 -1.2417
   294G12c H01R 5232   7.207  11.943   8.019  4.5355 -4.1164  1.7336
   294G12c H01Q 5233   7.258  12.048   7.912  7.6055 -1.3169 -0.5375
   294G12c C02A 5234   7.113  11.647   7.905 -1.1131 -0.3528 -0.4623
   294G12c H011 5235   7.209  11.603   7.882  0.2068  1.6501  1.0834
   294G12c C00C 5236   7.315  11.224   7.883 -1.0264 -1.2559  0.5248
   294G12c H012 5237   7.303  11.324   7.844  0.8309 -1.2650 -0.1109
   294G12c C00B 5238   7.448  11.173   7.907  1.8102  1.6130 -0.3051
   294G12c C00A 5239   7.574  11.235   7.913 -2.2324 -0.5380  0.3907
   294G12c C009 5240   7.623  11.318   7.789 -0.0677  0.4467 -0.3796
   294G12c C008 5241   7.537  11.375   7.705  0.9899  2.4302  0.0924
   294G12c H013 5242   7.430  11.370   7.716  0.6296  2.9982 -2.7830
   294G12c C007 5243   7.584  11.418   7.583 -0.0956 -0.3221  0.8573
   294G12c H014 5244   7.506  11.457   7.520  0.7837  1.7253  0.9895
   294G12c C006 5245   7.713  11.376   7.541 -1.0451 -0.6912 -2.0057
   294G12c C005 5246   7.804  11.315   7.639  0.5438  1.0861  0.6324
   294G12c C004 5247   7.931  11.264   7.619  0.6988 -1.0021  0.3165
   294G12c C003 5248   7.967  11.161   7.708 -0.2971 -0.5804 -0.1340
   294G12c C002 5249   8.077  11.087   7.653  0.3638  1.7732 -0.3542
   294G12c C001 5250   8.160  10.996   7.731 -1.6744 -0.7397  1.0065
   294G12c C00M 5251   8.117  10.880   7.811 -0.7022 -1.5657 -0.3245
   294G12c C00L 5252   7.998  10.887   7.875  1.1388  0.5623  0.9507
   294G12c C00R 5253   7.923  10.778   7.927 -0.2122  1.3828  1.7949
   294G12c C00Q 5254   7.955  10.640   7.925  0.5917 -0.9677  0.1791
   294G12c C00V 5255   7.851  10.583   7.995  1.0926 -0.2125 -1.7725
   294G12c C00U 5256   7.721  10.642   8.020 -0.5027  0.6933 -0.7184
   294G12c C00T 5257   7.715  10.779   8.036  0.4304 -0.9109  0.6751
   294G12c C016 5258   7.594  10.849   8.010  0.2724 -0.5308  0.1019
   294G12c C015 5259   7.482  10.783   8.057 -1.1580  2.0831  0.8814
   294G12c C010 5260   7.494  10.651   8.087  0.3787  0.7706  1.3043
   294G12c C011 5261   7.384  10.571   8.146 -2.3961 -0.0712  2.1431
   294G12c H005 5262   7.387  10.463   8.144 -3.6767 -0.1340  3.3690
   294G12c C012 5263   7.271  10.654   8.198 -0.3350  0.9107 -1.6086
   294G12c C017 5264   7.139  10.596   8.227  0.0537 -0.5849 -1.5477
   294G12c O002 5265   7.023  10.649   8.158 -0.4813 -0.7522 -0.7094
   294G12c H004 5266   6.937  10.630   8.192 -0.1506  1.0722  1.2633
   294G12c C018 5267   7.159  10.482   8.306 -1.2388 -0.5114  0.6119
   294G12c O001 5268   7.283  10.424   8.332 -0.3772  1.0935  0.5648
   294G12c H003 5269   7.307  10.430   8.423  0.9370  0.8841  0.2475
   294G12c C019 5270   7.047  10.402   8.349  1.9689 -0.4988  0.6605
   294G12c H002 5271   6.948  10.411   8.304  2.3612 -3.1065 -0.7963
   294G12c H001 5272   7.089  10.307   8.316 -2.0294 -0.8082 -3.9780
   294G12c O000 5273   7.043  10.379   8.488  0.3355  0.4225  0.0199
   294G12c C01A 5274   7.042  10.469   8.584  0.2915  0.7536  0.6371
   294G12c C02K 5275   7.158  10.488   8.663 -0.0732 -0.1404  0.0197
   294G12c O00G 5276   7.282  10.436   8.594 -0.7821  1.0544 -0.4739
   294G12c C02M 5277   7.409  10.451   8.638 -0.1331 -0.1109  0.0191
   294G12c H01G 5278   7.436  10.557   8.643 -2.2302  0.5761 -2.2030
   294G12c H01F 5279   7.460  10.388   8.565  3.1277 -4.4955  5.7315
   294G12c H01E 5280   7.446  10.452   8.740  1.2307  2.9985 -0.4380
   294G12c C02J 5281   7.172  10.586   8.761  0.8599  0.4263 -1.0846
   294G12c H01H 5282   7.267  10.608   8.806 -0.1220  5.0574 -0.9957
   294G12c C02I 5283   7.069  10.675   8.780 -1.0209  1.0371  1.0049
   294G12c C02N 5284   7.087  10.782   8.863  0.1108 -0.9741  0.2824
   294G12c H01M 5285   7.170  10.844   8.831 -0.4437  0.1070  0.9335
   294G12c C02O 5286   7.011  10.804   8.968 -1.2466  0.3334 -0.2006
   294G12c H01L 5287   6.949  10.738   9.027 -2.1843 -2.8231 -4.5379
   294G12c C02P 5288   7.009  10.959   8.990  1.2739  0.4461 -0.1384
   294G12c H01K 5289   7.088  11.034   8.987  1.2106  0.4404 -2.3645
   294G12c H01J 5290   6.941  11.018   8.929  2.2204  4.5155  2.5468
   294G12c O00H 5291   6.972  10.949   9.127 -0.4946 -0.5654 -0.4285
   294G12c H01I 5292   6.880  10.934   9.140 -0.2630 -5.3410 -3.2410
   294G12c C02H 5293   6.956  10.667   8.706  0.0994 -0.5979 -0.0611
   294G12c H01C 5294   6.874  10.735   8.726  1.7575  1.4636 -0.2340
   294G12c C02L 5295   6.949  10.579   8.595  0.8308  0.4370 -0.1264
   294G12c H01D 5296   6.879  10.576   8.513  1.7705 -1.1952 -0.8972
   294G12c C013 5297   7.272  10.793   8.162 -0.0691 -0.5516  1.1597
   294G12c H000 5298   7.184  10.848   8.191  0.3998 -1.5071  4.6183
   294G12c C014 5299   7.358  10.858   8.087 -0.5161 -0.8696  0.2986
   294G12c C00F 5300   7.344  10.968   8.015 -1.1127 -0.4943 -0.8422
   294G12c C00H 5301   7.585  10.992   7.997  0.1989  1.6825  2.3892
   294G12c C00I 5302   7.709  11.054   7.999 -0.8041  0.1374 -1.1283
   294G12c C00J 5303   7.841  10.976   7.998  0.8756  0.2085  0.0231
   294G12c C00Z 5304   7.613  10.574   8.063 -0.6955  0.8614 -1.0546
   294G12c C00Y 5305   7.634  10.437   8.085 -0.6818 -2.2320 -1.2477
   294G12c H006 5306   7.556  10.371   8.120  2.8256 -4.9300  1.8454
   294G12c C00X 5307   7.750  10.369   8.046  1.2016  0.1530 -1.4148
   294G12c O003 5308   7.729  10.230   8.049  1.3989  0.4495 -0.1864
   294G12c C01B 5309   7.849  10.164   8.103  1.6553  0.9296 -1.0022
   294G12c H009 5310   7.816  10.090   8.175  3.4650  1.2735  0.2069
   294G12c H008 5311   7.911  10.090   8.053 -7.5875 -6.1232 -3.4674
   294G12c H007 5312   7.905  10.242   8.154 -0.0221  1.1395  0.5461
   294G12c C00W 5313   7.867  10.435   8.023 -1.4987 -0.1037  1.1673
   294G12c O004 5314   7.974  10.364   7.980 -0.5232  0.6659  0.1632
   294G12c C01C 5315   8.053  10.422   7.881  0.2496  0.6947 -0.7051
   294G12c H00A 5316   8.088  10.336   7.826  0.2159  5.4377 -8.9659
   294G12c C00P 5317   8.050  10.563   7.858  0.4172 -0.0446 -1.6724
   294G12c C00O 5318   8.159  10.621   7.787  0.4406 -0.2340  0.3478
   294G12c C01D 5319   8.232  10.531   7.700  0.5088 -0.1351 -0.3965
   294G12c H00S 5320   8.228  10.423   7.703  3.8585 -0.3218 -0.8367
   294G12c C01E 5321   8.307  10.578   7.579  1.6941  2.0302 -0.6244
   294G12c O008 5322   8.350  10.487   7.472  0.9013 -0.2790  0.3834
   294G12c C01V 5323   8.493  10.476   7.469 -0.2429  0.5872 -0.1133
   294G12c C01Z 5324   8.574  10.518   7.587  1.9751  0.0226  0.3277
   294G12c H00R 5325   8.524  10.479   7.675  4.2126  0.5217  1.8773
   294G12c H00Q 5326   8.669  10.464   7.599  2.3128  0.7267  0.8612
   294G12c O009 5327   8.631  10.658   7.613  0.3777  0.1759 -0.4919
   294G12c H00P 5328   8.723  10.637   7.618  1.5269  3.5219 -4.2873
   294G12c C01W 5329   8.566  10.438   7.368 -1.2738 -0.8350 -0.7032
   294G12c H00O 5330   8.672  10.444   7.385 -0.3864 -1.0541 -5.4811
   294G12c C01X 5331   8.499  10.419   7.229  0.6045 -0.1809  0.6180
   294G12c H00N 5332   8.505  10.312   7.208 -2.3539 -0.1334 -0.7455
   294G12c H00M 5333   8.392  10.402   7.245  0.9369 -4.0799 -0.8643
   294G12c C01Y 5334   8.487  10.500   7.098  1.0034 -0.3034  0.1366
   294G12c C02D 5335   8.600  10.560   7.038  0.0852 -0.9425 -0.4374
   294G12c H019 5336   8.701  10.565   7.078 -0.1417  6.0232 -0.2318
   294G12c C02C 5337   8.592  10.596   6.891 -0.5632 -1.5643  1.1436
   294G12c H01A 5338   8.683  10.589   6.834 -1.0471  2.9288 -0.3470
   294G12c C02B 5339   8.464  10.608   6.838 -0.3882  0.9620  0.7447
   294G12c O00E 5340   8.433  10.624   6.705 -0.3231 -0.4578 -1.2258
   294G12c H01B 5341   8.354  10.594   6.662 -0.7706  3.2837 -3.2611
   294G12c C02F 5342   8.361  10.576   6.912  2.1041 -1.8550  1.0675
   294G12c O00F 5343   8.232  10.600   6.844 -0.8290 -0.4486 -1.0176
   294G12c C02G 5344   8.140  10.690   6.891 -1.3515  0.1177 -0.0830
   294G12c H017 5345   8.090  10.719   6.799 -5.4470 -1.2509  1.5816
   294G12c H016 5346   8.162  10.788   6.933  1.4792 -0.9327  1.0094
   294G12c H015 5347   8.068  10.623   6.937  2.2140 -5.5213 -2.1343
   294G12c C02E 5348   8.361  10.531   7.041 -0.9019 -0.1826 -1.3783
   294G12c H018 5349   8.272  10.506   7.097  0.2807 -1.8408 -0.2275
   294G12c C01F 5350   8.282  10.708   7.558 -1.1837  0.2731 -0.0810
   294G12c C01G 5351   8.292  10.765   7.408 -2.0255 -1.2142 -0.8462
   294G12c H00L 5352   8.330  10.712   7.323  2.7361 -0.8349  0.8951
   294G12c C01H 5353   8.260  10.896   7.376 -0.9479  1.3139 -0.1524
   294G12c H00B 5354   8.304  10.969   7.309 -7.2315  6.5470  0.8589
   294G12c C01I 5355   8.200  10.979   7.487 -1.3082  1.3037 -1.1427
   294G12c C01U 5356   8.251  10.803   7.663  1.6014 -0.2220 -1.0915
   294G12c C00S 5357   7.835  10.836   8.025 -0.1729 -1.1103  0.1112
   294G12c C00K 5358   7.924  11.004   7.902  1.1710  0.0528 -0.3240
   294G12c C00N 5359   8.175  10.761   7.772  1.7218  1.5418  1.1533
   294G12c C000 5360   8.227  10.937   7.623 -0.0959  1.2241  2.0103
   294G12c C01J 5361   8.126  11.082   7.513 -0.7856  1.6270  0.6402
   294G12c C01K 5362   8.073  11.180   7.425  0.4007  0.4696 -0.6173
   294G12c C01P 5363   8.123  11.229   7.302  0.7742 -1.0166  0.0696
   294G12c C01Q 5364   8.239  11.191   7.229  1.6642  0.3579 -2.0248
   294G12c H00G 5365   8.328  11.211   7.286  2.1124 -0.7164 -2.3233
   294G12c C01R 5366   8.242  11.134   7.115 -0.4876  0.7057 -0.2081
   294G12c H00F 5367   8.157  11.107   7.053 -6.0596 -1.5606  7.5715
   294G12c C01S 5368   8.370  11.051   7.066  2.1491  0.3043 -0.2031
   294G12c H00E 5369   8.429  10.997   7.140  0.9723  0.8739  1.1758
   294G12c H00D 5370   8.338  10.960   7.016  1.4578  3.4621 -6.0114
   294G12c O005 5371   8.484  11.126   7.027 -0.6328  0.7734  0.1457
   294G12c H00C 5372   8.545  11.108   7.096 -3.9941  1.9689  3.5669
   294G12c C01O 5373   8.056  11.316   7.230  0.5043  0.5611  0.0469
   294G12c H00H 5374   8.088  11.358   7.136  1.3172 -1.5551 -0.6495
   294G12c C01N 5375   7.937  11.372   7.257  0.4322 -0.2899 -1.9590
   294G12c O006 5376   7.868  11.399   7.148  0.2456  1.2277  0.2394
   294G12c C01T 5377   7.767  11.492   7.162 -0.4273  0.4729  1.7739
   294G12c H00K 5378   7.709  11.523   7.075 -2.1693 -2.8742  1.6603
   294G12c H00J 5379   7.674  11.473   7.215 -0.1034 -1.8869  1.5561
   294G12c H00I 5380   7.820  11.583   7.193 -3.3317  2.6947  0.4198
   294G12c C01M 5381   7.899  11.355   7.387  0.8007 -0.1149 -0.3380
   294G12c C020 5382   7.925  11.139   7.840  0.4259 -0.3212 -1.6576
   294G12c C021 5383   7.823  11.234   7.882  0.7082 -0.5227  0.6698
   294G12c C01L 5384   7.972  11.268   7.487  0.2330  0.4982 -0.1398
   294G12c O007 5385   7.762  11.375   7.412 -1.0220  0.8673 -0.8470
   294G12c C022 5386   7.752  11.300   7.767 -1.3232  0.7459  1.3059
   294G12c C023 5387   7.706  11.182   7.959  0.0413 -0.2799  0.9249
   294G12c C00G 5388   7.464  11.042   7.970 -0.8285 -0.4630  0.1662
   294G12c C00E 5389   7.218  11.027   8.001  1.3781  0.0540  0.0150
   294G12c O00A 5390   7.097  10.949   7.997 -1.6236 -1.1534  0.3042
   294G12c C024 5391   7.088  10.865   7.889  0.5939 -0.5987 -0.8761
   294G12c H00V 5392   7.001  10.908   7.839  0.6938  1.7216  0.8996
   294G12c H00U 5393   7.077  10.765   7.932  4.2875 -0.4494  0.5958
   294G12c H00T 5394   7.134  10.910   7.801 -0.4814  0.0028 -1.1439
   304G12c C00D 5395   6.026  11.220   8.639  1.8640 -0.1799 -0.7841
   304G12c O00B 5396   6.106  11.122   8.572 -0.1870  1.0465  1.1831
   304G12c C025 5397   6.084  10.993   8.560  1.0866 -1.8273 -1.8968
   304G12c C026 5398   6.020  10.945   8.428 -1.4780  1.6151 -1.0312
   304G12c H00Y 5399   5.956  10.857   8.433 -0.7665  1.1232 -0.4713
   304G12c H00X 5400   6.100  10.919   8.359 -4.1935 -6.1544 -1.6879
   304G12c O00C 5401   5.950  11.041   8.367 -0.6998 -0.0312  0.9478
   304G12c H00W 5402   5.856  11.034   8.376 -0.5933 -1.4722  0.9590
   304G12c C027 5403   6.151  10.920   8.650 -1.0634 -0.4180  0.7607
   304G12c O00D 5404   6.230  10.971   8.742 -0.7061 -1.4611 -3.1661
   304G12c H00Z 5405   6.269  11.047   8.702  2.3098 -1.3697 -0.2281
   304G12c C028 5406   6.137  10.772   8.636 -0.2424  0.5333 -1.3039
   304G12c C029 5407   6.262  10.704   8.645 -0.6022 -0.4198  0.5518
   304G12c H010 5408   6.336  10.756   8.704 -4.4787  3.3802  2.3673
   304G12c C02T 5409   6.263  10.567   8.618 -0.5879 -1.0720 -0.6316
   304G12c H01O 5410   6.353  10.510   8.634 -1.3141 -2.1029 -0.0963
   304G12c C02S 5411   6.151  10.492   8.604  0.4415  0.0109  0.8349
   304G12c O00J 5412   6.153  10.337   8.606 -0.1866 -0.7580 -0.6819
   304G12c H01P 5413   6.074  10.293   8.630 -0.8583  2.1389  2.8374
   304G12c C02R 5414   6.036  10.548   8.618 -1.5512  0.9266 -0.6174
   304G12c O00I 5415   5.920  10.459   8.605 -0.3555 -0.4471  0.9056
   304G12c C02Q 5416   5.863  10.442   8.469  0.0372 -1.0763 -0.3074
   304G12c H01N 5417   5.939  10.390   8.409 -0.7085 -1.0839 -1.2494
   304G12c H01R 5418   5.801  10.508   8.408  1.0290  0.3893  0.2450
   304G12c H01Q 5419   5.788  10.365   8.488  0.6853 -0.9791  2.9347
   304G12c C02A 5420   6.023  10.689   8.618 -0.7996  0.0735  0.2386
   304G12c H011 5421   5.928  10.736   8.599 -0.7453  0.2056  0.2928
   304G12c C00C 5422   5.940  11.174   8.739 -1.0751  0.0930 -0.8114
   304G12c H012 5423   5.946  11.066   8.739 -0.2651  0.0912 -4.2309
   304G12c C00B 5424   5.868  11.245   8.827  1.1355 -1.4062  1.0926
   304G12c C00A 5425   5.807  11.171   8.928  0.5868 -1.0596 -1.2578
   304G12c C009 5426   5.694  11.075   8.915 -1.2979  0.9751  1.4780
   304G12c C008 5427   5.646  10.973   8.820  1.1813  0.0845 -1.0489
   304G12c H013 5428   5.675  10.920   8.731  5.7879  2.0886 -0.9316
   304G12c C007 5429   5.526  10.901   8.841  0.8874 -0.7440  1.2803
   304G12c H014 5430   5.485  10.811   8.798 -0.3607  1.1182 -1.5186
   304G12c C006 5431   5.449  10.936   8.961  0.1664  1.1940  2.0386
   304G12c C005 5432   5.483  11.043   9.032 -1.4709 -0.4248  0.7795
   304G12c C004 5433   5.396  11.115   9.107  0.3058 -0.3457 -0.2262
   304G12c C003 5434   5.432  11.244   9.171  1.0866  0.9334  0.2872
   304G12c C002 5435   5.323  11.317   9.217  0.4806 -1.2400 -2.8602
   304G12c C001 5436   5.323  11.426   9.301  0.6322  0.4332 -0.1558
   304G12c C00M 5437   5.378  11.551   9.251  0.3163  0.2635  0.4043
   304G12c C00L 5438   5.510  11.557   9.223  1.2609  0.6149 -0.3630
   304G12c C00R 5439   5.560  11.663   9.141 -0.3584  1.0140  0.1210
   304G12c C00Q 5440   5.518  11.789   9.100  1.7922 -1.3937 -1.8518
   304G12c C00V 5441   5.590  11.859   9.000 -0.6201 -2.7530 -0.7404
   304G12c C00U 5442   5.706  11.804   8.943  0.0511 -2.2029  0.2134
   304G12c C00T 5443   5.750  11.678   8.972  0.9029  1.3869  3.2557
   304G12c C016 5444   5.836  11.597   8.898  1.3830 -1.7556 -1.1467
   304G12c C015 5445   5.902  11.661   8.792 -0.7433 -0.4153 -0.2296
   304G12c C010 5446   5.877  11.798   8.768 -0.2783  0.4069  2.0174
   304G12c C011 5447   5.936  11.861   8.652 -0.0782 -0.3821 -0.9554
   304G12c H005 5448   5.942  11.969   8.643  0.4302 -0.5290 -2.5686
   304G12c C012 5449   6.017  11.781   8.574 -1.4043  0.4547 -0.6144
   304G12c C017 5450   6.106  11.843   8.470  0.8806  2.1513  0.2647
   304G12c O002 5451   6.033  11.867   8.358 -0.1552 -0.3724  0.7508
   304G12c H004 5452   5.948  11.828   8.344 -4.4142  7.7105  0.9011
   304G12c C018 5453   6.242  11.864   8.486 -0.4837  0.2294  0.3844
   304G12c O001 5454   6.312  11.823   8.609  0.0602  1.2439  0.4667
   304G12c H003 5455   6.310  11.730   8.626  3.8029  1.6772  4.1839
   304G12c C019 5456   6.311  11.945   8.382 -1.1022  0.0563 -0.2333
   304G12c H002 5457   6.329  11.898   8.285  3.7065 -2.0971  1.5638
   304G12c H001 5458   6.237  12.010   8.335 -1.6842 -0.4278 -0.0010
   304G12c O000 5459   6.433  12.014   8.427  0.6191 -1.2812  0.4112
   304G12c C01A 5460   6.508  12.061   8.326  1.4576 -0.7217 -1.3592
   304G12c C02K 5461   6.486  12.170   8.241  0.5870  0.9169  0.1932
   304G12c O00G 5462   6.369  12.244   8.213  1.2736  0.4439 -0.2052
   304G12c C02M 5463   6.353  12.353   8.303 -0.5030 -0.6761 -0.2454
   304G12c H01G 5464   6.291  12.412   8.236 -4.5827  0.5870  4.3073
   304G12c H01F 5465   6.417  12.435   8.334 -4.0157  2.9546 -2.1466
   304G12c H01E 5466   6.281  12.331   8.382 -1.1337 -0.2204 -0.6940
   304G12c C02J 5467   6.594  12.226   8.176  0.2020  0.0808  0.0406
   304G12c H01H 5468   6.582  12.316   8.117 -0.7315  1.3251  2.0590
   304G12c C02I 5469   6.742  12.184   8.204  1.8963  0.4919  0.1699
   304G12c C02N 5470   6.861  12.247   8.136 -2.2154  0.0924  0.4270
   304G12c H01M 5471   6.924  12.329   8.166  2.0281 -3.5025  1.7832
   304G12c C02O 5472   6.859  12.246   7.989  0.0754 -2.1929 -0.4078
   304G12c H01L 5473   6.781  12.199   7.930  2.3051 -0.3515 -5.1053
   304G12c C02P 5474   6.983  12.294   7.916  0.4011  1.2691 -0.7763
   304G12c H01K 5475   6.952  12.333   7.819  4.9359  2.1514 -2.0084
   304G12c H01J 5476   7.005  12.379   7.981 -2.5519 -0.2455  2.3661
   304G12c O00H 5477   7.091  12.192   7.869  1.0954  0.2026  0.8012
   304G12c H01I 5478   7.086  12.118   7.927  2.1741 -1.6688 -1.4275
   304G12c C02H 5479   6.734  12.060   8.264  0.2103 -1.6284  0.4136
   304G12c H01C 5480   6.789  11.979   8.219  0.9997  1.5338 -4.7351
   304G12c C02L 5481   6.633  11.987   8.323  0.6288 -0.6014  0.1231
   304G12c H01D 5482   6.650  11.898   8.382  2.1600  0.3405  1.1239
   304G12c C013 5483   6.029  11.645   8.596 -1.7929 -1.4385 -0.1427
   304G12c H000 5484   6.076  11.597   8.512  1.4891  4.0568 -1.7001
   304G12c C014 5485   5.957  11.582   8.690  0.6827  0.3842 -0.4417
   304G12c C00F 5486   5.947  11.440   8.692 -0.1942  0.2135  0.8242
   304G12c C00H 5487   5.837  11.465   8.920  1.2375 -1.1935  0.3658
   304G12c C00I 5488   5.768  11.402   9.022  0.0976  1.1110  1.5752
   304G12c C00J 5489   5.696  11.487   9.114  0.5096  0.9214 -0.2417
   304G12c C00Z 5490   5.765  11.858   8.828 -1.1924  0.5394  1.8216
   304G12c C00Y 5491   5.705  11.973   8.777 -0.8837  0.1315 -0.3983
   304G12c H006 5492   5.717  12.027   8.685  0.1192 -4.5066 -3.1471
   304G12c C00X 5493   5.608  12.047   8.842 -0.0492 -0.7977  0.8574
   304G12c O003 5494   5.562  12.155   8.760 -0.0908 -1.0258  0.0549
   304G12c C01B 5495   5.421  12.149   8.716 -1.2117  2.0513 -1.6748
   304G12c H009 5496   5.374  12.180   8.809  0.6817  1.6343 -0.5626
   304G12c H008 5497   5.372  12.189   8.627 -3.3455 -0.1769 -1.5549
   304G12c H007 5498   5.402  12.041   8.723 -3.5617  2.5829  0.8979
   304G12c C00W 5499   5.546  11.983   8.942  0.3319  0.3600  0.0033
   304G12c O004 5500   5.432  12.030   8.979 -0.9669 -0.0832 -0.3332
   304G12c C01C 5501   5.386  12.004   9.111 -0.9540 -0.6301 -0.5511
   304G12c H00A 5502   5.375  12.092   9.172  0.1134 -0.6623 -0.2954
   304G12c C00P 5503   5.392  11.856   9.141  0.9868 -1.9064  0.3170
   304G12c C00O 5504   5.277  11.799   9.199  0.2789 -0.8394  1.2838
   304G12c C01D 5505   5.158  11.860   9.210  2.6683 -0.9126 -0.5150
   304G12c H00S 5506   5.126  11.963   9.203  2.1468 -1.0037  0.4633
   304G12c C01E 5507   5.045  11.774   9.255 -1.7603  0.8431  2.0885
   304G12c O008 5508   4.917  11.818   9.271 -0.5014  1.6780  0.6256
   304G12c C01V 5509   4.869  11.935   9.253 -0.6470 -2.7726 -2.1384
   304G12c C01Z 5510   4.882  12.000   9.119  1.6191  1.1148  0.4848
   304G12c H00R 5511   4.851  12.105   9.111  3.1362  1.3137 -4.3547
   304G12c H00Q 5512   4.978  11.972   9.077  1.8609 -5.4976  4.8034
   304G12c O009 5513   4.795  11.913   9.060  0.2900  0.1614  0.7326
   304G12c H00P 5514   4.722  11.889   9.116 -0.8212 -4.4095 -2.3777
   304G12c C01W 5515   4.798  11.986   9.355  0.6877 -1.7345 -1.8994
   304G12c H00O 5516   4.790  11.941   9.453 -1.5191 -0.9386 -1.6876
   304G12c C01X 5517   4.683  12.088   9.344  0.5529  0.6992  0.1995
   304G12c H00N 5518   4.661  12.071   9.238  4.2590 -2.1719 -0.2106
   304G12c H00M 5519   4.576  12.083   9.362  0.0048 -1.3502 -3.1467
   304G12c C01Y 5520   4.725  12.230   9.371 -1.1094  1.3373 -0.3027
   304G12c C02D 5521   4.837  12.248   9.449  1.1265  0.2346 -0.0886
   304G12c H019 5522   4.936  12.209   9.471  2.3601  1.7645 -2.6831
   304G12c C02C 5523   4.837  12.376   9.508 -0.3299 -0.9811  0.0727
   304G12c H01A 5524   4.922  12.403   9.570 -0.6620  5.2882 -1.8693
   304G12c C02B 5525   4.721  12.463   9.507  1.2018 -0.3607  1.4073
   304G12c O00E 5526   4.706  12.577   9.579 -0.5056 -0.1171  0.4336
   304G12c H01B 5527   4.620  12.594   9.615  1.0770  1.9061  3.5716
   304G12c C02F 5528   4.606  12.427   9.428  0.8856 -1.1808 -2.5207
   304G12c O00F 5529   4.505  12.507   9.423 -0.2970  1.2193  0.4068
   304G12c C02G 5530   4.402  12.445   9.490  1.2592 -1.2831 -0.2626
   304G12c H017 5531   4.433  12.398   9.583  0.9410  0.5519  0.7912
   304G12c H016 5532   4.338  12.365   9.454  3.0988 -1.5091 -3.2633
   304G12c H015 5533   4.338  12.528   9.520  0.7449 -1.9205  0.4090
   304G12c C02E 5534   4.622  12.326   9.337  0.7497  0.6364  0.2056
   304G12c H018 5535   4.551  12.297   9.260 -3.4960  3.8933  2.6342
   304G12c C01F 5536   5.059  11.648   9.297  0.6502 -0.5140 -0.7182
   304G12c C01G 5537   4.949  11.553   9.301  1.5332 -0.0684  0.5233
   304G12c H00L 5538   4.860  11.611   9.284 -1.8459 -4.4654  2.2654
   304G12c C01H 5539   4.990  11.413   9.274 -1.5329 -0.0255 -1.6327
   304G12c H00B 5540   4.939  11.352   9.201  2.8212 -5.4966 -0.4892
   304G12c C01I 5541   5.122  11.361   9.285 -0.0659  1.7142 -0.1062
   304G12c C01U 5542   5.178  11.592   9.289 -0.7268 -0.1048  0.0848
   304G12c C00S 5543   5.677  11.618   9.080  2.3425  0.4796 -0.1178
   304G12c C00K 5544   5.582  11.440   9.183  1.3587  2.7390 -0.2872
   304G12c C00N 5545   5.287  11.667   9.252  1.4834 -0.3609  0.1242
   304G12c C000 5546   5.196  11.462   9.346  0.5650  0.3294 -0.1201
   304G12c C01J 5547   5.201  11.259   9.227  0.8731 -0.6955  1.0793
   304G12c C01K 5548   5.155  11.133   9.181  0.0761  0.2566  0.3630
   304G12c C01P 5549   5.036  11.064   9.218  0.9642  0.5204  0.8113
   304G12c C01Q 5550   4.943  11.100   9.311 -1.0808  0.1398 -0.9561
   304G12c H00G 5551   4.871  11.180   9.310 -0.6311  0.8214  4.1513
   304G12c C01R 5552   4.952  11.022   9.421  1.4472  0.7428 -0.9601
   304G12c H00F 5553   5.035  10.956   9.438  5.5958  5.5747 -1.1624
   304G12c C01S 5554   4.850  11.032   9.526 -0.1783 -1.4767  0.8562
   304G12c H00E 5555   4.807  11.130   9.507 -5.4533 -3.5089  1.4283
   304G12c H00D 5556   4.755  10.986   9.499 -1.1491 -1.0601  3.4328
   304G12c O005 5557   4.887  11.037   9.661 -0.1618  0.5746 -0.8561
   304G12c H00C 5558   4.920  10.953   9.689 -5.3732  0.1319  5.1606
   304G12c C01O 5559   5.002  10.947   9.138 -0.1027  1.1777 -1.8774
   304G12c H00H 5560   4.917  10.881   9.142 -0.3463  1.4824 -2.0141
   304G12c C01N 5561   5.101  10.896   9.065 -0.9657 -0.9057 -0.0800
   304G12c O006 5562   5.073  10.778   9.015  0.1255  0.3028 -2.0445
   304G12c C01T 5563   5.014  10.769   8.894  0.3310  0.8093  1.7086
   304G12c H00K 5564   4.947  10.683   8.898 -3.4953  3.3220 -2.9286
   304G12c H00J 5565   5.091  10.785   8.818  0.6827 -1.9270  1.4112
   304G12c H00I 5566   4.968  10.862   8.862  4.5137  2.2704 -0.4073
   304G12c C01M 5567   5.228  10.949   9.044 -0.0638  1.3002  1.3402
   304G12c C020 5568   5.564  11.302   9.154 -0.4171  0.4939  0.3723
   304G12c C021 5569   5.659  11.216   9.101 -2.6148 -0.6013 -0.2334
   304G12c C01L 5570   5.266  11.053   9.128  2.1716  0.2895 -0.3687
   304G12c O007 5571   5.332  10.865   8.994 -0.4709  0.7438  0.6744
   304G12c C022 5572   5.612  11.104   9.023  0.3896  0.6440  0.0974
   304G12c C023 5573   5.768  11.261   9.027 -1.0539  1.1864 -0.5929
   304G12c C00G 5574   5.876  11.384   8.809  0.1573  0.2551 -1.0110
   304G12c C00E 5575   6.033  11.359   8.610 -0.3315  0.5146 -0.7775
   304G12c O00A 5576   6.159  11.410   8.569 -1.0224  0.5649 -0.8582
   304G12c C024 5577   6.197  11.364   8.426 -0.2488 -0.3267 -1.3179
   304G12c H00V 5578   6.141  11.392   8.337  0.4145  0.4041 -1.5201
   304G12c H00U 5579   6.180  11.257   8.437 -3.2948  0.3936  2.0199
   304G12c H00T 5580   6.303  11.375   8.400  0.1353 -3.7364 -1.3522
   314G12c C00D 5581   2.528  11.962   7.249 -1.5882 -1.7753  0.5775
   314G12c O00B 5582   2.616  12.075   7.251  0.9439 -0.6838  0.6751
   314G12c C025 5583   2.710  12.073   7.154  0.0373  0.2220 -0.1389
   314G12c C026 5584   2.669  12.180   7.053  1.0316  0.8710  0.6361
   314G12c H00Y 5585   2.754  12.225   7.002  2.8240 -0.6497  2.2291
   314G12c H00X 5586   2.626  12.270   7.098  2.1012  1.3798  0.6679
   314G12c O00C 5587   2.615  12.129   6.935  0.3938 -1.0755 -0.5687
   314G12c H00W 5588   2.684  12.131   6.870  2.7795  5.1925  1.7963
   314G12c C027 5589   2.829  12.002   7.159 -1.7249  0.5319  0.3516
   314G12c O00D 5590   2.823  11.931   7.270  0.5308 -0.2436 -0.2714
   314G12c H00Z 5591   2.738  11.939   7.311  1.7430  5.8611  1.5207
   314G12c C028 5592   2.936  12.030   7.074 -0.0123 -0.0365  0.1849
   314G12c C029 5593   3.003  12.159   7.082 -1.6484  0.9151 -0.4949
   314G12c H010 5594   2.925  12.227   7.114 -3.4756 -0.0806 -2.6113
   314G12c C02T 5595   3.124  12.181   7.008  0.8248  0.8208 -0.4379
   314G12c H01O 5596   3.173  12.275   7.027 -3.2104  2.1783  4.2540
   314G12c C02S 5597   3.209  12.077   6.958  0.7286  0.6421  0.1272
   314G12c O00J 5598   3.345  12.085   6.919 -0.9666  0.1213 -0.0101
   314G12c H01P 5599   3.361  12.029   6.993  0.4702  1.1224  0.4622
   314G12c C02R 5600   3.138  11.949   6.955  0.4116 -0.5474  1.3596
   314G12c O00I 5601   3.221  11.840   6.913 -1.6193 -1.0059 -0.0555
   314G12c C02Q 5602   3.161  11.723   6.834 -0.6502 -0.0867  0.7734
   314G12c H01N 5603   3.122  11.753   6.737  1.3156  4.1931  1.1992
   314G12c H01R 5604   3.088  11.668   6.894 -0.7986  0.1651  0.8225
   314G12c H01Q 5605   3.259  11.685   6.803 -1.5181 -5.6807  4.0473
   314G12c C02A 5606   3.008  11.921   7.010  0.1311  0.6728  0.7790
   314G12c H011 5607   2.980  11.820   7.036 -3.0275  0.4013 -3.2169
   314G12c C00C 5608   2.453  11.921   7.142  0.5220 -1.0608 -0.6363
   314G12c H012 5609   2.513  11.948   7.055  2.7526  4.6097  2.3564
   314G12c C00B 5610   2.372  11.809   7.136  0.2056  0.2638  0.0822
   314G12c C00A 5611   2.344  11.723   7.021 -0.1748 -0.7563 -0.2885
   314G12c C009 5612   2.330  11.764   6.882 -1.6716  1.6856 -1.1739
   314G12c C008 5613   2.353  11.870   6.786 -1.2480  1.2795  1.2624
   314G12c H013 5614   2.438  11.936   6.782  0.8709 -1.2221 -8.5072
   314G12c C007 5615   2.248  11.903   6.692  1.3892  0.1316  0.4146
   314G12c H014 5616   2.258  11.967   6.606 -4.3877  0.6031 -0.1449
   314G12c C006 5617   2.127  11.820   6.680 -0.0026 -0.5697 -0.0154
   314G12c C005 5618   2.125  11.701   6.752  0.0809 -2.0077 -0.3154
   314G12c C004 5619   2.013  11.620   6.733  0.0792  2.6879  1.1254
   314G12c C003 5620   2.005  11.493   6.812  0.2117  0.0476 -1.3618
   314G12c C002 5621   1.883  11.425   6.797 -1.0104  1.6333  0.2535
   314G12c C001 5622   1.820  11.333   6.885  1.5751 -0.9129  2.6491
   314G12c C00M 5623   1.813  11.354   7.029  1.0297 -0.3081 -1.1670
   314G12c C00L 5624   1.918  11.359   7.115 -0.3624 -0.4194  2.0778
   314G12c C00R 5625   1.920  11.402   7.244  1.0284 -0.7215  1.5676
   314G12c C00Q 5626   1.802  11.422   7.342  1.4286  1.3869  0.6115
   314G12c C00V 5627   1.837  11.506   7.460  1.3675 -0.4791 -1.1030
   314G12c C00U 5628   1.954  11.584   7.467  1.1804  0.3110  0.4900
   314G12c C00T 5629   2.048  11.572   7.373 -2.1929  0.9378 -0.0195
   314G12c C016 5630   2.171  11.638   7.371 -1.3453  0.1483 -1.1104
   314G12c C015 5631   2.206  11.697   7.498 -1.1407  0.1298  0.6340
   314G12c C010 5632   2.118  11.692   7.605 -0.3956 -1.3467  1.4475
   314G12c C011 5633   2.157  11.757   7.727  0.1013  0.3737  1.2663
   314G12c H005 5634   2.101  11.790   7.813  3.7885 -3.3522  5.3254
   314G12c C012 5635   2.297  11.799   7.766 -0.6579  1.6617  1.1171
   314G12c C017 5636   2.360  11.820   7.896  0.2475  0.7747 -0.3511
   314G12c O002 5637   2.393  11.953   7.905 -1.5471 -0.8390 -0.1710
   314G12c H004 5638   2.421  11.983   7.990 -3.9280  1.0344  0.0060
   314G12c C018 5639   2.362  11.717   7.987  1.4013  0.6769 -1.9910
   314G12c O001 5640   2.334  11.581   7.938 -1.9249 -0.5464 -0.2595
   314G12c H003 5641   2.347  11.602   7.847 -0.0272  3.9137  0.9251
   314G12c C019 5642   2.365  11.747   8.146  0.0382  0.3759 -0.2744
   314G12c H002 5643   2.257  11.760   8.162 -0.9206 -4.8409 -1.7208
   314G12c H001 5644   2.411  11.650   8.165 -2.7181 -1.7531 -3.8332
   314G12c O000 5645   2.418  11.865   8.180 -0.0696  0.6135  2.0675
   314G12c C01A 5646   2.496  11.872   8.301  0.5926  0.9324 -0.4524
   314G12c C02K 5647   2.611  11.791   8.317 -2.0330  1.0537  2.1823
   314G12c O00G 5648   2.640  11.678   8.242  0.5755  0.2773  0.2531
   314G12c C02M 5649   2.737  11.565   8.269 -0.7531  0.3769  1.5566
   314G12c H01G 5650   2.844  11.583   8.259 -0.4830  0.5345  4.3199
   314G12c H01F 5651   2.704  11.476   8.216  3.1395  2.2157 -4.5079
   314G12c H01E 5652   2.719  11.554   8.376  3.8137  6.3579  3.2309
   314G12c C02J 5653   2.686  11.799   8.437 -0.5443  1.1442 -0.6617
   314G12c H01H 5654   2.781  11.747   8.438 -0.8054  0.4920 -3.9184
   314G12c C02I 5655   2.607  11.843   8.548 -0.9494  0.2362 -0.3835
   314G12c C02N 5656   2.680  11.802   8.679  1.4816 -0.6703  0.5489
   314G12c H01M 5657   2.769  11.745   8.660 -0.3428 -3.2488 -0.5627
   314G12c C02O 5658   2.629  11.832   8.807 -0.2508 -1.0571  0.5351
   314G12c H01L 5659   2.685  11.803   8.895  0.0544  0.3747  0.8202
   314G12c C02P 5660   2.504  11.895   8.867  1.7196 -0.0426  0.5159
   314G12c H01K 5661   2.405  11.856   8.842 -0.6788  0.4205  7.9355
   314G12c H01J 5662   2.488  11.864   8.970 -2.1461  1.6392  0.5252
   314G12c O00H 5663   2.500  12.025   8.880  0.3404 -0.2777 -0.3254
   314G12c H01I 5664   2.422  12.056   8.923  2.4701 -0.2492  3.7338
   314G12c C02H 5665   2.495  11.925   8.534  1.4432  0.0463 -0.4545
   314G12c H01C 5666   2.425  11.952   8.613  5.4497 -2.4813  4.2408
   314G12c C02L 5667   2.440  11.938   8.408  0.5742 -0.9873 -0.8701
   314G12c H01D 5668   2.347  11.982   8.374  2.4104  2.6307 -1.4083
   314G12c C013 5669   2.364  11.809   7.647 -1.0555 -1.8480 -0.1824
   314G12c H000 5670   2.462  11.850   7.671  0.7264 -6.8989  1.9842
   314G12c C014 5671   2.325  11.773   7.507 -0.3159 -0.5323  1.9386
   314G12c C00F 5672   2.383  11.805   7.386 -0.4002  1.0780  1.2018
   314G12c C00H 5673   2.241  11.661   7.257 -1.6188  0.1541 -0.7317
   314G12c C00I 5674   2.217  11.571   7.156  1.1194  0.9619  0.6032
   314G12c C00J 5675   2.114  11.472   7.160 -0.1908 -0.3574  0.5756
   314G12c C00Z 5676   1.981  11.649   7.573  1.2732 -1.1148 -0.5903
   314G12c C00Y 5677   1.878  11.678   7.662  0.2167  1.6456 -0.3605
   314G12c H006 5678   1.882  11.724   7.760 -0.3063 -2.2767  1.6082
   314G12c C00X 5679   1.750  11.620   7.645 -0.2409 -1.2897  0.3875
   314G12c O003 5680   1.642  11.614   7.735  0.5024 -0.1593 -0.9697
   314G12c C01B 5681   1.590  11.724   7.803 -0.6155 -0.1237  0.6430
   314G12c H009 5682   1.559  11.807   7.740 -1.9074 -3.1138 -2.8690
   314G12c H008 5683   1.495  11.698   7.850 -2.0399  1.5416 -1.2103
   314G12c H007 5684   1.675  11.761   7.859 -1.4207  1.9712  0.5083
   314G12c C00W 5685   1.733  11.528   7.548  1.2488  1.0843  0.0192
   314G12c O004 5686   1.601  11.509   7.525 -0.6770  1.5250 -1.2923
   314G12c C01C 5687   1.564  11.443   7.406 -0.9640  2.0799 -1.3992
   314G12c H00A 5688   1.475  11.384   7.391 -4.6917  5.2281  5.7936
   314G12c C00P 5689   1.662  11.412   7.309 -0.8718  1.6115  1.7070
   314G12c C00O 5690   1.599  11.402   7.180  3.0708  0.4677 -0.5808
   314G12c C01D 5691   1.456  11.440   7.160  0.1518 -0.0643 -0.0769
   314G12c H00S 5692   1.403  11.481   7.245 -4.8795  4.2651 -4.9168
   314G12c C01E 5693   1.400  11.493   7.052  0.7743 -2.5460  0.4200
   314G12c O008 5694   1.267  11.503   7.039  0.4516 -1.0511 -1.8936
   314G12c C01V 5695   1.204  11.407   7.101 -0.7642 -1.4800 -1.0360
   314G12c C01Z 5696   1.108  11.465   7.198 -1.2860 -0.7216  0.2850
   314G12c H00R 5697   1.091  11.571   7.182 -1.1940 -0.8003 -0.3564
   314G12c H00Q 5698   1.023  11.398   7.212 -5.0695  4.2548  2.5500
   314G12c O009 5699   1.166  11.465   7.335  1.4114  0.4333 -0.2902
   314G12c H00P 5700   1.131  11.383   7.367 -8.5922  2.7860 -3.4430
   314G12c C01W 5701   1.195  11.277   7.065  0.1340  0.6159  0.4205
   314G12c H00O 5702   1.250  11.224   6.989 -4.9785 -4.5509 -0.0017
   314G12c C01X 5703   1.118  11.167   7.137 -0.5484 -0.9634  1.2345
   314G12c H00N 5704   1.177  11.076   7.125 -0.1142 -0.5588  0.1790
   314G12c H00M 5705   1.167  11.172   7.234  1.9557 -1.5598  0.0487
   314G12c C01Y 5706   0.966  11.145   7.114  0.0670  1.2393  1.5938
   314G12c C02D 5707   0.942  11.126   6.981 -0.1864 -0.9856  0.5056
   314G12c H019 5708   1.008  11.157   6.901 -0.2148  0.6055  1.0855
   314G12c C02C 5709   0.824  11.074   6.937 -0.9081 -1.0833  0.9676
   314G12c H01A 5710   0.816  11.059   6.831 -0.8623 -0.3001  0.8553
   314G12c C02B 5711   0.727  11.058   7.033 -0.5472  0.0946 -0.4645
   314G12c O00E 5712   0.602  11.020   6.977 -0.4437  0.0983  0.3049
   314G12c H01B 5713   0.548  11.002   7.053  4.3076  1.1660  4.2030
   314G12c C02F 5714   0.744  11.088   7.173 -0.3687 -0.8608 -0.5107
   314G12c O00F 5715   0.627  11.044   7.248  0.4721 -1.0609 -0.3878
   314G12c C02G 5716   0.635  11.003   7.381 -0.5045  0.1079  0.6179
   314G12c H017 5717   0.687  11.095   7.405 -1.0737  0.8722 -1.0498
   314G12c H016 5718   0.531  11.029   7.401 -2.6694 -7.3965  0.6716
   314G12c H015 5719   0.671  10.912   7.430  2.4634  1.2885  0.7216
   314G12c C02E 5720   0.871  11.130   7.214  0.4762 -0.1063 -0.6809
   314G12c H018 5721   0.877  11.166   7.316  1.6212  0.1067 -0.8187
   314G12c C01F 5722   1.483  11.465   6.934 -1.9769 -0.0276  1.0783
   314G12c C01G 5723   1.441  11.500   6.800 -0.5705 -1.5679 -0.3752
   314G12c H00L 5724   1.345  11.545   6.780 -0.6503 -1.2893  0.5926
   314G12c C01H 5725   1.536  11.508   6.714  1.9215  0.1878 -0.2502
   314G12c H00B 5726   1.528  11.581   6.634  4.5167  3.0471  1.9835
   314G12c C01I 5727   1.662  11.445   6.738 -1.9263 -0.0634  1.3253
   314G12c C01U 5728   1.593  11.369   6.947 -1.6309  0.8925  0.1123
   314G12c C00S 5729   2.038  11.464   7.273 -0.5358 -0.1033 -1.0298
   314G12c C00K 5730   2.041  11.420   7.053  0.8200  0.6191  1.3937
   314G12c C00N 5731   1.670  11.377   7.063  1.2851 -0.0418 -2.7172
   314G12c C000 5732   1.682  11.349   6.846 -1.3390 -1.2733 -0.3319
   314G12c C01J 5733   1.792  11.489   6.702  0.1431  0.6753  0.3681
   314G12c C01K 5734   1.830  11.560   6.589 -0.2109 -0.5411 -0.6858
   314G12c C01P 5735   1.780  11.568   6.444 -0.3295 -1.5389  0.0863
   314G12c C01Q 5736   1.695  11.468   6.379 -0.4828 -0.4360 -0.1525
   314G12c H00G 5737   1.612  11.524   6.338 -2.3635 -1.0074  2.7562
   314G12c C01R 5738   1.712  11.338   6.362  0.8436  0.5167 -0.8830
   314G12c H00F 5739   1.768  11.271   6.426  1.8877 -0.3688 -2.7056
   314G12c C01S 5740   1.605  11.261   6.282 -0.5978 -0.9765 -0.7448
   314G12c H00E 5741   1.609  11.152   6.272  0.3607 -1.0939  0.7419
   314G12c H00D 5742   1.523  11.257   6.354  2.0126 -0.2818  2.4047
   314G12c O005 5743   1.561  11.305   6.157 -1.6537  0.1367  0.4631
   314G12c H00C 5744   1.525  11.235   6.105  1.7096 -1.1210 -0.2991
   314G12c C01O 5745   1.794  11.680   6.363 -1.1315  0.3138 -0.7349
   314G12c H00H 5746   1.749  11.683   6.265  0.7548  2.4430 -1.5832
   314G12c C01N 5747   1.890  11.783   6.400 -1.0529  0.0702  0.4105
   314G12c O006 5748   1.894  11.919   6.353 -0.5860 -2.1678 -0.9400
   314G12c C01T 5749   1.804  11.965   6.259 -0.3144 -0.5504 -0.4888
   314G12c H00K 5750   1.726  11.902   6.301 -0.7116 -0.4356 -1.0651
   314G12c H00J 5751   1.826  11.931   6.158  2.8963  1.0944 -0.3997
   314G12c H00I 5752   1.745  12.055   6.274  4.6468  3.0936 -1.4874
   314G12c C01M 5753   1.965  11.755   6.524  0.2163  1.3921 -0.2278
   314G12c C020 5754   2.088  11.494   6.927  0.9781 -0.2655 -0.9613
   314G12c C021 5755   2.199  11.578   6.923 -0.0802 -1.0095  2.2321
   314G12c C01L 5756   1.942  11.640   6.612  1.1543 -1.2830  0.8186
   314G12c O007 5757   2.044  11.852   6.569 -1.2128  0.1410 -0.6499
   314G12c C022 5758   2.215  11.686   6.855 -0.1248  1.9727  0.7156
   314G12c C023 5759   2.270  11.611   7.036 -0.4996  0.7919 -0.1108
   314G12c C00G 5760   2.332  11.762   7.256 -1.1104  1.0737  0.3361
   314G12c C00E 5761   2.484  11.902   7.370 -1.4595 -0.7309  0.1460
   314G12c O00A 5762   2.556  11.954   7.472  1.1351 -0.3903 -0.9784
   314G12c C024 5763   2.493  12.089   7.528  0.9815  1.6333 -0.2459
   314G12c H00V 5764   2.542  12.164   7.466 -2.9037  1.4293 -3.8174
   314G12c H00U 5765   2.388  12.070   7.503  0.7727 -1.2642  2.4573
   314G12c H00T 5766   2.535  12.092   7.629  0.3955 -1.1869  0.1118
   324G12c C00D 5767   3.505   5.243   2.991 -0.2508  1.8109 -0.6892
   324G12c O00B 5768   3.520   5.189   2.877 -0.3465  0.6168  1.4530
   324G12c C025 5769   3.637   5.149   2.834  0.0869  1.6217  1.0826
   324G12c C026 5770   3.655   5.157   2.672 -0.9287 -0.1608 -1.3195
   324G12c H00Y 5771   3.712   5.092   2.605 -5.2820 -0.7381 -4.6879
   324G12c H00X 5772   3.681   5.263   2.675 -1.5274  0.1034 -4.1322
   324G12c O00C 5773   3.525   5.191   2.605 -1.3042  0.0878 -0.1592
   324G12c H00W 5774   3.534   5.194   2.511  4.8974 -2.4472  0.1184
   324G12c C027 5775   3.742   5.125   2.904  1.9275  1.6453 -0.3191
   324G12c O00D 5776   3.721   5.120   3.045  1.1433  0.1983 -0.6937
   324G12c H00Z 5777   3.686   5.199   3.081  1.0443  1.6828 -3.8331
   324G12c C028 5778   3.880   5.135   2.846  0.4976 -0.9647 -0.8622
   324G12c C029 5779   3.911   5.034   2.747 -0.5122 -1.5448  1.2018
   324G12c H010 5780   3.832   4.963   2.723 -1.9165 -0.9158  3.7810
   324G12c C02T 5781   4.036   5.019   2.692 -0.5693 -0.0177  0.3440
   324G12c H01O 5782   4.035   4.950   2.609  0.1770 -6.6961  5.3974
   324G12c C02S 5783   4.138   5.102   2.750 -0.1435  0.7871  0.7666
   324G12c O00J 5784   4.255   5.126   2.685  0.1123 -1.2086  1.2568
   324G12c H01P 5785   4.253   5.217   2.663  5.5205 -0.4337  3.1326
   324G12c C02R 5786   4.108   5.194   2.852 -1.9550  0.9779  0.1593
   324G12c O00I 5787   4.215   5.276   2.888  0.3683  0.4930 -0.6347
   324G12c C02Q 5788   4.240   5.285   3.029  0.1555  0.6862  1.1724
   324G12c H01N 5789   4.269   5.205   3.097  1.8905  0.0402 -0.2759
   324G12c H01R 5790   4.335   5.338   3.041 -1.4217  4.9768 -3.3587
   324G12c H01Q 5791   4.179   5.364   3.072 -0.6720 -1.3166  3.7605
   324G12c C02A 5792   3.980   5.216   2.899  0.5253 -0.5473 -0.2128
   324G12c H011 5793   3.962   5.314   2.939  5.4266 -1.0191  3.7437
   324G12c C00C 5794   3.573   5.363   3.018 -0.1870 -0.7693  1.3547
   324G12c H012 5795   3.616   5.426   2.942  1.9020 -3.5880  0.1315
   324G12c C00B 5796   3.603   5.409   3.149 -1.7268  1.3021 -0.8094
   324G12c C00A 5797   3.690   5.515   3.186 -0.9878 -0.9666 -1.1933
   324G12c C009 5798   3.802   5.570   3.115 -2.0690 -0.3382 -0.1930
   324G12c C008 5799   3.870   5.553   2.995  0.5605  0.3403  0.1471
   324G12c H013 5800   3.812   5.525   2.908  0.0552  0.9097  0.2922
   324G12c C007 5801   4.005   5.593   2.986  1.0388  1.3171  1.0401
   324G12c H014 5802   4.067   5.607   2.898  3.1231  0.1669  2.2844
   324G12c C006 5803   4.070   5.644   3.102 -0.5892  0.5204 -0.1573
   324G12c C005 5804   4.001   5.651   3.225 -0.9432  0.1729  0.8895
   324G12c C004 5805   4.077   5.679   3.348 -0.8910  0.1801  1.4676
   324G12c C003 5806   3.998   5.672   3.461 -0.3099 -0.8884  0.1861
   324G12c C002 5807   4.072   5.679   3.582 -0.9353  1.3231  0.5443
   324G12c C001 5808   4.040   5.680   3.720  1.9101  1.0480  1.4302
   324G12c C00M 5809   3.941   5.604   3.783  0.7331  1.5202  0.1423
   324G12c C00L 5810   3.814   5.579   3.736 -0.4484  1.3531 -0.8540
   324G12c C00R 5811   3.729   5.458   3.766 -1.7004 -0.8410 -0.2448
   324G12c C00Q 5812   3.744   5.348   3.856  0.6402  0.1122 -0.2346
   324G12c C00V 5813   3.631   5.247   3.841  1.5138  0.7830  0.0669
   324G12c C00U 5814   3.548   5.227   3.732 -0.0967 -1.4250  2.3495
   324G12c C00T 5815   3.563   5.318   3.623 -0.3053  0.2473  1.9813
   324G12c C016 5816   3.535   5.293   3.492  0.4376 -0.2714 -0.0493
   324G12c C015 5817   3.463   5.171   3.479  1.0630 -0.1824  0.8348
   324G12c C010 5818   3.431   5.079   3.590  0.2238 -0.3521  0.6434
   324G12c C011 5819   3.363   4.960   3.556  1.5475 -0.5004 -1.8634
   324G12c H005 5820   3.343   4.882   3.628  4.7187 -0.3048 -0.6865
   324G12c C012 5821   3.299   4.932   3.427  0.3271  2.6422 -1.3467
   324G12c C017 5822   3.230   4.807   3.406  1.3240  0.8739  1.4710
   324G12c O002 5823   3.285   4.686   3.424 -1.5681  1.6708 -0.2003
   324G12c H004 5824   3.237   4.615   3.383  0.3627  3.5098 -6.0900
   324G12c C018 5825   3.096   4.826   3.373  1.3630  2.3975  1.3396
   324G12c O001 5826   3.012   4.721   3.320 -0.5039 -0.1548  1.3613
   324G12c H003 5827   2.920   4.740   3.312 -1.3285 -2.0216  5.0577
   324G12c C019 5828   3.016   4.956   3.380 -0.2688 -0.6150 -0.4795
   324G12c H002 5829   3.071   5.014   3.454 -1.6017 -1.8888  1.5497
   324G12c H001 5830   3.042   4.973   3.275  5.9076  2.0594  1.2592
   324G12c O000 5831   2.890   4.905   3.403  1.3750  0.6238  0.7635
   324G12c C01A 5832   2.788   4.980   3.469 -0.7669  1.4598 -1.0865
   324G12c C02K 5833   2.765   5.120   3.457 -0.1674  0.0940  1.5024
   324G12c O00G 5834   2.840   5.178   3.359  0.8927 -0.7834 -0.4445
   324G12c C02M 5835   2.780   5.270   3.285 -0.5155 -0.6780 -0.7093
   324G12c H01G 5836   2.759   5.341   3.365  2.9942 -1.6829  1.1658
   324G12c H01F 5837   2.686   5.246   3.235 -1.4038  0.4994  0.3470
   324G12c H01E 5838   2.847   5.331   3.223  1.3626  2.2068  3.8911
   324G12c C02J 5839   2.704   5.183   3.565  0.9500 -0.1931  0.9559
   324G12c H01H 5840   2.701   5.291   3.573 -0.0865 -0.0563 -0.9136
   324G12c C02I 5841   2.652   5.128   3.686  0.0021  0.3604  0.1548
   324G12c C02N 5842   2.616   5.218   3.813  0.2823 -0.1984 -1.3485
   324G12c H01M 5843   2.513   5.243   3.833  1.3021  3.8803 -0.8410
   324G12c C02O 5844   2.700   5.227   3.914 -0.5021 -0.4178 -0.8204
   324G12c H01L 5845   2.665   5.283   3.999  2.4198  3.0116 -1.7600
   324G12c C02P 5846   2.831   5.133   3.907 -1.3016 -1.3771 -1.1358
   324G12c H01K 5847   2.882   5.124   3.811  2.3536 -3.4374  0.8403
   324G12c H01J 5848   2.927   5.154   3.955 -1.8639  4.2475 -2.2469
   324G12c O00H 5849   2.826   4.995   3.929  0.3665  0.1257  2.2553
   324G12c H01I 5850   2.901   4.982   3.985  3.0185  1.5648 -0.8351
   324G12c C02H 5851   2.683   4.997   3.669 -0.3744  1.3899 -1.1668
   324G12c H01C 5852   2.683   4.925   3.750 -3.3187 -6.7899 -7.7061
   324G12c C02L 5853   2.705   4.917   3.558 -1.0726  0.5703 -0.1815
   324G12c H01D 5854   2.667   4.816   3.551 -2.4067  1.2523 -6.6471
   324G12c C013 5855   3.311   5.040   3.336 -0.4333 -1.1588 -0.5746
   324G12c H000 5856   3.243   5.015   3.256 -2.3237  0.4494  0.4882
   324G12c C014 5857   3.395   5.152   3.355  0.2055  0.2880  0.2114
   324G12c C00F 5858   3.446   5.235   3.241  0.6533  0.1926 -0.5165
   324G12c C00H 5859   3.574   5.378   3.387 -0.2876 -0.8321 -1.5562
   324G12c C00I 5860   3.650   5.497   3.411 -0.3075  1.2445 -1.1741
   324G12c C00J 5861   3.684   5.509   3.542 -0.2604  0.8397 -1.6894
   324G12c C00Z 5862   3.474   5.109   3.718  0.4358 -0.1680 -0.3785
   324G12c C00Y 5863   3.451   5.032   3.829 -1.1303  0.9679 -0.5255
   324G12c H006 5864   3.378   4.953   3.816  0.5676 -0.6310 -0.4922
   324G12c C00X 5865   3.522   5.069   3.952  0.1600 -0.3600  0.8119
   324G12c O003 5866   3.487   5.016   4.074  1.1007  1.0023  0.8430
   324G12c C01B 5867   3.358   5.055   4.145 -2.1296  0.4515  0.7511
   324G12c H009 5868   3.348   4.969   4.211 -1.0370 -1.9759 -2.1144
   324G12c H008 5869   3.265   5.059   4.087  0.2589  9.9941 -3.5413
   324G12c H007 5870   3.370   5.146   4.204 -1.8578  0.2709  0.9722
   324G12c C00W 5871   3.617   5.168   3.952 -1.8697 -0.2883 -1.1605
   324G12c O004 5872   3.669   5.213   4.066  0.3908 -0.3034 -0.9038
   324G12c C01C 5873   3.791   5.244   4.050  0.3848  0.7849  0.3279
   324G12c H00A 5874   3.860   5.199   4.120  0.1394  2.2287  1.5259
   324G12c C00P 5875   3.837   5.349   3.968 -1.2494  0.8268 -0.0425
   324G12c C00O 5876   3.971   5.400   3.953 -0.5289 -0.8526  1.6509
   324G12c C01D 5877   4.080   5.352   4.039 -1.1912 -0.8649 -0.6710
   324G12c H00S 5878   4.066   5.280   4.118  0.2460 -2.9704 -2.2884
   324G12c C01E 5879   4.208   5.365   4.008  1.6792  0.1644 -0.6815
   324G12c O008 5880   4.303   5.301   4.086 -0.7696 -0.5456 -0.4467
   324G12c C01V 5881   4.376   5.200   4.035 -2.2526 -0.1925 -0.9492
   324G12c C01Z 5882   4.502   5.202   4.091  0.0367  0.3570 -0.1147
   324G12c H00R 5883   4.548   5.161   4.001 -0.5246 -5.4033  2.0357
   324G12c H00Q 5884   4.550   5.289   4.138 -3.8607  0.2423  4.3983
   324G12c O009 5885   4.535   5.115   4.198  0.3272 -1.2982 -1.5639
   324G12c H00P 5886   4.543   5.158   4.282 -5.8034 -1.8233 -0.5162
   324G12c C01W 5887   4.330   5.109   3.946 -0.1126 -0.6615  1.6212
   324G12c H00O 5888   4.223   5.113   3.938  0.1377  0.3544 -2.2261
   324G12c C01X 5889   4.420   4.989   3.876 -0.9745 -0.6783  0.3018
   324G12c H00N 5890   4.421   5.020   3.772 -0.0560 -1.1412  0.1606
   324G12c H00M 5891   4.523   4.991   3.913 -1.7827  0.2117  2.5631
   324G12c C01Y 5892   4.363   4.842   3.895 -1.4487 -0.4621 -0.4000
   324G12c C02D 5893   4.459   4.743   3.894  1.5211 -0.5239  0.5670
   324G12c H019 5894   4.564   4.769   3.892  0.7497  2.8541 -0.8711
   324G12c C02C 5895   4.411   4.609   3.874 -0.2125 -0.1869 -1.0899
   324G12c H01A 5896   4.471   4.521   3.861 -1.0876 -0.8927 -0.3598
   324G12c C02B 5897   4.276   4.586   3.843 -0.9778  1.1502  0.4746
   324G12c O00E 5898   4.235   4.467   3.799 -1.1356 -0.5199 -1.6199
   324G12c H01B 5899   4.286   4.390   3.816 -0.0404 -0.1134 -2.9407
   324G12c C02F 5900   4.184   4.688   3.872 -0.9897 -0.7480 -0.4403
   324G12c O00F 5901   4.059   4.647   3.856 -2.1231  0.0621 -0.9613
   324G12c C02G 5902   3.960   4.697   3.913  0.0468 -0.6280  2.2036
   324G12c H017 5903   3.964   4.802   3.886  5.2080 -1.3976 -0.8281
   324G12c H016 5904   3.876   4.637   3.880  1.5235 -1.1908 -0.7077
   324G12c H015 5905   3.988   4.684   4.018  1.6865 -0.0694  1.8568
   324G12c C02E 5906   4.227   4.805   3.913  1.1444  0.5123 -1.5790
   324G12c H018 5907   4.169   4.895   3.922 -4.5299 -2.8022 -2.3458
   324G12c C01F 5908   4.257   5.451   3.893  2.3035  1.0883 -0.1942
   324G12c C01G 5909   4.384   5.463   3.823 -0.9350  1.0792 -0.2138
   324G12c H00L 5910   4.470   5.397   3.823 -3.0903 -1.8517  0.9008
   324G12c C01H 5911   4.374   5.571   3.725  0.5527 -2.3757 -0.4322
   324G12c H00B 5912   4.470   5.601   3.686  0.4543  0.7735  1.5695
   324G12c C01I 5913   4.268   5.661   3.697 -1.9766  0.2775  1.1682
   324G12c C01U 5914   4.141   5.534   3.850  0.0260 -1.1008  0.8577
   324G12c C00S 5915   3.638   5.440   3.656 -0.4016  2.0375  0.5317
   324G12c C00K 5916   3.791   5.597   3.589  2.7092  0.4059 -0.6283
   324G12c C00N 5917   4.006   5.501   3.867 -1.0946 -0.5718 -0.2162
   324G12c C000 5918   4.159   5.650   3.775  0.3559  0.8030 -0.1483
   324G12c C01J 5919   4.212   5.691   3.571  0.8453  1.2361  0.3941
   324G12c C01K 5920   4.299   5.726   3.442  0.0252  1.5950 -0.0386
   324G12c C01P 5921   4.427   5.799   3.424 -0.1151  0.3328  2.0436
   324G12c C01Q 5922   4.479   5.862   3.526  1.8289  0.2524 -0.5872
   324G12c H00G 5923   4.480   5.802   3.615  0.4106 -4.3429 -3.5059
   324G12c C01R 5924   4.529   5.985   3.506  0.2528 -0.6635 -0.8408
   324G12c H00F 5925   4.547   6.021   3.406  4.5204 -4.0842 -1.4669
   324G12c C01S 5926   4.578   6.053   3.623 -0.1548 -0.0958 -1.3534
   324G12c H00E 5927   4.636   6.136   3.583 -3.4647  1.7624 -2.4077
   324G12c H00D 5928   4.489   6.069   3.682 -2.3821 -5.4685 -2.9165
   324G12c O005 5929   4.667   5.942   3.677  0.6819 -0.3021 -1.6963
   324G12c H00C 5930   4.604   5.882   3.714  0.8232 -1.4513 -3.2485
   324G12c C01O 5931   4.460   5.815   3.282 -0.4347  0.6333 -1.5109
   324G12c H00H 5932   4.559   5.859   3.276  0.6265 -1.1814  1.7596
   324G12c C01N 5933   4.408   5.749   3.180  0.8086 -2.3891  1.9690
   324G12c O006 5934   4.458   5.740   3.051 -0.6981 -0.0138  0.7173
   324G12c C01T 5935   4.439   5.868   2.969  0.1661 -0.4381 -1.3030
   324G12c H00K 5936   4.357   5.876   2.897 -2.5307  2.2611  1.8741
   324G12c H00J 5937   4.411   5.934   3.051 -3.3788 -3.7849  0.3641
   324G12c H00I 5938   4.527   5.919   2.931 -0.4090  1.7418  0.1936
   324G12c C01M 5939   4.273   5.706   3.198 -0.3095 -0.6463 -1.4167
   324G12c C020 5940   3.865   5.643   3.468  0.6686 -1.5295 -0.0712
   324G12c C021 5941   3.803   5.633   3.339 -0.6237  1.8242  0.0132
   324G12c C01L 5942   4.219   5.693   3.329  0.7682 -0.3823  0.6207
   324G12c O007 5943   4.203   5.676   3.080 -1.1754  0.4411 -1.2384
   324G12c C022 5944   3.872   5.632   3.227  0.7461 -0.4746 -0.0223
   324G12c C023 5945   3.671   5.590   3.307  0.0745 -1.5152 -0.2859
   324G12c C00G 5946   3.538   5.347   3.259 -0.1801 -0.9213 -0.1244
   324G12c C00E 5947   3.428   5.187   3.099 -1.1686 -0.3311 -0.7253
   324G12c O00A 5948   3.371   5.070   3.062  0.4339 -0.5400 -0.4308
   324G12c C024 5949   3.452   4.964   3.084 -0.8936 -1.3647 -0.4613
   324G12c H00V 5950   3.529   4.962   3.006  1.3126 -2.7749  1.6888
   324G12c H00U 5951   3.389   4.878   3.059 -0.6191 -1.3797 -1.1200
   324G12c H00T 5952   3.517   4.965   3.171 -2.3039  3.7786  0.6741
   334G12c C00D 5953   7.095   5.714   9.077  0.0434 -0.9630 -0.8631
   334G12c O00B 5954   7.090   5.768   9.214 -1.9887  0.7922  0.3726
   334G12c C025 5955   7.009   5.872   9.247  0.7185  0.9118  2.3280
   334G12c C026 5956   6.878   5.826   9.323  0.0937  0.2164  0.0852
   334G12c H00Y 5957   6.865   5.867   9.424  0.6925 -3.8232  1.8905
   334G12c H00X 5958   6.901   5.720   9.331 -0.6878  0.3095  6.1345
   334G12c O00C 5959   6.762   5.817   9.231  0.3874 -0.3368 -0.5420
   334G12c H00W 5960   6.724   5.734   9.256 -5.7395  1.3824 -3.1570
   334G12c C027 5961   7.040   6.000   9.208  0.5970 -1.2635 -0.8644
   334G12c O00D 5962   7.147   6.012   9.124  0.1119 -0.5110 -0.7392
   334G12c H00Z 5963   7.142   5.919   9.136 -5.6270  0.0321  3.3089
   334G12c C028 5964   6.963   6.122   9.240 -0.5943  0.8509 -2.1506
   334G12c C029 5965   7.018   6.251   9.232  1.0582 -0.6391 -2.7440
   334G12c H010 5966   7.125   6.241   9.243  0.9376  1.1789  0.9308
   334G12c C02T 5967   6.969   6.370   9.279  1.3114  0.9849 -0.9104
   334G12c H01O 5968   7.025   6.447   9.228  1.4918  4.6215  4.4130
   334G12c C02S 5969   6.836   6.366   9.316 -0.4636 -0.5005  0.5242
   334G12c O00J 5970   6.757   6.477   9.350  1.1771  2.2844  1.6006
   334G12c H01P 5971   6.663   6.473   9.340  1.4585  3.9137 -3.1955
   334G12c C02R 5972   6.754   6.242   9.317  0.6329  0.5743 -1.1936
   334G12c O00I 5973   6.625   6.247   9.357  0.2779  0.2026  0.0031
   334G12c C02Q 5974   6.547   6.117   9.372  1.1242 -2.5239  0.0971
   334G12c H01N 5975   6.588   6.059   9.455 -0.3507 -5.0378 -0.8872
   334G12c H01R 5976   6.546   6.044   9.292  0.7264 -3.3434  0.8383
   334G12c H01Q 5977   6.450   6.145   9.412 -0.5441 -1.6974 -4.2815
   334G12c C02A 5978   6.824   6.132   9.265  1.2170  0.9604 -1.0521
   334G12c H011 5979   6.754   6.057   9.229  3.2202 -2.8775  2.5313
   334G12c C00C 5980   7.226   5.727   9.018  1.2107  0.8255  0.4025
   334G12c H012 5981   7.291   5.787   9.080  2.4204  4.8037 -4.4082
   334G12c C00B 5982   7.228   5.672   8.881 -0.1564  0.1592 -1.7582
   334G12c C00A 5983   7.353   5.672   8.808 -1.1013 -0.5408  1.0044
   334G12c C009 5984   7.452   5.784   8.812  0.0423 -0.2711  1.4271
   334G12c C008 5985   7.426   5.917   8.865  1.4250  0.5120 -0.9841
   334G12c H013 5986   7.380   5.925   8.963  3.0700 -4.1107  0.3044
   334G12c C007 5987   7.477   6.027   8.797 -0.7515  0.2889 -0.1731
   334G12c H014 5988   7.454   6.127   8.832  1.5000  0.2803  1.4537
   334G12c C006 5989   7.550   6.016   8.692 -0.2619 -0.1366 -0.3125
   334G12c C005 5990   7.571   5.895   8.628  0.9032  0.3546  0.1258
   334G12c C004 5991   7.585   5.886   8.496  0.1943  0.3799  0.8502
   334G12c C003 5992   7.546   5.769   8.418  0.2583 -0.4397 -0.2357
   334G12c C002 5993   7.573   5.769   8.267  0.9756 -0.8576  1.4902
   334G12c C001 5994   7.530   5.683   8.162 -1.1869  0.8240  0.2043
   334G12c C00M 5995   7.390   5.650   8.165 -1.1488  1.8582  0.5798
   334G12c C00L 5996   7.326   5.596   8.278 -0.2132  0.1108  0.6267
   334G12c C00R 5997   7.183   5.557   8.288 -1.3836  0.0758 -0.9724
   334G12c C00Q 5998   7.065   5.595   8.216  0.0166  0.9045  1.3631
   334G12c C00V 5999   6.938   5.568   8.279 -0.3342 -1.1842 -0.0623
   334G12c C00U 6000   6.919   5.535   8.406 -0.5745  2.3618  0.3606
   334G12c C00T 6001   7.027   5.507   8.479  0.2570  0.0699 -0.7837
   334G12c C016 6002   7.023   5.530   8.611  0.4837 -0.1037  0.6667
   334G12c C015 6003   6.904   5.514   8.679 -1.3545  2.0822  0.7393
   334G12c C010 6004   6.784   5.489   8.609 -1.2532  0.5323  0.4593
   334G12c C011 6005   6.670   5.455   8.681 -0.7484  0.6203  0.0775
   334G12c H005 6006   6.584   5.431   8.621 -1.5856 -0.1503  1.5363
   334G12c C012 6007   6.684   5.402   8.806 -0.1132 -0.1268 -0.5200
   334G12c C017 6008   6.603   5.301   8.840 -0.9609  0.9367  0.0067
   334G12c O002 6009   6.603   5.166   8.789  0.2377  0.1181 -0.5871
   334G12c H004 6010   6.586   5.149   8.698 -0.5473  1.1277 -0.6447
   334G12c C018 6011   6.532   5.302   8.950  0.4434 -0.4415 -2.6428
   334G12c O001 6012   6.517   5.418   9.027  1.1430  1.1938  0.1155
   334G12c H003 6013   6.452   5.366   9.072 -2.1471  0.8507 -4.6321
   334G12c C019 6014   6.452   5.180   9.015  0.4011  1.4867  1.2281
   334G12c H002 6015   6.345   5.176   8.993  0.9088 -7.3262 -1.2917
   334G12c H001 6016   6.512   5.090   9.008 -4.5585 -2.4208  5.0665
   334G12c O000 6017   6.475   5.200   9.149 -0.0625 -0.0788  1.3003
   334G12c C01A 6018   6.451   5.086   9.235 -0.1350 -0.9320  1.1211
   334G12c C02K 6019   6.559   5.007   9.282 -1.6965 -2.1453 -0.0449
   334G12c O00G 6020   6.676   5.081   9.281 -0.6254  0.1313  0.0465
   334G12c C02M 6021   6.733   5.101   9.416 -0.2072 -1.1452  1.0909
   334G12c H01G 6022   6.768   5.010   9.467  4.0964 -1.5055 -2.2960
   334G12c H01F 6023   6.652   5.135   9.481  1.8276  4.6231  0.8810
   334G12c H01E 6024   6.811   5.176   9.429 -0.7881 -1.1282  5.2673
   334G12c C02J 6025   6.533   4.894   9.367  0.4507 -1.1366  1.5236
   334G12c H01H 6026   6.616   4.866   9.429  1.0509  0.0078  1.2510
   334G12c C02I 6027   6.406   4.836   9.377  2.4146 -0.5465 -2.5217
   334G12c C02N 6028   6.383   4.712   9.468  0.4344 -0.4458 -2.1058
   334G12c H01M 6029   6.448   4.674   9.546 -1.0566 -1.9115 -1.5311
   334G12c C02O 6030   6.290   4.609   9.418 -0.7718 -0.5173  0.8228
   334G12c H01L 6031   6.328   4.533   9.486 -5.8768 -2.2116  1.9546
   334G12c C02P 6032   6.236   4.563   9.301 -1.8949 -0.0165 -0.7611
   334G12c H01K 6033   6.296   4.630   9.239 -2.5651 -4.0927 -6.1546
   334G12c H01J 6034   6.254   4.463   9.262 -0.9779 -0.4362  0.7262
   334G12c O00H 6035   6.091   4.572   9.309 -0.6890 -0.2699  1.0550
   334G12c H01I 6036   6.065   4.494   9.262  2.9894  0.6156 -2.8033
   334G12c C02H 6037   6.295   4.907   9.315 -0.0581  1.4453  0.8869
   334G12c H01C 6038   6.189   4.885   9.315 -0.1182  1.7426  0.9752
   334G12c C02L 6039   6.318   5.025   9.240  0.9431  0.3216 -0.4226
   334G12c H01D 6040   6.224   5.062   9.202 -3.7319 -5.3882  4.5980
   334G12c C013 6041   6.792   5.460   8.887 -0.8720 -0.5520 -0.8752
   334G12c H000 6042   6.783   5.464   8.995 -2.2246  1.5627 -1.0327
   334G12c C014 6043   6.904   5.515   8.819  1.1707  0.2281 -1.6961
   334G12c C00F 6044   7.009   5.575   8.885 -0.5017 -0.9498  0.0405
   334G12c C00H 6045   7.145   5.562   8.680 -0.6891 -0.1560 -0.9444
   334G12c C00I 6046   7.270   5.556   8.624  1.2257  2.2279 -2.2681
   334G12c C00J 6047   7.267   5.549   8.488  1.2124  1.9031  0.3043
   334G12c C00Z 6048   6.790   5.514   8.470 -1.2160 -0.7866  1.6234
   334G12c C00Y 6049   6.675   5.505   8.376 -0.3181  0.0559 -0.8347
   334G12c H006 6050   6.578   5.468   8.403  0.3505 -0.9197  0.2988
   334G12c C00X 6051   6.684   5.535   8.241  0.4601 -1.4009 -2.0098
   334G12c O003 6052   6.580   5.513   8.164  0.5572  0.0930 -2.0490
   334G12c C01B 6053   6.578   5.505   8.029  1.4407  1.7723  0.4622
   334G12c H009 6054   6.553   5.590   7.967 -1.7140  0.0276 -0.7559
   334G12c H008 6055   6.527   5.413   7.999  1.7597  0.9951  2.2045
   334G12c H007 6056   6.676   5.472   7.993  0.1672  0.7386 -2.1023
   334G12c C00W 6057   6.816   5.573   8.197  0.8719  0.7886 -0.1783
   334G12c O004 6058   6.807   5.638   8.077  0.6336  1.2008  0.9541
   334G12c C01C 6059   6.929   5.702   8.040  1.0260  0.6567  0.1116
   334G12c H00A 6060   6.922   5.733   7.937 -2.4410  0.2551  0.1635
   334G12c C00P 6061   7.063   5.654   8.088 -0.0796 -0.9553  0.5926
   334G12c C00O 6062   7.186   5.705   8.027 -0.3563 -0.8065 -2.0188
   334G12c C01D 6063   7.174   5.765   7.899 -0.9907  0.3932 -1.5105
   334G12c H00S 6064   7.078   5.758   7.850 -4.5583 -2.5627  5.2743
   334G12c C01E 6065   7.272   5.844   7.834 -0.6948 -1.2397  1.6560
   334G12c O008 6066   7.260   5.928   7.720 -0.2730 -0.0598 -0.3273
   334G12c C01V 6067   7.134   5.996   7.699 -0.9895  2.5810  0.9287
   334G12c C01Z 6068   7.032   5.926   7.611 -0.7876  0.9902  0.6623
   334G12c H00R 6069   6.963   5.888   7.686  1.2003 -4.5849 -0.1551
   334G12c H00Q 6070   6.977   6.001   7.555 -0.1807  2.0547  1.4646
   334G12c O009 6071   7.099   5.838   7.509 -0.4503 -0.5558 -0.4679
   334G12c H00P 6072   7.193   5.839   7.504 -0.6289 -0.1242 -5.9709
   334G12c C01W 6073   7.136   6.133   7.720 -0.1361 -1.5953 -0.2121
   334G12c H00O 6074   7.218   6.185   7.767 -2.1196  4.1135 -2.6720
   334G12c C01X 6075   7.010   6.210   7.693  0.2109 -0.4990 -0.8401
   334G12c H00N 6076   6.943   6.153   7.757  1.4098  0.3503  1.2373
   334G12c H00M 6077   7.011   6.299   7.756 -2.6741 -4.5779  5.4736
   334G12c C01Y 6078   7.025   6.255   7.556 -2.0699 -0.6448  0.3591
   334G12c C02D 6079   6.922   6.252   7.464  0.7075 -0.6337  0.2549
   334G12c H019 6080   6.828   6.228   7.512  1.7624  0.4953  3.0101
   334G12c C02C 6081   6.926   6.320   7.331 -1.2872 -1.5299  0.8087
   334G12c H01A 6082   6.844   6.328   7.261 -3.8634  3.2842  4.1393
   334G12c C02B 6083   7.057   6.393   7.308 -0.4339 -0.5863 -0.0186
   334G12c O00E 6084   7.071   6.446   7.178 -0.0899 -0.0166  0.8137
   334G12c H01B 6085   7.154   6.409   7.154 -1.7873 -4.2537  1.1175
   334G12c C02F 6086   7.161   6.383   7.402 -0.5645  1.6373  0.1999
   334G12c O00F 6087   7.270   6.460   7.367 -0.0584 -0.5155 -0.1144
   334G12c C02G 6088   7.257   6.596   7.399  0.2070 -1.1366 -0.2789
   334G12c H017 6089   7.152   6.609   7.425  0.3996  1.8111 -0.7990
   334G12c H016 6090   7.297   6.636   7.305  3.3764  3.6421  2.9011
   334G12c H015 6091   7.319   6.600   7.488  6.3726  1.0942 -4.2698
   334G12c C02E 6092   7.145   6.329   7.523  0.1454 -0.4116  0.2105
   334G12c H018 6093   7.216   6.339   7.604  2.7131  3.4321 -2.3756
   334G12c C01F 6094   7.388   5.863   7.886  0.9708  0.3688 -0.1140
   334G12c C01G 6095   7.493   5.960   7.881 -0.9047 -0.6752 -1.9046
   334G12c H00L 6096   7.487   6.029   7.798 -0.8303 -2.4403 -3.4083
   334G12c C01H 6097   7.604   5.976   7.981  0.0619  1.1194  0.2935
   334G12c H00B 6098   7.670   6.060   7.962 -2.6899  2.3430 -4.8644
   334G12c C01I 6099   7.608   5.875   8.073  0.4069  0.2580 -1.1467
   334G12c C01U 6100   7.423   5.776   7.976 -0.6202  0.3934 -1.6904
   334G12c C00S 6101   7.151   5.503   8.420 -0.9636  1.5713 -0.8219
   334G12c C00K 6102   7.377   5.587   8.403  0.4372 -1.0391 -0.4119
   334G12c C00N 6103   7.325   5.722   8.061 -0.0011 -0.5081  0.3984
   334G12c C000 6104   7.544   5.768   8.042 -0.4599 -0.9212 -0.4169
   334G12c C01J 6105   7.645   5.883   8.216 -0.3953 -1.0380  0.8813
   334G12c C01K 6106   7.677   5.995   8.296  0.1290  0.0321  0.2788
   334G12c C01P 6107   7.766   6.099   8.255 -0.6249 -0.7581 -0.0125
   334G12c C01Q 6108   7.856   6.074   8.142  2.2296  0.6491 -0.2568
   334G12c H00G 6109   7.931   6.006   8.106  1.5906  0.2989 -0.9450
   334G12c C01R 6110   7.864   6.170   8.048  0.7684 -1.0513  0.6796
   334G12c H00F 6111   7.811   6.261   8.067  2.0246  0.4178 -2.5258
   334G12c C01S 6112   7.945   6.161   7.915  0.7116 -0.4610 -1.3533
   334G12c H00E 6113   7.947   6.259   7.867 -1.5869 -1.1053 -2.8286
   334G12c H00D 6114   8.030   6.153   7.982  2.7828  3.7538 -3.2601
   334G12c O005 6115   7.904   6.057   7.840  1.2754 -0.4655 -0.1536
   334G12c H00C 6116   7.979   6.024   7.794  4.1846  3.1360  1.7070
   334G12c C01O 6117   7.743   6.224   8.324 -0.1638  1.1957  1.6325
   334G12c H00H 6118   7.770   6.313   8.269 -5.0639  0.5092 -2.1814
   334G12c C01N 6119   7.697   6.240   8.466  0.3869 -0.4818 -1.3361
   334G12c O006 6120   7.694   6.363   8.539 -2.0960  0.4230  0.4230
   334G12c C01T 6121   7.648   6.487   8.476  2.2084  0.6023 -1.5090
   334G12c H00K 6122   7.688   6.581   8.511 -2.6324  0.4451  5.4149
   334G12c H00J 6123   7.543   6.513   8.489  0.6527 -5.5495  0.0986
   334G12c H00I 6124   7.676   6.482   8.371  0.7180 -0.1813 -1.8858
   334G12c C01M 6125   7.648   6.125   8.509  0.1364 -0.1178 -0.1854
   334G12c C020 6126   7.467   5.665   8.476 -1.8714 -1.1119  0.6111
   334G12c C021 6127   7.489   5.654   8.623  0.4220 -0.2321 -0.4315
   334G12c C01L 6128   7.632   5.997   8.435  0.6697 -1.3687  1.5095
   334G12c O007 6129   7.569   6.123   8.625 -0.4899  0.1547 -0.0408
   334G12c C022 6130   7.526   5.766   8.690  1.1236  0.5138  0.3789
   334G12c C023 6131   7.378   5.590   8.699 -0.6231  1.0618  0.6486
   334G12c C00G 6132   7.125   5.605   8.815  0.3254 -1.3085 -0.5687
   334G12c C00E 6133   7.000   5.630   9.020 -0.9050 -1.8404  0.4207
   334G12c O00A 6134   6.922   5.561   9.116 -0.9490  0.1258  0.5090
   334G12c C024 6135   7.005   5.464   9.211  0.0712  0.7480  0.1154
   334G12c H00V 6136   7.079   5.422   9.143 -0.8417 -4.2378  1.9849
   334G12c H00U 6137   6.947   5.380   9.250  0.9752  0.4276  0.7840
   334G12c H00T 6138   7.035   5.529   9.293 -2.6826 -1.3551  2.9204
   344G12c C00D 6139  12.042  10.849   3.685 -0.3905 -0.6668 -0.2845
   344G12c O00B 6140  12.154  10.839   3.767  0.8496  0.6306  1.6493
   344G12c C025 6141  12.163  10.768   3.876  1.3231 -2.2403 -0.6776
   344G12c C026 6142  12.209  10.639   3.838  0.0075  0.4261 -1.8143
   344G12c H00Y 6143  12.317  10.653   3.836  1.1247 -6.5800 -3.4604
   344G12c H00X 6144  12.196  10.591   3.740 -2.4475  5.9959 -4.4266
   344G12c O00C 6145  12.152  10.541   3.910 -0.0713 -0.6017  0.6305
   344G12c H00W 6146  12.068  10.517   3.875  1.4960 -4.2537 -0.9094
   344G12c C027 6147  12.139  10.838   3.984  0.4362 -1.0481 -0.0962
   344G12c O00D 6148  12.103  10.968   3.985  0.3890 -0.6080  0.4736
   344G12c H00Z 6149  12.062  11.000   3.906  2.2687 -3.3618 -1.7300
   344G12c C028 6150  12.158  10.763   4.104 -0.3101 -0.5280  0.0351
   344G12c C029 6151  12.053  10.690   4.151 -0.6065 -0.8145  0.3939
   344G12c H010 6152  11.969  10.699   4.084  1.4638 -4.9150 -3.0787
   344G12c C02T 6153  12.071  10.587   4.257  1.0632  0.4424 -1.0175
   344G12c H01O 6154  12.017  10.495   4.269  1.6748 -0.0449 -1.9662
   344G12c C02S 6155  12.191  10.610   4.327 -0.7170 -0.2434  0.9242
   344G12c O00J 6156  12.234  10.554   4.442  2.2871 -1.1898 -1.3673
   344G12c H01P 6157  12.304  10.604   4.482  5.0275 -4.4150 -1.9083
   344G12c C02R 6158  12.298  10.698   4.279 -0.7576  1.3511 -1.7332
   344G12c O00I 6159  12.423  10.708   4.351 -1.0437 -0.4444 -0.7466
   344G12c C02Q 6160  12.517  10.596   4.327  0.1262  0.6855  1.9460
   344G12c H01N 6161  12.610  10.638   4.365  1.4253  1.0508 -1.4349
   344G12c H01R 6162  12.575  10.573   4.238 -0.0714 -8.8943  3.8020
   344G12c H01Q 6163  12.492  10.509   4.388 -1.2085 -0.2168  0.1578
   344G12c C02A 6164  12.280  10.772   4.160 -0.1066  1.0393  1.7187
   344G12c H011 6165  12.340  10.849   4.113  2.7894 -1.2301  1.5390
   344G12c C00C 6166  11.913  10.875   3.759 -0.7652 -0.2224 -0.6566
   344G12c H012 6167  11.903  10.831   3.857 -0.3417  2.0305  0.4137
   344G12c C00B 6168  11.796  10.940   3.690  0.3920 -0.2518  1.5637
   344G12c C00A 6169  11.680  11.007   3.749 -0.0129  1.3943  1.1800
   344G12c C009 6170  11.597  10.942   3.848  1.1424 -1.1366  1.1144
   344G12c C008 6171  11.627  10.843   3.951 -0.6678 -0.4128 -0.5861
   344G12c H013 6172  11.732  10.821   3.963  0.2712  0.6984 -5.4459
   344G12c C007 6173  11.522  10.803   4.042  1.8787  1.2619 -0.0911
   344G12c H014 6174  11.561  10.742   4.121 -2.1170  2.4712  3.0158
   344G12c C006 6175  11.387  10.818   3.972 -0.0799  1.0662  1.6685
   344G12c C005 6176  11.354  10.913   3.870  0.1346 -0.4820 -1.8289
   344G12c C004 6177  11.229  10.924   3.801 -0.4438  0.7874 -1.8695
   344G12c C003 6178  11.228  11.000   3.677 -0.4362 -1.8189 -0.3463
   344G12c C002 6179  11.101  11.010   3.621  1.8399  0.6814  0.7273
   344G12c C001 6180  11.062  11.079   3.500 -0.0090  1.1180 -0.8869
   344G12c C00M 6181  11.125  11.047   3.373 -0.3300 -0.9235 -0.5110
   344G12c C00L 6182  11.265  11.059   3.362  0.3018 -0.2134 -0.0748
   344G12c C00R 6183  11.344  11.019   3.261 -0.4022 -1.0969 -0.7511
   344G12c C00Q 6184  11.322  10.955   3.133  0.2573  0.1255 -0.6158
   344G12c C00V 6185  11.427  10.875   3.079  0.7189  1.4163 -0.0128
   344G12c C00U 6186  11.545  10.860   3.142  0.6176  0.2825  0.4178
   344G12c C00T 6187  11.567  10.925   3.253 -1.0262  0.4271 -0.8916
   344G12c C016 6188  11.689  10.918   3.339 -0.1500 -1.0926 -2.0726
   344G12c C015 6189  11.786  10.858   3.271  0.1930  0.2193  0.8195
   344G12c C010 6190  11.761  10.792   3.154 -0.4082  0.3669  0.5157
   344G12c C011 6191  11.875  10.743   3.069  0.9117 -2.2664 -0.9177
   344G12c H005 6192  11.877  10.705   2.968  1.3509 -0.5106 -1.5941
   344G12c C012 6193  11.997  10.796   3.104  0.0054  0.6834 -1.3048
   344G12c C017 6194  12.103  10.842   3.007  0.3121 -0.2329 -0.2095
   344G12c O002 6195  12.081  10.965   2.948  0.8352 -0.8550 -0.8905
   344G12c H004 6196  12.157  10.975   2.893 -2.0475 -2.3965 -5.3877
   344G12c C018 6197  12.206  10.768   2.968 -0.3995  1.6037 -0.2958
   344G12c O001 6198  12.236  10.653   3.040  0.8467 -1.6184  0.1250
   344G12c H003 6199  12.155  10.630   3.082 -1.0109  2.5443 -0.9715
   344G12c C019 6200  12.309  10.809   2.873 -1.0115  0.1950  0.7234
   344G12c H002 6201  12.397  10.858   2.916  2.5929 -6.8363  2.2006
   344G12c H001 6202  12.345  10.714   2.834  3.2849  1.8406  0.3139
   344G12c O000 6203  12.254  10.869   2.781  0.9209 -0.3082  0.5953
   344G12c C01A 6204  12.343  10.945   2.712  0.1984 -0.2714 -0.2813
   344G12c C02K 6205  12.352  11.084   2.766 -0.2075  1.0453  0.7317
   344G12c O00G 6206  12.280  11.121   2.885 -1.2150  0.5604 -0.4666
   344G12c C02M 6207  12.206  11.249   2.868  0.8485 -0.9393  1.1166
   344G12c H01G 6208  12.245  11.347   2.892 -8.9296  5.4742 -5.3637
   344G12c H01F 6209  12.123  11.243   2.939  0.6632  1.9936  1.1926
   344G12c H01E 6210  12.162  11.244   2.768 -5.2953  4.7679  3.1673
   344G12c C02J 6211  12.433  11.164   2.676 -1.4026  0.1476 -1.5609
   344G12c H01H 6212  12.420  11.265   2.711 -5.3630  0.0699 -2.4775
   344G12c C02I 6213  12.493  11.131   2.554 -0.0251 -2.7513 -0.3331
   344G12c C02N 6214  12.588  11.216   2.491 -0.7373 -0.6909 -0.6548
   344G12c H01M 6215  12.606  11.315   2.530 -5.8109  0.3382 -0.5359
   344G12c C02O 6216  12.656  11.196   2.376 -0.2053 -0.9102 -0.7481
   344G12c H01L 6217  12.657  11.117   2.302  2.4826 -2.3018  0.6749
   344G12c C02P 6218  12.769  11.307   2.337  0.9817 -0.8670 -0.7258
   344G12c H01K 6219  12.698  11.389   2.327 -1.5201 -2.7628  1.0495
   344G12c H01J 6220  12.837  11.327   2.419 -1.4213  1.2558  0.8209
   344G12c O00H 6221  12.858  11.274   2.222 -0.2261  0.0590  0.7496
   344G12c H01I 6222  12.837  11.337   2.155 -1.6366 -0.3640  0.7721
   344G12c C02H 6223  12.463  11.010   2.507  1.2974  0.6729 -0.4101
   344G12c H01C 6224  12.529  10.989   2.424  1.6742 -0.9336  0.2782
   344G12c C02L 6225  12.391  10.920   2.579  0.5760  1.7245 -0.6579
   344G12c H01D 6226  12.397  10.829   2.522  1.1780  0.5746  1.2065
   344G12c C013 6227  12.015  10.814   3.245 -0.5590  1.5559  0.1249
   344G12c H000 6228  12.123  10.816   3.245  0.0366 -5.9957  7.7896
   344G12c C014 6229  11.912  10.830   3.345 -0.3281  1.9610  3.0241
   344G12c C00F 6230  11.937  10.881   3.475 -0.0918 -0.9365 -0.2398
   344G12c C00H 6231  11.707  10.983   3.475  1.0615  0.6764 -0.2619
   344G12c C00I 6232  11.586  11.042   3.529 -0.7249 -0.0796  0.0418
   344G12c C00J 6233  11.488  11.073   3.431  0.1947  0.5841  1.4355
   344G12c C00Z 6234  11.638  10.777   3.092  2.6606 -0.2434  0.2845
   344G12c C00Y 6235  11.597  10.688   2.989  0.6712  0.5080  0.5590
   344G12c H006 6236  11.645  10.595   2.963  3.1961  1.8348  0.3410
   344G12c C00X 6237  11.479  10.704   2.924  0.6676 -0.0889  2.1920
   344G12c O003 6238  11.442  10.630   2.819 -0.4443 -0.2584 -0.7884
   344G12c C01B 6239  11.532  10.539   2.732 -0.3214 -0.7250  0.7358
   344G12c H009 6240  11.632  10.527   2.773 -0.8573  1.0153  2.6513
   344G12c H008 6241  11.488  10.439   2.743  0.3134 -0.7261  3.8442
   344G12c H007 6242  11.539  10.587   2.635 -6.9036 -4.7953 -2.1472
   344G12c C00W 6243  11.380  10.786   2.965 -1.8173  0.6330 -1.4617
   344G12c O004 6244  11.283  10.795   2.883  1.3805 -0.6898  0.2572
   344G12c C01C 6245  11.193  10.877   2.936 -1.2043 -1.9089 -1.6938
   344G12c H00A 6246  11.129  10.938   2.875 -1.4593 -1.7205 -1.2415
   344G12c C00P 6247  11.197  10.920   3.074 -0.2777  0.0602  1.4972
   344G12c C00O 6248  11.073  10.928   3.147  2.2541 -0.4014 -0.4042
   344G12c C01D 6249  10.969  10.858   3.098 -1.7432 -1.2596 -0.0908
   344G12c H00S 6250  10.963  10.853   2.991  0.1911  0.0209 -0.2747
   344G12c C01E 6251  10.852  10.824   3.171 -0.7919 -1.8503 -0.8909
   344G12c O008 6252  10.768  10.720   3.134  0.9291 -0.6371  0.0859
   344G12c C01V 6253  10.861  10.615   3.117  1.8003  0.0952 -0.9860
   344G12c C01Z 6254  10.807  10.520   3.023 -0.1887  1.8113  0.1369
   344G12c H00R 6255  10.814  10.411   3.021  4.3522  1.9044  3.1784
   344G12c H00Q 6256  10.707  10.560   3.007 -3.5278 -3.4932  5.5766
   344G12c O009 6257  10.886  10.546   2.912  0.5585 -0.6158  0.1874
   344G12c H00P 6258  10.966  10.499   2.930  0.1169  0.5312  6.2567
   344G12c C01W 6259  10.960  10.574   3.205  0.4903 -0.1650  0.1667
   344G12c H00O 6260  10.981  10.635   3.292 -2.6191  4.2251 -1.9562
   344G12c C01X 6261  11.013  10.435   3.215 -1.0943  0.4302 -0.2069
   344G12c H00N 6262  10.962  10.351   3.168 -1.6704 -2.0612  4.5430
   344G12c H00M 6263  11.118  10.445   3.188  0.5262 -3.5107  3.8552
   344G12c C01Y 6264  10.988  10.410   3.377 -0.8016 -0.9931 -0.1025
   344G12c C02D 6265  10.867  10.449   3.452  0.3541  0.5585 -0.3134
   344G12c H019 6266  10.768  10.445   3.410 -0.7348  0.0931  2.2254
   344G12c C02C 6267  10.866  10.416   3.591 -1.2900  0.1091  0.0277
   344G12c H01A 6268  10.775  10.398   3.646 -1.4974  1.7279  0.2204
   344G12c C02B 6269  10.987  10.382   3.663  0.2485 -0.9341 -0.7414
   344G12c O00E 6270  10.970  10.385   3.794 -0.1720 -1.5460 -1.4991
   344G12c H01B 6271  10.997  10.474   3.808 -0.4883  0.2138 -9.3420
   344G12c C02F 6272  11.111  10.383   3.597  0.6403 -2.1610 -1.4380
   344G12c O00F 6273  11.229  10.411   3.653 -0.3336  0.1474  0.4292
   344G12c C02G 6274  11.294  10.532   3.602 -1.0051  0.3059 -1.1282
   344G12c H017 6275  11.227  10.571   3.525 -1.4275 -1.0011 -1.4352
   344G12c H016 6276  11.384  10.491   3.558  1.4481  1.1972  2.8261
   344G12c H015 6277  11.293  10.592   3.693 -2.3195  3.4397 -3.1314
   344G12c C02E 6278  11.119  10.390   3.454  1.4439 -1.4873 -0.5835
   344G12c H018 6279  11.213  10.367   3.407 -0.3066  0.6778 -5.3816
   344G12c C01F 6280  10.829  10.886   3.297  0.6447  1.0020 -0.1172
   344G12c C01G 6281  10.752  10.838   3.403  0.7068  0.0077  0.0512
   344G12c H00L 6282  10.661  10.813   3.351  7.8364 -3.4339-13.3016
   344G12c C01H 6283  10.770  10.859   3.545 -1.0139  0.3678 -1.2784
   344G12c H00B 6284  10.742  10.773   3.604 -0.2693  1.3092  0.4656
   344G12c C01I 6285  10.874  10.953   3.574 -0.8675 -0.7009  0.1075
   344G12c C01U 6286  10.918  10.979   3.346  0.2100  0.4031  0.4311
   344G12c C00S 6287  11.470  11.036   3.301  0.7573  0.9020 -2.2291
   344G12c C00K 6288  11.354  11.046   3.478  1.1784 -1.0507  2.3932
   344G12c C00N 6289  11.050  10.966   3.280 -0.1346 -1.2811 -0.7767
   344G12c C000 6290  10.925  11.035   3.483 -0.3848  0.2884  0.8389
   344G12c C01J 6291  10.992  10.937   3.666 -0.4884 -1.2860 -0.4872
   344G12c C01K 6292  11.002  10.865   3.798  1.4651  1.5566  0.6742
   344G12c C01P 6293  10.903  10.799   3.871  1.0567 -1.1103  0.1200
   344G12c C01Q 6294  10.754  10.826   3.843 -0.9100  0.1436 -0.5760
   344G12c H00G 6295  10.681  10.758   3.801  1.7565 -2.9797 -0.3801
   344G12c C01R 6296  10.712  10.947   3.881 -1.0102  0.2042  0.8289
   344G12c H00F 6297  10.756  11.022   3.946 -0.9692  0.1206  0.8969
   344G12c C01S 6298  10.569  10.989   3.823 -1.3921  0.4307  0.7625
   344G12c H00E 6299  10.515  10.988   3.918 -3.6021  4.8073 -0.2870
   344G12c H00D 6300  10.567  11.089   3.780 -0.6272  0.9145  1.8320
   344G12c O005 6301  10.528  10.896   3.718  0.1027 -1.0104  0.6762
   344G12c H00C 6302  10.592  10.919   3.652  0.9181 -1.3202  1.3587
   344G12c C01O 6303  10.922  10.713   3.974 -0.3132 -0.6220  0.0413
   344G12c H00H 6304  10.840  10.660   4.020  1.7932 -4.4719 -0.4374
   344G12c C01N 6305  11.049  10.694   4.029  1.0048 -0.2969 -1.9677
   344G12c O006 6306  11.077  10.622   4.141  0.7037 -0.4705 -0.4113
   344G12c C01T 6307  11.052  10.698   4.263 -0.8835 -1.4437 -0.7540
   344G12c H00K 6308  11.150  10.740   4.283 -3.5313  4.2967  0.9998
   344G12c H00J 6309  10.973  10.770   4.285 -1.1126 -1.6387 -0.9200
   344G12c H00I 6310  11.060  10.663   4.366  5.5031  0.7636 -0.2774
   344G12c C01M 6311  11.153  10.777   3.975 -0.2721 -0.9160  0.4326
   344G12c C020 6312  11.347  11.052   3.624 -0.0746 -0.3354 -0.3479
   344G12c C021 6313  11.458  11.069   3.718  0.4345  1.8260  0.8578
   344G12c C01L 6314  11.125  10.861   3.864 -0.4470  0.1807 -0.3672
   344G12c O007 6315  11.280  10.772   4.043  0.7102 -0.8028  1.8400
   344G12c C022 6316  11.466  10.984   3.815 -0.2577  1.4051 -3.0692
   344G12c C023 6317  11.591  11.068   3.665 -0.4769 -0.0656 -1.3664
   344G12c C00G 6318  11.818  10.932   3.551  1.8736  0.9261 -0.2039
   344G12c C00E 6319  12.058  10.844   3.545 -0.4988  0.0122  0.8933
   344G12c O00A 6320  12.167  10.789   3.482  0.1091  0.3771  0.5204
   344G12c C024 6321  12.305  10.832   3.527  0.0636  1.9126 -0.7202
   344G12c H00V 6322  12.364  10.882   3.450 -1.9925  5.7956  0.0533
   344G12c H00U 6323  12.364  10.764   3.588  2.8261  3.3882 -1.6531
   344G12c H00T 6324  12.278  10.924   3.579  2.7867  3.5681 -2.1032
   354G12c C00D 6325   8.943   2.659   1.191  0.8373 -0.3848  0.6433
   354G12c O00B 6326   8.927   2.680   1.325 -0.0350  1.0429  1.0437
   354G12c C025 6327   8.817   2.634   1.391 -0.7880  0.9552 -2.2942
   354G12c C026 6328   8.768   2.749   1.462 -1.1511 -1.5134 -1.4512
   354G12c H00Y 6329   8.791   2.849   1.424  0.1759 -0.6911  1.3597
   354G12c H00X 6330   8.663   2.753   1.433 -1.9398 -1.7485  1.2280
   354G12c O00C 6331   8.794   2.695   1.589  0.3018 -0.0513 -0.9301
   354G12c H00W 6332   8.878   2.674   1.628  0.2662 -3.5693 -2.6058
   354G12c C027 6333   8.755   2.509   1.385 -1.4138 -0.2470  0.8931
   354G12c O00D 6334   8.829   2.402   1.316  0.6491 -1.0053  0.4859
   354G12c H00Z 6335   8.919   2.426   1.331 -0.5514  3.3848  1.3633
   354G12c C028 6336   8.623   2.459   1.434 -0.0877  0.6693 -0.1426
   354G12c C029 6337   8.509   2.501   1.377  0.9846  0.4375 -0.5522
   354G12c H010 6338   8.504   2.567   1.293  1.8105  3.3797  1.6176
   354G12c C02T 6339   8.390   2.415   1.391 -0.5074 -0.7142 -0.5600
   354G12c H01O 6340   8.310   2.420   1.318  3.0069  0.5534 -4.5456
   354G12c C02S 6341   8.397   2.308   1.476 -0.9819 -1.9872  0.3296
   354G12c O00J 6342   8.294   2.225   1.500 -0.8075  0.3657 -2.0512
   354G12c H01P 6343   8.334   2.166   1.562  1.2525 -1.2442 -4.7707
   354G12c C02R 6344   8.509   2.271   1.534  0.3139 -0.3167 -1.9709
   354G12c O00I 6345   8.494   2.162   1.618  2.0874  0.3700 -0.7045
   354G12c C02Q 6346   8.575   2.164   1.726 -2.0026 -0.5564  1.2246
   354G12c H01N 6347   8.679   2.168   1.694 -1.4825  1.4049  3.0179
   354G12c H01R 6348   8.561   2.067   1.774 -2.6463 -1.4536 -0.7317
   354G12c H01Q 6349   8.543   2.244   1.793 -1.2287 -0.1229  1.0889
   354G12c C02A 6350   8.620   2.351   1.513  0.4747  0.2432  0.9728
   354G12c H011 6351   8.722   2.319   1.530  0.4916 -0.4098 -0.2338
   354G12c C00C 6352   8.826   2.623   1.107 -0.4671  1.2281  0.6100
   354G12c H012 6353   8.738   2.580   1.154 -2.0053  2.2862 -1.2667
   354G12c C00B 6354   8.847   2.570   0.985  0.9676  0.2132  0.5199
   354G12c C00A 6355   8.753   2.513   0.888  0.9067 -0.0651  0.4300
   354G12c C009 6356   8.628   2.439   0.911 -0.9343 -0.2720 -0.7412
   354G12c C008 6357   8.551   2.408   1.013 -0.3424  1.7826 -0.8023
   354G12c H013 6358   8.587   2.433   1.112  1.8058 -0.2836 -1.0128
   354G12c C007 6359   8.436   2.311   0.980 -0.9754  0.1820 -2.0457
   354G12c H014 6360   8.381   2.270   1.063  0.3916  2.2344 -0.0546
   354G12c C006 6361   8.427   2.253   0.845  1.1821  1.2503 -0.8623
   354G12c C005 6362   8.500   2.294   0.747 -1.6072 -0.2501 -0.9496
   354G12c C004 6363   8.525   2.225   0.627 -0.7239  1.9700  1.1114
   354G12c C003 6364   8.629   2.249   0.532  0.8417 -0.0729 -0.7754
   354G12c C002 6365   8.671   2.158   0.443 -0.8488 -0.8716  0.8941
   354G12c C001 6366   8.786   2.134   0.365 -0.6294 -1.4659  0.9194
   354G12c C00M 6367   8.917   2.171   0.379 -0.9462  1.2934  0.9570
   354G12c C00L 6368   8.953   2.237   0.484  1.8771 -0.7615 -0.6386
   354G12c C00R 6369   9.080   2.278   0.509  0.7874  0.0389 -0.6918
   354G12c C00Q 6370   9.201   2.235   0.461  1.7520  2.5113  1.0280
   354G12c C00V 6371   9.298   2.315   0.515  0.4372 -0.4652 -0.8158
   354G12c C00U 6372   9.283   2.430   0.599  0.7445  1.0216  0.0934
   354G12c C00T 6373   9.165   2.445   0.656  0.0969 -1.6985  0.7709
   354G12c C016 6374   9.131   2.523   0.752  0.3451 -0.8520  0.7444
   354G12c C015 6375   9.230   2.615   0.802 -0.2304 -0.4939 -0.4409
   354G12c C010 6376   9.357   2.613   0.744 -2.6415 -0.2719 -2.7105
   354G12c C011 6377   9.460   2.712   0.793  0.8471 -0.2652 -0.1146
   354G12c H005 6378   9.559   2.707   0.751 -1.3661 -1.1435 -5.5577
   354G12c C012 6379   9.435   2.784   0.916  1.3991 -0.5090  0.3544
   354G12c C017 6380   9.518   2.881   0.998 -0.4769 -1.0625 -0.5299
   354G12c O002 6381   9.488   2.913   1.134  0.7936  1.3916  1.1805
   354G12c H004 6382   9.399   2.889   1.157  1.0849  0.6020  1.5041
   354G12c C018 6383   9.604   2.963   0.949  1.0822  0.4563  0.0164
   354G12c O001 6384   9.592   2.964   0.813  0.3180  0.5170  0.1202
   354G12c H003 6385   9.600   2.875   0.780 -3.0765 -1.4015  4.0418
   354G12c C019 6386   9.724   3.037   1.022  1.8543 -0.5311 -0.9263
   354G12c H002 6387   9.726   3.145   1.014  5.3650 -0.4786 -0.1435
   354G12c H001 6388   9.790   2.999   0.944 -0.2364  3.8132 -5.0612
   354G12c O000 6389   9.759   3.012   1.159 -1.1306 -1.1517 -0.3978
   354G12c C01A 6390   9.894   3.024   1.192 -1.0163 -1.1000 -0.1763
   354G12c C02K 6391   9.975   2.941   1.123 -0.7256 -1.2912  2.3189
   354G12c O00G 6392   9.949   2.834   1.050 -0.2036  0.2412 -0.6834
   354G12c C02M 6393   9.947   2.705   1.108 -0.2721 -1.5555  0.9766
   354G12c H01G 6394   9.997   2.632   1.044  1.5682 -0.9003  1.6330
   354G12c H01F 6395   9.841   2.679   1.107 -0.9751  1.1399 -1.3320
   354G12c H01E 6396  10.018   2.706   1.191 -4.2080  2.9329  4.6107
   354G12c C02J 6397  10.111   2.941   1.131  0.7881 -0.0204 -0.6409
   354G12c H01H 6398  10.182   2.879   1.079 -3.4210 -6.1523  0.4741
   354G12c C02I 6399  10.169   3.037   1.233 -2.6518  0.7918  0.2189
   354G12c C02N 6400  10.305   3.023   1.225 -1.1369  0.7965  0.4053
   354G12c H01M 6401  10.351   2.926   1.231  1.5251  1.7435 -2.5776
   354G12c C02O 6402  10.369   3.131   1.225  1.3268 -0.1059  0.4328
   354G12c H01L 6403  10.309   3.221   1.229 -0.2583 -1.1675  0.8563
   354G12c C02P 6404  10.515   3.119   1.207 -0.3389 -0.2660  2.0187
   354G12c H01K 6405  10.552   3.026   1.250  1.6833  2.3696  6.4059
   354G12c H01J 6406  10.515   3.134   1.099 -4.1823  0.8981  2.0685
   354G12c O00H 6407  10.568   3.235   1.266  0.9954  0.4236 -1.3632
   354G12c H01I 6408  10.628   3.211   1.334 -4.7820  0.2018  4.1507
   354G12c C02H 6409  10.085   3.133   1.301  0.6504  1.8088 -1.3439
   354G12c H01C 6410  10.095   3.200   1.385  3.8092  2.3099 -2.0612
   354G12c C02L 6411   9.955   3.129   1.268  0.0882 -0.6643 -0.0533
   354G12c H01D 6412   9.895   3.196   1.329  2.3558 -0.9779  2.5826
   354G12c C013 6413   9.298   2.780   0.968 -1.8943 -0.3305  0.7809
   354G12c H000 6414   9.268   2.844   1.050 -0.2415 -0.1408  1.2491
   354G12c C014 6415   9.189   2.696   0.912  0.8532 -0.3588 -0.5191
   354G12c C00F 6416   9.075   2.670   0.992  0.1424 -1.7458 -0.3239
   354G12c C00H 6417   8.993   2.550   0.792 -0.2878  0.3797  1.0057
   354G12c C00I 6418   8.900   2.504   0.705 -0.8792 -1.1611 -0.3628
   354G12c C00J 6419   8.942   2.421   0.600 -0.5290  0.1503  0.1951
   354G12c C00Z 6420   9.388   2.507   0.646 -0.2803  0.4276 -1.8444
   354G12c C00Y 6421   9.513   2.516   0.566 -0.7139  1.0199 -0.0129
   354G12c H006 6422   9.588   2.593   0.564  6.0801 -5.0523 -1.4933
   354G12c C00X 6423   9.527   2.410   0.465 -0.0134 -2.3329  0.2997
   354G12c O003 6424   9.626   2.429   0.394  0.4058 -0.1354 -0.5650
   354G12c C01B 6425   9.746   2.368   0.437  1.6675  0.7014  0.4483
   354G12c H009 6426   9.837   2.419   0.405  1.2051  1.1271 -0.2103
   354G12c H008 6427   9.776   2.264   0.429 -0.5576  0.2853 -4.8614
   354G12c H007 6428   9.746   2.397   0.542  2.0879 -2.1926  1.2759
   354G12c C00W 6429   9.433   2.304   0.457 -0.8183 -1.0152 -2.3793
   354G12c O004 6430   9.446   2.217   0.338  0.6102  0.4658  0.3844
   354G12c C01C 6431   9.384   2.107   0.354  0.0726  1.1461  1.6481
   354G12c H00A 6432   9.442   2.016   0.363 -2.2517 -0.8325 -2.0674
   354G12c C00P 6433   9.237   2.129   0.364 -0.3724  1.0772 -0.8300
   354G12c C00O 6434   9.141   2.031   0.325  0.6011 -1.2323  1.8481
   354G12c C01D 6435   9.167   1.899   0.288 -0.9494  0.9737  2.1440
   354G12c H00S 6436   9.267   1.861   0.273 -1.7666 -0.9360  1.2585
   354G12c C01E 6437   9.067   1.792   0.279  0.1559  0.5594  0.8609
   354G12c O008 6438   9.116   1.663   0.251  0.0121 -0.5901  0.5705
   354G12c C01V 6439   9.030   1.563   0.219 -1.0884  1.9100 -1.0050
   354G12c C01Z 6440   9.102   1.454   0.268 -0.5288  1.5698  0.7015
   354G12c H00R 6441   9.051   1.385   0.200 -1.7183  5.3141 -2.4248
   354G12c H00Q 6442   9.207   1.428   0.252 -0.6996  2.3498 -2.0902
   354G12c O009 6443   9.060   1.442   0.393 -1.2907  1.0165  1.2339
   354G12c H00P 6444   9.076   1.364   0.444  2.7300  1.3801  0.7021
   354G12c C01W 6445   8.956   1.569   0.103 -0.4123 -0.6166  1.3725
   354G12c H00O 6446   8.918   1.668   0.086 -0.7639 -0.4213  3.2724
   354G12c C01X 6447   8.906   1.463   0.002  0.1233 -1.2027  0.3157
   354G12c H00N 6448   8.848   1.510  -0.078 -3.2494 -1.9336  2.2327
   354G12c H00M 6449   8.992   1.402  -0.023  0.1116 -1.3541  0.6502
   354G12c C01Y 6450   8.791   1.372   0.036 -0.5771 -0.2211  0.1665
   354G12c C02D 6451   8.746   1.291  -0.066 -1.6253  1.4024 -0.1279
   354G12c H019 6452   8.778   1.315  -0.166 -5.2580  0.4561 -1.6164
   354G12c C02C 6453   8.666   1.178  -0.034 -1.7593  1.4508  0.6941
   354G12c H01A 6454   8.613   1.108  -0.097  2.4763  0.1299 -1.5156
   354G12c C02B 6455   8.622   1.166   0.102 -2.2239 -0.5527 -0.9273
   354G12c O00E 6456   8.547   1.058   0.118  0.4400  0.3216 -1.3590
   354G12c H01B 6457   8.576   1.022   0.200  2.3359  1.1153 -1.6554
   354G12c C02F 6458   8.654   1.255   0.203 -0.8028 -1.1046 -0.7806
   354G12c O00F 6459   8.660   1.211   0.340 -1.6266  0.0022 -0.1222
   354G12c C02G 6460   8.651   1.317   0.423  0.6677 -0.7808  0.3654
   354G12c H017 6461   8.757   1.319   0.450 -0.4567  2.2286  4.9845
   354G12c H016 6462   8.604   1.300   0.519 -0.1374  1.2596  0.3368
   354G12c H015 6463   8.598   1.405   0.387  0.7786 -0.6595  0.5034
   354G12c C02E 6464   8.744   1.348   0.165 -0.5342  1.4636 -1.3843
   354G12c H018 6465   8.789   1.413   0.239  0.8856 -1.4374  0.4084
   354G12c C01F 6466   8.928   1.836   0.302  0.6421  0.2750 -0.1580
   354G12c C01G 6467   8.817   1.750   0.329  0.0208  0.2454 -0.0140
   354G12c H00L 6468   8.833   1.644   0.340 -3.5555 -0.5119 -1.4194
   354G12c C01H 6469   8.680   1.795   0.340  1.2332 -1.7643  0.6959
   354G12c H00B 6470   8.626   1.704   0.360 -1.4583 -0.9770 -2.5785
   354G12c C01I 6471   8.651   1.941   0.332 -0.0949  0.6094 -0.0266
   354G12c C01U 6472   8.903   1.977   0.281  0.0826  0.2994  1.5629
   354G12c C00S 6473   9.068   2.390   0.577 -0.5289 -0.3536 -0.4863
   354G12c C00K 6474   8.861   2.330   0.534 -0.2163 -0.3014  1.0262
   354G12c C00N 6475   9.002   2.060   0.320 -0.2753 -0.4299  0.4910
   354G12c C000 6476   8.764   2.020   0.290 -0.0761 -0.2822  0.6090
   354G12c C01J 6477   8.582   2.031   0.421  1.0054 -1.2775  1.8654
   354G12c C01K 6478   8.473   2.005   0.509  1.6113 -1.2142  0.2421
   354G12c C01P 6479   8.377   1.894   0.502 -1.8276 -0.2168  1.2097
   354G12c C01Q 6480   8.397   1.793   0.410 -1.0558 -0.4089 -1.1590
   354G12c H00G 6481   8.440   1.704   0.454  1.0589  3.0269  4.2201
   354G12c C01R 6482   8.336   1.803   0.292  0.2568  0.1018  0.3271
   354G12c H00F 6483   8.273   1.887   0.267  1.0325 -1.0822 -6.3611
   354G12c C01S 6484   8.362   1.688   0.194 -0.2286 -0.1364 -0.5780
   354G12c H00E 6485   8.470   1.691   0.181  0.1155 -6.7341 -0.9211
   354G12c H00D 6486   8.347   1.601   0.258  6.6048 -1.9352 -1.0740
   354G12c O005 6487   8.272   1.694   0.084  1.7588 -0.5116 -0.3903
   354G12c H00C 6488   8.179   1.687   0.093  1.4545  3.1518  0.2092
   354G12c C01O 6489   8.288   1.853   0.611  1.8879  0.2454  0.5804
   354G12c H00H 6490   8.257   1.752   0.634  6.8937 -1.4800  0.3935
   354G12c C01N 6491   8.282   1.959   0.710 -0.2894 -0.1604  0.7595
   354G12c O006 6492   8.228   1.924   0.820 -2.4738  0.8699  0.5468
   354G12c C01T 6493   8.302   1.838   0.905  0.9092  1.5343 -1.1536
   354G12c H00K 6494   8.309   1.738   0.863 -3.4754  2.3835 -4.2630
   354G12c H00J 6495   8.268   1.810   1.005 -2.6959  4.8707 -1.3105
   354G12c H00I 6496   8.406   1.868   0.905  1.8356 -1.4280 -3.7176
   354G12c C01M 6497   8.351   2.086   0.702  0.3663  0.7431 -1.1707
   354G12c C020 6498   8.723   2.358   0.562  0.0663 -0.0936  0.5905
   354G12c C021 6499   8.693   2.440   0.670  1.6019  1.9107 -1.0753
   354G12c C01L 6500   8.459   2.102   0.604 -0.5234  1.1316  0.5025
   354G12c O007 6501   8.332   2.156   0.822  0.9080 -0.5077  0.6680
   354G12c C022 6502   8.613   2.386   0.776  0.4938 -0.1232 -1.8826
   354G12c C023 6503   8.779   2.511   0.754 -2.3346  1.1839  0.0921
   354G12c C00G 6504   8.971   2.605   0.918 -0.2811 -0.4884  0.9425
   354G12c C00E 6505   9.071   2.683   1.128  0.5006 -1.3538  0.0439
   354G12c O00A 6506   9.166   2.747   1.218 -0.4060  0.7811 -0.2488
   354G12c C024 6507   9.271   2.657   1.265 -1.9239 -0.7230  0.5802
   354G12c H00V 6508   9.347   2.726   1.302  2.4084 -3.1125 -3.3642
   354G12c H00U 6509   9.332   2.605   1.191 -0.0804 -7.9911  6.5847
   354G12c H00T 6510   9.209   2.589   1.324  0.3457 -3.8390 -0.5280
   364G12c C00D 6511   9.350   4.545   9.785 -0.1206 -2.5255 -2.0635
   364G12c O00B 6512   9.482   4.511   9.803 -1.0428  0.6610 -0.4218
   364G12c C025 6513   9.522   4.388   9.865 -0.0528 -0.1316 -1.1588
   364G12c C026 6514   9.539   4.266   9.767 -0.7258  0.2517  0.4773
   364G12c H00Y 6515   9.444   4.240   9.721 -2.0472 -6.3111  5.9222
   364G12c H00X 6516   9.582   4.182   9.824 -2.9112 -2.8226 -2.2310
   364G12c O00C 6517   9.608   4.296   9.659  2.0071  1.0247 -0.2008
   364G12c H00W 6518   9.636   4.387   9.660 -5.5785  3.7787  3.2777
   364G12c C027 6519   9.564   4.402   9.996  0.8442  0.2335  0.0011
   364G12c O00D 6520   9.642   4.323  10.068 -0.2673 -1.9747  0.4014
   364G12c H00Z 6521   9.684   4.365  10.141 -1.4424 -2.1474  1.1946
   364G12c C028 6522   9.513   4.517  10.083  0.9294 -1.0365 -0.8020
   364G12c C029 6523   9.464   4.469  10.205 -0.9646 -2.9729 -0.2411
   364G12c H010 6524   9.470   4.365  10.231  1.1654 -2.9998 -0.7436
   364G12c C02T 6525   9.386   4.569  10.290  0.1292 -0.3911  1.7565
   364G12c H01O 6526   9.371   4.530  10.390 -1.8007  3.1852  2.9478
   364G12c C02S 6527   9.404   4.712  10.261  1.1606 -0.3329 -0.2783
   364G12c O00J 6528   9.353   4.803  10.347 -0.5726  1.1753  0.5168
   364G12c H01P 6529   9.375   4.891  10.319  1.5952  0.3209 -0.5524
   364G12c C02R 6530   9.459   4.763  10.153 -1.3304  0.4900  1.0222
   364G12c O00I 6531   9.444   4.898  10.128  0.2636 -1.3932  0.9507
   364G12c C02Q 6532   9.563   4.955  10.055  0.1312  0.2160 -0.0690
   364G12c H01N 6533   9.640   4.973  10.130 -0.3297  2.4168 -0.0693
   364G12c H01R 6534   9.534   5.059  10.038 -5.8817 -0.1686  5.4776
   364G12c H01Q 6535   9.607   4.937   9.958  6.0627  6.9745  0.9376
   364G12c C02A 6536   9.523   4.662  10.063 -1.4908  1.4573  0.2129
   364G12c H011 6537   9.586   4.712   9.991 -0.7003  1.1742  0.6973
   364G12c C00C 6538   9.256   4.464   9.836  1.4283  1.8524 -0.0515
   364G12c H012 6539   9.281   4.408   9.926  0.4024 -1.2972 -1.6748
   364G12c C00B 6540   9.117   4.455   9.802 -0.1279 -0.1638  0.0329
   364G12c C00A 6541   9.023   4.371   9.868 -1.4809 -1.2040 -0.1954
   364G12c C009 6542   9.025   4.228   9.855  1.0632 -0.0858  1.9907
   364G12c C008 6543   9.124   4.166   9.787  1.4768 -0.1601 -0.2845
   364G12c H013 6544   9.218   4.192   9.835  1.4681  7.4957 -3.7429
   364G12c C007 6545   9.096   4.054   9.696 -1.5484 -0.5479  0.4941
   364G12c H014 6546   9.190   4.009   9.666 -0.3675  2.7512 -0.9800
   364G12c C006 6547   8.958   3.998   9.693 -0.9151 -1.2415  0.3223
   364G12c C005 6548   8.878   4.087   9.755  0.9593  0.2823  0.9039
   364G12c C004 6549   8.733   4.079   9.720  1.3879  2.1810 -0.6935
   364G12c C003 6550   8.645   4.186   9.729 -0.5659 -1.4021 -0.4437
   364G12c C002 6551   8.517   4.186   9.664  0.1634  0.5843  0.4257
   364G12c C001 6552   8.393   4.274   9.657 -0.0191  0.1023 -1.6956
   364G12c C00M 6553   8.405   4.411   9.624 -0.7999 -0.7084 -0.6757
   364G12c C00L 6554   8.501   4.495   9.661 -0.7125 -1.2537 -0.9326
   364G12c C00R 6555   8.547   4.616   9.603 -1.1567 -0.5125  0.3578
   364G12c C00Q 6556   8.506   4.697   9.485  0.9373  1.9563  0.5065
   364G12c C00V 6557   8.586   4.807   9.469 -0.6281 -0.3182  0.1239
   364G12c C00U 6558   8.721   4.816   9.522 -0.0046 -0.3363 -0.1629
   364G12c C00T 6559   8.769   4.740   9.629  0.0730  1.4281 -0.2425
   364G12c C016 6560   8.896   4.708   9.641 -1.2247 -1.2274 -0.3309
   364G12c C015 6561   8.984   4.807   9.612 -0.0244 -1.7994 -2.0427
   364G12c C010 6562   8.945   4.923   9.531  0.9958  3.0343  0.1708
   364G12c C011 6563   9.031   5.041   9.513  0.0747 -0.1487  0.0192
   364G12c H005 6564   8.998   5.114   9.442 -0.1878 -4.1209 -4.1707
   364G12c C012 6565   9.167   5.043   9.562 -0.8978  1.0901 -1.8537
   364G12c C017 6566   9.251   5.162   9.555  0.8606  1.3959 -0.5678
   364G12c O002 6567   9.164   5.269   9.549 -0.5916 -1.7948 -1.2750
   364G12c H004 6568   9.073   5.245   9.544 -0.3579 -2.1004 -7.8671
   364G12c C018 6569   9.390   5.158   9.553 -1.0333 -2.3911 -1.4918
   364G12c O001 6570   9.457   5.035   9.552  0.1602 -0.3999 -0.1559
   364G12c H003 6571   9.528   5.010   9.608 -0.9273 -1.5073  0.7743
   364G12c C019 6572   9.468   5.293   9.523 -1.8415 -1.9159  0.7291
   364G12c H002 6573   9.382   5.356   9.500 -2.5751 -3.5033 -1.0610
   364G12c H001 6574   9.509   5.354   9.603 -1.8845 -3.0070  1.5923
   364G12c O000 6575   9.515   5.252   9.402 -1.9559  1.6642 -0.1212
   364G12c C01A 6576   9.617   5.318   9.342  0.1803  1.1581 -0.0139
   364G12c C02K 6577   9.650   5.462   9.363 -1.4479 -0.2903 -2.1209
   364G12c O00G 6578   9.565   5.544   9.429  0.5527  0.5336  1.0970
   364G12c C02M 6579   9.428   5.570   9.406 -1.2306 -0.0503  1.7518
   364G12c H01G 6580   9.361   5.500   9.356 -3.4378  3.0435  0.2079
   364G12c H01F 6581   9.397   5.590   9.508 -1.3267 -1.5897  2.0410
   364G12c H01E 6582   9.402   5.660   9.351 -0.5854 -3.2483 -4.2221
   364G12c C02J 6583   9.769   5.512   9.309  0.3839  1.4652 -0.4383
   364G12c H01H 6584   9.763   5.618   9.330  2.9115  0.5162  6.3599
   364G12c C02I 6585   9.845   5.427   9.209  0.5138 -1.2049 -1.2811
   364G12c C02N 6586   9.962   5.506   9.154  0.5417  0.7976  0.6440
   364G12c H01M 6587   9.961   5.613   9.143  2.0243  1.0967  3.1026
   364G12c C02O 6588  10.053   5.449   9.080 -0.0293 -0.6626  1.9499
   364G12c H01L 6589  10.046   5.342   9.088  4.9693 -1.6023 -3.3537
   364G12c C02P 6590  10.154   5.516   9.009  1.1066  0.1253  0.3314
   364G12c H01K 6591  10.188   5.464   8.919 -0.9493 -7.5462  3.5776
   364G12c H01J 6592  10.140   5.624   9.017  1.6103  0.2124  0.0899
   364G12c O00H 6593  10.272   5.482   9.063  0.3610 -0.0669  0.9299
   364G12c H01I 6594  10.331   5.414   9.034 -0.0160  0.2110 -0.5239
   364G12c C02H 6595   9.798   5.296   9.192  0.3793 -0.6179 -0.3892
   364G12c H01C 6596   9.839   5.220   9.127  2.7093  0.6318 -0.4264
   364G12c C02L 6597   9.678   5.243   9.245  1.5608 -1.0155  0.7427
   364G12c H01D 6598   9.640   5.149   9.210  0.5592  0.1666 -1.4250
   364G12c C013 6599   9.194   4.928   9.636  0.4590  0.1291  0.3878
   364G12c H000 6600   9.292   4.941   9.679 -0.7898 -2.0016  4.1716
   364G12c C014 6601   9.111   4.820   9.666 -0.3307  0.4352  0.8522
   364G12c C00F 6602   9.161   4.694   9.706 -0.1547  1.5526  0.4600
   364G12c C00H 6603   8.935   4.598   9.715 -0.2353  1.0000 -1.6763
   364G12c C00I 6604   8.846   4.520   9.775 -0.1106 -0.7998  0.4183
   364G12c C00J 6605   8.712   4.535   9.732 -1.7416  1.0151  0.1875
   364G12c C00Z 6606   8.818   4.919   9.482  0.1426 -0.3483  1.0111
   364G12c C00Y 6607   8.772   5.020   9.404  0.4599  1.9586  1.3991
   364G12c H006 6608   8.821   5.115   9.386  0.8130  2.7567  6.0122
   364G12c C00X 6609   8.634   5.013   9.349 -0.6114  1.2911 -0.0449
   364G12c O003 6610   8.588   5.133   9.294  0.7900  1.3488  1.3452
   364G12c C01B 6611   8.458   5.164   9.317 -0.7873 -1.1419  0.5532
   364G12c H009 6612   8.476   5.271   9.323  1.5708 -1.6118  2.6364
   364G12c H008 6613   8.438   5.118   9.414 -5.5787  1.5042  0.9979
   364G12c H007 6614   8.391   5.135   9.235 -1.2026  3.1922 -0.7875
   364G12c C00W 6615   8.544   4.909   9.381  0.2669  1.0094  0.6168
   364G12c O004 6616   8.437   4.891   9.293 -0.3118  0.2734 -0.4423
   364G12c C01C 6617   8.375   4.775   9.306  0.6255  1.9815 -0.7001
   364G12c H00A 6618   8.322   4.751   9.215  1.5675  2.0448 -1.2690
   364G12c C00P 6619   8.416   4.674   9.395  0.0337  0.7295 -1.4613
   364G12c C00O 6620   8.362   4.536   9.376  0.6721  1.0425 -0.8806
   364G12c C01D 6621   8.320   4.496   9.241 -0.9054 -1.0217 -0.7886
   364G12c H00S 6622   8.324   4.552   9.149  7.4518  5.9679  3.1278
   364G12c C01E 6623   8.280   4.356   9.224 -1.9818 -0.4427  3.4706
   364G12c O008 6624   8.316   4.315   9.097 -0.5952  1.2606  0.1550
   364G12c C01V 6625   8.214   4.356   9.004 -0.7610  0.7952  1.3016
   364G12c C01Z 6626   8.286   4.396   8.887  1.5337 -0.8390  0.0785
   364G12c H00R 6627   8.367   4.326   8.867  8.7337  4.3098  7.6815
   364G12c H00Q 6628   8.249   4.404   8.784  1.5274  1.0143  0.1987
   364G12c O009 6629   8.348   4.524   8.905  0.7997  0.0282 -0.5955
   364G12c H00P 6630   8.301   4.576   8.969  2.1496 -0.1299  0.5322
   364G12c C01W 6631   8.082   4.362   9.013  0.4059 -0.4819 -1.7744
   364G12c H00O 6632   8.021   4.329   9.096  0.4835 -5.8848 -3.7107
   364G12c C01X 6633   8.003   4.412   8.891  1.3373 -0.4224 -1.0319
   364G12c H00N 6634   8.041   4.505   8.847  3.7035  0.0440  1.9112
   364G12c H00M 6635   8.030   4.345   8.809  1.4342 -6.1978  3.4419
   364G12c C01Y 6636   7.863   4.401   8.908 -0.3343  0.6988  0.3453
   364G12c C02D 6637   7.782   4.515   8.886  1.3822  0.0918 -0.2531
   364G12c H019 6638   7.834   4.605   8.854 -3.8862  1.0732 -7.3810
   364G12c C02C 6639   7.652   4.499   8.912  0.8007 -0.9401 -3.1149
   364G12c H01A 6640   7.597   4.593   8.911 -4.2066 -3.6758 -5.0646
   364G12c C02B 6641   7.583   4.379   8.932 -0.8820  0.8758 -0.2426
   364G12c O00E 6642   7.445   4.377   8.928  2.1412 -0.6225  1.1806
   364G12c H01B 6643   7.410   4.428   9.000 -3.6513  1.6073 -2.8288
   364G12c C02F 6644   7.658   4.268   8.949 -0.3354  0.4666  0.2902
   364G12c O00F 6645   7.585   4.165   8.951 -0.8816  0.8130  2.1614
   364G12c C02G 6646   7.631   4.036   9.025 -0.5750  1.0575  0.8044
   364G12c H017 6647   7.733   4.024   8.990 -1.4494  1.3681 -1.9637
   364G12c H016 6648   7.586   3.949   8.979  1.4028  1.6733 -2.4552
   364G12c H015 6649   7.626   4.040   9.134 -2.9306  3.3458  0.6822
   364G12c C02E 6650   7.795   4.273   8.937 -0.4807 -0.2970 -1.8487
   364G12c H018 6651   7.866   4.200   8.902  2.4362  3.4169 -4.0971
   364G12c C01F 6652   8.290   4.255   9.324 -1.0939  1.8076 -0.5387
   364G12c C01G 6653   8.304   4.111   9.292  0.4291  1.3772  2.0104
   364G12c H00L 6654   8.276   4.074   9.195 -5.1080 -3.6468  5.1467
   364G12c C01H 6655   8.340   4.025   9.401  0.0408  1.4758 -0.9890
   364G12c H00B 6656   8.379   3.925   9.391  0.7268  1.9040 -2.8650
   364G12c C01I 6657   8.362   4.083   9.523  1.3094  0.2731  1.2694
   364G12c C01U 6658   8.302   4.296   9.458  0.9905 -0.7891 -0.1388
   364G12c C00S 6659   8.671   4.651   9.669 -0.5734  1.2313  1.2625
   364G12c C00K 6660   8.622   4.436   9.724 -0.6211  0.1340  0.6491
   364G12c C00N 6661   8.375   4.419   9.472  1.0465  0.1769  1.2126
   364G12c C000 6662   8.298   4.208   9.561 -1.5028 -0.1928  0.7062
   364G12c C01J 6663   8.483   4.058   9.598 -0.0145  0.3983 -0.0639
   364G12c C01K 6664   8.562   3.938   9.597 -1.3419  0.1221 -0.0955
   364G12c C01P 6665   8.536   3.802   9.554 -0.0258  0.1644 -0.7988
   364G12c C01Q 6666   8.413   3.745   9.572 -1.1885 -0.4014  0.3378
   364G12c H00G 6667   8.353   3.744   9.482 -1.7837  0.3657  0.7182
   364G12c C01R 6668   8.370   3.681   9.677 -0.4171  0.0673 -0.1328
   364G12c H00F 6669   8.266   3.656   9.661 -0.3217 -0.3785 -0.0501
   364G12c C01S 6670   8.447   3.658   9.799 -1.5016 -0.2372  0.4131
   364G12c H00E 6671   8.533   3.620   9.744 -3.0132 -4.1191  0.5359
   364G12c H00D 6672   8.438   3.755   9.847 -3.1528  2.2516 -4.6331
   364G12c O005 6673   8.382   3.557   9.866  1.0853 -0.2338 -1.2938
   364G12c H00C 6674   8.429   3.519   9.939 -2.2978  0.6549  1.5334
   364G12c C01O 6675   8.645   3.728   9.493  1.5130  3.2086 -2.2440
   364G12c H00H 6676   8.609   3.639   9.443  0.4301  3.5024 -2.0011
   364G12c C01N 6677   8.774   3.782   9.492 -0.6182 -0.8908 -1.2080
   364G12c O006 6678   8.857   3.707   9.418 -0.2478  0.6462  1.8206
   364G12c C01T 6679   8.962   3.760   9.334  0.3724 -0.7410 -1.0569
   364G12c H00K 6680   9.045   3.764   9.404 -2.2868 -0.2150  2.2216
   364G12c H00J 6681   8.915   3.850   9.295  0.0988 -0.4078  0.0335
   364G12c H00I 6682   8.956   3.695   9.247  0.0735 -4.1798  1.4360
   364G12c C01M 6683   8.789   3.891   9.573 -0.2463 -0.7078  0.1384
   364G12c C020 6684   8.695   4.308   9.769 -0.7572 -1.9897  0.6388
   364G12c C021 6685   8.801   4.304   9.848  0.8688 -0.2139 -0.4505
   364G12c C01L 6686   8.700   3.974   9.639  2.0242 -0.5282  1.7616
   364G12c O007 6687   8.919   3.894   9.616  0.8088  0.0018  0.5463
   364G12c C022 6688   8.889   4.197   9.838 -1.3330  0.0269  0.2681
   364G12c C023 6689   8.891   4.407   9.848  3.4730 -0.9518  0.4317
   364G12c C00G 6690   9.078   4.579   9.739  0.0519 -0.5884 -0.6769
   364G12c C00E 6691   9.316   4.653   9.708  0.5422 -0.3276  1.2808
   364G12c O00A 6692   9.422   4.722   9.641 -0.0921  0.1511 -0.3765
   364G12c C024 6693   9.455   4.683   9.500 -0.9994 -0.1835 -0.5921
   364G12c H00V 6694   9.523   4.752   9.449 -3.2632  5.3124  3.3238
   364G12c H00U 6695   9.504   4.594   9.539 -2.0943  1.9158  6.2187
   364G12c H00T 6696   9.367   4.650   9.445 -2.7958  3.6106 -0.1424
   374G12c C00D 6697   8.896  10.461   0.813  0.7562  0.4055 -0.4372
   374G12c O00B 6698   8.910  10.413   0.690 -0.4219  1.1793 -0.6523
   374G12c C025 6699   8.807  10.314   0.651 -0.1661  0.1459  0.6267
   374G12c C026 6700   8.741  10.226   0.767 -0.9553 -0.7246  0.0173
   374G12c H00Y 6701   8.721  10.139   0.704  7.1781 -1.5024 -2.0108
   374G12c H00X 6702   8.663  10.282   0.819  2.8190  0.1783  5.0021
   374G12c O00C 6703   8.832  10.196   0.851  0.9446  1.1457  0.1738
   374G12c H00W 6704   8.919  10.211   0.818  1.9905  0.5854  2.5525
   374G12c C027 6705   8.778  10.296   0.513 -0.8468 -1.4243  0.8802
   374G12c O00D 6706   8.847  10.339   0.413  0.7539  0.4850 -1.1712
   374G12c H00Z 6707   8.864  10.282   0.339  6.2583 -0.5907  0.7277
   374G12c C028 6708   8.672  10.215   0.488  0.4046  1.2983 -0.7259
   374G12c C029 6709   8.706  10.093   0.452 -0.5306  0.5275  0.6376
   374G12c H010 6710   8.806  10.058   0.475  0.6161 -0.8117 -5.5163
   374G12c C02T 6711   8.627  10.016   0.363 -0.0030 -0.6327 -0.3383
   374G12c H01O 6712   8.666   9.924   0.322  2.2469  0.6647 -1.1983
   374G12c C02S 6713   8.490  10.054   0.344 -0.8491 -0.9514 -0.2750
   374G12c O00J 6714   8.414   9.979   0.271  0.5365 -2.5247  1.3686
   374G12c H01P 6715   8.331  10.024   0.264  1.6058 -0.8177 -1.4455
   374G12c C02R 6716   8.436  10.178   0.394  0.4762  1.0330  0.4856
   374G12c O00I 6717   8.295  10.197   0.376  0.6792  2.3579 -0.1680
   374G12c C02Q 6718   8.244  10.325   0.376 -1.1515 -0.2382  0.9872
   374G12c H01N 6719   8.263  10.385   0.288 -3.9541 -2.0620 -0.9313
   374G12c H01R 6720   8.262  10.387   0.464 -1.6078  1.0187  0.1876
   374G12c H01Q 6721   8.140  10.305   0.401 -1.8483 -1.8940 -2.9298
   374G12c C02A 6722   8.532  10.255   0.462  0.3792  0.8985  1.0780
   374G12c H011 6723   8.493  10.347   0.504 -2.4249 -0.0883  0.7208
   374G12c C00C 6724   9.001  10.452   0.899 -0.8032 -1.0415 -0.8311
   374G12c H012 6725   9.086  10.409   0.850  2.5280 -3.0504  6.0359
   374G12c C00B 6726   9.022  10.474   1.023  1.6594  2.1960 -1.2502
   374G12c C00A 6727   9.126  10.468   1.108  0.5068  0.3439 -0.7790
   374G12c C009 6728   9.233  10.368   1.100 -0.6041 -1.3634 -0.5561
   374G12c C008 6729   9.267  10.258   1.011 -0.8062  1.5152  0.4041
   374G12c H013 6730   9.204  10.233   0.927  0.1426  2.4194 -0.5834
   374G12c C007 6731   9.370  10.184   1.076 -0.3027  0.7250 -0.6771
   374G12c H014 6732   9.407  10.098   1.022  0.3085  0.1656  0.6039
   374G12c C006 6733   9.407  10.196   1.212  1.1847  0.7100  1.1346
   374G12c C005 6734   9.370  10.308   1.289 -2.9521 -0.0735  0.4539
   374G12c C004 6735   9.372  10.319   1.430 -1.2120 -0.8242  0.5119
   374G12c C003 6736   9.313  10.419   1.496  0.8653  0.3092 -0.9691
   374G12c C002 6737   9.317  10.408   1.637  0.0186 -0.1491  0.1745
   374G12c C001 6738   9.265  10.492   1.745 -1.0725 -0.3210 -0.5383
   374G12c C00M 6739   9.122  10.535   1.746 -0.1840  2.6387 -0.8394
   374G12c C00L 6740   9.068  10.607   1.643 -1.1532  0.8307 -1.0131
   374G12c C00R 6741   8.922  10.603   1.624  0.3134 -1.7024  0.5579
   374G12c C00Q 6742   8.806  10.563   1.710  2.7228  1.5142  0.6867
   374G12c C00V 6743   8.688  10.574   1.651 -0.3743  0.1577 -0.0977
   374G12c C00U 6744   8.672  10.603   1.513  2.2412 -0.0573 -0.4872
   374G12c C00T 6745   8.774  10.605   1.433 -0.1831 -0.0151  0.6532
   374G12c C016 6746   8.782  10.579   1.299 -1.2969  0.6300  1.9070
   374G12c C015 6747   8.662  10.588   1.229  0.5565 -1.0357 -1.2001
   374G12c C010 6748   8.537  10.590   1.300  1.5131 -0.3445 -1.3768
   374G12c C011 6749   8.417  10.585   1.233 -0.2307  0.0590 -0.1393
   374G12c H005 6750   8.314  10.566   1.258 -0.6359  3.0585  0.6580
   374G12c C012 6751   8.417  10.570   1.096 -0.5424 -1.2975 -1.2436
   374G12c C017 6752   8.296  10.578   1.038 -2.3843 -0.7397 -0.5077
   374G12c O002 6753   8.260  10.695   0.982 -0.8277  0.1035 -1.0787
   374G12c H004 6754   8.167  10.713   0.978 -1.2614 -2.3408 -4.5779
   374G12c C018 6755   8.228  10.465   1.036  1.3388 -0.4403 -0.3625
   374G12c O001 6756   8.109  10.465   0.971  1.1910 -0.1690  0.4220
   374G12c H003 6757   8.132  10.455   0.880 -2.1185 -5.0090 -0.1018
   374G12c C019 6758   8.281  10.332   1.078  0.4991 -0.0103  0.9613
   374G12c H002 6759   8.360  10.328   1.153 -6.0368  3.7009  8.7708
   374G12c H001 6760   8.204  10.264   1.115  1.3066 -5.0386 -5.6880
   374G12c O000 6761   8.283  10.284   0.933  1.1962  0.6513  0.1083
   374G12c C01A 6762   8.261  10.156   0.913 -0.3551 -0.5167 -0.9374
   374G12c C02K 6763   8.291  10.057   1.014  0.3345 -0.0161  0.3996
   374G12c O00G 6764   8.323  10.072   1.150 -0.7376  0.7035  0.6992
   374G12c C02M 6765   8.456  10.035   1.155 -0.0586 -0.3952 -0.9276
   374G12c H01G 6766   8.504  10.119   1.105  1.7666  0.6056  2.3858
   374G12c H01F 6767   8.493   9.933   1.162 -0.4220 -0.7184 -3.3727
   374G12c H01E 6768   8.451  10.066   1.259 -2.2908  0.9413 -1.3934
   374G12c C02J 6769   8.248   9.929   0.960 -0.5555  0.1649 -1.0841
   374G12c H01H 6770   8.243   9.840   1.020  0.1166 -0.0086 -1.2918
   374G12c C02I 6771   8.216   9.886   0.841  0.1772  0.6160  0.7611
   374G12c C02N 6772   8.230   9.744   0.817 -1.2945  0.1597 -0.3511
   374G12c H01M 6773   8.156   9.683   0.868 -1.1210 -0.9615 -1.4170
   374G12c C02O 6774   8.309   9.684   0.723  0.0044  0.2521  0.2579
   374G12c H01L 6775   8.390   9.735   0.674  0.6310 -3.0024 -2.2914
   374G12c C02P 6776   8.316   9.537   0.714  0.6333 -0.8124 -1.6244
   374G12c H01K 6777   8.226   9.520   0.773 -0.3041  9.3878  0.9214
   374G12c H01J 6778   8.255   9.513   0.627 -4.6148 -3.1610  2.4492
   374G12c O00H 6779   8.427   9.464   0.757  1.4469 -0.6380 -1.2266
   374G12c H01I 6780   8.495   9.518   0.795  2.4013 -0.2601 -3.4026
   374G12c C02H 6781   8.219   9.996   0.751 -0.9161  0.8953  1.6092
   374G12c H01C 6782   8.211   9.970   0.646 -2.1368  5.1654  0.5781
   374G12c C02L 6783   8.230  10.131   0.790 -0.4230 -0.7293  0.6113
   374G12c H01D 6784   8.209  10.208   0.717 -1.3292 -1.5652 -0.0232
   374G12c C013 6785   8.532  10.564   1.018 -0.9701  1.0235 -2.3945
   374G12c H000 6786   8.502  10.534   0.918 -0.0771  1.4179 -2.7841
   374G12c C014 6787   8.659  10.566   1.089 -0.0108 -0.1320  0.5897
   374G12c C00F 6788   8.780  10.547   1.020  1.1698  1.6606 -0.7853
   374G12c C00H 6789   8.902  10.557   1.229  0.9167  0.0065  0.6938
   374G12c C00I 6790   9.020  10.577   1.293 -0.7092  2.9243  0.2226
   374G12c C00J 6791   9.023  10.636   1.422 -0.5731  1.1286 -2.0536
   374G12c C00Z 6792   8.542  10.589   1.446  1.1677  0.3447 -0.5694
   374G12c C00Y 6793   8.417  10.579   1.518  1.3753  0.5542  0.3739
   374G12c H006 6794   8.320  10.567   1.473  0.1555 -0.7685  3.1807
   374G12c C00X 6795   8.428  10.581   1.662  0.6410  0.8316  1.5251
   374G12c O003 6796   8.309  10.581   1.746 -2.2884 -0.4422 -0.8225
   374G12c C01B 6797   8.294  10.715   1.746 -1.1054 -0.0923 -0.9515
   374G12c H009 6798   8.192  10.745   1.725  0.3913  6.1742 -0.3957
   374G12c H008 6799   8.347  10.783   1.679  0.2889  7.7695  7.1456
   374G12c H007 6800   8.321  10.746   1.847 -3.5963  0.6038 -0.4823
   374G12c C00W 6801   8.562  10.556   1.725 -0.6827  0.2919  0.5975
   374G12c O004 6802   8.561  10.540   1.868 -0.0540  0.0208  0.1395
   374G12c C01C 6803   8.686  10.522   1.924  0.0434  0.7932  1.4712
   374G12c H00A 6804   8.685  10.536   2.031  2.5895  0.4395  1.5539
   374G12c C00P 6805   8.801  10.523   1.850  0.4317  0.5630  0.8061
   374G12c C00O 6806   8.910  10.452   1.899 -0.5543  0.5237  2.1704
   374G12c C01D 6807   8.883  10.348   2.010  1.2505 -0.0106 -0.0531
   374G12c H00S 6808   8.789  10.357   2.063 -0.9118  3.2866 -4.0698
   374G12c C01E 6809   8.967  10.241   2.034  0.9603 -1.6353 -0.4324
   374G12c O008 6810   8.910  10.127   2.098  0.0237  0.9229  1.4990
   374G12c C01V 6811   8.795  10.047   2.032 -1.1890 -0.2818 -1.1952
   374G12c C01Z 6812   8.658  10.042   2.110 -1.9499  1.9565  1.4497
   374G12c H00R 6813   8.648  10.146   2.140  2.5508  3.0834 -0.4533
   374G12c H00Q 6814   8.568  10.042   2.049 -2.8627  5.9852  2.6073
   374G12c O009 6815   8.639   9.986   2.235  0.9791 -0.0082 -0.4053
   374G12c H00P 6816   8.598   9.902   2.241  6.7735 -2.8492  6.4463
   374G12c C01W 6817   8.806  10.006   1.906  0.5893  1.9396  0.6828
   374G12c H00O 6818   8.906  10.019   1.868  2.7346 -1.6331  4.5590
   374G12c C01X 6819   8.719   9.927   1.803 -0.5077  0.6335 -1.2131
   374G12c H00N 6820   8.719   9.820   1.819 -3.5003  1.2620  4.3655
   374G12c H00M 6821   8.765   9.958   1.709  5.1172  4.2073  2.4228
   374G12c C01Y 6822   8.602  10.010   1.740 -0.1134  0.3415  0.1041
   374G12c C02D 6823   8.596  10.153   1.743  0.5041 -1.7915  0.6444
   374G12c H019 6824   8.633  10.216   1.822 -9.8814  1.1832  3.8339
   374G12c C02C 6825   8.508  10.226   1.647 -0.8732  0.4782  0.3292
   374G12c H01A 6826   8.517  10.327   1.610  4.6587  0.6519  1.7176
   374G12c C02B 6827   8.431  10.154   1.562 -0.0227  2.6341  1.8519
   374G12c O00E 6828   8.345  10.207   1.473  0.4694  0.1367  1.3394
   374G12c H01B 6829   8.274  10.155   1.440  3.3067  0.8685 -6.9560
   374G12c C02F 6830   8.410  10.017   1.590  0.2924 -0.6160  0.4698
   374G12c O00F 6831   8.316   9.946   1.503 -0.2996  0.2285 -0.8781
   374G12c C02G 6832   8.350   9.824   1.420 -1.1905 -1.0601 -0.0900
   374G12c H017 6833   8.459   9.831   1.425 -1.3968  2.9498  0.8219
   374G12c H016 6834   8.350   9.837   1.312  2.1403  0.7067  0.0649
   374G12c H015 6835   8.339   9.724   1.461 -3.7249 -3.0428 -5.2018
   374G12c C02E 6836   8.516   9.941   1.664 -0.9278  0.1066 -0.2199
   374G12c H018 6837   8.548   9.838   1.661 -1.1645 -0.0212  1.4135
   374G12c C01F 6838   9.097  10.251   1.973  0.0532  0.7559 -0.4608
   374G12c C01G 6839   9.197  10.149   1.994  1.4743  0.4189  0.4906
   374G12c H00L 6840   9.200  10.072   2.070  1.4672 -3.2800 -3.0993
   374G12c C01H 6841   9.325  10.178   1.926  0.4539  0.7426  0.4667
   374G12c H00B 6842   9.410  10.115   1.949  0.3545 -0.1645 -1.5767
   374G12c C01I 6843   9.341  10.287   1.840 -0.3814 -0.0600  0.0660
   374G12c C01U 6844   9.139  10.370   1.907 -0.4113  0.7243 -1.3021
   374G12c C00S 6845   8.900  10.627   1.493  0.9362 -1.3225  0.7347
   374G12c C00K 6846   9.121  10.596   1.517 -0.0076 -0.0052  2.3326
   374G12c C00N 6847   9.044  10.455   1.852 -0.0676 -1.4135  0.7604
   374G12c C000 6848   9.273  10.400   1.857 -0.0104  0.0725  1.9830
   374G12c C01J 6849   9.379  10.290   1.694 -1.3192 -0.8774  1.0670
   374G12c C01K 6850   9.471  10.202   1.625  0.0182 -0.7341 -0.6684
   374G12c C01P 6851   9.595  10.136   1.670 -0.5296  1.6849  0.8554
   374G12c C01Q 6852   9.652  10.161   1.810 -1.7679 -1.7724 -1.2354
   374G12c H00G 6853   9.607  10.142   1.906  0.1947 -0.5961 -0.0370
   374G12c C01R 6854   9.784  10.201   1.821  0.2463 -0.4802 -0.9967
   374G12c H00F 6855   9.844  10.197   1.731 -1.0463 -0.5553 -1.8738
   374G12c C01S 6856   9.863  10.226   1.948  0.0875  0.2207 -1.2864
   374G12c H00E 6857   9.858  10.129   1.998  3.1943  0.8571  0.3929
   374G12c H00D 6858   9.961  10.272   1.939  0.2819  1.1198  3.7519
   374G12c O005 6859   9.779  10.319   2.007  0.2719  0.3593 -1.2700
   374G12c H00C 6860   9.688  10.293   2.007  0.1050  0.2976 -8.0432
   374G12c C01O 6861   9.631  10.037   1.590  0.9215  0.3982  0.2580
   374G12c H00H 6862   9.700   9.964   1.632 -2.3667 -2.4598  0.9446
   374G12c C01N 6863   9.606  10.033   1.459 -1.1298  1.1829  1.1794
   374G12c O006 6864   9.650   9.949   1.368  0.7597  0.9032 -0.6708
   374G12c C01T 6865   9.595   9.822   1.371  0.7575  0.0347 -0.8835
   374G12c H00K 6866   9.501   9.812   1.317 -0.3352  4.8616 -0.0335
   374G12c H00J 6867   9.552   9.811   1.471  0.4112 -3.5579 -1.3438
   374G12c H00I 6868   9.664   9.739   1.354  4.0736  1.8750  2.7966
   374G12c C01M 6869   9.525  10.125   1.403 -0.1139  0.3778 -0.5678
   374G12c C020 6870   9.220  10.519   1.442  0.3520  1.0877 -1.4201
   374G12c C021 6871   9.245  10.519   1.295 -0.9373 -1.2369 -1.1981
   374G12c C01L 6872   9.455  10.220   1.484 -0.1875 -0.7864 -1.3271
   374G12c O007 6873   9.514  10.115   1.259 -1.7546 -0.8991  0.4276
   374G12c C022 6874   9.284  10.409   1.229  0.1379  0.3570 -0.7802
   374G12c C023 6875   9.131  10.540   1.221  0.5486 -0.0558  0.3481
   374G12c C00G 6876   8.902  10.520   1.093  0.1491  0.8389  0.1349
   374G12c C00E 6877   8.784  10.521   0.875  0.7881 -0.8102  0.4293
   374G12c O00A 6878   8.691  10.581   0.781  0.5944 -1.0692 -0.4737
   374G12c C024 6879   8.692  10.725   0.757  0.9288 -0.3255  1.0591
   374G12c H00V 6880   8.588  10.751   0.736  1.1849 -1.0803 -1.2727
   374G12c H00U 6881   8.723  10.777   0.667  9.0196 -4.0961  1.2371
   374G12c H00T 6882   8.709  10.766   0.857 -0.8840  0.7730  0.9522
   384G12c C00D 6883   1.950   8.218   3.235  1.0601 -0.7582  2.4198
   384G12c O00B 6884   1.885   8.094   3.183  0.1074  0.9683  0.4950
   384G12c C025 6885   1.745   8.068   3.177  0.2129 -0.8547  0.2251
   384G12c C026 6886   1.711   7.926   3.232 -1.0712 -0.6836 -2.1081
   384G12c H00Y 6887   1.797   7.868   3.200  1.6846 -1.7486  6.0644
   384G12c H00X 6888   1.622   7.864   3.220 -5.1821  3.1881  4.9145
   384G12c O00C 6889   1.742   7.959   3.373 -0.5593 -0.3327 -0.6625
   384G12c H00W 6890   1.821   7.926   3.414 -0.9851  3.2564  3.4454
   384G12c C027 6891   1.670   8.159   3.095  1.7627 -2.4279 -0.7248
   384G12c O00D 6892   1.727   8.277   3.042 -0.2301  0.9367 -0.3346
   384G12c H00Z 6893   1.798   8.307   3.097 -0.0177  1.4475 -0.8893
   384G12c C028 6894   1.538   8.123   3.055 -0.4319 -1.0370  0.7783
   384G12c C029 6895   1.492   8.116   2.924  1.6299 -1.7967  0.5862
   384G12c H010 6896   1.548   8.135   2.834 -0.4011  5.8216  0.5879
   384G12c C02T 6897   1.361   8.077   2.896  0.7367 -0.2250 -0.0060
   384G12c H01O 6898   1.318   8.070   2.797  1.4044  3.5667 -0.6421
   384G12c C02S 6899   1.271   8.048   2.993  0.7758  0.5418  0.6289
   384G12c O00J 6900   1.155   7.991   2.937  0.0050  0.7824  0.1133
   384G12c H01P 6901   1.072   8.010   2.979 -0.3630  1.4979 -0.9099
   384G12c C02R 6902   1.306   8.058   3.134 -0.9049  0.1013  0.2568
   384G12c O00I 6903   1.199   8.007   3.194  0.2641 -2.4672 -0.4292
   384G12c C02Q 6904   1.198   8.046   3.342 -0.4706 -0.2030 -0.2023
   384G12c H01N 6905   1.207   8.151   3.370 -4.1443 -0.3735  1.9614
   384G12c H01R 6906   1.249   7.969   3.400  7.8242  4.7385 -0.0203
   384G12c H01Q 6907   1.101   8.011   3.378  0.8157  3.1244  7.6506
   384G12c C02A 6908   1.445   8.099   3.166  0.6777 -0.9082 -0.6636
   384G12c H011 6909   1.507   8.064   3.247  3.5724 -4.5757 -4.2592
   384G12c C00C 6910   1.891   8.287   3.337  0.1194 -0.2035 -0.7956
   384G12c H012 6911   1.806   8.251   3.393 -2.5082  5.9888 -0.3363
   384G12c C00B 6912   1.919   8.423   3.352 -0.9804  0.7198  0.8420
   384G12c C00A 6913   1.855   8.516   3.439  0.6911  0.3819  0.2464
   384G12c C009 6914   1.715   8.549   3.476  1.2419 -1.4653  1.0003
   384G12c C008 6915   1.600   8.500   3.433 -1.0748  2.0252  0.2614
   384G12c H013 6916   1.617   8.408   3.379 -2.8766  3.3318 -2.6532
   384G12c C007 6917   1.491   8.580   3.450  0.5288 -0.2062  0.6283
   384G12c H014 6918   1.391   8.567   3.410 -1.2963  1.9401  4.2702
   384G12c C006 6919   1.482   8.705   3.503  0.6378 -0.5737 -0.3043
   384G12c C005 6920   1.600   8.763   3.525 -0.9256 -0.3402  0.8352
   384G12c C004 6921   1.609   8.903   3.524  0.6297 -0.1370 -0.4010
   384G12c C003 6922   1.740   8.958   3.541  1.9623  0.7200 -1.6121
   384G12c C002 6923   1.763   9.097   3.516  1.8452  1.4676 -0.6704
   384G12c C001 6924   1.868   9.174   3.517  0.5714 -1.3318  0.0518
   384G12c C00M 6925   1.977   9.163   3.430  0.2648  1.1370 -0.7776
   384G12c C00L 6926   2.044   9.057   3.430  0.1206  1.4304  0.1044
   384G12c C00R 6927   2.125   9.028   3.313 -0.2990  0.5894 -0.4964
   384G12c C00Q 6928   2.180   9.106   3.203  0.2397  0.0876 -1.9143
   384G12c C00V 6929   2.285   9.027   3.144 -0.3149 -1.1266  0.8824
   384G12c C00U 6930   2.298   8.884   3.163 -1.1260  1.1187 -1.1249
   384G12c C00T 6931   2.212   8.807   3.239  0.0980  0.0089 -0.3787
   384G12c C016 6932   2.170   8.670   3.215 -3.3628  0.8059 -1.2251
   384G12c C015 6933   2.256   8.591   3.133  0.3789 -0.4198  1.3300
   384G12c C010 6934   2.355   8.661   3.053  0.1219 -0.0507 -0.4477
   384G12c C011 6935   2.421   8.586   2.953 -0.3378  0.3528 -1.3671
   384G12c H005 6936   2.496   8.626   2.887  0.0168 -1.3203 -2.0041
   384G12c C012 6937   2.381   8.449   2.940  1.0345 -0.1016 -1.1445
   384G12c C017 6938   2.431   8.370   2.837 -0.4087  1.2240  0.0650
   384G12c O002 6939   2.359   8.377   2.721 -1.3918  0.8067 -0.0285
   384G12c H004 6940   2.418   8.364   2.648  2.8154  2.3447  2.9435
   384G12c C018 6941   2.541   8.280   2.848  0.6819  0.2016 -0.7201
   384G12c O001 6942   2.606   8.273   2.974 -0.0595 -0.5172 -1.6988
   384G12c H003 6943   2.552   8.232   3.039  3.6045 -3.7453 -0.4996
   384G12c C019 6944   2.591   8.170   2.753  0.5212 -0.8102  0.3168
   384G12c H002 6945   2.661   8.099   2.797  1.6348  2.4555  4.0575
   384G12c H001 6946   2.518   8.105   2.704  1.9708  0.4479 -3.7148
   384G12c O000 6947   2.663   8.248   2.629  0.5528 -0.5061  0.1552
   384G12c C01A 6948   2.798   8.252   2.608 -0.1834 -0.9644  0.0573
   384G12c C02K 6949   2.852   8.182   2.495  0.2584 -0.3702 -0.2460
   384G12c O00G 6950   2.811   8.054   2.453 -0.1540 -0.4958 -0.4432
   384G12c C02M 6951   2.798   7.948   2.551 -1.0677  0.3273 -0.4472
   384G12c H01G 6952   2.705   7.959   2.606 -1.2467  7.3966 -1.6847
   384G12c H01F 6953   2.817   7.844   2.524 -1.5312  1.1274 -4.2384
   384G12c H01E 6954   2.864   7.972   2.634 -0.8574  1.8288 -1.0291
   384G12c C02J 6955   2.989   8.201   2.446  1.9863  0.2334 -0.3665
   384G12c H01H 6956   3.025   8.139   2.365  2.0928  2.2751 -1.9246
   384G12c C02I 6957   3.065   8.288   2.514 -0.2959  0.3364 -1.1484
   384G12c C02N 6958   3.211   8.334   2.485  1.1099 -0.4299 -0.9722
   384G12c H01M 6959   3.235   8.421   2.544 -6.0086  1.0897  0.1794
   384G12c C02O 6960   3.287   8.257   2.404  0.3714  2.1061  1.1818
   384G12c H01L 6961   3.260   8.167   2.351 -0.5644  3.7168 -1.1565
   384G12c C02P 6962   3.449   8.265   2.402 -0.3764  0.9498  0.1555
   384G12c H01K 6963   3.450   8.171   2.348 -2.4196  1.8341 -1.4740
   384G12c H01J 6964   3.481   8.338   2.328  0.6613 -5.9990 -6.9449
   384G12c O00H 6965   3.498   8.285   2.527  0.3525 -1.0862  0.2573
   384G12c H01I 6966   3.442   8.238   2.587 -9.0568  3.4553 -3.9691
   384G12c C02H 6967   3.022   8.331   2.645  0.0892 -0.8187  0.3093
   384G12c H01C 6968   3.093   8.397   2.692  0.7586  1.6928 -3.9615
   384G12c C02L 6969   2.889   8.322   2.680  0.0941  1.1245  0.2260
   384G12c H01D 6970   2.847   8.355   2.774  1.5383  1.4272  0.7789
   384G12c C013 6971   2.286   8.383   3.016  0.6071  0.8287  0.8521
   384G12c H000 6972   2.272   8.284   2.974  2.6145  0.6619  0.5239
   384G12c C014 6973   2.230   8.457   3.126  0.0246  0.4517 -1.7108
   384G12c C00F 6974   2.124   8.397   3.192 -0.4459 -0.4463 -0.3232
   384G12c C00H 6975   2.069   8.617   3.293 -0.0628 -0.3058 -0.6737
   384G12c C00I 6976   2.012   8.699   3.387  0.1664  2.3020 -0.1287
   384G12c C00J 6977   2.066   8.831   3.412  0.3891 -0.4889  0.2183
   384G12c C00Z 6978   2.371   8.806   3.067 -0.7554  0.4711  0.7417
   384G12c C00Y 6979   2.444   8.878   2.973 -0.9973  0.2086  0.5450
   384G12c H006 6980   2.521   8.849   2.902 -2.2364 -1.4290 -0.1482
   384G12c C00X 6981   2.444   9.016   2.958  0.1556 -1.0441  2.2641
   384G12c O003 6982   2.527   9.071   2.854  0.7116 -1.8218 -2.3520
   384G12c C01B 6983   2.592   9.190   2.867  0.9754 -0.9798  1.8404
   384G12c H009 6984   2.609   9.224   2.765  4.6655 -1.0118  2.3603
   384G12c H008 6985   2.675   9.173   2.935 -0.4298 -6.3905  2.4023
   384G12c H007 6986   2.546   9.286   2.893 -7.4068 -4.4461  1.3797
   384G12c C00W 6987   2.351   9.083   3.026  0.9690  0.3419  0.6288
   384G12c O004 6988   2.350   9.217   2.992 -0.6892 -0.6819 -2.4765
   384G12c C01C 6989   2.254   9.295   3.063  2.7696  0.6565 -0.7505
   384G12c H00A 6990   2.261   9.403   3.055 -2.4184  1.3282  1.5384
   384G12c C00P 6991   2.164   9.233   3.161  0.0156 -1.2135 -1.0414
   384G12c C00O 6992   2.055   9.314   3.223  0.7056 -1.3329  1.5876
   384G12c C01D 6993   2.018   9.422   3.127  2.8135 -1.5054  0.8654
   384G12c H00S 6994   2.083   9.481   3.064  1.2200 -7.1994 -6.8880
   384G12c C01E 6995   1.896   9.494   3.148 -1.6382  0.3763  0.9190
   384G12c O008 6996   1.828   9.562   3.051  0.8010  0.2684  0.3281
   384G12c C01V 6997   1.736   9.494   2.965 -0.9738  0.7679 -1.2145
   384G12c C01Z 6998   1.713   9.609   2.851 -0.1786  0.0659 -0.3164
   384G12c H00R 6999   1.616   9.619   2.803 -0.8674  1.6281  1.3377
   384G12c H00Q 7000   1.724   9.706   2.899 -2.4221 -1.9500  4.5844
   384G12c O009 7001   1.789   9.618   2.724  1.2174 -1.0092 -0.7653
   384G12c H00P 7002   1.770   9.702   2.684 -7.6231 -1.5420  1.3117
   384G12c C01W 7003   1.699   9.368   2.966  0.4548 -0.8305 -1.3204
   384G12c H00O 7004   1.762   9.302   3.022  5.1786  5.3389  1.2052
   384G12c C01X 7005   1.639   9.323   2.846  2.4358  0.2506  2.1770
   384G12c H00N 7006   1.674   9.365   2.752 -4.4259 -6.9306 -4.3460
   384G12c H00M 7007   1.683   9.223   2.843  5.0098  1.2493  4.5088
   384G12c C01Y 7008   1.492   9.304   2.861  0.7567 -0.3426 -0.3989
   384G12c C02D 7009   1.402   9.310   2.744 -0.0466  1.7294 -0.2165
   384G12c H019 7010   1.459   9.335   2.655 -0.3408 -2.5247 -1.6906
   384G12c C02C 7011   1.257   9.283   2.746  1.0179  0.5951 -0.6209
   384G12c H01A 7012   1.198   9.264   2.658  1.7075 -0.0838 -0.9352
   384G12c C02B 7013   1.197   9.264   2.876  0.0036 -1.0067  0.8082
   384G12c O00E 7014   1.063   9.275   2.900 -1.4928  0.8213  0.4736
   384G12c H01B 7015   1.059   9.216   2.973  4.4897 -3.9781 -2.5578
   384G12c C02F 7016   1.279   9.248   2.984  0.0291  1.4061  2.7020
   384G12c O00F 7017   1.216   9.196   3.099 -1.0561  0.3978  0.5044
   384G12c C02G 7018   1.196   9.311   3.169  0.2185 -0.0943  0.0139
   384G12c H017 7019   1.214   9.411   3.128 -3.3817  0.3293 -0.7323
   384G12c H016 7020   1.101   9.346   3.212  1.4203  6.3560 -1.9954
   384G12c H015 7021   1.214   9.297   3.276 -4.1223 -1.7602  0.6504
   384G12c C02E 7022   1.430   9.249   2.978  0.8103 -0.6124  0.5622
   384G12c H018 7023   1.476   9.214   3.070  0.7644  0.0328  0.8361
   384G12c C01F 7024   1.823   9.447   3.258 -0.0112  0.0241 -0.4266
   384G12c C01G 7025   1.678   9.477   3.275 -0.2136  2.0257 -0.2654
   384G12c H00L 7026   1.615   9.529   3.205 -1.0261 -0.7119 -1.6415
   384G12c C01H 7027   1.603   9.397   3.365 -0.6572  1.3386 -0.6086
   384G12c H00B 7028   1.499   9.423   3.370 -0.9818 -0.0929  0.5759
   384G12c C01I 7029   1.662   9.292   3.457  0.2078 -1.4706  2.0721
   384G12c C01U 7030   1.877   9.346   3.360 -0.6648 -1.8713 -0.7173
   384G12c C00S 7031   2.156   8.882   3.325  0.6500 -0.8648 -2.0065
   384G12c C00K 7032   1.992   8.930   3.473  2.2189 -1.9141  0.3121
   384G12c C00N 7033   1.982   9.277   3.328 -0.4728  0.1347  1.1749
   384G12c C000 7034   1.809   9.307   3.483 -0.0211  1.3739  0.0199
   384G12c C01J 7035   1.641   9.169   3.508 -0.2954  0.1779 -0.1002
   384G12c C01K 7036   1.496   9.130   3.520  0.0266 -0.2672 -1.4809
   384G12c C01P 7037   1.363   9.189   3.522 -0.2965  0.0334 -2.3666
   384G12c C01Q 7038   1.332   9.328   3.574 -2.1804 -0.0718 -1.3962
   384G12c H00G 7039   1.382   9.412   3.528  5.9314 -2.7451  1.7464
   384G12c C01R 7040   1.266   9.346   3.679  0.5343 -1.0640 -1.2321
   384G12c H00F 7041   1.228   9.263   3.737 -2.3318  2.6156  2.4520
   384G12c C01S 7042   1.250   9.462   3.759  0.4404 -0.4333  1.4923
   384G12c H00E 7043   1.154   9.473   3.809 -1.4893  2.5167 -2.6260
   384G12c H00D 7044   1.301   9.445   3.854 -0.8975  0.1722  2.3440
   384G12c O005 7045   1.321   9.572   3.707  0.4170  0.5554  0.9478
   384G12c H00C 7046   1.381   9.598   3.776  7.2341 -4.6645 -2.3942
   384G12c C01O 7047   1.240   9.119   3.498  0.5427  0.9042  0.1373
   384G12c H00H 7048   1.160   9.191   3.510  4.3955  4.9313  3.4834
   384G12c C01N 7049   1.238   8.974   3.501 -1.6361 -0.8906 -1.9516
   384G12c O006 7050   1.121   8.922   3.528  0.9432  0.5779  0.7261
   384G12c C01T 7051   1.107   8.793   3.600 -0.7994  1.6009 -0.9387
   384G12c H00K 7052   0.999   8.778   3.601 -0.6096  0.0685 -1.1088
   384G12c H00J 7053   1.120   8.826   3.703  3.4649 -3.5280  0.4030
   384G12c H00I 7054   1.150   8.701   3.559 -6.0427 -0.2435 -2.6983
   384G12c C01M 7055   1.362   8.908   3.488  0.4388  1.1024  0.1560
   384G12c C020 7056   1.863   8.876   3.530 -0.3970 -1.5167  0.2679
   384G12c C021 7057   1.836   8.737   3.540 -0.6996  1.4191  0.0875
   384G12c C01L 7058   1.491   8.989   3.514 -1.5763 -0.1625 -0.8629
   384G12c O007 7059   1.363   8.774   3.509  1.2906 -0.8030 -0.5724
   384G12c C022 7060   1.716   8.682   3.531 -0.2944 -0.2049 -1.1625
   384G12c C023 7061   1.921   8.635   3.467 -0.0236  0.0081  0.3285
   384G12c C00G 7062   2.044   8.477   3.280 -0.2105  0.0190 -0.5275
   384G12c C00E 7063   2.086   8.255   3.183  1.2413  0.7990  1.0745
   384G12c O00A 7064   2.156   8.154   3.109  0.1958 -0.8705 -0.6783
   384G12c C024 7065   2.216   8.051   3.174  0.6036 -0.1738  0.4768
   384G12c H00V 7066   2.272   7.975   3.121  0.1544  0.2165 -0.5738
   384G12c H00U 7067   2.145   7.992   3.232 -0.2606 -0.5852 -0.9896
   384G12c H00T 7068   2.274   8.099   3.253 -2.0698  2.8531  0.6951
   394G12c C00D 7069  12.766   7.321  10.716 -0.7912  0.6284  0.6681
   394G12c O00B 7070  12.659   7.248  10.758  0.1356  1.6620 -0.3675
   394G12c C025 7071  12.660   7.148  10.856  2.2056  0.1548 -1.6819
   394G12c C026 7072  12.609   7.181  10.992 -0.8049  0.3646  0.5906
   394G12c H00Y 7073  12.670   7.191  11.081  2.7125 -3.1544 -1.2599
   394G12c H00X 7074  12.529   7.113  11.021 -1.4467 -1.3556 -4.5517
   394G12c O00C 7075  12.538   7.298  10.960 -1.2211  0.6474 -0.3549
   394G12c H00W 7076  12.538   7.330  10.871  2.2213  6.6086  1.5404
   394G12c C027 7077  12.683   7.018  10.833  0.9534 -0.4829 -1.5352
   394G12c O00D 7078  12.661   6.934  10.940  1.3455 -0.0848  1.1029
   394G12c H00Z 7079  12.713   6.976  11.006  2.6059 -1.2248  0.8495
   394G12c C028 7080  12.710   6.971  10.715 -1.0176 -0.7844 -0.0136
   394G12c C029 7081  12.810   6.871  10.710  1.0125  0.1278  0.6785
   394G12c H010 7082  12.889   6.869  10.784  1.5296 -4.2588  0.1452
   394G12c C02T 7083  12.828   6.776  10.597  1.3955 -1.0237  0.6239
   394G12c H01O 7084  12.911   6.707  10.593  0.8026 -1.5895 -4.4526
   394G12c C02S 7085  12.729   6.804  10.490 -0.1977 -1.5478 -0.4205
   394G12c O00J 7086  12.745   6.742  10.377  0.4539  0.6393  0.7937
   394G12c H01P 7087  12.687   6.747  10.303  5.2860  0.1715 -3.3339
   394G12c C02R 7088  12.614   6.883  10.506 -1.2952 -1.0802 -0.3226
   394G12c O00I 7089  12.541   6.914  10.396  0.1444  1.0334 -0.6632
   394G12c C02Q 7090  12.401   6.904  10.426  0.4673 -0.6004  0.2592
   394G12c H01N 7091  12.379   6.800  10.449 -1.0043  0.3631  3.4102
   394G12c H01R 7092  12.340   6.945  10.345 -0.1345  3.6735  2.7156
   394G12c H01Q 7093  12.380   6.953  10.521 -3.1317  6.5513 -3.7325
   394G12c C02A 7094  12.598   6.967  10.623 -0.9799 -0.2595  0.2695
   394G12c H011 7095  12.514   7.028  10.652 -2.8261 -3.3347  1.5712
   394G12c C00C 7096  12.885   7.321  10.792 -0.5751  1.5698  1.3791
   394G12c H012 7097  12.903   7.280  10.891 -2.6784 -3.8502 -0.2785
   394G12c C00B 7098  13.008   7.287  10.723  0.2787  0.0361  1.1568
   394G12c C00A 7099  13.126   7.226  10.790 -0.8293 -2.0745 -1.7516
   394G12c C009 7100  13.165   7.180  10.919  0.3163  1.3765  0.6229
   394G12c C008 7101  13.093   7.194  11.046 -0.4487  0.1627  0.4549
   394G12c H013 7102  12.985   7.191  11.043 -0.5961  3.6914 -0.6622
   394G12c C007 7103  13.174   7.189  11.167 -0.3413  0.7724 -0.9034
   394G12c H014 7104  13.123   7.207  11.260  1.1281 -1.0460  0.3086
   394G12c C006 7105  13.320   7.176  11.160 -1.5194 -0.3289 -0.4762
   394G12c C005 7106  13.377   7.179  11.029  0.4317  1.0701 -0.8696
   394G12c C004 7107  13.506   7.237  11.028  0.3612  0.3641 -1.0335
   394G12c C003 7108  13.559   7.259  10.897  0.8534  1.6575  0.7248
   394G12c C002 7109  13.698   7.285  10.882 -0.1337 -1.7159 -1.3624
   394G12c C001 7110  13.786   7.337  10.771 -0.8540 -1.6712 -0.1959
   394G12c C00M 7111  13.727   7.415  10.678 -1.2492  1.1803  0.6730
   394G12c C00L 7112  13.608   7.387  10.596 -0.0106  0.0321  0.4763
   394G12c C00R 7113  13.533   7.482  10.502  0.3495  1.3728 -1.0023
   394G12c C00Q 7114  13.576   7.617  10.461 -0.1299  1.7432  0.5568
   394G12c C00V 7115  13.471   7.684  10.389  1.1060  0.9284 -0.9386
   394G12c C00U 7116  13.345   7.627  10.368 -0.2071  0.9593  0.2641
   394G12c C00T 7117  13.309   7.502  10.422 -0.4568  1.2637  1.1269
   394G12c C016 7118  13.184   7.472  10.459 -0.0493 -0.2830  0.8288
   394G12c C015 7119  13.072   7.543  10.411 -0.0279  1.4885 -0.5966
   394G12c C010 7120  13.106   7.644  10.315 -0.2734 -0.5040  0.9195
   394G12c C011 7121  13.006   7.692  10.227 -0.2546 -1.6941  1.1907
   394G12c H005 7122  13.034   7.769  10.156 -0.2624 -2.0039  0.8520
   394G12c C012 7123  12.874   7.632  10.224 -0.6154 -0.0882  1.2899
   394G12c C017 7124  12.765   7.686  10.144  0.8912  1.2106  1.9089
   394G12c O002 7125  12.634   7.683  10.173  0.5430 -1.3630 -0.7163
   394G12c H004 7126  12.649   7.672  10.266 -2.0847  0.8401  0.0091
   394G12c C018 7127  12.777   7.747  10.016  0.0686 -1.8596 -1.4393
   394G12c O001 7128  12.897   7.785   9.957  0.2181 -0.9765 -0.1690
   394G12c H003 7129  12.844   7.804   9.881  2.2265 -0.4131 -1.4462
   394G12c C019 7130  12.673   7.807   9.936 -1.0893  1.6714 -1.6432
   394G12c H002 7131  12.609   7.719   9.926 -2.5430  1.7158  5.1605
   394G12c H001 7132  12.621   7.899   9.963 -0.1042  2.3754 -2.1244
   394G12c O000 7133  12.719   7.821   9.792  0.3965  0.0456  0.1216
   394G12c C01A 7134  12.614   7.872   9.719 -0.3844  0.8254 -0.5255
   394G12c C02K 7135  12.664   7.993   9.650 -0.5842  0.4655  2.6825
   394G12c O00G 7136  12.787   8.036   9.685 -2.1801  0.7024  0.3368
   394G12c C02M 7137  12.888   7.949   9.615  0.3767 -0.1676  0.0637
   394G12c H01G 7138  12.828   7.874   9.563 -7.2773  4.2458  1.7752
   394G12c H01F 7139  12.931   8.014   9.538  1.9523 -0.0416  1.0357
   394G12c H01E 7140  12.969   7.922   9.683 -0.7563 -4.3262 -0.1115
   394G12c C02J 7141  12.575   8.064   9.557 -0.8221  0.7911 -1.8649
   394G12c H01H 7142  12.615   8.154   9.513 -3.5056  3.4319  0.9197
   394G12c C02I 7143  12.463   7.989   9.511 -0.8462 -0.7915 -0.9132
   394G12c C02N 7144  12.437   8.046   9.385  0.6611 -2.1222  0.2736
   394G12c H01M 7145  12.506   8.101   9.324  2.8388 -3.3723  1.5539
   394G12c C02O 7146  12.330   8.040   9.320 -0.8120 -1.1746 -0.7560
   394G12c H01L 7147  12.248   7.990   9.369  0.5333 -0.1357  2.6738
   394G12c C02P 7148  12.288   8.091   9.187 -0.1264  0.2724 -0.3097
   394G12c H01K 7149  12.180   8.103   9.198 -0.0183  2.2682 -1.2231
   394G12c H01J 7150  12.327   8.192   9.192 -4.4371  2.2443 -3.6146
   394G12c O00H 7151  12.304   7.992   9.088 -0.3487 -0.7354 -0.4368
   394G12c H01I 7152  12.257   7.922   9.131 -4.1388  2.3565  0.7791
   394G12c C02H 7153  12.421   7.859   9.556  0.8421  0.5818 -0.2040
   394G12c H01C 7154  12.331   7.822   9.509 -2.5754  1.7666  4.9555
   394G12c C02L 7155  12.490   7.810   9.673  0.6013 -0.2615 -1.9618
   394G12c H01D 7156  12.445   7.726   9.724 -0.9771 -1.0284 -4.5313
   394G12c C013 7157  12.857   7.532  10.324  0.5546 -0.2537 -0.5731
   394G12c H000 7158  12.767   7.474  10.307 -1.4582  2.4808  0.2566
   394G12c C014 7159  12.942   7.494  10.431  1.0399 -0.8510  2.0713
   394G12c C00F 7160  12.900   7.400  10.527 -0.7169  1.5947 -1.0820
   394G12c C00H 7161  13.154   7.374  10.560  0.5012 -0.2962 -0.6893
   394G12c C00I 7162  13.268   7.314  10.614 -0.0308 -0.2911 -0.8948
   394G12c C00J 7163  13.404   7.322  10.570 -0.7521  0.2887 -0.0894
   394G12c C00Z 7164  13.244   7.703  10.312  0.0468 -0.7463 -0.8958
   394G12c C00Y 7165  13.265   7.833  10.280 -1.2267 -0.4736  0.0617
   394G12c H006 7166  13.185   7.904  10.264  0.8703  1.5225 -1.9642
   394G12c C00X 7167  13.390   7.890  10.293  1.3406 -1.0962 -1.2104
   394G12c O003 7168  13.404   8.025  10.248 -0.5592 -1.6484  1.0118
   394G12c C01B 7169  13.536   8.064  10.213 -0.8982 -1.4234  0.0850
   394G12c H009 7170  13.599   7.987  10.170  3.1849  2.0805 -0.6224
   394G12c H008 7171  13.543   8.146  10.142  0.2596 -3.2429 -1.9243
   394G12c H007 7172  13.593   8.102  10.298  3.5567 -7.7359  0.2376
   394G12c C00W 7173  13.498   7.813  10.334  1.1772 -0.5497 -0.4144
   394G12c O004 7174  13.626   7.867  10.340  0.8097  0.8977 -1.5606
   394G12c C01C 7175  13.723   7.794  10.413  0.4965 -0.0740  0.1379
   394G12c H00A 7176  13.826   7.806  10.444 -1.0849 -2.4082  7.3437
   394G12c C00P 7177  13.692   7.691  10.501  0.7808 -1.4957  0.5896
   394G12c C00O 7178  13.801   7.667  10.606 -0.7160 -1.1907 -0.0413
   394G12c C01D 7179  13.879   7.780  10.650  0.1858  0.3599  1.9750
   394G12c H00S 7180  13.908   7.880  10.620  5.2346 -1.3952  0.5296
   394G12c C01E 7181  13.934   7.767  10.790  1.0888 -0.0382 -0.8063
   394G12c O008 7182  13.944   7.898  10.841 -1.4366 -1.5322 -0.9421
   394G12c C01V 7183  13.824   7.968  10.887 -0.6568  0.2218 -0.4427
   394G12c C01Z 7184  13.791   8.095  10.813  0.1412 -0.5891  1.9534
   394G12c H00R 7185  13.779   8.162  10.898 -6.5698  4.8161 -2.7042
   394G12c H00Q 7186  13.864   8.088  10.732 -2.2447  2.1761 -0.5501
   394G12c O009 7187  13.672   8.078  10.751  0.7014  0.3955  0.9175
   394G12c H00P 7188  13.615   8.019  10.798 -0.7827  0.0092 -1.2676
   394G12c C01W 7189  13.751   7.913  10.982 -1.4389  0.6884 -0.3959
   394G12c H00O 7190  13.794   7.821  11.018  3.9766  1.5708 -4.0736
   394G12c C01X 7191  13.638   7.964  11.075 -0.8501  0.9914 -1.0957
   394G12c H00N 7192  13.659   7.931  11.177  0.4911 -2.9879 -2.5453
   394G12c H00M 7193  13.655   8.071  11.087  7.5368 -0.3353  3.0169
   394G12c C01Y 7194  13.515   7.875  11.043  1.9524  1.4930  1.5736
   394G12c C02D 7195  13.423   7.899  10.949 -0.2763  0.3426  1.6565
   394G12c H019 7196  13.443   7.972  10.872  1.5788  3.1480  4.6943
   394G12c C02C 7197  13.309   7.812  10.934  0.0402  0.5102 -1.0379
   394G12c H01A 7198  13.234   7.848  10.865 -1.4213 -2.3666 -1.0268
   394G12c C02B 7199  13.296   7.700  11.024 -0.1768 -1.4982 -0.0617
   394G12c O00E 7200  13.185   7.621  11.005  0.7049 -0.8616 -0.8855
   394G12c H01B 7201  13.227   7.544  10.968  0.9249 -0.5767 -1.2330
   394G12c C02F 7202  13.397   7.650  11.116  0.2876 -1.4667 -0.8199
   394G12c O00F 7203  13.367   7.540  11.191  1.8961  0.4164 -0.2894
   394G12c C02G 7204  13.417   7.557  11.327  0.7755  2.7466  1.2362
   394G12c H017 7205  13.341   7.482  11.348  2.5940 -0.2775 -2.5598
   394G12c H016 7206  13.516   7.513  11.330  1.7668  4.7343 -0.7264
   394G12c H015 7207  13.394   7.648  11.383 -8.0548  2.6169 -1.4525
   394G12c C02E 7208  13.501   7.748  11.129 -1.2008 -1.2299  1.0014
   394G12c H018 7209  13.566   7.735  11.214  2.6196 -4.6641 -2.1982
   394G12c C01F 7210  13.954   7.630  10.845 -0.3378  1.1886  1.2024
   394G12c C01G 7211  13.993   7.599  10.975  0.3697  0.5761  1.0961
   394G12c H00L 7212  14.030   7.665  11.052  1.0315  2.7066 -0.9965
   394G12c C01H 7213  13.951   7.470  11.035 -0.0490  1.2520  0.9728
   394G12c H00B 7214  13.956   7.430  11.136  2.1085 -2.2874 -0.4220
   394G12c C01I 7215  13.868   7.392  10.966 -0.6037 -0.0234 -0.0825
   394G12c C01U 7216  13.911   7.513  10.778 -0.2084  0.0499 -1.1295
   394G12c C00S 7217  13.416   7.421  10.482  1.9679  0.4152 -0.4371
   394G12c C00K 7218  13.519   7.302  10.647 -0.1845 -0.1233 -1.8547
   394G12c C00N 7219  13.802   7.544  10.693  0.9416  1.7130 -0.1184
   394G12c C000 7220  13.899   7.380  10.826 -0.4775  0.3308 -0.6741
   394G12c C01J 7221  13.769   7.311  11.005 -0.1735 -2.2526  0.9188
   394G12c C01K 7222  13.723   7.284  11.149 -1.7094  1.0602  0.2753
   394G12c C01P 7223  13.793   7.274  11.286  0.3737  1.9634 -0.5757
   394G12c C01Q 7224  13.939   7.293  11.317  1.1197  0.5672 -0.6784
   394G12c H00G 7225  13.991   7.236  11.241 -1.6565 -1.4001 -1.1848
   394G12c C01R 7226  13.987   7.387  11.394 -1.5870 -1.9383 -0.3061
   394G12c H00F 7227  13.923   7.439  11.464 -2.0185 -1.0042 -1.3920
   394G12c C01S 7228  14.124   7.413  11.416  1.0167  0.0979 -2.1924
   394G12c H00E 7229  14.137   7.509  11.365  0.3616  1.2896 -0.1683
   394G12c H00D 7230  14.147   7.419  11.522 -3.4026  5.7411 -1.2817
   394G12c O005 7231  14.201   7.333  11.342  0.8868 -0.1709 -0.7553
   394G12c H00C 7232  14.167   7.322  11.255  1.2193  1.5871 -1.1331
   394G12c C01O 7233  13.722   7.230  11.399  0.2752  1.4409 -0.8833
   394G12c H00H 7234  13.747   7.186  11.495 -4.8622 -7.4477 -3.0785
   394G12c C01N 7235  13.581   7.219  11.396 -2.0862  1.4896  1.0594
   394G12c O006 7236  13.533   7.209  11.524  0.5050 -0.7361  0.4131
   394G12c C01T 7237  13.419   7.129  11.540  0.7402  1.3088 -0.3733
   394G12c H00K 7238  13.339   7.182  11.489  1.7691 -1.6741 -5.4003
   394G12c H00J 7239  13.423   7.047  11.468  3.3509  4.9308 -4.6263
   394G12c H00I 7240  13.390   7.083  11.635  4.6673  0.6970  0.6009
   394G12c C01M 7241  13.506   7.223  11.268 -0.3547 -1.2633 -1.4191
   394G12c C020 7242  13.482   7.240  10.776 -0.6340 -0.4718 -0.1227
   394G12c C021 7243  13.352   7.173  10.778  1.9635 -0.8036  0.5557
   394G12c C01L 7244  13.589   7.235  11.146  0.7247  0.5194  0.3247
   394G12c O007 7245  13.371   7.182  11.276  0.6036 -0.2522 -0.1842
   394G12c C022 7246  13.305   7.163  10.906  0.4587  1.9857 -0.2370
   394G12c C023 7247  13.237   7.207  10.702  0.8298 -0.3029 -1.0873
   394G12c C00G 7248  13.019   7.356  10.599 -1.4015 -1.7065  0.8491
   394G12c C00E 7249  12.775   7.368  10.582 -1.4681 -0.0038  1.8876
   394G12c O00A 7250  12.652   7.391  10.516 -0.1701  0.0160  0.8303
   394G12c C024 7251  12.639   7.284  10.414  1.3372 -0.3249 -0.1817
   394G12c H00V 7252  12.667   7.288  10.309  2.7486 -1.5403  0.1369
   394G12c H00U 7253  12.531   7.281  10.403  0.9369  1.7752  2.6039
   394G12c H00T 7254  12.654   7.178  10.432  2.5935  0.0219  0.8820
   404G12c C00D 7255   0.753  10.869   2.368 -0.1785 -1.6749  1.8914
   404G12c O00B 7256   0.700  10.957   2.444  0.7588  1.6205 -0.7330
   404G12c C025 7257   0.665  11.080   2.380  0.2196 -2.2139 -0.8546
   404G12c C026 7258   0.701  11.162   2.493  0.5474  0.2283  0.7717
   404G12c H00Y 7259   0.712  11.262   2.452  1.1310  0.0699  0.5435
   404G12c H00X 7260   0.807  11.145   2.513  2.1652  4.4431 -3.3095
   404G12c O00C 7261   0.603  11.207   2.581  1.0876  0.0115 -0.4924
   404G12c H00W 7262   0.526  11.153   2.581 -0.8606  2.3677  5.5263
   404G12c C027 7263   0.640  11.115   2.248  0.8936 -0.0099 -0.3300
   404G12c O00D 7264   0.635  11.010   2.159 -0.9626  0.0500  1.3387
   404G12c H00Z 7265   0.626  10.940   2.222  2.0763  3.5095  5.9416
   404G12c C028 7266   0.633  11.254   2.197  3.2371  0.2055 -0.7987
   404G12c C029 7267   0.750  11.331   2.217 -1.1002  0.8069  0.4241
   404G12c H010 7268   0.819  11.271   2.275 -1.6365 -0.8602 -0.6267
   404G12c C02T 7269   0.769  11.456   2.172 -2.2403  2.2151  1.6110
   404G12c H01O 7270   0.852  11.525   2.166 -1.7324  1.5366  0.6679
   404G12c C02S 7271   0.668  11.518   2.100  0.4555 -0.2496  0.2859
   404G12c O00J 7272   0.677  11.652   2.091 -1.2119 -0.1260 -0.2957
   404G12c H01P 7273   0.627  11.691   2.161 -6.1531 -2.8285 -2.0154
   404G12c C02R 7274   0.550  11.446   2.059 -1.9812 -1.6240 -1.2372
   404G12c O00I 7275   0.431  11.502   2.018  1.1443 -0.6486  1.1053
   404G12c C02Q 7276   0.371  11.458   1.895  1.1206 -0.1269 -0.7080
   404G12c H01N 7277   0.295  11.531   1.867 -0.7617 -2.8187 -2.9038
   404G12c H01R 7278   0.371  11.353   1.865  4.4202  0.0010 -1.2882
   404G12c H01Q 7279   0.453  11.453   1.825  0.7489  0.1505 -1.1669
   404G12c C02A 7280   0.532  11.321   2.116  1.1000 -1.3549 -0.0307
   404G12c H011 7281   0.426  11.309   2.129  1.2927 -5.1724 -1.4060
   404G12c C00C 7282   0.869  10.896   2.303 -0.7572  0.3028  0.4175
   404G12c H012 7283   0.941  10.972   2.328 -2.4894  0.3684  5.8433
   404G12c C00B 7284   0.934  10.801   2.217 -0.3801  0.0274  0.1017
   404G12c C00A 7285   1.057  10.789   2.145 -1.2837 -2.3856 -1.1288
   404G12c C009 7286   1.129  10.913   2.083  0.0581  0.7865  1.0656
   404G12c C008 7287   1.110  11.060   2.083 -0.7104 -1.0199 -1.0535
   404G12c H013 7288   1.058  11.116   2.159 -0.1765  6.0454 -5.4019
   404G12c C007 7289   1.166  11.126   1.969  1.1584  0.6762 -0.9591
   404G12c H014 7290   1.137  11.230   1.968 -3.0240 -0.3953 -0.1450
   404G12c C006 7291   1.263  11.062   1.875 -0.4059  1.4191 -1.3887
   404G12c C005 7292   1.286  10.920   1.891  1.1324 -0.1747  0.5387
   404G12c C004 7293   1.346  10.837   1.794 -1.4387  1.2505  0.1940
   404G12c C003 7294   1.320  10.693   1.780 -1.1574  0.3376  0.7377
   404G12c C002 7295   1.361  10.627   1.660  0.0351 -1.3002  0.8965
   404G12c C001 7296   1.341  10.496   1.614  0.5356 -0.5117 -0.3311
   404G12c C00M 7297   1.216  10.422   1.603  1.1422 -0.0687 -1.1494
   404G12c C00L 7298   1.143  10.413   1.726  1.7934 -0.6112  0.0418
   404G12c C00R 7299   1.015  10.355   1.738  0.4594  0.9355  0.4767
   404G12c C00Q 7300   0.923  10.320   1.633  0.7808  0.8381 -0.0234
   404G12c C00V 7301   0.781  10.317   1.675 -1.2135  1.0907  1.9252
   404G12c C00U 7302   0.736  10.382   1.799  1.3348  2.2062 -0.4164
   404G12c C00T 7303   0.841  10.428   1.900  1.4515  1.9315  1.6926
   404G12c C016 7304   0.803  10.510   2.008 -0.7448  0.4722 -0.9486
   404G12c C015 7305   0.659  10.519   2.037 -1.3044 -0.4226 -1.0995
   404G12c C010 7306   0.570  10.451   1.947  0.6896  0.3333  2.0915
   404G12c C011 7307   0.435  10.452   1.985 -0.1277 -1.4036 -1.4164
   404G12c H005 7308   0.361  10.382   1.948 -5.4772  3.1213  0.0513
   404G12c C012 7309   0.377  10.523   2.099  0.7855 -2.9111 -0.6471
   404G12c C017 7310   0.247  10.488   2.155 -0.5805  1.2856  0.2179
   404G12c O002 7311   0.201  10.360   2.177 -1.4682 -1.2104  0.6366
   404G12c H004 7312   0.170  10.348   2.088 -0.3234  0.1592  0.0244
   404G12c C018 7313   0.179  10.600   2.190  0.6743 -0.7997 -0.3669
   404G12c O001 7314   0.198  10.738   2.146  0.5007 -0.8769  1.5339
   404G12c H003 7315   0.115  10.764   2.107 -1.3130  0.0716  5.7871
   404G12c C019 7316   0.045  10.591   2.260  1.2055 -0.9863  1.5125
   404G12c H002 7317   0.010  10.493   2.291 -3.3352 -0.0929 -0.2917
   404G12c H001 7318   0.036  10.632   2.361 -4.6134 -2.1426  1.6575
   404G12c O000 7319  -0.038  10.659   2.156 -0.8640 -0.8997 -0.1753
   404G12c C01A 7320  -0.104  10.768   2.204  0.6558  0.2540 -1.6409
   404G12c C02K 7321  -0.233  10.767   2.217  1.6684 -0.0035 -1.0470
   404G12c O00G 7322  -0.300  10.651   2.170 -0.0159 -0.0776 -1.0663
   404G12c C02M 7323  -0.278  10.529   2.244 -1.1034  1.0111  0.1925
   404G12c H01G 7324  -0.370  10.507   2.299 -0.4954  0.4979  1.0070
   404G12c H01F 7325  -0.256  10.442   2.183  3.6106  2.3317 -0.1999
   404G12c H01E 7326  -0.213  10.547   2.329  1.8263  5.9960 -2.8176
   404G12c C02J 7327  -0.304  10.859   2.288  0.2474  1.0768  0.0979
   404G12c H01H 7328  -0.410  10.841   2.291  0.4722 -3.3368 -7.2035
   404G12c C02I 7329  -0.238  10.967   2.351  2.4681  2.4605  0.2100
   404G12c C02N 7330  -0.322  11.046   2.436  0.6366 -0.1950 -1.5346
   404G12c H01M 7331  -0.390  11.126   2.409 -1.9679 -1.1894  1.7688
   404G12c C02O 7332  -0.321  11.009   2.565  0.9274  1.5438 -1.1085
   404G12c H01L 7333  -0.245  10.946   2.608  2.0255  5.5791  3.3149
   404G12c C02P 7334  -0.335  11.132   2.667 -0.9344 -0.0928 -1.0863
   404G12c H01K 7335  -0.338  11.064   2.752 -0.9886 -3.8311 -3.9381
   404G12c H01J 7336  -0.256  11.198   2.703  1.9075 -2.2936 -3.0520
   404G12c O00H 7337  -0.414  11.245   2.623 -0.5278  1.4564  0.1331
   404G12c H01I 7338  -0.465  11.288   2.690  0.2324  3.3505 -0.4747
   404G12c C02H 7339  -0.109  11.014   2.310 -0.8120 -0.8532  1.8788
   404G12c H01C 7340  -0.047  11.101   2.326 -2.6456  0.6689  1.0023
   404G12c C02L 7341  -0.042  10.906   2.222 -0.3348 -0.4909  0.3126
   404G12c H01D 7342   0.059  10.926   2.190 -0.5127  1.2796  0.8531
   404G12c C013 7343   0.466  10.583   2.190 -1.4003 -0.9810 -0.5776
   404G12c H000 7344   0.452  10.642   2.279  3.4279  4.1532 -2.9003
   404G12c C014 7345   0.613  10.578   2.166  2.1653 -0.4431  2.0560
   404G12c C00F 7346   0.710  10.659   2.233 -1.6105  0.8553 -0.4911
   404G12c C00H 7347   0.892  10.589   2.076  1.1108  1.6275 -1.0486
   404G12c C00I 7348   1.028  10.575   2.040  1.7297  0.1329 -0.4728
   404G12c C00J 7349   1.054  10.492   1.920  0.0669  1.9442 -0.8215
   404G12c C00Z 7350   0.611  10.369   1.847  0.0818  0.4570 -1.3702
   404G12c C00Y 7351   0.522  10.293   1.768  0.5592 -0.5842  0.5653
   404G12c H006 7352   0.416  10.295   1.788 -0.3317 -2.3242 -3.4544
   404G12c C00X 7353   0.562  10.221   1.651  1.1228 -0.2751 -0.4261
   404G12c O003 7354   0.471  10.193   1.545  1.2022  0.5238 -0.2835
   404G12c C01B 7355   0.481  10.063   1.472  0.4042  0.7485  0.7179
   404G12c H009 7356   0.413  10.081   1.389  1.7695  1.2683 -0.3060
   404G12c H008 7357   0.579  10.034   1.433 -0.0732  3.5785 -2.7670
   404G12c H007 7358   0.444   9.973   1.522  0.1572 -1.3524 -3.0598
   404G12c C00W 7359   0.693  10.244   1.591 -1.1250  1.2610 -0.8178
   404G12c O004 7360   0.718  10.183   1.477 -1.7785  0.2666 -0.2875
   404G12c C01C 7361   0.832  10.240   1.415  1.7561 -1.3641 -0.8058
   404G12c H00A 7362   0.874  10.223   1.317 -0.2424  1.1177 -2.1351
   404G12c C00P 7363   0.937  10.301   1.492 -0.5558  0.2800 -0.5547
   404G12c C00O 7364   1.042  10.369   1.413  0.5378 -1.6620 -0.4994
   404G12c C01D 7365   1.034  10.392   1.265  2.2053 -0.3840 -0.9162
   404G12c H00S 7366   0.983  10.327   1.196  3.3362  3.2706 -5.4865
   404G12c C01E 7367   1.151  10.470   1.205 -0.7702  0.1167  0.8744
   404G12c O008 7368   1.167  10.520   1.074  0.2616 -0.8352 -2.2959
   404G12c C01V 7369   1.053  10.508   0.997  0.2725  1.5648  0.7057
   404G12c C01Z 7370   1.056  10.383   0.900 -1.2684  1.2836  0.4445
   404G12c H00R 7371   0.975  10.316   0.871  1.2027 -2.5722  1.9814
   404G12c H00Q 7372   1.103  10.431   0.814 -2.3053  9.2459  3.8771
   404G12c O009 7373   1.160  10.291   0.937 -1.0379  1.9125  0.7573
   404G12c H00P 7374   1.217  10.306   1.010  6.1191 -8.0756 -1.6784
   404G12c C01W 7375   0.951  10.575   1.018 -1.2628 -0.7085  1.1405
   404G12c H00O 7376   0.938  10.624   1.113 -6.4007  0.7362 -0.1251
   404G12c C01X 7377   0.827  10.590   0.949  1.3537  2.0225  0.2126
   404G12c H00N 7378   0.811  10.504   0.884  2.4532  3.9151 -2.6462
   404G12c H00M 7379   0.738  10.590   1.013  0.4592  2.5624 -1.0056
   404G12c C01Y 7380   0.822  10.685   0.838 -0.3675 -0.5434  1.3250
   404G12c C02D 7381   0.820  10.810   0.896  1.1433 -0.0121  0.2310
   404G12c H019 7382   0.823  10.838   1.000  4.2592 -0.5959  0.3557
   404G12c C02C 7383   0.829  10.906   0.794  0.4002  0.5756 -1.9336
   404G12c H01A 7384   0.822  11.004   0.839  1.5804  1.2728 -3.2141
   404G12c C02B 7385   0.869  10.883   0.656  1.3082  0.8083 -0.1907
   404G12c O00E 7386   0.935  10.993   0.601 -1.3144 -0.7951 -0.2498
   404G12c H01B 7387   0.987  10.973   0.525  2.7155 -1.7340  2.6240
   404G12c C02F 7388   0.857  10.763   0.606  0.7438 -0.9402  0.3254
   404G12c O00F 7389   0.899  10.730   0.486 -0.5330  0.3812  0.3051
   404G12c C02G 7390   0.903  10.811   0.367  0.9721 -0.3147 -0.0335
   404G12c H017 7391   0.802  10.834   0.335  0.2261 -2.1338  0.9538
   404G12c H016 7392   0.951  10.777   0.275  9.0800  1.5961  3.0052
   404G12c H015 7393   0.980  10.879   0.405 -0.2295  1.0093  0.0483
   404G12c C02E 7394   0.831  10.652   0.693  0.2017  0.6265 -0.7024
   404G12c H018 7395   0.809  10.549   0.672 -4.0250  1.2380  0.2761
   404G12c C01F 7396   1.251  10.520   1.267  0.4153 -0.5198 -1.0887
   404G12c C01G 7397   1.316  10.643   1.224 -0.3060  0.8214  0.0770
   404G12c H00L 7398   1.290  10.699   1.135 -5.0822 -5.3088 -2.7727
   404G12c C01H 7399   1.408  10.701   1.311  0.2337 -0.9639  0.7218
   404G12c H00B 7400   1.437  10.804   1.293  1.5219 -1.4571 -0.1017
   404G12c C01I 7401   1.420  10.644   1.442  2.3013 -1.0035  0.5054
   404G12c C01U 7402   1.268  10.474   1.386  1.7532  1.5119 -0.5385
   404G12c C00S 7403   0.969  10.392   1.870 -0.5478 -1.3175  0.4043
   404G12c C00K 7404   1.164  10.511   1.837 -0.6445  0.0874 -1.1675
   404G12c C00N 7405   1.158  10.419   1.467  1.9765  1.4396  0.2353
   404G12c C000 7406   1.357  10.524   1.475 -0.9484 -0.6827  0.7453
   404G12c C01J 7407   1.450  10.700   1.573  0.7258 -1.1128 -1.5719
   404G12c C01K 7408   1.472  10.842   1.583  1.8532 -0.6390 -1.7166
   404G12c C01P 7409   1.582  10.905   1.537  0.6697 -1.1406 -1.2702
   404G12c C01Q 7410   1.697  10.837   1.474 -0.1548  0.4265 -0.6987
   404G12c H00G 7411   1.702  10.730   1.463  2.8372  0.8921 -5.3716
   404G12c C01R 7412   1.815  10.906   1.442 -2.9410  0.7808  0.1291
   404G12c H00F 7413   1.830  11.012   1.452 -2.9552  0.6302  1.8320
   404G12c C01S 7414   1.939  10.813   1.395 -1.1579 -0.9359  0.6717
   404G12c H00E 7415   2.026  10.873   1.373  0.0586 -1.1429  4.5959
   404G12c H00D 7416   1.985  10.749   1.470 -3.8587  1.3126  4.4367
   404G12c O005 7417   1.899  10.738   1.269  0.7344 -0.8074  0.5321
   404G12c H00C 7418   1.818  10.775   1.237  0.9942  0.6466  1.4952
   404G12c C01O 7419   1.555  11.045   1.504  2.3730 -0.0350 -0.6813
   404G12c H00H 7420   1.600  11.122   1.444  4.1949 -3.3321 -3.6850
   404G12c C01N 7421   1.470  11.113   1.586  0.7756 -0.3894 -0.4459
   404G12c O006 7422   1.458  11.242   1.555  0.1072 -0.4900  1.5027
   404G12c C01T 7423   1.328  11.282   1.508 -1.5332  0.5037  0.2605
   404G12c H00K 7424   1.339  11.339   1.416  1.9327 -0.8005 -0.1872
   404G12c H00J 7425   1.309  11.354   1.588 -2.8858  4.2504 -3.2875
   404G12c H00I 7426   1.257  11.199   1.508  0.9971 -1.7642 -3.0665
   404G12c C01M 7427   1.408  11.049   1.690 -2.2215 -1.0003 -1.1732
   404G12c C020 7428   1.240  10.631   1.875 -0.6193  1.0118 -1.3767
   404G12c C021 7429   1.228  10.708   2.000 -1.3308  1.9086 -0.0466
   404G12c C01L 7430   1.403  10.897   1.685 -0.8054  0.6966 -0.7067
   404G12c O007 7431   1.342  11.134   1.786 -0.3573  0.0471  0.2340
   404G12c C022 7432   1.220  10.844   1.991 -0.0474 -0.5960  0.7271
   404G12c C023 7433   1.113  10.678   2.074  0.1769 -1.1552 -1.8434
   404G12c C00G 7434   0.850  10.681   2.181 -0.9691  1.7139  0.6598
   404G12c C00E 7435   0.679  10.752   2.343  0.8727 -0.3797 -0.0592
   404G12c O00A 7436   0.555  10.762   2.413 -1.1085  1.4454 -0.6270
   404G12c C024 7437   0.542  10.742   2.550 -0.7899  0.5611  0.6233
   404G12c H00V 7438   0.530  10.849   2.564 -8.8007 -0.1183  1.3763
   404G12c H00U 7439   0.440  10.723   2.584 -1.4713  0.8368 -1.2049
   404G12c H00T 7440   0.636  10.733   2.603 -0.0548 -2.7173 -1.0774
   414G12c C00D 7441   0.184   6.591  12.154 -0.9509  1.0173  2.1162
   414G12c O00B 7442   0.056   6.564  12.174 -1.1335  0.1319  0.6720
   414G12c C025 7443  -0.045   6.610  12.082  0.5856 -0.2716  0.4428
   414G12c C026 7444  -0.124   6.728  12.158  0.4403  0.0703  0.2801
   414G12c H00Y 7445  -0.105   6.696  12.260  0.5201 -0.4604  0.1007
   414G12c H00X 7446  -0.225   6.714  12.120  1.9149 -2.3640 -2.9563
   414G12c O00C 7447  -0.053   6.832  12.102  0.8333 -0.2769 -0.8356
   414G12c H00W 7448  -0.080   6.919  12.124 -2.1897 -0.1295 -4.6239
   414G12c C027 7449  -0.080   6.523  11.981 -1.0782 -1.0053 -0.8991
   414G12c O00D 7450   0.019   6.428  11.927 -0.8746 -0.1915  1.0625
   414G12c H00Z 7451   0.089   6.418  11.990  0.6366  4.4314  0.3167
   414G12c C028 7452  -0.203   6.541  11.921  0.2704 -1.2718 -0.0684
   414G12c C029 7453  -0.226   6.627  11.825 -1.2599 -0.3698 -0.0650
   414G12c H010 7454  -0.153   6.646  11.748 -2.1835  1.7979 -0.4319
   414G12c C02T 7455  -0.356   6.643  11.775  0.2551 -1.7012  0.5736
   414G12c H01O 7456  -0.357   6.683  11.675  0.0983 -1.3482  0.7156
   414G12c C02S 7457  -0.468   6.627  11.859 -0.8680  0.7434  1.0952
   414G12c O00J 7458  -0.578   6.697  11.832 -0.4415  0.2423 -0.0245
   414G12c H01P 7459  -0.601   6.716  11.922  1.1927  0.4565  0.3773
   414G12c C02R 7460  -0.457   6.553  11.977  0.4585 -0.0803 -0.0606
   414G12c O00I 7461  -0.557   6.507  12.049 -0.1066  0.2258  2.2653
   414G12c C02Q 7462  -0.702   6.496  12.014 -0.7255  0.8451 -1.3061
   414G12c H01N 7463  -0.744   6.438  12.096 -0.4410 -0.3912 -2.0294
   414G12c H01R 7464  -0.714   6.472  11.908  2.1974  2.7919 -2.1460
   414G12c H01Q 7465  -0.738   6.599  12.017  3.3251  2.3018  1.1824
   414G12c C02A 7466  -0.320   6.511  12.010  0.5758  0.5818 -0.8059
   414G12c H011 7467  -0.317   6.465  12.107 -0.1304  1.0414 -0.5551
   414G12c C00C 7468   0.221   6.682  12.053 -0.6293 -2.1068  1.7157
   414G12c H012 7469   0.152   6.751  12.007 -0.3768 -0.2618  3.9736
   414G12c C00B 7470   0.355   6.703  12.026  0.8687  0.4762  0.6329
   414G12c C00A 7471   0.425   6.787  11.938 -0.6364 -0.7683  0.8718
   414G12c C009 7472   0.371   6.850  11.821 -1.6081 -0.9424 -0.5431
   414G12c C008 7473   0.258   6.804  11.762 -0.8646  0.1797  0.7777
   414G12c H013 7474   0.200   6.736  11.823 -3.9732  6.6325  5.6728
   414G12c C007 7475   0.252   6.842  11.625  0.1531 -0.4868 -0.6378
   414G12c H014 7476   0.153   6.841  11.581 -1.9975 -2.2181  3.9447
   414G12c C006 7477   0.353   6.853  11.544  3.1692  0.7260 -1.2969
   414G12c C005 7478   0.472   6.887  11.605  0.5494 -0.6576  0.9753
   414G12c C004 7479   0.588   6.868  11.537  0.6559  2.3972 -0.2715
   414G12c C003 7480   0.700   6.841  11.622  1.8134  0.3185 -1.4653
   414G12c C002 7481   0.824   6.814  11.537 -1.5144  0.3496  1.5213
   414G12c C001 7482   0.962   6.815  11.567  0.0571 -0.9071 -1.0235
   414G12c C00M 7483   1.017   6.735  11.672 -0.0158 -0.5984 -1.2222
   414G12c C00L 7484   0.954   6.720  11.796 -1.0654  1.0881 -0.2254
   414G12c C00R 7485   0.976   6.607  11.890 -0.8504 -1.6209  0.7364
   414G12c C00Q 7486   1.061   6.493  11.892  0.3619 -0.3982  0.0113
   414G12c C00V 7487   1.024   6.390  11.978 -0.0066  0.5753 -0.6632
   414G12c C00U 7488   0.899   6.389  12.052 -0.1610 -0.7883  0.0951
   414G12c C00T 7489   0.812   6.491  12.038  0.8235  0.0934  0.4674
   414G12c C016 7490   0.680   6.504  12.083  2.2399  0.1415  0.2318
   414G12c C015 7491   0.637   6.402  12.169 -0.2016  1.2090 -0.9482
   414G12c C010 7492   0.725   6.301  12.203 -0.4392 -0.1239 -0.5044
   414G12c C011 7493   0.688   6.200  12.306  0.7358 -2.0257 -0.4025
   414G12c H005 7494   0.758   6.123  12.337 -1.2771 -3.9314 -0.4856
   414G12c C012 7495   0.557   6.199  12.359  1.6257 -1.2045 -0.5923
   414G12c C017 7496   0.506   6.112  12.452 -1.6585 -1.3380 -0.1380
   414G12c O002 7497   0.571   6.083  12.570 -0.1427  0.9595 -0.1689
   414G12c H004 7498   0.511   6.041  12.630 -0.7121 -3.9601 -3.8909
   414G12c C018 7499   0.386   6.063  12.437  1.4072  1.1931 -0.3901
   414G12c O001 7500   0.343   6.009  12.561 -1.1509  1.4515 -0.5005
   414G12c H003 7501   0.251   6.017  12.577 -1.3641 -4.4591  2.4803
   414G12c C019 7502   0.274   6.094  12.346 -1.1238  0.4636  1.4422
   414G12c H002 7503   0.178   6.109  12.396  0.1869  2.5102  3.3985
   414G12c H001 7504   0.297   6.162  12.264  1.1754 -0.4308  1.3199
   414G12c O000 7505   0.278   5.980  12.264 -1.5225  0.4676  0.4288
   414G12c C01A 7506   0.168   5.957  12.194 -0.4748 -0.0271 -1.0560
   414G12c C02K 7507   0.148   6.004  12.065  0.5396  0.2215  0.3242
   414G12c O00G 7508   0.264   6.019  12.003 -0.6537  0.3202 -1.3545
   414G12c C02M 7509   0.311   6.139  11.993  0.1385  0.6622 -0.1391
   414G12c H01G 7510   0.399   6.155  11.931  3.7387 -0.5354  4.3815
   414G12c H01F 7511   0.244   6.208  11.943  5.7255  6.0841 -0.7034
   414G12c H01E 7512   0.353   6.174  12.087  1.0702 -0.8244  0.0204
   414G12c C02J 7513   0.034   5.963  11.994  0.8035  0.1906  1.0706
   414G12c H01H 7514   0.016   5.980  11.889 -0.4345  2.4978  1.6131
   414G12c C02I 7515  -0.079   5.901  12.065  0.1305  2.3505 -0.2120
   414G12c C02N 7516  -0.197   5.891  11.994  0.7110 -0.0437  0.2275
   414G12c H01M 7517  -0.184   5.903  11.888 -4.1284 -5.7322 -1.3220
   414G12c C02O 7518  -0.321   5.857  12.047 -1.1567  0.4957 -0.7156
   414G12c H01L 7519  -0.342   5.842  12.151 -6.7269  3.2338 -1.2264
   414G12c C02P 7520  -0.450   5.850  11.994 -0.6617  0.8698  0.6316
   414G12c H01K 7521  -0.433   5.872  11.889 -6.4145  1.3054 -0.3809
   414G12c H01J 7522  -0.471   5.751  12.035  4.2458 -0.7997 -0.5300
   414G12c O00H 7523  -0.552   5.928  12.055 -1.1183 -0.2759  0.2817
   414G12c H01I 7524  -0.631   5.931  12.004  0.1820  2.1313 -1.6862
   414G12c C02H 7525  -0.056   5.855  12.203  1.2378 -1.8849  0.6622
   414G12c H01C 7526  -0.133   5.794  12.249  1.0511  0.7993  4.0860
   414G12c C02L 7527   0.069   5.889  12.274  1.4785  0.5982 -0.8121
   414G12c H01D 7528   0.083   5.840  12.369 -2.9412 -0.4365 -0.5579
   414G12c C013 7529   0.476   6.319  12.325 -1.5922  0.3223 -1.5058
   414G12c H000 7530   0.388   6.321  12.388  1.6173  3.5746  3.2246
   414G12c C014 7531   0.520   6.413  12.228 -1.0224  1.2559  0.7023
   414G12c C00F 7532   0.429   6.517  12.179 -2.2227  1.5873  1.2939
   414G12c C00H 7533   0.593   6.623  12.062  0.3462 -0.4639  0.3189
   414G12c C00I 7534   0.659   6.741  11.996 -0.7351 -1.8574 -0.0396
   414G12c C00J 7535   0.775   6.716  11.940 -0.3392  0.1561  0.5216
   414G12c C00Z 7536   0.850   6.281  12.132  0.1199 -0.0073  1.5441
   414G12c C00Y 7537   0.949   6.177  12.158  1.5516  0.4060 -1.1010
   414G12c H006 7538   0.955   6.111  12.244 -0.9620 -1.5527 -2.3468
   414G12c C00X 7539   1.076   6.186  12.101 -1.5940  0.1874  1.7419
   414G12c O003 7540   1.184   6.080  12.120  0.5873  0.3267 -0.2776
   414G12c C01B 7541   1.124   5.965  12.197 -0.0166  0.0072  0.1113
   414G12c H009 7542   1.038   5.914  12.152  0.1860 -2.7375  2.7389
   414G12c H008 7543   1.120   6.009  12.297  2.0481  1.7486 -0.5349
   414G12c H007 7544   1.200   5.888  12.201  2.6903  2.6624  3.3065
   414G12c C00W 7545   1.112   6.275  12.005 -0.5295 -1.6887  0.0255
   414G12c O004 7546   1.226   6.255  11.932  0.6494  2.2364  0.5754
   414G12c C01C 7547   1.255   6.349  11.841  0.7066  0.0209  0.0025
   414G12c H00A 7548   1.351   6.336  11.793  1.5381  4.9481  0.0313
   414G12c C00P 7549   1.161   6.440  11.802 -0.6063 -0.4582 -0.6610
   414G12c C00O 7550   1.159   6.504  11.663  1.2521 -0.3769 -0.1476
   414G12c C01D 7551   1.218   6.428  11.558 -1.1616 -0.6216 -0.1561
   414G12c H00S 7552   1.284   6.344  11.577 -0.8935 -0.5116 -0.5992
   414G12c C01E 7553   1.209   6.449  11.415 -0.0984  0.1279  1.1125
   414G12c O008 7554   1.264   6.366  11.312  0.6040  0.2540 -0.0252
   414G12c C01V 7555   1.266   6.236  11.320  2.3072  1.8340  0.2332
   414G12c C01Z 7556   1.386   6.181  11.379 -1.4528  0.7780 -0.7476
   414G12c H00R 7557   1.457   6.121  11.322  0.1429  0.6104  1.3657
   414G12c H00Q 7558   1.456   6.262  11.402  0.7035 -1.5316  1.1608
   414G12c O009 7559   1.374   6.106  11.503 -0.7260 -1.0049 -0.2731
   414G12c H00P 7560   1.290   6.133  11.536 -0.2684 -1.0823  0.9746
   414G12c C01W 7561   1.186   6.166  11.245  0.3954 -1.0335  0.0802
   414G12c H00O 7562   1.102   6.201  11.187  3.0106  3.7199 -1.1633
   414G12c C01X 7563   1.202   6.017  11.242 -0.5048 -1.1309  0.6067
   414G12c H00N 7564   1.305   5.994  11.271  0.0559 -3.2035 -2.7594
   414G12c H00M 7565   1.122   6.020  11.316 -1.6224  2.6754 -0.6342
   414G12c C01Y 7566   1.159   5.920  11.120 -0.5716 -0.0672 -2.3882
   414G12c C02D 7567   1.080   5.952  11.005  0.5355  1.5229 -1.0972
   414G12c H019 7568   1.031   6.048  10.995  4.3509  4.1085  3.4552
   414G12c C02C 7569   1.071   5.862  10.896  0.0997  0.0611 -0.1336
   414G12c H01A 7570   1.046   5.841  10.793  3.9460  0.0746 -1.1569
   414G12c C02B 7571   1.157   5.751  10.887 -1.6731  0.7982 -0.2538
   414G12c O00E 7572   1.164   5.670  10.791  0.0189 -0.7638 -1.2435
   414G12c H01B 7573   1.131   5.584  10.811  1.5487 -0.9517  0.5684
   414G12c C02F 7574   1.237   5.714  10.991 -1.5268  0.6369 -2.2929
   414G12c O00F 7575   1.306   5.596  10.975 -0.7253 -0.8704  1.1609
   414G12c C02G 7576   1.326   5.514  11.087 -1.6739 -0.8972 -1.0131
   414G12c H017 7577   1.233   5.502  11.142 -0.7850  1.7784  1.1693
   414G12c H016 7578   1.366   5.416  11.059  2.8706  0.3906  0.4585
   414G12c H015 7579   1.397   5.570  11.148 -1.0510  3.0009 -5.0834
   414G12c C02E 7580   1.246   5.805  11.106  0.6325 -0.4384 -0.0316
   414G12c H018 7581   1.323   5.795  11.180  1.0888 -1.3102 -0.6047
   414G12c C01F 7582   1.151   6.581  11.381  0.5315  1.0041 -1.2399
   414G12c C01G 7583   1.099   6.612  11.264 -0.9467 -2.7265  0.1291
   414G12c H00L 7584   1.128   6.571  11.169  2.5407 -0.9414  0.3393
   414G12c C01H 7585   0.997   6.723  11.235  0.8780 -0.1992 -0.3331
   414G12c H00B 7586   0.964   6.714  11.133 -1.0711  4.0984 -0.2067
   414G12c C01I 7587   0.932   6.756  11.358  0.4544  1.3266  0.2782
   414G12c C01U 7588   1.121   6.677  11.480 -0.2565  0.8505  0.1879
   414G12c C00S 7589   0.861   6.608  11.974  0.7145  1.2088 -0.2614
   414G12c C00K 7590   0.821   6.759  11.820 -0.5201  0.4884 -0.1434
   414G12c C00N 7591   1.110   6.635  11.613  0.2896  2.7698 -0.2658
   414G12c C000 7592   1.015   6.764  11.464  0.9813  0.3877  0.1429
   414G12c C01J 7593   0.806   6.817  11.398  1.3548  1.4201 -0.1877
   414G12c C01K 7594   0.679   6.836  11.319 -0.7875 -1.5464  1.7789
   414G12c C01P 7595   0.661   6.820  11.168 -0.5225  2.7195 -1.0868
   414G12c C01Q 7596   0.766   6.857  11.089  0.6431 -0.0326 -0.8262
   414G12c H00G 7597   0.822   6.774  11.049 -4.5523 -6.6892  4.4952
   414G12c C01R 7598   0.784   6.974  11.061 -0.5708 -0.5449 -0.3051
   414G12c H00F 7599   0.694   7.028  11.085 -1.2686 -1.2110 -1.3809
   414G12c C01S 7600   0.901   7.043  10.999 -0.7819  0.1330  0.0819
   414G12c H00E 7601   0.894   6.985  10.908 -4.6280  1.0099 -0.2443
   414G12c H00D 7602   0.839   7.133  11.000 -2.9678 -1.2886 -1.6754
   414G12c O005 7603   1.000   7.039  11.090  0.4967 -0.1738 -0.0979
   414G12c H00C 7604   1.071   6.982  11.064  0.6386 -1.1608  2.3197
   414G12c C01O 7605   0.529   6.798  11.120 -0.0235  0.1594  1.3009
   414G12c H00H 7606   0.519   6.803  11.013  2.9556  1.5098  1.0357
   414G12c C01N 7607   0.426   6.801  11.207 -0.0304  0.7502  0.4113
   414G12c O006 7608   0.298   6.815  11.156 -0.3736  0.6558  0.1033
   414G12c C01T 7609   0.225   6.936  11.166  1.8457  0.9296  0.1474
   414G12c H00K 7610   0.148   6.898  11.232 -2.0630  2.6797 -3.2042
   414G12c H00J 7611   0.271   7.020  11.216 -2.3180  4.6278 -1.9213
   414G12c H00I 7612   0.198   6.960  11.063 -5.9516 -5.7122  0.1137
   414G12c C01M 7613   0.442   6.830  11.337 -2.0666  0.9442  1.0011
   414G12c C020 7614   0.713   6.834  11.755 -0.4768  1.1000 -0.0129
   414G12c C021 7615   0.598   6.894  11.811  0.0943 -0.1168  0.5445
   414G12c C01L 7616   0.574   6.840  11.409  1.1306  0.3541  0.2584
   414G12c O007 7617   0.333   6.869  11.415  1.1002 -0.8723 -0.1646
   414G12c C022 7618   0.483   6.911  11.738 -1.9713  0.3502 -0.0472
   414G12c C023 7619   0.556   6.841  11.941  0.0164 -1.8650  1.4965
   414G12c C00G 7620   0.460   6.606  12.085 -1.6744 -0.6895 -0.2014
   414G12c C00E 7621   0.285   6.512  12.224 -0.0922 -1.1439 -0.0965
   414G12c O00A 7622   0.245   6.419  12.288  1.5502 -0.0664 -0.4405
   414G12c C024 7623   0.161   6.445  12.400 -1.7583 -0.6799  0.7080
   414G12c H00V 7624   0.105   6.538  12.386 -1.9720 -1.2862 -2.9152
   414G12c H00U 7625   0.221   6.460  12.490  1.3336 -0.8448 -1.2845
   414G12c H00T 7626   0.089   6.366  12.424  6.4171 -8.1861  3.0463
   424G12c C00D 7627  10.305  10.094   9.101 -1.7202 -0.3435 -1.0796
   424G12c O00B 7628  10.186  10.117   9.040 -1.1753  0.5307  0.4958
   424G12c C025 7629  10.226  10.154   8.906  0.9787 -0.4016 -1.2617
   424G12c C026 7630  10.254  10.036   8.821  1.7183  0.9033 -0.5622
   424G12c H00Y 7631  10.184  10.064   8.742  2.2057  0.2918 -1.2116
   424G12c H00X 7632  10.267   9.944   8.878  3.3567  1.3507 -0.1904
   424G12c O00C 7633  10.371  10.066   8.760 -1.1366 -0.5359  0.5738
   424G12c H00W 7634  10.400  10.153   8.783 -2.5492 -1.0168  4.5566
   424G12c C027 7635  10.254  10.290   8.896 -0.5012 -0.8060  1.5166
   424G12c O00D 7636  10.208  10.377   8.992  0.1408  0.9570 -0.2171
   424G12c H00Z 7637  10.138  10.352   9.051 -4.3887  7.4870 -2.2485
   424G12c C028 7638  10.305  10.356   8.774 -0.6130 -0.2526 -0.1164
   424G12c C029 7639  10.443  10.364   8.754  0.4414  0.7429  1.1582
   424G12c H010 7640  10.497  10.328   8.840  0.3647  4.1610  2.6961
   424G12c C02T 7641  10.483  10.422   8.626  0.6630  0.8533 -1.6687
   424G12c H01O 7642  10.590  10.438   8.615  1.0676  0.7491  1.6646
   424G12c C02S 7643  10.397  10.467   8.530  0.0890  0.7180  0.8362
   424G12c O00J 7644  10.455  10.483   8.410 -1.3922 -1.2557 -1.6222
   424G12c H01P 7645  10.539  10.441   8.399 -1.5961 -0.9349 -4.8289
   424G12c C02R 7646  10.258  10.452   8.546  0.8768  1.2104  0.3469
   424G12c O00I 7647  10.163  10.468   8.446  0.5226  1.2413  0.1457
   424G12c C02Q 7648  10.059  10.367   8.449  0.4079  0.7927  0.3430
   424G12c H01N 7649  10.075  10.269   8.495 -1.9926  2.3094  4.6208
   424G12c H01R 7650  10.042  10.355   8.342  2.4335  0.0038  0.0902
   424G12c H01Q 7651   9.956  10.402   8.455  0.5997  2.3259 -3.5138
   424G12c C02A 7652  10.216  10.400   8.676 -1.1924  0.3934 -0.3680
   424G12c H011 7653  10.109  10.394   8.693 -1.2290  0.7073 -0.4918
   424G12c C00C 7654  10.370  10.210   9.150 -1.4538  1.6399 -0.1441
   424G12c H012 7655  10.320  10.303   9.174 -0.7393  2.4388 -1.6827
   424G12c C00B 7656  10.499  10.202   9.197  0.6194  0.8215  1.0409
   424G12c C00A 7657  10.593  10.296   9.252 -0.4156 -0.1738 -0.7179
   424G12c C009 7658  10.596  10.437   9.232 -0.6811  0.4022 -0.6505
   424G12c C008 7659  10.552  10.532   9.137  0.3612  0.1384  0.5348
   424G12c H013 7660  10.458  10.519   9.086  2.6376 -4.4940 -2.8042
   424G12c C007 7661  10.634  10.657   9.112 -1.0602  0.6692 -0.4609
   424G12c H014 7662  10.631  10.748   9.055  4.2103  3.2391  2.9113
   424G12c C006 7663  10.759  10.682   9.183  0.9245  2.0558 -1.0772
   424G12c C005 7664  10.799  10.574   9.271  1.6230 -0.4971  0.4194
   424G12c C004 7665  10.921  10.575   9.338 -0.0023  0.1310  0.6187
   424G12c C003 7666  10.975  10.470   9.401 -0.1011  1.5158 -1.1520
   424G12c C002 7667  11.114  10.471   9.433  0.0792 -0.9869 -2.0423
   424G12c C001 7668  11.217  10.370   9.492 -0.8584  0.5453 -1.6772
   424G12c C00M 7669  11.230  10.237   9.436 -0.1970  0.6340  0.5935
   424G12c C00L 7670  11.103  10.165   9.414  0.0773  0.2387 -1.6236
   424G12c C00R 7671  11.104  10.037   9.357  1.0415 -0.0746  1.0652
   424G12c C00Q 7672  11.203   9.973   9.273  0.3846  0.4730 -0.6665
   424G12c C00V 7673  11.150   9.853   9.202  0.8105 -0.1753 -1.9364
   424G12c C00U 7674  11.007   9.840   9.187  2.5486  0.7416 -0.7249
   424G12c C00T 7675  10.915   9.937   9.229 -0.3664  1.1649 -1.6855
   424G12c C016 7676  10.780   9.952   9.198 -0.3793  2.3449 -0.8362
   424G12c C015 7677  10.732   9.848   9.115  1.2406  1.2810 -0.0612
   424G12c C010 7678  10.811   9.729   9.104  0.8838 -1.3340  0.0325
   424G12c C011 7679  10.756   9.620   9.029 -0.1640  0.2184 -0.6810
   424G12c H005 7680  10.821   9.534   9.036  4.1265  1.4527-12.8998
   424G12c C012 7681  10.617   9.603   9.001 -0.0292  0.4600 -0.9677
   424G12c C017 7682  10.559   9.498   8.933  0.6185 -0.1467 -0.4183
   424G12c O002 7683  10.617   9.371   8.960 -0.8354  1.2324 -0.3600
   424G12c H004 7684  10.667   9.344   9.036  1.9652  3.0967 -1.4726
   424G12c C018 7685  10.437   9.490   8.856 -0.5818  0.9411 -0.4392
   424G12c O001 7686  10.374   9.589   8.809 -0.1834  0.1120 -0.3244
   424G12c H003 7687  10.283   9.595   8.834 -0.5606 -1.7751 -1.1179
   424G12c C019 7688  10.402   9.366   8.773 -0.4092 -0.2196  0.5399
   424G12c H002 7689  10.493   9.372   8.713  0.0834 -2.0855  1.0783
   424G12c H001 7690  10.412   9.290   8.850 -0.5793  0.2747  1.0484
   424G12c O000 7691  10.287   9.368   8.688 -0.4624 -0.0196  1.3512
   424G12c C01A 7692  10.226   9.247   8.631  0.4695 -1.0122  0.8022
   424G12c C02K 7693  10.079   9.251   8.609  0.1958 -0.9844  0.7877
   424G12c O00G 7694   9.988   9.342   8.549  0.4526 -0.4250 -0.2542
   424G12c C02M 7695  10.034   9.389   8.437  0.9821  0.6778 -0.5467
   424G12c H01G 7696   9.957   9.407   8.363  5.2392  8.3880 -3.6474
   424G12c H01F 7697  10.099   9.318   8.385 -1.1725 -2.6748  1.1004
   424G12c H01E 7698  10.091   9.478   8.464 -3.6832  2.3191  4.9961
   424G12c C02J 7699  10.037   9.131   8.572 -1.7161  0.4823 -1.7473
   424G12c H01H 7700   9.940   9.121   8.527 -2.3439  2.0101 -0.7537
   424G12c C02I 7701  10.110   9.006   8.564  0.9702  0.4805 -1.3279
   424G12c C02N 7702  10.057   8.874   8.525 -0.1406  1.2866  1.5524
   424G12c H01M 7703  10.077   8.783   8.579  4.0096  1.2744  0.1690
   424G12c C02O 7704   9.992   8.884   8.399  0.1079 -0.7265  0.0772
   424G12c H01L 7705  10.020   8.976   8.351 -3.1563  0.5326  0.4819
   424G12c C02P 7706   9.904   8.782   8.315 -2.2395 -0.3798 -0.6903
   424G12c H01K 7707   9.824   8.850   8.285 -3.3436 -2.9035 -3.7702
   424G12c H01J 7708   9.927   8.725   8.225 -2.3230 -1.6581  0.0861
   424G12c O00H 7709   9.881   8.684   8.419  0.0123 -0.1106 -0.1035
   424G12c H01I 7710   9.924   8.699   8.501  6.0865 -4.1108 -2.2657
   424G12c C02H 7711  10.242   9.009   8.608 -0.5123 -1.0203  1.5166
   424G12c H01C 7712  10.331   8.952   8.629  0.8320 -1.1049 -3.6084
   424G12c C02L 7713  10.298   9.130   8.639 -0.6923 -0.8676 -0.6815
   424G12c H01D 7714  10.383   9.118   8.704 -4.6210 -3.5041  4.2840
   424G12c C013 7715  10.543   9.726   9.029 -1.2081  0.2859  0.4620
   424G12c H000 7716  10.444   9.694   8.999  0.0348 -1.3531 -2.1160
   424G12c C014 7717  10.597   9.849   9.093 -0.9265  1.9139 -0.6009
   424G12c C00F 7718  10.519   9.954   9.129 -0.5905 -0.8964  0.4503
   424G12c C00H 7719  10.694  10.048   9.253  0.2402 -0.8033  1.5600
   424G12c C00I 7720  10.764  10.149   9.324 -0.6471  0.4669  0.1201
   424G12c C00J 7721  10.895  10.110   9.384  0.3705 -0.5629 -1.1421
   424G12c C00Z 7722  10.942   9.731   9.132 -1.1513  1.0459 -2.1492
   424G12c C00Y 7723  11.033   9.630   9.112 -1.4738  0.3511  1.1726
   424G12c H006 7724  11.004   9.540   9.059 -3.0346 -0.4635  3.3585
   424G12c C00X 7725  11.170   9.636   9.151  0.1773 -1.4268  1.1232
   424G12c O003 7726  11.242   9.527   9.120 -0.2224  1.0086 -0.6648
   424G12c C01B 7727  11.326   9.490   9.224  1.2962 -0.5259  0.5344
   424G12c H009 7728  11.319   9.381   9.229 -3.1042 -0.6850 -4.5903
   424G12c H008 7729  11.350   9.532   9.322  0.8259  0.4858  0.2194
   424G12c H007 7730  11.425   9.507   9.183  1.0345  0.0876  0.1556
   424G12c C00W 7731  11.234   9.761   9.186  0.0063  0.3236 -1.0695
   424G12c O004 7732  11.377   9.783   9.194 -1.9188 -0.7171 -0.2828
   424G12c C01C 7733  11.408   9.908   9.162 -0.4987  0.4986 -0.0479
   424G12c H00A 7734  11.464   9.952   9.081  0.1674  3.9765  2.1775
   424G12c C00P 7735  11.339   9.999   9.245  0.0677  0.6216  0.3563
   424G12c C00O 7736  11.400  10.129   9.276  0.2394 -0.8880  1.2668
   424G12c C01D 7737  11.519  10.164   9.211  0.5065 -1.1335  1.0940
   424G12c H00S 7738  11.583  10.101   9.151  2.3783 -1.1950  3.1129
   424G12c C01E 7739  11.557  10.304   9.187  0.3297  0.6431 -1.8438
   424G12c O008 7740  11.684  10.329   9.130 -0.4609 -0.1185  1.4957
   424G12c C01V 7741  11.710  10.251   9.011  0.1481  0.7407 -0.4313
   424G12c C01Z 7742  11.631  10.305   8.893  0.7550  1.7216  0.1239
   424G12c H00R 7743  11.605  10.410   8.883 -4.2143  0.3797 -2.2554
   424G12c H00Q 7744  11.706  10.285   8.817 -0.8442 -0.5526 -0.8820
   424G12c O009 7745  11.543  10.214   8.876  1.5251 -0.3542  0.0933
   424G12c H00P 7746  11.460  10.208   8.922  0.0086  3.9755 -1.7273
   424G12c C01W 7747  11.798  10.138   9.004 -0.5110  0.4197  0.4771
   424G12c H00O 7748  11.879  10.120   9.073 -3.6135  2.1695  4.8268
   424G12c C01X 7749  11.812  10.061   8.863  0.8355  0.0794 -0.5672
   424G12c H00N 7750  11.796   9.954   8.861 -2.4502  0.4566  1.1479
   424G12c H00M 7751  11.744  10.118   8.799 -0.4940  1.2477  1.8036
   424G12c C01Y 7752  11.939  10.112   8.799  0.1126 -0.8162 -0.2390
   424G12c C02D 7753  11.988  10.249   8.827  0.3708  0.4916  0.2868
   424G12c H019 7754  11.923  10.327   8.865  4.9691  2.2675  5.2388
   424G12c C02C 7755  12.107  10.288   8.778 -0.5215 -0.7229 -0.2061
   424G12c H01A 7756  12.137  10.377   8.831 -2.2463 -1.2035  1.6104
   424G12c C02B 7757  12.169  10.191   8.705  0.7580  0.4131  0.7796
   424G12c O00E 7758  12.274  10.241   8.658 -1.6116 -0.7704 -1.0018
   424G12c H01B 7759  12.349  10.183   8.648 -4.3331 -4.2817 -1.9918
   424G12c C02F 7760  12.133  10.049   8.676 -0.1504 -1.4637  1.1094
   424G12c O00F 7761  12.204   9.965   8.596  1.4622 -0.5029 -2.7110
   424G12c C02G 7762  12.121   9.877   8.533  0.5358 -0.4309 -0.1032
   424G12c H017 7763  12.048   9.811   8.578  0.1305  0.4516  0.5510
   424G12c H016 7764  12.170   9.781   8.517 -8.7106 -4.9037 -5.7034
   424G12c H015 7765  12.110   9.939   8.444  3.6461  0.8016  0.3135
   424G12c C02E 7766  12.012  10.021   8.734  0.2704 -0.7649  0.9167
   424G12c H018 7767  11.957   9.928   8.737 -4.6524  1.9506 -0.2255
   424G12c C01F 7768  11.492  10.400   9.261  0.4882 -0.1863  2.2636
   424G12c C01G 7769  11.503  10.537   9.241  0.5541 -0.8532 -1.2816
   424G12c H00L 7770  11.590  10.584   9.197 -0.9254  4.3668  0.9221
   424G12c C01H 7771  11.430  10.630   9.333 -2.0452 -0.6406  1.6385
   424G12c H00B 7772  11.459  10.733   9.320 -2.6526 -0.7488 -0.8153
   424G12c C01I 7773  11.327  10.576   9.399  1.2247 -0.6801  0.0421
   424G12c C01U 7774  11.391  10.360   9.340  1.1146  0.8511 -1.0320
   424G12c C00S 7775  10.971   9.998   9.342  0.3194 -0.4306  0.4088
   424G12c C00K 7776  10.980  10.219   9.431  0.3110  1.7080  0.1269
   424G12c C00N 7777  11.338  10.236   9.336 -0.5842 -0.1327 -0.6367
   424G12c C000 7778  11.340  10.448   9.449 -0.4530 -0.0699  1.3076
   424G12c C01J 7779  11.191  10.596   9.397  1.1319  2.5530  0.5854
   424G12c C01K 7780  11.122  10.729   9.376  0.8825  0.2566  0.2083
   424G12c C01P 7781  11.191  10.858   9.398 -0.0865 -1.1398 -0.3506
   424G12c C01Q 7782  11.287  10.876   9.494 -0.2817  0.3889 -0.8058
   424G12c H00G 7783  11.373  10.811   9.484 -1.1034 -0.4962 -2.3793
   424G12c C01R 7784  11.280  10.994   9.552  0.2342 -1.1025 -1.8621
   424G12c H00F 7785  11.189  11.052   9.549  1.4173  0.8432 -1.3231
   424G12c C01S 7786  11.399  11.039   9.614  1.4580  1.4382  0.4425
   424G12c H00E 7787  11.409  11.080   9.715  1.1856 -0.6024  1.3182
   424G12c H00D 7788  11.474  10.968   9.581 -0.0788  0.7285 -1.6573
   424G12c O005 7789  11.477  11.147   9.565 -0.3004 -0.3905  0.4584
   424G12c H00C 7790  11.505  11.114   9.481 -3.3056 -4.0282  0.7290
   424G12c C01O 7791  11.134  10.957   9.304  0.9603  0.1815  0.3104
   424G12c H00H 7792  11.197  11.044   9.294  0.1852  0.4805 -2.4519
   424G12c C01N 7793  11.015  10.929   9.220 -0.8491 -0.5295  0.2385
   424G12c O006 7794  10.938  11.024   9.150  1.4213 -0.5204 -1.0526
   424G12c C01T 7795  11.004  11.081   9.034 -0.2164 -0.9153  1.5530
   424G12c H00K 7796  11.111  11.090   9.018  1.2133 -8.3959  4.6318
   424G12c H00J 7797  10.964  11.179   9.059  1.8861 -0.3211  2.6688
   424G12c H00I 7798  10.929  11.036   8.968  0.1934  2.7262 -1.5703
   424G12c C01M 7799  10.945  10.809   9.243 -0.5680 -0.3586  1.8946
   424G12c C020 7800  10.900  10.348   9.432  0.8139 -0.1810 -0.9730
   424G12c C021 7801  10.760  10.367   9.393  1.8190 -0.4238  1.2497
   424G12c C01L 7802  10.993  10.706   9.323  0.8998 -0.0194  0.2138
   424G12c O007 7803  10.827  10.799   9.170 -0.0758 -0.7073 -0.6455
   424G12c C022 7804  10.718  10.462   9.303 -0.4714 -1.3642  0.2461
   424G12c C023 7805  10.698  10.266   9.347  1.3992  2.1017  1.2073
   424G12c C00G 7806  10.570  10.069   9.201  1.8866 -0.4071  1.0802
   424G12c C00E 7807  10.380   9.965   9.087 -0.4389 -0.9664  1.1531
   424G12c O00A 7808  10.310   9.852   9.071  0.6705 -1.3766 -1.5300
   424G12c C024 7809  10.216   9.803   9.185 -0.5099 -0.5853 -1.0327
   424G12c H00V 7810  10.147   9.732   9.139 -1.7424 -2.4681  3.5388
   424G12c H00U 7811  10.167   9.887   9.234  1.3226 -0.2109  0.2066
   424G12c H00T 7812  10.271   9.775   9.274 -5.4390 -0.4144  2.2537
   434G12c C00D 7813   2.309   8.756   8.969 -0.8692 -0.7827  0.4109
   434G12c O00B 7814   2.177   8.776   8.964  0.6775 -0.4392  0.0530
   434G12c C025 7815   2.102   8.675   9.030  0.8262  0.3048  1.3522
   434G12c C026 7816   2.029   8.556   8.951  0.2013  0.5292 -0.2850
   434G12c H00Y 7817   1.921   8.568   8.935 -0.5080 -1.7686  2.3555
   434G12c H00X 7818   2.049   8.461   9.000 -3.4163 -0.4724 -0.6123
   434G12c O00C 7819   2.095   8.519   8.825 -1.8671  0.2703 -0.7897
   434G12c H00W 7820   2.061   8.439   8.789 -3.5213 -0.8725  3.0100
   434G12c C027 7821   2.085   8.679   9.158  1.2798  0.6361 -1.1989
   434G12c O00D 7822   2.135   8.775   9.247  0.2122 -0.5459  0.7400
   434G12c H00Z 7823   2.220   8.801   9.216 -0.5115  2.4790  1.1253
   434G12c C028 7824   1.996   8.570   9.201  0.0130 -0.5773 -1.6078
   434G12c C029 7825   2.024   8.463   9.290 -0.1439  0.0685 -1.1307
   434G12c H010 7826   2.126   8.469   9.325  0.8892 -3.8000 -3.2005
   434G12c C02T 7827   1.961   8.339   9.298  0.0011  0.2381 -0.7224
   434G12c H01O 7828   1.991   8.248   9.348 -4.1967  1.5857  4.7547
   434G12c C02S 7829   1.837   8.331   9.230 -1.5020  1.0777  1.0736
   434G12c O00J 7830   1.782   8.201   9.236 -1.3860 -0.5964 -0.6514
   434G12c H01P 7831   1.713   8.238   9.290  0.0036  0.4343  0.4573
   434G12c C02R 7832   1.772   8.443   9.179 -0.5134 -2.9082  0.1514
   434G12c O00I 7833   1.644   8.436   9.129 -0.1209 -1.1216 -0.3896
   434G12c C02Q 7834   1.589   8.555   9.062  0.2074 -0.7230  0.3291
   434G12c H01N 7835   1.488   8.539   9.025  0.1896  0.2655 -0.0714
   434G12c H01R 7836   1.637   8.595   8.972  0.1577 -0.4278  0.4331
   434G12c H01Q 7837   1.594   8.652   9.113  6.6889  0.9137 -2.9262
   434G12c C02A 7838   1.849   8.566   9.173 -1.0158 -2.9840 -0.8666
   434G12c H011 7839   1.794   8.642   9.118 -4.8376 -8.4039 -5.0454
   434G12c C00C 7840   2.367   8.635   8.985  0.3368 -0.6680  0.2922
   434G12c H012 7841   2.294   8.555   8.992 -6.0777  4.6249 -1.2841
   434G12c C00B 7842   2.492   8.619   8.944 -1.2694 -1.0852  0.7311
   434G12c C00A 7843   2.578   8.502   8.912  1.6395 -0.1198 -0.1244
   434G12c C009 7844   2.563   8.362   8.964 -1.2745  0.0653  0.1097
   434G12c C008 7845   2.476   8.317   9.068  0.3996 -1.5568 -1.1370
   434G12c H013 7846   2.374   8.344   9.085 -0.6066 -6.3115  1.2678
   434G12c C007 7847   2.523   8.183   9.098 -0.9680 -0.1892  0.0256
   434G12c H014 7848   2.469   8.151   9.186 -0.5938 -1.9725 -0.3852
   434G12c C006 7849   2.634   8.108   9.056 -0.5710 -0.1623 -0.7031
   434G12c C005 7850   2.722   8.178   8.972 -1.3454  0.7446  0.6191
   434G12c C004 7851   2.856   8.132   8.969 -0.4320 -0.7640  0.2130
   434G12c C003 7852   2.945   8.226   8.914  0.6545  0.8141  0.7664
   434G12c C002 7853   3.085   8.204   8.939  1.2710 -0.5996 -0.9579
   434G12c C001 7854   3.206   8.280   8.910  2.0133  1.3667  0.6206
   434G12c C00M 7855   3.219   8.397   8.977  1.1720  0.6395  1.5003
   434G12c C00L 7856   3.116   8.509   8.950  0.4508 -0.2290 -0.6272
   434G12c C00R 7857   3.121   8.642   9.003 -1.3538  0.9839  1.5651
   434G12c C00Q 7858   3.205   8.695   9.105 -0.0873 -0.2226  0.3151
   434G12c C00V 7859   3.143   8.820   9.145 -2.4144 -0.5817  1.1340
   434G12c C00U 7860   3.022   8.878   9.106 -1.5649 -0.6489 -0.3972
   434G12c C00T 7861   2.940   8.805   9.040 -0.0747  0.5758 -0.0336
   434G12c C016 7862   2.809   8.829   8.997 -1.4304 -1.2972 -0.4453
   434G12c C015 7863   2.751   8.933   9.066 -0.7641 -0.4984  1.7637
   434G12c C010 7864   2.829   9.024   9.126 -0.2097  1.7493 -0.3208
   434G12c C011 7865   2.760   9.123   9.203 -1.4726  0.9013 -0.4823
   434G12c H005 7866   2.819   9.159   9.286  6.8516 -0.5906 -5.2021
   434G12c C012 7867   2.623   9.129   9.224  0.4783 -0.1130  0.7088
   434G12c C017 7868   2.556   9.248   9.283 -1.2116 -0.7616  1.2793
   434G12c O002 7869   2.484   9.316   9.197  0.7099 -0.2596 -0.3999
   434G12c H004 7870   2.536   9.386   9.160  1.0945 -0.3150  0.0276
   434G12c C018 7871   2.589   9.298   9.401  1.1353  0.2966 -0.8354
   434G12c O001 7872   2.689   9.250   9.475  0.4192  0.5275  0.6534
   434G12c H003 7873   2.774   9.286   9.496 -2.2920  4.6022  5.7678
   434G12c C019 7874   2.505   9.406   9.474  1.9269  0.9154 -1.6526
   434G12c H002 7875   2.568   9.488   9.439  2.6232  0.4017 -1.6224
   434G12c H001 7876   2.398   9.397   9.457  1.6706 -4.8487  1.7310
   434G12c O000 7877   2.537   9.382   9.602 -1.1765  0.7850 -2.0641
   434G12c C01A 7878   2.503   9.476   9.691  0.9725  1.6864  1.3602
   434G12c C02K 7879   2.403   9.436   9.788 -1.5728 -2.4695  2.9620
   434G12c O00G 7880   2.384   9.310   9.832  1.0405 -0.3014 -0.6834
   434G12c C02M 7881   2.498   9.257   9.912 -1.2964  0.6204 -0.3717
   434G12c H01G 7882   2.523   9.151   9.903  3.9487  2.0411 -6.5288
   434G12c H01F 7883   2.524   9.300  10.009  1.7941 -0.2073 -0.7731
   434G12c H01E 7884   2.571   9.317   9.858 -3.4316  2.4149 -1.3579
   434G12c C02J 7885   2.331   9.537   9.867  0.2464 -0.4933  1.4174
   434G12c H01H 7886   2.249   9.504   9.929 -3.0086 -0.5812 -2.6791
   434G12c C02I 7887   2.376   9.683   9.874  0.0225 -0.2033  0.1446
   434G12c C02N 7888   2.307   9.767   9.967  0.7816  0.4802 -0.2847
   434G12c H01M 7889   2.228   9.730  10.031  2.2820 -5.7365 -1.6854
   434G12c C02O 7890   2.371   9.883  10.014 -0.8361 -0.6259  1.1093
   434G12c H01L 7891   2.465   9.891   9.962 -0.6765 -1.4295  1.2598
   434G12c C02P 7892   2.339   9.982  10.121  1.7031  0.8940  0.9050
   434G12c H01K 7893   2.241   9.985  10.168  1.0860  4.2485 -0.4851
   434G12c H01J 7894   2.315  10.083  10.089 -1.6278 -0.9847 -2.9611
   434G12c O00H 7895   2.419   9.990  10.240  2.2480 -0.6747  1.1130
   434G12c H01I 7896   2.380  10.039  10.311  1.5250 -6.3046  4.9024
   434G12c C02H 7897   2.464   9.710   9.764 -0.5863 -0.3960  2.0422
   434G12c H01C 7898   2.475   9.812   9.732 -0.0194 -0.0862  3.2006
   434G12c C02L 7899   2.530   9.608   9.681 -1.2704 -0.7060  0.4352
   434G12c H01D 7900   2.584   9.665   9.607 -3.8677 -0.5288 -1.4095
   434G12c C013 7901   2.540   9.042   9.132  0.0025 -1.3920 -0.9134
   434G12c H000 7902   2.433   9.057   9.134  0.2191  0.2385  0.6691
   434G12c C014 7903   2.618   8.953   9.057  0.9653 -0.5998 -1.9407
   434G12c C00F 7904   2.543   8.856   8.997  0.9312  0.2905  1.0879
   434G12c C00H 7905   2.731   8.724   8.944  0.3835 -1.3277 -0.6982
   434G12c C00I 7906   2.788   8.620   8.881 -0.2776  1.0430 -0.0488
   434G12c C00J 7907   2.929   8.609   8.902 -1.3122 -0.2969 -0.0175
   434G12c C00Z 7908   2.972   8.992   9.146 -1.1420  0.3728 -0.7678
   434G12c C00Y 7909   3.051   9.055   9.241 -1.1110  0.3890  1.4826
   434G12c H006 7910   2.994   9.108   9.316 -5.7989  1.4395 -2.5582
   434G12c C00X 7911   3.182   9.023   9.291  0.5910 -0.5523  0.2582
   434G12c O003 7912   3.265   9.088   9.393 -0.6522  0.6089  0.7962
   434G12c C01B 7913   3.186   9.071   9.510 -0.0370  1.2053 -1.2371
   434G12c H009 7914   3.107   9.146   9.508 -3.2259 -1.9525  1.0355
   434G12c H008 7915   3.246   9.084   9.600  1.4182 -3.3278 -1.4175
   434G12c H007 7916   3.131   8.977   9.509 -2.1231  2.3483  1.3756
   434G12c C00W 7917   3.229   8.894   9.235  0.4517 -0.6592  0.1982
   434G12c O004 7918   3.340   8.874   9.265 -0.8278 -0.2357  1.4827
   434G12c C01C 7919   3.399   8.742   9.254  1.0013 -1.8003 -0.4274
   434G12c H00A 7920   3.505   8.729   9.270  2.0523  3.4779 -1.8549
   434G12c C00P 7921   3.327   8.651   9.171 -1.0622  0.0586 -0.5140
   434G12c C00O 7922   3.369   8.511   9.157 -0.3263  3.1162 -2.0043
   434G12c C01D 7923   3.463   8.474   9.250  0.6397  1.9099  0.7230
   434G12c H00S 7924   3.522   8.529   9.321  3.6372 -3.0691  2.3869
   434G12c C01E 7925   3.459   8.327   9.298  0.2339 -2.0041  0.2822
   434G12c O008 7926   3.494   8.287   9.423  0.1887 -0.2609  0.5464
   434G12c C01V 7927   3.630   8.334   9.462  0.4957 -1.1966  0.6773
   434G12c C01Z 7928   3.732   8.357   9.352 -0.3013 -0.0983 -0.4601
   434G12c H00R 7929   3.698   8.311   9.259  6.9054  1.4808 -4.1969
   434G12c H00Q 7930   3.750   8.462   9.328  6.4782  1.3419  8.2707
   434G12c O009 7931   3.874   8.299   9.399  0.0672 -0.6140  0.3668
   434G12c H00P 7932   3.843   8.249   9.472 -0.4027 -2.5205 -1.0898
   434G12c C01W 7933   3.664   8.402   9.581  1.7124 -1.0277  0.1120
   434G12c H00O 7934   3.589   8.416   9.657  0.5856  3.0077 -1.5568
   434G12c C01X 7935   3.793   8.483   9.599  0.5578  0.1351 -0.4519
   434G12c H00N 7936   3.821   8.472   9.704-10.8195  8.5869  4.4943
   434G12c H00M 7937   3.875   8.471   9.528 -2.3355 -3.5497 -3.4518
   434G12c C01Y 7938   3.780   8.637   9.603 -1.0818 -0.4742 -0.1508
   434G12c C02D 7939   3.839   8.732   9.521  0.1317  1.1582 -0.1269
   434G12c H019 7940   3.891   8.711   9.428  0.9789  0.9947  0.3777
   434G12c C02C 7941   3.805   8.861   9.530  0.3658 -1.8004  1.0184
   434G12c H01A 7942   3.867   8.923   9.467 -1.9939 -0.6826 -0.2673
   434G12c C02B 7943   3.706   8.907   9.631 -0.3400 -0.1854 -0.4904
   434G12c O00E 7944   3.717   9.031   9.675  1.0592  0.9252  0.7494
   434G12c H01B 7945   3.739   9.024   9.766 -8.8953  2.3355  3.8970
   434G12c C02F 7946   3.651   8.822   9.724 -0.0067  0.6895  0.9867
   434G12c O00F 7947   3.588   8.888   9.831 -0.8581  0.1209  1.2156
   434G12c C02G 7948   3.550   8.825   9.964 -0.2595 -0.8890  1.0290
   434G12c H017 7949   3.470   8.758   9.934 -3.7779  0.2455  7.0992
   434G12c H016 7950   3.509   8.904  10.027 -3.4414  0.4714 -2.5363
   434G12c H015 7951   3.649   8.790   9.992  3.5071  2.0047 -7.1840
   434G12c C02E 7952   3.685   8.691   9.700 -1.6977 -0.5891  0.1994
   434G12c H018 7953   3.661   8.616   9.773 -3.6709 -0.9520 -0.7916
   434G12c C01F 7954   3.405   8.237   9.215 -2.2265  0.9946  0.9144
   434G12c C01G 7955   3.378   8.106   9.250  2.0916 -0.1947  0.8152
   434G12c H00L 7956   3.423   8.074   9.343  0.8322 -3.1256  0.4820
   434G12c C01H 7957   3.285   8.036   9.182 -0.3307  0.2569 -1.2281
   434G12c H00B 7958   3.240   7.954   9.237  1.6904 -0.0784 -0.0118
   434G12c C01I 7959   3.242   8.082   9.053 -0.1604  1.4866 -0.8686
   434G12c C01U 7960   3.373   8.278   9.078  0.3282 -0.1532 -0.6586
   434G12c C00S 7961   2.994   8.698   8.980  0.6898  0.9049 -0.6436
   434G12c C00K 7962   2.998   8.478   8.883 -1.7854  0.7262  0.0872
   434G12c C00N 7963   3.321   8.408   9.079 -0.5395 -0.3807  2.4031
   434G12c C000 7964   3.292   8.196   8.989  2.3694  0.4665  0.6058
   434G12c C01J 7965   3.113   8.073   8.992  0.9669 -0.0797  1.3126
   434G12c C01K 7966   3.004   7.967   9.034 -0.9267  0.3495  1.0005
   434G12c C01P 7967   3.025   7.821   9.058  0.6316 -1.2449 -1.2176
   434G12c C01Q 7968   3.131   7.751   8.974 -0.4844 -0.9606 -0.3391
   434G12c H00G 7969   3.214   7.701   9.021 -1.4569 -2.9709 -0.7144
   434G12c C01R 7970   3.134   7.791   8.840  0.1469  0.8685  0.5011
   434G12c H00F 7971   3.060   7.858   8.798  2.8427  3.1795 -0.7849
   434G12c C01S 7972   3.246   7.726   8.787 -0.6361 -1.3157  0.5553
   434G12c H00E 7973   3.323   7.732   8.864 -2.2825  1.8497  2.0562
   434G12c H00D 7974   3.190   7.633   8.790  1.7307 -2.7428  2.6433
   434G12c O005 7975   3.270   7.806   8.662  0.3468  0.5170  0.5753
   434G12c H00C 7976   3.299   7.896   8.657  1.6026  0.0467 -0.8679
   434G12c C01O 7977   2.924   7.746   9.122  0.8669 -0.3678  0.1314
   434G12c H00H 7978   2.956   7.643   9.129  3.3133  0.0718 -3.5114
   434G12c C01N 7979   2.801   7.808   9.158  0.2215  0.4210 -1.1489
   434G12c O006 7980   2.715   7.747   9.245  0.2209 -1.7556  1.5018
   434G12c C01T 7981   2.753   7.755   9.374  0.0870  1.3501  0.5589
   434G12c H00K 7982   2.836   7.813   9.414  1.0696  0.2580  0.1326
   434G12c H00J 7983   2.775   7.649   9.362 -3.5293  0.9084 -3.2272
   434G12c H00I 7984   2.660   7.781   9.424  0.4662 -4.3469  4.7698
   434G12c C01M 7985   2.774   7.927   9.083  1.8596 -1.0314 -0.6119
   434G12c C020 7986   2.908   8.365   8.873 -0.5791  0.2466  0.8908
   434G12c C021 7987   2.766   8.378   8.831 -0.7905 -0.8082  0.0106
   434G12c C01L 7988   2.872   8.004   9.023 -0.3708  0.9900  0.3283
   434G12c O007 7989   2.657   7.977   9.101  0.2605  2.0272  0.7271
   434G12c C022 7990   2.680   8.297   8.907 -0.7160 -0.6520  1.5749
   434G12c C023 7991   2.704   8.508   8.844 -1.8306 -1.1742  1.0200
   434G12c C00G 7992   2.587   8.722   8.960  0.6197 -0.3189  1.0905
   434G12c C00E 7993   2.402   8.870   8.971 -1.6486  0.4925  0.2614
   434G12c O00A 7994   2.372   8.996   8.942  0.0516  2.0365  0.7957
   434G12c C024 7995   2.241   9.053   8.924  0.2258  0.6326 -0.4652
   434G12c H00V 7996   2.236   9.082   9.029  2.1746 -4.7610  1.3122
   434G12c H00U 7997   2.162   8.982   8.897  1.5932  0.4478 -4.2038
   434G12c H00T 7998   2.266   9.145   8.873  0.2438  0.4677 -0.7549
   444G12c C00D 7999   8.655   6.928   3.981  0.5412 -1.0258  0.7496
   444G12c O00B 8000   8.614   6.866   3.869  0.6522  0.4674  0.4649
   444G12c C025 8001   8.703   6.802   3.783 -0.2332  2.0416 -0.2182
   444G12c C026 8002   8.749   6.667   3.834 -0.7279  0.9791  1.6543
   444G12c H00Y 8003   8.848   6.653   3.877 -1.7546 -3.2137  2.8850
   444G12c H00X 8004   8.694   6.608   3.760 -2.4670  3.7227  0.6879
   444G12c O00C 8005   8.660   6.622   3.936  0.5314 -0.5429  0.4980
   444G12c H00W 8006   8.712   6.549   3.967 -2.3632 -2.4276  1.1255
   444G12c C027 8007   8.734   6.845   3.667  1.2650 -0.1772  0.0114
   444G12c O00D 8008   8.681   6.979   3.618  1.3207 -0.6164 -1.6024
   444G12c H00Z 8009   8.675   6.974   3.524  1.1666 -3.1656 -1.4677
   444G12c C028 8010   8.839   6.792   3.580 -0.7049 -0.3693 -0.9706
   444G12c C029 8011   8.827   6.755   3.436  0.4933 -0.0475  0.3013
   444G12c H010 8012   8.745   6.766   3.366  3.3095 -1.0475 -3.3219
   444G12c C02T 8013   8.936   6.720   3.348 -0.4668  1.4091 -1.0107
   444G12c H01O 8014   8.933   6.669   3.253 -6.9600 -0.9299  0.1835
   444G12c C02S 8015   9.066   6.701   3.414  0.2236 -0.3674 -0.9345
   444G12c O00J 8016   9.158   6.690   3.316  1.2332 -2.0432 -0.1542
   444G12c H01P 8017   9.138   6.690   3.224 -1.0479  5.6850 -0.0198
   444G12c C02R 8018   9.067   6.735   3.546 -0.9698 -1.1856 -1.7554
   444G12c O00I 8019   9.193   6.707   3.603 -1.3740  0.1114  0.2256
   444G12c C02Q 8020   9.225   6.684   3.737  0.1705  0.8588 -1.1741
   444G12c H01N 8021   9.275   6.767   3.787 -3.2029  1.5239  1.3279
   444G12c H01R 8022   9.133   6.675   3.796  1.1038 -2.6133 -0.1349
   444G12c H01Q 8023   9.276   6.588   3.743  2.9876  2.4480  2.0334
   444G12c C02A 8024   8.968   6.810   3.614 -2.3885  0.3651  1.0995
   444G12c H011 8025   8.987   6.830   3.719 -3.3666  2.0927  0.9541
   444G12c C00C 8026   8.764   6.885   4.080 -0.9807  2.0375  2.0453
   444G12c H012 8027   8.800   6.785   4.060 -1.9070  2.5023 -2.6920
   444G12c C00B 8028   8.791   6.939   4.190 -0.8626 -0.8469  0.5114
   444G12c C00A 8029   8.876   6.904   4.301  1.1625  2.3683 -0.1392
   444G12c C009 8030   8.891   6.782   4.363 -0.1531 -1.0822 -1.0826
   444G12c C008 8031   8.844   6.662   4.350  0.8128  0.7793 -0.3248
   444G12c H013 8032   8.810   6.638   4.251  4.7344  5.2005 -2.9440
   444G12c C007 8033   8.802   6.592   4.456  0.7334 -0.6680 -0.8215
   444G12c H014 8034   8.761   6.494   4.437 -0.6347 -1.2929  4.6353
   444G12c C006 8035   8.828   6.612   4.591 -0.3346  0.5307 -2.4605
   444G12c C005 8036   8.896   6.739   4.599  1.0962  0.7837 -0.3290
   444G12c C004 8037   8.924   6.797   4.720  0.3795 -0.3239 -2.2308
   444G12c C003 8038   8.973   6.922   4.728  0.3241 -2.2278  1.2599
   444G12c C002 8039   8.989   6.988   4.862 -0.7402 -0.1532  0.4696
   444G12c C001 8040   9.010   7.116   4.927 -1.1593 -0.2528  1.8676
   444G12c C00M 8041   8.919   7.218   4.893  0.1676  0.3931 -1.2642
   444G12c C00L 8042   8.923   7.260   4.751  0.9740  0.9064 -1.2297
   444G12c C00R 8043   8.815   7.340   4.695  0.2583  0.0561 -0.8962
   444G12c C00Q 8044   8.718   7.406   4.769  0.5802 -1.3068 -0.0272
   444G12c C00V 8045   8.612   7.450   4.669 -0.9522  1.8911  0.6547
   444G12c C00U 8046   8.611   7.415   4.534  1.4717 -0.1292 -0.3657
   444G12c C00T 8047   8.690   7.328   4.474 -1.8181 -0.1513 -0.0783
   444G12c C016 8048   8.672   7.258   4.352 -1.0760  0.8462  0.3902
   444G12c C015 8049   8.573   7.294   4.268  0.0880 -0.2526 -2.5410
   444G12c C010 8050   8.521   7.420   4.298 -0.4652  0.2618 -1.0519
   444G12c C011 8051   8.437   7.475   4.199 -0.6433  0.4472  0.4345
   444G12c H005 8052   8.370   7.560   4.209  1.7842  2.6889 -1.4722
   444G12c C012 8053   8.462   7.443   4.047  0.3330  0.4439 -2.1618
   444G12c C017 8054   8.409   7.528   3.944  0.5003  0.5458 -1.0994
   444G12c O002 8055   8.299   7.599   3.975  0.0332  0.2586 -0.4510
   444G12c H004 8056   8.266   7.630   4.058 -2.8885 -3.5878 -0.0450
   444G12c C018 8057   8.474   7.524   3.838 -0.1962 -0.4951  0.6033
   444G12c O001 8058   8.609   7.551   3.820  0.1128 -0.7429 -1.1817
   444G12c H003 8059   8.633   7.469   3.779  6.5648  2.4173 -4.3630
   444G12c C019 8060   8.383   7.544   3.712  1.0819 -0.2935  0.2588
   444G12c H002 8061   8.275   7.548   3.730  1.3718  2.8734  1.7580
   444G12c H001 8062   8.382   7.653   3.713  4.6698 -0.1862  2.1954
   444G12c O000 8063   8.428   7.479   3.587  0.9404 -1.7043 -0.3373
   444G12c C01A 8064   8.347   7.497   3.478  0.0280  0.4336 -1.3053
   444G12c C02K 8065   8.322   7.631   3.422 -0.4049  1.0172  0.5199
   444G12c O00G 8066   8.327   7.752   3.475  0.4548 -1.0160 -1.4400
   444G12c C02M 8067   8.372   7.870   3.431 -1.1957  1.5112  1.4029
   444G12c H01G 8068   8.352   7.886   3.325 -3.7389 -2.5654  1.1722
   444G12c H01F 8069   8.480   7.871   3.449 -0.7158 -4.1726 -0.3622
   444G12c H01E 8070   8.321   7.955   3.479 -5.4432  1.4862 -2.7366
   444G12c C02J 8071   8.237   7.615   3.314 -2.0913  0.2827  2.2831
   444G12c H01H 8072   8.207   7.705   3.262  4.2473  1.3760  0.1865
   444G12c C02I 8073   8.207   7.497   3.243 -0.4410  2.0776 -1.3967
   444G12c C02N 8074   8.164   7.514   3.101 -1.2761 -0.2047  1.0553
   444G12c H01M 8075   8.159   7.614   3.060  3.8786 -0.6321 -0.9943
   444G12c C02O 8076   8.134   7.391   3.040 -0.3607  1.3844  0.6668
   444G12c H01L 8077   8.140   7.301   3.099  1.7621  1.1764  0.1434
   444G12c C02P 8078   8.104   7.369   2.912  0.1680  0.2098 -0.1582
   444G12c H01K 8079   8.184   7.304   2.877  1.8762  3.0649 -1.7998
   444G12c H01J 8080   8.005   7.323   2.902  2.0449 -5.6216  4.8530
   444G12c O00H 8081   8.151   7.493   2.834  0.1068  0.1939  0.6126
   444G12c H01I 8082   8.242   7.480   2.815 -0.3374  1.3774 -2.5921
   444G12c C02H 8083   8.226   7.377   3.314  0.0214 -0.0085 -0.3709
   444G12c H01C 8084   8.192   7.277   3.290  4.3294 -1.0769 -2.6243
   444G12c C02L 8085   8.299   7.379   3.429  0.5306 -0.0507 -1.4110
   444G12c H01D 8086   8.318   7.299   3.498  2.5321  0.8145 -0.9407
   444G12c C013 8087   8.553   7.336   4.028  0.8157 -0.4081 -1.6329
   444G12c H000 8088   8.597   7.313   3.932  0.7654 -1.3366 -1.4322
   444G12c C014 8089   8.581   7.246   4.139 -0.8591  0.0237 -0.6636
   444G12c C00F 8090   8.636   7.125   4.120 -2.7419  1.0252 -1.4950
   444G12c C00H 8091   8.764   7.159   4.314 -0.1782  0.4517  0.4438
   444G12c C00I 8092   8.864   7.132   4.405  0.7662  0.0885 -1.4316
   444G12c C00J 8093   8.891   7.208   4.520  0.7336  0.7015  0.0892
   444G12c C00Z 8094   8.529   7.477   4.440  1.3452  0.1766 -0.1143
   444G12c C00Y 8095   8.466   7.596   4.483 -0.3822 -2.9377 -0.1339
   444G12c H006 8096   8.404   7.650   4.413 -3.3423 -1.5247  3.4523
   444G12c C00X 8097   8.456   7.624   4.620  0.5387 -1.1286  0.6940
   444G12c O003 8098   8.377   7.715   4.668  2.3788  0.7386  0.0672
   444G12c C01B 8099   8.244   7.693   4.684  0.3131 -1.5504  2.3234
   444G12c H009 8100   8.208   7.791   4.713  3.6995 -0.4330  2.9559
   444G12c H008 8101   8.210   7.648   4.777 -0.7150 -1.9226  1.7757
   444G12c H007 8102   8.210   7.688   4.580 -0.2074  1.1171  2.3291
   444G12c C00W 8103   8.531   7.555   4.714 -0.2860 -0.7327 -1.7435
   444G12c O004 8104   8.513   7.603   4.843 -0.4948 -0.4506 -0.3177
   444G12c C01C 8105   8.603   7.560   4.944  0.4618 -0.0364 -0.4690
   444G12c H00A 8106   8.594   7.591   5.047  5.5389 -4.5339  1.5865
   444G12c C00P 8107   8.686   7.442   4.904  0.8906 -0.2780  0.3239
   444G12c C00O 8108   8.753   7.376   5.019  0.2783 -1.2903 -0.8593
   444G12c C01D 8109   8.732   7.377   5.161 -1.5979  0.5204  2.3160
   444G12c H00S 8110   8.647   7.434   5.195 -2.7803  0.8058 -0.9302
   444G12c C01E 8111   8.761   7.281   5.257 -0.4798 -0.5397 -1.2952
   444G12c O008 8112   8.696   7.295   5.374 -0.7124  0.7980 -0.0895
   444G12c C01V 8113   8.712   7.415   5.454  0.9452 -2.0774  0.0227
   444G12c C01Z 8114   8.571   7.463   5.483  1.2690 -0.6136 -0.7634
   444G12c H00R 8115   8.489   7.407   5.437  4.0845 -6.5272  0.8942
   444G12c H00Q 8116   8.555   7.440   5.588  0.2839 -2.3561 -1.2746
   444G12c O009 8117   8.558   7.597   5.482  0.7241  0.5231  0.1769
   444G12c H00P 8118   8.477   7.604   5.436 -0.1023  1.1351  1.6818
   444G12c C01W 8119   8.817   7.433   5.524 -0.5434  0.9557  2.0257
   444G12c H00O 8120   8.907   7.374   5.520 -2.2466 -1.5975  0.3745
   444G12c C01X 8121   8.860   7.534   5.610 -0.8039  0.3599 -1.0836
   444G12c H00N 8122   8.951   7.569   5.560  1.4084 -6.1168 -1.9510
   444G12c H00M 8123   8.782   7.610   5.625 -2.3002 -1.4786  0.6008
   444G12c C01Y 8124   8.854   7.476   5.752 -0.1281  0.4406  1.0181
   444G12c C02D 8125   8.961   7.384   5.766 -1.5190  1.8879  0.9976
   444G12c H019 8126   9.038   7.397   5.691 -0.8304  1.4205  1.6304
   444G12c C02C 8127   8.939   7.275   5.856 -0.2995 -0.2033  0.2551
   444G12c H01A 8128   8.989   7.181   5.838  0.9041  0.2023  1.4034
   444G12c C02B 8129   8.844   7.283   5.968  0.1837  0.4963 -1.3615
   444G12c O00E 8130   8.825   7.202   6.078  0.2708 -0.6602 -0.5535
   444G12c H01B 8131   8.740   7.234   6.102  1.3321  1.5324  0.4503
   444G12c C02F 8132   8.754   7.393   5.962  0.7034 -0.3076 -0.8407
   444G12c O00F 8133   8.662   7.398   6.068  0.5935  0.8885  1.1006
   444G12c C02G 8134   8.570   7.507   6.092 -0.5123  0.0834 -1.2454
   444G12c H017 8135   8.534   7.470   6.188  2.2626 -3.5695 -1.4554
   444G12c H016 8136   8.530   7.512   5.991 -6.5713 -1.4549  0.8684
   444G12c H015 8137   8.632   7.583   6.139 -7.4909  4.0030  2.4031
   444G12c C02E 8138   8.754   7.486   5.853  1.3183  1.2013  0.7213
   444G12c H018 8139   8.680   7.564   5.839  1.9776  1.3610 -2.2724
   444G12c C01F 8140   8.843   7.174   5.220  0.2517 -0.4091  2.3316
   444G12c C01G 8141   8.864   7.045   5.290 -0.9370 -0.7183 -0.1578
   444G12c H00L 8142   8.847   7.005   5.388  7.1230  4.8145  4.0793
   444G12c C01H 8143   8.935   6.942   5.224 -0.6471  0.4044  0.3461
   444G12c H00B 8144   8.890   6.855   5.270 -2.6828  0.0134 -2.2839
   444G12c C01I 8145   9.008   6.978   5.110  0.5569 -0.0013  0.7460
   444G12c C01U 8146   8.908   7.192   5.096  2.5294  0.5372 -0.9114
   444G12c C00S 8147   8.795   7.295   4.562 -0.9934  0.0537 -0.0752
   444G12c C00K 8148   8.948   7.159   4.639 -1.9059  0.0191  1.8064
   444G12c C00N 8149   8.852   7.273   4.997  0.7377 -0.3242  0.2451
   444G12c C000 8150   9.022   7.112   5.062  1.4017  1.3574 -1.3866
   444G12c C01J 8151   8.998   6.893   4.968  0.4952 -1.5473 -0.1438
   444G12c C01K 8152   8.978   6.751   4.966 -0.2866 -0.4084  0.6966
   444G12c C01P 8153   9.005   6.648   5.056 -0.9192 -0.6892  0.1944
   444G12c C01Q 8154   9.094   6.664   5.169  1.0252  0.1283 -1.3272
   444G12c H00G 8155   9.091   6.613   5.264 -3.2772 -1.2018 -2.0536
   444G12c C01R 8156   9.209   6.728   5.142 -0.4536  0.4436  0.1605
   444G12c H00F 8157   9.239   6.774   5.049  1.3100  0.1391  0.5465
   444G12c C01S 8158   9.333   6.752   5.245  0.1545 -0.3371  0.3018
   444G12c H00E 8159   9.432   6.770   5.201 -0.1737  8.0301  2.1130
   444G12c H00D 8160   9.302   6.826   5.319  1.1588 -0.6247  1.0299
   444G12c O005 8161   9.332   6.647   5.366 -0.6796 -0.0556 -0.8303
   444G12c H00C 8162   9.261   6.668   5.425  4.4530 -2.2289  6.9206
   444G12c C01O 8163   8.937   6.532   5.049 -0.7940  0.9478  0.2502
   444G12c H00H 8164   8.941   6.468   5.136  0.5550  2.6770  1.5023
   444G12c C01N 8165   8.881   6.485   4.935  0.9303  0.3081 -0.8225
   444G12c O006 8166   8.822   6.374   4.930 -0.0646  0.8667  0.8401
   444G12c C01T 8167   8.868   6.241   4.966 -0.3067  0.1506 -2.4859
   444G12c H00K 8168   8.909   6.274   5.062 -3.6805 -5.9824  1.4024
   444G12c H00J 8169   8.780   6.177   4.972  1.2367 -2.1801 -4.0813
   444G12c H00I 8170   8.954   6.190   4.923 -0.6466 -0.7037 -2.1623
   444G12c C01M 8171   8.869   6.581   4.833 -1.5874  0.0716  0.7746
   444G12c C020 8172   8.982   7.023   4.625 -1.9729  2.1952 -0.2232
   444G12c C021 8173   8.979   6.949   4.495 -0.9224  1.1233  0.1611
   444G12c C01L 8174   8.912   6.718   4.842  0.1041  0.7780  0.6264
   444G12c O007 8175   8.813   6.533   4.716  0.4862 -1.0053 -0.7036
   444G12c C022 8176   8.944   6.815   4.498  0.9958  0.6362 -1.8502
   444G12c C023 8177   8.934   7.012   4.369  0.7572  0.8302 -3.4339
   444G12c C00G 8178   8.735   7.072   4.203 -0.5050 -0.9845 -1.0491
   444G12c C00E 8179   8.590   7.049   4.002  2.2682  1.2312 -0.1892
   444G12c O00A 8180   8.459   7.072   3.932  0.6303 -0.9571 -1.1577
   444G12c C024 8181   8.466   7.115   3.792  0.4892 -0.6145  0.3650
   444G12c H00V 8182   8.571   7.139   3.772  0.2805  0.2466  0.2977
   444G12c H00U 8183   8.387   7.181   3.757 -0.5744  1.0476  5.5423
   444G12c H00T 8184   8.480   7.018   3.743 -1.5979 -1.2316  0.9749
   454G12c C00D 8185   8.681   7.395   8.004 -1.3530 -0.8010 -0.3638
   454G12c O00B 8186   8.734   7.414   7.882  0.7533 -0.6875  0.0547
   454G12c C025 8187   8.737   7.305   7.793 -1.1503  0.4023 -0.0951
   454G12c C026 8188   8.603   7.294   7.720 -0.9854 -0.1463  0.5895
   454G12c H00Y 8189   8.617   7.203   7.661 -2.7766 -0.6193  0.8544
   454G12c H00X 8190   8.538   7.269   7.804  2.5681 -4.6412  2.2126
   454G12c O00C 8191   8.561   7.398   7.651 -0.0839  0.3598 -0.2385
   454G12c H00W 8192   8.615   7.416   7.576 -2.3771 -2.2132 -2.6208
   454G12c C027 8193   8.837   7.224   7.759 -0.3410 -0.3440 -1.4310
   454G12c O00D 8194   8.955   7.270   7.782 -1.7785  0.4779  0.3080
   454G12c H00Z 8195   8.934   7.360   7.766  1.5047  0.9262 -1.8812
   454G12c C028 8196   8.825   7.106   7.692 -0.3410 -0.3385 -0.4274
   454G12c C029 8197   8.780   6.996   7.779 -1.3379  1.4411  0.3066
   454G12c H010 8198   8.744   7.015   7.879  3.1878  0.2231  2.3007
   454G12c C02T 8199   8.775   6.862   7.722  0.1775  0.8070  4.0353
   454G12c H01O 8200   8.749   6.787   7.795  0.9451 -3.7959 -0.1520
   454G12c C02S 8201   8.831   6.820   7.596 -0.0116  0.5581 -1.2015
   454G12c O00J 8202   8.836   6.707   7.528 -0.4997  0.4698  0.6334
   454G12c H01P 8203   8.843   6.694   7.435  2.0555 -3.3513  1.2376
   454G12c C02R 8204   8.879   6.938   7.511  1.7006  0.2529 -2.1824
   454G12c O00I 8205   8.937   6.908   7.392 -0.1030  1.3699  0.6194
   454G12c C02Q 8206   8.997   7.013   7.326 -0.9228  0.2339 -2.1569
   454G12c H01N 8207   9.006   6.975   7.224 -2.0573 -1.6071 -1.6080
   454G12c H01R 8208   8.943   7.099   7.286 -5.2228  0.6405  3.7413
   454G12c H01Q 8209   9.104   7.032   7.321  0.7216 -2.8498  8.3668
   454G12c C02A 8210   8.871   7.067   7.568  0.8603  0.5219 -0.1634
   454G12c H011 8211   8.900   7.155   7.513  1.6470  3.4214  4.5372
   454G12c C00C 8212   8.673   7.266   8.075  0.0225 -1.2357  0.0631
   454G12c H012 8213   8.732   7.192   8.024  2.5762 -0.9772  2.5860
   454G12c C00B 8214   8.637   7.267   8.218  1.9053  0.2865 -0.9644
   454G12c C00A 8215   8.625   7.138   8.291  0.4257 -0.0613 -0.9611
   454G12c C009 8216   8.582   7.017   8.238  0.8975 -1.0983 -0.8179
   454G12c C008 8217   8.570   6.969   8.118  0.9120 -1.0420  0.4221
   454G12c H013 8218   8.610   6.999   8.022 -3.7977  3.9422 -0.1856
   454G12c C007 8219   8.473   6.866   8.098 -0.3085 -0.1288  0.5421
   454G12c H014 8220   8.473   6.809   8.006  0.9131  1.7279 -0.6527
   454G12c C006 8221   8.366   6.855   8.187 -0.1469 -0.7824 -0.5515
   454G12c C005 8222   8.403   6.898   8.310  2.4683  2.0160  1.5031
   454G12c C004 8223   8.297   6.892   8.417 -1.2175  1.1877 -1.0678
   454G12c C003 8224   8.304   6.966   8.542  1.7019  1.0663  0.3342
   454G12c C002 8225   8.207   6.936   8.634 -0.4399  0.4342  1.1270
   454G12c C001 8226   8.179   6.993   8.754 -0.5695 -0.4598  1.3080
   454G12c C00M 8227   8.175   7.138   8.767  0.0531  1.0422 -0.1797
   454G12c C00L 8228   8.299   7.213   8.754 -0.4374 -0.6666  0.3985
   454G12c C00R 8229   8.278   7.349   8.728 -0.0852 -0.7023  1.3164
   454G12c C00Q 8230   8.172   7.443   8.743 -0.4217  2.4608 -0.8552
   454G12c C00V 8231   8.221   7.575   8.703 -0.9403  0.6269  0.3787
   454G12c C00U 8232   8.344   7.605   8.632  0.4534 -0.0319 -0.1649
   454G12c C00T 8233   8.413   7.499   8.580  0.7149  1.6176 -0.8061
   454G12c C016 8234   8.483   7.502   8.464 -0.5291  1.1409  1.6388
   454G12c C015 8235   8.511   7.622   8.406 -0.4642  0.0516  1.5542
   454G12c C010 8236   8.452   7.732   8.447  1.3236 -0.0669 -0.0059
   454G12c C011 8237   8.462   7.859   8.363 -0.9969  0.5966  0.3889
   454G12c H005 8238   8.426   7.960   8.370 -3.4020 -0.2424  0.5307
   454G12c C012 8239   8.571   7.862   8.276 -1.0722  0.4570 -0.4236
   454G12c C017 8240   8.632   7.974   8.220  0.4357  0.4712  2.6876
   454G12c O002 8241   8.765   7.969   8.203  0.3065 -0.4201 -0.2526
   454G12c H004 8242   8.789   8.060   8.192 -2.1782  0.0700 -1.9849
   454G12c C018 8243   8.548   8.064   8.151 -0.6231  0.3362  0.8861
   454G12c O001 8244   8.415   8.037   8.163 -1.2870  0.4567  0.8978
   454G12c H003 8245   8.407   7.943   8.157  1.7538  0.2422 -1.0310
   454G12c C019 8246   8.591   8.205   8.080  1.8703  0.6337  1.2202
   454G12c H002 8247   8.571   8.191   7.973  0.5037  0.0148  1.5505
   454G12c H001 8248   8.530   8.282   8.127 -4.7017 -1.8868 -2.4494
   454G12c O000 8249   8.734   8.235   8.069  0.3444 -0.5888 -0.0534
   454G12c C01A 8250   8.826   8.244   8.177 -0.3459  0.2548 -0.3348
   454G12c C02K 8251   8.957   8.267   8.162 -1.4594 -1.1404  0.0767
   454G12c O00G 8252   8.998   8.308   8.044  0.6677 -0.1595  1.3006
   454G12c C02M 8253   9.060   8.421   8.010  1.4473  0.0100  1.1562
   454G12c H01G 8254   9.152   8.403   7.954 -0.0353  6.2558 -3.8910
   454G12c H01F 8255   9.074   8.486   8.096  4.7831  3.0579 -1.4955
   454G12c H01E 8256   8.982   8.481   7.963 -3.7346 -5.2005  2.5761
   454G12c C02J 8257   9.041   8.262   8.265 -0.5423 -1.7246  0.4247
   454G12c H01H 8258   9.149   8.267   8.254 -0.0822 -2.0911  4.1144
   454G12c C02I 8259   9.011   8.241   8.396  1.1474  0.2902 -0.7200
   454G12c C02N 8260   9.096   8.204   8.488 -1.0098  2.9055  0.1490
   454G12c H01M 8261   9.078   8.117   8.550  0.0120  3.7570  1.6685
   454G12c C02O 8262   9.179   8.302   8.525  0.1106 -0.6874  0.0662
   454G12c H01L 8263   9.234   8.298   8.618  0.2738  0.7676  0.0430
   454G12c C02P 8264   9.189   8.451   8.455 -0.9920  0.7577 -2.5942
   454G12c H01K 8265   9.286   8.452   8.404  0.2044 -7.9994 -1.3260
   454G12c H01J 8266   9.116   8.446   8.375 -2.3708  6.6986 -1.9399
   454G12c O00H 8267   9.182   8.568   8.529  0.1615 -0.2494 -0.5184
   454G12c H01I 8268   9.269   8.590   8.557 -0.8755  2.6621  0.6789
   454G12c C02H 8269   8.863   8.259   8.428  0.2521  0.6083 -0.4958
   454G12c H01C 8270   8.840   8.231   8.529  0.8283 -1.3899 -0.8951
   454G12c C02L 8271   8.778   8.260   8.313 -0.2260  0.0829  0.3192
   454G12c H01D 8272   8.673   8.243   8.334  0.5298 -1.3190  3.2001
   454G12c C013 8273   8.606   7.749   8.234 -0.2279  0.2375  1.1366
   454G12c H000 8274   8.690   7.747   8.167 -1.9074  7.1382 -1.6287
   454G12c C014 8275   8.569   7.632   8.275 -1.2646  0.1363 -0.3466
   454G12c C00F 8276   8.613   7.516   8.224 -1.1956  1.0972  0.5117
   454G12c C00H 8277   8.557   7.388   8.426 -0.4111  0.9899 -1.6777
   454G12c C00I 8278   8.546   7.264   8.494 -0.2761 -1.1357  1.4098
   454G12c C00J 8279   8.464   7.273   8.608 -0.3123  0.7388 -0.7214
   454G12c C00Z 8280   8.377   7.719   8.563  0.5216  0.4074  0.5334
   454G12c C00Y 8281   8.296   7.825   8.599  0.7790 -1.5028 -1.4034
   454G12c H006 8282   8.357   7.904   8.558  0.9642 -0.6589  0.4479
   454G12c C00X 8283   8.180   7.817   8.673 -1.6120  1.7039 -1.0115
   454G12c O003 8284   8.130   7.939   8.681 -0.9270 -0.2136 -0.9850
   454G12c C01B 8285   8.013   7.971   8.602 -0.9856 -0.5240 -0.8058
   454G12c H009 8286   8.076   7.996   8.517 -0.4689  0.3226 -0.1952
   454G12c H008 8287   7.923   8.025   8.633  0.8928  0.2980  3.7350
   454G12c H007 8288   7.963   7.875   8.599  2.4151 -2.5859  2.8703
   454G12c C00W 8289   8.133   7.688   8.716 -0.2111 -1.1191 -1.5867
   454G12c O004 8290   8.022   7.695   8.774  1.2376  0.3640  1.0281
   454G12c C01C 8291   7.974   7.572   8.809  0.3504  0.9754 -0.9932
   454G12c H00A 8292   7.868   7.560   8.824 -0.7610  4.6398 -4.7070
   454G12c C00P 8293   8.032   7.432   8.791 -1.0591  1.7353  0.6730
   454G12c C00O 8294   7.965   7.310   8.797 -0.2842  0.2993  0.2848
   454G12c C01D 8295   7.814   7.295   8.786 -1.7270 -1.1397  1.2430
   454G12c H00S 8296   7.744   7.376   8.796 -3.5374 -2.1127 -2.6834
   454G12c C01E 8297   7.761   7.172   8.795 -1.1334 -0.1497 -0.4793
   454G12c O008 8298   7.627   7.177   8.783 -0.1382  1.4011 -0.2221
   454G12c C01V 8299   7.585   7.166   8.922 -0.2763 -0.6508  0.3180
   454G12c C01Z 8300   7.659   7.216   9.054 -0.7273  0.4958  0.5675
   454G12c H00R 8301   7.697   7.298   8.992 -1.6748  1.7536  1.6055
   454G12c H00Q 8302   7.598   7.274   9.123 -3.7288 -1.6227 -0.2106
   454G12c O009 8303   7.765   7.131   9.095  0.1033  0.6515  1.9007
   454G12c H00P 8304   7.829   7.139   9.026 -5.6148  8.4618 -3.3442
   454G12c C01W 8305   7.465   7.116   8.939  0.4541  1.2369  0.9100
   454G12c H00O 8306   7.432   7.116   9.042  3.6636 -1.7969  2.0316
   454G12c C01X 8307   7.350   7.081   8.852 -0.9739 -1.4588  0.2517
   454G12c H00N 8308   7.261   7.134   8.887  1.0458  5.0900 -3.5390
   454G12c H00M 8309   7.400   7.091   8.755  9.6912 -3.4227  4.8557
   454G12c C01Y 8310   7.320   6.924   8.844 -0.4194  0.7651  0.1622
   454G12c C02D 8311   7.182   6.907   8.796 -0.3196 -0.3514  0.4591
   454G12c H019 8312   7.135   6.999   8.766 -1.9132  1.5016  7.7453
   454G12c C02C 8313   7.130   6.766   8.763  0.7464 -1.0836  0.4524
   454G12c H01A 8314   7.036   6.758   8.712  2.5607  0.4490 -3.2996
   454G12c C02B 8315   7.215   6.668   8.808 -0.6455 -0.1465  0.1592
   454G12c O00E 8316   7.201   6.532   8.783 -1.8981  0.5428 -1.1569
   454G12c H01B 8317   7.261   6.472   8.741  0.5964  4.9207 -4.2700
   454G12c C02F 8318   7.343   6.690   8.857  0.2314 -0.4971  0.7092
   454G12c O00F 8319   7.426   6.582   8.896 -0.5687 -0.9683 -0.5842
   454G12c C02G 8320   7.376   6.497   9.003 -0.7334  0.3130  0.2440
   454G12c H017 8321   7.444   6.443   9.069  2.3139  0.9877 -2.1994
   454G12c H016 8322   7.277   6.452   8.997  1.7952 -6.6171  4.5171
   454G12c H015 8323   7.358   6.580   9.071  7.5464  0.5753  2.6932
   454G12c C02E 8324   7.401   6.812   8.864 -0.2281  0.3074  1.7424
   454G12c H018 8325   7.504   6.839   8.881 -0.8253  4.6344 -0.6207
   454G12c C01F 8326   7.845   7.052   8.780  1.6095 -0.3186  0.5070
   454G12c C01G 8327   7.801   6.925   8.721  0.1058 -0.4040 -1.1840
   454G12c H00L 8328   7.703   6.953   8.686 -0.1034  0.3292 -0.0313
   454G12c C01H 8329   7.881   6.817   8.688  2.2906  0.6348 -1.2909
   454G12c H00B 8330   7.842   6.748   8.614  3.2087 -3.1150  1.5803
   454G12c C01I 8331   8.020   6.823   8.712  0.6917 -0.7768 -0.3125
   454G12c C01U 8332   7.980   7.054   8.805 -0.0364 -0.9449 -1.1220
   454G12c C00S 8333   8.395   7.386   8.657  0.4571 -0.1306  0.8437
   454G12c C00K 8334   8.406   7.155   8.670  0.0517  1.0388 -0.7028
   454G12c C00N 8335   8.034   7.190   8.787 -0.8335 -0.0554 -0.8670
   454G12c C000 8336   8.061   6.928   8.798  0.6003  1.4100 -0.2323
   454G12c C01J 8337   8.103   6.845   8.598  1.3916 -0.5744  0.6529
   454G12c C01K 8338   8.099   6.771   8.481  1.7736 -0.9405 -0.7126
   454G12c C01P 8339   8.040   6.645   8.450 -0.0469 -0.6528 -0.5417
   454G12c C01Q 8340   7.976   6.546   8.533 -0.9137 -0.9132  0.9987
   454G12c H00G 8341   7.891   6.500   8.484 -3.7795  3.6910  1.3266
   454G12c C01R 8342   7.981   6.527   8.669 -0.2886  0.5755 -0.3776
   454G12c H00F 8343   8.050   6.593   8.720 -2.7000  2.6224  0.3199
   454G12c C01S 8344   7.916   6.432   8.753  0.0129  0.1125 -0.5035
   454G12c H00E 8345   7.809   6.442   8.739  0.0586 -2.5974 -3.6107
   454G12c H00D 8346   7.961   6.345   8.704  3.4406  0.4138  1.9296
   454G12c O005 8347   7.942   6.457   8.883  0.5843 -0.4006 -1.2479
   454G12c H00C 8348   8.018   6.507   8.908 -2.2405  3.8764 -0.6851
   454G12c C01O 8349   8.021   6.605   8.310  1.0839 -0.7877 -2.5321
   454G12c H00H 8350   7.990   6.502   8.299 -2.3230 -0.2138  0.8623
   454G12c C01N 8351   8.064   6.697   8.217  0.2652  0.4466 -0.0385
   454G12c O006 8352   8.075   6.653   8.082  0.2080 -0.2021 -0.0553
   454G12c C01T 8353   7.929   6.636   8.050 -0.3592 -1.2749 -0.8847
   454G12c H00K 8354   7.913   6.656   7.945 -1.3550  7.5147  0.5657
   454G12c H00J 8355   7.902   6.533   8.074 -4.4136  0.3427  2.1380
   454G12c H00I 8356   7.848   6.671   8.115  4.0105 -1.1835  4.9887
   454G12c C01M 8357   8.169   6.787   8.257 -0.9480  0.4725 -0.5026
   454G12c C020 8358   8.430   7.035   8.588  0.9629  1.7083 -0.3899
   454G12c C021 8359   8.535   7.017   8.483 -1.3543 -1.1742 -0.5876
   454G12c C01L 8360   8.197   6.809   8.393 -0.4861 -0.9952 -0.3219
   454G12c O007 8361   8.246   6.830   8.151 -0.4098  0.2263 -1.2658
   454G12c C022 8362   8.506   6.969   8.358 -1.3736  2.1125  0.7205
   454G12c C023 8363   8.584   7.142   8.435  1.8017 -0.2542  1.7323
   454G12c C00G 8364   8.604   7.390   8.293 -0.8392  0.9984  0.8262
   454G12c C00E 8365   8.635   7.510   8.071 -1.3705  0.4017 -1.1153
   454G12c O00A 8366   8.602   7.611   7.988 -0.3896 -0.1233  0.3347
   454G12c C024 8367   8.467   7.609   7.959 -1.6470 -2.8214  0.2051
   454G12c H00V 8368   8.413   7.539   8.023 -4.7621 -1.6740 -1.0868
   454G12c H00U 8369   8.441   7.586   7.856  6.1963  2.7747 -3.5386
   454G12c H00T 8370   8.436   7.708   7.992 -1.0291 -4.3136  5.7774
   464G12c C00D 8371   1.095   7.622  13.382 -0.1852 -0.2296 -0.2159
   464G12c O00B 8372   1.189   7.527  13.338 -0.6828  0.6094  0.7088
   464G12c C025 8373   1.147   7.415  13.284  0.9114  1.1647 -2.1647
   464G12c C026 8374   1.192   7.424  13.146  0.1112  2.3489 -1.5566
   464G12c H00Y 8375   1.103   7.465  13.097  2.7612  6.8196 -2.9697
   464G12c H00X 8376   1.232   7.324  13.127  0.2380  2.3795 -1.4479
   464G12c O00C 8377   1.301   7.493  13.104  0.0352  0.3189  0.1246
   464G12c H00W 8378   1.372   7.458  13.155 -1.4151 -3.0586 -0.0816
   464G12c C027 8379   1.074   7.315  13.341  0.4685  0.1772  0.4302
   464G12c O00D 8380   1.021   7.297  13.470 -0.9167  1.6365 -0.1696
   464G12c H00Z 8381   1.033   7.213  13.510 -6.0992 -2.8933 -6.8924
   464G12c C028 8382   1.045   7.210  13.253 -0.0882 -0.1858 -1.8846
   464G12c C029 8383   0.915   7.225  13.215  1.5421 -1.1727  0.6664
   464G12c H010 8384   0.860   7.317  13.225  3.6046 -0.0991  2.5489
   464G12c C02T 8385   0.857   7.142  13.123 -0.4196 -1.4922 -0.6742
   464G12c H01O 8386   0.756   7.179  13.118 -0.5534 -1.9554 -1.4446
   464G12c C02S 8387   0.938   7.026  13.064  1.4682 -1.2753  1.4954
   464G12c O00J 8388   0.865   6.959  12.962  0.3022 -1.2017  0.9949
   464G12c H01P 8389   0.780   6.939  12.998 -1.0081 -0.3300 -1.4554
   464G12c C02R 8390   1.081   7.031  13.089 -0.7478  0.0437  0.3910
   464G12c O00I 8391   1.182   6.954  13.043 -0.4182  0.2317 -0.0515
   464G12c C02Q 8392   1.165   6.830  12.998 -0.3806  0.2866  0.2724
   464G12c H01N 8393   1.259   6.787  12.962  0.6661  5.5166 -3.8556
   464G12c H01R 8394   1.071   6.802  12.952 -0.9795  4.1128 -1.0296
   464G12c H01Q 8395   1.150   6.780  13.094 -5.3142 -2.7120 -1.9289
   464G12c C02A 8396   1.113   7.113  13.203  0.0233  0.1713 -1.8172
   464G12c H011 8397   1.218   7.114  13.231 -1.0280 -1.1919  2.5442
   464G12c C00C 8398   0.977   7.647  13.323 -0.6600  0.6044 -1.3116
   464G12c H012 8399   0.926   7.574  13.262 -4.2532  4.9035 -3.7178
   464G12c C00B 8400   0.871   7.736  13.354 -0.0888 -0.6550  1.3097
   464G12c C00A 8401   0.741   7.730  13.291 -1.1235 -1.4975 -0.8305
   464G12c C009 8402   0.731   7.693  13.158  2.2675 -1.1678 -1.6594
   464G12c C008 8403   0.801   7.625  13.055  0.0085 -0.8519  0.5533
   464G12c H013 8404   0.903   7.594  13.073  0.2323 -2.0793 -2.5247
   464G12c C007 8405   0.762   7.641  12.914 -0.4168  1.1767  0.1579
   464G12c H014 8406   0.778   7.564  12.840 -4.2735  2.2108 -1.8981
   464G12c C006 8407   0.645   7.719  12.897  0.3395 -0.1308  1.1174
   464G12c C005 8408   0.575   7.768  13.013 -0.7053 -0.3326  0.1498
   464G12c C004 8409   0.470   7.865  12.992 -0.0377 -0.8638  0.3681
   464G12c C003 8410   0.433   7.945  13.111 -0.9081 -0.5096 -0.2229
   464G12c C002 8411   0.376   8.078  13.077 -0.5535  0.3090  1.5221
   464G12c C001 8412   0.326   8.189  13.146  0.1751  0.9527  0.8061
   464G12c C00M 8413   0.378   8.261  13.254 -0.1907 -0.2686  0.1735
   464G12c C00L 8414   0.458   8.197  13.348 -0.1899  0.2916  0.4950
   464G12c C00R 8415   0.549   8.251  13.446 -1.0885  0.7924  0.4179
   464G12c C00Q 8416   0.592   8.387  13.458 -1.0398  1.1811  1.9778
   464G12c C00V 8417   0.705   8.389  13.545 -0.0078  0.1383  0.8815
   464G12c C00U 8418   0.785   8.276  13.583 -1.7088 -0.3099  0.5603
   464G12c C00T 8419   0.752   8.145  13.540  1.2225 -0.0728 -0.1477
   464G12c C016 8420   0.838   8.042  13.527 -0.2070  0.5948 -1.3395
   464G12c C015 8421   0.964   8.065  13.591 -1.7955 -0.4263  0.8725
   464G12c C010 8422   0.996   8.179  13.670 -2.1337  0.8689  1.2138
   464G12c C011 8423   1.105   8.188  13.761  0.3995  1.0588  0.2562
   464G12c H005 8424   1.116   8.273  13.828 -0.1034  0.0680  1.6148
   464G12c C012 8425   1.195   8.088  13.769  0.5542  1.2151  0.2855
   464G12c C017 8426   1.319   8.108  13.839  1.8669 -0.3891  1.1998
   464G12c O002 8427   1.360   8.238  13.846  0.7366  0.1420  1.2517
   464G12c H004 8428   1.452   8.232  13.868  2.7476 -6.4088 -6.5299
   464G12c C018 8429   1.391   7.992  13.866  0.1386 -1.1738 -2.1886
   464G12c O001 8430   1.340   7.866  13.879 -0.5547  0.1140 -0.9558
   464G12c H003 8431   1.278   7.886  13.947 -0.5105 -2.4642 -0.1025
   464G12c C019 8432   1.550   8.017  13.886 -1.8706  1.5497 -0.3108
   464G12c H002 8433   1.600   7.996  13.792  2.7640 -4.3447  3.1954
   464G12c H001 8434   1.606   8.108  13.907 -0.9005  1.1558 -1.1572
   464G12c O000 8435   1.609   7.961  14.018 -0.1532  1.0868 -0.0343
   464G12c C01A 8436   1.722   7.897  13.992  1.0829  0.7567 -0.0643
   464G12c C02K 8437   1.837   7.948  13.929 -1.6079  0.4677 -0.0076
   464G12c O00G 8438   1.839   8.085  13.902 -0.2598 -0.8500 -0.3994
   464G12c C02M 8439   1.928   8.155  14.005  1.2186  0.1564  0.2416
   464G12c H01G 8440   2.005   8.204  13.946  5.8701 -1.3063  4.7471
   464G12c H01F 8441   1.978   8.086  14.073 -4.8247 -3.7348  1.1465
   464G12c H01E 8442   1.878   8.243  14.045  0.7086 -0.9204  2.0024
   464G12c C02J 8443   1.967   7.882  13.934  1.1961 -0.1061 -2.4832
   464G12c H01H 8444   2.048   7.921  13.875  3.4697 -0.0517  0.5930
   464G12c C02I 8445   2.001   7.768  14.025 -0.0105 -0.9766 -0.5224
   464G12c C02N 8446   2.136   7.719  14.011  0.0461  0.5623  1.6228
   464G12c H01M 8447   2.172   7.674  13.920  3.0191 -2.8645  4.3086
   464G12c C02O 8448   2.213   7.708  14.128  0.5966  0.4293  1.5988
   464G12c H01L 8449   2.154   7.761  14.201 -6.0576 -3.9418 -0.1685
   464G12c C02P 8450   2.344   7.634  14.154  0.5357  0.4154 -0.6617
   464G12c H01K 8451   2.363   7.657  14.258  2.2427 -2.2873 -0.3307
   464G12c H01J 8452   2.336   7.525  14.159 -0.0070  0.5577  2.2242
   464G12c O00H 8453   2.473   7.671  14.091  0.7412 -0.8188  0.6017
   464G12c H01I 8454   2.473   7.707  14.004 -1.1238  4.0806  2.4441
   464G12c C02H 8455   1.890   7.706  14.089 -0.3488  0.6825 -0.9426
   464G12c H01C 8456   1.918   7.668  14.186 -3.3147  2.5499  0.7178
   464G12c C02L 8457   1.759   7.758  14.045  1.4253 -1.0626 -0.4884
   464G12c H01D 8458   1.683   7.689  14.078 -6.8661  3.8420 -7.1379
   464G12c C013 8459   1.161   7.970  13.682 -0.3578 -1.9489  0.6652
   464G12c H000 8460   1.221   7.881  13.671 -1.3661 -1.9785 -7.6500
   464G12c C014 8461   1.056   7.952  13.584 -1.0207 -0.2148 -0.2737
   464G12c C00F 8462   1.025   7.840  13.498 -0.4652  2.0632 -0.2913
   464G12c C00H 8463   0.798   7.930  13.464  0.2273  0.7728  0.7227
   464G12c C00I 8464   0.666   7.921  13.410  1.1302  1.6547  0.1217
   464G12c C00J 8465   0.593   8.033  13.408  0.7581  0.6504  0.3476
   464G12c C00Z 8466   0.911   8.288  13.641  1.0052  0.5408 -0.9122
   464G12c C00Y 8467   0.955   8.418  13.678 -0.1688 -0.1027  0.3256
   464G12c H006 8468   1.058   8.423  13.708  0.5346 -1.2676 -1.8145
   464G12c C00X 8469   0.873   8.525  13.656  1.3739 -1.0749  0.4181
   464G12c O003 8470   0.913   8.648  13.682  0.3100 -0.1963 -0.2690
   464G12c C01B 8471   0.993   8.679  13.794 -0.0714  0.8650 -0.8109
   464G12c H009 8472   1.064   8.759  13.771  0.4373  0.6114 -0.1362
   464G12c H008 8473   0.924   8.728  13.863 -5.2482 -1.5907 -3.9469
   464G12c H007 8474   1.074   8.622  13.840 -1.0060 -0.6343 -0.9976
   464G12c C00W 8475   0.753   8.519  13.578  0.2129  0.5184 -0.7115
   464G12c O004 8476   0.681   8.643  13.535  0.5035 -0.4874 -0.7982
   464G12c C01C 8477   0.623   8.622  13.410  0.8097 -0.6652  0.1123
   464G12c H00A 8478   0.658   8.694  13.338  0.6072  4.0913  4.5354
   464G12c C00P 8479   0.550   8.503  13.376  1.5759  0.9538 -0.8567
   464G12c C00O 8480   0.464   8.511  13.259  0.3829  0.6146  1.1822
   464G12c C01D 8481   0.467   8.621  13.175  0.8507 -0.2097 -0.6805
   464G12c H00S 8482   0.499   8.716  13.215  0.6094  0.5787 -2.3621
   464G12c C01E 8483   0.443   8.626  13.038 -0.3631 -0.1917  0.7133
   464G12c O008 8484   0.459   8.754  12.985  0.3828  0.7213 -0.7738
   464G12c C01V 8485   0.583   8.796  12.928 -1.3181 -1.3031 -0.6393
   464G12c C01Z 8486   0.570   8.885  12.807  0.3062  2.0858  0.7545
   464G12c H00R 8487   0.635   8.887  12.719  0.9051  0.3949  1.1238
   464G12c H00Q 8488   0.470   8.875  12.765 -0.3384 -0.7696  2.8315
   464G12c O009 8489   0.553   9.023  12.843  1.5354  0.1417  0.4051
   464G12c H00P 8490   0.473   9.033  12.893 -2.2088 -0.4067 -5.0309
   464G12c C01W 8491   0.699   8.762  12.991 -1.1078 -0.6365  1.2844
   464G12c H00O 8492   0.731   8.709  13.079 -0.0223  2.8424  3.0784
   464G12c C01X 8493   0.826   8.794  12.911 -0.9930 -0.2548 -1.9447
   464G12c H00N 8494   0.883   8.702  12.925  1.9625  1.5683 -1.7472
   464G12c H00M 8495   0.821   8.818  12.805  5.1568  2.0209 -1.8963
   464G12c C01Y 8496   0.898   8.907  12.980 -0.8392 -0.2384 -0.1708
   464G12c C02D 8497   0.933   9.033  12.903  0.2309  1.5009 -0.3172
   464G12c H019 8498   0.930   9.075  12.803  1.8527  1.2549 -0.4766
   464G12c C02C 8499   0.991   9.134  12.998  2.3550 -0.3196  1.4014
   464G12c H01A 8500   1.012   9.234  12.963 -1.5724  1.1752  3.0570
   464G12c C02B 8501   1.052   9.110  13.124  0.7803 -0.1763  1.1890
   464G12c O00E 8502   1.121   9.206  13.192  0.0740  1.1711 -0.2012
   464G12c H01B 8503   1.118   9.182  13.283 -0.8100  0.8217 -0.3223
   464G12c C02F 8504   1.037   8.977  13.176 -1.4122 -0.4611  1.2224
   464G12c O00F 8505   1.092   8.972  13.304 -0.5716  0.9174 -0.4806
   464G12c C02G 8506   1.006   8.926  13.419 -1.1145 -0.8227  0.2811
   464G12c H017 8507   1.069   8.892  13.501 -2.9212  3.6657  3.7915
   464G12c H016 8508   0.947   8.842  13.382 -2.2104 -0.5978  1.4614
   464G12c H015 8509   0.950   9.013  13.452 -4.1513 -2.6571  0.1679
   464G12c C02E 8510   0.961   8.869  13.104  0.5391 -0.0601  0.5709
   464G12c H018 8511   0.925   8.788  13.165  2.5804 -2.4123 -1.2380
   464G12c C01F 8512   0.402   8.508  12.995  0.7709 -0.7852  0.5045
   464G12c C01G 8513   0.407   8.464  12.862 -1.3746 -1.3816  0.5198
   464G12c H00L 8514   0.417   8.530  12.777  1.9945  3.4634  4.3698
   464G12c C01H 8515   0.390   8.333  12.826  0.3027  0.5581  0.1378
   464G12c H00B 8516   0.426   8.310  12.727  3.2493  0.3634  1.2003
   464G12c C01I 8517   0.328   8.245  12.919  0.1441 -1.7475  0.1654
   464G12c C01U 8518   0.346   8.396  13.089  2.4283 -1.2556 -0.2678
   464G12c C00S 8519   0.616   8.139  13.483  0.0092 -1.1846 -0.3651
   464G12c C00K 8520   0.483   8.045  13.323 -0.1762 -0.2675  0.5923
   464G12c C00N 8521   0.381   8.404  13.225 -1.8417  0.5646  0.7579
   464G12c C000 8522   0.289   8.288  13.053 -1.9515 -0.0554  2.1126
   464G12c C01J 8523   0.344   8.101  12.935 -0.0263 -0.7719 -1.2177
   464G12c C01K 8524   0.378   8.016  12.820 -0.6253  0.6386  0.3366
   464G12c C01P 8525   0.347   8.052  12.686 -1.2943 -1.3636  0.1474
   464G12c C01Q 8526   0.215   8.094  12.660 -1.0547 -0.0504 -1.9290
   464G12c H00G 8527   0.170   8.192  12.667  2.7300  1.6006  0.8831
   464G12c C01R 8528   0.129   8.001  12.610 -0.8392  0.8669 -1.8406
   464G12c H00F 8529   0.153   7.896  12.603  1.4480  1.1721  0.5597
   464G12c C01S 8530  -0.020   8.026  12.579  0.5972  1.3874  0.9296
   464G12c H00E 8531  -0.065   8.124  12.562  2.6897  3.0893  4.4422
   464G12c H00D 8532  -0.054   7.974  12.490 -1.7218 -2.0588  3.6699
   464G12c O005 8533  -0.073   7.992  12.694  0.4021 -0.2684  0.2121
   464G12c H00C 8534  -0.024   8.034  12.763 -1.6313 -1.8102  2.6723
   464G12c C01O 8535   0.426   7.993  12.579  1.4007 -3.1925 -1.9011
   464G12c H00H 8536   0.415   8.035  12.480 -2.3626 -1.5319 -0.8614
   464G12c C01N 8537   0.521   7.889  12.620 -0.0518 -0.6476  0.1614
   464G12c O006 8538   0.554   7.811  12.514  0.8373 -0.4284 -1.3766
   464G12c C01T 8539   0.643   7.884  12.422 -1.0463 -0.4754  0.3563
   464G12c H00K 8540   0.641   7.991  12.402  7.2283  0.0666  0.6318
   464G12c H00J 8541   0.583   7.845  12.341  1.5243  0.4280 -2.0714
   464G12c H00I 8542   0.738   7.835  12.399 -0.5813  0.6593 -0.1985
   464G12c C01M 8543   0.524   7.843  12.752 -1.4637  0.7219  0.0854
   464G12c C020 8544   0.477   7.928  13.234 -1.8371 -0.5921  1.7805
   464G12c C021 8545   0.538   7.815  13.243 -0.4683 -2.1316  1.4537
   464G12c C01L 8546   0.459   7.914  12.850  0.7273 -0.0620 -0.7088
   464G12c O007 8547   0.584   7.728  12.776  1.2544  0.8533  0.4432
   464G12c C022 8548   0.585   7.720  13.141  0.2787 -0.3028 -1.4846
   464G12c C023 8549   0.637   7.801  13.337 -1.5987 -1.2866 -1.3380
   464G12c C00G 8550   0.896   7.828  13.447 -0.6907 -0.1738  0.1007
   464G12c C00E 8551   1.116   7.721  13.468 -0.6904 -0.5961 -1.2795
   464G12c O00A 8552   1.264   7.761  13.496 -0.4578  0.2904  0.2937
   464G12c C024 8553   1.291   7.876  13.402 -0.9533 -0.8604  2.8184
   464G12c H00V 8554   1.398   7.853  13.398 -0.0665  3.0950  0.7062
   464G12c H00U 8555   1.239   7.966  13.435 -0.8073  0.0263  0.6861
   464G12c H00T 8556   1.239   7.876  13.307 -3.3591  1.7237  4.0792
   474G12c C00D 8557   6.989   1.672   3.094 -0.4602  0.0597 -0.1473
   474G12c O00B 8558   6.869   1.718   3.135  1.8445 -1.4534 -0.4578
   474G12c C025 8559   6.866   1.845   3.207 -1.0849 -1.4403  1.0940
   474G12c C026 8560   6.891   1.829   3.361 -0.0412 -0.5299 -0.2785
   474G12c H00Y 8561   6.962   1.884   3.423 -0.8310  2.3924 -1.8306
   474G12c H00X 8562   6.966   1.751   3.353  1.4005 -0.0082  5.5919
   474G12c O00C 8563   6.768   1.829   3.427  0.2019 -0.0165  0.2803
   474G12c H00W 8564   6.718   1.880   3.365 -0.4626 -0.0708  0.7721
   474G12c C027 8565   6.820   1.965   3.150  0.1602 -0.2804  0.9687
   474G12c O00D 8566   6.807   2.066   3.240 -1.2303  0.0142  0.5004
   474G12c H00Z 8567   6.768   2.144   3.204  4.5811  3.7094  1.4353
   474G12c C028 8568   6.766   1.976   3.012 -0.8815 -0.8078  0.0597
   474G12c C029 8569   6.775   1.860   2.924  0.8436  0.1122 -0.0634
   474G12c H010 8570   6.765   1.755   2.946  0.0482 -0.8974 -4.8276
   474G12c C02T 8571   6.752   1.869   2.783  0.9160  0.0640 -0.7883
   474G12c H01O 8572   6.747   1.791   2.708 10.3334  0.7086 -2.7611
   474G12c C02S 8573   6.747   2.006   2.732  1.9036  0.6701  1.0398
   474G12c O00J 8574   6.719   2.014   2.608 -0.1607 -2.1711 -0.0891
   474G12c H01P 8575   6.723   2.108   2.597 -2.2986 -1.5235  3.7168
   474G12c C02R 8576   6.721   2.113   2.825  1.2855 -0.7001 -1.0528
   474G12c O00I 8577   6.674   2.242   2.793 -0.0485 -1.2192 -1.3682
   474G12c C02Q 8578   6.668   2.271   2.651 -2.0074  0.6436  1.4014
   474G12c H01N 8579   6.620   2.368   2.640  3.2830  4.6164  9.2753
   474G12c H01R 8580   6.577   2.222   2.614 -3.6717  3.2827  1.8406
   474G12c H01Q 8581   6.766   2.270   2.603 -1.7611  8.5382  1.0506
   474G12c C02A 8582   6.751   2.093   2.957  1.5522  0.5540  0.5139
   474G12c H011 8583   6.742   2.186   3.011  1.3958  0.7650  0.1284
   474G12c C00C 8584   7.068   1.764   3.029 -1.3620  0.5947 -0.6523
   474G12c H012 8585   7.032   1.866   3.036  5.2392  3.0144  2.5589
   474G12c C00B 8586   7.199   1.724   2.989 -0.0580 -0.4191  0.5449
   474G12c C00A 8587   7.285   1.810   2.900  1.6805 -1.7244  0.3300
   474G12c C009 8588   7.253   1.918   2.807 -0.8948 -1.0742 -0.5669
   474G12c C008 8589   7.165   2.022   2.769  2.2303  0.6419  1.0756
   474G12c H013 8590   7.100   2.042   2.852  2.1819  2.8144  0.5260
   474G12c C007 8591   7.159   2.082   2.630  0.9509  1.6184 -0.1760
   474G12c H014 8592   7.067   2.139   2.634 -1.2569 -1.8697  7.4603
   474G12c C006 8593   7.270   2.054   2.545 -0.5702  1.0785  0.3237
   474G12c C005 8594   7.372   1.966   2.590  0.6917 -0.4768 -0.1191
   474G12c C004 8595   7.473   1.917   2.500  1.1993  1.4654 -0.5351
   474G12c C003 8596   7.556   1.812   2.543  1.2977  1.6453  0.5316
   474G12c C002 8597   7.666   1.781   2.456 -0.7258 -0.0560  0.0989
   474G12c C001 8598   7.766   1.687   2.460 -0.3071 -1.0131  0.2147
   474G12c C00M 8599   7.756   1.552   2.509 -1.1737  0.7174 -1.1757
   474G12c C00L 8600   7.691   1.523   2.624 -0.0365 -0.8136  0.2823
   474G12c C00R 8601   7.643   1.410   2.689  0.0933  0.9076  1.5361
   474G12c C00Q 8602   7.623   1.286   2.618  1.7886 -0.0395  0.6486
   474G12c C00V 8603   7.572   1.187   2.701 -2.0418 -1.4020  0.2392
   474G12c C00U 8604   7.481   1.228   2.809 -0.3530 -1.0899 -0.8693
   474G12c C00T 8605   7.473   1.366   2.839  0.2547  0.6916 -0.3079
   474G12c C016 8606   7.401   1.403   2.956  1.0613  0.4219 -1.0378
   474G12c C015 8607   7.315   1.307   3.019  0.1680  0.4567  0.7236
   474G12c C010 8608   7.339   1.169   2.993 -0.0569  0.5129 -0.8288
   474G12c C011 8609   7.281   1.074   3.088 -0.1518 -1.5067 -0.6385
   474G12c H005 8610   7.311   0.970   3.085  0.1826 -1.3728 -2.7277
   474G12c C012 8611   7.202   1.130   3.182  0.0499  0.4072  1.9919
   474G12c C017 8612   7.135   1.025   3.265  0.4478 -1.2432 -0.0935
   474G12c O002 8613   7.210   0.956   3.354 -0.7828  0.1495 -1.1690
   474G12c H004 8614   7.171   0.937   3.438 -1.4855  2.1354 -1.0033
   474G12c C018 8615   7.011   0.999   3.240 -0.0622  2.8201  0.4110
   474G12c O001 8616   6.942   1.081   3.147 -0.8272 -1.2756 -0.4764
   474G12c H003 8617   6.883   1.057   3.078  2.1548 -0.6565 -3.4172
   474G12c C019 8618   6.906   0.908   3.319  0.5853  1.5729  0.7461
   474G12c H002 8619   6.800   0.923   3.297 -1.0695  1.0901  7.5090
   474G12c H001 8620   6.907   0.817   3.258  1.0737 -0.6289  3.9019
   474G12c O000 8621   6.942   0.911   3.451 -1.6518 -0.5997  0.7999
   474G12c C01A 8622   6.859   0.864   3.538 -0.2523 -0.5462 -0.6502
   474G12c C02K 8623   6.771   0.951   3.603  0.8574 -1.2212 -0.8664
   474G12c O00G 8624   6.757   1.090   3.582  1.1458 -0.0981  0.1910
   474G12c C02M 8625   6.845   1.186   3.539  1.1497 -0.3086  0.9902
   474G12c H01G 8626   6.814   1.254   3.460 -0.4634 -4.4952 -2.1076
   474G12c H01F 8627   6.952   1.168   3.524  0.6823 -6.4436  3.6934
   474G12c H01E 8628   6.861   1.243   3.631  1.6425  1.0343  0.0947
   474G12c C02J 8629   6.661   0.888   3.671  0.5817  1.1233 -0.0662
   474G12c H01H 8630   6.591   0.958   3.714  1.0910  0.8488  1.2443
   474G12c C02I 8631   6.664   0.753   3.709  0.3851  0.1633  0.6823
   474G12c C02N 8632   6.549   0.715   3.769 -2.3436 -0.0400  0.1884
   474G12c H01M 8633   6.455   0.707   3.718 -0.5987  0.1061 -3.2044
   474G12c C02O 8634   6.532   0.724   3.899 -1.5672  0.4657  1.0427
   474G12c H01L 8635   6.434   0.693   3.929 -2.1085 -4.0644 -4.5967
   474G12c C02P 8636   6.619   0.804   4.004 -0.8893 -0.5823  1.5037
   474G12c H01K 8637   6.687   0.853   3.934 -4.3477 -5.3340 -5.6764
   474G12c H01J 8638   6.557   0.893   4.013  3.2643  2.6627 -0.1577
   474G12c O00H 8639   6.707   0.726   4.075  0.0613  0.2127  2.2760
   474G12c H01I 8640   6.688   0.712   4.167 -5.7921 -2.3241  0.9041
   474G12c C02H 8641   6.760   0.665   3.671  1.5612 -1.0645 -1.5769
   474G12c H01C 8642   6.732   0.572   3.720 -0.4953 -1.1620 -2.8747
   474G12c C02L 8643   6.849   0.727   3.586  0.3412 -3.0426  0.6051
   474G12c H01D 8644   6.930   0.659   3.563  0.9697 -2.4303  0.9819
   474G12c C013 8645   7.165   1.257   3.198  1.4414 -1.1955 -0.5056
   474G12c H000 8646   7.086   1.282   3.267  1.9686 -5.6100  1.9028
   474G12c C014 8647   7.218   1.358   3.104  1.2580 -0.6695  1.4956
   474G12c C00F 8648   7.164   1.492   3.087 -0.7303  2.3917 -0.3210
   474G12c C00H 8649   7.377   1.547   2.952 -0.8567  1.5768  0.6197
   474G12c C00I 8650   7.467   1.633   2.896 -1.6460  0.1845 -1.0245
   474G12c C00J 8651   7.573   1.578   2.816 -1.2616  1.1445  1.8037
   474G12c C00Z 8652   7.429   1.123   2.894  0.4888  0.1981  0.5771
   474G12c C00Y 8653   7.461   0.987   2.861  0.3168 -0.6669  1.8164
   474G12c H006 8654   7.406   0.899   2.891 -1.5459 -1.0935 -2.3787
   474G12c C00X 8655   7.568   0.961   2.771 -1.1362  0.9651 -0.4584
   474G12c O003 8656   7.619   0.829   2.754 -1.6510 -0.2782 -0.3703
   474G12c C01B 8657   7.596   0.734   2.857 -0.5338  0.9503 -0.7825
   474G12c H009 8658   7.607   0.792   2.949 -2.3027  0.0155  0.0545
   474G12c H008 8659   7.685   0.677   2.885 -1.0920  0.6942  0.5340
   474G12c H007 8660   7.491   0.707   2.868 -0.1342 -0.1959  0.4952
   474G12c C00W 8661   7.612   1.059   2.678  2.3845 -1.1903 -0.9069
   474G12c O004 8662   7.698   1.016   2.589  0.0806 -0.1464  0.5109
   474G12c C01C 8663   7.683   1.096   2.473 -0.1201  0.2821  0.1466
   474G12c H00A 8664   7.755   1.062   2.400  1.2840  3.3655  0.0135
   474G12c C00P 8665   7.701   1.229   2.506  0.2572 -2.0223 -1.0876
   474G12c C00O 8666   7.752   1.321   2.392 -0.4126  2.6637 -0.8795
   474G12c C01D 8667   7.739   1.280   2.260 -0.2036 -0.0453 -0.7983
   474G12c H00S 8668   7.723   1.181   2.221  6.2628 -2.2540  1.3506
   474G12c C01E 8669   7.745   1.374   2.152 -1.4200 -0.2335  1.0062
   474G12c O008 8670   7.741   1.322   2.032 -0.0983  0.1359  1.6140
   474G12c C01V 8671   7.635   1.263   1.966 -0.8079 -0.3783  2.4769
   474G12c C01Z 8672   7.503   1.285   2.027  0.7040 -1.8317  0.8235
   474G12c H00R 8673   7.447   1.205   2.076  3.1416 -2.7397  2.2240
   474G12c H00Q 8674   7.511   1.351   2.114  0.3988  3.5237 -2.9698
   474G12c O009 8675   7.451   1.376   1.958 -0.1022 -0.4990  0.6995
   474G12c H00P 8676   7.416   1.347   1.875 -0.6236  2.6316 -0.2587
   474G12c C01W 8677   7.658   1.194   1.850  0.4520 -1.6762 -0.6919
   474G12c H00O 8678   7.744   1.171   1.789 -1.8348 -8.6890 -1.6919
   474G12c C01X 8679   7.530   1.111   1.792 -1.5685  0.9775  0.5543
   474G12c H00N 8680   7.573   1.036   1.726 -6.4966 -3.1301  1.6765
   474G12c H00M 8681   7.463   1.060   1.863 -0.9915  1.6424  1.5867
   474G12c C01Y 8682   7.468   1.189   1.677 -1.0335  0.2001  0.9326
   474G12c C02D 8683   7.515   1.325   1.645 -1.6414  0.2841  2.1457
   474G12c H019 8684   7.569   1.400   1.701 -3.7245  0.2816  4.2104
   474G12c C02C 8685   7.509   1.380   1.524  1.5137 -1.2735 -1.7644
   474G12c H01A 8686   7.565   1.464   1.485 -6.3066  4.8735 -0.8780
   474G12c C02B 8687   7.421   1.312   1.429  0.0833 -0.0514  0.4294
   474G12c O00E 8688   7.404   1.367   1.298  1.7888 -0.4497 -0.7345
   474G12c H01B 8689   7.356   1.288   1.277  1.5049  1.0278 -6.3507
   474G12c C02F 8690   7.334   1.208   1.460  0.2437 -1.4811  0.4951
   474G12c O00F 8691   7.247   1.138   1.377 -0.2456 -0.5558 -1.6531
   474G12c C02G 8692   7.114   1.157   1.418 -0.6575  1.0093 -0.9029
   474G12c H017 8693   7.082   1.138   1.520 -4.9556  2.2099 -1.9084
   474G12c H016 8694   7.084   1.089   1.338  3.7472  0.7781 -2.4607
   474G12c H015 8695   7.071   1.253   1.391  1.1009  2.1933  0.4396
   474G12c C02E 8696   7.369   1.139   1.585  0.6013 -0.6449  1.2646
   474G12c H018 8697   7.309   1.049   1.596  5.5581 -3.7145  5.7701
   474G12c C01F 8698   7.792   1.509   2.177 -0.3383  0.0875  0.1092
   474G12c C01G 8699   7.791   1.598   2.072  1.3155 -1.8139 -0.4854
   474G12c H00L 8700   7.738   1.552   1.990  2.5371 -5.3864  0.6379
   474G12c C01H 8701   7.735   1.712   2.104 -0.9704 -0.6760  0.4120
   474G12c H00B 8702   7.657   1.729   2.030  3.3788  5.0623 -3.3176
   474G12c C01I 8703   7.758   1.765   2.236 -1.9490 -0.8462 -0.2162
   474G12c C01U 8704   7.822   1.548   2.308 -0.5103  1.5275  0.5345
   474G12c C00S 8705   7.597   1.436   2.827 -0.4267  0.0689  1.6529
   474G12c C00K 8706   7.627   1.633   2.696 -1.6509 -0.5963 -1.2038
   474G12c C00N 8707   7.786   1.455   2.410  0.1019  0.9832 -0.1448
   474G12c C000 8708   7.825   1.687   2.337  1.1977  0.2077  0.1379
   474G12c C01J 8709   7.655   1.835   2.321 -0.9805 -0.2185  0.4267
   474G12c C01K 8710   7.575   1.952   2.274 -0.1932  0.3244 -0.1430
   474G12c C01P 8711   7.562   2.037   2.166  0.4546 -0.0148  0.3298
   474G12c C01Q 8712   7.623   2.044   2.037 -0.6511 -0.0811 -2.2186
   474G12c H00G 8713   7.563   2.043   1.947 -4.9485 -3.8191  0.4885
   474G12c C01R 8714   7.755   2.030   2.018 -0.7779 -0.7928  0.3139
   474G12c H00F 8715   7.802   2.007   2.113 -5.4612  0.1005  2.9797
   474G12c C01S 8716   7.829   2.019   1.878 -0.7803 -0.7940  0.4980
   474G12c H00E 8717   7.925   1.985   1.915 -2.2175 -0.7215  4.5674
   474G12c H00D 8718   7.793   1.932   1.823  2.2077 -3.8543  3.1366
   474G12c O005 8719   7.834   2.157   1.809 -0.4607 -0.2756  0.3578
   474G12c H00C 8720   7.753   2.206   1.816  3.5857  6.7802  4.2891
   474G12c C01O 8721   7.453   2.124   2.139 -1.2355 -0.3758 -0.4412
   474G12c H00H 8722   7.447   2.177   2.045 -1.2907 -3.5146 -2.2699
   474G12c C01N 8723   7.352   2.137   2.225  1.4364 -1.9149  0.2099
   474G12c O006 8724   7.234   2.200   2.192 -0.0242 -0.2217 -0.3675
   474G12c C01T 8725   7.234   2.345   2.175 -0.1013  0.1684 -1.4429
   474G12c H00K 8726   7.227   2.376   2.071 -2.9334  4.3665 -0.1124
   474G12c H00J 8727   7.313   2.396   2.230 -0.7671 -3.0251  2.7385
   474G12c H00I 8728   7.155   2.379   2.242  0.2351  1.3533 -1.6447
   474G12c C01M 8729   7.381   2.065   2.349  1.7352  0.3357 -0.3210
   474G12c C020 8730   7.566   1.759   2.675 -0.0357  0.8982  0.3816
   474G12c C021 8731   7.461   1.808   2.753  0.2244  0.3637  1.6356
   474G12c C01L 8732   7.482   1.984   2.381 -1.3649 -0.0606 -1.1211
   474G12c O007 8733   7.263   2.060   2.416  0.6021 -1.1064  0.6593
   474G12c C022 8734   7.363   1.892   2.717  1.0101  0.1738 -1.0451
   474G12c C023 8735   7.428   1.769   2.893  1.0175 -0.7805 -0.2015
   474G12c C00G 8736   7.249   1.586   3.016  0.1062 -0.4385  1.0132
   474G12c C00E 8737   7.044   1.544   3.131 -0.0620  0.4930  0.7992
   474G12c O00A 8738   6.944   1.451   3.142 -0.7368 -0.2831  0.5676
   474G12c C024 8739   6.901   1.400   3.010 -1.0853 -0.9591  0.3061
   474G12c H00V 8740   6.984   1.406   2.940 -1.1721 -1.5143  0.1512
   474G12c H00U 8741   6.807   1.452   3.023 -1.0522 -2.2164  7.8382
   474G12c H00T 8742   6.892   1.292   3.022 -2.2153 -0.6592  2.3537
   484G12c C00D 8743   1.803   6.314   6.272  0.8222  0.6547 -1.1783
   484G12c O00B 8744   1.897   6.388   6.358  0.7011  0.8842 -0.5523
   484G12c C025 8745   1.889   6.514   6.413  1.7101 -0.9538 -0.3394
   484G12c C026 8746   1.849   6.516   6.564 -0.8827  0.9654  0.9574
   484G12c H00Y 8747   1.761   6.565   6.605  0.6577  3.2378  1.5867
   484G12c H00X 8748   1.926   6.575   6.612  0.5331  3.7928 -4.4430
   484G12c O00C 8749   1.823   6.373   6.620 -0.6766  0.8677  0.6968
   484G12c H00W 8750   1.912   6.344   6.627 -0.8473  0.0754 -0.2751
   484G12c C027 8751   1.962   6.605   6.351 -1.6372  0.4532 -0.5170
   484G12c O00D 8752   2.010   6.574   6.219  1.1785  0.0525 -0.0559
   484G12c H00Z 8753   1.971   6.498   6.177 -5.2301  3.1764 -0.3278
   484G12c C028 8754   1.970   6.747   6.388 -0.3521  1.6741 -0.6332
   484G12c C029 8755   1.914   6.810   6.499  0.5631 -0.0813 -0.2694
   484G12c H010 8756   1.844   6.746   6.552 -1.0532 -1.7924 -4.2548
   484G12c C02T 8757   1.933   6.943   6.516  0.1081  1.1002 -0.9788
   484G12c H01O 8758   1.874   7.003   6.584 -1.4927 -0.2937 -1.1122
   484G12c C02S 8759   1.987   7.012   6.417  0.5518 -1.1992  1.4365
   484G12c O00J 8760   2.009   7.142   6.435 -0.1308  0.0984 -0.8012
   484G12c H01P 8761   2.040   7.170   6.351  4.7923 -1.4269  0.2949
   484G12c C02R 8762   2.001   6.974   6.292  0.6618 -0.6158 -0.4232
   484G12c O00I 8763   2.053   7.050   6.193 -1.9592 -0.1128 -0.2441
   484G12c C02Q 8764   1.973   7.074   6.071 -0.0402 -0.4523  1.4529
   484G12c H01N 8765   1.900   6.993   6.068  2.2864 -2.5265 -2.1368
   484G12c H01R 8766   2.018   7.063   5.972 -3.1987  1.6433 -0.3376
   484G12c H01Q 8767   1.935   7.173   6.046  0.4372 -1.0049 -1.7387
   484G12c C02A 8768   1.995   6.836   6.283 -1.3611 -0.2739  1.8384
   484G12c H011 8769   2.039   6.788   6.197 -1.8588  0.5591  1.1131
   484G12c C00C 8770   1.858   6.211   6.204 -0.0792  1.0328 -0.1257
   484G12c H012 8771   1.957   6.183   6.235 -1.1717 -2.5704  0.3686
   484G12c C00B 8772   1.802   6.126   6.121  0.9129 -0.6485 -0.1786
   484G12c C00A 8773   1.830   5.981   6.080 -1.0193 -0.1776  0.0633
   484G12c C009 8774   1.947   5.953   6.000  1.3086  1.3210  0.9307
   484G12c C008 8775   2.083   5.995   6.014 -0.0264  1.1587  1.4323
   484G12c H013 8776   2.084   6.069   6.093  2.2909 -1.2130  3.7477
   484G12c C007 8777   2.192   5.945   5.927  0.1268 -1.7319 -1.0638
   484G12c H014 8778   2.296   5.959   5.901  0.5900  0.2897  1.6610
   484G12c C006 8779   2.153   5.848   5.829  0.0867 -1.3190 -1.4615
   484G12c C005 8780   2.022   5.800   5.832 -0.1959  0.2225 -0.5433
   484G12c C004 8781   1.964   5.746   5.718 -0.6521 -0.0454 -1.2411
   484G12c C003 8782   1.819   5.748   5.696 -1.7295  1.0585  0.1587
   484G12c C002 8783   1.773   5.698   5.570  1.5779 -1.2056 -0.7540
   484G12c C001 8784   1.656   5.657   5.512  0.8455  0.7330  0.2557
   484G12c C00M 8785   1.556   5.773   5.518  0.0675  1.0479  1.7454
   484G12c C00L 8786   1.506   5.827   5.643 -1.2318  1.6406 -0.2686
   484G12c C00R 8787   1.406   5.929   5.660  0.3550 -1.7034  1.4026
   484G12c C00Q 8788   1.340   6.002   5.557  0.0895 -0.1436  0.2491
   484G12c C00V 8789   1.271   6.113   5.621  0.9992 -0.1353 -1.5748
   484G12c C00U 8790   1.303   6.164   5.747  0.7491  0.7277 -0.8506
   484G12c C00T 8791   1.405   6.117   5.818  1.7087  3.3752  2.0393
   484G12c C016 8792   1.467   6.166   5.930  0.5189  0.1681  0.7268
   484G12c C015 8793   1.414   6.290   5.966  0.0321  0.0196 -0.6324
   484G12c C010 8794   1.291   6.344   5.904 -0.3996 -0.2742 -0.0302
   484G12c C011 8795   1.252   6.468   5.964 -0.6914  1.4465  0.5479
   484G12c H005 8796   1.183   6.540   5.922 -0.3064 -0.7685 -4.2517
   484G12c C012 8797   1.334   6.553   6.037  0.8883  1.0925  0.1927
   484G12c C017 8798   1.292   6.686   6.063 -0.0846  0.8490 -0.2916
   484G12c O002 8799   1.180   6.721   6.120  0.0583  1.4878  0.7291
   484G12c H004 8800   1.159   6.794   6.176 -0.7115 -0.4144  3.0527
   484G12c C018 8801   1.360   6.789   5.997  1.6291 -0.7303 -1.2781
   484G12c O001 8802   1.463   6.752   5.909  0.2500  0.0252 -0.5780
   484G12c H003 8803   1.424   6.687   5.853 -6.6912  3.5481 -0.4298
   484G12c C019 8804   1.331   6.945   6.020 -1.0232 -0.3489  0.0859
   484G12c H002 8805   1.399   7.023   5.987  1.8375 -3.9584 -2.9951
   484G12c H001 8806   1.257   6.965   5.942 -0.7724  1.2622  0.2423
   484G12c O000 8807   1.281   6.998   6.151 -0.7135 -0.0792  0.4205
   484G12c C01A 8808   1.355   7.082   6.224 -0.1038 -0.2341  1.0908
   484G12c C02K 8809   1.505   7.067   6.238  0.4652 -0.0995 -1.1307
   484G12c O00G 8810   1.533   6.943   6.211 -0.8485  0.7730  0.0598
   484G12c C02M 8811   1.651   6.876   6.195  1.1423  0.5673 -0.1536
   484G12c H01G 8812   1.631   6.769   6.191  4.0387  0.0611 -2.8895
   484G12c H01F 8813   1.681   6.865   6.300 -1.5076  1.8826  0.7843
   484G12c H01E 8814   1.720   6.924   6.126  2.9402  0.3196  1.4144
   484G12c C02J 8815   1.581   7.166   6.308 -0.5114  0.6761 -0.9336
   484G12c H01H 8816   1.687   7.144   6.309 -1.5741 -5.2666  0.5082
   484G12c C02I 8817   1.522   7.269   6.372 -0.3847 -1.3860 -0.7316
   484G12c C02N 8818   1.580   7.381   6.421 -2.5463 -0.0052 -0.3895
   484G12c H01M 8819   1.657   7.393   6.495  0.8685 -3.4846 -3.1464
   484G12c C02O 8820   1.635   7.460   6.320  1.6249  0.2310  0.3382
   484G12c H01L 8821   1.611   7.413   6.226 -0.5883 -0.6009  1.3120
   484G12c C02P 8822   1.759   7.543   6.314  0.9842  1.6075 -1.1678
   484G12c H01K 8823   1.828   7.492   6.382 -1.9535 -1.2284 -0.2068
   484G12c H01J 8824   1.811   7.504   6.227  1.1839 -2.4185  0.6611
   484G12c O00H 8825   1.743   7.687   6.348  0.7328  0.7518 -0.1406
   484G12c H01I 8826   1.688   7.691   6.425 -2.8612  1.4418 -2.5897
   484G12c C02H 8827   1.387   7.265   6.387 -0.8670  0.8071 -0.1013
   484G12c H01C 8828   1.343   7.346   6.443  0.4447  0.3660  1.5883
   484G12c C02L 8829   1.294   7.166   6.321 -0.3461  0.6173  2.0970
   484G12c H01D 8830   1.191   7.184   6.293 -0.6065 -3.2342  0.1869
   484G12c C013 8831   1.454   6.488   6.083 -1.7146  1.3273 -0.4340
   484G12c H000 8832   1.523   6.548   6.140 -3.6959  0.9325  2.4629
   484G12c C014 8833   1.497   6.355   6.068  0.0253 -1.0493  1.0206
   484G12c C00F 8834   1.614   6.299   6.113  3.2296  1.4480 -0.3109
   484G12c C00H 8835   1.585   6.103   5.974 -0.1625 -1.6274 -1.2138
   484G12c C00I 8836   1.612   5.962   5.950  0.9334 -0.5560 -0.6429
   484G12c C00J 8837   1.538   5.917   5.845 -0.0903  0.6059 -1.3747
   484G12c C00Z 8838   1.232   6.275   5.799 -1.2806 -0.6017  0.4490
   484G12c C00Y 8839   1.106   6.296   5.729  1.5458 -0.9031 -1.1964
   484G12c H006 8840   1.051   6.382   5.766 -4.1161 -3.5087 -2.9721
   484G12c C00X 8841   1.060   6.234   5.615 -0.1908  1.8582 -0.1179
   484G12c O003 8842   0.943   6.289   5.553 -0.4411  0.2816  0.1216
   484G12c C01B 8843   0.840   6.228   5.486 -0.0537 -0.9375  0.6043
   484G12c H009 8844   0.774   6.188   5.562 -1.1768  4.7751  2.8600
   484G12c H008 8845   0.758   6.300   5.487 -1.0821 -2.0629  3.8042
   484G12c H007 8846   0.866   6.173   5.395  6.1438  5.6298 -2.0967
   484G12c C00W 8847   1.155   6.158   5.552  1.5216  0.2673 -0.1020
   484G12c O004 8848   1.126   6.128   5.423 -0.5970  0.1199  0.3406
   484G12c C01C 8849   1.216   6.044   5.365  0.7692  1.4222 -0.3748
   484G12c H00A 8850   1.228   6.050   5.258  0.2731  1.9745 -0.3981
   484G12c C00P 8851   1.318   5.963   5.427 -1.5364 -0.8096  1.8276
   484G12c C00O 8852   1.398   5.880   5.351  2.1142 -1.3962  0.2809
   484G12c C01D 8853   1.361   5.871   5.214 -0.6640 -0.3155  0.2049
   484G12c H00S 8854   1.279   5.912   5.157  2.8309 -1.1689 -5.8274
   484G12c C01E 8855   1.439   5.786   5.132  0.2558 -1.8053  0.5947
   484G12c O008 8856   1.406   5.787   4.994 -0.8164 -2.9230  0.3884
   484G12c C01V 8857   1.303   5.715   4.971  0.4497 -0.7833  1.3379
   484G12c C01Z 8858   1.329   5.581   4.893  1.0302  0.0899 -0.7758
   484G12c H00R 8859   1.328   5.511   4.977 -3.5853 -3.9228 -3.8894
   484G12c H00Q 8860   1.267   5.531   4.818  2.3252  2.3174 -3.4025
   484G12c O009 8861   1.458   5.601   4.848 -0.6846 -0.4298  0.7419
   484G12c H00P 8862   1.424   5.650   4.774  2.7138 -3.2928 -2.9386
   484G12c C01W 8863   1.169   5.757   4.982  0.5137  0.8585  0.7018
   484G12c H00O 8864   1.124   5.846   5.023 -4.4305 -0.7595 -0.9539
   484G12c C01X 8865   1.042   5.675   4.961 -1.1832 -1.5193 -0.9438
   484G12c H00N 8866   0.966   5.736   4.912 -0.2837  2.1537  2.0031
   484G12c H00M 8867   1.056   5.573   4.923  2.9804 -1.9540  1.4361
   484G12c C01Y 8868   0.946   5.657   5.079  0.8667 -0.8945  2.0984
   484G12c C02D 8869   0.798   5.670   5.050 -1.2807 -0.2005  0.9940
   484G12c H019 8870   0.747   5.706   4.962 -0.4622  2.2277  1.4877
   484G12c C02C 8871   0.724   5.615   5.131  0.3762 -1.1393 -1.8895
   484G12c H01A 8872   0.638   5.591   5.070 -0.2088  4.3781 -3.4334
   484G12c C02B 8873   0.767   5.588   5.266 -0.6542 -0.0285 -1.4307
   484G12c O00E 8874   0.699   5.552   5.363 -0.5974 -2.3034  0.1086
   484G12c H01B 8875   0.770   5.551   5.425 -1.6890  2.3543  1.6965
   484G12c C02F 8876   0.895   5.621   5.314  1.1370  0.7178  0.1883
   484G12c O00F 8877   0.918   5.610   5.452 -0.7701 -0.5698 -0.3156
   484G12c C02G 8878   1.033   5.664   5.515 -0.0317  0.7728 -0.8111
   484G12c H017 8879   0.997   5.720   5.602  3.2881 -5.8360  5.3141
   484G12c H016 8880   1.087   5.745   5.465 -3.3442  3.4154 -0.3253
   484G12c H015 8881   1.120   5.599   5.526  3.5617  4.8817 -3.2947
   484G12c C02E 8882   0.991   5.651   5.216  0.8560 -0.7920  0.8949
   484G12c H018 8883   1.095   5.656   5.246  1.2323  0.9697 -0.5707
   484G12c C01F 8884   1.567   5.738   5.187  0.6812  1.6881 -0.8721
   484G12c C01G 8885   1.688   5.688   5.120  1.1101 -0.2474  1.1937
   484G12c H00L 8886   1.688   5.674   5.013  3.5469  2.8977  0.7012
   484G12c C01H 8887   1.815   5.662   5.192 -0.1686  0.8080  0.1213
   484G12c H00B 8888   1.908   5.657   5.137 -2.4044 -1.1731 -3.6632
   484G12c C01I 8889   1.811   5.656   5.339  0.3208 -1.1858 -1.2774
   484G12c C01U 8890   1.579   5.711   5.317 -0.2038 -2.1610 -0.8430
   484G12c C00S 8891   1.455   5.999   5.766 -0.8856 -0.1163 -0.2478
   484G12c C00K 8892   1.596   5.826   5.756  0.7578 -0.8292 -1.4531
   484G12c C00N 8893   1.496   5.793   5.394  0.1388 -0.1818  1.2336
   484G12c C000 8894   1.677   5.649   5.383 -0.0547  1.7168  0.2199
   484G12c C01J 8895   1.883   5.688   5.463 -0.7476  0.0510 -0.9899
   484G12c C01K 8896   2.025   5.684   5.482 -0.0982 -0.2257 -1.2805
   484G12c C01P 8897   2.134   5.659   5.393  0.2288 -0.4493  1.3887
   484G12c C01Q 8898   2.149   5.571   5.283 -1.3522  0.0521  0.4848
   484G12c H00G 8899   2.151   5.575   5.175  0.3368 -5.0033  0.1650
   484G12c C01R 8900   2.116   5.455   5.334 -0.6346 -1.6370  0.8457
   484G12c H00F 8901   2.108   5.441   5.441 -1.2764  1.3433  1.2190
   484G12c C01S 8902   2.132   5.329   5.259 -1.8461 -0.2005 -1.9310
   484G12c H00E 8903   2.052   5.326   5.186 -1.7667  0.1635 -2.0343
   484G12c H00D 8904   2.239   5.332   5.236 -1.0221  2.6832  1.7728
   484G12c O005 8905   2.149   5.221   5.334  0.2190  0.5293 -0.1177
   484G12c H00C 8906   2.105   5.153   5.284  2.4893  1.3690 -3.4050
   484G12c C01O 8907   2.268   5.694   5.419 -0.8659  1.1506 -1.1730
   484G12c H00H 8908   2.334   5.683   5.335  0.4751  9.1800 -1.6085
   484G12c C01N 8909   2.299   5.697   5.554 -2.0038 -1.1398 -0.4058
   484G12c O006 8910   2.427   5.717   5.591 -1.7153 -0.3101 -0.0207
   484G12c C01T 8911   2.547   5.720   5.529 -0.2341  0.8896 -2.2281
   484G12c H00K 8912   2.608   5.724   5.619  4.0892  4.9263 -5.0743
   484G12c H00J 8913   2.552   5.823   5.492  0.0781  2.0629  0.9201
   484G12c H00I 8914   2.560   5.630   5.469 -2.1276 -1.1651  0.3566
   484G12c C01M 8915   2.197   5.724   5.645 -2.4179  0.8242 -0.4560
   484G12c C020 8916   1.737   5.789   5.786  0.8389  1.4436 -0.7267
   484G12c C021 8917   1.797   5.811   5.917  1.3326 -1.1020 -0.9905
   484G12c C01L 8918   2.061   5.710   5.616 -1.2681 -0.4970 -1.9180
   484G12c O007 8919   2.251   5.768   5.766 -0.5879 -1.0912  0.4169
   484G12c C022 8920   1.929   5.845   5.916  0.3210 -0.1031 -0.8339
   484G12c C023 8921   1.738   5.905   5.999  0.5021  1.3460 -0.3995
   484G12c C00G 8922   1.677   6.174   6.074  0.8146 -2.3289  2.2417
   484G12c C00E 8923   1.675   6.355   6.228  0.0421 -1.1756 -0.6768
   484G12c O00A 8924   1.623   6.465   6.283  0.7111 -0.1258 -1.7515
   484G12c C024 8925   1.563   6.440   6.411 -0.0146  1.1385 -1.7144
   484G12c H00V 8926   1.456   6.432   6.396 -1.1415  1.6213  4.5078
   484G12c H00U 8927   1.576   6.535   6.464 -6.5346  3.6878 -4.1784
   484G12c H00T 8928   1.593   6.349   6.462 -2.6697  2.6558  2.9014
   494G12c C00D 8929  11.303  10.483   5.648  1.2998 -0.3426 -1.3570
   494G12c O00B 8930  11.441  10.457   5.648  1.1826  0.6793  0.1295
   494G12c C025 8931  11.545  10.548   5.631 -0.3231  1.0237 -1.2825
   494G12c C026 8932  11.528  10.620   5.752  0.4521 -0.4368 -0.1352
   494G12c H00Y 8933  11.451  10.585   5.821  3.3353  2.3561  4.7954
   494G12c H00X 8934  11.620  10.577   5.794  2.4715 -2.1425 -5.8919
   494G12c O00C 8935  11.553  10.764   5.748 -0.1840  1.3241  0.4276
   494G12c H00W 8936  11.539  10.770   5.655 -3.1712  5.0203  0.9731
   494G12c C027 8937  11.658  10.529   5.549  0.2504 -0.1268  0.7534
   494G12c O00D 8938  11.628  10.474   5.426 -0.1493  1.7503  0.0023
   494G12c H00Z 8939  11.536  10.453   5.433 -0.8272  4.3889 -0.7288
   494G12c C028 8940  11.768  10.625   5.564 -1.2272  0.1307  1.7017
   494G12c C029 8941  11.851  10.609   5.679  0.6835 -0.0509  0.7733
   494G12c H010 8942  11.834  10.516   5.733  5.9052 -2.8166 -1.9421
   494G12c C02T 8943  11.961  10.691   5.708 -0.3437  1.7419 -0.5120
   494G12c H01O 8944  12.006  10.693   5.806  2.3531 -1.4032 -1.5699
   494G12c C02S 8945  12.011  10.777   5.606  1.3247  1.4771 -1.1088
   494G12c O00J 8946  12.133  10.838   5.626  0.7569 -2.2656  0.5563
   494G12c H01P 8947  12.088  10.917   5.651  8.3844  2.1663  1.6843
   494G12c C02R 8948  11.931  10.803   5.497 -1.1308  0.8294 -0.1524
   494G12c O00I 8949  11.969  10.903   5.411 -0.3700  0.7186 -0.5791
   494G12c C02Q 8950  11.965  10.856   5.279  1.2854  1.0933 -0.1194
   494G12c H01N 8951  12.031  10.897   5.202 -0.2730  0.5204 -1.7881
   494G12c H01R 8952  11.874  10.895   5.234  3.0489  1.4330 -3.6006
   494G12c H01Q 8953  11.988  10.750   5.288 -0.0817  0.6413 -1.5958
   494G12c C02A 8954  11.794  10.741   5.485 -0.8992 -0.2697 -0.1238
   494G12c H011 8955  11.732  10.785   5.409  0.1227  0.1046 -0.7548
   494G12c C00C 8956  11.248  10.481   5.781 -0.1105  0.6202  0.7418
   494G12c H012 8957  11.287  10.419   5.861  1.2106 -4.4730 -3.5872
   494G12c C00B 8958  11.139  10.566   5.815 -0.7884  0.7978  0.3851
   494G12c C00A 8959  11.094  10.587   5.949 -0.9806  0.3654  0.1298
   494G12c C009 8960  11.121  10.540   6.095  1.5883 -0.1024  0.1784
   494G12c C008 8961  11.194  10.420   6.126  1.7503  0.9598 -0.6883
   494G12c H013 8962  11.252  10.377   6.046  3.9385 -4.0957  3.3126
   494G12c C007 8963  11.126  10.330   6.216 -1.0204  0.4627 -1.1489
   494G12c H014 8964  11.148  10.226   6.235 -3.4971  0.5387  2.7974
   494G12c C006 8965  11.013  10.356   6.300  0.6682 -1.1014  0.6514
   494G12c C005 8966  10.945  10.473   6.254 -1.4101 -1.9176  0.5011
   494G12c C004 8967  10.819  10.501   6.294  1.7918 -1.4249  0.3934
   494G12c C003 8968  10.738  10.580   6.214 -1.4647  1.1157  0.1034
   494G12c C002 8969  10.594  10.589   6.260  0.7364  0.8307 -0.3609
   494G12c C001 8970  10.482  10.677   6.223 -0.7864  0.0989 -0.9828
   494G12c C00M 8971  10.463  10.673   6.082 -0.0879 -2.3148  1.6572
   494G12c C00L 8972  10.554  10.677   5.994 -0.7847  1.7600 -1.5442
   494G12c C00R 8973  10.542  10.648   5.856 -0.5590  0.5315  0.4896
   494G12c C00Q 8974  10.442  10.613   5.766  1.2214 -1.3779  0.0658
   494G12c C00V 8975  10.474  10.613   5.624  2.0422  0.6644  0.0125
   494G12c C00U 8976  10.594  10.638   5.572 -0.2166 -0.1486  1.0113
   494G12c C00T 8977  10.699  10.680   5.658  1.0897  0.3027 -0.1726
   494G12c C016 8978  10.836  10.660   5.633  0.5186 -0.4308 -1.1230
   494G12c C015 8979  10.864  10.617   5.508 -0.5221 -1.3640 -0.2726
   494G12c C010 8980  10.770  10.607   5.406 -0.1952  1.2911 -0.2383
   494G12c C011 8981  10.795  10.589   5.280  0.8757 -2.5460 -1.6393
   494G12c H005 8982  10.729  10.583   5.195  2.1922 -3.0786 -2.6458
   494G12c C012 8983  10.917  10.545   5.248  2.1817  0.7198 -0.3100
   494G12c C017 8984  10.943  10.479   5.125 -0.9545  0.8748  1.4217
   494G12c O002 8985  10.991  10.354   5.111  1.4951 -0.6510 -0.6977
   494G12c H004 8986  10.963  10.347   5.021  3.5073 -7.9782 -1.0415
   494G12c C018 8987  10.895  10.535   5.011 -1.5574  0.7400 -0.3954
   494G12c O001 8988  10.886  10.462   4.904 -0.5271  1.3298  0.9494
   494G12c H003 8989  10.852  10.527   4.845  4.1968  0.9411 -2.5301
   494G12c C019 8990  10.885  10.671   4.970  1.1547 -0.8034 -1.0451
   494G12c H002 8991  10.942  10.715   5.053  6.3120 -8.7988  0.2611
   494G12c H001 8992  10.923  10.711   4.876  0.7804 -0.5308 -1.0805
   494G12c O000 8993  10.749  10.730   4.960  1.6273 -0.2958  0.1914
   494G12c C01A 8994  10.656  10.698   4.863 -0.5814 -0.6904  0.4164
   494G12c C02K 8995  10.612  10.569   4.876 -0.3219 -0.9995 -2.5005
   494G12c O00G 8996  10.597  10.501   4.990 -1.2398  0.4710 -2.1161
   494G12c C02M 8997  10.531  10.371   4.986  0.0652 -0.4710 -1.1855
   494G12c H01G 8998  10.578  10.298   4.920 -0.4461 -0.0059 -2.0803
   494G12c H01F 8999  10.435  10.349   5.033 -0.6609  5.4388  0.5639
   494G12c H01E 9000  10.595  10.325   5.061 -0.3424 -2.5082 -2.0517
   494G12c C02J 9001  10.510  10.541   4.788 -0.3274 -0.0309 -0.6175
   494G12c H01H 9002  10.466  10.444   4.800  0.4365 -0.3443 -0.2948
   494G12c C02I 9003  10.470  10.608   4.667 -1.1898  0.2400 -0.4371
   494G12c C02N 9004  10.367  10.565   4.582 -1.1140  0.9234  1.7725
   494G12c H01M 9005  10.361  10.485   4.510  1.3374  2.5897 -0.3506
   494G12c C02O 9006  10.243  10.605   4.628 -0.2765 -0.1505 -1.1422
   494G12c H01L 9007  10.172  10.533   4.590  2.8229 -5.9561  3.2558
   494G12c C02P 9008  10.193  10.672   4.754  1.4477  0.3970  0.2933
   494G12c H01K 9009  10.266  10.746   4.786  0.9610 -0.1489  2.7636
   494G12c H01J 9010  10.145  10.769   4.739  6.8346  3.0183 -1.2539
   494G12c O00H 9011  10.097  10.595   4.818 -1.5995 -1.0912 -0.6254
   494G12c H01I 9012  10.025  10.646   4.851 -0.6470  0.2921 -0.6277
   494G12c C02H 9013  10.539  10.734   4.653  1.8748  0.7723  0.2803
   494G12c H01C 9014  10.532  10.804   4.571  2.0024  0.7726  0.2689
   494G12c C02L 9015  10.625  10.777   4.756 -0.0720  0.9639  2.0444
   494G12c H01D 9016  10.670  10.875   4.755  3.0968 -0.2505  7.4032
   494G12c C013 9017  11.009  10.518   5.349 -1.1078 -0.3080 -1.1387
   494G12c H000 9018  11.097  10.462   5.319 -2.8128 -2.2981 -2.6000
   494G12c C014 9019  10.984  10.567   5.477 -1.1667  0.4066  0.4918
   494G12c C00F 9020  11.081  10.555   5.572 -1.7314  0.3830 -0.5971
   494G12c C00H 9021  10.926  10.678   5.731 -0.5743  1.1332 -1.3724
   494G12c C00I 9022  10.887  10.694   5.870  0.6809  0.8484  0.1047
   494G12c C00J 9023  10.749  10.711   5.885  0.9187 -0.4240 -2.5492
   494G12c C00Z 9024  10.626  10.628   5.436  0.6672  1.0920  0.6257
   494G12c C00Y 9025  10.531  10.573   5.356 -0.3153 -1.4405  0.7849
   494G12c H006 9026  10.574  10.533   5.266  0.7383  0.6853  0.3139
   494G12c C00X 9027  10.401  10.564   5.394 -0.5481 -1.0413 -0.0285
   494G12c O003 9028  10.300  10.592   5.316 -0.6330 -0.4174  1.4545
   494G12c C01B 9029  10.226  10.476   5.254  0.6887  0.4875  0.7515
   494G12c H009 9030  10.160  10.426   5.325  1.5140 -1.5142  0.1472
   494G12c H008 9031  10.300  10.397   5.257 -2.6322 -2.7007  4.0969
   494G12c H007 9032  10.164  10.473   5.164  0.5605  3.6572  0.6944
   494G12c C00W 9033  10.370  10.576   5.524  0.0148  0.1974 -1.0491
   494G12c O004 9034  10.245  10.594   5.543 -0.0259  0.3189  1.0667
   494G12c C01C 9035  10.215  10.565   5.677  0.0919 -0.1506  0.2955
   494G12c H00A 9036  10.109  10.561   5.700 -2.0058  1.8975 -7.5726
   494G12c C00P 9037  10.295  10.586   5.793  1.2260  0.8739 -1.7524
   494G12c C00O 9038  10.261  10.573   5.933  1.6611  2.2390  1.1085
   494G12c C01D 9039  10.152  10.473   5.975 -0.2462 -0.1905 -0.6698
   494G12c H00S 9040  10.101  10.414   5.899 -0.0334  3.3293 -3.6950
   494G12c C01E 9041  10.111  10.437   6.121 -2.4358 -2.0911  0.5501
   494G12c O008 9042  10.006  10.363   6.134 -0.1547 -1.0297  1.5364
   494G12c C01V 9043   9.902  10.403   6.221 -1.1765  0.9147 -0.3797
   494G12c C01Z 9044   9.851  10.305   6.330  0.3828 -0.8943  0.6848
   494G12c H00R 9045   9.920  10.223   6.350  4.0476  0.5560 -4.7962
   494G12c H00Q 9046   9.818  10.357   6.420  0.4502  2.1468 -0.9631
   494G12c O009 9047   9.742  10.245   6.255 -1.9877  0.3623 -0.2884
   494G12c H00P 9048   9.673  10.305   6.280  2.0732  6.2852 -1.9847
   494G12c C01W 9049   9.838  10.518   6.207 -0.5415  0.5300 -0.1543
   494G12c H00O 9050   9.871  10.554   6.111 -3.6304 -4.7919 -3.4511
   494G12c C01X 9051   9.724  10.593   6.286  1.2514  1.1393 -0.4395
   494G12c H00N 9052   9.647  10.632   6.220  0.1382  2.8800  1.8123
   494G12c H00M 9053   9.667  10.502   6.300  0.0969  1.3132 -3.5968
   494G12c C01Y 9054   9.762  10.671   6.408 -0.3886  1.7163  0.6619
   494G12c C02D 9055   9.736  10.813   6.428 -0.3976 -0.6708 -0.1172
   494G12c H019 9056   9.696  10.884   6.356  3.1743  1.7348  0.1567
   494G12c C02C 9057   9.722  10.868   6.563  1.2644 -1.0327  1.6556
   494G12c H01A 9058   9.668  10.961   6.576 -2.0048 -3.1107  3.6186
   494G12c C02B 9059   9.784  10.792   6.657  0.6111 -0.1524 -1.6141
   494G12c O00E 9060   9.833  10.866   6.749  0.9926  0.0362  0.6560
   494G12c H01B 9061   9.920  10.903   6.744  1.8132 -2.0305 -1.4453
   494G12c C02F 9062   9.832  10.664   6.645  1.6053 -0.1618  0.3544
   494G12c O00F 9063   9.895  10.595   6.738 -1.8307  0.3411  0.8445
   494G12c C02G 9064   9.812  10.555   6.864  0.9590 -1.2512  0.9846
   494G12c H017 9065   9.883  10.539   6.945  0.2088 -3.6595  1.2036
   494G12c H016 9066   9.754  10.463   6.862 -0.2367 -0.4764 -0.9789
   494G12c H015 9067   9.742  10.632   6.899  2.3334  0.7501 -0.5428
   494G12c C02E 9068   9.808  10.595   6.523  0.6595 -1.1237  0.1089
   494G12c H018 9069   9.868  10.506   6.506  5.0354  1.3786  1.7532
   494G12c C01F 9070  10.202  10.467   6.220 -0.4864 -0.1783  0.4498
   494G12c C01G 9071  10.222  10.390   6.342 -2.0913  1.0058 -0.5486
   494G12c H00L 9072  10.161  10.300   6.343 -2.2178  1.0467  3.5331
   494G12c C01H 9073  10.325  10.436   6.436  0.6845 -0.2412  0.2569
   494G12c H00B 9074  10.367  10.363   6.505 -0.9541  2.3811  4.1988
   494G12c C01I 9075  10.416  10.538   6.389  0.5150 -1.8166  0.3970
   494G12c C01U 9076  10.290  10.576   6.191 -1.5074  0.6804 -2.0788
   494G12c C00S 9077  10.650  10.694   5.796 -1.6911 -0.4979  1.9979
   494G12c C00K 9078  10.693  10.687   6.014 -0.5544  0.3765  0.5705
   494G12c C00N 9079  10.341  10.602   6.051 -0.5429 -0.6570 -2.1281
   494G12c C000 9080  10.378  10.627   6.291 -0.6168  0.7833 -0.7456
   494G12c C01J 9081  10.559  10.509   6.371  1.4226  0.9569  0.4951
   494G12c C01K 9082  10.645  10.424   6.448 -0.7963  0.8691 -1.4206
   494G12c C01P 9083  10.624  10.398   6.589  0.0094  1.0103  0.1770
   494G12c C01Q 9084  10.511  10.468   6.669  0.3564  0.4175 -1.3184
   494G12c H00G 9085  10.488  10.561   6.619 -2.6679  1.0277  1.0650
   494G12c C01R 9086  10.428  10.392   6.737  0.0344 -1.7482  0.2045
   494G12c H00F 9087  10.479  10.309   6.783  1.3828 -5.6009 -7.4257
   494G12c C01S 9088  10.271  10.393   6.753  1.1239 -1.6300  1.1284
   494G12c H00E 9089  10.235  10.328   6.834  0.2576  4.6350  6.1560
   494G12c H00D 9090  10.247  10.492   6.792  7.7161 -1.3309  5.2210
   494G12c O005 9091  10.177  10.385   6.648 -1.1173 -0.1632 -2.5900
   494G12c H00C 9092  10.101  10.439   6.666 -3.5729 -3.6540 -1.9838
   494G12c C01O 9093  10.703  10.301   6.653  0.3027  1.0997  1.0458
   494G12c H00H 9094  10.660  10.263   6.744 -3.5319 -3.6148 -2.4958
   494G12c C01N 9095  10.819  10.243   6.579 -0.8632  0.7867  0.5619
   494G12c O006 9096  10.882  10.141   6.633 -0.5945  0.2873 -1.1154
   494G12c C01T 9097  10.855  10.124   6.783  1.0937  1.3879  0.6586
   494G12c H00K 9098  10.768  10.064   6.758  0.3153  2.5954  0.4604
   494G12c H00J 9099  10.910  10.039   6.824  4.6403  3.8073  1.1521
   494G12c H00I 9100  10.876  10.199   6.860  2.0968 -0.0245  1.8027
   494G12c C01M 9101  10.859  10.316   6.449  2.1921 -0.8155  0.9561
   494G12c C020 9102  10.791  10.659   6.105  1.0121  0.1959 -0.9182
   494G12c C021 9103  10.941  10.681   6.098  0.1956  0.1924 -1.3903
   494G12c C01L 9104  10.770  10.416   6.389  1.2463 -0.8873  0.0717
   494G12c O007 9105  10.957  10.267   6.369 -0.0314  0.4744  0.1064
   494G12c C022 9106  10.996  10.581   6.167 -0.4216 -1.1046 -0.3620
   494G12c C023 9107  10.992  10.680   5.970 -0.7146 -2.0576  0.5423
   494G12c C00G 9108  11.046  10.598   5.709 -0.4545 -0.6411  1.1337
   494G12c C00E 9109  11.228  10.538   5.543  0.5768 -1.0020 -0.5624
   494G12c O00A 9110  11.296  10.590   5.430 -1.3281 -1.7535 -0.7987
   494G12c C024 9111  11.298  10.730   5.399  0.0189 -1.2421  0.3881
   494G12c H00V 9112  11.302  10.783   5.494 -0.4536  3.0470 -1.8639
   494G12c H00U 9113  11.228  10.764   5.323  0.1157  0.2252  0.9364
   494G12c H00T 9114  11.398  10.759   5.365  0.2645  2.1772  3.6949
   504G12c C00D 9115   2.628  10.095  12.665 -0.0745 -0.2120 -0.6681
   504G12c O00B 9116   2.594  10.090  12.526 -0.9948 -1.3370 -1.1605
   504G12c C025 9117   2.466  10.109  12.486 -0.3691 -1.5601 -0.5084
   504G12c C026 9118   2.435  10.230  12.397  0.0367  1.0326  0.5058
   504G12c H00Y 9119   2.400  10.305  12.468 -0.4778  1.8714 -0.6397
   504G12c H00X 9120   2.331  10.227  12.363 -1.5103  0.9552  4.8877
   504G12c O00C 9121   2.550  10.246  12.317 -0.0750 -0.4119  0.9809
   504G12c H00W 9122   2.627  10.219  12.363 -2.4955  0.9193  6.1518
   504G12c C027 9123   2.392  10.007  12.510 -0.1309 -0.9188 -0.5396
   504G12c O00D 9124   2.411   9.906  12.599 -0.2207  1.1337 -0.6629
   504G12c H00Z 9125   2.492   9.877  12.559  2.3528  3.8861  2.2383
   504G12c C028 9126   2.292   9.989  12.407  0.3410  0.8150 -0.4229
   504G12c C029 9127   2.343   9.941  12.288  0.3090 -0.2238  0.6085
   504G12c H010 9128   2.437   9.973  12.244 -0.1232 -0.5759 -0.5899
   504G12c C02T 9129   2.284   9.836  12.206 -0.6394 -1.1258  0.6033
   504G12c H01O 9130   2.353   9.808  12.127 -2.8837  0.7601 -2.1264
   504G12c C02S 9131   2.155   9.818  12.245 -0.6846  0.0029 -0.3806
   504G12c O00J 9132   2.092   9.737  12.159 -0.3764 -1.2360  1.3096
   504G12c H01P 9133   2.001   9.740  12.186 -1.4555 -4.3216 -1.6566
   504G12c C02R 9134   2.086   9.882  12.355  1.1990  0.1336 -0.8867
   504G12c O00I 9135   1.965   9.844  12.404 -0.5796 -1.1859  0.9109
   504G12c C02Q 9136   1.841   9.911  12.409 -0.5932 -0.3240  1.3626
   504G12c H01N 9137   1.777   9.869  12.487 -1.1940  4.9968  3.9507
   504G12c H01R 9138   1.811   9.924  12.305  2.5831  0.1643  0.4678
   504G12c H01Q 9139   1.837  10.015  12.441 -7.8632  0.4256 -1.1152
   504G12c C02A 9140   2.158   9.961  12.448 -0.9215 -0.2697 -1.7121
   504G12c H011 9141   2.134   9.987  12.551  3.6072 -2.5223  0.0418
   504G12c C00C 9142   2.653   9.979  12.762 -1.4877  1.3674  0.1135
   504G12c H012 9143   2.659   9.875  12.733  2.1727  1.9912 -1.6805
   504G12c C00B 9144   2.734   9.997  12.872 -0.3767  1.0110  1.4579
   504G12c C00A 9145   2.827   9.921  12.947  1.4845  0.7153 -1.0597
   504G12c C009 9146   2.830   9.792  12.974 -0.3401 -0.5358  0.8972
   504G12c C008 9147   2.767   9.682  12.920  1.4608  1.6735 -0.6431
   504G12c H013 9148   2.705   9.711  12.837  7.1655 -1.9595 -6.6071
   504G12c C007 9149   2.771   9.565  12.996 -0.1635 -0.8014  2.6508
   504G12c H014 9150   2.704   9.490  12.955 -0.3283  0.8283 -0.1448
   504G12c C006 9151   2.832   9.546  13.114 -0.3570  0.4159 -0.0032
   504G12c C005 9152   2.879   9.653  13.164 -2.2191  0.2005 -0.7039
   504G12c C004 9153   2.933   9.651  13.292  1.2701 -2.1130 -0.0445
   504G12c C003 9154   2.973   9.776  13.343  2.4817  1.1183 -2.4896
   504G12c C002 9155   2.990   9.776  13.480  1.3273 -1.1809 -1.6894
   504G12c C001 9156   2.983   9.865  13.586 -0.1555 -1.3807 -0.4290
   504G12c C00M 9157   2.919   9.996  13.574  0.3747  0.0255  1.7771
   504G12c C00L 9158   2.947  10.088  13.467  1.0391 -0.6920  0.7194
   504G12c C00R 9159   2.854  10.204  13.453 -1.0150 -0.0377  1.0367
   504G12c C00Q 9160   2.745  10.265  13.542  0.8536  0.5426 -0.6705
   504G12c C00V 9161   2.668  10.352  13.475 -0.7956 -1.5104  0.2061
   504G12c C00U 9162   2.657  10.357  13.341  1.1044 -0.9490 -0.3930
   504G12c C00T 9163   2.751  10.300  13.252  0.6620 -0.3373  0.2127
   504G12c C016 9164   2.729  10.289  13.112 -0.2849 -0.2176  0.9587
   504G12c C015 9165   2.616  10.355  13.055  0.5072  0.0161 -0.3224
   504G12c C010 9166   2.532  10.424  13.143  1.5040 -0.3463  1.5414
   504G12c C011 9167   2.413  10.482  13.083  0.7673 -1.0450 -0.6612
   504G12c H005 9168   2.344  10.538  13.146 -0.5971 -5.1257  1.6720
   504G12c C012 9169   2.391  10.483  12.952 -2.1408 -0.8944 -0.3755
   504G12c C017 9170   2.262  10.548  12.901  0.0056  2.4095 -0.5927
   504G12c O002 9171   2.254  10.676  12.885 -0.2249 -0.6868 -0.1044
   504G12c H004 9172   2.334  10.666  12.835 -1.5658  0.8723 -2.6658
   504G12c C018 9173   2.171  10.463  12.842  1.1933 -1.8619  1.2637
   504G12c O001 9174   2.215  10.324  12.827 -0.9325 -0.6554  1.0817
   504G12c H003 9175   2.277  10.288  12.889 -0.7020  4.3465  4.0688
   504G12c C019 9176   2.041  10.499  12.761  0.0915 -0.0996  0.0513
   504G12c H002 9177   1.987  10.405  12.751  0.9946 -0.6098 -0.0027
   504G12c H001 9178   1.992  10.581  12.813  3.5260  1.1853  1.4000
   504G12c O000 9179   2.053  10.564  12.622 -1.0778  1.1074  0.1865
   504G12c C01A 9180   1.945  10.561  12.530 -0.6210  1.4516  0.0069
   504G12c C02K 9181   1.974  10.561  12.382  0.7904  0.2567  1.3128
   504G12c O00G 9182   2.090  10.595  12.322 -0.7518  0.4004 -0.4431
   504G12c C02M 9183   2.156  10.716  12.349  0.3816 -0.1375  0.6081
   504G12c H01G 9184   2.080  10.786  12.314  2.3474  3.0657  2.5175
   504G12c H01F 9185   2.223  10.734  12.265 -1.4054  2.3401 -0.3577
   504G12c H01E 9186   2.186  10.726  12.453  2.4605 -2.1210  0.2250
   504G12c C02J 9187   1.863  10.593  12.294 -1.2152  1.4250 -2.1588
   504G12c H01H 9188   1.890  10.596  12.189  5.1601 -4.7963 -1.0613
   504G12c C02I 9189   1.725  10.580  12.338 -0.5735  0.4538 -0.6250
   504G12c C02N 9190   1.621  10.599  12.240 -0.6468 -1.1116  0.1966
   504G12c H01M 9191   1.524  10.596  12.288  0.6749 -1.1485  3.0004
   504G12c C02O 9192   1.608  10.615  12.107 -0.7871 -1.1690  1.3661
   504G12c H01L 9193   1.696  10.627  12.045 -2.7367  1.3449 -1.0155
   504G12c C02P 9194   1.482  10.643  12.028  0.2483 -1.7325  2.6804
   504G12c H01K 9195   1.410  10.571  12.068 -3.4093 -2.2290 -3.9990
   504G12c H01J 9196   1.447  10.746  12.035 -2.4230 -2.0906 -2.4950
   504G12c O00H 9197   1.514  10.605  11.896  0.1722  0.2032 -0.0247
   504G12c H01I 9198   1.596  10.560  11.877  2.4992  4.2228  0.0258
   504G12c C02H 9199   1.711  10.570  12.474  0.0415  0.2232  0.2768
   504G12c H01C 9200   1.614  10.555  12.519 -0.4316  0.3845 -0.6864
   504G12c C02L 9201   1.807  10.571  12.573  0.1599  2.6098  1.3517
   504G12c H01D 9202   1.787  10.570  12.679 -3.8157 -5.8982  0.9115
   504G12c C013 9203   2.501  10.440  12.871  0.5447  0.8290 -0.3456
   504G12c H000 9204   2.480  10.452  12.766 -2.6716  1.2984  0.2950
   504G12c C014 9205   2.582  10.338  12.921 -1.0096  0.4958  0.3693
   504G12c C00F 9206   2.648  10.221  12.858 -0.2188 -0.7010  0.5303
   504G12c C00H 9207   2.777  10.177  13.057 -0.9395 -0.0119  0.6961
   504G12c C00I 9208   2.855  10.091  13.132  0.5451 -0.2680 -0.8372
   504G12c C00J 9209   2.918  10.137  13.249 -0.2713 -1.5524 -0.9978
   504G12c C00Z 9210   2.553  10.433  13.284 -0.4359  0.2090  0.8456
   504G12c C00Y 9211   2.486  10.523  13.362  0.5884  0.8515  2.1606
   504G12c H006 9212   2.402  10.578  13.322  0.8707  1.1137  1.9255
   504G12c C00X 9213   2.507  10.547  13.492  0.0911  1.3931  0.2673
   504G12c O003 9214   2.429  10.629  13.579 -1.0745  1.0714 -0.6627
   504G12c C01B 9215   2.313  10.575  13.648  0.3655 -1.2875 -1.2414
   504G12c H009 9216   2.252  10.635  13.715 -1.7257 -2.7790 -1.7443
   504G12c H008 9217   2.337  10.486  13.706 -3.5959 -2.6720 -1.5490
   504G12c H007 9218   2.237  10.556  13.572 -1.2155  9.8217 -3.2662
   504G12c C00W 9219   2.586  10.444  13.554  1.1468 -0.1832  0.5146
   504G12c O004 9220   2.589  10.439  13.708  0.1784 -0.7509 -0.4864
   504G12c C01C 9221   2.635  10.326  13.762 -1.8071  2.1359 -0.6938
   504G12c H00A 9222   2.621  10.315  13.868 -1.4951  1.6218 -0.7064
   504G12c C00P 9223   2.714  10.233  13.692  0.5942  1.6726 -1.7375
   504G12c C00O 9224   2.741  10.096  13.730  2.0713 -0.0769 -0.2081
   504G12c C01D 9225   2.651  10.024  13.825  0.9520  0.4312  0.6974
   504G12c H00S 9226   2.550  10.052  13.849  1.9220  0.6541  4.8361
   504G12c C01E 9227   2.658   9.892  13.880  0.0884  0.6325 -2.5719
   504G12c O008 9228   2.569   9.838  13.974 -0.0692 -0.1571  1.2148
   504G12c C01V 9229   2.434   9.852  13.965 -0.3597  0.3467  1.3337
   504G12c C01Z 9230   2.352   9.880  14.096 -0.9545 -0.5295  1.0835
   504G12c H00R 9231   2.296   9.973  14.088 -1.8089 -1.2956 -2.7514
   504G12c H00Q 9232   2.308   9.781  14.106  0.7546 -0.9842  4.9390
   504G12c O009 9233   2.454   9.909  14.208 -0.2077  0.7241  0.6578
   504G12c H00P 9234   2.539   9.884  14.174 -3.2668 -1.2853 -6.4665
   504G12c C01W 9235   2.350   9.827  13.860 -0.4373  0.1985 -1.2880
   504G12c H00O 9236   2.242   9.831  13.861 -0.6379  0.0116 -6.7533
   504G12c C01X 9237   2.397   9.774  13.723  0.7017 -0.8303 -0.2906
   504G12c H00N 9238   2.499   9.741  13.743  0.0858 -0.6571  3.4040
   504G12c H00M 9239   2.354   9.685  13.676 -2.0466  1.3668 -2.0861
   504G12c C01Y 9240   2.388   9.887  13.612 -2.9294 -0.2853  0.1984
   504G12c C02D 9241   2.502   9.909  13.534  1.4900  0.4469  0.4642
   504G12c H019 9242   2.594   9.854  13.523 -1.3109 -3.7295 -4.0934
   504G12c C02C 9243   2.501  10.030  13.449 -0.6870  0.2169  0.6524
   504G12c H01A 9244   2.576  10.042  13.373 -0.4677 -1.7431  0.5362
   504G12c C02B 9245   2.374  10.081  13.423 -0.6199 -0.9371  0.1228
   504G12c O00E 9246   2.368  10.162  13.321  0.2493  0.1608  1.2200
   504G12c H01B 9247   2.454  10.201  13.324  1.9892 -1.8918 -7.1991
   504G12c C02F 9248   2.262  10.043  13.483 -0.4175 -0.0325  0.4824
   504G12c O00F 9249   2.151  10.102  13.440  1.0296 -0.2310 -1.5319
   504G12c C02G 9250   2.052  10.113  13.544 -0.6985 -0.2892 -0.4727
   504G12c H017 9251   2.120  10.136  13.626 -1.7055  2.0180 -0.2466
   504G12c H016 9252   1.987  10.034  13.581 -1.5990  0.6609 -0.0056
   504G12c H015 9253   1.978  10.192  13.534  0.1652  0.6459  0.3625
   504G12c C02E 9254   2.272   9.939  13.597  0.4493 -0.6763  0.5724
   504G12c H018 9255   2.191   9.891  13.650  2.3112 -5.7085 -0.8400
   504G12c C01F 9256   2.774   9.816  13.835 -1.3868 -2.0141 -0.2980
   504G12c C01G 9257   2.782   9.669  13.854 -0.7774  1.3370 -0.2276
   504G12c H00L 9258   2.699   9.629  13.911  1.3099 -5.0124 -1.2403
   504G12c C01H 9259   2.882   9.594  13.773  0.5555 -0.7808 -0.1874
   504G12c H00B 9260   2.831   9.503  13.744  4.2570 -1.4110 -5.2575
   504G12c C01I 9261   2.967   9.675  13.689  1.1502  1.0547 -0.0255
   504G12c C01U 9262   2.867   9.883  13.760 -1.6847 -0.5543 -0.8016
   504G12c C00S 9263   2.855  10.242  13.321 -0.5404  1.4151  0.7187
   504G12c C00K 9264   2.942  10.029  13.335 -1.2251 -1.7603  0.3948
   504G12c C00N 9265   2.836   9.997  13.689  1.0838  0.3805  0.7023
   504G12c C000 9266   2.977   9.810  13.709  0.5122 -1.5258 -0.6276
   504G12c C01J 9267   2.984   9.659  13.552 -0.1159  0.2953  1.5479
   504G12c C01K 9268   2.991   9.528  13.485  1.7520  0.7652 -0.1985
   504G12c C01P 9269   3.022   9.388  13.553  1.0063 -0.7375  0.6496
   504G12c C01Q 9270   3.068   9.372  13.706  0.3123  0.4821  0.8715
   504G12c H00G 9271   3.034   9.292  13.770 -0.6876  0.1563 -0.0379
   504G12c C01R 9272   3.164   9.463  13.742  1.6114 -1.2538  0.4185
   504G12c H00F 9273   3.197   9.543  13.677  6.1100 -3.8933 -0.8222
   504G12c C01S 9274   3.229   9.458  13.870 -0.4725  0.1581  0.3354
   504G12c H00E 9275   3.282   9.363  13.870 -2.7659 -1.3133  5.5242
   504G12c H00D 9276   3.278   9.554  13.884 -0.3932 -0.2360  3.2138
   504G12c O005 9277   3.139   9.431  13.967 -2.1527  0.3954  0.2904
   504G12c H00C 9278   3.171   9.356  14.014 -1.4767 -2.3869 -4.3797
   504G12c C01O 9279   2.973   9.270  13.490 -0.4600  0.5978 -0.7517
   504G12c H00H 9280   2.990   9.175  13.539  3.3515  1.4817 -0.2373
   504G12c C01N 9281   2.908   9.272  13.365  0.4870  0.0779  1.3663
   504G12c O006 9282   2.844   9.169  13.307 -0.1257 -1.0291  0.4118
   504G12c C01T 9283   2.895   9.052  13.358 -0.3026 -0.8873 -1.3558
   504G12c H00K 9284   2.834   8.994  13.289 -0.1624  1.3677 -3.4535
   504G12c H00J 9285   2.835   9.043  13.449  0.9499 -3.1446 -0.7225
   504G12c H00I 9286   2.992   9.007  13.378 -2.0127 -4.2756 -0.3810
   504G12c C01M 9287   2.906   9.403  13.297 -1.0299 -0.5616  0.5729
   504G12c C020 9288   2.962   9.901  13.276  0.7888 -0.2955  0.9327
   504G12c C021 9289   2.953   9.885  13.141  1.8247  0.8105  0.2194
   504G12c C01L 9290   2.961   9.532  13.350 -1.1321  0.1873 -1.2131
   504G12c O007 9291   2.844   9.421  13.172  1.6909  0.5200  0.7075
   504G12c C022 9292   2.904   9.772  13.096  0.5365  1.0596 -0.0841
   504G12c C023 9293   2.890   9.981  13.065  1.6997 -0.9487  1.9119
   504G12c C00G 9294   2.717  10.128  12.928 -1.0067 -0.8240  0.3160
   504G12c C00E 9295   2.629  10.223  12.725  0.2951  0.2521  1.0568
   504G12c O00A 9296   2.653  10.329  12.650  1.1960  0.2836  0.2124
   504G12c C024 9297   2.776  10.381  12.640 -1.5708 -1.0541  1.3194
   504G12c H00V 9298   2.738  10.482  12.655  2.0127  0.0465  3.5079
   504G12c H00U 9299   2.832  10.345  12.554 -3.0196 -0.0172 -0.0900
   504G12c H00T 9300   2.830  10.378  12.735 -0.0092  5.3317  0.8413
   514G12c C00D 9301   3.587  11.754   1.854  0.0075 -0.4433  0.2221
   514G12c O00B 9302   3.714  11.748   1.786 -0.6387  0.8509 -1.0532
   514G12c C025 9303   3.822  11.675   1.853  0.0981  0.7948  0.8930
   514G12c C026 9304   3.808  11.515   1.852 -1.5358 -0.1665 -1.3262
   514G12c H00Y 9305   3.839  11.493   1.954  2.0140 -1.6533 -2.6238
   514G12c H00X 9306   3.907  11.481   1.821  1.6457  0.8750  6.4631
   514G12c O00C 9307   3.707  11.470   1.789 -0.3933  0.9033 -0.0689
   514G12c H00W 9308   3.751  11.463   1.706  3.5676 -5.3346  2.2490
   514G12c C027 9309   3.924  11.717   1.937  0.7629  0.4797  0.1551
   514G12c O00D 9310   4.042  11.652   1.938 -0.8696 -0.5012  0.2741
   514G12c H00Z 9311   4.115  11.711   1.945 -3.3550  2.6944  0.6491
   514G12c C028 9312   3.942  11.866   1.957  1.0405  1.2422 -1.9231
   514G12c C029 9313   3.826  11.957   1.965  0.0215  0.0718  1.3205
   514G12c H010 9314   3.734  11.903   1.951 -2.7614  5.1991 -1.8028
   514G12c C02T 9315   3.839  12.092   1.973  0.4834  0.7472  0.1216
   514G12c H01O 9316   3.749  12.150   1.990 -4.3959 -6.5323  1.4994
   514G12c C02S 9317   3.970  12.162   1.982 -1.4016  2.3022  0.4967
   514G12c O00J 9318   4.010  12.277   2.024  0.8738 -0.4568  0.4362
   514G12c H01P 9319   4.089  12.308   1.982 -0.5422 -1.2182 -2.9456
   514G12c C02R 9320   4.087  12.072   1.980  0.3110 -0.5420 -0.1135
   514G12c O00I 9321   4.226  12.112   1.993 -0.6067  0.0886  0.4921
   514G12c C02Q 9322   4.267  12.045   2.114  2.4311  1.1527  0.7780
   514G12c H01N 9323   4.282  12.127   2.184 -1.1538  2.3388  0.2566
   514G12c H01R 9324   4.363  12.006   2.080  0.7978 -2.4502  0.0419
   514G12c H01Q 9325   4.216  11.953   2.143 -1.9332  2.3131 -2.7357
   514G12c C02A 9326   4.062  11.936   1.950 -1.0260  0.1005 -0.2674
   514G12c H011 9327   4.153  11.881   1.932  0.3176  0.5191  4.6289
   514G12c C00C 9328   3.551  11.653   1.948  0.8823  0.0105  1.1661
   514G12c H012 9329   3.598  11.560   1.976 -1.3600 -0.8717  2.2368
   514G12c C00B 9330   3.426  11.630   1.995 -0.2741 -1.1331 -1.2240
   514G12c C00A 9331   3.376  11.520   2.072 -0.0010 -0.1465  0.7004
   514G12c C009 9332   3.395  11.381   2.049 -0.2603  1.2432  0.0971
   514G12c C008 9333   3.496  11.311   1.981  0.4186  1.1301 -0.8486
   514G12c H013 9334   3.568  11.368   1.923  0.8639  2.7726  1.2585
   514G12c C007 9335   3.459  11.180   1.925  0.9301 -1.2329  0.7164
   514G12c H014 9336   3.527  11.136   1.854 -1.2372 -3.6864  0.0677
   514G12c C006 9337   3.337  11.124   1.982  1.7096  0.7404  0.0724
   514G12c C005 9338   3.258  11.199   2.074 -0.0916 -0.6482  0.6732
   514G12c C004 9339   3.130  11.152   2.078 -0.7809 -0.8414  0.5110
   514G12c C003 9340   3.039  11.249   2.130  0.1359  0.7211 -0.5258
   514G12c C002 9341   2.901  11.191   2.154 -0.1824 -0.9263 -1.1002
   514G12c C001 9342   2.771  11.257   2.155 -0.3986  1.4379  0.1911
   514G12c C00M 9343   2.733  11.381   2.090  0.4738  0.4705 -1.0350
   514G12c C00L 9344   2.829  11.493   2.073  0.7811  0.6805  1.3898
   514G12c C00R 9345   2.780  11.614   2.003  0.4006 -0.1753 -2.3376
   514G12c C00Q 9346   2.682  11.642   1.903  0.8444  0.2991 -1.0951
   514G12c C00V 9347   2.723  11.771   1.847 -0.7537 -0.8616  1.9053
   514G12c C00U 9348   2.848  11.836   1.868 -0.1576 -0.4388  1.0105
   514G12c C00T 9349   2.951  11.786   1.948 -1.0826  1.9662  1.5251
   514G12c C016 9350   3.090  11.797   1.933 -0.8462 -0.8467 -0.1410
   514G12c C015 9351   3.134  11.918   1.865  0.6857  0.1798 -0.7983
   514G12c C010 9352   3.033  11.991   1.811  0.9226  0.9096 -0.4295
   514G12c C011 9353   3.072  12.114   1.758 -0.6225 -0.2088  1.0560
   514G12c H005 9354   2.991  12.183   1.743  1.9686  2.1777 -2.6910
   514G12c C012 9355   3.191  12.178   1.791  0.5466  0.1613 -0.0951
   514G12c C017 9356   3.230  12.311   1.760  1.2100 -0.1691  1.9089
   514G12c O002 9357   3.187  12.397   1.660 -0.1645 -1.0867  0.7157
   514G12c H004 9358   3.228  12.474   1.696 -4.3707  0.4429  2.5966
   514G12c C018 9359   3.295  12.370   1.876  2.2834  0.3971 -0.1332
   514G12c O001 9360   3.321  12.297   1.989  0.4720 -0.7306 -0.9690
   514G12c H003 9361   3.257  12.228   1.980 -4.0434  1.9574  6.1415
   514G12c C019 9362   3.332  12.520   1.904 -0.3774  0.2473  0.5331
   514G12c H002 9363   3.292  12.598   1.969 -0.6028  3.9207 -3.7125
   514G12c H001 9364   3.418  12.515   1.971  0.6990 -0.7728 -0.8959
   514G12c O000 9365   3.354  12.624   1.813  0.5266  0.0127  0.2059
   514G12c C01A 9366   3.482  12.655   1.777  3.0166  0.2440  0.4955
   514G12c C02K 9367   3.548  12.579   1.666 -0.9842  0.5586  1.1600
   514G12c O00G 9368   3.483  12.494   1.591 -0.2979 -0.0072  0.8179
   514G12c C02M 9369   3.527  12.412   1.487  0.0969 -0.3654 -1.0973
   514G12c H01G 9370   3.586  12.470   1.416  0.9689  0.4034  0.2073
   514G12c H01F 9371   3.460  12.340   1.441  1.6596 -1.2015 -2.0879
   514G12c H01E 9372   3.614  12.349   1.508  1.2502  3.1823  6.8775
   514G12c C02J 9373   3.696  12.604   1.643 -0.5111  1.3565  0.1997
   514G12c H01H 9374   3.732  12.543   1.562 -0.0852  3.8514 -1.5424
   514G12c C02I 9375   3.742  12.727   1.713  1.0812  0.1492 -0.1181
   514G12c C02N 9376   3.875  12.731   1.702 -1.5258  0.6098  1.9109
   514G12c H01M 9377   3.927  12.823   1.722  0.7295 -0.2390  0.2974
   514G12c C02O 9378   3.953  12.620   1.656  0.3997  1.8674  0.2463
   514G12c H01L 9379   3.901  12.530   1.629 -3.1403  4.5064 -2.3432
   514G12c C02P 9380   4.108  12.599   1.647  0.8078 -0.9329  0.0205
   514G12c H01K 9381   4.138  12.642   1.551 -3.9228 -0.8192 -1.5239
   514G12c H01J 9382   4.137  12.669   1.725  2.7655  1.6630 -2.9161
   514G12c O00H 9383   4.153  12.464   1.702  0.9345 -0.0505 -0.3208
   514G12c H01I 9384   4.089  12.403   1.735  0.1576 -0.1046 -1.8779
   514G12c C02H 9385   3.661  12.813   1.795 -0.3043  1.0921  0.1848
   514G12c H01C 9386   3.718  12.902   1.819  2.9591 -1.3007  1.7302
   514G12c C02L 9387   3.529  12.776   1.826 -0.5406 -0.7315  0.4896
   514G12c H01D 9388   3.477  12.815   1.912  3.6947 -2.9184  4.2669
   514G12c C013 9389   3.296  12.091   1.823  0.3672 -0.9908 -0.3451
   514G12c H000 9390   3.398  12.127   1.828  0.5356 -1.7485  1.9598
   514G12c C014 9391   3.265  11.941   1.858 -0.3512 -1.9239 -0.6771
   514G12c C00F 9392   3.359  11.847   1.903 -0.5184 -1.3417  1.0236
   514G12c C00H 9393   3.186  11.702   1.986  0.5398 -2.2931 -0.1829
   514G12c C00I 9394   3.155  11.630   2.097  2.1545  0.5625  1.9699
   514G12c C00J 9395   3.015  11.612   2.102 -0.4549  0.8003 -1.9911
   514G12c C00Z 9396   2.895  11.950   1.803  0.9417  1.0368 -0.5107
   514G12c C00Y 9397   2.794  12.029   1.747 -1.4840 -0.8541  0.6668
   514G12c H006 9398   2.822  12.123   1.702  0.6064 -0.6845  2.2438
   514G12c C00X 9399   2.675  11.965   1.698 -0.4623  1.9127  0.6110
   514G12c O003 9400   2.579  11.988   1.603  0.1936  0.2805  0.6024
   514G12c C01B 9401   2.602  11.922   1.466  0.4219  0.7397 -0.3885
   514G12c H009 9402   2.554  11.825   1.484  0.4479  0.8776  0.4418
   514G12c H008 9403   2.557  11.968   1.379  3.1217  2.7860 -0.7527
   514G12c H007 9404   2.703  11.951   1.436  1.8617 -2.6563  0.8614
   514G12c C00W 9405   2.637  11.844   1.760 -0.9861 -1.4205 -0.1722
   514G12c O004 9406   2.527  11.765   1.709 -2.3499  0.5863  1.4126
   514G12c C01C 9407   2.487  11.642   1.763 -0.1648 -0.3142  0.3929
   514G12c H00A 9408   2.385  11.611   1.744  0.4057 -3.5436  2.3439
   514G12c C00P 9409   2.571  11.574   1.850 -0.7874  0.3140 -0.9640
   514G12c C00O 9410   2.552  11.439   1.897  0.2542  0.2726 -2.1249
   514G12c C01D 9411   2.442  11.368   1.844  0.0367  1.4908  1.4266
   514G12c H00S 9412   2.391  11.427   1.769  1.3535 -1.6543 -2.0886
   514G12c C01E 9413   2.409  11.225   1.862 -0.6328 -1.1897 -0.5913
   514G12c O008 9414   2.327  11.158   1.772  1.3704  0.5722  0.1263
   514G12c C01V 9415   2.341  11.164   1.635 -0.9240  0.6254  0.0673
   514G12c C01Z 9416   2.417  11.018   1.605 -0.8798  0.3261  0.6721
   514G12c H00R 9417   2.395  11.008   1.498  0.5605 -2.1813  0.5741
   514G12c H00Q 9418   2.523  11.013   1.582 -0.4371  0.2552  2.7110
   514G12c O009 9419   2.354  10.904   1.663 -2.0451  0.3975 -0.7090
   514G12c H00P 9420   2.262  10.899   1.641 -3.6760 -1.1440  5.3783
   514G12c C01W 9421   2.304  11.259   1.548  1.6025 -1.0231 -0.0034
   514G12c H00O 9422   2.241  11.336   1.589  5.0720 -0.7518  5.2269
   514G12c C01X 9423   2.348  11.232   1.407 -0.9233 -1.3622 -0.2011
   514G12c H00N 9424   2.384  11.334   1.396 -1.4879 -1.1332  0.0651
   514G12c H00M 9425   2.443  11.178   1.406  0.9240  1.6740  3.0037
   514G12c C01Y 9426   2.253  11.196   1.308 -1.0608 -0.2633  0.8039
   514G12c C02D 9427   2.279  11.085   1.208  0.4681 -0.6755  1.3108
   514G12c H019 9428   2.374  11.037   1.190  1.9380  2.0146  1.5967
   514G12c C02C 9429   2.180  11.066   1.105  0.2476 -1.2054 -1.2410
   514G12c H01A 9430   2.209  11.020   1.012  4.7719  2.2521 -1.7139
   514G12c C02B 9431   2.059  11.145   1.132  2.0408 -0.0840 -0.2067
   514G12c O00E 9432   1.964  11.117   1.039 -0.1690  0.0843 -0.3431
   514G12c H01B 9433   1.891  11.093   1.095  2.4037  2.5345  4.3623
   514G12c C02F 9434   2.021  11.236   1.237 -1.7272  2.3655 -0.2931
   514G12c O00F 9435   1.901  11.299   1.242 -0.0118  0.1674  0.7881
   514G12c C02G 9436   1.815  11.323   1.353  2.8328 -1.4528 -0.0036
   514G12c H017 9437   1.821  11.432   1.349 -2.2425 -1.0821 -0.9798
   514G12c H016 9438   1.866  11.341   1.448  0.4609 -4.2101  1.8770
   514G12c H015 9439   1.709  11.303   1.365  0.5480  6.4658 -3.4329
   514G12c C02E 9440   2.130  11.267   1.322 -0.3305  1.7761  1.3224
   514G12c H018 9441   2.092  11.314   1.411 -2.8064  2.8962 -0.2726
   514G12c C01F 9442   2.515  11.153   1.934 -0.2825  0.5151 -0.3268
   514G12c C01G 9443   2.542  11.014   1.932  1.4342 -0.1096  1.4811
   514G12c H00L 9444   2.485  10.943   1.874 -3.7697  2.6445  2.9164
   514G12c C01H 9445   2.670  10.960   1.970 -0.5694 -0.5309  0.2183
   514G12c H00B 9446   2.686  10.866   1.918  2.1811 -1.4162  2.4930
   514G12c C01I 9447   2.746  11.041   2.070 -0.0967  1.2992 -0.7654
   514G12c C01U 9448   2.591  11.234   2.017 -0.1772  0.0286  0.8583
   514G12c C00S 9449   2.908  11.681   2.027 -0.1120  0.4258  2.3003
   514G12c C00K 9450   2.960  11.485   2.140 -0.0323  1.2803  0.2131
   514G12c C00N 9451   2.624  11.376   1.995 -0.0890 -0.4277  1.5641
   514G12c C000 9452   2.689  11.167   2.082 -1.7525  0.6303 -0.7285
   514G12c C01J 9453   2.883  11.046   2.116  1.6399 -1.7185 -0.6873
   514G12c C01K 9454   2.983  10.950   2.089  0.0997 -0.0949  0.5065
   514G12c C01P 9455   2.971  10.811   2.074 -1.8458 -0.1463 -1.2521
   514G12c C01Q 9456   2.885  10.746   2.157 -1.9953 -1.2327 -0.8634
   514G12c H00G 9457   2.866  10.789   2.255 -2.8517 -5.6008  1.0195
   514G12c C01R 9458   2.814  10.638   2.120  1.2736 -1.3220  0.7416
   514G12c H00F 9459   2.849  10.575   2.040 -0.1047 -5.6359  3.3133
   514G12c C01S 9460   2.714  10.565   2.200  0.3219 -0.8568 -0.2571
   514G12c H00E 9461   2.668  10.650   2.251  1.5274  3.1321 -5.3652
   514G12c H00D 9462   2.628  10.532   2.142 -1.6784  1.9636  0.9999
   514G12c O005 9463   2.782  10.477   2.279  1.4492 -1.7458 -0.5588
   514G12c H00C 9464   2.865  10.467   2.235  3.3944 -2.5595  3.0625
   514G12c C01O 9465   3.068  10.731   2.005 -0.3598 -1.2160  0.6202
   514G12c H00H 9466   3.067  10.625   2.026 -3.7217 -0.9728  1.8703
   514G12c C01N 9467   3.180  10.809   1.950  0.0694  1.2014 -0.5674
   514G12c O006 9468   3.282  10.747   1.867  0.4128  1.9869 -1.6841
   514G12c C01T 9469   3.280  10.607   1.834 -0.2746 -0.6920 -1.5520
   514G12c H00K 9470   3.309  10.547   1.921 -4.0993  4.0002  3.3457
   514G12c H00J 9471   3.179  10.578   1.805 -0.4381 -1.0228 -0.6742
   514G12c H00I 9472   3.338  10.576   1.747 -2.2982 -1.1438 -2.7740
   514G12c C01M 9473   3.186  10.943   1.966 -0.4885 -1.1252  1.5878
   514G12c C020 9474   3.063  11.384   2.154  0.4011  1.3475 -0.8927
   514G12c C021 9475   3.208  11.409   2.169  0.2098  0.4893  0.3667
   514G12c C01L 9476   3.097  11.019   2.057 -1.3905 -2.1948  0.9021
   514G12c O007 9477   3.303  10.993   1.940 -0.1580 -0.8246  0.3271
   514G12c C022 9478   3.292  11.320   2.124 -1.0856  0.6104 -0.9844
   514G12c C023 9479   3.258  11.547   2.142  0.3382  0.1101  0.1942
   514G12c C00G 9480   3.323  11.733   1.961 -0.7126 -1.6846 -0.0539
   514G12c C00E 9481   3.494  11.853   1.840  0.4330 -0.2615 -0.2026
   514G12c O00A 9482   3.542  11.960   1.770 -0.1183  1.3756 -0.8788
   514G12c C024 9483   3.557  11.970   1.623 -1.0591  1.0914  1.0272
   514G12c H00V 9484   3.634  11.903   1.586 -2.9727  0.6728 -2.3792
   514G12c H00U 9485   3.593  12.069   1.596  1.0981 -0.1872 -0.9384
   514G12c H00T 9486   3.474  11.950   1.556  1.3048 -0.1652 -1.6045
   524G12c C00D 9487   4.084   5.899  12.582  2.0667  1.4671 -0.0270
   524G12c O00B 9488   4.193   5.931  12.504  0.0914 -0.4697  1.4552
   524G12c C025 9489   4.259   6.029  12.552  1.0288 -0.4542 -0.8495
   524G12c C026 9490   4.228   6.160  12.486  0.6111  0.5571 -0.9208
   524G12c H00Y 9491   4.217   6.124  12.384 -4.7875  1.2633 -0.7205
   524G12c H00X 9492   4.288   6.251  12.484 -0.2737  1.5447  5.4175
   524G12c O00C 9493   4.122   6.201  12.567  0.5837 -0.4376 -0.7776
   524G12c H00W 9494   4.036   6.167  12.548 -0.3070  2.2589 -1.8377
   524G12c C027 9495   4.369   6.015  12.613 -0.6138 -0.6492  0.7581
   524G12c O00D 9496   4.396   5.895  12.660 -0.2244 -0.3057 -1.1137
   524G12c H00Z 9497   4.482   5.901  12.699 -0.8980 -6.6350  2.0332
   524G12c C028 9498   4.470   6.125  12.639 -0.0228  1.0092 -0.6567
   524G12c C029 9499   4.574   6.122  12.559  0.8094  0.1718 -0.6040
   524G12c H010 9500   4.573   6.082  12.458 -0.2357 -1.8669  0.1875
   524G12c C02T 9501   4.689   6.188  12.575  0.4278 -0.8661 -0.0399
   524G12c H01O 9502   4.765   6.199  12.499  1.3175 -0.5247  0.8872
   524G12c C02S 9503   4.670   6.291  12.671 -0.6579  1.1758 -2.0284
   524G12c O00J 9504   4.769   6.373  12.708  1.5987 -0.7233 -1.0594
   524G12c H01P 9505   4.746   6.371  12.799  1.7349  1.2088 -0.9602
   524G12c C02R 9506   4.567   6.305  12.773 -1.2953  0.6688  0.3612
   524G12c O00I 9507   4.585   6.390  12.881 -0.5314  0.2665  0.5611
   524G12c C02Q 9508   4.686   6.358  12.986  0.8985  0.7884 -0.9527
   524G12c H01N 9509   4.678   6.425  13.072 -4.0605 -0.2189 -0.5046
   524G12c H01R 9510   4.785   6.400  12.970  0.2441  0.6559 -6.2707
   524G12c H01Q 9511   4.687   6.255  13.022 -4.0136  1.9373  2.9965
   524G12c C02A 9512   4.476   6.206  12.767  0.8795 -0.9279 -0.6712
   524G12c H011 9513   4.398   6.202  12.842  0.6976  2.9221 -0.5074
   524G12c C00C 9514   4.049   5.965  12.703 -0.2250 -0.3292 -0.4565
   524G12c H012 9515   4.098   6.047  12.754 -3.6775  0.5733  1.5400
   524G12c C00B 9516   3.957   5.920  12.789 -1.6042  0.3781 -0.6173
   524G12c C00A 9517   3.936   5.967  12.918  1.3082 -0.3474 -0.3787
   524G12c C009 9518   4.033   6.000  13.021  0.9323 -0.0713  1.0577
   524G12c C008 9519   4.178   5.982  13.023 -0.0863  0.1597  2.0609
   524G12c H013 9520   4.239   5.932  12.950 -5.8136 -4.1448 -0.1783
   524G12c C007 9521   4.219   5.963  13.150  0.3266 -0.9583 -0.9146
   524G12c H014 9522   4.308   5.908  13.175  3.8167  4.5550 -0.3643
   524G12c C006 9523   4.136   5.935  13.274 -2.7023 -1.9752  1.6883
   524G12c C005 9524   3.999   5.968  13.257 -0.4250  0.2325  0.1215
   524G12c C004 9525   3.906   5.940  13.356 -0.4306  0.2203  0.2664
   524G12c C003 9526   3.774   5.905  13.327  0.6585 -1.0563  1.0589
   524G12c C002 9527   3.679   5.882  13.423 -0.5573  0.1636  0.7158
   524G12c C001 9528   3.531   5.850  13.422 -1.5345  1.1623 -0.6205
   524G12c C00M 9529   3.468   5.757  13.328 -0.5899 -0.9503 -0.2110
   524G12c C00L 9530   3.526   5.741  13.204 -2.2481  0.5995 -0.0103
   524G12c C00R 9531   3.485   5.651  13.103 -0.1335  0.4716  1.2048
   524G12c C00Q 9532   3.424   5.522  13.109 -1.0401 -2.0036  0.0219
   524G12c C00V 9533   3.456   5.446  12.994  0.5210 -0.6420 -1.5490
   524G12c C00U 9534   3.533   5.482  12.886  0.3834  0.8506 -1.4191
   524G12c C00T 9535   3.601   5.597  12.888  0.4239  0.7370 -0.5263
   524G12c C016 9536   3.694   5.648  12.808 -0.0045  0.4103 -0.1574
   524G12c C015 9537   3.715   5.584  12.691  1.2009 -2.3144 -0.4098
   524G12c C010 9538   3.624   5.481  12.659  1.7755  1.3201  0.8587
   524G12c C011 9539   3.636   5.408  12.525  1.2177  0.0255 -1.4460
   524G12c H005 9540   3.611   5.303  12.521  0.4533  0.2910 -5.0520
   524G12c C012 9541   3.691   5.473  12.418 -0.7041 -0.0258 -1.8011
   524G12c C017 9542   3.659   5.419  12.291 -0.2502  0.3146  1.0392
   524G12c O002 9543   3.751   5.459  12.181 -0.2134  0.0346 -0.1098
   524G12c H004 9544   3.815   5.508  12.231 -1.6589  0.7374  1.0944
   524G12c C018 9545   3.528   5.366  12.258 -0.4974  1.0419 -1.3628
   524G12c O001 9546   3.509   5.328  12.126 -0.3791  0.1201 -1.3075
   524G12c H003 9547   3.579   5.317  12.063  2.3289 -0.8418  1.6739
   524G12c C019 9548   3.400   5.390  12.341 -0.2698 -0.2869  1.3739
   524G12c H002 9549   3.328   5.309  12.330  3.0203 -3.9466  4.8378
   524G12c H001 9550   3.405   5.355  12.445  5.3534  2.7976  2.3602
   524G12c O000 9551   3.339   5.519  12.317  0.0805 -0.0292 -0.9107
   524G12c C01A 9552   3.363   5.612  12.406  0.8897  0.9883  0.5821
   524G12c C02K 9553   3.357   5.739  12.342 -0.2990 -0.1027 -1.5394
   524G12c O00G 9554   3.373   5.733  12.221 -0.7124 -0.2745  0.7831
   524G12c C02M 9555   3.242   5.757  12.144 -0.3853  2.1356 -0.7934
   524G12c H01G 9556   3.254   5.848  12.086 -1.6919  2.4466 -0.5992
   524G12c H01F 9557   3.161   5.780  12.214 -1.2042  1.7549 -1.6087
   524G12c H01E 9558   3.220   5.665  12.089  0.3478  2.1171 -1.0596
   524G12c C02J 9559   3.388   5.850  12.419  0.7607 -0.7992  0.2251
   524G12c H01H 9560   3.414   5.944  12.372 -5.7240  2.1717  2.1326
   524G12c C02I 9561   3.422   5.844  12.557  1.3806  2.0891  0.7225
   524G12c C02N 9562   3.495   5.957  12.615  1.2150 -0.1583 -0.1724
   524G12c H01M 9563   3.454   6.046  12.661  2.7072  1.5574 -2.0792
   524G12c C02O 9564   3.615   5.978  12.570 -0.5971 -1.3209  0.4061
   524G12c H01L 9565   3.683   5.926  12.504  4.3677  0.8254  3.5232
   524G12c C02P 9566   3.691   6.119  12.593  0.7510 -1.1889  0.4542
   524G12c H01K 9567   3.800   6.118  12.594  0.8442  1.3010  4.2062
   524G12c H01J 9568   3.670   6.186  12.509 -5.2914 -3.6646 -0.2133
   524G12c O00H 9569   3.663   6.197  12.701 -0.2279  0.8128 -0.8275
   524G12c H01I 9570   3.610   6.177  12.776 -2.3006  1.9909 -1.9169
   524G12c C02H 9571   3.394   5.715  12.623  1.7104 -0.1186 -0.1414
   524G12c H01C 9572   3.402   5.699  12.730  0.4256 -5.3818 -0.7074
   524G12c C02L 9573   3.379   5.604  12.546  0.7348 -3.1775  1.6025
   524G12c H01D 9574   3.343   5.516  12.597  2.4165 -5.7336 -1.4763
   524G12c C013 9575   3.770   5.594  12.457  1.1981 -0.7982  1.0964
   524G12c H000 9576   3.779   5.664  12.375  2.5768 -3.9749 -1.5877
   524G12c C014 9577   3.805   5.624  12.597  0.6101 -1.9899  0.7204
   524G12c C00F 9578   3.902   5.728  12.628 -1.5233 -2.0128  1.0256
   524G12c C00H 9579   3.766   5.763  12.840  1.0643  0.8594 -0.8610
   524G12c C00I 9580   3.743   5.850  12.951  1.4885 -1.4707  2.1499
   524G12c C00J 9581   3.630   5.807  13.016  0.3296  0.7664 -0.3307
   524G12c C00Z 9582   3.552   5.418  12.765 -1.1470  0.6722  0.1410
   524G12c C00Y 9583   3.518   5.287  12.773  0.5757 -1.4987  0.2007
   524G12c H006 9584   3.567   5.225  12.699 -0.6352 -0.9163 -1.1117
   524G12c C00X 9585   3.434   5.230  12.871  1.8568 -0.2199  0.5079
   524G12c O003 9586   3.389   5.099  12.870 -0.4208 -0.5516  0.7450
   524G12c C01B 9587   3.396   5.046  12.731 -0.3077 -0.8824 -1.9850
   524G12c H009 9588   3.353   4.946  12.740  2.6720 -2.3620 -3.4930
   524G12c H008 9589   3.490   4.995  12.712  0.8123  0.8020 -1.0859
   524G12c H007 9590   3.310   5.076  12.670 -2.4063 -1.4837  0.5803
   524G12c C00W 9591   3.413   5.306  12.983 -0.1657  0.7493  0.6871
   524G12c O004 9592   3.339   5.252  13.100 -0.4966  1.2195  0.1890
   524G12c C01C 9593   3.294   5.341  13.196 -0.6734  0.8286  0.4760
   524G12c H00A 9594   3.203   5.316  13.249 -0.5175  1.4655  1.0508
   524G12c C00P 9595   3.368   5.471  13.219  2.0535 -1.3260 -1.3226
   524G12c C00O 9596   3.384   5.503  13.352 -0.4687 -0.6595 -1.1021
   524G12c C01D 9597   3.365   5.416  13.467 -0.1289  0.0016 -0.7404
   524G12c H00S 9598   3.324   5.318  13.449  2.9426 -1.4113 -0.2324
   524G12c C01E 9599   3.410   5.443  13.604 -1.1430  0.9028  1.2161
   524G12c O008 9600   3.410   5.351  13.700 -1.1414  0.0733 -0.6856
   524G12c C01V 9601   3.338   5.237  13.682  0.9745 -0.7836 -0.7966
   524G12c C01Z 9602   3.184   5.232  13.635 -0.1750  1.0783  1.1291
   524G12c H00R 9603   3.163   5.269  13.534  2.0242  1.8979  0.9420
   524G12c H00Q 9604   3.118   5.146  13.628  2.1494 -0.8208  2.0759
   524G12c O009 9605   3.118   5.310  13.728 -0.9586 -0.7324 -0.0248
   524G12c H00P 9606   3.178   5.349  13.790  1.1056 -0.0702 -2.3576
   524G12c C01W 9607   3.378   5.141  13.766 -0.1935 -1.4866 -1.0558
   524G12c H00O 9608   3.459   5.154  13.836  2.6781 -4.0940 -3.7041
   524G12c C01X 9609   3.322   5.004  13.786  0.0790  0.1875 -1.9442
   524G12c H00N 9610   3.248   4.991  13.707 -1.7030  4.9003 -1.2257
   524G12c H00M 9611   3.404   4.935  13.764  0.5453  1.2156 -3.5217
   524G12c C01Y 9612   3.266   4.998  13.932 -1.8186  0.6321  1.2651
   524G12c C02D 9613   3.150   5.079  13.963  0.0375 -1.0767  0.8843
   524G12c H019 9614   3.105   5.128  13.878  5.2730 -0.5894 -1.8030
   524G12c C02C 9615   3.119   5.093  14.088 -2.1841  0.0114 -1.3341
   524G12c H01A 9616   3.034   5.155  14.112 -0.8843  3.8785 -5.8942
   524G12c C02B 9617   3.205   5.054  14.199 -1.6466 -0.3037 -0.6093
   524G12c O00E 9618   3.163   5.085  14.327  0.0113  0.9375  0.3688
   524G12c H01B 9619   3.198   5.020  14.386 -2.9558 -0.8452  0.2898
   524G12c C02F 9620   3.311   4.965  14.170 -0.3960 -2.1959 -1.1096
   524G12c O00F 9621   3.379   4.937  14.292 -0.3417 -0.4934  0.7161
   524G12c C02G 9622   3.308   4.826  14.348  0.6461 -1.7766  0.3546
   524G12c H017 9623   3.375   4.742  14.366 -2.4154 -4.0990  1.5351
   524G12c H016 9624   3.239   4.789  14.273 -2.7939  2.7182  1.0909
   524G12c H015 9625   3.260   4.876  14.432  4.0517  6.4316 -2.0961
   524G12c C02E 9626   3.332   4.932  14.028  0.8305  1.1846 -2.5015
   524G12c H018 9627   3.425   4.878  14.022 -0.8366 -2.6570  2.0271
   524G12c C01F 9628   3.462   5.566  13.634  0.2269  0.8834 -1.4300
   524G12c C01G 9629   3.578   5.585  13.733 -0.7291  0.2196  0.1488
   524G12c H00L 9630   3.573   5.485  13.773 -0.4583 -0.8503 -2.3730
   524G12c C01H 9631   3.654   5.704  13.713  0.7553 -0.2269 -0.7557
   524G12c H00B 9632   3.760   5.690  13.730  0.6837 -0.4171 -0.4546
   524G12c C01I 9633   3.629   5.801  13.630  0.3366 -0.0705  0.5672
   524G12c C01U 9634   3.449   5.675  13.546  0.0693 -0.9314 -0.4750
   524G12c C00S 9635   3.554   5.680  12.978  0.4910  2.3652 -1.5570
   524G12c C00K 9636   3.633   5.824  13.149  0.2280 -0.2264  0.8339
   524G12c C00N 9637   3.437   5.638  13.413 -1.1267 -1.7499 -0.0886
   524G12c C000 9638   3.500   5.804  13.565 -1.7239 -1.2024 -0.4760
   524G12c C01J 9639   3.722   5.882  13.560 -0.8016  0.4971  1.4513
   524G12c C01K 9640   3.875   5.895  13.585 -1.1274 -1.9779  1.5617
   524G12c C01P 9641   3.944   5.897  13.711  0.5833  0.7817  0.9567
   524G12c C01Q 9642   3.869   5.942  13.833 -0.9084 -1.8931  0.9949
   524G12c H00G 9643   3.812   5.870  13.890 -1.4082 -1.0222  1.6060
   524G12c C01R 9644   3.887   6.072  13.873 -0.2207  1.2328  1.1559
   524G12c H00F 9645   3.947   6.133  13.807 -5.5125  0.3966 -4.9799
   524G12c C01S 9646   3.834   6.147  13.984  2.0508  0.3423 -1.3108
   524G12c H00E 9647   3.737   6.099  13.993  2.0390  0.6626  0.3836
   524G12c H00D 9648   3.884   6.125  14.078 -0.2663 -1.6840 -0.5208
   524G12c O005 9649   3.814   6.283  13.934  0.0414  1.2153  0.8084
   524G12c H00C 9650   3.884   6.339  13.964  0.9711  1.8473 -2.3341
   524G12c C01O 9651   4.071   5.850  13.726 -0.7570  0.4741  0.1915
   524G12c H00H 9652   4.126   5.840  13.818 -5.9782 -4.4729  3.0939
   524G12c C01N 9653   4.132   5.816  13.603 -1.4677  0.7598  0.7543
   524G12c O006 9654   4.244   5.741  13.630 -0.6859  1.1743 -0.5657
   524G12c C01T 9655   4.378   5.804  13.600  0.9081 -0.5160 -0.8715
   524G12c H00K 9656   4.456   5.751  13.654  0.9540 -0.4126 -0.8363
   524G12c H00J 9657   4.398   5.901  13.647 -1.0756  1.1897 -3.3811
   524G12c H00I 9658   4.403   5.809  13.494  2.7280  1.5787 -0.3866
   524G12c C01M 9659   4.081   5.826  13.482 -0.6397 -1.3379  1.0351
   524G12c C020 9660   3.730   5.919  13.198  0.2032 -0.5617 -0.3096
   524G12c C021 9661   3.812   6.004  13.110  2.1414  0.9344 -0.0726
   524G12c C01L 9662   3.949   5.868  13.468  0.8063  0.4677  0.9569
   524G12c O007 9663   4.159   5.835  13.365  0.1371  1.5541  0.2734
   524G12c C022 9664   3.949   6.016  13.139 -1.5348 -0.5183  2.1364
   524G12c C023 9665   3.811   5.969  12.969 -0.6860 -1.2681 -0.0890
   524G12c C00G 9666   3.875   5.803  12.747 -0.3968 -0.0441 -0.3058
   524G12c C00E 9667   3.997   5.798  12.541  0.1400  0.0465  0.8184
   524G12c O00A 9668   3.961   5.788  12.404  1.0037  0.6353  0.9093
   524G12c C024 9669   3.889   5.905  12.347 -0.9501 -1.5796  1.0254
   524G12c H00V 9670   3.857   5.981  12.418 -2.3603 -0.7972 -0.4320
   524G12c H00U 9671   3.804   5.883  12.283  0.1538 -4.9285  0.6001
   524G12c H00T 9672   3.946   5.946  12.264  4.6571 -0.7326  5.0385
   534G12c C00D 9673   4.221   6.993   1.025  1.6140 -0.8246 -1.0601
   534G12c O00B 9674   4.199   6.860   1.066  0.3620  0.1915 -0.6971
   534G12c C025 9675   4.214   6.835   1.197  0.5207 -1.1855 -0.1113
   534G12c C026 9676   4.111   6.845   1.310  0.1580 -0.0092 -0.9865
   534G12c H00Y 9677   4.035   6.906   1.261  2.2772  4.7471  1.3071
   534G12c H00X 9678   4.166   6.883   1.396  3.5088 -2.1598 -2.0806
   534G12c O00C 9679   4.104   6.709   1.316 -1.5065  0.6493  0.9834
   534G12c H00W 9680   4.117   6.685   1.406 -2.1612 -3.5193  0.0617
   534G12c C027 9681   4.341   6.782   1.194  0.1690 -0.6918 -0.0445
   534G12c O00D 9682   4.421   6.799   1.085  0.0488  1.2565  1.2736
   534G12c H00Z 9683   4.371   6.828   1.010  2.6968 -2.3319 -2.1029
   534G12c C028 9684   4.395   6.746   1.332  0.5404 -0.5091  1.3197
   534G12c C029 9685   4.390   6.618   1.393 -0.3328  1.0678  1.5769
   534G12c H010 9686   4.406   6.529   1.334  4.5050  2.5030  0.5210
   534G12c C02T 9687   4.443   6.582   1.525 -1.4129 -0.9392  1.5914
   534G12c H01O 9688   4.425   6.489   1.576 -1.2611 -0.9609  1.6060
   534G12c C02S 9689   4.494   6.676   1.604 -1.2222 -0.2998  0.0799
   534G12c O00J 9690   4.485   6.672   1.736  0.4257 -0.4858 -0.1635
   534G12c H01P 9691   4.487   6.757   1.777  1.1659  1.3412 -3.7607
   534G12c C02R 9692   4.491   6.817   1.558  2.0855 -0.4349  1.6545
   534G12c O00I 9693   4.525   6.915   1.648 -2.2651 -0.7345  0.8227
   534G12c C02Q 9694   4.549   7.039   1.613 -0.4338  2.2388  1.4688
   534G12c H01N 9695   4.497   7.052   1.519  2.4937 -0.8216 -0.7344
   534G12c H01R 9696   4.489   7.091   1.687 -1.6715  0.9384  1.4059
   534G12c H01Q 9697   4.645   7.070   1.570 -2.1902  2.0016 -2.8885
   534G12c C02A 9698   4.426   6.855   1.428 -0.0958  0.0241  0.6398
   534G12c H011 9699   4.412   6.950   1.379  4.7186 -0.9167 -2.8696
   534G12c C00C 9700   4.206   7.104   1.106 -0.2478 -0.2980  1.7737
   534G12c H012 9701   4.191   7.101   1.212  1.5685  3.3498  2.2258
   534G12c C00B 9702   4.231   7.232   1.049  1.1685  0.3427 -0.4745
   534G12c C00A 9703   4.197   7.356   1.109  0.4496  0.3733  0.2462
   534G12c C009 9704   4.094   7.390   1.217 -0.3465  0.1743  0.8712
   534G12c C008 9705   4.018   7.310   1.302 -0.1151 -0.7207 -1.0041
   534G12c H013 9706   4.044   7.205   1.304  1.8148 -0.2572 -0.8353
   534G12c C007 9707   3.889   7.354   1.367 -1.1261  1.2240 -0.0250
   534G12c H014 9708   3.827   7.281   1.416 -0.5524 -1.9551 -3.8355
   534G12c C006 9709   3.829   7.474   1.315  1.1402 -0.3605  0.2964
   534G12c C005 9710   3.915   7.562   1.238 -0.1775  0.8207 -0.0097
   534G12c C004 9711   3.853   7.670   1.159 -0.4878 -1.2375 -1.5816
   534G12c C003 9712   3.934   7.722   1.058  0.3056  0.4615  0.2575
   534G12c C002 9713   3.873   7.846   0.987 -0.8758  0.0065  1.2858
   534G12c C001 9714   3.897   7.919   0.861 -0.7576 -0.6929  2.0150
   534G12c C00M 9715   3.951   7.838   0.742 -0.1280  0.0222  1.4357
   534G12c C00L 9716   4.051   7.747   0.750  1.1548  0.3622 -0.1279
   534G12c C00R 9717   4.098   7.683   0.627 -0.5280  0.0478 -0.8326
   534G12c C00Q 9718   4.062   7.699   0.494 -0.4835  0.4867 -1.1367
   534G12c C00V 9719   4.138   7.584   0.425 -0.9020  0.0812 -0.8362
   534G12c C00U 9720   4.197   7.483   0.493  0.5536  0.5880 -0.3662
   534G12c C00T 9721   4.227   7.482   0.628 -0.7788 -2.0538  0.8302
   534G12c C016 9722   4.263   7.369   0.709 -0.2529 -0.5679  0.8054
   534G12c C015 9723   4.297   7.262   0.628 -0.6171  0.1558  1.2688
   534G12c C010 9724   4.278   7.249   0.492  0.3144 -1.3132  1.7832
   534G12c C011 9725   4.304   7.124   0.416  0.8603 -1.1774  0.2141
   534G12c H005 9726   4.272   7.104   0.315 -1.0671  5.1262 -0.6428
   534G12c C012 9727   4.371   7.019   0.492 -1.3200  1.3949  0.1734
   534G12c C017 9728   4.409   6.892   0.458 -0.0340  0.8970 -0.8839
   534G12c O002 9729   4.535   6.860   0.417 -0.0905 -1.3720 -0.4079
   534G12c H004 9730   4.571   6.822   0.496  2.7136 -4.6964 -3.0827
   534G12c C018 9731   4.316   6.784   0.432  0.2747 -0.4730  0.2730
   534G12c O001 9732   4.349   6.662   0.396  0.7530 -1.1301  1.0811
   534G12c H003 9733   4.393   6.688   0.317 -0.1330  2.0803  1.5632
   534G12c C019 9734   4.182   6.792   0.426  1.4659  1.3320 -0.9015
   534G12c H002 9735   4.138   6.707   0.479  5.8552 -1.2254 -1.1607
   534G12c H001 9736   4.161   6.860   0.509 -0.9747  1.8815 -1.9241
   534G12c O000 9737   4.128   6.823   0.287 -0.7268  0.1949  0.1602
   534G12c C01A 9738   4.031   6.919   0.271 -1.8491  1.0739  1.7273
   534G12c C02K 9739   3.917   6.919   0.348  1.0445 -1.1824  0.5335
   534G12c O00G 9740   3.878   6.793   0.374  2.5895 -0.5623 -0.2859
   534G12c C02M 9741   3.750   6.772   0.304  0.5557 -1.1408  0.5010
   534G12c H01G 9742   3.678   6.726   0.372 -1.7168 -0.0545 -1.1450
   534G12c H01F 9743   3.749   6.704   0.218  4.0740 -5.3947  3.5392
   534G12c H01E 9744   3.712   6.852   0.241  3.0581 -1.6616 -1.7955
   534G12c C02J 9745   3.825   7.029   0.340 -0.3694  1.0524 -1.6684
   534G12c H01H 9746   3.767   7.047   0.429  2.9768  7.8194 -0.5371
   534G12c C02I 9747   3.860   7.143   0.267 -2.0666  0.0690 -0.2025
   534G12c C02N 9748   3.786   7.287   0.271  2.5817  1.2741  0.4674
   534G12c H01M 9749   3.817   7.385   0.305  7.0820  2.5005 -6.0217
   534G12c C02O 9750   3.673   7.296   0.211  0.0216 -1.2268  0.6895
   534G12c H01L 9751   3.603   7.377   0.225  0.5918 -0.7587  0.8763
   534G12c C02P 9752   3.606   7.190   0.139 -0.7517 -1.6646 -1.2185
   534G12c H01K 9753   3.670   7.115   0.092 -0.5394 -2.0640 -0.2982
   534G12c H01J 9754   3.542   7.138   0.210 -2.6627  1.9249 -0.2261
   534G12c O00H 9755   3.543   7.237   0.007  0.7105  2.1341  0.6163
   534G12c H01I 9756   3.449   7.247   0.010  0.7002  2.1512  0.2309
   534G12c C02H 9757   3.960   7.129   0.166 -0.0729 -1.3564  0.8595
   534G12c H01C 9758   3.983   7.206   0.094  1.3893  5.2844  7.7400
   534G12c C02L 9759   4.049   7.016   0.180 -0.4722  0.8055 -0.3758
   534G12c H01D 9760   4.152   7.007   0.149  0.5288 -5.6353  3.9400
   534G12c C013 9761   4.388   7.042   0.631  0.3389 -0.3220  0.4297
   534G12c H000 9762   4.448   6.981   0.698 -1.9506 -3.3572 -0.1699
   534G12c C014 9763   4.321   7.142   0.702 -0.2655 -0.2472 -0.2569
   534G12c C00F 9764   4.294   7.137   0.832  0.1983  1.2640 -1.7724
   534G12c C00H 9765   4.267   7.368   0.847 -0.1405  1.8044 -0.1462
   534G12c C00I 9766   4.220   7.487   0.905  1.2862 -0.3490  1.1793
   534G12c C00J 9767   4.195   7.610   0.823  1.2103  0.7978 -0.4602
   534G12c C00Z 9768   4.221   7.352   0.426 -0.3839 -1.8022  0.2185
   534G12c C00Y 9769   4.221   7.367   0.281 -0.6087  0.3678 -0.2991
   534G12c H006 9770   4.261   7.297   0.210  0.1977  2.2271 -1.7437
   534G12c C00X 9771   4.173   7.477   0.212  0.9373  0.9443  2.0657
   534G12c O003 9772   4.179   7.456   0.082 -1.4585  0.3705  0.0881
   534G12c C01B 9773   4.035   7.488   0.026 -0.6083 -1.5675 -0.8370
   534G12c H009 9774   3.986   7.585   0.035  5.4220  2.2095 -4.6143
   534G12c H008 9775   4.055   7.507  -0.080 -1.1783  2.4901 -0.2833
   534G12c H007 9776   3.964   7.413   0.061 -4.4041  3.3549  2.7775
   534G12c C00W 9777   4.127   7.587   0.292  0.4195 -0.1793  0.1367
   534G12c O004 9778   4.069   7.680   0.216  0.4232 -0.1915 -0.7411
   534G12c C01C 9779   3.990   7.771   0.286 -0.3582  0.0591 -0.3991
   534G12c H00A 9780   3.974   7.851   0.215  2.3846 -1.7809 -3.2538
   534G12c C00P 9781   3.981   7.776   0.416  1.0325  1.1298  0.0137
   534G12c C00O 9782   3.880   7.857   0.490 -0.1267  0.2225  0.2716
   534G12c C01D 9783   3.764   7.880   0.406  1.9157  1.3639 -0.4139
   534G12c H00S 9784   3.726   7.851   0.309 -2.8802 -1.5175  2.1395
   534G12c C01E 9785   3.644   7.894   0.487  0.9333 -0.0052  0.2225
   534G12c O008 9786   3.514   7.891   0.437  0.4863  0.6910  0.5120
   534G12c C01V 9787   3.484   7.919   0.300 -0.2864  0.0360 -0.2966
   534G12c C01Z 9788   3.460   7.793   0.204  0.6495 -0.6978 -0.0923
   534G12c H00R 9789   3.354   7.777   0.223  0.8731 -0.4673  1.3670
   534G12c H00Q 9790   3.449   7.803   0.096  1.2874 -1.3630 -0.2215
   534G12c O009 9791   3.546   7.696   0.203 -1.2669  1.2128 -0.0975
   534G12c H00P 9792   3.492   7.618   0.209  0.1047 -0.0915 -3.5074
   534G12c C01W 9793   3.470   8.041   0.282  1.0640 -1.1508  0.8426
   534G12c H00O 9794   3.497   8.115   0.356  2.3366  2.3642 -2.9339
   534G12c C01X 9795   3.418   8.101   0.154  0.0658  0.6361 -1.0714
   534G12c H00N 9796   3.458   8.202   0.161 -5.4572  2.9412 -0.1342
   534G12c H00M 9797   3.461   8.108   0.055  1.9705 -2.1079 -0.5110
   534G12c C01Y 9798   3.278   8.104   0.176  0.9144 -1.6036 -0.3345
   534G12c C02D 9799   3.205   7.994   0.122  4.0681  0.2017 -0.2138
   534G12c H019 9800   3.233   7.916   0.052 -4.6581 -4.4381  0.8489
   534G12c C02C 9801   3.067   7.987   0.170  0.2964 -0.3472  1.7374
   534G12c H01A 9802   3.005   7.905   0.136  2.0130 -0.4416 -1.3284
   534G12c C02B 9803   3.013   8.076   0.270  1.7893 -0.3656 -0.7662
   534G12c O00E 9804   2.916   8.021   0.343  0.4875 -1.1890  0.2088
   534G12c H01B 9805   2.906   8.106   0.382 -0.4939 -1.7835  1.2909
   534G12c C02F 9806   3.097   8.180   0.313 -0.4842  0.4269 -0.3425
   534G12c O00F 9807   3.087   8.230   0.445 -0.2515 -0.9820  0.1262
   534G12c C02G 9808   3.146   8.137   0.534  2.4561  1.3983  0.7938
   534G12c H017 9809   3.139   8.176   0.636 -2.6644  0.3728  0.9487
   534G12c H016 9810   3.244   8.134   0.486  0.9037 -2.4597 -2.3446
   534G12c H015 9811   3.129   8.030   0.529 -3.9931  2.2818 -1.7898
   534G12c C02E 9812   3.224   8.196   0.256 -1.1758 -0.1919 -1.2288
   534G12c H018 9813   3.293   8.277   0.274  3.8847 -3.3359 -4.9733
   534G12c C01F 9814   3.642   7.917   0.619  0.7177  0.1931 -0.2201
   534G12c C01G 9815   3.529   7.886   0.684  1.0120  0.0975 -1.0727
   534G12c H00L 9816   3.431   7.865   0.643  0.6314 -4.8316  1.9206
   534G12c C01H 9817   3.549   7.875   0.809 -0.8100  0.0001 -0.6321
   534G12c H00B 9818   3.478   7.832   0.878  2.8925 -0.6357  3.0017
   534G12c C01I 9819   3.675   7.899   0.880 -1.5986  1.9269 -1.1586
   534G12c C01U 9820   3.770   7.955   0.672  0.7489 -2.3966  0.5525
   534G12c C00S 9821   4.195   7.604   0.689  0.9118  0.1107  0.7503
   534G12c C00K 9822   4.105   7.694   0.878  0.4726 -0.7521 -0.1513
   534G12c C00N 9823   3.873   7.872   0.627 -1.1330 -0.9488  0.7234
   534G12c C000 9824   3.778   7.974   0.804 -0.8840  0.0495  0.6268
   534G12c C01J 9825   3.733   7.861   1.003  1.4414  0.9779  0.0183
   534G12c C01K 9826   3.650   7.787   1.098  1.3325 -0.3447  1.5554
   534G12c C01P 9827   3.512   7.810   1.140 -0.5420  0.0110  0.0210
   534G12c C01Q 9828   3.437   7.918   1.080 -0.8304 -1.9146 -2.6198
   534G12c H00G 9829   3.483   8.016   1.087 -0.5730 -2.2589  2.7521
   534G12c C01R 9830   3.305   7.914   1.069  1.1665  0.5096  1.2851
   534G12c H00F 9831   3.252   7.819   1.067  3.2687 -0.7330  2.3537
   534G12c C01S 9832   3.200   8.020   1.070  2.5632  0.3922  0.1631
   534G12c H00E 9833   3.205   8.080   0.979  0.0532  1.2073  0.5497
   534G12c H00D 9834   3.093   8.017   1.090  3.7072 -1.3840  7.2635
   534G12c O005 9835   3.229   8.140   1.144  2.1564  0.6877 -0.3185
   534G12c H00C 9836   3.237   8.103   1.231  1.6182  2.4165  0.4915
   534G12c C01O 9837   3.441   7.737   1.238  0.7391  1.4129 -0.6939
   534G12c H00H 9838   3.337   7.754   1.266 -0.5466 -2.2373 -2.9262
   534G12c C01N 9839   3.508   7.652   1.308 -0.3207  0.2635  0.6541
   534G12c O006 9840   3.454   7.614   1.439 -0.7130  0.0327 -1.4612
   534G12c C01T 9841   3.383   7.493   1.450  2.2146 -0.6513  0.1576
   534G12c H00K 9842   3.360   7.490   1.557 -0.0137  5.2091  0.0551
   534G12c H00J 9843   3.284   7.498   1.405  2.6016 -4.9888 -1.3372
   534G12c H00I 9844   3.421   7.401   1.407  1.8232 -0.2782 -1.0001
   534G12c C01M 9845   3.637   7.607   1.269 -0.0458  0.2784  0.9123
   534G12c C020 9846   4.057   7.670   1.015 -0.3412  0.5373  0.3555
   534G12c C021 9847   4.110   7.571   1.097  0.6741  0.6606 -0.9834
   534G12c C01L 9848   3.708   7.689   1.170 -1.1116  1.7298  0.5512
   534G12c O007 9849   3.696   7.510   1.336 -1.1316  2.2408  0.8999
   534G12c C022 9850   4.055   7.519   1.213  0.1373 -0.8444 -0.5934
   534G12c C023 9851   4.190   7.469   1.035  1.1354 -1.0916 -2.2080
   534G12c C00G 9852   4.265   7.248   0.914 -0.2247  0.1516  0.6878
   534G12c C00E 9853   4.265   7.009   0.889  0.4669  2.1501 -2.2369
   534G12c O00A 9854   4.285   6.884   0.820 -0.1472 -0.4448 -0.0218
   534G12c C024 9855   4.158   6.858   0.780  0.9464  0.0908 -2.4524
   534G12c H00V 9856   4.128   6.753   0.784  2.3159 -0.2712 -0.6875
   534G12c H00U 9857   4.086   6.845   0.861  4.6391  1.9610  1.2893
   534G12c H00T 9858   4.098   6.924   0.718 -5.2918 -4.8852 -2.3400
   544G12c C00D 9859   6.710   3.647  13.501 -0.0488 -1.0509 -0.4666
   544G12c O00B 9860   6.646   3.634  13.618 -0.2931 -0.2667  0.5686
   544G12c C025 9861   6.540   3.531  13.603 -1.6819 -0.1859  0.3204
   544G12c C026 9862   6.405   3.597  13.578  0.7848 -1.4510  0.6368
   544G12c H00Y 9863   6.343   3.516  13.616  4.5524 -4.8654 -0.0934
   544G12c H00X 9864   6.366   3.625  13.480 -1.3679  1.8771  2.3527
   544G12c O00C 9865   6.344   3.724  13.633  1.1581 -0.0038  0.0925
   544G12c H00W 9866   6.251   3.707  13.628 -0.1348  4.7458  3.5077
   544G12c C027 9867   6.560   3.399  13.609  0.2163  0.7052 -1.2399
   544G12c O00D 9868   6.678   3.365  13.652 -0.4320 -0.5549  1.4255
   544G12c H00Z 9869   6.665   3.325  13.736  4.4882  2.2577  3.7339
   544G12c C028 9870   6.454   3.289  13.579 -0.2045 -0.9003 -0.8861
   544G12c C029 9871   6.448   3.185  13.672 -0.2231  0.2059  1.1838
   544G12c H010 9872   6.504   3.180  13.764 -6.2619 -1.6702  5.0239
   544G12c C02T 9873   6.344   3.096  13.662  0.4476 -0.0431  0.7207
   544G12c H01O 9874   6.368   3.011  13.724  0.1535  2.7272  4.9065
   544G12c C02S 9875   6.236   3.113  13.581 -0.7963 -0.7534 -0.8441
   544G12c O00J 9876   6.117   3.037  13.595 -0.1045 -0.8290  0.1629
   544G12c H01P 9877   6.045   3.076  13.549  2.2188  2.6416 -0.7072
   544G12c C02R 9878   6.244   3.225  13.492  0.3879  0.3780  0.7167
   544G12c O00I 9879   6.145   3.203  13.394 -0.7596 -0.7015  0.1439
   544G12c C02Q 9880   6.169   3.281  13.275  0.6838 -0.0708  0.0470
   544G12c H01N 9881   6.154   3.384  13.308 -3.3945 -1.6189  3.4209
   544G12c H01R 9882   6.097   3.241  13.204  3.0572 -3.1665 -0.7469
   544G12c H01Q 9883   6.270   3.277  13.234  1.4454 -1.7109  2.0169
   544G12c C02A 9884   6.345   3.313  13.485  1.4871  0.3886 -0.3532
   544G12c H011 9885   6.328   3.396  13.418 -5.8539 -1.7765 -1.5211
   544G12c C00C 9886   6.852   3.619  13.523  0.1924 -1.2383 -0.2845
   544G12c H012 9887   6.904   3.631  13.617  3.4560 -0.9069 -2.0231
   544G12c C00B 9888   6.952   3.600  13.424  1.3078  0.9391 -1.1198
   544G12c C00A 9889   7.095   3.590  13.433  0.3021  1.7850  0.2404
   544G12c C009 9890   7.190   3.655  13.533 -0.6583 -0.6052  0.0699
   544G12c C008 9891   7.169   3.706  13.661  0.7569  1.3283 -1.1961
   544G12c H013 9892   7.075   3.687  13.712  4.9529 -1.7172  6.1134
   544G12c C007 9893   7.270   3.790  13.709  0.8353  0.5659  0.7481
   544G12c H014 9894   7.266   3.831  13.809 -2.4851 -2.7006  2.0386
   544G12c C006 9895   7.378   3.833  13.634  0.3365 -0.4610  1.4325
   544G12c C005 9896   7.397   3.771  13.505  2.6253  0.6409  0.4307
   544G12c C004 9897   7.499   3.803  13.421 -0.9031  0.9287  0.2002
   544G12c C003 9898   7.481   3.775  13.281 -0.6861 -1.2109  0.1313
   544G12c C002 9899   7.574   3.834  13.202  0.0467 -1.1373 -0.7208
   544G12c C001 9900   7.590   3.851  13.061 -0.7996  1.0251 -0.8825
   544G12c C00M 9901   7.468   3.851  12.971 -0.8306 -2.3585  1.1158
   544G12c C00L 9902   7.376   3.767  12.968 -0.6094 -0.1849 -0.2687
   544G12c C00R 9903   7.253   3.788  12.905 -0.9345 -0.1533  0.2563
   544G12c C00Q 9904   7.210   3.892  12.804 -2.0967 -0.2185 -0.1832
   544G12c C00V 9905   7.066   3.900  12.783 -0.3179  0.0976  0.0382
   544G12c C00U 9906   6.969   3.829  12.863 -0.6284 -0.7071  0.2434
   544G12c C00T 9907   7.008   3.735  12.950 -2.9545 -0.9843 -2.2017
   544G12c C016 9908   6.925   3.694  13.055 -0.5255  2.0722  0.9171
   544G12c C015 9909   6.795   3.700  13.037 -0.6319  1.0215  0.7301
   544G12c C010 9910   6.749   3.749  12.917 -0.3148  0.1035 -1.3164
   544G12c C011 9911   6.608   3.758  12.902  1.0061 -1.3802 -0.6431
   544G12c H005 9912   6.561   3.829  12.836 -0.2316 -2.4560 -0.9346
   544G12c C012 9913   6.523   3.709  12.990  0.2818  1.7025 -1.9810
   544G12c C017 9914   6.374   3.720  12.974  0.5988 -0.8195  0.9563
   544G12c O002 9915   6.333   3.854  12.995 -0.7396 -0.9882  0.8285
   544G12c H004 9916   6.419   3.889  13.014 -0.3384 -2.3087  1.5151
   544G12c C018 9917   6.299   3.605  12.977  1.1032  0.2008 -0.3562
   544G12c O001 9918   6.366   3.486  12.945 -0.6037  0.1143 -0.1668
   544G12c H003 9919   6.299   3.427  12.976 -1.4689  2.5820  2.9173
   544G12c C019 9920   6.142   3.625  12.931 -0.0569 -1.2560 -0.4298
   544G12c H002 9921   6.102   3.709  12.987 -0.3963  2.0962 -5.3146
   544G12c H001 9922   6.142   3.642  12.823 -0.1317 -0.8869 -0.3734
   544G12c O000 9923   6.069   3.515  12.957 -0.6719 -0.2001  0.6224
   544G12c C01A 9924   5.927   3.543  12.965 -0.3528 -0.0911  3.9677
   544G12c C02K 9925   5.828   3.448  13.014 -0.5412  0.3816  0.5638
   544G12c O00G 9926   5.899   3.334  13.065 -0.3425 -0.6189  1.4619
   544G12c C02M 9927   5.835   3.209  13.048  0.5065  1.1742  0.5222
   544G12c H01G 9928   5.891   3.185  13.138  1.5751  5.0819  1.0041
   544G12c H01F 9929   5.892   3.170  12.964 -3.2371  2.8830 -2.9702
   544G12c H01E 9930   5.745   3.149  13.032  0.8012  0.0501  2.9463
   544G12c C02J 9931   5.695   3.464  12.991 -1.5423 -1.8616  0.5947
   544G12c H01H 9932   5.632   3.378  13.012 -3.1822 -0.5885  0.9884
   544G12c C02I 9933   5.647   3.594  12.961  0.7481  1.6316  0.9594
   544G12c C02N 9934   5.498   3.632  12.963  1.3242 -0.7687 -1.0478
   544G12c H01M 9935   5.411   3.616  12.901  2.9282  0.8054 -3.8213
   544G12c C02O 9936   5.491   3.667  13.089 -0.5286  0.2735 -0.1830
   544G12c H01L 9937   5.387   3.672  13.118 -0.5978  3.2015 -0.7185
   544G12c C02P 9938   5.591   3.739  13.193  0.9445 -0.4745  1.0563
   544G12c H01K 9939   5.652   3.819  13.151  2.1834 -2.1475 -0.4180
   544G12c H01J 9940   5.639   3.642  13.203 -1.2891 -1.8271 -0.8209
   544G12c O00H 9941   5.518   3.778  13.300  0.8345 -0.7839  0.9821
   544G12c H01I 9942   5.443   3.835  13.291  3.0072  2.4416  2.5886
   544G12c C02H 9943   5.744   3.691  12.918 -1.4390 -0.4894 -0.5688
   544G12c H01C 9944   5.710   3.794  12.910  2.7042  0.7911 -3.4634
   544G12c C02L 9945   5.876   3.656  12.898 -1.0357 -1.5088 -1.7751
   544G12c H01D 9946   5.932   3.734  12.849  1.1264 -0.2364  2.4294
   544G12c C013 9947   6.579   3.645  13.106  1.0407  1.4146  1.1838
   544G12c H000 9948   6.506   3.614  13.178  2.7052 -5.5252  0.3178
   544G12c C014 9949   6.712   3.646  13.132 -1.2983 -0.3486  0.3038
   544G12c C00F 9950   6.751   3.638  13.262 -0.9390  0.1573  2.1527
   544G12c C00H 9951   6.984   3.642  13.176 -0.0560 -0.6970  0.4028
   544G12c C00I 9952   7.120   3.614  13.184  0.5632  0.5152 -1.6350
   544G12c C00J 9953   7.196   3.674  13.078 -0.9334  0.4792  0.7097
   544G12c C00Z 9954   6.835   3.836  12.839 -0.8307 -1.0751 -1.0664
   544G12c C00Y 9955   6.782   3.908  12.718 -1.7140 -1.4315  0.1194
   544G12c H006 9956   6.675   3.911  12.702 -2.0741 -0.2910  2.4852
   544G12c C00X 9957   6.880   3.986  12.650 -2.2251  0.8373 -0.1225
   544G12c O003 9958   6.847   4.063  12.533 -0.2344 -0.6196  0.9230
   544G12c C01B 9959   6.856   4.199  12.539 -0.9491 -0.5513  0.0730
   544G12c H009 9960   6.947   4.255  12.562 -0.1135 -0.3863 -3.3612
   544G12c H008 9961   6.769   4.244  12.586 -1.9872  0.8289 -3.0790
   544G12c H007 9962   6.829   4.253  12.449  2.3929 -0.2918 -0.8554
   544G12c C00W 9963   7.011   3.996  12.680  1.8709 -1.2093  0.9764
   544G12c O004 9964   7.076   4.058  12.591  0.5757 -0.5021  0.0868
   544G12c C01C 9965   7.220   4.062  12.616 -0.5260 -0.8500 -1.3702
   544G12c H00A 9966   7.273   4.114  12.538 -1.5886 -0.3830 -1.7923
   544G12c C00P 9967   7.274   4.001  12.738 -0.2542  1.6226 -0.7523
   544G12c C00O 9968   7.400   4.043  12.791  1.1784  0.3598 -1.5038
   544G12c C01D 9969   7.449   4.157  12.735 -0.0118 -1.9601 -1.1160
   544G12c H00S 9970   7.387   4.217  12.671 -1.5777 -1.6530  0.6289
   544G12c C01E 9971   7.554   4.233  12.793  0.3443 -0.5468  1.0659
   544G12c O008 9972   7.566   4.362  12.739 -1.8475 -0.7502  1.7227
   544G12c C01V 9973   7.482   4.480  12.761  0.7062 -0.5740 -0.2926
   544G12c C01Z 9974   7.369   4.475  12.656  0.6979  0.5025 -2.6932
   544G12c H00R 9975   7.335   4.382  12.610 -0.8481 -0.9031  1.1218
   544G12c H00Q 9976   7.278   4.517  12.698  1.8001  0.0068  0.3211
   544G12c O009 9977   7.402   4.558  12.527  0.5260  1.0113  0.0948
   544G12c H00P 9978   7.369   4.548  12.439  5.9104 -2.7656 -1.6761
   544G12c C01W 9979   7.515   4.560  12.862 -0.0809  0.3309 -0.3693
   544G12c H00O 9980   7.596   4.523  12.923  0.8599 -2.0671 -2.9426
   544G12c C01X 9981   7.471   4.698  12.885 -0.3379 -0.1295 -0.1988
   544G12c H00N 9982   7.550   4.772  12.896  2.2504 -2.0471 -4.4774
   544G12c H00M 9983   7.437   4.745  12.793 -1.3250  1.7044  1.0742
   544G12c C01Y 9984   7.403   4.705  13.020  1.0618 -0.6962 -1.3934
   544G12c C02D 9985   7.266   4.674  13.041 -0.4663 -0.0516 -0.5458
   544G12c H019 9986   7.201   4.649  12.958 -2.9826  1.1331  1.0098
   544G12c C02C 9987   7.230   4.685  13.179  0.8097  0.1737  0.5217
   544G12c H01A 9988   7.132   4.642  13.195  0.7723  1.9173  6.0524
   544G12c C02B 9989   7.305   4.699  13.281 -0.0557 -1.1996  0.0690
   544G12c O00E 9990   7.264   4.637  13.391 -1.3560 -0.9697  0.1327
   544G12c H01B 9991   7.170   4.638  13.384 -1.4599  4.4622  0.5695
   544G12c C02F 9992   7.438   4.753  13.254  0.5894  2.1681 -1.1093
   544G12c O00F 9993   7.515   4.796  13.351 -0.0973 -0.9767 -0.5344
   544G12c C02G 9994   7.545   4.930  13.345  0.9726  0.3071  1.9904
   544G12c H017 9995   7.624   4.945  13.419 -2.8038  3.0892  5.6346
   544G12c H016 9996   7.465   4.982  13.397 -2.1444 -2.7734  0.4850
   544G12c H015 9997   7.595   4.963  13.254 -0.6292 -5.4853 -1.2282
   544G12c C02E 9998   7.479   4.746  13.130  1.3720 -0.3022 -0.3210
   544G12c H018 9999   7.573   4.799  13.134 -1.6766  5.6400 -1.9663
   544G12c C01F10000   7.637   4.175  12.906 -0.7557  2.0111 -0.1554
   544G12c C01G10001   7.735   4.242  12.988 -1.3545 -0.3250  0.3362
   544G12c H00L10002   7.787   4.335  12.971 -6.4169  3.3961  3.5487
   544G12c C01H10003   7.755   4.160  13.107  0.2997  1.0373  0.2087
   544G12c H00B10004   7.785   4.193  13.206  5.7360 -1.2667 -0.4797
   544G12c C01I10005   7.691   4.030  13.144 -1.0392  0.8310 -1.1455
   544G12c C01U10006   7.603   4.036  12.932 -1.1261  0.7209 -0.0590
   544G12c C00S10007   7.147   3.706  12.963 -0.0682 -0.8476  1.5874
   544G12c C00K10008   7.334   3.705  13.086 -2.0648  0.4909 -0.0840
   544G12c C00N10009   7.483   3.965  12.882  1.0703 -1.5102 -0.7782
   544G12c C00010010   7.654   3.968  13.033  0.5372 -0.0260 -0.2679
   544G12c C01J10011   7.658   3.939  13.255 -0.3849 -2.1611 -0.4206
   544G12c C01K10012   7.711   3.929  13.385  0.6919  0.2863 -1.5386
   544G12c C01P10013   7.830   3.960  13.454  0.3392 -1.1205 -0.5523
   544G12c C01Q10014   7.948   3.968  13.367 -0.9956 -1.3229  0.3264
   544G12c H00G10015   7.983   3.882  13.312 -4.0060  1.0370 -5.7222
   544G12c C01R10016   8.040   4.047  13.422  0.2112 -1.1365  0.0585
   544G12c H00F10017   8.021   4.094  13.517 -1.5349 -1.6931  0.0010
   544G12c C01S10018   8.192   4.022  13.410 -1.5471 -2.6819 -0.2020
   544G12c H00E10019   8.269   4.093  13.441 -5.7749  2.5395 -0.8025
   544G12c H00D10020   8.242   3.928  13.429  1.2055 -0.9305  1.5059
   544G12c O00510021   8.219   3.989  13.280 -1.0089  0.2850 -0.7003
   544G12c H00C10022   8.197   4.066  13.230  6.5930  4.8903  2.2227
   544G12c C01O10023   7.851   3.965  13.604 -1.6760  0.2709  1.3596
   544G12c H00H10024   7.951   3.943  13.640 -1.0221  4.2744  2.2398
   544G12c C01N10025   7.725   3.954  13.678 -0.9742 -0.8847  1.0569
   544G12c O00610026   7.735   3.975  13.804  0.0399 -0.6247  0.8758
   544G12c C01T10027   7.736   3.829  13.874  1.5947  0.3082 -0.9239
   544G12c H00K10028   7.834   3.782  13.874  0.3010 -2.7558  3.3446
   544G12c H00J10029   7.709   3.814  13.979  4.8997 -1.2471 -0.2308
   544G12c H00I10030   7.667   3.761  13.824 -9.1407  1.6974  9.6617
   544G12c C01M10031   7.604   3.928  13.614  0.5578 -0.0416  0.8501
   544G12c C02010032   7.378   3.695  13.223 -0.9292  0.2883 -0.1780
   544G12c C02110033   7.297   3.639  13.335 -2.7481 -0.5895 -0.9501
   544G12c C01L10034   7.611   3.882  13.467  0.3392  0.7306 -0.8346
   544G12c O00710035   7.497   3.895  13.696  0.1844  0.2380 -0.5816
   544G12c C02210036   7.306   3.678  13.460 -0.1697 -0.9316 -0.9459
   544G12c C02310037   7.167   3.615  13.307 -0.4855  1.0430 -0.0632
   544G12c C00G10038   6.894   3.629  13.291 -0.6011  0.2112 -0.6013
   544G12c C00E10039   6.656   3.658  13.365 -0.3616  0.3001 -1.3089
   544G12c O00A10040   6.536   3.694  13.376  0.2201 -0.1730 -0.1096
   544G12c C02410041   6.517   3.828  13.392 -0.7167 -1.3177  0.0668
   544G12c H00V10042   6.498   3.845  13.498 -2.8008  4.5127 -1.0402
   544G12c H00U10043   6.441   3.858  13.319  4.4949 -1.2502 -5.6798
   544G12c H00T10044   6.613   3.871  13.364 -2.4959  4.0674  1.7085
   554G12c C00D10045   3.444   8.713   6.407 -0.0119  0.4457  0.3192
   554G12c O00B10046   3.416   8.586   6.444 -0.9213  0.2196  0.3937
   554G12c C02510047   3.293   8.523   6.454 -0.6380 -1.2098 -1.2528
   554G12c C02610048   3.236   8.478   6.326  0.5233 -0.1926 -1.5086
   554G12c H00Y10049   3.309   8.485   6.245 -3.0427 -2.6142 -5.1260
   554G12c H00X10050   3.151   8.528   6.279 -1.3305 -2.0648 -0.2626
   554G12c O00C10051   3.212   8.335   6.332 -1.9981 -1.1470 -0.7679
   554G12c H00W10052   3.125   8.350   6.366 -0.9666  5.9709 -0.4477
   554G12c C02710053   3.232   8.531   6.579 -1.4761  1.3837  0.3995
   554G12c O00D10054   3.294   8.580   6.687  0.3134  0.0379  1.2245
   554G12c H00Z10055   3.379   8.542   6.671 -1.4167 -3.5513  0.0999
   554G12c C02810056   3.089   8.519   6.597 -0.0494 -0.0280 -0.2646
   554G12c C02910057   3.052   8.539   6.737 -2.4303  0.6365 -0.0776
   554G12c H01010058   3.127   8.556   6.812  1.6415 -3.2186 -3.0237
   554G12c C02T10059   2.917   8.534   6.775  0.3566 -0.9896  1.1913
   554G12c H01O10060   2.906   8.546   6.882  1.0724 -3.2840  1.5551
   554G12c C02S10061   2.816   8.507   6.680  1.2969  1.1397 -1.8993
   554G12c O00J10062   2.679   8.487   6.703 -0.4060  0.2719 -0.7620
   554G12c H01P10063   2.645   8.447   6.624  7.7768  0.8602 -5.1354
   554G12c C02R10064   2.847   8.474   6.546  0.9995 -1.5843  0.4142
   554G12c O00I10065   2.778   8.410   6.456  1.3856  0.4530 -0.4800
   554G12c C02Q10066   2.687   8.303   6.490 -0.1621  1.8885  0.4481
   554G12c H01N10067   2.684   8.243   6.399 -5.7168 -2.6063  3.2464
   554G12c H01R10068   2.722   8.264   6.585 -0.7647  4.7093  1.8802
   554G12c H01Q10069   2.581   8.306   6.517  0.2766  4.8524  2.0106
   554G12c C02A10070   2.979   8.489   6.504  0.0472  0.8285 -0.1785
   554G12c H01110071   3.000   8.494   6.398 -1.8775  1.1806 -0.5473
   554G12c C00C10072   3.408   8.790   6.508 -1.3718  0.9385  0.5169
   554G12c H01210073   3.331   8.762   6.578 -3.4785 -5.0621 -3.7817
   554G12c C00B10074   3.422   8.932   6.504 -0.2990  0.3890 -1.4097
   554G12c C00A10075   3.377   9.037   6.589  1.8362 -0.9372  0.3216
   554G12c C00910076   3.264   9.031   6.683  0.0790  0.7006 -0.8878
   554G12c C00810077   3.166   8.929   6.728 -1.1305 -1.0117  0.7546
   554G12c H01310078   3.167   8.822   6.713 -0.5673 -0.6542 -2.0003
   554G12c C00710079   3.053   8.980   6.800  1.5053  0.2018  0.1098
   554G12c H01410080   2.981   8.907   6.836 -1.2624  3.0841  0.6848
   554G12c C00610081   3.015   9.120   6.806  0.0237  0.6587 -1.8253
   554G12c C00510082   3.122   9.215   6.765  1.1542 -1.6782  0.2526
   554G12c C00410083   3.100   9.348   6.753 -1.4853  0.4434  0.2944
   554G12c C00310084   3.193   9.434   6.693  0.7097  0.7128  0.9695
   554G12c C00210085   3.134   9.566   6.660 -0.2602  0.0968 -0.8649
   554G12c C00110086   3.196   9.672   6.571 -0.9370 -0.4105 -0.4703
   554G12c C00M10087   3.257   9.651   6.455  0.1053 -0.7767 -0.6880
   554G12c C00L10088   3.330   9.546   6.427 -0.4583 -0.1530 -0.3038
   554G12c C00R10089   3.401   9.518   6.300  0.3505 -1.8850  0.6201
   554G12c C00Q10090   3.409   9.587   6.165  1.0513 -0.2777  0.0545
   554G12c C00V10091   3.489   9.509   6.077 -0.9943 -0.2795 -0.8710
   554G12c C00U10092   3.542   9.377   6.103  0.1602 -0.8062 -0.6352
   554G12c C00T10093   3.514   9.313   6.231 -0.8472 -0.2808 -0.2172
   554G12c C01610094   3.528   9.180   6.251 -2.0418  0.8638 -0.3462
   554G12c C01510095   3.579   9.101   6.149 -1.9903  0.4460 -0.8219
   554G12c C01010096   3.635   9.168   6.036  1.9595 -0.3038 -0.7336
   554G12c C01110097   3.720   9.098   5.947 -0.5105 -0.3407  0.6001
   554G12c H00510098   3.763   9.144   5.859 -2.2087  2.7869  1.3284
   554G12c C01210099   3.737   8.966   5.968  1.3763  1.6414  0.9222
   554G12c C01710100   3.844   8.900   5.893  0.3602 -0.9664  1.0904
   554G12c O00210101   3.816   8.814   5.789 -0.1519  0.9737 -1.1842
   554G12c H00410102   3.888   8.835   5.732  5.2497 -0.0250  4.7373
   554G12c C01810103   3.960   8.943   5.909 -0.3826  1.3071  1.0239
   554G12c O00110104   3.977   9.005   6.026 -0.5566  0.7402 -0.5625
   554G12c H00310105   3.916   9.021   6.097 -4.4182 -3.1899 -2.7153
   554G12c C01910106   4.088   8.922   5.836  2.3030 -0.3602 -1.1169
   554G12c H00210107   4.147   9.010   5.808 -1.4100  3.1948  1.6958
   554G12c H00110108   4.146   8.863   5.907 -3.7611 -3.3138  1.6526
   554G12c O00010109   4.044   8.856   5.710 -1.3558  0.2437  0.3187
   554G12c C01A10110   4.071   8.731   5.682  2.3769 -0.6478 -1.3077
   554G12c C02K10111   4.080   8.709   5.531  0.9773 -2.0304 -0.5077
   554G12c O00G10112   4.055   8.811   5.445  1.0903 -0.3345  0.6681
   554G12c C02M10113   4.139   8.924   5.443  0.0189 -1.5375  0.1815
   554G12c H01G10114   4.187   8.953   5.536  4.0646  2.3482 -2.8865
   554G12c H01F10115   4.080   9.007   5.404  2.5604 -0.8579 -2.4532
   554G12c H01E10116   4.220   8.931   5.370  3.4758  0.6000  4.0343
   554G12c C02J10117   4.095   8.571   5.505 -1.0954 -1.4350  0.4110
   554G12c H01H10118   4.119   8.544   5.403  4.8206  0.8288  1.0120
   554G12c C02I10119   4.051   8.463   5.593  0.6810  0.4485 -1.2323
   554G12c C02N10120   4.083   8.324   5.555  0.9012 -0.8351 -0.1942
   554G12c H01M10121   4.151   8.249   5.593  1.6375 -0.7890 -1.3922
   554G12c C02O10122   4.026   8.282   5.440 -0.6039 -0.2836 -2.1893
   554G12c H01L10123   3.982   8.373   5.402 -5.6581 -1.6233 -0.0158
   554G12c C02P10124   4.058   8.155   5.373  0.1787 -0.4214  0.0500
   554G12c H01K10125   4.165   8.142   5.362  0.8295  6.4568 -5.5484
   554G12c H01J10126   4.034   8.087   5.455-12.4697 -0.1217 -2.4444
   554G12c O00H10127   3.972   8.138   5.264  0.4172  0.1265 -0.5622
   554G12c H01I10128   3.884   8.171   5.273  0.0013 -0.7725 -1.1823
   554G12c C02H10129   4.052   8.490   5.731 -0.8172  2.2045  1.3512
   554G12c H01C10130   4.059   8.388   5.766  0.7337 -0.1871 -5.3095
   554G12c C02L10131   4.043   8.625   5.774 -0.3648  0.1166 -0.5127
   554G12c H01D10132   4.021   8.623   5.880  0.3301  3.0641 -0.2640
   554G12c C01310133   3.672   8.887   6.079 -0.3806 -0.9464  1.0765
   554G12c H00010134   3.701   8.788   6.111 -3.1492 -2.3040 -0.5279
   554G12c C01410135   3.587   8.956   6.170 -0.6571 -0.0635 -0.9327
   554G12c C00F10136   3.535   8.904   6.304  0.6718  1.5346  2.0570
   554G12c C00H10137   3.494   9.128   6.371 -0.3833  0.0899  1.6279
   554G12c C00I10138   3.444   9.217   6.473 -1.2781 -1.2075  0.1026
   554G12c C00J10139   3.421   9.345   6.442 -0.9392  1.0911  1.0752
   554G12c C00Z10140   3.598   9.300   6.003  0.7354 -0.2047 -1.3457
   554G12c C00Y10141   3.627   9.358   5.874 -0.4506 -0.5457 -1.4324
   554G12c H00610142   3.687   9.320   5.792  0.8910 -2.5812  0.4206
   554G12c C00X10143   3.588   9.487   5.854  0.3387 -0.0947  1.9697
   554G12c O00310144   3.566   9.530   5.725 -0.5973  0.3361  1.1521
   554G12c C01B10145   3.617   9.665   5.698  0.5120  1.4294  0.1865
   554G12c H00910146   3.696   9.712   5.758  0.9374  3.9316 -2.2480
   554G12c H00810147   3.546   9.746   5.713  1.6080  1.8666  3.6321
   554G12c H00710148   3.654   9.643   5.598 -2.8839 -5.0878  0.0650
   554G12c C00W10149   3.515   9.572   5.954 -0.4748  0.2330  0.9904
   554G12c O00410150   3.434   9.680   5.893 -1.1201 -0.6154 -0.4654
   554G12c C01C10151   3.328   9.748   5.974  1.1103  1.3467  0.2378
   554G12c H00A10152   3.319   9.854   5.958 -3.1958  0.4402 -4.6338
   554G12c C00P10153   3.314   9.699   6.115 -0.3951  1.2860 -1.5710
   554G12c C00O10154   3.191   9.709   6.202 -1.0449  0.1202  0.3169
   554G12c C01D10155   3.059   9.754   6.148 -0.8638 -0.8961 -0.1543
   554G12c H00S10156   3.032   9.823   6.069 -6.1677 -0.1266  2.0995
   554G12c C01E10157   2.934   9.758   6.226  0.6969  0.4323  1.0723
   554G12c O00810158   2.810   9.767   6.164  0.2728  0.2556 -0.9927
   554G12c C01V10159   2.785   9.760   6.030 -0.3568  1.3235  0.1316
   554G12c C01Z10160   2.813   9.902   5.956 -0.4600  1.8146 -0.3618
   554G12c H00R10161   2.861   9.965   6.030  1.2801 -3.3112  3.1335
   554G12c H00Q10162   2.836   9.904   5.850 -3.4598  1.6261 -1.0605
   554G12c O00910163   2.675   9.963   5.959  0.2827  1.1849 -1.2116
   554G12c H00P10164   2.626   9.893   6.000  4.4912  0.5069  3.1512
   554G12c C01W10165   2.754   9.642   5.985 -0.6593 -0.2770  0.7260
   554G12c H00O10166   2.732   9.560   6.051 -6.8449  4.9813  5.8533
   554G12c C01X10167   2.774   9.613   5.837  0.0634  1.2264  1.6337
   554G12c H00N10168   2.697   9.541   5.811  2.3671 -0.1982 -1.6409
   554G12c H00M10169   2.738   9.705   5.789  1.0455 -1.8682 -5.7592
   554G12c C01Y10170   2.911   9.581   5.774  0.9397 -0.3569  1.0896
   554G12c C02D10171   2.968   9.459   5.810 -1.1840  1.8685  0.4808
   554G12c H01910172   2.905   9.414   5.885 -1.3481 -3.1306 -2.4955
   554G12c C02C10173   3.092   9.438   5.777 -0.0253  2.1034  0.3086
   554G12c H01A10174   3.151   9.362   5.826  0.8913  1.3821 -1.8376
   554G12c C02B10175   3.158   9.550   5.728  0.5731  1.2831  0.7417
   554G12c O00E10176   3.286   9.549   5.675 -0.2305  0.4184 -0.5608
   554G12c H01B10177   3.297   9.639   5.650  3.9688  1.0014  2.8227
   554G12c C02F10178   3.093   9.663   5.678 -0.5357 -0.0638  0.1578
   554G12c O00F10179   3.163   9.700   5.564  0.7263 -0.1096 -1.2043
   554G12c C02G10180   3.138   9.807   5.465 -0.1637  1.8584  1.3994
   554G12c H01710181   3.231   9.847   5.427  1.4608  0.9117  4.2422
   554G12c H01610182   3.084   9.883   5.522 -1.8324  2.2498 -0.6277
   554G12c H01510183   3.090   9.790   5.369 -1.1991  6.9500  0.9179
   554G12c C02E10184   2.961   9.683   5.710 -1.3232 -0.2013 -0.4081
   554G12c H01810185   2.889   9.747   5.660 -4.0736 -5.0557 -3.0369
   554G12c C01F10186   2.933   9.764   6.357  0.0350  0.4127  0.1691
   554G12c C01G10187   2.832   9.789   6.442 -0.4900 -1.0011 -0.8311
   554G12c H00L10188   2.730   9.798   6.408  2.7094  1.7749-11.3606
   554G12c C01H10189   2.841   9.778   6.584 -0.3846 -0.4590 -0.4332
   554G12c H00B10190   2.744   9.772   6.630  0.0310  0.7027  0.6103
   554G12c C01I10191   2.973   9.742   6.629  0.7429 -0.6504  1.0349
   554G12c C01U10192   3.070   9.757   6.416  1.7668 -0.3888  0.1775
   554G12c C00S10193   3.452   9.397   6.318  0.3202 -0.1555  0.8666
   554G12c C00K10194   3.350   9.434   6.517  0.4412  0.9758 -1.5997
   554G12c C00N10195   3.179   9.701   6.350  0.1793 -0.9897 -0.0057
   554G12c C00010196   3.088   9.763   6.551  1.2989 -0.1073 -2.8411
   554G12c C01J10197   3.002   9.620   6.694 -0.5862 -1.1675  1.0743
   554G12c C01K10198   2.917   9.533   6.767  1.1381  0.0592 -0.2355
   554G12c C01P10199   2.784   9.565   6.834  1.3203  0.5732  0.9862
   554G12c C01Q10200   2.745   9.703   6.872  0.2105  1.7537 -0.8252
   554G12c H00G10201   2.835   9.752   6.907  1.5339  1.0816 -3.1839
   554G12c C01R10202   2.616   9.737   6.890  0.1191 -1.5781  0.2235
   554G12c H00F10203   2.527   9.686   6.859 -2.6741  3.0904  0.0479
   554G12c C01S10204   2.583   9.858   6.948 -0.2565 -0.1802 -0.6086
   554G12c H00E10205   2.543   9.817   7.040  3.1126 -0.7093  0.6887
   554G12c H00D10206   2.668   9.918   6.980 -4.3236  4.3742  2.3392
   554G12c O00510207   2.496   9.934   6.883  0.4327 -0.6366 -0.2614
   554G12c H00C10208   2.551  10.002   6.849  3.8248  1.6198  8.2539
   554G12c C01O10209   2.732   9.474   6.921  0.0065  0.8399  1.2178
   554G12c H00H10210   2.640   9.492   6.974  0.2772  7.7727 -0.2663
   554G12c C01N10211   2.758   9.334   6.915  0.5923 -1.6483 -0.4788
   554G12c O00610212   2.670   9.243   6.956  1.7164  1.1681 -0.2244
   554G12c C01T10213   2.579   9.186   6.865 -0.1044  0.2294 -0.0694
   554G12c H00K10214   2.479   9.221   6.841  2.2707  9.9949  1.7986
   554G12c H00J10215   2.618   9.087   6.841  7.9481  3.1804 -0.7867
   554G12c H00I10216   2.630   9.197   6.768 -1.3985  5.2839 -0.3161
   554G12c C01M10217   2.879   9.305   6.852 -0.4575  0.7416 -1.5621
   554G12c C02010218   3.312   9.383   6.631 -0.7487 -0.1538  1.4516
   554G12c C02110219   3.333   9.253   6.669 -0.9131 -1.5576  1.1228
   554G12c C01L10220   2.971   9.393   6.792  0.6461 -0.2136  0.8491
   554G12c O00710221   2.902   9.177   6.855  0.4502  0.5108 -0.6531
   554G12c C02210222   3.233   9.171   6.714  1.3187  0.8042  0.3927
   554G12c C02310223   3.419   9.172   6.593 -0.6498  0.3559  1.8647
   554G12c C00G10224   3.473   8.985   6.381  0.2072  0.1299 -1.4298
   554G12c C00E10225   3.541   8.748   6.319  0.1964 -2.6657 -0.0753
   554G12c O00A10226   3.598   8.645   6.252  1.4575  1.6050  0.5695
   554G12c C02410227   3.720   8.599   6.310  0.3791 -1.0350  0.5826
   554G12c H00V10228   3.805   8.607   6.242 -3.4892  5.8798 -4.0715
   554G12c H00U10229   3.721   8.499   6.353 -0.3432 -2.0796 -1.7473
   554G12c H00T10230   3.741   8.676   6.385  0.5909  2.5552 -2.9517
   564G12c C00D10231   1.629   9.906   2.125 -0.6760 -0.3286  1.0967
   564G12c O00B10232   1.743   9.983   2.129 -0.2314 -0.4614  0.1213
   564G12c C02510233   1.761  10.112   2.078 -1.5467  0.0861 -1.3782
   564G12c C02610234   1.843  10.214   2.154 -0.8636  0.9874 -0.0413
   564G12c H00Y10235   1.841  10.316   2.116 -2.7188  1.7594  2.0105
   564G12c H00X10236   1.946  10.182   2.168 -0.3782  1.8437 -1.5248
   564G12c O00C10237   1.787  10.220   2.283 -0.9206  0.6982  1.3253
   564G12c H00W10238   1.839  10.231   2.361 -3.3416 -0.5337  3.2275
   564G12c C02710239   1.711  10.140   1.949 -0.8568  0.4489 -0.2432
   564G12c O00D10240   1.657  10.033   1.872 -0.5375  0.2861 -0.1214
   564G12c H00Z10241   1.600  10.071   1.807  0.4845  4.4839  1.2479
   564G12c C02810242   1.756  10.261   1.879  1.2222  2.0260 -2.6978
   564G12c C02910243   1.698  10.389   1.904 -0.4434  2.1001 -1.6204
   564G12c H01010244   1.621  10.386   1.980  1.8366  6.7558  1.1388
   564G12c C02T10245   1.741  10.518   1.861 -0.6143  0.7395 -0.3763
   564G12c H01O10246   1.682  10.603   1.891 -0.1764 -0.0287  2.9007
   564G12c C02S10247   1.827  10.516   1.752 -2.1022  1.3754  0.8455
   564G12c O00J10248   1.864  10.617   1.670 -0.7800 -0.0884  0.3129
   564G12c H01P10249   1.941  10.619   1.616  0.6438 -1.3701  2.2568
   564G12c C02R10250   1.876  10.393   1.705  0.4159 -0.1148 -0.4444
   564G12c O00I10251   1.928  10.402   1.583  0.4989 -0.7482 -0.1360
   564G12c C02Q10252   2.010  10.297   1.509 -0.1884 -0.3782 -0.1475
   564G12c H01N10253   2.080  10.355   1.448 -3.3491  1.8455 -1.8704
   564G12c H01R10254   2.073  10.256   1.587 -2.8556  2.0576  3.4416
   564G12c H01Q10255   1.962  10.214   1.457  1.3854  0.0620 -2.3922
   564G12c C02A10256   1.847  10.266   1.768  0.7302 -0.1403 -0.0715
   564G12c H01110257   1.860  10.170   1.720 -1.0097  0.3551 -1.6027
   564G12c C00C10258   1.505   9.981   2.111 -0.7534  0.4453  0.2801
   564G12c H01210259   1.537  10.080   2.141  4.3534 -0.3932 -1.7154
   564G12c C00B10260   1.397   9.919   2.058 -0.9777  1.6812  1.0006
   564G12c C00A10261   1.274   9.978   2.007  0.8920  0.0787 -0.6946
   564G12c C00910262   1.194  10.068   2.074  0.7795 -0.7847  1.9040
   564G12c C00810263   1.209  10.102   2.208 -0.6221 -0.0281 -1.4816
   564G12c H01310264   1.299  10.130   2.261 -0.4159 -2.6337 -0.3497
   564G12c C00710265   1.100  10.140   2.277  0.4524  0.5671  0.9500
   564G12c H01410266   1.056  10.171   2.371 -3.6754 -1.7236 -0.1075
   564G12c C00610267   0.970  10.088   2.215  1.0158 -0.3048 -0.4950
   564G12c C00510268   0.966  10.054   2.072 -2.2945 -0.9687  0.7113
   564G12c C00410269   0.839  10.017   2.012  1.9638 -2.1832 -0.0752
   564G12c C00310270   0.849   9.958   1.889 -0.0487  1.4004 -1.1960
   564G12c C00210271   0.725   9.890   1.862  1.2328 -0.0537  0.4688
   564G12c C00110272   0.703   9.809   1.746 -0.5624  0.7054  2.0941
   564G12c C00M10273   0.771   9.689   1.716  0.5134 -0.6751  1.1247
   564G12c C00L10274   0.910   9.665   1.754 -0.1356  0.3694 -0.4233
   564G12c C00R10275   0.996   9.547   1.743 -0.2585 -0.2998  1.1950
   564G12c C00Q10276   0.968   9.409   1.711 -2.2925  0.8422  0.8799
   564G12c C00V10277   1.087   9.330   1.748 -1.0145 -1.0702  0.7252
   564G12c C00U10278   1.206   9.380   1.826  0.7040  0.8095 -0.6990
   564G12c C00T10279   1.225   9.508   1.844 -0.6210  0.5082 -0.8634
   564G12c C01610280   1.319   9.577   1.914 -1.3318 -1.3463 -0.8841
   564G12c C01510281   1.405   9.486   1.980 -1.2994 -0.6816  1.2781
   564G12c C01010282   1.409   9.349   1.949  0.8420 -0.7131  0.5376
   564G12c C01110283   1.512   9.260   1.992  0.1839  1.5638  1.6975
   564G12c H00510284   1.496   9.157   2.022 -1.0897  3.1290  6.8798
   564G12c C01210285   1.595   9.308   2.089  0.2742 -0.0323 -1.5766
   564G12c C01710286   1.680   9.222   2.183 -1.4657  1.9454 -1.5017
   564G12c O00210287   1.720   9.278   2.304 -1.6981 -1.1690 -1.5666
   564G12c H00410288   1.767   9.210   2.350  0.4903  1.3669  0.0876
   564G12c C01810289   1.714   9.105   2.162 -0.0147  0.0505  1.0927
   564G12c O00110290   1.757   9.018   2.264 -1.0913 -0.6421  0.2648
   564G12c H00310291   1.764   8.958   2.191 -3.1187 -0.6300  0.0349
   564G12c C01910292   1.711   9.034   2.020  0.8999 -2.3902  0.7483
   564G12c H00210293   1.622   8.983   1.983  1.8473 -0.7474 -4.1793
   564G12c H00110294   1.736   9.099   1.937  7.2961 -2.3720  2.4804
   564G12c O00010295   1.832   8.961   2.012 -0.8773 -1.1427 -0.3853
   564G12c C01A10296   1.942   9.015   1.971 -1.3673  2.6806 -0.1623
   564G12c C02K10297   2.014   8.982   1.849 -0.9390 -1.2177 -0.1571
   564G12c O00G10298   1.963   8.875   1.756  0.3058 -0.7372 -1.0047
   564G12c C02M10299   1.877   8.943   1.652 -0.8464  0.0062  0.9020
   564G12c H01G10300   1.944   8.979   1.574 -0.2386 -5.5104 -1.3458
   564G12c H01F10301   1.811   8.874   1.598  2.2484  2.9271 -7.4824
   564G12c H01E10302   1.824   9.034   1.680  1.8155  3.7786 -5.2069
   564G12c C02J10303   2.147   9.041   1.826 -0.6956  0.5455  2.6466
   564G12c H01H10304   2.179   8.999   1.732  1.3795  2.4433  2.4839
   564G12c C02I10305   2.198   9.146   1.886 -2.2055 -1.5011 -0.5750
   564G12c C02N10306   2.323   9.213   1.853  0.2240 -2.0320 -1.0550
   564G12c H01M10307   2.382   9.179   1.770  4.3334 -0.2232  0.9661
   564G12c C02O10308   2.356   9.336   1.919  0.1545 -0.3713 -0.0601
   564G12c H01L10309   2.310   9.386   2.003  1.0857 -1.0293  0.8509
   564G12c C02P10310   2.471   9.432   1.842 -1.1243  1.9887  0.3079
   564G12c H01K10311   2.446   9.462   1.740  0.7489 -2.0700 -1.4842
   564G12c H01J10312   2.459   9.531   1.886 -5.5103  2.7641 -2.2941
   564G12c O00H10313   2.587   9.355   1.860  0.2796 -0.4554 -0.8572
   564G12c H01I10314   2.669   9.402   1.861 -1.7348  3.2361  1.7999
   564G12c C02H10315   2.112   9.188   1.987 -0.1752  0.4379  0.1067
   564G12c H01C10316   2.152   9.270   2.044 -1.1016 -4.2350  8.2061
   564G12c C02L10317   1.998   9.125   2.034  0.1577 -1.4601  1.5940
   564G12c H01D10318   1.971   9.151   2.136  1.7816 -2.1467  2.2132
   564G12c C01310319   1.599   9.452   2.117  1.2971 -0.6377  0.9859
   564G12c H00010320   1.689   9.461   2.175  1.3986 -3.3648  1.3178
   564G12c C01410321   1.501   9.538   2.066  0.6456 -0.2414 -0.1302
   564G12c C00F10322   1.509   9.693   2.069 -0.2004 -0.1573 -1.3735
   564G12c C00H10323   1.315   9.713   1.934  1.3222  0.5947 -0.8069
   564G12c C00I10324   1.222   9.791   1.853 -0.3071 -0.8738  0.1818
   564G12c C00J10325   1.120   9.722   1.778  0.9325 -0.0380 -0.7275
   564G12c C00Z10326   1.305   9.296   1.869  0.1732 -0.3131 -1.3964
   564G12c C00Y10327   1.298   9.169   1.832 -0.5013 -0.5216 -0.2286
   564G12c H00610328   1.388   9.113   1.853 -1.4692 -1.2178  2.2526
   564G12c C00X10329   1.185   9.118   1.745 -0.8816  0.2743 -0.9724
   564G12c O00310330   1.183   8.991   1.687 -1.3654 -0.2520 -1.7775
   564G12c C01B10331   1.211   8.860   1.762  0.2627  0.9635 -0.3971
   564G12c H00910332   1.145   8.848   1.848  4.7076 -0.7065  2.9735
   564G12c H00810333   1.175   8.768   1.718 -1.5381  1.8011 -0.7252
   564G12c H00710334   1.310   8.817   1.779 -1.9789 -2.6405  4.6996
   564G12c C00W10335   1.077   9.189   1.720 -1.2688 -0.8711 -0.4971
   564G12c O00410336   0.964   9.124   1.648 -0.6349 -0.0795  0.5554
   564G12c C01C10337   0.861   9.209   1.611  0.7219 -1.0755  0.9698
   564G12c H00A10338   0.772   9.149   1.596 -0.6529  0.8190  1.3651
   564G12c C00P10339   0.845   9.344   1.670 -1.6951  1.7421 -1.9618
   564G12c C00O10340   0.722   9.412   1.701  0.4246 -0.1508 -1.4059
   564G12c C01D10341   0.624   9.336   1.761 -0.1853 -0.6452 -0.1693
   564G12c H00S10342   0.634   9.229   1.775  1.1320 -0.7555 -1.7628
   564G12c C01E10343   0.514   9.385   1.849  2.1306 -0.0983  0.5229
   564G12c O00810344   0.431   9.286   1.882  0.8755  0.5411  0.7535
   564G12c C01V10345   0.428   9.153   1.862 -0.2015 -0.4018 -0.8388
   564G12c C01Z10346   0.370   9.122   1.716 -0.3425  1.4819 -0.7364
   564G12c H00R10347   0.445   9.100   1.639  1.7834  1.8392  1.1711
   564G12c H00Q10348   0.311   9.031   1.729  1.8861  0.4431  2.7008
   564G12c O00910349   0.271   9.228   1.664 -0.4463  0.4690 -0.4707
   564G12c H00P10350   0.202   9.244   1.727 -3.0744 -3.7362 -2.0852
   564G12c C01W10351   0.475   9.078   1.964  1.1997 -0.1817  1.5393
   564G12c H00O10352   0.483   9.107   2.068  1.6857  3.8115  0.5022
   564G12c C01X10353   0.469   8.937   1.953 -0.4935  0.1512 -1.2379
   564G12c H00N10354   0.363   8.924   1.975  0.1293 -1.1846  1.0146
   564G12c H00M10355   0.508   8.923   1.852  0.4979  6.4509 -1.9524
   564G12c C01Y10356   0.576   8.878   2.036 -0.5302  1.3764  1.1259
   564G12c C02D10357   0.527   8.776   2.115 -0.2444  1.2199 -1.8665
   564G12c H01910358   0.427   8.736   2.111  1.1227 -2.1570 -5.6395
   564G12c C02C10359   0.620   8.722   2.200  0.4250  0.0172 -0.5088
   564G12c H01A10360   0.606   8.649   2.277 -5.8210  6.0239  4.7124
   564G12c C02B10361   0.754   8.740   2.190  0.3734 -0.4347  1.8733
   564G12c O00E10362   0.851   8.703   2.275 -0.6531  0.7121 -1.3657
   564G12c H01B10363   0.928   8.655   2.250 -0.3186  3.5450 -6.5402
   564G12c C02F10364   0.801   8.812   2.078 -1.0649 -2.3248 -0.6305
   564G12c O00F10365   0.931   8.813   2.050 -0.7297  0.2899 -0.1496
   564G12c C02G10366   0.987   8.936   2.046  1.5400 -1.9532  0.6995
   564G12c H01710367   0.948   9.011   1.976 -2.1167 -2.8345  1.6990
   564G12c H01610368   0.955   8.991   2.134 -4.5709 -0.4721 -2.1866
   564G12c H01510369   1.093   8.925   2.025  2.2495 -5.8280  5.3878
   564G12c C02E10370   0.712   8.889   2.007  0.2951  0.4763  0.5917
   564G12c H01810371   0.746   8.964   1.938 -4.6290  1.8591 -0.5356
   564G12c C01F10372   0.495   9.524   1.859 -0.4660 -1.3138  1.2219
   564G12c C01G10373   0.409   9.583   1.964 -1.1334 -0.5092  0.1890
   564G12c H00L10374   0.354   9.517   2.029 -0.9740 -2.1558 -1.3397
   564G12c C01H10375   0.439   9.722   1.989  0.5688 -0.9034  0.5418
   564G12c H00B10376   0.397   9.736   2.088 -1.7158 -1.5125 -0.3188
   564G12c C01I10377   0.510   9.814   1.899  0.1911  0.6505  1.1925
   564G12c C01U10378   0.562   9.609   1.773 -0.3115 -1.0503 -0.4219
   564G12c C00S10379   1.110   9.583   1.808 -2.7981 -0.4964 -0.0950
   564G12c C00K10380   0.988   9.770   1.787 -0.0795 -1.4462  1.0116
   564G12c C00N10381   0.696   9.556   1.728  0.1290 -0.0379 -1.2625
   564G12c C00010382   0.562   9.757   1.783  0.1717  0.0356 -1.1446
   564G12c C01J10383   0.613   9.905   1.948  0.4359  0.7198 -1.9167
   564G12c C01K10384   0.601   9.987   2.053  0.9276  1.1378  0.4911
   564G12c C01P10385   0.490  10.035   2.134  0.1875 -0.3008  0.6417
   564G12c C01Q10386   0.364   9.987   2.112 -1.1072  0.4785 -0.4216
   564G12c H00G10387   0.309   9.945   2.195  1.7408 -1.0294  0.7868
   564G12c C01R10388   0.297  10.049   2.016  1.6558 -1.4100  0.2770
   564G12c H00F10389   0.318  10.133   1.952 -5.5582 -1.2052 -2.2661
   564G12c C01S10390   0.147  10.047   2.007  1.6027 -1.6944  0.8855
   564G12c H00E10391   0.104   9.992   1.924 -2.5769  7.3296 -3.7169
   564G12c H00D10392   0.077  10.008   2.081 -0.6601 -0.9994 -0.8125
   564G12c O00510393   0.082  10.181   1.991  1.4408  0.0475 -1.0224
   564G12c H00C10394  -0.003  10.172   2.030  1.2309  0.0616 -1.4748
   564G12c C01O10395   0.502  10.122   2.244 -0.0120 -0.3147 -0.0558
   564G12c H00H10396   0.421  10.154   2.308  3.3711  2.0378  3.2861
   564G12c C01N10397   0.627  10.154   2.292  1.1955 -1.3068  0.4116
   564G12c O00610398   0.639  10.252   2.389  0.1801 -1.4539  0.2022
   564G12c C01T10399   0.693  10.248   2.504 -0.3356  0.3490 -0.9429
   564G12c H00K10400   0.628  10.192   2.571 -4.9852  3.5057 -2.5855
   564G12c H00J10401   0.690  10.354   2.529 -5.6001  0.7300 -2.5551
   564G12c H00I10402   0.797  10.228   2.480  1.5789  1.1770  5.5432
   564G12c C01M10403   0.741  10.125   2.215 -1.3168  1.6223 -0.0775
   564G12c C02010404   0.980   9.901   1.838 -0.6534 -0.5919 -1.1844
   564G12c C02110405   1.084   9.982   1.884 -2.1421  0.7205 -1.1027
   564G12c C01L10406   0.726  10.052   2.089  0.0086  0.0542  0.7475
   564G12c O00710407   0.856  10.117   2.287 -1.5256  0.9183 -0.9910
   564G12c C02210408   1.073  10.062   1.990 -0.5038  0.3682 -1.3789
   564G12c C02310409   1.215   9.928   1.886  1.2111 -1.3278  0.8345
   564G12c C00G10410   1.410   9.775   2.025  0.5224  0.2918  1.7848
   564G12c C00E10411   1.624   9.763   2.107 -1.1343  0.4887  0.5312
   564G12c O00A10412   1.745   9.691   2.154 -0.1781  0.7289 -1.9610
   564G12c C02410413   1.835   9.679   2.048 -0.2343 -0.2579  1.6090
   564G12c H00V10414   1.827   9.780   2.008 -2.7622  0.0760  2.7960
   564G12c H00U10415   1.836   9.617   1.959  2.4576  3.2027 -0.9361
   564G12c H00T10416   1.937   9.676   2.084  0.7698  2.2246 -0.8222
   574G12c C00D10417  12.091  11.160   0.892  1.6067 -1.6230  0.9189
   574G12c O00B10418  11.959  11.143   0.868  0.4117  1.0282  0.1037
   574G12c C02510419  11.931  11.062   0.745  0.0615  0.4815  1.9925
   574G12c C02610420  11.803  10.985   0.762 -0.1366 -0.5743  0.3177
   574G12c H00Y10421  11.808  10.908   0.840 -0.4143 -0.0752  0.8367
   574G12c H00X10422  11.795  10.903   0.690 -1.4473 -1.9871  2.0128
   574G12c O00C10423  11.662  11.028   0.757 -0.1633 -1.4996  0.5145
   574G12c H00W10424  11.652  11.039   0.664  0.7286 -7.6963 -0.5333
   574G12c C02710425  12.009  11.040   0.633  0.2234  0.4294 -0.9457
   574G12c O00D10426  12.107  11.138   0.613 -0.1682  1.5798 -1.1967
   574G12c H00Z10427  12.197  11.110   0.614  0.2666  2.9686  1.1872
   574G12c C02810428  11.955  10.980   0.518 -0.2506  0.9712  0.5038
   574G12c C02910429  11.903  11.049   0.406  0.3224  0.8710 -0.2966
   574G12c H01010430  11.959  11.138   0.380 -4.3145  4.6631  1.9136
   574G12c C02T10431  11.821  10.977   0.326  0.5101 -0.0766  0.2095
   574G12c H01O10432  11.772  11.003   0.233  1.9265 -1.9142 -1.0938
   574G12c C02S10433  11.785  10.847   0.361 -0.5150  0.3037 -1.1065
   574G12c O00J10434  11.672  10.811   0.327  1.3605 -0.8237 -0.0360
   574G12c H01P10435  11.684  10.720   0.302 -0.0233 -0.6324 -1.4884
   574G12c C02R10436  11.852  10.777   0.456 -0.4619 -0.1430 -1.0910
   574G12c O00I10437  11.825  10.650   0.491  0.3967  0.2372  0.9913
   574G12c C02Q10438  11.901  10.542   0.418 -0.0691  0.7225  0.8854
   574G12c H01N10439  11.858  10.469   0.486  1.1560  3.5891  4.9285
   574G12c H01R10440  12.008  10.543   0.437  0.4494  4.8042 -1.6394
   574G12c H01Q10441  11.882  10.513   0.315 -2.6665  4.9150  0.0540
   574G12c C02A10442  11.951  10.832   0.524  1.2633 -0.5936 -1.2163
   574G12c H01110443  11.967  10.766   0.608 -0.0594 -2.9479 -2.7616
   574G12c C00C10444  12.163  11.048   0.894 -1.1012 -0.1974 -0.4811
   574G12c H01210445  12.091  10.967   0.903  3.6073 -4.1696  6.8843
   574G12c C00B10446  12.308  11.050   0.853 -0.5918  1.0154 -0.5402
   574G12c C00A10447  12.390  10.946   0.800  0.1149 -0.6030 -0.8622
   574G12c C00910448  12.372  10.810   0.838  1.5417 -0.7732 -1.5474
   574G12c C00810449  12.307  10.759   0.960 -0.7627  0.9204 -1.3290
   574G12c H01310450  12.216  10.800   1.001  2.2467  3.9008  2.8320
   574G12c C00710451  12.368  10.632   0.997  0.6309 -0.6398 -0.3620
   574G12c H01410452  12.324  10.571   1.074 -3.2081 -0.6170 -2.3939
   574G12c C00610453  12.491  10.577   0.952  0.7751 -1.3461 -0.9384
   574G12c C00510454  12.545  10.647   0.836  0.9317  0.2599  1.0285
   574G12c C00410455  12.682  10.634   0.812  0.2581  1.2072 -3.3193
   574G12c C00310456  12.744  10.734   0.739  0.0437 -0.3944  0.4123
   574G12c C00210457  12.892  10.704   0.728  0.4312  1.7940  1.1064
   574G12c C00110458  12.995  10.784   0.680 -1.0442  1.2346 -0.9105
   574G12c C00M10459  13.022  10.924   0.710  1.8650  0.9494  0.7406
   574G12c C00L10460  12.909  11.002   0.694  1.5747 -0.2498 -0.4192
   574G12c C00R10461  12.905  11.151   0.724  0.9837  0.1623  1.2900
   574G12c C00Q10462  12.982  11.220   0.824 -0.3589  2.0365 -0.2852
   574G12c C00V10463  12.930  11.345   0.859  0.6415 -2.8444 -0.0198
   574G12c C00U10464  12.803  11.380   0.844 -2.0868  0.6601 -0.5497
   574G12c C00T10465  12.716  11.305   0.776  0.6810 -1.3523  0.6353
   574G12c C01610466  12.582  11.297   0.805 -0.1092 -0.8559 -1.9561
   574G12c C01510467  12.523  11.403   0.885  1.9455  0.5853  0.2905
   574G12c C01010468  12.605  11.496   0.932  0.9674  0.2348 -0.2560
   574G12c C01110469  12.536  11.609   0.999 -0.5707 -1.4108 -0.8217
   574G12c H00510470  12.601  11.689   1.032 -1.2304 -1.0416 -0.3821
   574G12c C01210471  12.410  11.596   1.064 -0.0088 -0.6750 -1.2154
   574G12c C01710472  12.363  11.677   1.175 -0.0759  0.8918  0.4286
   574G12c O00210473  12.432  11.646   1.290 -0.8408  0.9422 -0.8830
   574G12c H00410474  12.404  11.712   1.352-10.2492 -0.5356 -2.8657
   574G12c C01810475  12.249  11.751   1.164 -1.1854  0.2204  0.8165
   574G12c O00110476  12.214  11.778   1.035  0.0373 -1.5181  0.2087
   574G12c H00310477  12.157  11.850   1.055  2.7166  0.0773  2.5341
   574G12c C01910478  12.176  11.824   1.271  1.2901  0.5978  0.0858
   574G12c H00210479  12.074  11.864   1.259 -0.9986 -5.3303 -1.7994
   574G12c H00110480  12.148  11.736   1.329 -4.4711  1.2614 -1.2991
   574G12c O00010481  12.244  11.931   1.333  1.5251  0.0600 -1.1880
   574G12c C01A10482  12.220  11.951   1.468  1.3767 -0.9883  0.6860
   574G12c C02K10483  12.295  11.899   1.574 -0.5921 -0.6721  0.0942
   574G12c O00G10484  12.405  11.812   1.545 -0.1180  0.2152  0.6244
   574G12c C02M10485  12.535  11.876   1.566 -2.1441 -1.7730  0.2574
   574G12c H01G10486  12.617  11.807   1.547  4.0829  4.6780  1.6249
   574G12c H01F10487  12.544  11.922   1.664  0.5392  1.0700 -1.2084
   574G12c H01E10488  12.550  11.931   1.473 -1.7733  1.2155  2.0180
   574G12c C02J10489  12.238  11.911   1.708 -0.4602  0.1602  0.4576
   574G12c H01H10490  12.288  11.842   1.775  0.1563 -3.2405 -3.2734
   574G12c C02I10491  12.129  11.992   1.740  2.0380 -0.4268  0.2373
   574G12c C02N10492  12.083  12.001   1.872  1.0130  1.3273  1.4539
   574G12c H01M10493  12.012  12.079   1.894 -7.2407 -4.1284 -3.0259
   574G12c C02O10494  12.090  11.883   1.944  1.3019  0.3346  0.4702
   574G12c H01L10495  12.144  11.791   1.934 -2.1197 -1.2798 -5.8490
   574G12c C02P10496  12.018  11.863   2.063  1.3703 -1.2939  0.5426
   574G12c H01K10497  12.001  11.761   2.099  2.3495 -0.7704  2.5752
   574G12c H01J10498  12.096  11.859   2.139 -3.6790 -7.1498  5.9360
   574G12c O00H10499  11.972  11.990   2.133 -0.1347 -0.4442  1.2801
   574G12c H01I10500  12.031  12.062   2.115 -1.4341  1.4928  4.3089
   574G12c C02H10501  12.072  12.057   1.628  0.8618 -1.7820  0.0351
   574G12c H01C10502  11.999  12.133   1.652  1.0720 -2.1701  2.0153
   574G12c C02L10503  12.122  12.036   1.500  1.0526 -0.8932  0.7336
   574G12c H01D10504  12.076  12.085   1.416 -5.9780 -5.7232  1.3175
   574G12c C01310505  12.326  11.494   1.020  0.0127 -0.0242  0.4416
   574G12c H00010506  12.231  11.460   1.059 -1.4566  3.1179 -0.1979
   574G12c C01410507  12.385  11.395   0.929  1.0639 -0.3579  0.7946
   574G12c C00F10508  12.303  11.291   0.893 -1.7118  0.3970 -2.0955
   574G12c C00H10509  12.505  11.173   0.803 -1.3587 -0.0039  0.4257
   574G12c C00I10510  12.565  11.073   0.724  1.3951  1.6906  0.9591
   574G12c C00J10511  12.703  11.093   0.703 -1.9822 -1.7059 -0.8757
   574G12c C00Z10512  12.744  11.483   0.923  0.4100 -0.9660 -0.6769
   574G12c C00Y10513  12.820  11.558   1.009 -0.0290  1.1210  1.0766
   574G12c H00610514  12.774  11.624   1.081  4.4850  4.6628  0.9458
   574G12c C00X10515  12.961  11.533   1.034  1.7922 -0.6717  1.3358
   574G12c O00310516  13.025  11.580   1.147 -2.3645 -0.0302 -0.0842
   574G12c C01B10517  12.989  11.533   1.283 -1.3562 -1.4019 -0.8608
   574G12c H00910518  12.949  11.625   1.325  1.2461  0.5182 -2.4109
   574G12c H00810519  13.065  11.497   1.352 -0.8732  1.6209  0.2736
   574G12c H00710520  12.920  11.449   1.272 -1.2422 -1.6929  0.5854
   574G12c C00W10521  13.002  11.423   0.954  0.0352 -1.3276 -0.0764
   574G12c O00410522  13.130  11.409   0.960  1.3416  0.1324  1.0937
   574G12c C01C10523  13.171  11.282   0.970 -2.1319 -1.3536  0.0592
   574G12c H00A10524  13.200  11.246   1.067  2.7494 -3.8886 -2.1513
   574G12c C00P10525  13.113  11.189   0.873 -0.3156 -1.3465 -1.2984
   574G12c C00O10526  13.184  11.071   0.855  1.2719  0.9109  1.5067
   574G12c C01D10527  13.316  11.044   0.914  1.3082 -1.8319 -0.8033
   574G12c H00S10528  13.388  11.115   0.951 -0.1813  0.9624 -3.1039
   574G12c C01E10529  13.361  10.911   0.948  1.0816  0.3497  1.5537
   574G12c O00810530  13.469  10.910   1.043  0.4624 -0.7279 -0.8121
   574G12c C01V10531  13.588  10.859   0.990  0.4323 -0.0681  0.9482
   574G12c C01Z10532  13.702  10.906   1.082 -0.3550  0.5788  1.7650
   574G12c H00R10533  13.781  10.938   1.014 -1.9493 -1.6463 -1.2901
   574G12c H00Q10534  13.699  10.996   1.143 -1.6464 -0.7630  3.7107
   574G12c O00910535  13.729  10.781   1.144 -0.7006  0.7141 -0.5082
   574G12c H00P10536  13.688  10.784   1.229 -0.5530  3.3691 -0.4801
   574G12c C01W10537  13.596  10.778   0.877  1.3722  1.2369 -2.0884
   574G12c H00O10538  13.522  10.722   0.821  2.2520 -6.7535  3.8423
   574G12c C01X10539  13.709  10.686   0.846 -0.2618 -0.3565  0.7181
   574G12c H00N10540  13.754  10.663   0.942 -5.9115  0.0345  3.6621
   574G12c H00M10541  13.666  10.590   0.818 -7.4134  1.2969  4.7586
   574G12c C01Y10542  13.795  10.700   0.715  1.7217 -1.3462  1.4954
   574G12c C02D10543  13.787  10.808   0.647 -0.2125  0.8333  0.6130
   574G12c H01910544  13.729  10.898   0.659 -2.0841 -0.0773 -1.3471
   574G12c C02C10545  13.830  10.828   0.518 -0.5837  1.1122 -2.1884
   574G12c H01A10546  13.837  10.925   0.471 -1.8497  3.3834  1.9946
   574G12c C02B10547  13.914  10.729   0.469  0.4247 -1.6188  1.2607
   574G12c O00E10548  13.918  10.715   0.327 -1.2682  0.1240 -0.6006
   574G12c H01B10549  13.910  10.621   0.321  3.2424 -0.9673  5.5497
   574G12c C02F10550  13.948  10.621   0.553 -0.8720  0.9196 -1.2534
   574G12c O00F10551  14.031  10.512   0.505 -0.1452 -0.7640 -0.1648
   574G12c C02G10552  13.985  10.387   0.537  1.6039  2.1132 -1.6445
   574G12c H01710553  14.067  10.316   0.546 -4.1659 -4.4288  7.4692
   574G12c H01610554  13.943  10.364   0.439 -3.8139  7.1827 -0.8177
   574G12c H01510555  13.894  10.373   0.595  1.0218  0.1169 -3.0032
   574G12c C02E10556  13.886  10.592   0.685  0.0954  1.1774  0.1927
   574G12c H01810557  13.905  10.525   0.767 -0.3943  1.8014  0.8242
   574G12c C01F10558  13.271  10.806   0.902 -0.2360  0.6658 -0.5691
   574G12c C01G10559  13.274  10.664   0.942  1.5185 -0.2667 -0.5337
   574G12c H00L10560  13.351  10.641   1.014  2.5219  5.0772  0.3130
   574G12c C01H10561  13.190  10.565   0.892  2.2835  0.5609 -2.0006
   574G12c H00B10562  13.177  10.482   0.960  1.1152  2.2443 -0.1170
   574G12c C01I10563  13.094  10.615   0.799 -0.6258 -1.2373 -0.9540
   574G12c C01U10564  13.190  10.822   0.791  0.8236  0.5330 -1.3277
   574G12c C00S10565  12.780  11.204   0.705  2.8812 -1.3429  0.6841
   574G12c C00K10566  12.777  10.971   0.680 -0.1671  0.3623  1.0333
   574G12c C00N10567  13.136  10.953   0.789 -0.2236  2.7615 -0.2647
   574G12c C00010568  13.116  10.728   0.732 -1.8539 -0.0505  2.2968
   574G12c C01J10569  12.956  10.597   0.800 -0.3840  2.0184 -0.4921
   574G12c C01K10570  12.882  10.484   0.836 -0.9039  1.0626  1.9724
   574G12c C01P10571  12.918  10.342   0.855 -0.6684  1.2690 -2.0464
   574G12c C01Q10572  13.048  10.291   0.814 -0.8829  0.3927  2.9102
   574G12c H00G10573  13.121  10.336   0.748  1.3085 -9.5490 -2.5381
   574G12c C01R10574  13.098  10.164   0.838  1.1586 -0.4693 -0.6555
   574G12c H00F10575  13.061  10.109   0.923  1.7936  3.0191  2.0078
   574G12c C01S10576  13.234  10.127   0.770 -0.5409  0.7567 -0.6630
   574G12c H00E10577  13.307  10.204   0.793  4.4771 -3.8286 -0.3001
   574G12c H00D10578  13.217  10.032   0.820  3.2946  2.8358  5.1182
   574G12c O00510579  13.229  10.105   0.632 -1.1930 -0.9573 -1.5424
   574G12c H00C10580  13.225  10.013   0.614 -6.6271 -2.0376  3.4145
   574G12c C01O10581  12.824  10.270   0.928  0.6164  1.1123  1.6402
   574G12c H00H10582  12.860  10.172   0.956 -0.2163  1.1533  2.9073
   574G12c C01N10583  12.718  10.307   1.000 -1.0256 -0.4850  0.6002
   574G12c O00610584  12.651  10.224   1.089  0.7613 -0.5379  0.4902
   574G12c C01T10585  12.677  10.278   1.226  0.8648  2.5705 -0.8745
   574G12c H00K10586  12.678  10.383   1.254  3.6723  2.5311 -0.7278
   574G12c H00J10587  12.783  10.258   1.215  0.0322 -4.7344  1.9780
   574G12c H00I10588  12.612  10.243   1.306  5.6906 -0.3700  1.9910
   574G12c C01M10589  12.673  10.440   0.959 -0.9965  1.5233 -0.0057
   574G12c C02010590  12.693  10.845   0.686  1.0249  0.3651  0.2087
   574G12c C02110591  12.551  10.837   0.689 -1.8451 -0.5688  1.0566
   574G12c C01L10592  12.754  10.526   0.878 -0.6506 -1.1445 -1.3132
   574G12c O00710593  12.549  10.477   1.019  0.4888  0.3255 -0.9653
   574G12c C02210594  12.487  10.755   0.770 -0.4936  0.7035  1.1300
   574G12c C02310595  12.489  10.950   0.716  1.0161 -1.6465 -1.8036
   574G12c C00G10596  12.372  11.176   0.846  0.3539 -1.1480 -0.8124
   574G12c C00E10597  12.161  11.291   0.881 -0.6515  0.1615 -1.4388
   574G12c O00A10598  12.080  11.398   0.841  1.1696 -0.5650  1.5984
   574G12c C02410599  12.150  11.486   0.747  0.3476  1.2972 -1.3446
   574G12c H00V10600  12.100  11.541   0.667  4.1874  2.6072 -2.9638
   574G12c H00U10601  12.256  11.496   0.725 -0.0992  8.2681 -1.5650
   574G12c H00T10602  12.168  11.581   0.797 -0.6027 -0.8152  3.2827
   584G12c C00D10603   8.471   8.532   7.421  0.6405  2.4360  0.4435
   584G12c O00B10604   8.592   8.456   7.396 -0.8692 -0.1311 -0.3256
   584G12c C02510605   8.619   8.420   7.249  2.0272  0.7844 -1.1130
   584G12c C02610606   8.655   8.264   7.255 -0.1971  0.8411  1.1503
   584G12c H00Y10607   8.742   8.241   7.316  0.1473 -4.2157 -0.9866
   584G12c H00X10608   8.679   8.209   7.164 -0.6788  1.3090  0.7417
   584G12c O00C10609   8.534   8.217   7.310 -0.0909  0.1039 -0.6467
   584G12c H00W10610   8.507   8.143   7.258  3.0784 -4.4902  3.7060
   584G12c C02710611   8.588   8.491   7.139  0.1125 -0.8509 -0.8517
   584G12c O00D10612   8.537   8.619   7.160  0.0997  0.2958 -0.3467
   584G12c H00Z10613   8.452   8.607   7.120  2.4616 -2.3357 -5.0488
   584G12c C02810614   8.600   8.426   7.011 -0.6193 -0.6243 -1.7232
   584G12c C02910615   8.729   8.383   6.963  2.0607  1.2352  0.8873
   584G12c H01010616   8.818   8.384   7.023  1.4400  2.7106  1.8284
   584G12c C02T10617   8.724   8.272   6.887  1.0255  0.2149  2.0510
   584G12c H01O10618   8.824   8.241   6.915  0.6578  1.2853  4.7126
   584G12c C02S10619   8.612   8.260   6.803 -0.7158  0.9313  0.2945
   584G12c O00J10620   8.624   8.156   6.719 -0.2618  1.5750  2.1469
   584G12c H01P10621   8.555   8.152   6.655 -1.9633 -0.4600  4.0325
   584G12c C02R10622   8.488   8.335   6.820 -0.3875  1.7756  1.8298
   584G12c O00I10623   8.363   8.320   6.748  0.2920 -1.4520 -1.4341
   584G12c C02Q10624   8.324   8.426   6.666 -1.7749 -0.3652  0.7470
   584G12c H01N10625   8.331   8.407   6.559  5.6067  6.9275 -0.5133
   584G12c H01R10626   8.222   8.459   6.684 -1.1251  1.5811  1.0196
   584G12c H01Q10627   8.409   8.493   6.672 -2.0599 -0.1153  2.1920
   584G12c C02A10628   8.487   8.423   6.928 -0.0711  1.0445  0.4197
   584G12c H01110629   8.400   8.469   6.973  1.2748  5.2675 -0.9684
   584G12c C00C10630   8.354   8.482   7.357  0.7918  0.8670  0.9599
   584G12c H01210631   8.366   8.377   7.334  1.5612  1.0294  0.6230
   584G12c C00B10632   8.223   8.542   7.401 -0.7989  0.4309  0.5620
   584G12c C00A10633   8.094   8.483   7.364 -0.9816 -1.1212 -0.2873
   584G12c C00910634   8.053   8.401   7.251  0.7444 -1.7440  0.4078
   584G12c C00810635   8.125   8.325   7.148  0.1711  1.7348 -0.4611
   584G12c H01310636   8.221   8.278   7.162 -1.0982 -0.9470 -0.3870
   584G12c C00710637   8.067   8.322   7.027 -0.5142 -0.6606  2.4789
   584G12c H01410638   8.147   8.287   6.964 -2.6952 -6.8623  2.8384
   584G12c C00610639   7.948   8.395   6.999  0.6108 -0.6398 -0.0312
   584G12c C00510640   7.886   8.448   7.104  0.1786 -1.3123  0.2517
   584G12c C00410641   7.768   8.519   7.084  0.6864  0.2108 -0.6689
   584G12c C00310642   7.713   8.599   7.188  2.0905  1.9673  0.4836
   584G12c C00210643   7.578   8.659   7.155  1.2344 -0.5406 -1.8227
   584G12c C00110644   7.501   8.777   7.221 -2.0740  1.1723 -1.2810
   584G12c C00M10645   7.566   8.879   7.320  0.4131  0.3305  1.6158
   584G12c C00L10646   7.697   8.861   7.369  0.4247 -0.2333 -0.3240
   584G12c C00R10647   7.778   8.964   7.426  1.3193 -0.0846 -1.7465
   584G12c C00Q10648   7.769   9.114   7.430 -1.1837 -0.9669 -0.0427
   584G12c C00V10649   7.887   9.162   7.498 -0.6658  0.8237 -0.7991
   584G12c C00U10650   8.011   9.092   7.530 -0.0592  0.1965  0.1532
   584G12c C00T10651   8.009   8.953   7.525 -0.5202 -0.4986 -0.1863
   584G12c C01610652   8.113   8.866   7.545  0.5706  0.2340 -0.8196
   584G12c C01510653   8.240   8.928   7.575  1.2210 -0.3289 -0.6957
   584G12c C01010654   8.232   9.065   7.611  0.6476  0.6614  1.4470
   584G12c C01110655   8.361   9.122   7.646 -0.3293  0.7388 -0.1163
   584G12c H00510656   8.363   9.230   7.642 -3.3801  0.9555  2.0872
   584G12c C01210657   8.459   9.037   7.700 -0.7069  1.1448  0.4661
   584G12c C01710658   8.588   9.092   7.754 -0.4517  0.4122  0.1583
   584G12c O00210659   8.677   9.125   7.651  0.1548  0.4338  2.5614
   584G12c H00410660   8.768   9.123   7.675  0.7678  5.8327  1.3637
   584G12c C01810661   8.605   9.114   7.886  1.0740 -0.2209 -1.5917
   584G12c O00110662   8.498   9.151   7.950  0.1664  0.2779  0.7863
   584G12c H00310663   8.439   9.080   7.933 -5.3953  5.5837 -4.1264
   584G12c C01910664   8.739   9.157   7.925  0.8297  0.8753 -0.2692
   584G12c H00210665   8.768   9.247   7.871  0.0331  2.6133  2.1271
   584G12c H00110666   8.703   9.187   8.023 -5.0116 -0.8420 -1.6444
   584G12c O00010667   8.842   9.057   7.915  0.9713 -0.4465  0.6126
   584G12c C01A10668   8.846   8.967   8.012 -0.1439  0.7309  0.9248
   584G12c C02K10669   8.894   8.995   8.144  0.3353 -0.3634  1.0305
   584G12c O00G10670   8.928   9.127   8.182  0.2652 -0.7395 -1.4465
   584G12c C02M10671   8.977   9.150   8.309  0.1961 -0.2608 -1.7193
   584G12c H01G10672   8.965   9.257   8.326  2.1305 -0.8296  4.4142
   584G12c H01F10673   9.079   9.116   8.325  3.5168  8.3658 -1.5176
   584G12c H01E10674   8.914   9.098   8.381 -5.0088  1.1013 -4.9473
   584G12c C02J10675   8.888   8.889   8.239 -1.0086  1.5026 -1.4420
   584G12c H01H10676   8.920   8.882   8.342  1.7562 -0.3189 -2.3741
   584G12c C02I10677   8.807   8.774   8.215  0.9482  0.9191 -1.3817
   584G12c C02N10678   8.765   8.676   8.311  1.6636 -0.1944 -2.0250
   584G12c H01M10679   8.662   8.644   8.301  1.8516 -0.4382 -3.3219
   584G12c C02O10680   8.835   8.638   8.428  0.2350 -0.5225 -0.3464
   584G12c H01L10681   8.942   8.641   8.412  0.6914 -4.6877  1.2583
   584G12c C02P10682   8.784   8.579   8.556 -1.4921 -1.1408  0.7677
   584G12c H01K10683   8.712   8.499   8.538  2.1167 -4.3652 -0.1686
   584G12c H01J10684   8.845   8.568   8.646  3.3654  2.5988 -1.8058
   584G12c O00H10685   8.683   8.665   8.604  0.0020  0.5408  0.6840
   584G12c H01I10686   8.698   8.729   8.536  0.8076  2.2165  2.3923
   584G12c C02H10687   8.749   8.756   8.086 -0.6475 -0.3115 -0.1616
   584G12c H01C10688   8.685   8.675   8.053 -3.3844  1.7188 -0.0671
   584G12c C02L10689   8.801   8.835   7.980 -0.7426 -0.4861  0.0515
   584G12c H01D10690   8.744   8.808   7.892 -2.9769 -0.3662  1.4211
   584G12c C01310691   8.451   8.895   7.675 -1.8732  0.2066  0.0301
   584G12c H00010692   8.510   8.829   7.738  0.1719  1.0026 -0.9858
   584G12c C01410693   8.349   8.850   7.587 -0.5749  0.0337 -0.7525
   584G12c C00F10694   8.340   8.714   7.535 -1.5688 -0.8345 -0.4105
   584G12c C00H10695   8.097   8.732   7.519 -1.1355  0.6314  1.0433
   584G12c C00I10696   7.982   8.678   7.478  0.4921  0.1069 -0.0170
   584G12c C00J10697   7.884   8.756   7.470  1.3280  1.0984 -0.8269
   584G12c C00Z10698   8.118   9.146   7.596  0.1442  0.8073 -0.8156
   584G12c C00Y10699   8.107   9.286   7.625  1.5004 -0.2831  0.2020
   584G12c H00610700   8.197   9.344   7.641  0.0894  0.9042  4.5092
   584G12c C00X10701   7.998   9.361   7.603  0.5108 -1.2899  1.0221
   584G12c O00310702   7.987   9.487   7.643  1.3176  0.9573 -0.1534
   584G12c C01B10703   7.995   9.485   7.789  2.9790  0.8984  1.3365
   584G12c H00910704   8.040   9.573   7.834  1.4817  4.2342 -3.3609
   584G12c H00810705   8.040   9.399   7.840  1.2796 -2.0026 -1.8545
   584G12c H00710706   7.887   9.470   7.797  3.0864 -6.0951 -4.8494
   584G12c C00W10707   7.885   9.294   7.547  0.4141  0.9114  0.1935
   584G12c O00410708   7.794   9.387   7.497  0.0197  1.7741  0.1694
   584G12c C01C10709   7.692   9.352   7.407 -2.7631 -0.9832  0.4659
   584G12c H00A10710   7.606   9.417   7.405  0.2098  3.4027 -6.7238
   584G12c C00P10711   7.674   9.205   7.376  0.4093 -1.6319  1.6452
   584G12c C00O10712   7.575   9.153   7.270  1.2492  0.3073 -1.2484
   584G12c C01D10713   7.530   9.255   7.176  0.3560  0.5840 -0.0257
   584G12c H00S10714   7.547   9.355   7.213 -1.5838  1.0602 -0.3734
   584G12c C01E10715   7.479   9.207   7.060  0.9695 -0.4788  0.5005
   584G12c O00810716   7.476   9.286   6.943  0.5446  1.1645 -0.1215
   584G12c C01V10717   7.570   9.389   6.955  2.3589 -2.3442 -0.2664
   584G12c C01Z10718   7.709   9.397   6.909 -2.8885 -0.0536  0.3255
   584G12c H00R10719   7.727   9.504   6.898 -0.8763 -0.4212 -0.1896
   584G12c H00Q10720   7.800   9.353   6.950 -0.3160  3.6710 -1.1470
   584G12c O00910721   7.668   9.366   6.782 -0.8328  1.4542  0.2444
   584G12c H00P10722   7.637   9.280   6.804 -3.5167  2.3487  0.1264
   584G12c C01W10723   7.497   9.507   6.998  0.5199  0.6943 -1.5277
   584G12c H00O10724   7.390   9.489   6.992 -0.0925 -1.6569  7.7407
   584G12c C01X10725   7.541   9.656   7.004  0.6701  0.0081  0.5746
   584G12c H00N10726   7.632   9.666   6.946 -2.0546 -5.8258 -5.4997
   584G12c H00M10727   7.458   9.704   6.953  0.2208  1.3059  2.4762
   584G12c C01Y10728   7.530   9.736   7.136 -0.3338  0.3239  0.7726
   584G12c C02D10729   7.516   9.877   7.127 -0.4932  0.1117 -1.3741
   584G12c H01910730   7.497   9.919   7.029 -1.0886 -0.0163 -1.3165
   584G12c C02C10731   7.509   9.954   7.237 -2.6660 -0.2122 -0.4212
   584G12c H01A10732   7.513  10.060   7.255  0.5066 -0.6217  1.5013
   584G12c C02B10733   7.519   9.893   7.359 -2.5055 -0.1218 -0.1511
   584G12c O00E10734   7.518   9.969   7.477 -0.3948 -1.1029 -0.7490
   584G12c H01B10735   7.568   9.933   7.549  3.3059  1.8347 -1.6556
   584G12c C02F10736   7.488   9.750   7.380  0.5865 -1.0657 -0.8034
   584G12c O00F10737   7.452   9.703   7.506 -0.1728 -0.5987 -0.3450
   584G12c C02G10738   7.316   9.756   7.538  1.3582  0.1910  0.4855
   584G12c H01710739   7.300   9.732   7.643  0.5861 -0.0821  0.3087
   584G12c H01610740   7.234   9.693   7.502  2.0244  3.2008 -7.2205
   584G12c H01510741   7.299   9.863   7.545  3.8686  0.6460  0.0678
   584G12c C02E10742   7.536   9.668   7.274  0.7257 -0.0009 -0.4487
   584G12c H01810743   7.556   9.564   7.293 -1.6255 -1.1070 -3.5915
   584G12c C01F10744   7.433   9.074   7.043  0.4491  0.5068  0.9999
   584G12c C01G10745   7.413   9.021   6.912  1.9936 -0.0024 -0.0669
   584G12c H00L10746   7.381   9.077   6.825 -1.2114  1.1843  1.7760
   584G12c C01H10747   7.444   8.879   6.882  0.1410 -0.4140 -1.1093
   584G12c H00B10748   7.474   8.844   6.785  3.8515  1.9092 -0.8871
   584G12c C01I10749   7.455   8.792   7.005 -0.5088  1.0228 -0.8548
   584G12c C01U10750   7.439   8.981   7.142  0.2608 -1.3509 -0.3448
   584G12c C00S10751   7.891   8.901   7.487 -0.2945 -0.9867 -2.2666
   584G12c C00K10752   7.772   8.743   7.377  0.3518  1.1544 -1.4678
   584G12c C00N10753   7.535   9.012   7.253  0.0859 -0.3779 -0.2322
   584G12c C00010754   7.427   8.848   7.124  0.3272 -0.2267 -1.2279
   584G12c C01J10755   7.548   8.679   7.019  1.5370  1.8388 -0.5119
   584G12c C01K10756   7.583   8.585   6.917 -0.5166  0.8273  1.0210
   584G12c C01P10757   7.516   8.548   6.790  0.0493  0.3255  0.8430
   584G12c C01Q10758   7.356   8.534   6.797 -0.7329 -0.1488 -1.3285
   584G12c H00G10759   7.319   8.548   6.897 -2.1686 -4.7263 -1.0824
   584G12c C01R10760   7.278   8.463   6.717  0.4243 -2.2803  0.4760
   584G12c H00F10761   7.331   8.418   6.633 -2.3945 -2.7052 -1.1543
   584G12c C01S10762   7.134   8.430   6.732 -0.5559 -0.7276  0.5428
   584G12c H00E10763   7.081   8.510   6.681  1.4200 -1.4961 -2.8496
   584G12c H00D10764   7.084   8.341   6.692  1.6642 -1.9980  0.4759
   584G12c O00510765   7.136   8.397   6.864  0.4555 -0.1291 -0.3096
   584G12c H00C10766   7.177   8.476   6.895  0.3987  4.1834 -9.3456
   584G12c C01O10767   7.593   8.493   6.692 -1.1179  0.5652  0.7338
   584G12c H00H10768   7.554   8.507   6.593  1.7859 -3.4454 -1.1045
   584G12c C01N10769   7.720   8.439   6.724 -1.7598  0.6813  0.2761
   584G12c O00610770   7.804   8.393   6.630 -0.3943 -1.0195  0.4588
   584G12c C01T10771   7.790   8.479   6.498  0.1196 -1.2635  2.1577
   584G12c H00K10772   7.891   8.517   6.484  0.0862 -2.1099 -0.7201
   584G12c H00J10773   7.720   8.563   6.491 -0.2715 -1.8295 -2.6770
   584G12c H00I10774   7.772   8.431   6.402 -1.0066 -2.6340  3.0332
   584G12c C01M10775   7.777   8.454   6.852  0.6163 -0.5577  0.1573
   584G12c C02010776   7.773   8.617   7.313 -0.0112 -1.1361 -0.8078
   584G12c C02110777   7.863   8.503   7.341  0.9244  0.8218  1.4323
   584G12c C01L10778   7.705   8.527   6.957  0.2638  0.7870  1.2206
   584G12c O00710779   7.913   8.410   6.875 -0.1395 -0.7971  1.2373
   584G12c C02210780   7.911   8.420   7.237  2.0914  0.9918 -0.6138
   584G12c C02310781   7.980   8.544   7.415 -0.1821 -0.6793 -1.7309
   584G12c C00G10782   8.217   8.662   7.483 -1.2262 -0.4771 -0.4141
   584G12c C00E10783   8.464   8.642   7.504  0.6817 -0.8720  0.3257
   584G12c O00A10784   8.581   8.681   7.564  0.2952 -0.6078  0.0259
   584G12c C02410785   8.618   8.595   7.669  1.3919  0.9137  0.7829
   584G12c H00V10786   8.668   8.644   7.753  0.1890 -0.4360  2.3273
   584G12c H00U10787   8.550   8.544   7.738  3.8648  5.1084  6.7882
   584G12c H00T10788   8.698   8.540   7.621  2.6116  2.8541  0.5524
   594G12c C00D10789   8.825   8.014  12.414 -0.4008  0.1246  0.5678
   594G12c O00B10790   8.729   8.107  12.381  2.7790 -0.6756  1.1313
   594G12c C02510791   8.776   8.238  12.351  0.1578 -0.1317  0.3165
   594G12c C02610792   8.829   8.349  12.469  0.4245  1.1489  0.4287
   594G12c H00Y10793   8.856   8.443  12.421 -1.3892  1.0475 -0.8408
   594G12c H00X10794   8.901   8.344  12.550 -0.7628 -0.6379  1.3943
   594G12c O00C10795   8.712   8.381  12.543  0.2188  0.6851  1.0355
   594G12c H00W10796   8.726   8.472  12.565 -7.9237  2.2428  1.6100
   594G12c C02710797   8.767   8.274  12.225  2.8687  1.8300  1.0329
   594G12c O00D10798   8.706   8.203  12.127 -0.0268  0.7477 -0.4354
   594G12c H00Z10799   8.612   8.205  12.138  0.4062  4.7169  4.0544
   594G12c C02810800   8.811   8.410  12.186  0.1407 -0.7244  0.0432
   594G12c C02910801   8.911   8.406  12.080  0.2103 -0.3030  1.1875
   594G12c H01010802   8.941   8.309  12.043  1.2727  0.4494 -0.0011
   594G12c C02T10803   8.946   8.512  11.996  1.1663 -0.7971 -0.9079
   594G12c H01O10804   9.023   8.521  11.920 -0.2979  0.7314 -2.2276
   594G12c C02S10805   8.906   8.632  12.056  1.5874 -0.2623  0.5018
   594G12c O00J10806   8.982   8.751  12.040 -0.4603 -0.2495 -0.4897
   594G12c H01P10807   8.923   8.815  12.076 -1.8763 -1.4158 -0.7087
   594G12c C02R10808   8.818   8.641  12.165 -0.8544 -0.5927 -0.3846
   594G12c O00I10809   8.786   8.778  12.207  1.7739 -1.1654 -0.7983
   594G12c C02Q10810   8.765   8.794  12.338  0.3176 -1.5846  2.7842
   594G12c H01N10811   8.818   8.879  12.382 -1.9897 -0.4438  3.4259
   594G12c H01R10812   8.658   8.776  12.332 -0.6180  2.9367  3.9411
   594G12c H01Q10813   8.806   8.713  12.399  0.8667 -0.7621  3.5228
   594G12c C02A10814   8.751   8.536  12.220  0.1249  0.5321 -1.0495
   594G12c H01110815   8.682   8.540  12.303 -0.9507  4.2389 -1.9840
   594G12c C00C10816   8.864   7.919  12.319 -0.1242 -0.1964 -0.3883
   594G12c H01210817   8.825   7.948  12.223 -2.9405  1.4258  1.1832
   594G12c C00B10818   8.918   7.785  12.344  0.3970 -0.9600 -0.5122
   594G12c C00A10819   8.915   7.668  12.251  0.0196  0.5170 -1.6545
   594G12c C00910820   8.846   7.649  12.125  0.0637  0.3705 -0.3145
   594G12c C00810821   8.763   7.723  12.025 -0.4470  0.7571  0.6737
   594G12c H01310822   8.766   7.830  12.041 -3.1529  1.0269 -0.4453
   594G12c C00710823   8.641   7.660  11.995 -1.0251  1.1625 -0.1820
   594G12c H01410824   8.551   7.718  11.977 -0.9143  2.8921  4.0453
   594G12c C00610825   8.638   7.520  12.011  1.5588 -1.7231  2.1547
   594G12c C00510826   8.739   7.451  12.068 -1.6833  1.2350 -0.3245
   594G12c C00410827   8.714   7.310  12.122  1.1906 -1.2062  0.6584
   594G12c C00310828   8.816   7.243  12.198 -0.9341  0.6158  0.4310
   594G12c C00210829   8.799   7.098  12.226 -0.4893  1.5809 -0.9524
   594G12c C00110830   8.873   7.009  12.319 -0.1603 -1.4376  0.9281
   594G12c C00M10831   8.908   7.056  12.452  0.6258  1.4664 -1.5812
   594G12c C00L10832   8.973   7.170  12.486  1.7121 -0.3206 -0.2370
   594G12c C00R10833   9.006   7.210  12.615  0.2287  0.1271 -0.0424
   594G12c C00Q10834   8.961   7.188  12.758 -1.7495 -0.4018 -0.9346
   594G12c C00V10835   8.985   7.290  12.848  0.5577  1.6370  0.7916
   594G12c C00U10836   9.007   7.427  12.819 -0.8991  0.8480  0.8169
   594G12c C00T10837   9.027   7.451  12.693 -0.6787 -0.9567  0.2783
   594G12c C01610838   9.019   7.589  12.649 -0.7247  0.1018  0.9711
   594G12c C01510839   9.023   7.693  12.750 -1.0596 -2.2245 -0.0059
   594G12c C01010840   9.047   7.667  12.883  0.6947  1.1844  1.2717
   594G12c C01110841   9.038   7.765  12.991 -0.6023 -2.2193 -0.4118
   594G12c H00510842   9.069   7.733  13.090 -0.3613  2.8418  1.2993
   594G12c C01210843   8.985   7.886  12.965 -1.0045 -0.3367  0.7659
   594G12c C01710844   8.955   7.980  13.064 -1.0464 -0.4170  0.1982
   594G12c O00210845   9.058   7.992  13.162  0.5028 -1.1168  0.8953
   594G12c H00410846   9.038   8.069  13.213  3.7879  0.9935 -0.8686
   594G12c C01810847   8.838   8.037  13.063 -0.4709  0.1763  1.6618
   594G12c O00110848   8.731   8.012  12.984 -0.7600 -0.1493 -0.3995
   594G12c H00310849   8.763   7.934  12.943  3.8795  0.6634  1.3314
   594G12c C01910850   8.797   8.131  13.192 -1.0731 -0.0282 -0.5098
   594G12c H00210851   8.729   8.203  13.145 -0.4873  1.5595  1.0310
   594G12c H00110852   8.727   8.080  13.258  0.4326  2.3818  3.1248
   594G12c O00010853   8.906   8.190  13.246  1.6459 -2.8004 -0.0354
   594G12c C01A10854   8.898   8.287  13.339  1.2472 -0.2839 -1.0083
   594G12c C02K10855   9.019   8.332  13.396  1.0620  0.3140 -0.7657
   594G12c O00G10856   9.137   8.306  13.328 -0.1505 -0.7557  0.6086
   594G12c C02M10857   9.207   8.188  13.382  1.1262 -1.1212 -0.9063
   594G12c H01G10858   9.153   8.125  13.453  3.3842 -1.2550  0.7715
   594G12c H01F10859   9.316   8.184  13.373  1.8151  0.8924  4.5911
   594G12c H01E10860   9.199   8.135  13.287 -1.1749  1.7851 -2.4275
   594G12c C02J10861   9.018   8.440  13.485 -2.0559  0.0833 -0.3727
   594G12c H01H10862   9.106   8.478  13.534 -3.0324  1.0157  0.6851
   594G12c C02I10863   8.891   8.488  13.522 -0.3361  1.2322 -0.6931
   594G12c C02N10864   8.894   8.604  13.599  1.3042 -0.2620 -0.9989
   594G12c H01M10865   8.817   8.679  13.609  3.0376  1.6991 -1.9460
   594G12c C02O10866   8.966   8.624  13.711  1.6139 -0.3156  2.5379
   594G12c H01L10867   9.044   8.558  13.747 -0.0503 -2.2899  2.6225
   594G12c C02P10868   8.917   8.708  13.827 -0.8980 -1.3107 -0.5460
   594G12c H01K10869   8.811   8.685  13.841 -1.2357 -3.9015 -5.8106
   594G12c H01J10870   8.950   8.699  13.930 -3.1505  1.7405  0.5237
   594G12c O00H10871   8.907   8.849  13.802 -0.3008 -0.4334 -0.2310
   594G12c H01I10872   8.901   8.864  13.709 -9.9854  1.4116  0.1258
   594G12c C02H10873   8.771   8.450  13.453 -0.0977  0.4167  1.6005
   594G12c H01C10874   8.693   8.524  13.470  3.0590  4.0122  1.0440
   594G12c C02L10875   8.769   8.357  13.349  0.8881 -0.2799 -3.1137
   594G12c H01D10876   8.676   8.332  13.300 -2.2205 -1.3126  2.8476
   594G12c C01310877   8.964   7.919  12.818 -1.8483  1.4728  0.2705
   594G12c H00010878   8.958   8.026  12.803  0.0139  3.5394 10.3515
   594G12c C01410879   8.981   7.821  12.716  1.5892  1.2384  0.2719
   594G12c C00F10880   8.939   7.851  12.581  0.8041  0.7338  1.8833
   594G12c C00H10881   9.008   7.625  12.513  1.3916 -0.1258 -1.2712
   594G12c C00I10882   9.034   7.515  12.423  2.3812  1.4370  0.7629
   594G12c C00J10883   9.031   7.386  12.482 -1.0979 -1.0602  0.8416
   594G12c C00Z10884   9.005   7.525  12.909 -1.0099  0.9324 -0.8057
   594G12c C00Y10885   8.990   7.499  13.050 -0.0021  0.3906  2.2370
   594G12c H00610886   8.959   7.566  13.128 -1.8422  1.3144  0.7485
   594G12c C00X10887   8.958   7.358  13.077 -2.3657 -0.2262  0.7914
   594G12c O00310888   8.958   7.327  13.212  0.8793  0.5859 -1.2462
   594G12c C01B10889   8.991   7.413  13.304  0.1236  0.4865 -0.0376
   594G12c H00910890   9.095   7.434  13.282 -0.7538  6.3920  0.7125
   594G12c H00810891   9.022   7.371  13.400  1.3441 -0.5502 -0.8748
   594G12c H00710892   8.922   7.495  13.325  1.6983  1.1891  2.6540
   594G12c C00W10893   8.962   7.253  12.989 -1.2820 -0.6478 -0.1583
   594G12c O00410894   8.928   7.131  13.042  0.3079  0.9790  0.5637
   594G12c C01C10895   8.913   7.040  12.937  0.4230  0.5206  0.1976
   594G12c H00A10896   8.984   6.960  12.945  0.1240 -0.9066 -7.3833
   594G12c C00P10897   8.899   7.073  12.802 -2.6388 -0.9348  0.1012
   594G12c C00O10898   8.841   6.979  12.707  1.2543 -0.9673  0.1044
   594G12c C01D10899   8.763   6.872  12.753  1.6076 -1.4330 -0.0407
   594G12c H00S10900   8.744   6.871  12.859  1.1529  2.1343 -0.0414
   594G12c C01E10901   8.667   6.795  12.673 -1.1892  0.9401 -0.0973
   594G12c O00810902   8.580   6.730  12.754  0.3561  0.9462 -1.7112
   594G12c C01V10903   8.614   6.600  12.809  0.8628 -0.6774  0.5136
   594G12c C01Z10904   8.770   6.567  12.821 -0.3186 -1.9926  0.4313
   594G12c H00R10905   8.790   6.475  12.767  1.2194  0.1908 -2.9528
   594G12c H00Q10906   8.836   6.639  12.772 -0.1523 -3.0460 -0.8902
   594G12c O00910907   8.798   6.546  12.963  1.1333 -0.0769  1.5680
   594G12c H00P10908   8.753   6.607  13.018 -2.3802  2.6389 -3.8541
   594G12c C01W10909   8.522   6.521  12.864 -0.2170 -0.1139  0.6482
   594G12c H00O10910   8.539   6.434  12.925 -1.0970  4.7588  8.4901
   594G12c C01X10911   8.375   6.557  12.864 -1.2821  0.4336 -0.1425
   594G12c H00N10912   8.339   6.583  12.963 -2.2398  0.1257 -0.4001
   594G12c H00M10913   8.386   6.652  12.813 -0.7314  0.4065 -0.0699
   594G12c C01Y10914   8.297   6.495  12.752  1.8125  0.2767  0.0838
   594G12c C02D10915   8.164   6.488  12.789  0.1098  0.6062 -1.0619
   594G12c H01910916   8.127   6.541  12.876  0.1530 -0.9670 -0.0490
   594G12c C02C10917   8.067   6.479  12.692  0.7750  0.8539  0.5438
   594G12c H01A10918   7.965   6.494  12.723  0.6459 -1.8777  1.6277
   594G12c C02B10919   8.107   6.426  12.563 -0.5679 -0.0280 -0.5098
   594G12c O00E10920   8.029   6.379  12.453  0.2792  1.0603 -0.8060
   594G12c H01B10921   8.078   6.410  12.378 -0.2192  4.3525  0.1647
   594G12c C02F10922   8.238   6.414  12.529 -1.5064  0.3124 -1.5622
   594G12c O00F10923   8.267   6.380  12.403  0.4784  1.2455 -0.2920
   594G12c C02G10924   8.374   6.312  12.387  1.8815 -0.7033 -0.3718
   594G12c H01710925   8.439   6.298  12.474  0.5722  3.5377  1.4043
   594G12c H01610926   8.434   6.369  12.316 -2.3071  3.1642 -1.0241
   594G12c H01510927   8.360   6.207  12.361 -3.2389  0.6951 -3.9095
   594G12c C02E10928   8.337   6.451  12.619  0.8532  1.3975  0.3245
   594G12c H01810929   8.438   6.455  12.583  1.6850  1.3849  2.5731
   594G12c C01F10930   8.649   6.814  12.530 -1.7129  0.1398  1.6439
   594G12c C01G10931   8.538   6.794  12.444  1.0816  1.6588  1.1171
   594G12c H00L10932   8.445   6.744  12.469  0.8581 -0.5760 -3.6827
   594G12c C01H10933   8.532   6.877  12.325 -0.0810 -0.7998 -1.6676
   594G12c H00B10934   8.434   6.882  12.281  0.7622  2.5456 -3.3627
   594G12c C01I10935   8.650   6.935  12.283 -0.6334 -1.1957 -1.3489
   594G12c C01U10936   8.758   6.888  12.477  0.1353  0.8790 -0.1393
   594G12c C00S10937   9.064   7.349  12.607  1.6859 -0.0638 -0.5092
   594G12c C00K10938   8.983   7.283  12.407  1.1664 -0.3135  0.0989
   594G12c C00N10939   8.838   6.973  12.558 -1.7086 -1.2470 -2.7835
   594G12c C00010940   8.782   6.899  12.338  1.5790  0.2041 -0.5113
   594G12c C01J10941   8.662   7.045  12.192 -0.8337  0.3445  0.8695
   594G12c C01K10942   8.557   7.108  12.114  0.1611  1.3815  0.2003
   594G12c C01P10943   8.449   7.048  12.073  1.1906 -1.2553 -0.1754
   594G12c C01Q10944   8.434   6.910  12.052  1.0364 -0.3932 -1.2290
   594G12c H00G10945   8.500   6.837  12.008  0.2291 -0.0705 -3.0144
   594G12c C01R10946   8.319   6.837  12.054  1.3602  0.3241  0.2148
   594G12c H00F10947   8.225   6.874  12.093  0.3801 -2.4080  0.5329
   594G12c C01S10948   8.345   6.673  12.044  0.2736  0.0457 -1.7906
   594G12c H00E10949   8.420   6.639  11.973 -1.2914  3.9687 -5.5082
   594G12c H00D10950   8.277   6.609  11.987  5.8674 -4.7222 -3.6710
   594G12c O00510951   8.367   6.621  12.178  0.6582  0.4441  0.7546
   594G12c H00C10952   8.312   6.653  12.248 -4.5265 -0.9537 -2.3700
   594G12c C01O10953   8.352   7.139  12.027 -2.1244  1.9755  0.9409
   594G12c H00H10954   8.253   7.099  12.009 -1.9720  2.6223 -1.4001
   594G12c C01N10955   8.383   7.269  11.984  0.0494  1.5987  0.0705
   594G12c O00610956   8.279   7.342  11.939 -0.6410  0.1995 -0.2676
   594G12c C01T10957   8.270   7.352  11.798  0.0565 -1.3161  0.7407
   594G12c H00K10958   8.227   7.444  11.760  3.7900 -0.3017 -1.2553
   594G12c H00J10959   8.185   7.288  11.770  0.4569 -1.9791  1.0240
   594G12c H00I10960   8.367   7.328  11.755  1.8080  1.6423  2.9167
   594G12c C01M10961   8.500   7.322  12.010 -0.6964 -0.1222 -1.1105
   594G12c C02010962   8.921   7.319  12.274  0.8171 -0.3326  0.4827
   594G12c C02110963   8.918   7.454  12.226 -0.9852  0.1901 -0.4656
   594G12c C01L10964   8.590   7.249  12.088 -0.7732  0.6534 -0.0397
   594G12c O00710965   8.522   7.458  11.979 -0.8646  0.0332 -0.9302
   594G12c C02210966   8.856   7.504  12.117 -0.5391 -0.6397  0.6759
   594G12c C02310967   8.972   7.554  12.299  0.1041 -1.2546  0.2244
   594G12c C00G10968   8.953   7.756  12.481 -0.3898 -0.2899 -2.6047
   594G12c C00E10969   8.859   7.974  12.547 -0.0649 -0.8297  0.1888
   594G12c O00A10970   8.762   8.027  12.640 -0.6042  0.3585  0.2243
   594G12c C02410971   8.654   7.940  12.645  0.6183  0.5652  0.3634
   594G12c H00V10972   8.597   7.969  12.734  1.5629  0.8560  0.8802
   594G12c H00U10973   8.695   7.839  12.650 -3.6126 -1.3571 -1.4127
   594G12c H00T10974   8.591   7.958  12.558  0.5865  2.1512  0.6995
   604G12c C00D10975  12.635   0.813  13.470 -1.7252  0.2501 -1.1442
   604G12c O00B10976  12.691   0.707  13.565 -0.7375 -0.3043  0.1078
   604G12c C02510977  12.645   0.581  13.571  1.4839  1.1411  0.7554
   604G12c C02610978  12.552   0.506  13.464  0.3827  2.0281 -1.1749
   604G12c H00Y10979  12.590   0.411  13.427 -0.6707  2.1661 -2.6430
   604G12c H00X10980  12.543   0.566  13.374 -2.4390  6.7974  1.9939
   604G12c O00C10981  12.404   0.475  13.496 -0.1600 -0.1637 -1.8014
   604G12c H00W10982  12.403   0.382  13.513  1.0881 -0.0480 -1.0220
   604G12c C02710983  12.677   0.531  13.693  0.2385  1.2721  0.1912
   604G12c O00D10984  12.756   0.601  13.780 -0.2882 -0.1822  0.7804
   604G12c H00Z10985  12.833   0.649  13.754  2.5633 -4.9228 -0.1975
   604G12c C02810986  12.614   0.409  13.746  0.1183  1.1320 -0.6905
   604G12c C02910987  12.490   0.432  13.831  0.8823 -1.1973  1.6710
   604G12c H01010988  12.414   0.509  13.831 -1.1851 -3.1202 -1.0378
   604G12c C02T10989  12.471   0.327  13.926 -1.0593  1.2574 -0.1656
   604G12c H01O10990  12.394   0.335  14.001  1.1510 -6.9145  3.4905
   604G12c C02S10991  12.550   0.212  13.930  0.5182  0.4534 -0.1953
   604G12c O00J10992  12.516   0.124  14.023 -0.1840  0.8061  0.9732
   604G12c H01P10993  12.585   0.066  14.051 -2.5526 -0.6913  3.9264
   604G12c C02R10994  12.655   0.184  13.846 -1.5374  2.3748 -0.7040
   604G12c O00I10995  12.704   0.050  13.856  0.6015  0.5681  2.1192
   604G12c C02Q10996  12.822   0.023  13.810 -0.4933  0.8951 -1.5482
   604G12c H01N10997  12.850  -0.083  13.818  3.4969  2.1642  6.0976
   604G12c H01R10998  12.906   0.074  13.856  3.5257 -3.8128 -3.1591
   604G12c H01Q10999  12.814   0.068  13.711  3.5431  5.4620  0.0169
   604G12c C02A11000  12.678   0.285  13.739  0.4188  1.6503 -1.1572
   604G12c H01111001  12.764   0.257  13.679  4.3998  1.7863  4.1133
   604G12c C00C11002  12.518   0.823  13.424 -0.6815  0.4809 -0.5052
   604G12c H01211003  12.451   0.748  13.464 -2.9327  3.6678  1.9842
   604G12c C00B11004  12.466   0.920  13.335 -1.2378  2.8286  0.1770
   604G12c C00A11005  12.333   0.943  13.286  0.1053  1.1648  1.2678
   604G12c C00911006  12.222   0.842  13.279  0.5163  0.2057 -0.9386
   604G12c C00811007  12.204   0.708  13.326 -0.1664 -0.1694 -0.2157
   604G12c H01311008  12.274   0.661  13.394  0.8774  2.4096  0.5488
   604G12c C00711009  12.113   0.622  13.262  0.1008  0.1071  0.7443
   604G12c H01411010  12.069   0.537  13.312  3.1229  1.5521  6.3699
   604G12c C00611011  12.043   0.665  13.149 -0.0017  1.4181  0.7233
   604G12c C00511012  12.074   0.790  13.094  0.5271 -0.0106  0.3896
   604G12c C00411013  12.051   0.825  12.954  0.2451  0.8352 -0.8813
   604G12c C00311014  12.114   0.941  12.908 -0.9365  0.9709  1.6164
   604G12c C00211015  12.052   0.988  12.786 -1.2054  0.7117 -1.2930
   604G12c C00111016  12.049   1.099  12.704 -0.0599  0.2281 -0.5513
   604G12c C00M11017  12.177   1.164  12.683  0.3902  0.3997  1.3865
   604G12c C00L11018  12.263   1.185  12.787  0.1771  1.2266  1.6775
   604G12c C00R11019  12.396   1.225  12.780  0.0632  1.8563 -0.3362
   604G12c C00Q11020  12.487   1.259  12.679 -0.2523  0.1560  0.3192
   604G12c C00V11021  12.630   1.254  12.717  1.0146  2.0533  1.4375
   604G12c C00U11022  12.672   1.209  12.846 -0.1830  1.1142  0.9738
   604G12c C00T11023  12.586   1.189  12.946  2.1083  0.2036  0.5521
   604G12c C01611024  12.621   1.128  13.062 -0.9211 -1.0598  0.3912
   604G12c C01511025  12.750   1.128  13.104 -1.5334  1.4602  0.6315
   604G12c C01011026  12.839   1.175  13.012 -1.0089 -0.1936 -0.6019
   604G12c C01111027  12.968   1.193  13.045  1.5308 -1.2542 -0.9211
   604G12c H00511028  13.045   1.237  12.983  4.1936  3.8554  5.3736
   604G12c C01211029  13.011   1.119  13.154  0.3951  0.2826 -1.1266
   604G12c C01711030  13.150   1.116  13.195  0.6249 -0.0102 -1.4994
   604G12c O00211031  13.217   1.007  13.176  0.3977  0.4202 -0.6316
   604G12c H00411032  13.279   1.043  13.237  0.9931  0.3990 -1.2199
   604G12c C01811033  13.174   1.203  13.290 -0.1250 -0.2871  0.1267
   604G12c O00111034  13.081   1.294  13.337  0.6762  0.1250 -1.9489
   604G12c H00311035  12.996   1.269  13.303  1.8326 -3.1546 -2.5938
   604G12c C01911036  13.288   1.186  13.387 -1.1569 -1.7555  0.2354
   604G12c H00211037  13.324   1.284  13.421  1.1328 -2.6933  0.5568
   604G12c H00111038  13.229   1.158  13.475 -1.3523 -2.4527 -0.1174
   604G12c O00011039  13.401   1.096  13.342 -0.2563 -1.4528  0.1923
   604G12c C01A11040  13.524   1.125  13.413  0.0610 -0.8727  1.4245
   604G12c C02K11041  13.621   1.024  13.436  0.7661  0.9613  0.3679
   604G12c O00G11042  13.610   0.890  13.385  0.3830 -0.6348 -0.5508
   604G12c C02M11043  13.718   0.820  13.348  0.2189  0.1132  1.3165
   604G12c H01G11044  13.787   0.887  13.297  1.3029 -1.4364  0.7245
   604G12c H01F11045  13.710   0.747  13.268 -0.2788 -0.0006  1.4691
   604G12c H01E11046  13.771   0.781  13.435  0.5836 -7.0081 -1.7176
   604G12c C02J11047  13.735   1.050  13.510  0.0960 -0.4178  0.2622
   604G12c H01H11048  13.802   0.968  13.535 -2.3613 -4.0250 -4.1759
   604G12c C02I11049  13.776   1.180  13.550  0.7397  0.2063  1.8910
   604G12c C02N11050  13.914   1.185  13.601 -0.7227  0.7351  0.5298
   604G12c H01M11051  13.939   1.126  13.688  1.4099 -2.6670 -2.2315
   604G12c C02O11052  13.990   1.306  13.614 -0.4148 -0.9780  1.2677
   604G12c H01L11053  13.931   1.393  13.589  3.2981 -0.0574 -5.3615
   604G12c C02P11054  14.086   1.330  13.728 -0.9122  0.7450 -2.7607
   604G12c H01K11055  14.184   1.377  13.736 -0.0827 -1.6310  2.8767
   604G12c H01J11056  14.013   1.379  13.792  0.2008 -1.1460  0.0147
   604G12c O00H11057  14.120   1.213  13.792  0.3323 -0.5619 -1.2924
   604G12c H01I11058  14.139   1.224  13.884 10.6912  5.0928 -3.4108
   604G12c C02H11059  13.683   1.287  13.517 -1.5459  1.3625  1.3408
   604G12c H01C11060  13.711   1.383  13.558  2.8452 -1.1343  4.6500
   604G12c C02L11061  13.572   1.253  13.436  1.7258  0.2131  1.0173
   604G12c H01D11062  13.530   1.344  13.395 -4.2604 -3.0868 -0.6667
   604G12c C01311063  12.927   1.035  13.223  1.1000  0.7760  0.3590
   604G12c H00011064  12.972   0.965  13.292  0.7138 -1.1758 -1.3157
   604G12c C01411065  12.790   1.046  13.210  1.3915  1.2784 -0.1069
   604G12c C00F11066  12.703   0.959  13.281 -2.4963 -1.6218  0.0578
   604G12c C00H11067  12.521   1.083  13.159 -0.8393  0.4650  0.2372
   604G12c C00I11068  12.390   1.118  13.132 -0.0362  1.4705  1.2439
   604G12c C00J11069  12.358   1.190  13.002  1.7108  0.5077 -0.4109
   604G12c C00Z11070  12.810   1.200  12.875  0.8410  1.4084 -1.0563
   604G12c C00Y11071  12.896   1.209  12.772 -1.2377 -1.4635 -0.3811
   604G12c H00611072  13.002   1.186  12.779 -1.8436 -4.7859 -1.1720
   604G12c C00X11073  12.853   1.228  12.637 -0.2179 -0.1482  0.7297
   604G12c O00311074  12.951   1.198  12.541  1.8172 -1.0966  0.1423
   604G12c C01B11075  12.922   1.117  12.429  0.5643  0.9555 -0.0348
   604G12c H00911076  12.870   1.162  12.344  2.8827  2.9089 -0.4590
   604G12c H00811077  12.873   1.027  12.468 -0.6673 -0.3167 -4.3034
   604G12c H00711078  13.025   1.100  12.399 -0.6588 -2.4140 -2.6582
   604G12c C00W11079  12.722   1.272  12.614 -0.6140 -1.2215  0.4145
   604G12c O00411080  12.691   1.311  12.474  1.2007 -1.2311  0.5231
   604G12c C01C11081  12.554   1.318  12.453 -0.3184  0.6096  0.1031
   604G12c H00A11082  12.525   1.366  12.361  3.2213  0.4718 -1.1607
   604G12c C00P11083  12.451   1.264  12.543  0.1616  0.8757  0.6669
   604G12c C00O11084  12.330   1.203  12.476 -0.3595  0.6134 -1.2581
   604G12c C01D11085  12.344   1.161  12.342  1.9498  1.7488 -1.1504
   604G12c H00S11086  12.391   1.219  12.265 -1.4367  4.7712 -1.0761
   604G12c C01E11087  12.256   1.074  12.280  0.4371  1.5374 -0.1476
   604G12c O00811088  12.281   1.012  12.159  0.9955  0.9471 -0.1637
   604G12c C01V11089  12.390   1.050  12.081  1.9402  0.3605 -1.9938
   604G12c C01Z11090  12.311   1.104  11.957 -0.5104  0.4476  0.0016
   604G12c H00R11091  12.208   1.094  11.921  0.1039  2.2192 -2.3471
   604G12c H00Q11092  12.322   1.207  11.926  5.4061 -1.7031 -6.2505
   604G12c O00911093  12.377   1.029  11.852 -0.6338  0.1089  0.5088
   604G12c H00P11094  12.335   0.946  11.832  1.0267 -0.9393  1.2941
   604G12c C01W11095  12.516   1.043  12.110  0.4462  0.7983 -0.2480
   604G12c H00O11096  12.533   1.011  12.212  4.6829  2.3343 -0.3704
   604G12c C01X11097  12.640   1.093  12.051 -1.6646 -0.5787 -1.4359
   604G12c H00N11098  12.649   1.140  11.953 -3.2493 -0.4101 -1.5039
   604G12c H00M11099  12.654   1.182  12.113  0.3943 -0.6839 -1.7228
   604G12c C01Y11100  12.738   0.975  12.045  1.8367  2.3652 -0.7606
   604G12c C02D11101  12.874   0.986  12.036 -0.4941 -0.3814  0.1598
   604G12c H01911102  12.929   1.079  12.036 -0.6703 -0.2461  2.3131
   604G12c C02C11103  12.966   0.866  12.009 -0.8455  0.9982 -0.5463
   604G12c H01A11104  13.071   0.861  11.984 -1.7729  2.0628 -4.9842
   604G12c C02B11105  12.911   0.740  12.009  0.0631 -0.3887  0.7694
   604G12c O00E11106  12.965   0.642  11.945 -0.8301 -1.8838 -0.0779
   604G12c H01B11107  12.895   0.593  11.905 -0.8548 -0.9629 -1.1970
   604G12c C02F11108  12.773   0.730  12.019  1.2480  0.5492 -2.0656
   604G12c O00F11109  12.702   0.613  11.989 -0.3894  1.0296 -0.9211
   604G12c C02G11110  12.611   0.600  12.102 -0.3542 -0.8323 -0.0253
   604G12c H01711111  12.524   0.662  12.080  3.9567  4.5265 -3.3259
   604G12c H01611112  12.677   0.618  12.187  0.1440 -3.2780  0.1186
   604G12c H01511113  12.591   0.495  12.124 -2.8142  0.4921  4.9919
   604G12c C02E11114  12.693   0.846  12.030  1.5952 -0.9623 -0.8861
   604G12c H01811115  12.589   0.837  12.004  1.8657 -4.7264 -0.9653
   604G12c C01F11116  12.139   1.023  12.354 -0.4578 -1.2462 -0.5439
   604G12c C01G11117  12.054   0.914  12.319 -2.3359  1.3164 -1.7012
   604G12c H00L11118  12.063   0.851  12.232 -0.1429  0.3517 -0.8119
   604G12c C01H11119  11.985   0.864  12.434 -0.7282 -0.1428  0.3206
   604G12c H00B11120  11.960   0.759  12.429 -0.6816 -0.3022  3.0488
   604G12c C01I11121  11.981   0.935  12.567  0.7998 -0.2938 -0.1802
   604G12c C01U11122  12.109   1.085  12.479 -1.4324  0.5207  0.2739
   604G12c C00S11123  12.451   1.215  12.914  0.0474 -0.0998  0.9918
   604G12c C00K11124  12.250   1.145  12.922  1.0259  0.3513  0.0072
   604G12c C00N11125  12.206   1.172  12.541 -2.1282 -0.1252  0.4796
   604G12c C00011126  12.014   1.063  12.574 -1.9239  1.4388  1.8857
   604G12c C01J11127  11.986   0.888  12.703  0.7153 -0.0889 -0.9314
   604G12c C01K11128  11.926   0.771  12.742  0.6772 -1.5156  0.1233
   604G12c C01P11129  11.842   0.677  12.680  0.3473 -0.9234  0.7181
   604G12c C01Q11130  11.774   0.686  12.556 -0.0506  0.2588  0.2401
   604G12c H00G11131  11.724   0.779  12.531 -1.6267 -0.6064  0.1232
   604G12c C01R11132  11.769   0.574  12.477 -2.1727 -0.6427 -0.7320
   604G12c H00F11133  11.840   0.493  12.480  3.1805  3.7504  0.8902
   604G12c C01S11134  11.688   0.575  12.354 -1.2092 -2.2607  0.3688
   604G12c H00E11135  11.713   0.509  12.270  5.2393  2.4862 -1.8088
   604G12c H00D11136  11.582   0.556  12.369 -2.4435  1.9470 -2.1643
   604G12c O00511137  11.655   0.691  12.297  0.0599  0.9203  0.1723
   604G12c H00C11138  11.589   0.677  12.231  1.3384 -0.1250 -0.9316
   604G12c C01O11139  11.821   0.547  12.742 -1.5082  1.4710  0.8440
   604G12c H00H11140  11.786   0.459  12.690  0.5830  4.1779 -5.7593
   604G12c C01N11141  11.855   0.519  12.876 -1.2820 -0.4612 -1.5192
   604G12c O00611142  11.828   0.401  12.939  1.2603  2.2420 -1.8904
   604G12c C01T11143  11.757   0.292  12.879  0.0082  1.4895 -1.1642
   604G12c H00K11144  11.659   0.312  12.835 -0.6426  3.3796  1.0182
   604G12c H00J11145  11.806   0.235  12.801 -1.3923  1.5434 -2.0860
   604G12c H00I11146  11.771   0.209  12.948  4.5325  5.7783  3.5737
   604G12c C01M11147  11.930   0.619  12.946 -0.2174  1.8132  1.0079
   604G12c C02011148  12.184   1.042  12.993 -0.3809 -0.0698  0.6668
   604G12c C02111149  12.188   1.013  13.132  1.7422 -1.0816  0.7133
   604G12c C01L11150  11.966   0.740  12.872  0.3651 -1.2120 -0.4481
   604G12c O00711151  11.965   0.586  13.073 -0.0692 -0.2410  0.8129
   604G12c C02211152  12.144   0.894  13.174 -0.5517 -1.2367 -0.8309
   604G12c C02311153  12.291   1.065  13.204  0.0275  0.0995 -0.1557
   604G12c C00G11154  12.565   0.989  13.255 -0.1437 -0.2295  0.2157
   604G12c C00E11155  12.739   0.880  13.397  0.2514 -0.1621 -1.6203
   604G12c O00A11156  12.867   0.881  13.463 -0.1599  0.7118  1.3334
   604G12c C02411157  12.870   0.972  13.566  1.5470 -0.6780  0.9166
   604G12c H00V11158  12.811   1.058  13.534  3.7510 -0.9768 -4.5989
   604G12c H00U11159  12.972   0.999  13.592  2.0394 -1.1073 -0.5275
   604G12c H00T11160  12.844   0.926  13.661  1.1500  0.7811  1.5335
   614G12c C00D11161   0.086   9.850   6.948 -1.3778  0.0310  2.9197
   614G12c O00B11162   0.204   9.810   6.860 -0.4881  0.1433  0.0038
   614G12c C02511163   0.269   9.693   6.868 -1.3451 -0.3332  0.9751
   614G12c C02611164   0.408   9.716   6.928 -0.3856 -2.4654  0.0152
   614G12c H00Y11165   0.493   9.741   6.865 -0.8808 -1.2584 -0.1985
   614G12c H00X11166   0.418   9.611   6.953  0.2273 -3.3274 -3.6251
   614G12c O00C11167   0.411   9.819   7.024  0.3123  0.9792  0.0681
   614G12c H00W11168   0.494   9.779   7.047  0.5177  1.8863  0.9480
   614G12c C02711169   0.238   9.591   6.797  2.2076 -0.3087  0.1702
   614G12c O00D11170   0.116   9.603   6.739  0.3351 -1.8251  0.2090
   614G12c H00Z11171   0.073   9.522   6.715  4.5332 -4.3435  0.6193
   614G12c C02811172   0.294   9.465   6.827  0.8402  0.3501 -0.7161
   614G12c C02911173   0.297   9.385   6.940 -0.5645  0.6098 -0.2357
   614G12c H01011174   0.306   9.449   7.027 -4.1028  4.1854 -2.3818
   614G12c C02T11175   0.350   9.250   6.956  0.5266  0.9632 -0.0664
   614G12c H01O11176   0.320   9.215   7.054  6.5651  3.9093  3.1111
   614G12c C02S11177   0.418   9.200   6.839  1.3478 -1.7271  2.6841
   614G12c O00J11178   0.494   9.085   6.831 -2.5087 -0.0667 -0.9256
   614G12c H01P11179   0.536   9.109   6.750 -6.9154 -5.2607 -5.1140
   614G12c C02R11180   0.413   9.278   6.716  1.5723  1.4346  1.5588
   614G12c O00I11181   0.453   9.229   6.593 -0.9644 -0.3974  0.8109
   614G12c C02Q11182   0.589   9.219   6.556  0.2166 -0.9615 -0.2025
   614G12c H01N11183   0.638   9.181   6.646 -1.3094 -0.5185  0.8371
   614G12c H01R11184   0.639   9.314   6.535  4.9084 -3.2038  0.1969
   614G12c H01Q11185   0.601   9.139   6.483 -5.8493  1.1758 -3.9182
   614G12c C02A11186   0.341   9.410   6.709 -0.0064 -0.5045  0.9491
   614G12c H01111187   0.323   9.462   6.616  1.2847 -3.7517 -1.2015
   614G12c C00C11188   0.014   9.767   7.028  0.5910  0.8783 -0.2624
   614G12c H01211189   0.069   9.681   7.061  0.5183  2.0192  3.0622
   614G12c C00B11190  -0.104   9.803   7.096  0.1371 -0.8661  0.4794
   614G12c C00A11191  -0.172   9.718   7.184 -1.2037  0.5467 -0.3248
   614G12c C00911192  -0.174   9.583   7.220 -0.0341 -0.4293 -0.2938
   614G12c C00811193  -0.099   9.472   7.189  0.4517  0.0379 -1.0694
   614G12c H01311194   0.004   9.476   7.157  1.2435 -4.0316  0.6266
   614G12c C00711195  -0.156   9.344   7.235  0.1471 -2.7286  1.1325
   614G12c H01411196  -0.070   9.280   7.243  2.5183  0.8642  6.6918
   614G12c C00611197  -0.290   9.333   7.264  0.5572 -1.2426 -0.3152
   614G12c C00511198  -0.369   9.444   7.294  1.1605 -0.0018 -0.4364
   614G12c C00411199  -0.505   9.452   7.335  0.6085  1.1028 -1.6503
   614G12c C00311200  -0.572   9.578   7.356 -0.1247  0.1761  1.0510
   614G12c C00211201  -0.727   9.577   7.354  0.7402 -1.3281 -2.0900
   614G12c C00111202  -0.814   9.683   7.355 -0.1598 -0.7339 -1.5930
   614G12c C00M11203  -0.830   9.788   7.259 -0.3951 -0.8829  0.2275
   614G12c C00L11204  -0.709   9.854   7.222 -0.7092 -1.5010  1.0391
   614G12c C00R11205  -0.710   9.955   7.114 -1.8782 -0.4266 -0.2529
   614G12c C00Q11206  -0.795  10.000   7.007 -0.8022 -0.3017 -0.2760
   614G12c C00V11207  -0.735  10.104   6.930  1.2840 -0.3519  1.1139
   614G12c C00U11208  -0.600  10.125   6.916 -0.0782  1.0421 -1.2837
   614G12c C00T11209  -0.513  10.059   7.005 -0.1434 -0.8255  0.8069
   614G12c C01611210  -0.379  10.050   6.994 -0.5962 -0.0552 -0.0263
   614G12c C01511211  -0.323  10.104   6.883  0.0519 -0.2379  0.3775
   614G12c C01011212  -0.405  10.197   6.816 -0.0050 -1.0566 -0.5322
   614G12c C01111213  -0.344  10.279   6.716 -1.1285 -1.4041  0.8945
   614G12c H00511214  -0.380  10.300   6.616  4.6531  7.9775  0.1614
   614G12c C01211215  -0.196  10.275   6.711 -0.0802 -0.2164  0.9547
   614G12c C01711216  -0.144  10.336   6.593  1.5678  1.2987 -0.3843
   614G12c O00211217  -0.075  10.451   6.578  1.3144 -0.2513  0.1781
   614G12c H00411218  -0.029  10.413   6.504  3.7013 -3.2334  3.0707
   614G12c C01811219  -0.125  10.263   6.474 -0.2198 -0.8955  0.1369
   614G12c O00111220  -0.081  10.330   6.369 -0.9148 -0.5814  1.1790
   614G12c H00311221  -0.118  10.297   6.288  1.8571  0.4513 -0.5890
   614G12c C01911222  -0.173  10.138   6.435 -0.5105  1.4212 -0.8254
   614G12c H00211223  -0.104  10.073   6.381 -1.1152  1.1723 -1.3141
   614G12c H00111224  -0.215  10.084   6.521 -0.4702  4.0755  0.9056
   614G12c O00011225  -0.276  10.169   6.344  1.1251 -0.8510 -0.1618
   614G12c C01A11226  -0.307  10.087   6.237  0.8940 -0.4567  0.7217
   614G12c C02K11227  -0.324   9.952   6.249 -0.5385 -0.5985  1.6530
   614G12c O00G11228  -0.305   9.892   6.373 -0.1387  0.4234  0.5292
   614G12c C02M11229  -0.406   9.918   6.476  1.9393 -0.9921  0.4580
   614G12c H01G11230  -0.363   9.884   6.571  0.3922 -0.5642  1.3196
   614G12c H01F11231  -0.491   9.855   6.451  3.6933 -1.3891 -5.2107
   614G12c H01E11232  -0.435  10.022   6.461 -0.8871 -1.8881 -0.4852
   614G12c C02J11233  -0.365   9.878   6.131 -1.4152 -1.2288  0.3315
   614G12c H01H11234  -0.376   9.771   6.142 -1.2118 -1.4110 -1.1248
   614G12c C02I11235  -0.381   9.944   6.005 -0.6290  0.1446  0.4260
   614G12c C02N11236  -0.422   9.860   5.895 -0.1442 -0.1217  0.3939
   614G12c H01M11237  -0.378   9.762   5.901 -2.4015 -1.5145 -3.8088
   614G12c C02O11238  -0.521   9.874   5.794  0.7125 -1.8125  0.3234
   614G12c H01L11239  -0.567   9.970   5.810  2.9108 -0.7693  0.6402
   614G12c C02P11240  -0.525   9.743   5.708  1.2544 -0.1931  2.8241
   614G12c H01K11241  -0.548   9.763   5.603 -1.3199 -0.9048  3.2267
   614G12c H01J11242  -0.423   9.707   5.720  0.8569 -3.6536 -2.4350
   614G12c O00H11243  -0.635   9.674   5.756  2.2680 -1.7665 -0.3075
   614G12c H01I11244  -0.708   9.677   5.696 -1.2965  3.6876  3.7681
   614G12c C02H11245  -0.378  10.084   6.003 -0.1007 -0.2389  0.1182
   614G12c H01C11246  -0.427  10.129   5.918 -3.4918  1.5211  2.8679
   614G12c C02L11247  -0.361  10.149   6.123 -0.2318  0.8528  0.9965
   614G12c H01D11248  -0.355  10.255   6.108  4.6718  0.1422 -3.3515
   614G12c C01311249  -0.115  10.207   6.799 -0.0591  0.3166 -1.3051
   614G12c H00011250  -0.012  10.229   6.821 -1.9419  3.2270  6.1177
   614G12c C01411251  -0.183  10.114   6.888 -0.4662  1.3787 -0.1470
   614G12c C00F11252  -0.116   9.999   6.938  0.1417  0.4920 -1.7222
   614G12c C00H11253  -0.303   9.959   7.071  1.1989 -0.9443 -0.9323
   614G12c C00I11254  -0.352   9.885   7.170 -0.5288  0.1229  2.0143
   614G12c C00J11255  -0.488   9.916   7.191  0.6037 -0.8539 -1.6016
   614G12c C00Z11256  -0.547  10.199   6.816 -1.2599 -2.5218  2.0035
   614G12c C00Y11257  -0.630  10.281   6.736 -1.4498  0.0977  0.3190
   614G12c H00611258  -0.576  10.350   6.673 -0.6470  0.8908  1.8316
   614G12c C00X11259  -0.763  10.277   6.763 -1.2215  1.3442  0.0560
   614G12c O00311260  -0.844  10.357   6.691  1.0151 -0.5161  0.4063
   614G12c C01B11261  -0.827  10.497   6.712 -0.6721 -0.9734  0.4451
   614G12c H00911262  -0.843  10.507   6.820 -5.4480  1.7684 -0.3576
   614G12c H00811263  -0.723  10.528   6.708 -0.9648 -0.0953 -0.3907
   614G12c H00711264  -0.902  10.563   6.667  1.0216  1.7900  1.5659
   614G12c C00W11265  -0.816  10.180   6.851  0.8994  0.5212  0.3877
   614G12c O00411266  -0.946  10.142   6.830  0.5384  0.5031  0.1928
   614G12c C01C11267  -1.000  10.036   6.894  2.1573 -0.4033  0.2959
   614G12c H00A11268  -1.038   9.971   6.817  1.8964  2.4068 -2.0549
   614G12c C00P11269  -0.927   9.957   6.987 -1.0272 -0.2183 -0.5383
   614G12c C00O11270  -0.990   9.844   7.051  0.5012  0.4651 -1.4925
   614G12c C01D11271  -1.093   9.781   6.995 -0.6771  0.2099  0.9471
   614G12c H00S11272  -1.165   9.840   6.940  1.7452  5.5226  3.0520
   614G12c C01E11273  -1.136   9.648   7.033  1.0709  0.2065 -0.2071
   614G12c O00811274  -1.232   9.559   6.966  0.5019  0.6037 -0.8695
   614G12c C01V11275  -1.235   9.547   6.816  0.9686  0.5282  0.2412
   614G12c C01Z11276  -1.370   9.568   6.751  0.4607 -0.0946  1.1659
   614G12c H00R11277  -1.369   9.674   6.723 -3.0804  1.1021  5.1176
   614G12c H00Q11278  -1.411   9.497   6.679 -2.1921  3.2492 -0.7840
   614G12c O00911279  -1.490   9.580   6.836  0.9537  0.2927 -2.7887
   614G12c H00P11280  -1.467   9.654   6.890 -3.6063 -1.7713  2.4707
   614G12c C01W11281  -1.138   9.572   6.734  0.3754  0.0586 -0.6909
   614G12c H00O11282  -1.031   9.577   6.744 -0.0626  4.7724  3.4310
   614G12c C01X11283  -1.152   9.561   6.584 -0.0703 -1.3907  0.8810
   614G12c H00N11284  -1.085   9.482   6.549 -2.1253 -2.1915 -1.3889
   614G12c H00M11285  -1.256   9.561   6.551 -0.5039  1.2773  2.1325
   614G12c C01Y11286  -1.107   9.687   6.511  0.6446  0.8279 -1.0369
   614G12c C02D11287  -1.202   9.799   6.487  1.0701 -0.3641 -0.7890
   614G12c H01911288  -1.299   9.812   6.532  2.1862 -2.5309  2.4442
   614G12c C02C11289  -1.142   9.919   6.434 -0.6869  0.0725  0.0986
   614G12c H01A11290  -1.189  10.015   6.418  1.0765  1.0848  0.8553
   614G12c C02B11291  -1.007   9.929   6.409  0.5679 -1.1618  1.7024
   614G12c O00E11292  -0.961  10.052   6.362 -2.0127 -0.0655 -1.6327
   614G12c H01B11293  -0.896  10.010   6.307  1.2810 -0.0597  2.0607
   614G12c C02F11294  -0.908   9.812   6.417  1.1061  0.4069  0.7514
   614G12c O00F11295  -0.764   9.804   6.370 -1.1917  0.8727 -0.6081
   614G12c C02G11296  -0.723   9.818   6.240 -0.8616  0.9834  1.5366
   614G12c H01711297  -0.658   9.899   6.205  1.2161 -2.4142 -2.9938
   614G12c H01611298  -0.681   9.723   6.208  3.4141  3.4658 -0.7965
   614G12c H01511299  -0.814   9.837   6.183  0.1232  2.4206  0.4038
   614G12c C02E11300  -0.962   9.689   6.476 -0.4380  0.4099 -0.0688
   614G12c H01811301  -0.911   9.594   6.476 -5.6373 -2.7747 -5.3678
   614G12c C01F11302  -1.077   9.589   7.146  0.8277  0.5395  0.3911
   614G12c C01G11303  -1.086   9.453   7.165  1.5660  2.7807  0.2739
   614G12c H00L11304  -1.165   9.398   7.116  0.2874  2.1878  2.9243
   614G12c C01H11305  -0.999   9.395   7.264 -1.8998  0.2920  0.5930
   614G12c H00B11306  -1.012   9.289   7.255 -3.1913  0.6791 -2.4652
   614G12c C01I11307  -0.918   9.478   7.334 -0.0170 -2.2216  0.7700
   614G12c C01U11308  -0.989   9.658   7.215 -0.6578 -0.1017 -0.4395
   614G12c C00S11309  -0.568   9.983   7.095 -0.9005 -0.8406 -1.2532
   614G12c C00K11310  -0.573   9.822   7.252 -1.1251  0.6453  1.5751
   614G12c C00N11311  -0.949   9.782   7.179 -0.0034 -0.4022  2.3547
   614G12c C00011312  -0.936   9.613   7.338  1.0814  1.7582  0.2584
   614G12c C01J11313  -0.786   9.456   7.364 -2.6052  0.2645 -0.5588
   614G12c C01K11314  -0.703   9.324   7.365  0.1832  0.4006 -0.7597
   614G12c C01P11315  -0.738   9.178   7.390  0.4760 -0.4844 -0.9622
   614G12c C01Q11316  -0.851   9.153   7.474  0.5319  0.6748  0.0381
   614G12c H00G11317  -0.846   9.179   7.578 -0.8358 -1.7776  0.7464
   614G12c C01R11318  -0.973   9.110   7.423  1.4228 -2.6619  0.7739
   614G12c H00F11319  -1.056   9.113   7.492  0.8738  1.4502  0.0500
   614G12c C01S11320  -0.974   9.021   7.287 -1.1637  0.5440 -0.3938
   614G12c H00E11321  -0.956   9.102   7.217  1.4477  2.0399  1.9366
   614G12c H00D11322  -0.897   8.944   7.278  1.3006  3.1560 -2.9544
   614G12c O00511323  -1.114   8.994   7.286  0.6411 -0.5755  0.6358
   614G12c H00C11324  -1.156   9.037   7.212 -0.1357  1.6763  2.3060
   614G12c C01O11325  -0.668   9.066   7.375  0.0244 -0.8021  1.2295
   614G12c H00H11326  -0.713   8.970   7.391  1.3292 -2.5505 -4.4368
   614G12c C01N11327  -0.540   9.085   7.323  0.3633 -0.8630 -0.1118
   614G12c O00611328  -0.452   8.974   7.313  0.2209  1.7332 -0.8213
   614G12c C01T11329  -0.431   8.934   7.190 -0.3589 -0.0797 -0.0577
   614G12c H00K11330  -0.538   8.923   7.172  0.0905  0.3252 -3.3147
   614G12c H00J11331  -0.377   8.840   7.194 -3.4509 -1.8814  0.3920
   614G12c H00I11332  -0.368   9.009   7.140 -2.2614  5.6500  5.4133
   614G12c C01M11333  -0.490   9.218   7.303  2.4922 -0.6057 -2.2997
   614G12c C02011334  -0.502   9.699   7.305  1.4237 -0.4047 -0.9543
   614G12c C02111335  -0.371   9.688   7.322  0.4434 -1.2526  1.0321
   614G12c C01L11336  -0.564   9.336   7.336 -0.4872  0.1661  1.2742
   614G12c O00711337  -0.347   9.220   7.273  0.9886  0.0290 -0.1481
   614G12c C02211338  -0.314   9.572   7.276 -1.1486 -0.7901  0.6700
   614G12c C02311339  -0.289   9.779   7.235 -0.4939 -0.0700 -0.5246
   614G12c C00G11340  -0.172   9.916   7.038  1.2626  0.5792 -0.1256
   614G12c C00E11341   0.001   9.951   6.877 -0.5222  0.2989 -0.0174
   614G12c O00A11342   0.046  10.000   6.763 -1.3886 -1.1296  0.1281
   614G12c C02411343   0.008   9.892   6.656  1.0609 -0.2271 -0.7124
   614G12c H00V11344  -0.078   9.832   6.688  2.7564 -0.2430  4.2910
   614G12c H00U11345  -0.044   9.958   6.587  0.3658 -0.5353 -0.4901
   614G12c H00T11346   0.081   9.858   6.582 -0.5191  0.8378 -2.8031
   624G12c C00D11347   2.146   2.660  13.040 -1.5110 -0.2624  0.0605
   624G12c O00B11348   2.220   2.680  13.156 -0.2830  0.3152 -0.1348
   624G12c C02511349   2.320   2.592  13.204  1.0673 -0.5521  0.5766
   624G12c C02611350   2.457   2.647  13.152  0.5130  0.0604 -0.2135
   624G12c H00Y11351   2.443   2.751  13.123  2.9100 -0.4479 -3.4084
   624G12c H00X11352   2.537   2.638  13.227  1.2406 -0.1321 -1.0056
   624G12c O00C11353   2.501   2.564  13.049  0.3086  0.1906 -0.1750
   624G12c H00W11354   2.529   2.477  13.071  1.3063 -1.4798 -6.7544
   624G12c C02711355   2.257   2.509  13.283 -1.2575 -1.0389 -1.3119
   624G12c O00D11356   2.125   2.530  13.311 -0.2170  1.4209 -0.1788
   624G12c H00Z11357   2.128   2.584  13.234 -0.2162  4.0199  1.5482
   624G12c C02811358   2.330   2.406  13.348  2.1108  0.2026 -1.3309
   624G12c C02911359   2.267   2.327  13.452 -0.4607  0.5135  0.8542
   624G12c H01011360   2.163   2.331  13.481 -0.3892  6.9070  0.9659
   624G12c C02T11361   2.345   2.228  13.509 -0.8364  0.0569  0.6500
   624G12c H01O11362   2.336   2.149  13.582  7.7074 -4.1239 -2.2578
   624G12c C02S11363   2.479   2.193  13.463  0.0567  0.6388  0.3488
   624G12c O00J11364   2.549   2.081  13.504  0.4117  0.3223 -0.9505
   624G12c H01P11365   2.637   2.081  13.538  0.6876 -1.7662 -1.5618
   624G12c C02R11366   2.549   2.284  13.389 -0.1733  0.1446 -0.4413
   624G12c O00I11367   2.680   2.253  13.371 -0.7238  0.6412  0.0362
   624G12c C02Q11368   2.755   2.324  13.273 -0.0260 -2.8852 -1.2699
   624G12c H01N11369   2.771   2.236  13.210 -7.3097 -5.1910 -0.3621
   624G12c H01R11370   2.863   2.311  13.287  1.2507 -0.4091 -7.2367
   624G12c H01Q11371   2.700   2.365  13.189  1.3639 -0.3150 -0.9617
   624G12c C02A11372   2.475   2.391  13.335 -0.9819 -1.1937  0.1988
   624G12c H01111373   2.525   2.439  13.252 -0.4985 -0.0366  1.1398
   624G12c C00C11374   2.183   2.558  12.957 -1.8966 -0.3037  0.1257
   624G12c H01211375   2.262   2.485  12.964 -2.8825 -1.6078 -1.8508
   624G12c C00B11376   2.119   2.567  12.822  0.4406  0.0196  1.2727
   624G12c C00A11377   2.152   2.506  12.705  0.3649  0.5083  0.9530
   624G12c C00911378   2.280   2.483  12.645 -0.0734 -0.3231  0.8568
   624G12c C00811379   2.414   2.507  12.712  1.2737 -0.7110  0.6014
   624G12c H01311380   2.458   2.502  12.810  3.0514 -6.3909 -0.3120
   624G12c C00711381   2.523   2.504  12.614 -1.0239  0.1294  0.5221
   624G12c H01411382   2.631   2.509  12.622 -1.2314 -0.1081  4.3373
   624G12c C00611383   2.495   2.486  12.475  0.4589  0.6218  1.2613
   624G12c C00511384   2.376   2.460  12.420 -0.2667  0.1997 -0.9684
   624G12c C00411385   2.348   2.468  12.279 -0.7638  0.8554 -0.3436
   624G12c C00311386   2.207   2.484  12.244 -0.6371 -0.0413 -0.8495
   624G12c C00211387   2.168   2.498  12.105 -0.4982  0.3075  0.5136
   624G12c C00111388   2.052   2.535  12.024  1.7605  0.2406  0.1750
   624G12c C00M11389   1.984   2.654  12.084 -0.2630  0.2446 -0.3180
   624G12c C00L11390   1.928   2.640  12.206  1.8155  1.2764  0.5913
   624G12c C00R11391   1.858   2.752  12.281 -0.6917 -1.0042  1.2872
   624G12c C00Q11392   1.819   2.890  12.245  0.7517  2.4743 -0.1750
   624G12c C00V11393   1.732   2.952  12.343  0.0176  1.3789  0.6848
   624G12c C00U11394   1.741   2.903  12.481  1.8232 -0.5143  0.9967
   624G12c C00T11395   1.823   2.804  12.519  0.3597 -0.6526 -1.0721
   624G12c C01611396   1.854   2.777  12.650 -0.8396  1.8739 -2.1186
   624G12c C01511397   1.806   2.854  12.753  0.9143 -0.8223 -1.7643
   624G12c C01011398   1.711   2.952  12.715  0.2189  0.9218 -1.6798
   624G12c C01111399   1.624   2.999  12.816 -1.5325  1.3253  0.5189
   624G12c H00511400   1.537   3.054  12.782 -1.9360  0.6830  0.5120
   624G12c C01211401   1.657   2.966  12.956 -1.3943 -1.5770  0.0777
   624G12c C01711402   1.573   3.030  13.072 -1.1294 -0.2524  1.2889
   624G12c O00211403   1.460   2.970  13.126  0.6834  0.0256  1.3316
   624G12c H00411404   1.443   2.883  13.094 -4.0589  3.8279 -8.4088
   624G12c C01811405   1.612   3.160  13.105  0.1620  0.8292 -0.1224
   624G12c O00111406   1.710   3.244  13.047 -0.5354  0.7199  0.1992
   624G12c H00311407   1.715   3.206  12.961 -1.2636  1.2853 -0.0950
   624G12c C01911408   1.549   3.249  13.190 -0.8256 -0.3649 -0.2273
   624G12c H00211409   1.469   3.191  13.236 -1.8195 -0.4635 -2.0197
   624G12c H00111410   1.613   3.307  13.256 -0.7169 -3.0405  2.1234
   624G12c O00011411   1.464   3.344  13.119 -0.0499  0.4023  0.2632
   624G12c C01A11412   1.375   3.415  13.200  0.6095  1.1819  2.3452
   624G12c C02K11413   1.356   3.549  13.172  0.8161  1.1353  1.8318
   624G12c O00G11414   1.443   3.603  13.080 -0.3199 -0.1868  0.5409
   624G12c C02M11415   1.397   3.678  12.963  0.2659  0.4849  1.4062
   624G12c H01G11416   1.345   3.606  12.901  2.5677 -0.0480  0.0283
   624G12c H01F11417   1.475   3.714  12.895  2.0766 -0.4758  2.9127
   624G12c H01E11418   1.341   3.768  12.988 -3.0255 -2.0023  3.2688
   624G12c C02J11419   1.285   3.637  13.260  1.9809 -1.2078 -0.4102
   624G12c H01H11420   1.259   3.742  13.255 -7.1680 -2.8399  2.9089
   624G12c C02I11421   1.226   3.582  13.389  0.9624 -1.7631  0.5211
   624G12c C02N11422   1.170   3.685  13.463 -0.4760 -1.6891  1.1360
   624G12c H01M11423   1.219   3.779  13.486  3.9086 -2.9575 -2.2547
   624G12c C02O11424   1.061   3.666  13.531 -0.9848 -1.5522  0.0250
   624G12c H01L11425   1.006   3.581  13.492 -1.4019  0.0885 -3.1805
   624G12c C02P11426   1.011   3.757  13.627  0.2915 -1.3536  0.1064
   624G12c H01K11427   1.017   3.853  13.576  6.1274 -4.3135 -5.5079
   624G12c H01J11428   0.908   3.726  13.644  0.2401 -0.2378  2.0648
   624G12c O00H11429   1.095   3.733  13.737 -1.4474 -1.1243  0.4265
   624G12c H01I11430   1.169   3.674  13.736  2.5543  3.5352 -0.4189
   624G12c C02H11431   1.266   3.455  13.418 -0.6299  2.3152 -0.3846
   624G12c H01C11432   1.230   3.426  13.516 -1.4012 -5.0055 -2.5337
   624G12c C02L11433   1.330   3.373  13.329  0.7986 -0.0921 -0.7634
   624G12c H01D11434   1.347   3.271  13.358  5.1602  0.9456  0.5795
   624G12c C01311435   1.782   2.900  12.974 -1.0661 -1.5862 -0.3740
   624G12c H00011436   1.767   2.883  13.080 -4.9526 -5.4640 -1.3969
   624G12c C01411437   1.833   2.811  12.882  0.6395 -1.5307 -0.5352
   624G12c C00F11438   1.950   2.735  12.903  1.2190  0.2752  0.7991
   624G12c C00H11439   1.941   2.663  12.673  0.5505 -0.8677 -1.0050
   624G12c C00I11440   1.961   2.581  12.560  0.1302  0.9190 -0.6507
   624G12c C00J11441   1.910   2.616  12.428  0.3442  1.5685 -0.2459
   624G12c C00Z11442   1.701   3.000  12.575  0.0491  0.4390 -0.0211
   624G12c C00Y11443   1.645   3.128  12.551 -0.2718 -1.7179 -1.3109
   624G12c H00611444   1.613   3.204  12.621 -1.6074  0.3078 -4.0124
   624G12c C00X11445   1.626   3.163  12.418 -0.6217 -1.3617  0.7501
   624G12c O00311446   1.555   3.271  12.382 -1.4156  0.3938 -1.3415
   624G12c C01B11447   1.424   3.264  12.424 -0.1358  1.2462  0.0492
   624G12c H00911448   1.372   3.299  12.335  4.5178 -5.8896 -6.1188
   624G12c H00811449   1.402   3.307  12.522  2.2595  5.7484 -1.2620
   624G12c H00711450   1.391   3.160  12.412 -2.5031  2.1630 -1.9557
   624G12c C00W11451   1.682   3.079  12.323  0.4720 -0.0918  0.0023
   624G12c O00411452   1.706   3.144  12.209 -0.1391 -0.0993  0.1089
   624G12c C01C11453   1.808   3.094  12.133 -0.7437  0.1844  1.0720
   624G12c H00A11454   1.763   3.109  12.036 -2.5790 -3.3206  1.3328
   624G12c C00P11455   1.854   2.962  12.133  1.0787  0.7969 -0.8815
   624G12c C00O11456   1.918   2.892  12.009  2.3486 -0.8507 -0.5902
   624G12c C01D11457   1.943   2.968  11.894  0.1600 -1.4952  1.6744
   624G12c H00S11458   1.882   3.055  11.872  3.6608  0.3063 -1.6019
   624G12c C01E11459   2.033   2.938  11.796 -0.3045  0.7343  0.8462
   624G12c O00811460   2.070   3.011  11.685  0.6995  1.1649  0.7569
   624G12c C01V11461   1.971   3.111  11.662  0.0357 -0.1931 -0.2994
   624G12c C01Z11462   2.012   3.255  11.696 -0.7373  0.6995 -0.5006
   624G12c H00R11463   2.001   3.331  11.620  0.4763  4.0837  2.5642
   624G12c H00Q11464   2.121   3.249  11.693 -0.5359  1.1070  3.3052
   624G12c O00911465   1.959   3.282  11.834 -0.7895  0.5108 -0.1524
   624G12c H00P11466   2.033   3.309  11.885 -0.2440 -1.8009  0.3451
   624G12c C01W11467   1.846   3.089  11.595 -0.2297  0.7720 -0.1148
   624G12c H00O11468   1.793   2.997  11.574 -4.1582  2.2828  2.4838
   624G12c C01X11469   1.756   3.193  11.540  0.7155 -0.2511  0.2223
   624G12c H00N11470   1.813   3.276  11.497  3.3791 -0.4000  3.2464
   624G12c H00M11471   1.717   3.143  11.452  2.5258  1.1733 -1.4658
   624G12c C01Y11472   1.663   3.246  11.647 -0.0707 -0.9562  0.4867
   624G12c C02D11473   1.708   3.354  11.720 -0.6478  1.4538  0.6013
   624G12c H01911474   1.787   3.414  11.679 -3.2605  3.1741 -2.1221
   624G12c C02C11475   1.621   3.382  11.843  1.4871  0.5862 -1.4445
   624G12c H01A11476   1.621   3.480  11.890 -1.0481 -1.9990  4.4899
   624G12c C02B11477   1.487   3.324  11.842  1.2348  2.7330 -0.8591
   624G12c O00E11478   1.394   3.375  11.943 -0.4209  0.8130  1.1047
   624G12c H01B11479   1.311   3.378  11.898  0.4117 -5.8329 -1.4440
   624G12c C02F11480   1.443   3.209  11.767 -1.3570 -0.3667  0.7391
   624G12c O00F11481   1.310   3.181  11.776 -1.5812  0.8488  0.2795
   624G12c C02G11482   1.290   3.048  11.801 -1.1484 -0.5577  0.5566
   624G12c H01711483   1.303   2.979  11.719 -0.1238 -2.7538  2.5186
   624G12c H01611484   1.352   3.006  11.880 -3.7524 -2.5665  1.6261
   624G12c H01511485   1.182   3.043  11.817 -1.3069  2.9174  0.9792
   624G12c C02E11486   1.529   3.185  11.658  0.7129  0.5013 -0.4712
   624G12c H01811487   1.493   3.100  11.601 -1.6636 -2.5751  5.2260
   624G12c C01F11488   2.108   2.812  11.816  0.1514  0.0044  0.0225
   624G12c C01G11489   2.235   2.772  11.754 -1.3048  0.8913 -0.8349
   624G12c H00L11490   2.305   2.842  11.709  4.3855 -3.7101  0.3600
   624G12c C01H11491   2.293   2.660  11.806 -0.6633  1.0123 -0.4711
   624G12c H00B11492   2.398   2.660  11.783 -1.2477  1.7725 -3.3534
   624G12c C01I11493   2.229   2.569  11.891 -2.2321  0.2049  0.3640
   624G12c C01U11494   2.048   2.711  11.894  0.5371 -0.5217  1.4105
   624G12c C00S11495   1.852   2.727  12.413 -1.2044 -1.8380 -1.1456
   624G12c C00K11496   1.986   2.576  12.316  0.3737 -0.0946  1.6881
   624G12c C00N11497   1.968   2.758  12.000 -0.1192  0.4920 -0.8910
   624G12c C00011498   2.095   2.582  11.897 -1.6313 -0.9005 -0.9653
   624G12c C01J11499   2.281   2.500  12.012  0.3108  1.9465  1.8184
   624G12c C01K11500   2.420   2.473  12.050 -0.1867 -1.6769  1.3444
   624G12c C01P11501   2.529   2.436  11.962 -1.2258  1.3552  0.6431
   624G12c C01Q11502   2.500   2.413  11.826 -2.2662  1.8623  1.3983
   624G12c H00G11503   2.430   2.332  11.807  0.0322 -0.0810  1.0129
   624G12c C01R11504   2.557   2.464  11.726 -0.0929  0.0062  0.0744
   624G12c H00F11505   2.615   2.555  11.731 -2.0590  1.2606  0.3546
   624G12c C01S11506   2.563   2.422  11.580  1.4145  0.4937 -0.8440
   624G12c H00E11507   2.492   2.492  11.539 -0.7989  2.1378  5.2779
   624G12c H00D11508   2.652   2.446  11.522 -1.2581  0.5582 -5.0392
   624G12c O00511509   2.532   2.291  11.574 -0.1743 -0.0517 -0.1899
   624G12c H00C11510   2.438   2.284  11.565 -0.0908  2.1588 -3.7563
   624G12c C01O11511   2.649   2.445  12.025 -0.6150  0.7325 -2.0099
   624G12c H00H11512   2.730   2.443  11.953  2.4690  0.0580  1.3242
   624G12c C01N11513   2.696   2.462  12.161  0.3090 -0.8800  0.5106
   624G12c O00611514   2.827   2.424  12.200 -1.4170 -1.0847  0.1479
   624G12c C01T11515   2.833   2.307  12.271  0.6959  0.4922  1.0193
   624G12c H00K11516   2.790   2.216  12.230 -0.5058  1.1203  0.8591
   624G12c H00J11517   2.764   2.312  12.355 -1.0031 -3.0779 -0.0655
   624G12c H00I11518   2.927   2.266  12.310 -0.9710 -3.3930  1.1993
   624G12c C01M11519   2.581   2.472  12.251  1.3833 -0.3584  2.7171
   624G12c C02011520   2.100   2.503  12.348 -0.4005  0.2090 -1.4168
   624G12c C02111521   2.135   2.451  12.474 -1.5757 -0.5338 -1.6456
   624G12c C01L11522   2.448   2.475  12.188  1.2050 -0.8347  1.3165
   624G12c O00711523   2.593   2.484  12.386 -0.2484 -0.0398  0.7171
   624G12c C02211524   2.267   2.453  12.501 -1.2259 -0.4612 -0.3277
   624G12c C02311525   2.058   2.493  12.593 -0.7641  0.7815  1.0759
   624G12c C00G11526   2.006   2.651  12.796  0.2722 -0.5400  1.0504
   624G12c C00E11527   2.037   2.744  13.004  1.5171 -0.4684 -0.6726
   624G12c O00A11528   1.994   2.836  13.103 -0.6349 -0.2465  2.4455
   624G12c C02411529   2.066   2.958  13.103 -0.5016 -0.1373  0.2085
   624G12c H00V11530   2.099   3.006  13.195  0.0910  4.9262 -2.4941
   624G12c H00U11531   2.020   3.029  13.034  1.8448  1.4866  0.2575
   624G12c H00T11532   2.162   2.935  13.056 -1.2054 -2.4648 -0.1510
   634G12c C00D11533   8.976  11.864   6.565  0.2672  0.7901 -0.0252
   634G12c O00B11534   8.864  11.907   6.642 -0.8131 -1.3183  1.8531
   634G12c C02511535   8.736  11.860   6.606  0.6147  0.8146  0.5692
   634G12c C02611536   8.719  11.717   6.670  0.4723 -0.2913 -0.2067
   634G12c H00Y11537   8.824  11.692   6.675  0.6476  0.0669 -1.8356
   634G12c H00X11538   8.653  11.653   6.611 -0.4867 -0.2496  0.8140
   634G12c O00C11539   8.671  11.724   6.795 -0.2552 -0.4520 -1.0120
   634G12c H00W11540   8.709  11.794   6.846  4.7413  0.2157 -5.2496
   634G12c C02711541   8.673  11.904   6.496  0.7437 -2.1154  1.3498
   634G12c O00D11542   8.710  12.020   6.421 -0.3640 -0.2961  0.5112
   634G12c H00Z11543   8.804  12.013   6.413  0.5229 -6.6771  9.6309
   634G12c C02811544   8.567  11.847   6.442  0.0735 -0.3281 -1.6831
   634G12c C02911545   8.451  11.802   6.523  0.3474 -0.0552  0.5734
   634G12c H01011546   8.458  11.819   6.630  2.0164 -2.9144  0.9524
   634G12c C02T11547   8.356  11.721   6.454  0.3550 -0.0670 -0.0593
   634G12c H01O11548   8.294  11.657   6.514  4.7343 -0.6714  4.0567
   634G12c C02S11549   8.368  11.704   6.316 -0.0994 -0.4542  0.4180
   634G12c O00J11550   8.300  11.631   6.238 -1.5473 -1.1329 -0.0267
   634G12c H01P11551   8.343  11.651   6.156  4.8975 -1.2544  3.0273
   634G12c C02R11552   8.485  11.742   6.241  0.0429  0.0769  1.3375
   634G12c O00I11553   8.477  11.723   6.101 -0.7280  0.4897  0.9504
   634G12c C02Q11554   8.562  11.595   6.072  0.5198  0.8177 -0.3472
   634G12c H01N11555   8.666  11.626   6.085  0.7151 -0.8499  2.4146
   634G12c H01R11556   8.554  11.545   5.976  1.0945  0.3617 -0.1594
   634G12c H01Q11557   8.550  11.502   6.128 -3.3523  0.5106 -1.5445
   634G12c C02A11558   8.578  11.828   6.297  0.3550  0.7359 -1.8254
   634G12c H01111559   8.652  11.861   6.226  2.3987 -2.4825 -1.2996
   634G12c C00C11560   8.968  11.802   6.444 -0.8743 -0.4296 -0.9224
   634G12c H01211561   8.872  11.787   6.395 -4.1072  4.1939  3.4090
   634G12c C00B11562   9.086  11.782   6.360 -0.7417  0.2096 -2.3254
   634G12c C00A11563   9.089  11.726   6.236 -1.1109  1.2719  1.6715
   634G12c C00911564   9.030  11.598   6.209 -0.5725 -0.5815 -0.7006
   634G12c C00811565   8.949  11.501   6.265 -1.7575 -0.6978 -0.7967
   634G12c H01311566   8.880  11.514   6.348  5.6822  2.0167  5.5286
   634G12c C00711567   8.943  11.384   6.189 -1.5100  0.1940  0.1064
   634G12c H01411568   8.897  11.302   6.242 -1.0960  0.5744  1.0755
   634G12c C00611569   9.040  11.324   6.108 -0.5615  0.7654 -0.3443
   634G12c C00511570   9.108  11.431   6.049 -0.4584 -0.3247  2.0476
   634G12c C00411571   9.208  11.397   5.958 -0.0957  0.1952 -0.4180
   634G12c C00311572   9.297  11.491   5.905  1.6259 -2.2814 -0.2379
   634G12c C00211573   9.417  11.433   5.834  0.2391 -1.0928  1.8570
   634G12c C00111574   9.554  11.478   5.801 -0.6185 -0.9828  0.5437
   634G12c C00M11575   9.639  11.533   5.909 -1.6564 -0.5440 -0.4613
   634G12c C00L11576   9.581  11.614   6.013  0.2817 -0.3554 -1.1287
   634G12c C00R11577   9.643  11.633   6.136  0.4238  1.3548 -0.4904
   634G12c C00Q11578   9.761  11.583   6.182  1.4993 -0.1352 -0.0380
   634G12c C00V11579   9.776  11.606   6.321  1.0697  0.1056  0.2476
   634G12c C00U11580   9.683  11.665   6.407 -0.2611 -1.0407 -1.7334
   634G12c C00T11581   9.566  11.728   6.345  1.4606 -0.4804  1.9444
   634G12c C01611582   9.452  11.770   6.408  1.6357 -1.3159  0.6239
   634G12c C01511583   9.461  11.793   6.549 -1.4228 -0.1786  0.6477
   634G12c C01011584   9.580  11.766   6.607 -0.5764  1.7356 -0.3601
   634G12c C01111585   9.592  11.800   6.751  0.2157 -0.3360 -0.1785
   634G12c H00511586   9.691  11.823   6.788 -2.2454  8.6153  2.0661
   634G12c C01211587   9.486  11.843   6.828 -0.9702 -0.4808 -0.6396
   634G12c C01711588   9.511  11.863   6.975 -0.5267  0.3341  0.6606
   634G12c O00211589   9.631  11.894   7.034 -0.6133  0.5530 -0.9381
   634G12c H00411590   9.685  11.950   6.980 -0.5162 -0.0610 -1.4933
   634G12c C01811591   9.404  11.878   7.060  0.1093 -1.4582  0.5998
   634G12c O00111592   9.275  11.827   7.030  1.3333 -0.6778 -0.2163
   634G12c H00311593   9.210  11.848   7.096  4.3605 -3.3342  3.8189
   634G12c C01911594   9.413  11.955   7.195  1.2567 -0.9842  0.2902
   634G12c H00211595   9.350  11.913   7.273 -0.1380 -2.7888 -1.7601
   634G12c H00111596   9.511  11.951   7.243  4.1882 -1.4701 -5.2935
   634G12c O00011597   9.370  12.097   7.204 -1.5568  0.2693  0.0356
   634G12c C01A11598   9.469  12.163   7.136  1.4748 -1.7775  0.7476
   634G12c C02K11599   9.399  12.236   7.021 -0.8103  0.6436  0.0621
   634G12c O00G11600   9.268  12.210   6.978 -1.1673 -1.4726 -0.4680
   634G12c C02M11601   9.178  12.289   7.068  1.6877 -0.7241 -0.8400
   634G12c H01G11602   9.221  12.342   7.154 -0.9312 -0.4295  0.3272
   634G12c H01F11603   9.071  12.285   7.049  1.4867  2.5925 -0.8333
   634G12c H01E11604   9.179  12.372   6.998 -5.7317  1.1197  0.8148
   634G12c C02J11605   9.452  12.365   7.004  0.0003 -1.9390 -1.2420
   634G12c H01H11606   9.396  12.438   6.948 -1.0098 -3.1926 -1.9094
   634G12c C02I11607   9.570  12.409   7.074  0.5084 -0.3715  1.0341
   634G12c C02N11608   9.637  12.537   7.037 -0.4506 -1.8236  1.2730
   634G12c H01M11609   9.586  12.626   7.003 -0.9903 -4.6044 -5.9964
   634G12c C02O11610   9.775  12.550   7.038  0.2835 -1.7552 -0.5422
   634G12c H01L11611   9.825  12.461   7.072 -0.0367 -1.4226  0.8415
   634G12c C02P11612   9.848  12.679   6.994  1.5076  1.1666 -0.4815
   634G12c H01K11613   9.926  12.688   6.918  1.3540  0.6523 -0.7065
   634G12c H01J11614   9.787  12.764   6.964  3.5672  2.8655  0.0601
   634G12c O00H11615   9.905  12.717   7.129 -0.8436  0.7599 -1.6750
   634G12c H01I11616   9.987  12.670   7.123  0.3663  2.1144  2.7052
   634G12c C02H11617   9.641  12.342   7.179  0.2618  0.2504  0.7296
   634G12c H01C11618   9.723  12.379   7.239 -0.0553 -3.1119  3.3813
   634G12c C02L11619   9.587  12.202   7.207  0.7203 -0.0764 -0.1400
   634G12c H01D11620   9.654  12.149   7.273 -0.9136 -2.4580 -0.3310
   634G12c C01311621   9.363  11.844   6.767 -0.6108  0.7160  2.3000
   634G12c H00011622   9.272  11.833   6.823 -0.1637  0.0512  2.9033
   634G12c C01411623   9.348  11.836   6.627 -0.3023  1.4308  0.0845
   634G12c C00F11624   9.223  11.840   6.560 -1.5829  0.8206  0.1990
   634G12c C00H11625   9.324  11.791   6.342 -1.8172  1.2720  1.3667
   634G12c C00I11626   9.328  11.768   6.199  1.4249 -0.1939 -0.3805
   634G12c C00J11627   9.437  11.724   6.140 -0.0390 -0.6152  0.2550
   634G12c C00Z11628   9.694  11.701   6.543  1.5996  0.0098  0.6146
   634G12c C00Y11629   9.825  11.686   6.583  0.3292  0.3902 -1.7121
   634G12c H00611630   9.828  11.725   6.684  0.6790 -5.6610  0.8341
   634G12c C00X11631   9.938  11.643   6.503 -1.2758 -1.5889 -0.2582
   634G12c O00311632  10.071  11.624   6.550 -0.0480  0.7742  1.5137
   634G12c C01B11633  10.120  11.495   6.553  1.7408 -0.5686  0.7081
   634G12c H00911634  10.228  11.487   6.549  1.7560 -4.1333  4.5651
   634G12c H00811635  10.103  11.437   6.462  0.9404 -1.5477  1.4692
   634G12c H00711636  10.084  11.452   6.646  3.2517 -0.5382  1.3075
   634G12c C00W11637   9.908  11.604   6.367 -0.7576 -0.4156  0.3190
   634G12c O00411638  10.024  11.605   6.287 -1.5114  1.6218  0.1468
   634G12c C01C11639  10.027  11.561   6.160 -0.6029 -0.1942 -0.7866
   634G12c H00A11640  10.106  11.498   6.122 -2.8085 -3.5440 -0.0828
   634G12c C00P11641   9.889  11.529   6.117 -0.5693 -1.1555  0.6703
   634G12c C00O11642   9.880  11.461   5.991 -0.5512 -1.6871  0.2917
   634G12c C01D11643   9.959  11.353   5.987  1.9440  0.3818  2.9738
   634G12c H00S11644  10.017  11.337   6.077  4.1349  3.4139  2.2019
   634G12c C01E11645   9.925  11.230   5.913  1.2768  0.5703  0.8268
   634G12c O00811646   9.968  11.112   5.956 -0.8270 -0.1844  0.6443
   634G12c C01V11647  10.108  11.110   5.954  2.3136  0.8384 -0.7592
   634G12c C01Z11648  10.180  11.106   5.822  0.0075 -1.5159  1.9218
   634G12c H00R11649  10.223  11.009   5.799  0.0228 -1.6565  2.5525
   634G12c H00Q11650  10.136  11.137   5.727  0.7297 -5.1594  0.3180
   634G12c O00911651  10.295  11.183   5.870  0.4548  0.0353 -0.1628
   634G12c H00P11652  10.295  11.197   5.964 -5.5246-10.0242  2.0615
   634G12c C01W11653  10.165  11.070   6.076 -0.1488 -1.1500  1.7041
   634G12c H00O11654  10.110  11.066   6.169 -2.4892  3.0242  0.6487
   634G12c C01X11655  10.310  11.028   6.110  1.2792  0.8442  0.0451
   634G12c H00N11656  10.316  10.947   6.182  0.8398 -2.3448 -3.3459
   634G12c H00M11657  10.368  10.991   6.025 -1.9424  1.0856 -2.3697
   634G12c C01Y11658  10.387  11.144   6.185  0.1402 -0.5345 -0.6124
   634G12c C02D11659  10.485  11.220   6.128 -0.5436  1.5721 -0.3881
   634G12c H01911660  10.501  11.246   6.025  1.1072  2.6720  0.1144
   634G12c C02C11661  10.558  11.312   6.207 -0.8019  0.1558 -1.0750
   634G12c H01A11662  10.635  11.377   6.167 -2.3659  0.2146 -4.0940
   634G12c C02B11663  10.511  11.346   6.339 -0.7904  0.1550 -1.7751
   634G12c O00E11664  10.562  11.469   6.374  0.8249  1.4808  0.6050
   634G12c H01B11665  10.508  11.542   6.349 -0.3736  0.4835  0.2506
   634G12c C02F11666  10.404  11.271   6.395 -0.8223 -0.2976 -0.2155
   634G12c O00F11667  10.360  11.316   6.513  0.2974 -1.2016  0.7465
   634G12c C02G11668  10.365  11.215   6.624 -1.0305  1.9851  0.0692
   634G12c H01711669  10.271  11.164   6.609  1.6261 -3.6121  1.3664
   634G12c H01611670  10.322  11.271   6.707 -3.4370 -2.0024  1.6070
   634G12c H01511671  10.453  11.175   6.674 -0.9168  3.4157  1.0445
   634G12c C02E11672  10.342  11.163   6.322  0.0188 -0.9023 -1.4590
   634G12c H01811673  10.248  11.123   6.357 -0.1751 -0.5842 -1.6194
   634G12c C01F11674   9.806  11.229   5.832  0.8145  0.4517 -1.0894
   634G12c C01G11675   9.738  11.110   5.771  1.2977  0.2049 -0.9146
   634G12c H00L11676   9.796  11.019   5.780  3.8619  1.8335 -0.4681
   634G12c C01H11677   9.595  11.135   5.747  0.2403 -0.3670  0.7801
   634G12c H00B11678   9.522  11.058   5.726 -0.2889  0.6855 -1.4541
   634G12c C01I11679   9.553  11.272   5.743  1.6896 -1.3012 -0.6914
   634G12c C01U11680   9.743  11.353   5.812  0.6301 -0.1681  0.1952
   634G12c C00S11681   9.548  11.702   6.212  0.6805 -0.2805 -0.1071
   634G12c C00K11682   9.438  11.648   6.028 -0.1820  1.0773  0.4813
   634G12c C00N11683   9.765  11.460   5.908 -0.7265 -2.5321  0.4229
   634G12c C00011684   9.633  11.375   5.734  1.0776 -0.8511 -0.7786
   634G12c C01J11685   9.411  11.312   5.758  1.1480 -1.5811 -0.1667
   634G12c C01K11686   9.294  11.231   5.803  0.1068 -0.9539  1.0190
   634G12c C01P11687   9.233  11.129   5.736  2.2254  0.4409 -1.7037
   634G12c C01Q11688   9.249  11.146   5.599  0.0546  0.4830  0.9204
   634G12c H00G11689   9.339  11.101   5.561 -0.1337 -1.6742  2.8867
   634G12c C01R11690   9.150  11.204   5.532  1.0293  0.9660  0.8747
   634G12c H00F11691   9.073  11.254   5.588 -1.2888  1.1231 -2.3418
   634G12c C01S11692   9.128  11.168   5.369 -0.0572  0.1252  0.1756
   634G12c H00E11693   9.036  11.207   5.325 -0.3727 -3.4801 -2.6892
   634G12c H00D11694   9.198  11.245   5.337 -4.8485  5.5666  1.9998
   634G12c O00511695   9.180  11.050   5.311 -0.0915  0.9640 -0.5248
   634G12c H00C11696   9.162  11.059   5.219  4.9306  2.0788 -1.5235
   634G12c C01O11697   9.163  11.014   5.788 -0.1316 -0.8204 -1.3887
   634G12c H00H11698   9.152  10.929   5.722 -0.2590 -0.6291 -1.6151
   634G12c C01N11699   9.102  11.043   5.913 -0.4918  0.1815  0.0617
   634G12c O00611700   8.991  10.947   5.932 -0.8716  0.8136 -0.1074
   634G12c C01T11701   8.844  10.994   5.941 -0.1474 -0.0047  1.0728
   634G12c H00K11702   8.783  10.927   5.881  0.6778  1.9351 -2.0398
   634G12c H00J11703   8.846  11.086   5.884 -2.8459 -2.3402 -3.0700
   634G12c H00I11704   8.826  10.988   6.048 -3.4024 -0.5806  0.5553
   634G12c C01M11705   9.123  11.177   5.959  1.2322  1.7217 -1.4751
   634G12c C02011706   9.309  11.614   5.980  0.0753 -0.5488  0.1400
   634G12c C02111707   9.186  11.659   6.033 -0.8921 -0.2307 -0.3637
   634G12c C01L11708   9.214  11.268   5.901 -0.5884 -1.2051 -0.3956
   634G12c O00711709   9.035  11.194   6.059  0.2758 -0.2997  0.0185
   634G12c C02211710   9.102  11.560   6.087 -1.0422  0.8600 -1.5941
   634G12c C02311711   9.198  11.747   6.148  1.6021  0.6593 -1.8964
   634G12c C00G11712   9.211  11.824   6.416  0.2773  0.9441  0.9548
   634G12c C00E11713   9.098  11.885   6.628  1.3284  2.0180 -1.7202
   634G12c O00A11714   9.102  11.964   6.738  0.8032  0.7951 -1.2710
   634G12c C02411715   9.130  12.097   6.719  0.2357 -1.1823  0.2005
   634G12c H00V11716   9.169  12.140   6.811 -2.3989  4.9877 -1.3058
   634G12c H00U11717   9.040  12.158   6.709  1.8775  1.2517 -0.2602
   634G12c H00T11718   9.187  12.123   6.630  0.5046  1.8622  1.2101
   644G12c C00D11719  10.892   4.689   4.844 -0.1029  0.5281 -0.1790
   644G12c O00B11720  11.018   4.736   4.806  0.2965 -0.3226 -0.7751
   644G12c C02511721  11.135   4.650   4.812  3.4128 -1.0372 -1.6790
   644G12c C02611722  11.234   4.753   4.839  0.3038 -1.2557  1.2544
   644G12c H00Y11723  11.328   4.728   4.888 -0.3331 -4.8686  0.7150
   644G12c H00X11724  11.205   4.810   4.927  0.8230 -1.7876  1.7696
   644G12c O00C11725  11.261   4.836   4.722  1.0813  1.1483  0.0256
   644G12c H00W11726  11.232   4.925   4.731  1.4263  0.9801  3.2391
   644G12c C02711727  11.143   4.516   4.819  1.2863 -1.0898  0.9187
   644G12c O00D11728  11.038   4.442   4.773 -1.2097  0.6780  0.3839
   644G12c H00Z11729  11.019   4.439   4.680 -6.0777  6.1175  0.8864
   644G12c C02811730  11.290   4.459   4.827 -0.5161  0.0740  0.4711
   644G12c C02911731  11.311   4.328   4.889 -1.5922  0.5292  0.3121
   644G12c H01011732  11.220   4.294   4.936 -2.6326  1.4637 -0.9707
   644G12c C02T11733  11.432   4.254   4.896 -0.1398  0.7732  0.5975
   644G12c H01O11734  11.451   4.159   4.944  3.9585  0.8653 -0.6432
   644G12c C02S11735  11.543   4.295   4.813 -0.0772 -0.9115 -2.0017
   644G12c O00J11736  11.657   4.223   4.801 -1.4659  0.0351 -0.7354
   644G12c H01P11737  11.710   4.301   4.799  2.2628 -2.1040  5.0551
   644G12c C02R11738  11.529   4.421   4.756  0.0346 -0.2700  0.7923
   644G12c O00I11739  11.653   4.465   4.712 -0.2084  1.4035  0.3572
   644G12c C02Q11740  11.665   4.526   4.583  0.5001 -3.5163  0.7321
   644G12c H01N11741  11.587   4.491   4.516 -0.5103  1.7871 -1.0333
   644G12c H01R11742  11.641   4.632   4.593 -5.2352 -3.9380 -5.2816
   644G12c H01Q11743  11.753   4.511   4.520  1.2936 -0.9509  1.1607
   644G12c C02A11744  11.407   4.506   4.759 -0.1447 -0.9711 -0.5863
   644G12c H01111745  11.405   4.594   4.697  4.5244  2.8726  4.1509
   644G12c C00C11746  10.889   4.616   4.963  1.0608 -0.8645  0.6682
   644G12c H01211747  10.948   4.654   5.045 -2.8936  1.4784  2.5913
   644G12c C00B11748  10.793   4.517   4.971 -0.1893 -0.5110  1.3739
   644G12c C00A11749  10.783   4.432   5.085 -0.1060 -0.1221 -0.5819
   644G12c C00911750  10.892   4.367   5.172 -0.4527  0.0847  0.6111
   644G12c C00811751  11.026   4.386   5.161 -1.4373 -0.3750 -0.3385
   644G12c H01311752  11.030   4.491   5.138  0.2075 -0.7260 -1.7659
   644G12c C00711753  11.113   4.281   5.190  0.1297  1.4982  0.0166
   644G12c H01411754  11.215   4.292   5.155 -2.3875  2.4278 -7.8775
   644G12c C00611755  11.049   4.149   5.187 -0.9349  0.3057 -0.6020
   644G12c C00511756  10.904   4.127   5.172  0.6692 -2.7194 -0.7968
   644G12c C00411757  10.847   4.004   5.167  0.9269 -2.6652 -1.7592
   644G12c C00311758  10.721   4.000   5.129  2.0267  0.3505  1.1534
   644G12c C00211759  10.661   3.861   5.126 -1.5129  0.5485  1.2245
   644G12c C00111760  10.533   3.810   5.083  0.6174 -0.0281  1.8077
   644G12c C00M11761  10.462   3.850   4.963  0.4819  0.1398  0.7772
   644G12c C00L11762  10.479   3.983   4.922  1.3711 -0.4285  0.2521
   644G12c C00R11763  10.407   4.053   4.822 -0.7715 -0.1597  2.0277
   644G12c C00Q11764  10.353   4.002   4.701 -0.5729  0.1200 -0.0430
   644G12c C00V11765  10.336   4.110   4.608 -0.0393  1.3664 -0.9373
   644G12c C00U11766  10.380   4.237   4.628 -2.4262 -0.1498  2.0905
   644G12c C00T11767  10.437   4.289   4.737  0.4563 -0.2622 -0.6341
   644G12c C01611768  10.530   4.389   4.749  0.0150 -1.2475 -0.6911
   644G12c C01511769  10.523   4.470   4.642 -0.2400 -1.0934  1.1120
   644G12c C01011770  10.449   4.453   4.530  1.1813 -0.1964  0.9706
   644G12c C01111771  10.413   4.545   4.426  0.8014  2.3161 -0.4708
   644G12c H00511772  10.344   4.523   4.347  4.7192  2.6197 -4.1395
   644G12c C01211773  10.466   4.667   4.439 -0.2521 -2.4008 -0.5916
   644G12c C01711774  10.441   4.771   4.332  1.0675  0.6585 -0.9141
   644G12c O00211775  10.515   4.782   4.210 -1.7425  0.9352 -1.2932
   644G12c H00411776  10.490   4.864   4.169 -0.6900  2.1901  0.4689
   644G12c C01811777  10.376   4.889   4.369  2.1175  0.6912  0.5142
   644G12c O00111778  10.337   4.983   4.273  0.2744  0.0887  0.1103
   644G12c H00311779  10.356   5.074   4.291  0.7387 -0.4892  2.7068
   644G12c C01911780  10.369   4.953   4.504 -0.8817  2.2995  2.4348
   644G12c H00211781  10.279   5.014   4.508 -0.9449  2.7221 -2.6030
   644G12c H00111782  10.364   4.865   4.569 -1.9570 -0.1138 -0.8307
   644G12c O00011783  10.466   5.044   4.545 -0.6822 -0.0658  0.1871
   644G12c C01A11784  10.426   5.161   4.583  1.2064 -1.0600 -0.6444
   644G12c C02K11785  10.454   5.267   4.490  1.0048  0.8933 -1.8083
   644G12c O00G11786  10.513   5.239   4.371  0.5481 -0.5786 -0.6505
   644G12c C02M11787  10.653   5.223   4.378  1.1607  0.9714  0.5132
   644G12c H01G11788  10.719   5.291   4.324 -0.8112 -1.6236 -5.6174
   644G12c H01F11789  10.691   5.179   4.471  2.0656 -4.6808 -2.3110
   644G12c H01E11790  10.644   5.138   4.310 -3.2172  1.3990  0.3907
   644G12c C02J11791  10.427   5.392   4.534  1.5268  0.7015 -0.3155
   644G12c H01H11792  10.476   5.476   4.487  3.7722  0.8008  2.0596
   644G12c C02I11793  10.364   5.416   4.659  0.3031  1.4680  0.9510
   644G12c C02N11794  10.352   5.553   4.699  0.7798  0.6843  0.0986
   644G12c H01M11795  10.410   5.623   4.642 -3.8751  5.6773  1.0132
   644G12c C02O11796  10.287   5.609   4.799  1.1669  0.8867  0.8212
   644G12c H01L11797  10.325   5.708   4.818 -0.7329  1.8592 -0.2844
   644G12c C02P11798  10.143   5.547   4.853 -0.3662  0.0297  0.1180
   644G12c H01K11799  10.078   5.624   4.812 -6.4841 -1.0138  6.9235
   644G12c H01J11800  10.112   5.449   4.816  1.7635  1.0959 -4.9348
   644G12c O00H11801  10.149   5.516   4.987 -0.7679 -0.2461  0.4322
   644G12c H01I11802  10.224   5.557   5.027  0.5881 -1.2190 -1.0327
   644G12c C02H11803  10.330   5.300   4.745  0.1448 -0.3468  1.1029
   644G12c H01C11804  10.283   5.309   4.842 -0.2969 -0.4104  0.8961
   644G12c C02L11805  10.348   5.167   4.691  1.6096 -1.9878  0.7326
   644G12c H01D11806  10.348   5.076   4.749 -1.1757 -1.2067  2.0534
   644G12c C01311807  10.560   4.686   4.547  0.8097  0.6258  0.2581
   644G12c H00011808  10.601   4.780   4.583  1.6924 -0.6459  2.6313
   644G12c C01411809  10.590   4.591   4.657 -0.8454 -0.8006  0.2096
   644G12c C00F11810  10.685   4.597   4.758 -0.7440  1.7678 -1.7776
   644G12c C00H11811  10.588   4.411   4.864 -0.2502 -0.2572 -0.2871
   644G12c C00I11812  10.570   4.333   4.973 -1.4245  0.1519  0.3563
   644G12c C00J11813  10.499   4.214   4.955  0.5018  0.6127 -0.7056
   644G12c C00Z11814  10.388   4.333   4.523 -1.3166 -0.1854  0.4613
   644G12c C00Y11815  10.371   4.279   4.390  0.6975  1.2110  0.7208
   644G12c H00611816  10.433   4.321   4.312 -3.0700  2.5729 -1.6569
   644G12c C00X11817  10.294   4.163   4.356 -0.5920  1.4637  0.5455
   644G12c O00311818  10.257   4.101   4.228 -0.7669 -1.4042 -0.3515
   644G12c C01B11819  10.192   4.193   4.129  0.4546 -0.9763  0.1835
   644G12c H00911820  10.173   4.155   4.029 -2.1561  2.6961 -0.8294
   644G12c H00811821  10.234   4.292   4.111 -5.2633  2.2818  3.6076
   644G12c H00711822  10.093   4.224   4.162  1.8553  0.7532  2.9502
   644G12c C00W11823  10.312   4.072   4.475 -0.1019 -0.0897  0.3092
   644G12c O00411824  10.289   3.947   4.437 -0.2759 -0.4659  1.2732
   644G12c C01C11825  10.261   3.850   4.541 -0.0217 -0.1696 -0.0386
   644G12c H00A11826  10.176   3.785   4.556  0.9865 -0.7464  3.6824
   644G12c C00P11827  10.349   3.864   4.652  0.5513 -1.7089  0.5920
   644G12c C00O11828  10.398   3.750   4.730 -0.6102 -0.2292  0.9602
   644G12c C01D11829  10.435   3.626   4.671 -0.0581  0.4183  0.2123
   644G12c H00S11830  10.425   3.645   4.565 -8.5910 -3.3725 -0.0691
   644G12c C01E11831  10.533   3.530   4.722 -1.0876  1.6997 -0.1103
   644G12c O00811832  10.587   3.419   4.633  0.0615 -0.6789  0.1967
   644G12c C01V11833  10.589   3.434   4.504  0.5479  1.1212  0.7517
   644G12c C01Z11834  10.471   3.359   4.428 -0.4490 -0.9344  0.3670
   644G12c H00R11835  10.511   3.259   4.419 -0.6311 -1.1391  1.7173
   644G12c H00Q11836  10.376   3.332   4.475 -2.8927  1.0525 -3.1181
   644G12c O00911837  10.453   3.465   4.347  0.2044 -0.2687  0.3708
   644G12c H00P11838  10.367   3.462   4.308  0.3182  1.6095 -0.0946
   644G12c C01W11839  10.694   3.490   4.432  0.1174  1.7366  0.8243
   644G12c H00O11840  10.700   3.513   4.326  0.7761 -1.5234  0.1072
   644G12c C01X11841  10.829   3.509   4.508  1.2502  1.3762 -0.4506
   644G12c H00N11842  10.829   3.469   4.610  3.8423 -1.2323 -1.3901
   644G12c H00M11843  10.896   3.472   4.430  2.3929 -0.6871  1.4305
   644G12c C01Y11844  10.879   3.650   4.529 -1.2781 -1.1936  0.8414
   644G12c C02D11845  10.794   3.756   4.580 -1.6880 -1.8172  0.7751
   644G12c H01911846  10.692   3.734   4.607 -2.3224  0.1705  0.1135
   644G12c C02C11847  10.855   3.890   4.625  1.3989 -0.2678 -0.7490
   644G12c H01A11848  10.797   3.981   4.619 -1.8628 -2.3159 -1.6192
   644G12c C02B11849  10.987   3.907   4.583 -2.1969 -1.2811 -1.6184
   644G12c O00E11850  11.039   4.032   4.567  0.6896  0.2842  0.1432
   644G12c H01B11851  11.129   4.017   4.544 -0.1094 -2.2572 -1.5560
   644G12c C02F11852  11.057   3.809   4.515 -0.6476 -0.2441  0.9735
   644G12c O00F11853  11.186   3.851   4.478  0.8465  0.1642 -0.9769
   644G12c C02G11854  11.288   3.759   4.510 -0.1973  1.6388 -0.6006
   644G12c H01711855  11.308   3.770   4.617 -4.8908 -0.9860  0.6929
   644G12c H01611856  11.368   3.768   4.436  0.0805 -3.5910 -1.1731
   644G12c H01511857  11.250   3.658   4.492  3.3150  1.1770 -7.0778
   644G12c C02E11858  11.021   3.672   4.509 -1.5477 -1.5297 -0.7403
   644G12c H01811859  11.076   3.583   4.481  2.0646  2.2044 -6.4644
   644G12c C01F11860  10.579   3.542   4.851 -0.0836 -0.7243 -0.3802
   644G12c C01G11861  10.692   3.463   4.901 -0.8825  0.8140  0.9995
   644G12c H00L11862  10.719   3.360   4.879  1.0127  0.8670  2.9099
   644G12c C01H11863  10.755   3.514   5.024 -0.4123  0.7498 -0.6664
   644G12c H00B11864  10.813   3.435   5.070  0.6935  3.4662  2.8426
   644G12c C01I11865  10.704   3.644   5.086 -0.3858 -1.1830  1.9268
   644G12c C01U11866  10.516   3.634   4.936 -0.0998 -0.8251  0.0259
   644G12c C00S11867  10.428   4.194   4.843 -1.2266  0.5073  1.0559
   644G12c C00K11868  10.540   4.088   4.992  0.7929  0.6857  0.2437
   644G12c C00N11869  10.451   3.754   4.863 -0.1304  1.2779  2.1607
   644G12c C00011870  10.574   3.669   5.060  1.8953 -0.9540 -0.7897
   644G12c C01J11871  10.741   3.742   5.158  0.0603 -1.3326 -1.1380
   644G12c C01K11872  10.877   3.755   5.198 -0.9487 -0.3551 -0.4884
   644G12c C01P11873  10.982   3.659   5.243  0.6388 -0.7980 -0.0146
   644G12c C01Q11874  10.944   3.524   5.261  2.2650  1.0867 -1.5084
   644G12c H00G11875  10.845   3.485   5.240  2.1208 -0.6010  1.9708
   644G12c C01R11876  11.035   3.425   5.257 -1.5617  1.3831 -2.2132
   644G12c H00F11877  11.137   3.451   5.234 -0.5235  0.5503  1.1571
   644G12c C01S11878  11.030   3.277   5.236 -0.3709  1.7071  0.1081
   644G12c H00E11879  11.100   3.235   5.163 -3.9296  0.9357 -2.9744
   644G12c H00D11880  11.078   3.225   5.320  2.6634  4.2757  0.0775
   644G12c O00511881  10.901   3.238   5.176 -1.1340 -0.0232  1.3746
   644G12c H00C11882  10.858   3.292   5.111  1.2334 -2.9758 -2.9005
   644G12c C01O11883  11.112   3.720   5.268  0.9875  0.4678  0.9928
   644G12c H00H11884  11.183   3.643   5.295 -3.9274 -3.9194  2.2795
   644G12c C01N11885  11.154   3.818   5.197 -0.2997 -1.0243 -0.4769
   644G12c O00611886  11.278   3.861   5.160  1.0548  0.9421  0.9281
   644G12c C01T11887  11.371   3.760   5.156  0.5286  0.7715 -1.3351
   644G12c H00K11888  11.350   3.670   5.098 -4.8339 -1.6714  3.9487
   644G12c H00J11889  11.433   3.751   5.245  1.2364  9.8020 -0.4343
   644G12c H00I11890  11.437   3.805   5.081 -3.2750 -0.1782 -5.4919
   644G12c C01M11891  11.063   3.913   5.158 -0.2049 -1.2749  0.8736
   644G12c C02011892  10.644   4.101   5.091  0.1689 -0.5656 -0.9408
   644G12c C02111893  10.681   4.230   5.166 -1.0405 -0.3425 -0.1589
   644G12c C01L11894  10.921   3.886   5.167  0.1765  0.1345 -0.2047
   644G12c O00711895  11.110   4.046   5.200  1.0841  0.8411 -0.1224
   644G12c C02211896  10.821   4.244   5.201 -1.1789  0.0162 -0.7744
   644G12c C02311897  10.666   4.350   5.094  1.7518  0.6162 -0.6677
   644G12c C00G11898  10.690   4.510   4.872  1.2330 -0.7098  0.6818
   644G12c C00E11899  10.792   4.687   4.758 -1.1325  0.4907 -1.1392
   644G12c O00A11900  10.781   4.791   4.664  2.2614  0.6913  1.7482
   644G12c C02411901  10.878   4.833   4.569  1.0750 -1.0902 -0.0798
   644G12c H00V11902  10.982   4.818   4.598  3.5827  7.2339 -3.2255
   644G12c H00U11903  10.886   4.775   4.477  3.7180  1.0050 -1.2448
   644G12c H00T11904  10.847   4.936   4.586-13.7773 -2.7218 -8.4841
   654G12c C00D11905   7.774   2.908   8.337 -0.9379 -1.9451  1.3169
   654G12c O00B11906   7.830   2.958   8.451 -0.5942  0.3244  0.6639
   654G12c C02511907   7.755   2.927   8.567  0.3283  0.4746  1.3129
   654G12c C02611908   7.761   2.771   8.595 -0.0086  0.9431 -0.7451
   654G12c H00Y11909   7.783   2.736   8.696 -4.7855  0.9066  0.4287
   654G12c H00X11910   7.849   2.722   8.554  0.6626  2.3042 -0.9591
   654G12c O00C11911   7.636   2.706   8.571  0.1992  0.0028  1.3089
   654G12c H00W11912   7.574   2.770   8.605 -1.4214 -0.3904 -0.8139
   654G12c C02711913   7.699   3.022   8.644  2.1690 -0.7817  1.1141
   654G12c O00D11914   7.701   3.161   8.640 -0.6816 -0.1496  0.8683
   654G12c H00Z11915   7.760   3.191   8.573 -7.8061  0.6682 -5.8397
   654G12c C02811916   7.620   2.971   8.767  0.5967  2.3966  0.1077
   654G12c C02911917   7.485   2.996   8.785 -0.2032 -2.8958 -0.3419
   654G12c H01011918   7.440   3.057   8.707 -1.0110 -6.4774 -2.8068
   654G12c C02T11919   7.413   2.953   8.893  1.2776  0.6011  0.8523
   654G12c H01O11920   7.311   2.986   8.887  1.8939  2.2286 -1.3285
   654G12c C02S11921   7.466   2.880   8.991  1.3056 -1.7468 -0.0306
   654G12c O00J11922   7.382   2.852   9.101  0.2144  0.3986 -0.1126
   654G12c H01P11923   7.400   2.776   9.154  6.1383  2.5041  1.4013
   654G12c C02R11924   7.604   2.847   8.977  2.1372  1.6664  1.5593
   654G12c O00I11925   7.654   2.802   9.087  1.7159  1.9643  0.1019
   654G12c C02Q11926   7.614   2.690   9.148 -3.0527 -1.3473  1.1172
   654G12c H01N11927   7.505   2.680   9.139 -2.9898  1.0341 -4.7118
   654G12c H01R11928   7.614   2.673   9.255  0.4888 -1.0630  1.2161
   654G12c H01Q11929   7.679   2.619   9.097  3.2718  5.3485 -1.0267
   654G12c C02A11930   7.685   2.907   8.874  0.3830 -0.7757 -1.9972
   654G12c H01111931   7.786   2.925   8.839  1.0361 -2.5517 -1.0544
   654G12c C00C11932   7.637   2.913   8.312  1.6158  0.0015  0.6714
   654G12c H01211933   7.553   2.931   8.376 -2.7328  6.3674 -6.0017
   654G12c C00B11934   7.582   2.849   8.191 -0.0806 -0.0507 -0.2199
   654G12c C00A11935   7.443   2.838   8.151  1.1508  1.6632 -1.0383
   654G12c C00911936   7.328   2.843   8.233  0.6595 -0.7851  0.3683
   654G12c C00811937   7.286   2.924   8.340 -0.3873  0.6660 -1.3617
   654G12c H01311938   7.319   3.019   8.380 -2.9218  1.1461 -0.3297
   654G12c C00711939   7.159   2.901   8.392 -1.1199  0.8117  1.5639
   654G12c H01411940   7.123   2.954   8.479  1.2580  3.9481  0.6955
   654G12c C00611941   7.058   2.815   8.346 -0.1994  1.1459  0.5309
   654G12c C00511942   7.106   2.740   8.230  0.5577  1.3056 -0.0739
   654G12c C00411943   7.019   2.639   8.170  0.1969 -0.6334 -1.9223
   654G12c C00311944   7.078   2.558   8.086  1.5450  1.5921 -0.2794
   654G12c C00211945   7.001   2.434   8.052 -0.6525  0.6385  1.1621
   654G12c C00111946   7.035   2.308   7.960  1.7889  1.7682 -0.1204
   654G12c C00M11947   7.153   2.246   7.981  0.0597 -1.1940  1.3733
   654G12c C00L11948   7.273   2.320   7.964 -0.1050 -0.1510  0.8924
   654G12c C00R11949   7.402   2.270   7.967  0.3189  0.9125  1.0657
   654G12c C00Q11950   7.446   2.144   7.995 -1.4874 -0.3442  0.6161
   654G12c C00V11951   7.594   2.148   8.006 -0.5580 -0.0721 -0.9539
   654G12c C00U11952   7.671   2.264   8.030 -0.7054  0.7540 -0.4175
   654G12c C00T11953   7.611   2.382   8.039 -0.4468  0.9982  0.9961
   654G12c C01611954   7.678   2.496   8.075  1.0711 -1.6205  0.6327
   654G12c C01511955   7.814   2.492   8.084 -1.1537  0.3968  0.3877
   654G12c C01011956   7.873   2.367   8.065 -2.8148 -0.7541  0.8296
   654G12c C01111957   8.016   2.364   8.077  0.0984 -0.7471  0.8596
   654G12c H00511958   8.083   2.282   8.056  3.3792  1.4983  2.0676
   654G12c C01211959   8.089   2.484   8.110  2.1292  0.0552  0.7124
   654G12c C01711960   8.222   2.488   8.089 -1.0215  0.3440 -1.9232
   654G12c O00211961   8.266   2.518   7.961  0.0263 -0.5768  0.5658
   654G12c H00411962   8.188   2.519   7.908  1.7442 -0.6291 -2.0761
   654G12c C01811963   8.306   2.471   8.190  1.2770  0.2999  0.3919
   654G12c O00111964   8.435   2.479   8.152  0.4980 -0.1236  0.1005
   654G12c H00311965   8.410   2.493   8.062  0.9297  3.4096  0.4411
   654G12c C01911966   8.288   2.441   8.336 -0.2965 -0.6364 -0.5415
   654G12c H00211967   8.376   2.404   8.389 -0.6086  3.9269  3.5212
   654G12c H00111968   8.280   2.535   8.391  0.4390  0.3335 -2.0606
   654G12c O00011969   8.176   2.383   8.382  0.3937 -1.9138  0.3541
   654G12c C01A11970   8.189   2.244   8.408  0.1858  0.3882 -0.8822
   654G12c C02K11971   8.073   2.176   8.438  1.0277  0.0655 -0.4597
   654G12c O00G11972   7.955   2.241   8.462  0.6793  0.1632  0.4589
   654G12c C02M11973   7.836   2.193   8.508 -0.3550  0.8613  2.3850
   654G12c H01G11974   7.773   2.149   8.431  0.8025  2.5161  0.4661
   654G12c H01F11975   7.826   2.136   8.601  5.3980 -0.2903  2.4862
   654G12c H01E11976   7.775   2.284   8.512 -4.1553 -1.4056 -0.5147
   654G12c C02J11977   8.065   2.038   8.428  0.6633 -0.3044  1.7707
   654G12c H01H11978   7.980   1.987   8.471  0.3388 -4.5909 -3.3023
   654G12c C02I11979   8.176   1.958   8.389 -2.0036 -0.8555  0.5886
   654G12c C02N11980   8.178   1.818   8.354  0.0734  0.2937  0.4359
   654G12c H01M11981   8.186   1.814   8.246 -0.5851 -1.7429  0.4368
   654G12c C02O11982   8.101   1.736   8.414  0.2049  1.9438  0.9451
   654G12c H01L11983   8.075   1.760   8.516 -3.5829 -2.2346  1.0867
   654G12c C02P11984   8.038   1.597   8.384  0.3161 -0.7082  0.1356
   654G12c H01K11985   7.933   1.602   8.413  0.6139  0.1347  1.0886
   654G12c H01J11986   8.025   1.588   8.276 -2.3570  1.5388  0.2054
   654G12c O00H11987   8.133   1.507   8.435  0.6424  0.7603 -0.3045
   654G12c H01I11988   8.222   1.515   8.407  2.6059 -9.3773  0.9264
   654G12c C02H11989   8.300   2.027   8.379  1.2107 -0.5127  2.1005
   654G12c H01C11990   8.381   1.967   8.340  1.0370 -2.1876  4.1818
   654G12c C02L11991   8.306   2.164   8.392  1.2079 -0.5221  1.3084
   654G12c H01D11992   8.399   2.211   8.365  0.9008 -0.8848 -0.4040
   654G12c C01311993   8.020   2.586   8.174 -0.8164  1.6251  2.1423
   654G12c H00011994   8.065   2.681   8.199  2.3145  2.2498 -4.7228
   654G12c C01411995   7.884   2.601   8.139  1.2820  1.0184  0.3756
   654G12c C00F11996   7.805   2.718   8.186 -1.1985  0.1315  0.9691
   654G12c C00H11997   7.607   2.621   8.078  0.4855 -0.4735  1.0035
   654G12c C00I11998   7.482   2.638   8.019 -1.1910  0.6241  1.2230
   654G12c C00J11999   7.437   2.513   7.947 -1.4952 -0.9265 -0.0752
   654G12c C00Z12000   7.804   2.255   8.046 -0.3833 -0.1224 -0.9974
   654G12c C00Y12001   7.855   2.137   8.080  1.3628 -0.3390 -0.9444
   654G12c H00612002   7.951   2.145   8.129  2.6628  1.6610 -3.6642
   654G12c C00X12003   7.799   2.014   8.055  1.9513  0.8555 -0.3786
   654G12c O00312004   7.881   1.903   8.054  2.4592  0.6876  0.5551
   654G12c C01B12005   7.996   1.934   7.989  0.0735 -1.9411  0.2446
   654G12c H00912006   8.085   1.975   8.037 -2.9809  4.3133  1.0204
   654G12c H00812007   8.016   1.827   7.977  4.3742 -1.7604  4.3410
   654G12c H00712008   7.976   1.986   7.895 -5.2320 -6.8919 -1.7054
   654G12c C00W12009   7.669   2.017   8.009  0.3672  0.8865 -0.9818
   654G12c O00412010   7.596   1.896   7.993  0.8472 -0.2133 -0.4068
   654G12c C01C12011   7.460   1.898   8.008 -0.2588 -0.2096 -0.9090
   654G12c H00A12012   7.413   1.803   7.990  0.2124 -1.7603  5.1057
   654G12c C00P12013   7.377   2.010   8.000 -0.0106 -0.3251 -1.7796
   654G12c C00O12014   7.234   2.002   8.028 -0.5808  2.2116 -2.0024
   654G12c C01D12015   7.195   1.881   8.098  1.7473  0.5137 -1.5108
   654G12c H00S12016   7.267   1.801   8.104 -0.6373 -1.7003 -1.5194
   654G12c C01E12017   7.049   1.871   8.111  0.7941  0.2106  1.1653
   654G12c O00812018   7.007   1.764   8.181  1.0725  0.7529  0.1143
   654G12c C01V12019   6.998   1.643   8.114 -0.2494 -0.7045  0.3612
   654G12c C01Z12020   7.010   1.530   8.220  0.1902 -0.8740 -0.3977
   654G12c H00R12021   6.941   1.514   8.302  2.7104  6.6011  3.6433
   654G12c H00Q12022   7.087   1.568   8.287 -2.6261 -2.4643  3.9085
   654G12c O00912023   7.066   1.421   8.180  0.1136 -0.7789 -0.0336
   654G12c H00P12024   6.997   1.392   8.122 -1.6084  0.3121  1.4409
   654G12c C01W12025   6.964   1.623   7.982 -0.1922  0.0673  1.9334
   654G12c H00O12026   6.973   1.522   7.947  0.7401 -0.6786  4.2271
   654G12c C01X12027   6.931   1.715   7.863 -1.7082 -0.0035  0.6880
   654G12c H00N12028   6.829   1.697   7.830 -1.7182 -2.4499  1.8712
   654G12c H00M12029   6.892   1.797   7.923 -2.3417  3.8090 -4.5298
   654G12c C01Y12030   7.037   1.758   7.763 -0.1390 -0.5154  0.3767
   654G12c C02D12031   7.077   1.682   7.671  0.2532 -0.4013 -0.1260
   654G12c H01912032   7.028   1.586   7.666 -0.2648 -0.0481 -2.4355
   654G12c C02C12033   7.134   1.730   7.556  1.9201 -0.2537  1.4357
   654G12c H01A12034   7.168   1.689   7.462 -1.0220 -0.5730  0.4636
   654G12c C02B12035   7.153   1.876   7.547 -0.1352  1.4147  0.2720
   654G12c O00E12036   7.218   1.931   7.448  0.1106 -1.4063  1.0588
   654G12c H01B12037   7.240   2.023   7.457 -0.4495 -1.0629 -0.8003
   654G12c C02F12038   7.096   1.967   7.633  0.7318  0.8258 -1.4013
   654G12c O00F12039   7.072   2.107   7.615  0.0684 -0.8521 -0.6411
   654G12c C02G12040   6.955   2.176   7.649  1.1306  0.7948 -0.3582
   654G12c H01712041   6.931   2.201   7.752 -6.3681  0.4162 -1.7028
   654G12c H01612042   6.869   2.120   7.611 -0.4797  0.7810  3.0738
   654G12c H01512043   6.925   2.257   7.582  3.2283 -1.8027 -4.6137
   654G12c C02E12044   7.046   1.911   7.754 -0.4617 -1.2280 -0.2107
   654G12c H01812045   7.008   1.962   7.841 -2.3793 -5.9598  1.8582
   654G12c C01F12046   6.962   1.994   8.111  0.6616  0.9536  2.2016
   654G12c C01G12047   6.823   2.013   8.165 -0.6508 -0.5969 -0.0376
   654G12c H00L12048   6.767   1.924   8.186 -0.1361 -0.7959  0.5245
   654G12c C01H12049   6.784   2.158   8.179  1.2630 -1.4121  0.5559
   654G12c H00B12050   6.703   2.181   8.247  1.2321  0.2331 -0.0098
   654G12c C01I12051   6.864   2.268   8.126  0.7854  1.5011 -0.0068
   654G12c C01U12052   7.009   2.103   8.047  0.7375 -1.4003 -2.1035
   654G12c C00S12053   7.481   2.385   7.980 -0.6749  0.9648  2.1902
   654G12c C00K12054   7.293   2.478   7.950  0.4027  0.7025  0.9310
   654G12c C00N12055   7.151   2.107   8.013  0.6593 -1.2695  1.5339
   654G12c C00012056   6.939   2.212   8.011  1.2185 -2.2237 -0.1509
   654G12c C01J12057   6.877   2.407   8.140  0.5553 -0.5897  2.8277
   654G12c C01K12058   6.802   2.502   8.219 -1.1092  0.0417 -0.7532
   654G12c C01P12059   6.675   2.498   8.294  0.1829 -0.8820 -0.8600
   654G12c C01Q12060   6.592   2.386   8.296 -1.5239  1.0179  0.1622
   654G12c H00G12061   6.553   2.364   8.198 -2.7906 -3.5996  1.6066
   654G12c C01R12062   6.535   2.342   8.406 -0.4478  0.2613 -0.2121
   654G12c H00F12063   6.540   2.386   8.504  4.8553  2.9069 -1.5023
   654G12c C01S12064   6.423   2.250   8.433 -0.9471  0.7311  0.4569
   654G12c H00E12065   6.379   2.177   8.365  4.9839 -4.0286  1.3075
   654G12c H00D12066   6.436   2.171   8.506 -0.4588 -3.6423 -4.1369
   654G12c O00512067   6.310   2.314   8.457  0.5679 -0.5660  0.8393
   654G12c H00C12068   6.250   2.282   8.522 -0.9563  0.4937 -0.0237
   654G12c C01O12069   6.641   2.601   8.386  1.3750  1.5807  0.2140
   654G12c H00H12070   6.552   2.611   8.445  4.4102 -1.0134  5.6101
   654G12c C01N12071   6.723   2.713   8.400 -0.9293 -0.2582  1.5142
   654G12c O00612072   6.680   2.771   8.514  1.0185  1.1027  0.3096
   654G12c C01T12073   6.594   2.879   8.510  0.4404  1.3315  0.1773
   654G12c H00K12074   6.577   2.877   8.403 -2.6558 -4.8532  0.5648
   654G12c H00J12075   6.666   2.960   8.523 -1.3220  2.8834  0.5686
   654G12c H00I12076   6.500   2.865   8.564 -0.5978  6.1201 -0.1010
   654G12c C01M12077   6.847   2.713   8.346 -0.4118  1.1601 -1.9139
   654G12c C02012078   7.213   2.596   8.024  1.0355  0.7419  1.1890
   654G12c C02112079   7.261   2.724   8.043  0.3720 -0.9919  1.1176
   654G12c C01L12080   6.888   2.615   8.242 -1.9041 -1.4141 -0.5351
   654G12c O00712081   6.927   2.816   8.387  0.5467 -1.2070  1.5509
   654G12c C02212082   7.227   2.778   8.166  0.9097 -0.1144 -0.4585
   654G12c C02312083   7.411   2.746   8.052  0.7899  1.2115 -0.8381
   654G12c C00G12084   7.664   2.728   8.147 -0.0079 -1.3289  0.1339
   654G12c C00E12085   7.855   2.829   8.253 -1.3360 -0.1118  1.4074
   654G12c O00A12086   7.989   2.865   8.279  0.7080 -0.2346  1.1542
   654G12c C02412087   8.018   2.927   8.156 -2.3243  0.2214  0.4291
   654G12c H00V12088   7.967   3.014   8.113  2.7635  1.5835 -3.2318
   654G12c H00U12089   8.016   2.861   8.069  3.2037  2.8803 -1.9724
   654G12c H00T12090   8.121   2.961   8.169 -2.5188  2.0899 -2.3678
   664G12c C00D12091  12.037  11.063   6.252  0.4838  2.5051 -1.8192
   664G12c O00B12092  11.948  10.991   6.168 -1.3290  1.2942 -0.7319
   664G12c C02512093  11.811  11.042   6.145  1.2989 -0.6526 -0.3073
   664G12c C02612094  11.712  10.974   6.236  0.3814  0.2717  0.5771
   664G12c H00Y12095  11.605  10.959   6.223  0.2586  4.1560 -4.6866
   664G12c H00X12096  11.694  11.007   6.338 -2.1255 -2.2549  1.0110
   664G12c O00C12097  11.728  10.829   6.232  0.6619 -0.6165 -0.1260
   664G12c H00W12098  11.740  10.799   6.143 -4.8936 -5.1011  0.2864
   664G12c C02712099  11.807  11.157   6.088 -0.1118  0.1754 -0.7527
   664G12c O00D12100  11.912  11.176   5.996 -0.9259  0.8366  0.7823
   664G12c H00Z12101  11.998  11.170   6.034 -1.3245  0.5545  1.6727
   664G12c C02812102  11.676  11.237   6.055 -1.1769  0.1099 -0.1206
   664G12c C02912103  11.686  11.353   5.960  0.3626 -1.4026  2.2131
   664G12c H01012104  11.784  11.376   5.919 -2.0440  8.0534  0.5926
   664G12c C02T12105  11.550  11.419   5.936  0.8211 -1.1456  0.5130
   664G12c H01O12106  11.528  11.478   5.848  2.6005  1.2009  1.5696
   664G12c C02S12107  11.426  11.375   6.001 -0.4729  0.5565  0.8158
   664G12c O00J12108  11.299  11.411   5.946  2.0741 -1.4400 -1.0092
   664G12c H01P12109  11.250  11.343   5.988 -0.9222 -0.9291 -3.5162
   664G12c C02R12110  11.434  11.279   6.105 -0.1910 -0.3367  0.0927
   664G12c O00I12111  11.329  11.249   6.190  0.7887  0.3278 -1.3833
   664G12c C02Q12112  11.287  11.115   6.198  0.5294 -0.9587 -0.0054
   664G12c H01N12113  11.279  11.032   6.127 -1.1046 -3.6780  3.2230
   664G12c H01R12114  11.188  11.087   6.234 -0.8043  1.6769 -1.5002
   664G12c H01Q12115  11.322  11.084   6.296 -8.0363  2.2455  4.5997
   664G12c C02A12116  11.561  11.230   6.131 -0.2878  0.8863 -0.1514
   664G12c H01112117  11.571  11.187   6.230  2.5814 -4.1319 -2.4663
   664G12c C00C12118  12.053  11.207   6.266  1.0615 -0.6833  1.0308
   664G12c H01212119  11.968  11.263   6.229  1.8703 -2.3173 -3.7527
   664G12c C00B12120  12.157  11.260   6.336  0.3460  0.1653 -0.7126
   664G12c C00A12121  12.205  11.399   6.330 -1.3254 -1.3828 -0.7251
   664G12c C00912122  12.237  11.447   6.192  0.5307  0.5741  0.5926
   664G12c C00812123  12.199  11.425   6.057  0.5986  0.7139 -0.8450
   664G12c H01312124  12.117  11.362   6.024  2.9000  0.1540 -6.0180
   664G12c C00712125  12.261  11.487   5.943  0.0282  1.2258  1.4955
   664G12c H01412126  12.235  11.424   5.860 -1.6243  5.1473 -1.0771
   664G12c C00612127  12.379  11.584   5.965 -0.8604  0.5557 -0.0196
   664G12c C00512128  12.425  11.582   6.090 -0.8669 -1.0392 -0.1565
   664G12c C00412129  12.544  11.636   6.132 -0.4648  0.3882  1.9836
   664G12c C00312130  12.597  11.611   6.255 -0.1226 -0.4864  0.0098
   664G12c C00212131  12.731  11.650   6.280 -1.4043  0.4156  2.9529
   664G12c C00112132  12.833  11.636   6.392  0.6215 -1.5389  1.1533
   664G12c C00M12133  12.842  11.511   6.485  1.9809 -0.6165  0.6759
   664G12c C00L12134  12.722  11.456   6.529 -0.3798  0.9860 -0.1316
   664G12c C00R12135  12.719  11.327   6.603 -0.9755 -2.4710  0.0007
   664G12c C00Q12136  12.825  11.229   6.626 -0.5894 -1.7005  0.7303
   664G12c C00V12137  12.758  11.112   6.675 -0.7529  0.1881  0.8582
   664G12c C00U12138  12.629  11.076   6.663  0.7789 -0.6500  0.0352
   664G12c C00T12139  12.544  11.160   6.602  0.8870  0.9166  0.5948
   664G12c C01612140  12.421  11.123   6.560  1.1196 -1.2465  0.8577
   664G12c C01512141  12.377  10.992   6.569  1.4382  0.7400 -1.4699
   664G12c C01012142  12.458  10.917   6.658  0.5732 -0.5043  0.9802
   664G12c C01112143  12.386  10.808   6.730 -2.4969 -0.9861 -1.4139
   664G12c H00512144  12.436  10.741   6.798 -3.9583  2.3184  3.1675
   664G12c C01212145  12.247  10.781   6.700 -0.8004 -1.6831  1.1658
   664G12c C01712146  12.187  10.647   6.738 -0.2056 -0.4007  0.1591
   664G12c O00212147  12.204  10.555   6.633 -0.2300  0.9539 -0.5324
   664G12c H00412148  12.298  10.560   6.629 -0.3295  1.7690 -2.6953
   664G12c C01812149  12.102  10.639   6.850 -0.4922 -0.4426  0.0768
   664G12c O00112150  12.024  10.532   6.865  0.2043 -0.8382 -0.1633
   664G12c H00312151  12.037  10.514   6.957  0.7142  4.0755  0.8827
   664G12c C01912152  12.087  10.743   6.975  1.0746 -1.7351 -0.7253
   664G12c H00212153  12.108  10.847   6.950 -5.3069 -1.3421 -5.6832
   664G12c H00112154  11.982  10.754   7.004  2.1403 -1.1395  3.3528
   664G12c O00012155  12.120  10.694   7.109  0.5345 -1.0040  1.0299
   664G12c C01A12156  12.250  10.680   7.160  0.3405 -0.6240 -0.6766
   664G12c C02K12157  12.300  10.642   7.281  0.6646 -1.9748  2.0317
   664G12c O00G12158  12.221  10.590   7.387  0.2216 -0.9806 -0.6822
   664G12c C02M12159  12.164  10.458   7.366 -0.2084  1.2107  0.4713
   664G12c H01G12160  12.122  10.430   7.269 -0.6290 -4.0602  2.0166
   664G12c H01F12161  12.233  10.377   7.391  0.3218  1.9348  1.4071
   664G12c H01E12162  12.095  10.471   7.449  0.8200 -0.8058  1.6782
   664G12c C02J12163  12.436  10.639   7.292  0.4902 -0.8869 -1.0642
   664G12c H01H12164  12.474  10.632   7.393  0.6569 -1.1839 -1.1457
   664G12c C02I12165  12.540  10.679   7.203 -1.0451  0.0169 -0.0350
   664G12c C02N12166  12.686  10.703   7.240  0.5184 -1.7883  1.7164
   664G12c H01M12167  12.756  10.672   7.164 -0.0544 -1.4050  1.0083
   664G12c C02O12168  12.713  10.763   7.359 -0.6324 -1.7606  0.7654
   664G12c H01L12169  12.635  10.808   7.419  0.3764  2.5468 -0.9540
   664G12c C02P12170  12.864  10.793   7.363  0.9338  0.1232 -0.1253
   664G12c H01K12171  12.867  10.811   7.471  2.2793  0.2356 -0.1808
   664G12c H01J12172  12.947  10.724   7.370  2.9919  2.4266 -1.0196
   664G12c O00H12173  12.901  10.906   7.286  0.4316 -0.8770 -0.0937
   664G12c H01I12174  12.969  10.879   7.226 -2.5224 -3.6551 -2.3506
   664G12c C02H12175  12.481  10.734   7.094  1.3901  1.9180 -0.1558
   664G12c H01C12176  12.547  10.789   7.028  5.6922 -3.2463 -0.4889
   664G12c C02L12177  12.346  10.734   7.075  0.0254  0.4837  0.0912
   664G12c H01D12178  12.330  10.750   6.970  3.1315 -1.0592 -0.6484
   664G12c C01312179  12.174  10.871   6.617  0.5177  0.3126  1.7434
   664G12c H00012180  12.068  10.849   6.627  0.5469  2.3260  9.5272
   664G12c C01412181  12.244  10.969   6.538  1.5724 -0.2047 -0.3414
   664G12c C00F12182  12.185  11.047   6.449  1.1830 -0.2665  0.0069
   664G12c C00H12183  12.339  11.226   6.495 -1.4330  0.1148  0.1422
   664G12c C00I12184  12.379  11.361   6.486 -1.3619  0.1090  0.0143
   664G12c C00J12185  12.505  11.389   6.533  0.7846 -0.9673  0.8349
   664G12c C00Z12186  12.595  10.951   6.688  0.4247  2.0909  0.1065
   664G12c C00Y12187  12.669  10.859   6.760  0.3046 -0.2058  0.3893
   664G12c H00612188  12.630  10.759   6.775  1.8936 -0.7256  1.2062
   664G12c C00X12189  12.806  10.880   6.768  1.0793  1.2372 -0.5497
   664G12c O00312190  12.880  10.790   6.836 -1.1909  1.1570  0.2904
   664G12c C01B12191  12.962  10.686   6.764  1.1603 -0.6136  0.5224
   664G12c H00912192  13.015  10.718   6.674 -4.5578  5.3189 -1.1033
   664G12c H00812193  13.011  10.627   6.842  4.8443 -1.2914 -2.1578
   664G12c H00712194  12.891  10.611   6.729 -2.8400  0.4944  5.6373
   664G12c C00W12195  12.850  11.008   6.732 -1.2259 -0.3779  0.9576
   664G12c O00412196  12.987  11.010   6.729 -0.8554 -2.0448  0.2672
   664G12c C01C12197  13.054  11.103   6.640 -0.1179 -1.4596  0.7948
   664G12c H00A12198  13.150  11.085   6.595 -0.0416  0.9818 -0.1148
   664G12c C00P12199  12.974  11.229   6.607  0.2407 -0.1921  1.8516
   664G12c C00O12200  13.016  11.326   6.502  0.4636  1.3927 -0.1544
   664G12c C01D12201  13.126  11.273   6.418 -0.5256  0.0778 -1.0530
   664G12c H00S12202  13.196  11.192   6.431  2.8735  3.2143  1.0567
   664G12c C01E12203  13.171  11.349   6.306 -1.0971 -1.3757 -1.0557
   664G12c O00812204  13.281  11.292   6.236 -0.1154  0.0922  0.7653
   664G12c C01V12205  13.245  11.214   6.113 -1.6704  0.8161  0.5352
   664G12c C01Z12206  13.370  11.155   6.049 -0.0203 -0.6714  0.9276
   664G12c H00R12207  13.349  11.057   6.007 -6.9675  0.5452  0.9483
   664G12c H00Q12208  13.409  11.192   5.955  6.5018 -8.8229 -0.1202
   664G12c O00912209  13.474  11.178   6.141 -1.0837  0.4200 -1.8021
   664G12c H00P12210  13.456  11.243   6.208  6.3693  1.2823 -0.1759
   664G12c C01W12211  13.115  11.180   6.079  1.7178  0.1884  0.5366
   664G12c H00O12212  13.052  11.210   6.162 -0.2520 -1.6235 -0.2412
   664G12c C01X12213  13.085  11.082   5.978 -1.1101  0.3024  0.0920
   664G12c H00N12214  12.992  11.105   5.926  0.1776 -3.7134 -4.3582
   664G12c H00M12215  13.140  11.097   5.885 -2.7832  1.7228 -0.6886
   664G12c C01Y12216  13.075  10.932   6.026 -0.9626  1.6449 -1.4639
   664G12c C02D12217  12.986  10.834   5.969 -0.5664 -0.7090 -1.6455
   664G12c H01912218  12.904  10.865   5.905 -1.5080  1.5373  0.5555
   664G12c C02C12219  12.977  10.714   6.030  2.1410  0.3493 -1.4647
   664G12c H01A12220  12.898  10.640   6.028  1.4158  1.1308 -5.5826
   664G12c C02B12221  13.072  10.678   6.140  1.5048  0.5466  1.5622
   664G12c O00E12222  13.058  10.567   6.199  0.1151  0.6638  0.6956
   664G12c H01B12223  13.061  10.571   6.293 -1.0662  3.6862  0.6494
   664G12c C02F12224  13.194  10.754   6.162 -0.4535  0.2718  2.1774
   664G12c O00F12225  13.283  10.725   6.258 -0.2276  0.0406  1.9332
   664G12c C02G12226  13.313  10.851   6.339 -0.1491  0.4105 -0.5367
   664G12c H01712227  13.223  10.911   6.355 -2.2249 -1.8548 -3.2466
   664G12c H01612228  13.381  10.916   6.285 -0.7534 -1.6103 -3.8384
   664G12c H01512229  13.358  10.844   6.438  0.7545  2.6724 -0.7440
   664G12c C02E12230  13.187  10.884   6.106 -0.7888  1.7023  1.2905
   664G12c H01812231  13.248  10.969   6.134  3.8998 -1.6711  2.0242
   664G12c C01F12232  13.111  11.469   6.267 -0.1103 -0.8031  0.4109
   664G12c C01G12233  13.138  11.553   6.156 -0.5783 -0.3419  1.5056
   664G12c H00L12234  13.221  11.551   6.086 -4.5386  1.9568 -3.5368
   664G12c C01H12235  13.043  11.638   6.107 -2.3539  1.0794  2.2462
   664G12c H00B12236  13.025  11.667   6.005  3.5244 -5.0965 -0.9698
   664G12c C01I12237  12.950  11.676   6.200 -0.9506 -0.5254 -1.1357
   664G12c C01U12238  13.016  11.527   6.356  0.1010  0.8379  1.0667
   664G12c C00S12239  12.578  11.292   6.599 -0.0380 -1.2909 -1.0632
   664G12c C00K12240  12.592  11.481   6.464 -0.8662  0.7782  0.2775
   664G12c C00N12241  12.961  11.449   6.467  0.5836 -0.0861 -0.0426
   664G12c C00012242  12.959  11.646   6.328  0.6333 -0.8767 -0.5640
   664G12c C01J12243  12.809  11.681   6.165 -0.8719 -0.8102 -1.3159
   664G12c C01K12244  12.766  11.727   6.036  1.5344  1.3134 -0.0472
   664G12c C01P12245  12.813  11.836   5.947  1.0952  0.6827 -2.0011
   664G12c C01Q12246  12.925  11.905   6.009  1.4378 -0.3931 -0.4032
   664G12c H00G12247  12.972  11.895   6.106  1.0179 -3.4760 -0.4714
   664G12c C01R12248  12.973  12.016   5.956 -1.7424  0.2281  0.1198
   664G12c H00F12249  12.932  12.070   5.872 -2.8308 -3.9667 -2.1218
   664G12c C01S12250  13.091  12.115   6.007 -2.8840  0.6633  0.2795
   664G12c H00E12251  13.065  12.152   6.106 -4.6582 -1.1401  0.5290
   664G12c H00D12252  13.167  12.043   6.039 -0.1661  3.0856 -0.5516
   664G12c O00512253  13.146  12.192   5.913 -0.5122 -2.4809  0.1385
   664G12c H00C12254  13.064  12.240   5.906  0.3944 -0.5134  2.3680
   664G12c C01O12255  12.756  11.847   5.822 -0.2987  1.1949  0.5228
   664G12c H00H12256  12.793  11.934   5.770  3.0167  0.1399  1.0508
   664G12c C01N12257  12.634  11.785   5.789 -0.9819 -0.3905 -1.3171
   664G12c O00612258  12.577  11.802   5.667 -0.6881 -0.2899 -0.1660
   664G12c C01T12259  12.662  11.849   5.571  0.8271  0.7078 -0.7228
   664G12c H00K12260  12.589  11.855   5.491  0.0985 -0.7444 -0.1947
   664G12c H00J12261  12.694  11.953   5.567  4.7937 -0.2243  2.5130
   664G12c H00I12262  12.747  11.781   5.582 -0.8342 -1.0573  1.8003
   664G12c C01M12263  12.563  11.713   5.899  0.2731 -0.5701  0.4057
   664G12c C02012264  12.528  11.540   6.354  1.6563  0.2809  0.3213
   664G12c C02112265  12.390  11.526   6.322 -1.0584 -1.8910  0.0972
   664G12c C01L12266  12.623  11.691   6.025  0.2657  1.2282 -0.2964
   664G12c O00712267  12.450  11.632   5.859 -0.5775 -0.9798  0.7684
   664G12c C02212268  12.349  11.524   6.196 -0.7857 -0.6716  0.5017
   664G12c C02312269  12.310  11.438   6.396  1.2036  0.5476  0.5243
   664G12c C00G12270  12.226  11.179   6.429 -0.3542  0.5417  0.8487
   664G12c C00E12271  12.121  10.984   6.348  0.0026 -0.6433  0.4732
   664G12c O00A12272  12.128  10.841   6.322 -0.9805 -0.5086  1.1800
   664G12c C02412273  12.184  10.789   6.193  1.0606 -0.9992  2.1245
   664G12c H00V12274  12.246  10.845   6.123 -2.6941 -1.7211 -2.0967
   664G12c H00U12275  12.098  10.799   6.126  5.2575 -1.9580 -3.8318
   664G12c H00T12276  12.242  10.698   6.206  3.7769  0.8953  3.5898
   674G12c C00D12277   0.518   6.333   2.131  0.7945 -0.2961  0.2396
   674G12c O00B12278   0.650   6.365   2.135 -0.5459  0.4792  1.4909
   674G12c C02512279   0.734   6.314   2.046  0.0223  0.9121  0.4798
   674G12c C02612280   0.704   6.346   1.896  0.0606  1.6115 -0.2877
   674G12c H00Y12281   0.646   6.264   1.854  1.6938 -1.6378  3.4884
   674G12c H00X12282   0.771   6.331   1.812  1.3313 -1.4847  1.2188
   674G12c O00C12283   0.633   6.459   1.865  0.5457 -0.8564 -0.1149
   674G12c H00W12284   0.649   6.472   1.772 -5.6281 -0.9344 -1.4274
   674G12c C02712285   0.832   6.224   2.107  2.2414 -0.9998 -0.2961
   674G12c O00D12286   0.825   6.173   2.231  0.2006  0.0501 -0.1805
   674G12c H00Z12287   0.779   6.202   2.309 -4.6172 -3.9949 -1.2310
   674G12c C02812288   0.942   6.193   2.030  1.1634 -0.8415 -0.4854
   674G12c C02912289   1.010   6.298   1.970  1.4495  0.8018 -1.9840
   674G12c H01012290   0.968   6.397   1.974 -0.6609 -0.1206  0.8717
   674G12c C02T12291   1.143   6.285   1.913  0.8256  0.1912  0.0982
   674G12c H01O12292   1.179   6.382   1.882  5.2796 -1.6424 -0.7187
   674G12c C02S12293   1.215   6.157   1.911 -0.1382  1.0864 -0.7031
   674G12c O00J12294   1.343   6.128   1.878  0.7490 -0.9739  0.0897
   674G12c H01P12295   1.350   6.050   1.930 -0.5208  1.7418  4.7406
   674G12c C02R12296   1.123   6.048   1.951  0.0869 -0.2225  0.8551
   674G12c O00I12297   1.180   5.924   1.977 -0.2497 -0.3267 -0.9893
   674G12c C02Q12298   1.144   5.807   1.921 -0.0797 -0.0570  1.5731
   674G12c H01N12299   1.104   5.793   1.820  3.2397 -0.8810  0.2781
   674G12c H01R12300   1.103   5.745   2.000  2.8235  0.1302  3.2906
   674G12c H01Q12301   1.220   5.729   1.922  2.4627  2.1358 -2.4332
   674G12c C02A12302   0.998   6.069   2.021  1.5329 -0.5318 -0.6159
   674G12c H01112303   0.939   5.978   2.027  3.2931 -1.7054 -0.8149
   674G12c C00C12304   0.454   6.207   2.068  0.1996 -1.1510 -0.3355
   674G12c H01212305   0.495   6.118   2.022  1.6617 -4.1111  6.1363
   674G12c C00B12306   0.327   6.176   2.080 -0.7233  0.8476 -0.7108
   674G12c C00A12307   0.251   6.059   2.021  0.4487  0.9331 -0.5535
   674G12c C00912308   0.280   5.997   1.891 -1.3465  0.5199 -0.7915
   674G12c C00812309   0.391   5.987   1.817 -0.9509 -1.1459 -0.4208
   674G12c H01312310   0.494   5.995   1.848 -2.6661 -0.0418  5.5325
   674G12c C00712311   0.377   5.945   1.688 -0.5074  0.1044  0.1944
   674G12c H01412312   0.464   5.940   1.625  2.5547  7.5493  3.2705
   674G12c C00612313   0.249   5.946   1.627 -1.0745  0.8618 -1.4218
   674G12c C00512314   0.136   5.947   1.706 -1.5122  0.2905 -2.0502
   674G12c C00412315   0.004   5.966   1.656  1.3595  0.2454  0.3461
   674G12c C00312316  -0.102   6.001   1.743 -0.3050 -0.2647 -1.7831
   674G12c C00212317  -0.223   6.027   1.679 -0.6683  0.4144  0.2310
   674G12c C00112318  -0.343   6.083   1.711  0.0876  0.5219  0.0966
   674G12c C00M12319  -0.371   6.164   1.826 -1.3570  0.7706  1.2987
   674G12c C00L12320  -0.318   6.147   1.958  2.2150 -1.5621 -1.4287
   674G12c C00R12321  -0.305   6.266   2.054  0.0656 -0.4732 -1.2956
   674G12c C00Q12322  -0.371   6.398   2.054 -0.5540 -2.1188 -0.3822
   674G12c C00V12323  -0.320   6.482   2.148 -0.9721 -1.6721  0.3225
   674G12c C00U12324  -0.189   6.456   2.222  0.2324  1.1559 -0.5882
   674G12c C00T12325  -0.112   6.353   2.186 -0.2570 -0.6145  0.8444
   674G12c C01612326   0.025   6.359   2.194 -1.4614  1.4221  0.9207
   674G12c C01512327   0.076   6.465   2.256 -0.9953  2.9612 -0.3275
   674G12c C01012328  -0.010   6.542   2.346  1.9379 -0.2568 -0.2687
   674G12c C01112329   0.037   6.652   2.437  1.2920  0.6311  2.0034
   674G12c H00512330  -0.030   6.707   2.502  1.6518 -3.6306  6.2911
   674G12c C01212331   0.173   6.665   2.448  0.2604  0.6212 -0.7861
   674G12c C01712332   0.200   6.758   2.560 -0.3439 -1.6552  1.0070
   674G12c O00212333   0.166   6.887   2.547 -0.8638  1.3932  0.4505
   674G12c H00412334   0.122   6.907   2.629 -5.1467  1.5330 -1.7448
   674G12c C01812335   0.248   6.705   2.679  0.0434 -1.2177  1.1172
   674G12c O00112336   0.287   6.563   2.679 -0.4050 -0.1404  0.3056
   674G12c H00312337   0.240   6.506   2.737  0.0305 -8.1076 -6.2542
   674G12c C01912338   0.263   6.772   2.813  0.5297 -1.6250 -1.0192
   674G12c H00212339   0.343   6.752   2.884 -0.2971  4.6510  1.9443
   674G12c H00112340   0.274   6.879   2.792  2.5549 -1.0716  2.5262
   674G12c O00012341   0.142   6.740   2.881  0.7586 -0.5740 -0.3298
   674G12c C01A12342   0.025   6.827   2.881  0.1204 -1.6500  1.2040
   674G12c C02K12343   0.026   6.919   2.986  0.1128 -0.3502  0.0314
   674G12c O00G12344   0.127   6.951   3.077  0.7047 -1.2592  0.2896
   674G12c C02M12345   0.108   6.866   3.185 -0.3599 -0.2821  0.8667
   674G12c H01G12346   0.203   6.818   3.206 -0.3192 -3.5673 -5.7736
   674G12c H01F12347   0.036   6.915   3.251 -3.1493 -3.5739  0.4313
   674G12c H01E12348   0.084   6.774   3.131 -2.3275  1.6169 -1.6247
   674G12c C02J12349  -0.094   6.991   2.989  0.6577  0.1829 -1.9907
   674G12c H01H12350  -0.116   7.024   3.089  1.1643 -4.2085 -0.3481
   674G12c C02I12351  -0.202   6.972   2.905  1.3764  0.3926  0.4046
   674G12c C02N12352  -0.327   7.047   2.925  0.1008 -0.3537  0.5803
   674G12c H01M12353  -0.351   7.151   2.905  1.1291 -0.5775 -1.8588
   674G12c C02O12354  -0.430   6.979   2.970  0.7887  0.6299  0.7549
   674G12c H01L12355  -0.424   6.876   3.001  6.6512  0.9478  1.3271
   674G12c C02P12356  -0.553   7.046   3.018  0.7119 -0.9314  1.4737
   674G12c H01K12357  -0.517   7.108   3.099  0.8759  2.4819 -1.1121
   674G12c H01J12358  -0.603   7.098   2.936  7.1653  0.4661 -1.8779
   674G12c O00H12359  -0.638   6.936   3.042 -0.9163 -0.8920 -0.6521
   674G12c H01I12360  -0.624   6.857   2.991 -0.6498 -2.3656  1.6370
   674G12c C02H12361  -0.197   6.868   2.798 -0.2417  1.5906 -1.4300
   674G12c H01C12362  -0.262   6.868   2.711  2.7320  4.3166 -3.7598
   674G12c C02L12363  -0.075   6.806   2.793 -0.6947  0.1261 -0.0057
   674G12c H01D12364  -0.049   6.745   2.708  8.0312  1.1564  1.4468
   674G12c C01312365   0.253   6.581   2.379  0.6796 -0.2964  0.9658
   674G12c H00012366   0.354   6.596   2.413  0.8554 -0.7929  0.6578
   674G12c C01412367   0.213   6.481   2.279  0.4416  0.6004  0.3979
   674G12c C00F12368   0.298   6.387   2.215 -0.7365 -0.4262  0.1751
   674G12c C00H12369   0.096   6.257   2.137 -0.9062  0.2030  0.3194
   674G12c C00I12370   0.028   6.140   2.094  1.3819  1.2893 -1.4288
   674G12c C00J12371  -0.120   6.135   2.093  0.8854  0.3793 -0.0556
   674G12c C00Z12372  -0.143   6.548   2.310 -0.7610 -0.2178 -1.0250
   674G12c C00Y12373  -0.234   6.643   2.360  0.1137  0.3930 -0.8259
   674G12c H00612374  -0.236   6.708   2.446  2.1178  1.2942 -1.4168
   674G12c C00X12375  -0.376   6.661   2.308 -1.3024 -0.2761  0.9779
   674G12c O00312376  -0.487   6.729   2.344  1.1270 -1.8417  0.0011
   674G12c C01B12377  -0.510   6.740   2.471 -1.1734 -0.6522  1.2949
   674G12c H00912378  -0.617   6.723   2.455 -0.6011 -3.1009 -0.0115
   674G12c H00812379  -0.461   6.667   2.535  2.6770  3.3001  3.1580
   674G12c H00712380  -0.488   6.843   2.501  1.6933 -2.4090  5.6453
   674G12c C00W12381  -0.401   6.597   2.184 -0.3696  0.2274  0.2416
   674G12c O00412382  -0.512   6.615   2.115  0.0952 -1.2853 -0.1989
   674G12c C01C12383  -0.521   6.568   1.985 -1.4552 -0.3555  0.0700
   674G12c H00A12384  -0.628   6.556   1.981 -2.4809  6.3174  1.6662
   674G12c C00P12385  -0.456   6.450   1.964 -0.8318 -1.1740  1.0277
   674G12c C00O12386  -0.484   6.407   1.828  1.6046  0.9774 -0.0175
   674G12c C01D12387  -0.552   6.491   1.732 -0.3923 -0.8859 -1.1104
   674G12c H00S12388  -0.625   6.566   1.758 -2.9919 -2.2969 -3.9120
   674G12c C01E12389  -0.538   6.493   1.587  0.8946  0.7415  0.6517
   674G12c O00812390  -0.531   6.619   1.526  0.5210 -0.1128 -1.2566
   674G12c C01V12391  -0.613   6.735   1.561  0.9016  1.0624  0.0996
   674G12c C01Z12392  -0.572   6.839   1.671 -0.5122  0.9260 -0.5384
   674G12c H00R12393  -0.468   6.818   1.696 -0.5751  3.3534  2.0865
   674G12c H00Q12394  -0.530   6.933   1.633  3.4493 -0.5300  0.0271
   674G12c O00912395  -0.619   6.796   1.802  0.0607 -0.0946 -1.1694
   674G12c H00P12396  -0.623   6.701   1.797  0.1206 -0.4931  3.5491
   674G12c C01W12397  -0.738   6.733   1.516  0.6862 -0.6941 -0.2696
   674G12c H00O12398  -0.756   6.635   1.473  8.3392 -4.3077  3.6590
   674G12c C01X12399  -0.857   6.838   1.498 -0.9593  0.1752  0.5616
   674G12c H00N12400  -0.811   6.937   1.508 -0.8834  0.3804 -1.6953
   674G12c H00M12401  -0.894   6.803   1.402 -0.8078 -0.6020  0.7843
   674G12c C01Y12402  -0.952   6.821   1.619  0.9401  1.5889 -0.5665
   674G12c C02D12403  -1.029   6.703   1.629 -1.5391  1.5779  0.4557
   674G12c H01912404  -0.996   6.626   1.561  3.8621  1.4148  3.0331
   674G12c C02C12405  -1.109   6.675   1.736 -2.5224  1.5830  0.6428
   674G12c H01A12406  -1.137   6.571   1.731  2.5110 -0.2805  5.9934
   674G12c C02B12407  -1.110   6.762   1.841  2.8699 -0.9023  1.0615
   674G12c O00E12408  -1.189   6.735   1.949  0.0206  0.3308 -0.3772
   674G12c H01B12409  -1.235   6.816   1.966 -2.6375 -0.9857 -0.9688
   674G12c C02F12410  -1.061   6.888   1.833  0.7141 -0.0377 -0.5159
   674G12c O00F12411  -1.098   6.974   1.931  0.6399 -0.0235  0.5717
   674G12c C02G12412  -1.157   7.092   1.872 -0.1086 -1.3201 -0.2131
   674G12c H01712413  -1.259   7.063   1.848 -1.1507  2.1328 -0.2202
   674G12c H01612414  -1.087   7.140   1.805  2.0441 -3.2308  0.6005
   674G12c H01512415  -1.193   7.133   1.967  1.0934 -3.4850  1.2258
   674G12c C02E12416  -0.975   6.918   1.729 -2.1805  0.7450  0.0703
   674G12c H01812417  -0.906   6.997   1.755  4.7334 -4.9958  0.7197
   674G12c C01F12418  -0.468   6.377   1.540  0.1267 -0.3925  1.3814
   674G12c C01G12419  -0.377   6.368   1.422  0.8901 -1.6579  0.5979
   674G12c H00L12420  -0.354   6.463   1.376  5.0699 -3.3840 -1.2020
   674G12c C01H12421  -0.326   6.234   1.394 -1.5367  1.1357 -0.1396
   674G12c H00B12422  -0.256   6.269   1.319 -3.5430 -0.0519 -2.6549
   674G12c C01I12423  -0.331   6.113   1.478  0.0843  0.1137  1.8692
   674G12c C01U12424  -0.461   6.263   1.634  0.0507 -0.7129 -0.9986
   674G12c C00S12425  -0.190   6.255   2.140 -0.5752  0.3188 -0.6784
   674G12c C00K12426  -0.182   6.103   1.970 -0.9827 -0.7819  0.7099
   674G12c C00N12427  -0.428   6.289   1.773  0.4170  1.8991 -0.5180
   674G12c C00012428  -0.401   6.140   1.602 -0.9346  1.5240 -0.6566
   674G12c C01J12429  -0.223   6.030   1.536 -0.4694 -0.0038  1.3543
   674G12c C01K12430  -0.131   5.986   1.441 -0.1163 -0.2394 -1.6770
   674G12c C01P12431  -0.146   5.967   1.306  0.4134  1.4480  0.4007
   674G12c C01Q12432  -0.281   5.979   1.245  1.2311  1.5555  0.7891
   674G12c H00G12433  -0.354   5.909   1.284  0.2594  1.0612 -1.7732
   674G12c C01R12434  -0.293   6.041   1.136  0.7183 -0.3738 -0.8701
   674G12c H00F12435  -0.390   6.037   1.089  2.9213  3.7753 -6.2872
   674G12c C01S12436  -0.189   6.139   1.084 -2.2692  0.3093  0.8113
   674G12c H00E12437  -0.113   6.143   1.163 -3.2579 -3.0017  1.9865
   674G12c H00D12438  -0.149   6.124   0.984 -1.9222  4.2359  0.2756
   674G12c O00512439  -0.263   6.261   1.054  0.1254 -0.3607 -1.4113
   674G12c H00C12440  -0.333   6.234   0.997 -0.7247 -1.0124 -0.0755
   674G12c C01O12441  -0.037   5.923   1.232 -0.9907  0.9143 -0.0796
   674G12c H00H12442  -0.040   5.901   1.126  0.4684 -3.0221  0.6201
   674G12c C01N12443   0.092   5.905   1.294 -0.3040  0.1608 -0.7707
   674G12c O00612444   0.208   5.870   1.221  1.1811 -0.9820 -0.1156
   674G12c C01T12445   0.192   5.749   1.152 -0.5946  0.8696  2.1122
   674G12c H00K12446   0.299   5.749   1.131 -1.5108 -4.7055 -4.8593
   674G12c H00J12447   0.123   5.752   1.067 -4.7167  6.7438  5.3272
   674G12c H00I12448   0.162   5.675   1.226 -0.1087 -0.4703  0.9945
   674G12c C01M12449   0.111   5.926   1.439  1.7996 -0.4534 -0.4748
   674G12c C02012450  -0.079   6.029   1.888 -0.3426 -0.8213 -0.2493
   674G12c C02112451   0.036   5.966   1.933 -0.3845  0.2941  1.1445
   674G12c C01L12452  -0.009   5.954   1.523 -0.2167  0.8923  0.0732
   674G12c O00712453   0.239   5.937   1.487 -0.5757  0.5763 -0.5275
   674G12c C02212454   0.150   5.948   1.846  1.4079 -0.2044  0.1618
   674G12c C02312455   0.105   6.033   2.039 -1.1255 -0.1119  1.9976
   674G12c C00G12456   0.234   6.275   2.137  0.6505  1.0036 -1.3811
   674G12c C00E12457   0.442   6.420   2.211  2.4246  1.3829  1.0460
   674G12c O00A12458   0.492   6.532   2.266  0.5229 -0.2964  0.5847
   674G12c C02412459   0.485   6.661   2.187 -0.8739  0.6311  0.4635
   674G12c H00V12460   0.445   6.623   2.093  3.5232 -3.1011 -0.0708
   674G12c H00U12461   0.424   6.746   2.219 -0.2720 -0.4763  4.9631
   674G12c H00T12462   0.580   6.702   2.152 -2.0620  6.6389  3.5520
   684G12c C00D12463   9.609  10.280   9.211 -0.4788  0.9129 -0.9886
   684G12c O00B12464   9.719  10.294   9.129 -1.2057  0.4067 -0.7784
   684G12c C02512465   9.772  10.432   9.119 -1.0249  3.9843 -0.8143
   684G12c C02612466   9.927  10.442   9.153 -1.1327 -0.7203  1.6303
   684G12c H00Y12467   9.956  10.426   9.257 -2.6988 -4.8285  1.5305
   684G12c H00X12468   9.980  10.527   9.111  0.8325 -1.7098  2.0295
   684G12c O00C12469   9.957  10.330   9.102 -1.1137  0.0940 -0.1352
   684G12c H00W12470   9.885  10.269   9.114  6.8640-12.6684 -5.7958
   684G12c C02712471   9.701  10.527   9.057  0.4226 -1.2550  0.3509
   684G12c O00D12472   9.572  10.501   9.008  0.4697  0.7440 -0.3025
   684G12c H00Z12473   9.537  10.432   9.062 -0.7751 -0.8615 -3.0478
   684G12c C02812474   9.772  10.661   9.053  0.1472 -0.6299  0.1782
   684G12c C02912475   9.867  10.693   8.959  0.0357 -0.5067 -0.3032
   684G12c H01012476   9.887  10.630   8.874  1.1287 -2.8769  1.6546
   684G12c C02T12477   9.927  10.818   8.944  0.5097 -0.4598  0.5903
   684G12c H01O12478   9.978  10.836   8.850 -1.4329  1.3119 -0.1669
   684G12c C02S12479   9.866  10.919   9.032  1.2994  1.5407  0.6469
   684G12c O00J12480   9.895  11.046   9.022 -0.8280  1.0475  0.6662
   684G12c H01P12481   9.872  11.128   9.062 -4.7847 -0.3886  1.5261
   684G12c C02R12482   9.793  10.883   9.165 -0.9414  0.4809  1.1368
   684G12c O00I12483   9.769  10.995   9.243  1.6261  0.0720  0.9368
   684G12c C02Q12484   9.717  10.979   9.370  0.6333 -0.4512 -0.6008
   684G12c H01N12485   9.645  11.055   9.399 -0.9817 -0.1464 -4.9341
   684G12c H01R12486   9.806  10.989   9.431 -0.8041 -2.8736  1.9933
   684G12c H01Q12487   9.679  10.877   9.382  0.5378 -0.4150 -0.5901
   684G12c C02A12488   9.738  10.753   9.164  1.4491 -0.4755  0.0086
   684G12c H01112489   9.644  10.721   9.206 -0.0676  4.7508  0.9011
   684G12c C00C12490   9.601  10.367   9.324 -2.3688  1.0702 -1.6336
   684G12c H01212491   9.630  10.463   9.364  0.5262 -1.7899  3.6340
   684G12c C00B12492   9.525  10.324   9.435 -0.1941  0.5329 -0.2651
   684G12c C00A12493   9.522  10.392   9.555  0.4008  0.3863  0.6660
   684G12c C00912494   9.628  10.471   9.613  0.3291  0.3251 -0.7600
   684G12c C00812495   9.755  10.450   9.576 -0.1655  0.3229 -0.2603
   684G12c H01312496   9.746  10.394   9.484 -0.6848  5.2117 -3.3307
   684G12c C00712497   9.866  10.468   9.671  0.2849 -1.0095  1.5908
   684G12c H01412498   9.970  10.463   9.643  0.0091 -2.2639  0.7229
   684G12c C00612499   9.840  10.465   9.807  0.3245  1.2711 -1.1766
   684G12c C00512500   9.697  10.478   9.844  1.0187 -0.4765 -0.0997
   684G12c C00412501   9.667  10.433   9.978 -0.1722 -0.1914  0.8730
   684G12c C00312502   9.531  10.371   9.986 -1.1295 -1.4498 -0.4348
   684G12c C00212503   9.517  10.320  10.132 -1.5359 -1.4058 -0.0481
   684G12c C00112504   9.419  10.249  10.190 -0.1876 -0.8848 -0.0110
   684G12c C00M12505   9.385  10.140  10.106 -0.4049 -0.7216 -0.8937
   684G12c C00L12506   9.315  10.147   9.988 -0.1549  0.4064 -0.9169
   684G12c C00R12507   9.290  10.023   9.913  0.9885 -0.4235 -0.2928
   684G12c C00Q12508   9.263   9.886   9.937  0.9172  0.6580 -0.7413
   684G12c C00V12509   9.239   9.809   9.825  1.3155  0.6552  0.8991
   684G12c C00U12510   9.240   9.866   9.690 -0.8376  2.3469 -1.0463
   684G12c C00T12511   9.257   9.999   9.659  2.1571 -0.9311  0.7535
   684G12c C01612512   9.312  10.044   9.543 -0.8763  1.8676  0.6874
   684G12c C01512513   9.323   9.951   9.437 -0.8198 -0.4356 -1.0399
   684G12c C01012514   9.269   9.820   9.449 -1.0271 -0.0259 -1.4416
   684G12c C01112515   9.246   9.742   9.334  1.8463 -0.6006  0.1862
   684G12c H00512516   9.174   9.662   9.338  3.3553 -1.8965  2.1338
   684G12c C01212517   9.307   9.780   9.219 -0.4188 -0.2393 -0.9752
   684G12c C01712518   9.298   9.691   9.100 -0.1820  0.4308  0.2663
   684G12c O00212519   9.407   9.602   9.088  0.5196  0.8899  0.3096
   684G12c H00412520   9.473   9.626   9.150 -6.4422  3.9496  7.2871
   684G12c C01812521   9.188   9.711   9.026 -0.1715  1.5728  0.6319
   684G12c O00112522   9.102   9.810   9.041  2.2519  0.3881  0.8591
   684G12c H00312523   9.113   9.869   9.114  1.9186  0.9454  0.4566
   684G12c C01912524   9.144   9.638   8.910 -1.3644 -1.1750  0.3007
   684G12c H00212525   9.059   9.664   8.848  2.3300 -0.7713 -4.9820
   684G12c H00112526   9.096   9.550   8.951 -0.5955 -3.7403 -3.9531
   684G12c O00012527   9.251   9.615   8.808 -1.2206 -0.8213 -0.3998
   684G12c C01A12528   9.281   9.733   8.735 -0.6262  1.0627  0.1792
   684G12c C02K12529   9.412   9.748   8.677 -1.0032 -0.5897  0.8879
   684G12c O00G12530   9.510   9.644   8.662  0.5592  0.1292  0.0180
   684G12c C02M12531   9.467   9.509   8.657  0.4908  0.5072 -0.8540
   684G12c H01G12532   9.408   9.463   8.737  3.8511 -2.2739  0.1540
   684G12c H01F12533   9.440   9.472   8.558 -0.1021  3.7221 -1.9404
   684G12c H01E12534   9.569   9.470   8.658  0.0960 -0.7919  3.9777
   684G12c C02J12535   9.449   9.861   8.587  0.0600 -4.1761  0.0078
   684G12c H01H12536   9.544   9.867   8.535 -0.1664  6.2525 -0.2935
   684G12c C02I12537   9.349   9.952   8.542  1.4955  0.2078 -0.4318
   684G12c C02N12538   9.387  10.051   8.456  0.0130 -0.1118  0.9209
   684G12c H01M12539   9.431  10.142   8.494  0.0571 -0.7520  2.4194
   684G12c C02O12540   9.326  10.081   8.335  1.2703  1.1952  0.9874
   684G12c H01L12541   9.294  10.019   8.252 -2.6272 -2.3830  4.8778
   684G12c C02P12542   9.333  10.226   8.289 -0.1650  0.9736  2.0064
   684G12c H01K12543   9.256  10.223   8.211  3.8660 -1.6601 -2.1487
   684G12c H01J12544   9.296  10.308   8.350 -3.0312 -1.7252  4.0998
   684G12c O00H12545   9.450  10.282   8.217  0.8017  0.8872  0.3907
   684G12c H01I12546   9.461  10.370   8.250  3.3884  1.5396 -2.0269
   684G12c C02H12547   9.214   9.962   8.622 -0.3027 -1.6963  0.4665
   684G12c H01C12548   9.150  10.046   8.600 -6.5366 -6.4771 -1.1349
   684G12c C02L12549   9.193   9.844   8.704 -0.4410  0.7733  1.9288
   684G12c H01D12550   9.095   9.844   8.749 -2.6994  0.9647 -2.7607
   684G12c C01312551   9.367   9.911   9.217 -0.8880 -1.1798 -0.8317
   684G12c H00012552   9.363   9.947   9.115 -1.6235  0.8569 -0.1122
   684G12c C01412553   9.386   9.993   9.328 -0.6401  0.0490 -1.5588
   684G12c C00F12554   9.457  10.124   9.329 -0.1397  0.3434  1.2688
   684G12c C00H12555   9.363  10.163   9.539 -1.2574 -0.3496 -1.2291
   684G12c C00I12556   9.353  10.248   9.652  0.5463  1.3372 -0.4079
   684G12c C00J12557   9.285  10.200   9.759  1.1701 -0.6535 -0.6035
   684G12c C00Z12558   9.220   9.786   9.571 -0.1289 -0.4825 -0.6521
   684G12c C00Y12559   9.176   9.653   9.597  0.5339  0.5417 -1.6964
   684G12c H00612560   9.148   9.589   9.515 -1.9465 -3.5151  2.0710
   684G12c C00X12561   9.178   9.585   9.727  1.4088 -1.4256  0.3601
   684G12c O00312562   9.157   9.452   9.737 -0.2918 -0.0772 -0.5034
   684G12c C01B12563   9.073   9.392   9.818  0.6598 -1.5952  1.6538
   684G12c H00912564   8.972   9.405   9.778  3.0533  3.8499 -3.2240
   684G12c H00812565   9.071   9.439   9.917 -3.8150 -1.5945  1.6586
   684G12c H00712566   9.070   9.283   9.823 -0.3654 -1.7661 -1.7276
   684G12c C00W12567   9.228   9.663   9.835 -0.3223 -1.5849 -1.4070
   684G12c O00412568   9.223   9.597   9.947 -0.1334 -0.2170 -0.1956
   684G12c C01C12569   9.271   9.671  10.056  1.5240 -0.9556  0.7721
   684G12c H00A12570   9.310   9.604  10.132  2.3169  2.2595  3.3340
   684G12c C00P12571   9.299   9.813  10.051 -1.0102 -0.7873  0.2915
   684G12c C00O12572   9.354   9.865  10.167  0.9049  0.5131  0.0705
   684G12c C01D12573   9.438   9.783  10.249 -0.2082 -0.9250 -0.5286
   684G12c H00S12574   9.433   9.676  10.241  2.1246 -1.0620 -0.6409
   684G12c C01E12575   9.536   9.829  10.331 -1.4609  0.1280 -0.5705
   684G12c O00812576   9.618   9.718  10.396 -0.1939 -1.0938 -0.1063
   684G12c C01V12577   9.681   9.621  10.310  0.1500  0.1575  1.2908
   684G12c C01Z12578   9.641   9.471  10.350  0.2402 -1.9399  0.3803
   684G12c H00R12579   9.725   9.407  10.378  3.1466  2.6528  2.7629
   684G12c H00Q12580   9.572   9.477  10.435 -1.6918 -1.1110 -1.2143
   684G12c O00912581   9.591   9.385  10.251 -0.1293 -1.7191  1.2886
   684G12c H00P12582   9.649   9.311  10.247  4.1621  1.5537 -2.3739
   684G12c C01W12583   9.766   9.676  10.233 -0.4825  2.6387 -0.8620
   684G12c H00O12584   9.782   9.781  10.255 -0.4084  1.5076  5.4548
   684G12c C01X12585   9.841   9.590  10.118  0.3671  0.0651 -0.6320
   684G12c H00N12586   9.930   9.648  10.091 -4.3721  5.9694 -4.9422
   684G12c H00M12587   9.879   9.491  10.141  1.6786  1.2054  2.3830
   684G12c C01Y12588   9.782   9.548   9.984 -0.4537  0.9694  1.0234
   684G12c C02D12589   9.773   9.424   9.914  0.7409  1.3869 -0.4197
   684G12c H01912590   9.846   9.346   9.930 -0.6856 -0.0267 -0.6133
   684G12c C02C12591   9.707   9.394   9.787  1.3340  1.3386 -2.6561
   684G12c H01A12592   9.702   9.291   9.755 -0.1245 -0.5954  3.1639
   684G12c C02B12593   9.632   9.499   9.721  1.2950 -0.7209  1.5387
   684G12c O00E12594   9.608   9.477   9.590 -1.2165  0.5267 -0.0618
   684G12c H01B12595   9.588   9.515   9.506  1.9327  1.1489 -0.6076
   684G12c C02F12596   9.604   9.628   9.800  0.6731 -0.4884  1.3553
   684G12c O00F12597   9.533   9.734   9.746 -0.6986 -0.3806 -0.3967
   684G12c C02G12598   9.583   9.798   9.626 -0.8060  1.1836  0.0073
   684G12c H01712599   9.520   9.886   9.610 -0.4020  1.7010  1.2111
   684G12c H01612600   9.590   9.742   9.532 -2.1621  3.0846 -1.2800
   684G12c H01512601   9.683   9.840   9.633 -1.6272  2.7650  2.9313
   684G12c C02E12602   9.680   9.631   9.930 -0.9646 -1.4612  0.6832
   684G12c H01812603   9.677   9.725   9.983 -5.8802  1.5598 -4.4849
   684G12c C01F12604   9.551   9.956  10.359  0.0410 -0.2473  1.3945
   684G12c C01G12605   9.654  10.016  10.455  0.2881 -0.5688 -0.4876
   684G12c H00L12606   9.721   9.941  10.495  0.7469  0.8238  1.4601
   684G12c C01H12607   9.672  10.164  10.445 -0.4405  0.8596 -1.2457
   684G12c H00B12608   9.772  10.188  10.478 -0.8478  3.4365 -1.7734
   684G12c C01I12609   9.596  10.236  10.343 -0.4376 -1.9741  0.5887
   684G12c C01U12610   9.460  10.047  10.290  0.9031  0.5727 -0.7272
   684G12c C00S12611   9.258  10.065   9.772 -0.3228  1.9462  0.6619
   684G12c C00K12612   9.330  10.254   9.895  0.4107  0.0924  0.1901
   684G12c C00N12613   9.386  10.009  10.176 -0.2041 -0.2566  0.3474
   684G12c C00012614   9.465  10.183  10.314 -0.0826  0.8208  1.4475
   684G12c C01J12615   9.631  10.322  10.223  0.6126 -1.1304 -1.1643
   684G12c C01K12616   9.745  10.424  10.214  0.7289 -0.2862 -1.0797
   684G12c C01P12617   9.842  10.474  10.307  0.1317  0.3410 -1.6067
   684G12c C01Q12618   9.808  10.469  10.450 -1.4453  2.4247  1.8867
   684G12c H00G12619   9.705  10.483  10.477 -0.9202  2.6924  3.8366
   684G12c C01R12620   9.880  10.522  10.549  0.5795  0.7089 -1.9594
   684G12c H00F12621   9.970  10.568  10.512  2.2439 -2.8863 -2.5995
   684G12c C01S12622   9.828  10.606  10.664 -1.0308 -0.3193  0.2002
   684G12c H00E12623   9.854  10.597  10.770  1.1174 -7.1986 -0.6232
   684G12c H00D12624   9.844  10.709  10.633  3.6312 -1.4676 -1.6566
   684G12c O00512625   9.686  10.594  10.678 -0.0817  0.2457  0.3452
   684G12c H00C12626   9.642  10.650  10.616 -0.0926  6.8886  5.7382
   684G12c C01O12627   9.974  10.511  10.244 -0.2372 -0.7870  0.9876
   684G12c H00H12628  10.050  10.551  10.309  0.3689 -3.5263  2.0417
   684G12c C01N12629   9.997  10.521  10.106  0.1302 -0.3671  0.0353
   684G12c O00612630  10.099  10.585  10.047  0.0004 -0.5476  0.2570
   684G12c C01T12631  10.161  10.703  10.096  0.6454 -0.7407  0.3791
   684G12c H00K12632  10.240  10.639  10.134 -0.4540 -0.8511  2.5323
   684G12c H00J12633  10.179  10.734   9.993 -2.6851  4.0330  1.0821
   684G12c H00I12634  10.095  10.772  10.148 -1.1746 -2.8034  0.8773
   684G12c C01M12635   9.894  10.486  10.027  1.4755  1.6761  1.0573
   684G12c C02012636   9.425  10.370   9.884 -2.4788 -0.1195  2.2709
   684G12c C02112637   9.466  10.439   9.774 -0.9948  0.2890  0.5480
   684G12c C01L12638   9.766  10.442  10.078  1.3563  0.5354  0.8126
   684G12c O00712639   9.927  10.463   9.904 -1.2282 -0.7056  1.4739
   684G12c C02212640   9.591  10.480   9.749 -1.2109  0.6713 -0.7731
   684G12c C02312641   9.424  10.368   9.648 -0.5706  0.1325  0.3737
   684G12c C00G12642   9.447  10.206   9.436  0.7779 -0.4471 -0.6379
   684G12c C00E12643   9.541  10.161   9.221 -2.8391  0.0612  0.1763
   684G12c O00A12644   9.559  10.082   9.102  1.1526 -2.2172  0.0580
   684G12c C02412645   9.501  10.136   8.977  0.7803 -0.3987 -0.4901
   684G12c H00V12646   9.576  10.177   8.909  2.3496 -1.3912  0.6049
   684G12c H00U12647   9.424  10.212   8.982 -0.3805 -0.9997 -6.0213
   684G12c H00T12648   9.482  10.047   8.916 -7.9022  3.1610 -3.7890
   694G12c C00D12649  10.502   1.552   1.134 -2.2166  0.3044 -0.7439
   694G12c O00B12650  10.502   1.656   1.232  0.4691 -0.0567  0.3259
   694G12c C02512651  10.378   1.714   1.249  1.0481 -2.6454 -0.8217
   694G12c C02612652  10.276   1.729   1.137  0.0305 -1.0862 -0.6762
   694G12c H00Y12653  10.169   1.707   1.142  0.1159 -3.0734 -5.0348
   694G12c H00X12654  10.319   1.686   1.046  4.3932 -5.8250  3.3196
   694G12c O00C12655  10.269   1.873   1.097  1.0307 -0.7933 -2.0059
   694G12c H00W12656  10.303   1.917   1.173  0.0485 -0.8834 -1.5178
   694G12c C02712657  10.349   1.721   1.382 -0.9253  0.8199 -0.2027
   694G12c O00D12658  10.436   1.680   1.484 -0.4518  0.4745  0.0863
   694G12c H00Z12659  10.526   1.686   1.455  0.6886 -3.6816  2.3759
   694G12c C02812660  10.210   1.757   1.431  1.7809 -0.3808  0.2701
   694G12c C02912661  10.125   1.879   1.406 -0.5786 -0.1652  1.1929
   694G12c H01012662  10.141   1.966   1.344  4.4536  2.6270  5.9811
   694G12c C02T12663   9.999   1.903   1.478 -1.3600 -0.5782  0.3739
   694G12c H01O12664   9.933   1.989   1.480 -1.6061 -0.3846 -5.7625
   694G12c C02S12665   9.963   1.799   1.562  0.4224  1.0376 -0.0158
   694G12c O00J12666   9.828   1.817   1.617  1.3646 -0.7622  0.0024
   694G12c H01P12667   9.827   1.806   1.711 -5.0223 -3.0623 -0.0710
   694G12c C02R12668  10.039   1.683   1.583  1.2536 -1.2912 -0.2986
   694G12c O00I12669  10.041   1.595   1.696  0.7943 -0.1758  0.3035
   694G12c C02Q12670   9.918   1.614   1.787 -0.0763 -1.6534 -0.9854
   694G12c H01N12671   9.956   1.561   1.875 -2.0630  0.1183  1.0042
   694G12c H01R12672   9.819   1.588   1.748  1.1842 -0.6923 -5.0112
   694G12c H01Q12673   9.890   1.709   1.832 -7.7064 -1.5437 -4.9959
   694G12c C02A12674  10.149   1.649   1.506  0.0127  0.5470  0.8954
   694G12c H01112675  10.191   1.551   1.524 -7.0565 -3.3064 -1.5352
   694G12c C00C12676  10.516   1.573   1.005 -1.0096 -0.4201  1.2859
   694G12c H01212677  10.518   1.672   0.962  2.6937 -0.8424  0.2757
   694G12c C00B12678  10.522   1.474   0.905  1.0073  0.5926  0.4542
   694G12c C00A12679  10.552   1.492   0.762  0.1405 -0.1099 -0.6988
   694G12c C00912680  10.485   1.580   0.664 -0.4063  0.9065 -0.7849
   694G12c C00812681  10.390   1.692   0.663 -2.0491 -0.8659  2.0650
   694G12c H01312682  10.341   1.760   0.731  1.0816 -1.1397  4.7347
   694G12c C00712683  10.348   1.735   0.521 -0.6700  1.1037 -0.4098
   694G12c H01412684  10.265   1.803   0.518 -0.1435  1.9184 -8.9108
   694G12c C00612685  10.366   1.653   0.412 -1.8580  0.6313  0.0213
   694G12c C00512686  10.454   1.546   0.429 -0.5297  1.0635 -0.6023
   694G12c C00412687  10.464   1.445   0.324 -1.4968 -0.7395 -0.2499
   694G12c C00312688  10.525   1.316   0.344 -2.1376 -0.1667 -1.9240
   694G12c C00212689  10.531   1.233   0.246 -0.1331 -0.5276  0.0323
   694G12c C00112690  10.581   1.114   0.235  0.7411  0.5451 -0.7720
   694G12c C00M12691  10.582   1.012   0.327  0.6225 -0.7435 -0.6747
   694G12c C00L12692  10.633   1.026   0.458  0.0289 -0.5685 -0.0088
   694G12c C00R12693  10.591   0.923   0.562 -0.8770 -0.0206 -0.6071
   694G12c C00Q12694  10.537   0.790   0.580 -0.2991 -0.4759 -0.9562
   694G12c C00V12695  10.492   0.769   0.721 -0.4504 -0.7365 -2.0724
   694G12c C00U12696  10.491   0.861   0.831  1.4791 -0.3387  2.0619
   694G12c C00T12697  10.536   0.982   0.810 -0.3067 -1.2212  0.0535
   694G12c C01612698  10.534   1.090   0.899  0.0000  0.6523  1.0610
   694G12c C01512699  10.480   1.062   1.023  0.6943  0.2009 -1.2798
   694G12c C01012700  10.433   0.934   1.049  0.2688  0.4185  1.3637
   694G12c C01112701  10.355   0.917   1.163 -0.4685 -1.0184  0.1031
   694G12c H00512702  10.302   0.829   1.195 -0.4553 -0.1611  2.5249
   694G12c C01212703  10.354   1.013   1.259 -1.0041 -0.2327  0.4427
   694G12c C01712704  10.304   0.963   1.379  0.7471  0.2514  0.5602
   694G12c O00212705  10.172   0.933   1.388 -0.9801 -0.1524 -1.0570
   694G12c H00412706  10.128   1.006   1.429  3.4840  1.6864  0.7530
   694G12c C01812707  10.395   0.917   1.476 -0.8016 -1.0591 -0.7928
   694G12c O00112708  10.537   0.936   1.480 -0.7059 -0.8663  0.6765
   694G12c H00312709  10.579   0.934   1.395 -0.0634  0.1841  0.9552
   694G12c C01912710  10.372   0.819   1.577  0.3302 -0.0272 -2.0683
   694G12c H00212711  10.417   0.853   1.671 -2.9980 -2.3093  0.4923
   694G12c H00112712  10.276   0.851   1.618  1.5106  2.2164 -0.9339
   694G12c O00012713  10.351   0.686   1.531 -0.1882  1.8926  0.1191
   694G12c C01A12714  10.262   0.599   1.601 -1.4166  0.7370  0.0945
   694G12c C02K12715  10.143   0.549   1.542 -0.2101 -1.0058  0.1031
   694G12c O00G12716  10.103   0.567   1.406 -0.3989  0.6433 -0.6290
   694G12c C02M12717  10.204   0.513   1.307 -1.2538  0.6364 -1.0175
   694G12c H01G12718  10.259   0.422   1.332  3.4663  2.8147 -2.7456
   694G12c H01F12719  10.276   0.574   1.252 -1.4538  5.0316  3.3123
   694G12c H01E12720  10.145   0.491   1.218  0.6338 -2.4601 -1.5745
   694G12c C02J12721  10.042   0.493   1.629 -1.4849  0.4623 -1.1495
   694G12c H01H12722   9.945   0.478   1.584 -3.0860  2.1588  1.5851
   694G12c C02I12723  10.074   0.453   1.768 -1.6525 -0.4999 -0.0618
   694G12c C02N12724   9.979   0.379   1.861 -0.3658  0.8309  0.1567
   694G12c H01M12725  10.016   0.341   1.956 -1.7065  0.9370  0.7419
   694G12c C02O12726   9.839   0.402   1.840 -0.4227  0.2823  0.8016
   694G12c H01L12727   9.800   0.463   1.761  2.0172 -2.2430 -2.5093
   694G12c C02P12728   9.739   0.394   1.939 -2.1475 -0.5033 -0.7571
   694G12c H01K12729   9.786   0.377   2.036 -1.2575  3.4679 -0.3774
   694G12c H01J12730   9.721   0.501   1.950  4.7540  0.6958  1.0491
   694G12c O00H12731   9.633   0.311   1.878 -0.0799 -0.4600 -0.1325
   694G12c H01I12732   9.681   0.252   1.822 -1.1918  2.2887 -4.1984
   694G12c C02H12733  10.205   0.483   1.814  2.3834  0.0411  1.8465
   694G12c H01C12734  10.215   0.456   1.918 -1.1402 -1.2189  1.9358
   694G12c C02L12735  10.286   0.570   1.735  0.1184 -0.2077 -0.2840
   694G12c H01D12736  10.371   0.600   1.795 -1.4022 -1.0396  2.3777
   694G12c C01312737  10.405   1.139   1.240  1.7397  0.1065 -1.0067
   694G12c H00012738  10.408   1.210   1.321  0.7232  0.0193 -0.8805
   694G12c C01412739  10.467   1.163   1.118 -0.1743  0.8740 -1.3966
   694G12c C00F12740  10.502   1.302   1.089 -0.9324 -0.7621 -1.4583
   694G12c C00H12741  10.591   1.222   0.873  1.1126  0.3520  1.2501
   694G12c C00I12742  10.619   1.241   0.735  0.8956  1.1036  0.7254
   694G12c C00J12743  10.621   1.131   0.654 -0.9898 -0.7725  1.1612
   694G12c C00Z12744  10.423   0.837   0.953  0.1496  0.7897 -0.1467
   694G12c C00Y12745  10.372   0.715   0.978  0.8023 -0.4746 -0.5792
   694G12c H00612746  10.374   0.694   1.084  3.1504 -0.5651 -0.6079
   694G12c C00X12747  10.370   0.617   0.869 -1.3479  1.0298 -0.3273
   694G12c O00312748  10.369   0.477   0.889 -2.3907  0.2304  0.9857
   694G12c C01B12749  10.273   0.417   0.976  0.6112 -1.3570 -0.0311
   694G12c H00912750  10.303   0.322   1.021  0.3447 -1.6548 -0.4776
   694G12c H00812751  10.183   0.425   0.914  0.7474 -3.0845 -0.4894
   694G12c H00712752  10.283   0.499   1.047 -0.3671 -1.2719  0.0133
   694G12c C00W12753  10.431   0.647   0.744 -0.2432  0.7833  0.1236
   694G12c O00412754  10.418   0.548   0.645 -1.1431  0.5271 -0.6392
   694G12c C01C12755  10.457   0.582   0.513  0.7227  0.3502 -0.5439
   694G12c H00A12756  10.436   0.515   0.432 -1.1207  0.0412  0.1628
   694G12c C00P12757  10.493   0.710   0.469  0.4467 -0.5670 -0.7564
   694G12c C00O12758  10.460   0.756   0.334  0.6056 -1.0120 -1.7009
   694G12c C01D12759  10.347   0.693   0.246 -1.0540  0.1089 -0.4377
   694G12c H00S12760  10.312   0.595   0.277 -2.5040 -1.5658 -6.6932
   694G12c C01E12761  10.267   0.744   0.137  0.6413  1.5916 -2.5968
   694G12c O00812762  10.150   0.700   0.096  0.3853  0.3218 -0.2510
   694G12c C01V12763  10.106   0.601   0.150 -0.4788 -2.2541 -1.3206
   694G12c C01Z12764  10.127   0.473   0.085  0.8233 -0.2325 -1.3876
   694G12c H00R12765  10.082   0.494  -0.012 -1.6766  2.1310  0.2078
   694G12c H00Q12766  10.232   0.443   0.084 -1.2379 -9.0329 -3.8837
   694G12c O00912767  10.043   0.360   0.104 -0.8979 -1.9239  0.0182
   694G12c H00P12768  10.049   0.331   0.015  2.2963  2.0125 -1.2350
   694G12c C01W12769   9.998   0.636   0.236 -0.1871  0.2289 -0.5670
   694G12c H00O12770   9.994   0.742   0.256  1.7946  1.4260 -5.7196
   694G12c C01X12771   9.911   0.532   0.291 -1.4194 -0.6119 -1.2036
   694G12c H00N12772   9.821   0.594   0.284 -1.2988 -0.7992 -9.9263
   694G12c H00M12773   9.874   0.453   0.225  1.7747  0.1629 -4.0933
   694G12c C01Y12774   9.906   0.516   0.444  0.3304  0.2419 -0.6788
   694G12c C02D12775   9.997   0.436   0.524 -1.4824 -0.8888 -1.1843
   694G12c H01912776  10.068   0.366   0.481  1.1626  0.7101  0.3990
   694G12c C02C12777  10.001   0.466   0.664 -0.2178 -1.5175  0.1412
   694G12c H01A12778  10.077   0.412   0.719  1.4971  2.3497  1.7877
   694G12c C02B12779   9.884   0.520   0.714 -1.2089 -1.4023 -0.7803
   694G12c O00E12780   9.888   0.537   0.846 -0.4686  0.3113  0.2830
   694G12c H01B12781   9.830   0.606   0.874  0.2928 -0.0978  3.0454
   694G12c C02F12782   9.801   0.617   0.639  0.9540 -0.8873 -0.7345
   694G12c O00F12783   9.688   0.673   0.688 -0.6441 -1.2850 -0.2445
   694G12c C02G12784   9.604   0.761   0.608  0.3671  0.0178  0.5520
   694G12c H01712785   9.528   0.791   0.680 -4.2626 -1.8550 -3.3024
   694G12c H01612786   9.565   0.713   0.518  1.8868 -1.7224  0.7942
   694G12c H01512787   9.668   0.846   0.585 -0.4333  0.6715  0.7084
   694G12c C02E12788   9.823   0.616   0.508 -0.4543  0.7680  0.9997
   694G12c H01812789   9.799   0.704   0.450 -1.3838 -1.6572 -2.4461
   694G12c C01F12790  10.320   0.872   0.105  0.1677 -0.4504 -1.0298
   694G12c C01G12791  10.244   0.972   0.037  0.2995  0.7978 -0.8834
   694G12c H00L12792  10.144   0.963  -0.003  1.7276 -2.1179 -4.0856
   694G12c C01H12793  10.296   1.109   0.013  0.6440 -0.1574 -1.0859
   694G12c H00B12794  10.240   1.176  -0.050  2.3920  0.5444 -1.9243
   694G12c C01I12795  10.407   1.151   0.090  0.6923 -0.3685 -1.3488
   694G12c C01U12796  10.439   0.935   0.160  1.0427  0.4415 -0.8327
   694G12c C00S12797  10.616   0.997   0.698  1.2824 -0.3353  0.5180
   694G12c C00K12798  10.638   1.162   0.509 -0.0285  1.0224 -0.0435
   694G12c C00N12799  10.491   0.885   0.282 -0.9507 -1.1009 -0.3667
   694G12c C00012800  10.495   1.066   0.132  0.7418  0.4923  0.9616
   694G12c C01J12801  10.471   1.269   0.124  0.0977 -1.1733  0.1626
   694G12c C01K12802  10.429   1.392   0.080 -0.4471 -0.4567  0.3037
   694G12c C01P12803  10.380   1.438  -0.039  0.1711  0.2693  0.4564
   694G12c C01Q12804  10.374   1.364  -0.154 -1.2814  0.7796 -1.5083
   694G12c H00G12805  10.274   1.340  -0.189 -2.0075  2.8012 -0.9183
   694G12c C01R12806  10.459   1.315  -0.236 -0.3424 -0.9645 -0.0686
   694G12c H00F12807  10.448   1.246  -0.318  1.1229 -2.3756  0.8975
   694G12c C01S12808  10.597   1.360  -0.229 -0.2767 -0.7773 -0.6843
   694G12c H00E12809  10.632   1.355  -0.126  0.2547 -1.4021 -0.8987
   694G12c H00D12810  10.652   1.278  -0.275 -1.8980 -1.2500 -1.8501
   694G12c O00512811  10.638   1.490  -0.290  0.0204  1.5949 -0.7356
   694G12c H00C12812  10.604   1.499  -0.378 -0.4958  2.6544 -0.4323
   694G12c C01O12813  10.349   1.579  -0.054  2.4228  0.6736 -0.2134
   694G12c H00H12814  10.369   1.622  -0.151  0.9958 -1.5189 -1.5367
   694G12c C01N12815  10.316   1.654   0.059 -1.0214  1.0899 -0.2708
   694G12c O00612816  10.241   1.772  -0.000  0.2007  0.2333 -0.9150
   694G12c C01T12817  10.315   1.895   0.038  0.3930  1.5350 -1.0906
   694G12c H00K12818  10.238   1.959   0.080 -1.9328  1.4304 -4.8955
   694G12c H00J12819  10.361   1.938  -0.051 -2.4256  4.5909 -1.1518
   694G12c H00I12820  10.407   1.869   0.090  0.3636  5.2546  0.9447
   694G12c C01M12821  10.322   1.596   0.184  0.5167  1.0893  0.3785
   694G12c C02012822  10.589   1.287   0.472 -0.2631  0.0905  0.7263
   694G12c C02112823  10.587   1.399   0.551 -0.4344 -0.9149 -0.4228
   694G12c C01L12824  10.399   1.472   0.199 -0.6891 -1.4058  1.5356
   694G12c O00712825  10.285   1.663   0.296 -1.0498  0.3916 -0.3244
   694G12c C02212826  10.538   1.527   0.539  0.3589 -0.8126  0.5279
   694G12c C02312827  10.611   1.381   0.689 -1.7137  0.2753  0.6482
   694G12c C00G12828  10.541   1.332   0.954  0.1839  0.3786  1.0533
   694G12c C00E12829  10.502   1.422   1.179 -0.0231  1.9902  0.9210
   694G12c O00A12830  10.477   1.417   1.317 -1.3997 -0.5020  1.0628
   694G12c C02412831  10.609   1.391   1.375 -0.2100  1.0486  0.5207
   694G12c H00V12832  10.644   1.315   1.305  6.3589  0.0747  4.4540
   694G12c H00U12833  10.604   1.355   1.477  1.6747 -1.5265 -0.2481
   694G12c H00T12834  10.648   1.491   1.355  1.3100  1.1958  3.9508
   704G12c C00D12835  10.492   9.669  13.174  1.1875  0.1571  0.4737
   704G12c O00B12836  10.604   9.698  13.111  0.0436 -0.0956 -1.2364
   704G12c C02512837  10.712   9.623  13.124  0.1927 -0.4247  0.3459
   704G12c C02612838  10.724   9.508  13.024  1.1518  0.6668  0.5091
   704G12c H00Y12839  10.786   9.552  12.947 -3.7471  3.5981 -2.0011
   704G12c H00X12840  10.632   9.483  12.971  1.1802 -6.7856  3.2993
   704G12c O00C12841  10.777   9.384  13.071  1.9115 -0.9884 -1.4628
   704G12c H00W12842  10.856   9.404  13.118 -0.3664  5.6055  0.0725
   704G12c C02712843  10.809   9.654  13.206 -0.5492 -0.0667 -1.4732
   704G12c O00D12844  10.787   9.777  13.268 -0.6316  0.4239 -0.8649
   704G12c H00Z12845  10.695   9.780  13.247 -0.2715 -2.9759 -3.4860
   704G12c C02812846  10.935   9.598  13.214  0.2275 -2.0566  0.9675
   704G12c C02912847  10.977   9.545  13.339  0.8758 -0.8425  0.6699
   704G12c H01012848  10.918   9.540  13.430  1.2529 -3.2345  0.8199
   704G12c C02T12849  11.118   9.508  13.363  0.7495  1.3868  1.7804
   704G12c H01O12850  11.170   9.483  13.454  2.7077 -3.7560 -0.5272
   704G12c C02S12851  11.206   9.494  13.237  0.5030  0.2318 -1.2917
   704G12c O00J12852  11.332   9.458  13.231 -1.7789  0.6374  0.9654
   704G12c H01P12853  11.368   9.466  13.143 -0.2604 -0.6754  1.4390
   704G12c C02R12854  11.156   9.559  13.126 -0.1257  0.1282  0.1776
   704G12c O00I12855  11.233   9.561  13.020 -1.0295  1.0164 -0.3671
   704G12c C02Q12856  11.229   9.431  12.944  1.0110  0.4420 -0.4164
   704G12c H01N12857  11.235   9.341  13.005  0.3274 -0.1349 -1.1792
   704G12c H01R12858  11.316   9.417  12.879 -1.5932  0.4018 -4.0490
   704G12c H01Q12859  11.158   9.432  12.861 -1.3572 -3.3634  1.4206
   704G12c C02A12860  11.023   9.597  13.101  0.0951  2.8080 -0.9051
   704G12c H01112861  11.002   9.633  13.001 -2.6752  1.3950 -0.8785
   704G12c C00C12862  10.466   9.558  13.260 -2.2338  1.6014 -0.3593
   704G12c H01212863  10.542   9.490  13.297 -7.3280 -5.6581 -2.1894
   704G12c C00B12864  10.351   9.532  13.341 -1.2751 -0.6639 -0.5731
   704G12c C00A12865  10.318   9.405  13.418 -1.2828  1.5441 -0.5690
   704G12c C00912866  10.355   9.269  13.367  0.5576  0.3977  1.1490
   704G12c C00812867  10.429   9.229  13.265  0.1260 -0.5508  0.5023
   704G12c H01312868  10.471   9.305  13.200 -0.2402 -0.0042  0.8960
   704G12c C00712869  10.438   9.080  13.228  2.5313  2.4599  1.3613
   704G12c H01412870  10.463   9.027  13.137  3.4529  4.4423  0.4308
   704G12c C00612871  10.327   9.012  13.271  1.4557 -1.0875  0.4109
   704G12c C00512872  10.234   9.069  13.369  0.2524  0.0873  0.8331
   704G12c C00412873  10.113   9.021  13.379  1.7750  0.2109 -0.2804
   704G12c C00312874  10.018   9.101  13.441  0.3620 -0.0077 -0.8836
   704G12c C00212875   9.888   9.039  13.473  0.2301  1.2177 -0.9651
   704G12c C00112876   9.758   9.096  13.509 -0.9416  0.8610 -0.8420
   704G12c C00M12877   9.708   9.230  13.522  2.8250 -0.0455  0.9102
   704G12c C00L12878   9.787   9.346  13.557  1.6936  1.9281  0.7633
   704G12c C00R12879   9.748   9.471  13.522 -1.0516  1.5425 -1.8853
   704G12c C00Q12880   9.631   9.528  13.478 -1.5019 -0.1617  0.7172
   704G12c C00V12881   9.657   9.672  13.437 -1.1017  0.2067  0.6635
   704G12c C00U12882   9.783   9.717  13.400  0.9922 -0.1751 -0.9983
   704G12c C00T12883   9.898   9.658  13.452 -0.2243  0.9136  0.3283
   704G12c C01612884  10.029   9.687  13.403  1.6257  0.4161 -0.1074
   704G12c C01512885  10.041   9.805  13.324 -0.2300  2.3583 -0.1858
   704G12c C01012886   9.927   9.883  13.296 -0.1763  2.5820  0.6087
   704G12c C01112887   9.961  10.011  13.247  1.0190  0.5157  0.6947
   704G12c H00512888   9.880  10.076  13.216  2.2006  1.4811 -0.4259
   704G12c C01212889  10.091  10.059  13.237  0.7122  1.8732  0.0288
   704G12c C01712890  10.125  10.201  13.196 -2.3289 -0.5050  0.2198
   704G12c O00212891  10.092  10.216  13.051  0.1492  1.0501 -0.6545
   704G12c H00412892  10.008  10.194  13.012 -1.5567 -0.3471  3.5203
   704G12c C01812893  10.205  10.288  13.271  0.0122  0.4712  1.7493
   704G12c O00112894  10.226  10.258  13.399  0.5207  1.2418  0.4247
   704G12c H00312895  10.276  10.337  13.412 -3.1914  4.8685 -5.0254
   704G12c C01912896  10.256  10.425  13.199 -0.2461  0.7779 -0.1255
   704G12c H00212897  10.300  10.369  13.116  0.3998 -4.8708  3.8044
   704G12c H00112898  10.167  10.487  13.205 -0.1026  1.0041 -0.3115
   704G12c O00012899  10.367  10.494  13.260  1.2860 -0.4037  0.2520
   704G12c C01A12900  10.491  10.448  13.226  0.8289 -0.2793 -0.2393
   704G12c C02K12901  10.535  10.474  13.096 -1.0287  1.3893  0.3654
   704G12c O00G12902  10.503  10.599  13.044 -0.0019 -0.0108 -0.6557
   704G12c C02M12903  10.599  10.691  13.017 -0.4381  0.3968  0.8871
   704G12c H01G12904  10.639  10.725  13.113  3.2100  1.1905 -0.8478
   704G12c H01F12905  10.554  10.770  12.957  0.2306  1.4801  1.7989
   704G12c H01E12906  10.685  10.628  12.995  2.2402  4.2691 -0.1281
   704G12c C02J12907  10.639  10.393  13.052 -0.5497  0.3905  1.3019
   704G12c H01H12908  10.680  10.437  12.962 -2.7547 -1.1423 -0.5077
   704G12c C02I12909  10.695  10.287  13.134  1.9723  0.3250 -0.5249
   704G12c C02N12910  10.781  10.186  13.080  0.1116  0.3735 -0.7704
   704G12c H01M12911  10.805  10.094  13.131 -3.0832 -2.2719 -3.7300
   704G12c C02O12912  10.861  10.203  12.975 -1.2148 -1.1719  0.2883
   704G12c H01L12913  10.819  10.284  12.919 -5.4949 -3.2873  0.2303
   704G12c C02P12914  10.988  10.137  12.936 -0.2460  1.6908  0.2101
   704G12c H01K12915  10.993  10.133  12.827 -5.0302  3.3347 -0.1858
   704G12c H01J12916  11.066  10.205  12.974  0.4437  0.5829  0.7989
   704G12c O00H12917  11.049  10.021  12.998 -0.6231 -0.0358  0.6166
   704G12c H01I12918  11.137   9.996  12.973 -0.1242  1.8972  0.3605
   704G12c C02H12919  10.653  10.271  13.261  0.4196 -0.5036  0.4643
   704G12c H01C12920  10.711  10.199  13.317  1.8292 -0.9969 -1.5601
   704G12c C02L12921  10.562  10.352  13.311 -0.3665 -0.9487  1.3449
   704G12c H01D12922  10.529  10.338  13.413  1.8046 -1.1030  2.0530
   704G12c C01312923  10.190   9.960  13.234 -0.8666 -0.3817 -0.8722
   704G12c H00012924  10.280  10.008  13.268 -2.2951 -2.0611  6.1309
   704G12c C01412925  10.154   9.828  13.261 -0.4982 -0.9690  1.4280
   704G12c C00F12926  10.249   9.727  13.246  0.5977 -0.0534  0.5795
   704G12c C00H12927  10.124   9.603  13.424  0.5918  2.1740  0.3957
   704G12c C00I12928  10.116   9.491  13.517  1.5112 -0.5919 -0.7375
   704G12c C00J12929   9.985   9.465  13.555  0.3297 -0.0501 -1.1351
   704G12c C00Z12930   9.807   9.844  13.333  2.0923 -0.5511 -0.4666
   704G12c C00Y12931   9.685   9.899  13.286 -0.9295  0.1984 -1.1880
   704G12c H00612932   9.681   9.986  13.222  1.2222  2.3753  1.4351
   704G12c C00X12933   9.553   9.858  13.319  1.5111 -1.2348  0.8035
   704G12c O00312934   9.434   9.925  13.301 -0.8011 -2.7210  0.6471
   704G12c C01B12935   9.412  10.015  13.411  0.8225 -0.1229 -0.0323
   704G12c H00912936   9.310  10.054  13.404  0.3255 -1.5567 -1.0678
   704G12c H00812937   9.498  10.082  13.404 -1.3815  3.1366  2.3531
   704G12c H00712938   9.432   9.962  13.504  2.4672  1.9714  0.8580
   704G12c C00W12939   9.544   9.738  13.382  0.2466 -0.3446  1.9211
   704G12c O00412940   9.430   9.665  13.352  1.0983 -0.4726 -0.8787
   704G12c C01C12941   9.412   9.563  13.450 -0.9723  0.9432  0.4422
   704G12c H00A12942   9.332   9.569  13.523  5.5330 -2.2763  8.5346
   704G12c C00P12943   9.511   9.476  13.459 -0.6033  0.0691 -0.3216
   704G12c C00O12944   9.508   9.353  13.393 -0.3586  2.3598 -0.8095
   704G12c C01D12945   9.454   9.326  13.266  0.0901  1.0383  1.6724
   704G12c H00S12946   9.415   9.408  13.207  1.3285  2.4551  2.7622
   704G12c C01E12947   9.438   9.198  13.213 -1.0679 -0.0132  1.0667
   704G12c O00812948   9.403   9.161  13.086 -0.0436 -1.3580  0.7101
   704G12c C01V12949   9.423   9.261  12.989  1.4974 -0.1362 -1.0526
   704G12c C01Z12950   9.530   9.213  12.891 -1.6200  0.7498  0.1844
   704G12c H00R12951   9.564   9.110  12.907 -3.8723  0.6563  5.6121
   704G12c H00Q12952   9.491   9.184  12.793 -1.1358 -2.5128  0.9076
   704G12c O00912953   9.618   9.330  12.879 -0.6140 -0.7343  1.1563
   704G12c H00P12954   9.658   9.336  12.964 -0.7095 -3.0800  1.3729
   704G12c C01W12955   9.329   9.349  12.957  0.5046  0.6364  1.9801
   704G12c H00O12956   9.317   9.390  12.858 -3.0768 -4.1106  0.2799
   704G12c C01X12957   9.201   9.367  13.041  0.8935  0.9289  2.0895
   704G12c H00N12958   9.106   9.325  13.008 -0.0212  0.6799  4.9118
   704G12c H00M12959   9.220   9.358  13.147  0.6302  7.9439  3.0192
   704G12c C01Y12960   9.183   9.521  13.056 -2.0214 -0.1743 -1.8636
   704G12c C02D12961   9.295   9.605  13.071  0.4971 -0.1609  1.4531
   704G12c H01912962   9.388   9.555  13.047 -2.2475 -4.0093 -1.8734
   704G12c C02C12963   9.295   9.737  13.113 -0.2385 -0.4082  1.2271
   704G12c H01A12964   9.386   9.792  13.129 -1.3100  2.1560 -1.1075
   704G12c C02B12965   9.172   9.800  13.140 -1.1516 -0.9430 -0.6040
   704G12c O00E12966   9.156   9.924  13.196 -0.5782  0.0588 -0.0181
   704G12c H01B12967   9.116   9.967  13.122  2.3593 -2.4280 -3.1640
   704G12c C02F12968   9.058   9.716  13.102  0.4653 -0.3431  1.0078
   704G12c O00F12969   8.927   9.780  13.120  0.0511  0.5709 -0.0458
   704G12c C02G12970   8.809   9.783  13.042  0.9553 -0.3997 -0.0668
   704G12c H01712971   8.797   9.864  12.970 -2.2088 -1.1429 -0.4734
   704G12c H01612972   8.784   9.702  12.973  1.8417 -0.0134 -0.8551
   704G12c H01512973   8.729   9.811  13.111 -1.1333  4.3209 -4.1084
   704G12c C02E12974   9.059   9.586  13.054 -0.8019 -1.1820  0.5431
   704G12c H01812975   8.976   9.526  13.020 -0.1182 -1.2610 -1.0406
   704G12c C01F12976   9.502   9.087  13.281  0.8351 -0.5445 -0.8934
   704G12c C01G12977   9.548   8.959  13.221  0.4586 -1.2320  1.1423
   704G12c H00L12978   9.494   8.925  13.134 -1.0023  1.2545  1.0417
   704G12c C01H12979   9.655   8.877  13.251 -0.6288 -0.0661 -0.0761
   704G12c H00B12980   9.691   8.812  13.172  2.6674  2.0613 -0.4154
   704G12c C01I12981   9.720   8.907  13.373  0.6193 -0.7703 -1.7258
   704G12c C01U12982   9.571   9.115  13.407  1.4655 -0.0402 -1.2993
   704G12c C00S12983   9.873   9.541  13.524  0.5318 -0.7434  0.9432
   704G12c C00K12984   9.935   9.332  13.543  1.5942 -0.1496 -0.0234
   704G12c C00N12985   9.578   9.254  13.449  0.0471 -0.6923  1.4718
   704G12c C00012986   9.672   9.021  13.437  1.4188  0.5792 -0.3824
   704G12c C01J12987   9.858   8.931  13.374  0.9352 -2.5775 -0.4100
   704G12c C01K12988   9.961   8.840  13.324  0.0113  0.0384 -1.4111
   704G12c C01P12989   9.951   8.708  13.270 -0.8818  0.4565 -1.1996
   704G12c C01Q12990   9.831   8.630  13.275 -0.1269 -0.4003 -0.1857
   704G12c H00G12991   9.799   8.608  13.174 -1.0620 -5.1506  1.0200
   704G12c C01R12992   9.763   8.619  13.394  0.2908  0.0811 -1.0559
   704G12c H00F12993   9.815   8.649  13.484  0.1439 -5.0571  0.8871
   704G12c C01S12994   9.650   8.532  13.422 -0.4798 -0.0823 -0.1465
   704G12c H00E12995   9.653   8.475  13.329 -3.6013  3.6280 -2.7093
   704G12c H00D12996   9.654   8.461  13.504  4.0418  1.6239  1.2459
   704G12c O00512997   9.545   8.630  13.453 -0.8789 -0.6862  0.8035
   704G12c H00C12998   9.474   8.586  13.408  1.0854 -1.9647 -1.1401
   704G12c C01O12999  10.061   8.643  13.200 -1.5226  0.7984 -0.8445
   704G12c H00H13000  10.059   8.536  13.186 -2.4173  0.3516  2.3234
   704G12c C01N13001  10.174   8.714  13.170 -0.0037 -0.6266  0.2501
   704G12c O00613002  10.296   8.653  13.130  1.3900 -0.7798 -0.0325
   704G12c C01T13003  10.313   8.520  13.094 -1.2480 -1.4381 -0.3797
   704G12c H00K13004  10.396   8.548  13.029 -1.8473  0.9858 -0.1521
   704G12c H00J13005  10.361   8.445  13.157  3.5059 -0.8847 -3.1170
   704G12c H00I13006  10.225   8.491  13.038 -7.2087  0.9966  6.8861
   704G12c C01M13007  10.194   8.835  13.242  2.8261 -1.1745 -1.3155
   704G12c C02013008  10.033   9.231  13.503  0.0737 -1.3419 -0.9511
   704G12c C02113009  10.173   9.259  13.512 -0.5305  0.0458  0.5526
   704G12c C01L13010  10.090   8.897  13.328  0.0505  1.2896 -1.2961
   704G12c O00713011  10.308   8.890  13.221 -0.2617  1.0328  0.3445
   704G12c C02213012  10.259   9.190  13.426  0.4665  0.8617  1.0990
   704G12c C02313013  10.212   9.396  13.504 -0.6863  0.8896  0.0249
   704G12c C00G13014  10.249   9.626  13.351 -1.3404  1.1158  0.3215
   704G12c C00E13015  10.371   9.751  13.173 -0.0945 -2.0572 -1.3436
   704G12c O00A13016  10.386   9.818  13.043 -0.6114 -0.6730  0.2644
   704G12c C02413017  10.321   9.770  12.937  0.3850 -1.2047  1.3955
   704G12c H00V13018  10.388   9.817  12.866 -1.6636 -3.2332 -2.0314
   704G12c H00U13019  10.231   9.824  12.905  1.4330 -2.0098 -3.3120
   704G12c H00T13020  10.357   9.671  12.912 -0.5410 -1.7230  2.0702
   714G12c C00D13021   3.677   1.195  11.491 -1.2942 -0.2792 -1.3438
   714G12c O00B13022   3.695   1.215  11.358 -0.6256  0.1364 -1.4854
   714G12c C02513023   3.811   1.209  11.288  0.7853 -0.0705  0.8330
   714G12c C02613024   3.775   1.238  11.141 -0.6019 -0.2850  1.3033
   714G12c H00Y13025   3.843   1.170  11.090 -2.8068 -1.1437 -0.5924
   714G12c H00X13026   3.799   1.343  11.124  1.7318  0.4340  7.5895
   714G12c O00C13027   3.638   1.224  11.118  0.0182 -0.1347  0.0967
   714G12c H00W13028   3.589   1.262  11.189 -3.3012 -1.1144 -1.5681
   714G12c C02713029   3.937   1.245  11.327 -0.4275  0.2454 -1.0109
   714G12c O00D13030   4.010   1.227  11.434 -0.1672 -0.0920 -0.6146
   714G12c H00Z13031   3.959   1.171  11.491  0.2824  2.6043  2.6623
   714G12c C02813032   4.052   1.247  11.226 -0.8285 -1.6040  0.4308
   714G12c C02913033   4.082   1.371  11.175 -0.2312  0.6027  0.7949
   714G12c H01013034   4.001   1.441  11.189 -1.2649 -1.2826  5.1086
   714G12c C02T13035   4.191   1.387  11.074  1.4798  0.8542 -1.2757
   714G12c H01O13036   4.189   1.486  11.030 -1.5531  1.7780  0.7756
   714G12c C02S13037   4.258   1.269  11.041  0.5367  0.5091  1.5236
   714G12c O00J13038   4.366   1.280  10.960 -0.7230 -0.0814 -0.4337
   714G12c H01P13039   4.407   1.360  10.931 -0.6196 -0.1205 -0.3929
   714G12c C02R13040   4.239   1.152  11.115  0.1062 -0.3370 -0.3870
   714G12c O00I13041   4.344   1.054  11.104 -0.3697 -0.2634  1.3705
   714G12c C02Q13042   4.424   1.046  11.218  0.0057 -0.5452  0.9685
   714G12c H01N13043   4.498   0.968  11.200  0.1893 -1.6567  5.8609
   714G12c H01R13044   4.509   1.112  11.203 -1.5403  1.0120 -1.3228
   714G12c H01Q13045   4.398   1.035  11.323 -0.4524  1.0362  1.0346
   714G12c C02A13046   4.121   1.130  11.205  0.0921  0.5342  0.4429
   714G12c H01113047   4.084   1.052  11.270  1.2574  0.2950  0.8369
   714G12c C00C13048   3.630   1.313  11.542  0.8155  0.5056  3.3239
   714G12c H01213049   3.644   1.407  11.490 -2.0548  2.3761  5.7490
   714G12c C00B13050   3.564   1.305  11.657  0.7873 -1.4569  0.7239
   714G12c C00A13051   3.482   1.407  11.728 -1.3264 -0.5181  0.3049
   714G12c C00913052   3.485   1.549  11.676  0.9392  0.1280  0.1068
   714G12c C00813053   3.512   1.639  11.565 -0.6330 -1.0822 -2.0468
   714G12c H01313054   3.488   1.605  11.465 -4.0166 -5.2672  0.0262
   714G12c C00713055   3.502   1.783  11.588 -0.8363  0.2062 -0.4955
   714G12c H01413056   3.512   1.846  11.501 -2.2156 -1.8255 -2.1801
   714G12c C00613057   3.499   1.840  11.709  0.4033 -0.1629  0.3907
   714G12c C00513058   3.480   1.744  11.816  0.0184 -0.7690 -0.3545
   714G12c C00413059   3.491   1.802  11.937 -0.0558 -0.0011  1.1596
   714G12c C00313060   3.477   1.707  12.043 -0.2383  1.1999 -1.1559
   714G12c C00213061   3.501   1.777  12.171 -0.9206 -0.0509 -0.1405
   714G12c C00113062   3.520   1.709  12.293 -1.9427 -1.5922  0.3684
   714G12c C00M13063   3.600   1.587  12.323 -1.3098  0.0474  1.6780
   714G12c C00L13064   3.589   1.474  12.255 -0.1755  1.1885 -0.3626
   714G12c C00R13065   3.645   1.342  12.272  0.6392  1.3818  0.5131
   714G12c C00Q13066   3.749   1.299  12.350 -0.4887 -0.1571  0.2668
   714G12c C00V13067   3.805   1.171  12.311 -1.1552  1.2724  0.9017
   714G12c C00U13068   3.770   1.118  12.188  0.2876  1.4188  0.9813
   714G12c C00T13069   3.679   1.170  12.100  0.5155 -1.1916  1.7258
   714G12c C01613070   3.641   1.121  11.973  1.3438 -0.2427  0.6317
   714G12c C01513071   3.717   1.016  11.933  0.4863 -0.6829 -0.6983
   714G12c C01013072   3.787   0.940  12.027 -0.0978  0.3162 -0.7819
   714G12c C01113073   3.870   0.824  11.978  0.1903 -0.2960  0.0686
   714G12c H00513074   3.906   0.735  12.027  1.1000 -1.6965 -2.9612
   714G12c C01213075   3.865   0.788  11.840  0.3188 -0.0953  0.3079
   714G12c C01713076   3.948   0.686  11.779 -0.0926  1.7039 -1.4838
   714G12c O00213077   3.903   0.550  11.754  0.2036 -0.8538  0.5389
   714G12c H00413078   3.965   0.508  11.697  6.0793  6.3589  0.8108
   714G12c C01813079   4.078   0.714  11.752 -0.9086 -0.5459  0.6224
   714G12c O00113080   4.114   0.855  11.759  0.0317 -0.4670  0.0967
   714G12c H00313081   4.050   0.910  11.800 -1.8196 -4.2629  2.5965
   714G12c C01913082   4.188   0.633  11.697  0.8144 -0.6448  0.0404
   714G12c H00213083   4.160   0.679  11.602 -1.4741  0.6112  1.2862
   714G12c H00113084   4.277   0.657  11.754 -1.4710 -1.7926  4.2708
   714G12c O00013085   4.176   0.481  11.687  0.0763  0.8813 -0.5173
   714G12c C01A13086   4.265   0.426  11.604 -0.0282  0.6040  0.6604
   714G12c C02K13087   4.399   0.418  11.629  1.5741  0.2394 -1.1291
   714G12c O00G13088   4.455   0.440  11.755  0.9483  0.3823 -0.2997
   714G12c C02M13089   4.378   0.403  11.870  1.0307 -0.2006  1.3737
   714G12c H01G13090   4.405   0.302  11.898  9.0867  0.6583 -2.0498
   714G12c H01F13091   4.283   0.448  11.901 -0.2461  1.0571 -3.8378
   714G12c H01E13092   4.440   0.462  11.938  1.1792 -0.2499  1.2812
   714G12c C02J13093   4.489   0.358  11.534  1.7206 -1.0976 -2.5488
   714G12c H01H13094   4.597   0.358  11.531  2.3120 -0.4774  6.6972
   714G12c C02I13095   4.441   0.279  11.420  0.3160  1.1514 -0.0595
   714G12c C02N13096   4.533   0.211  11.341  0.5010  0.5562 -0.9229
   714G12c H01M13097   4.503   0.120  11.291  3.2456 -0.7534 -0.2863
   714G12c C02O13098   4.652   0.269  11.307  0.4339 -0.7159  0.7482
   714G12c H01L13099   4.707   0.357  11.337  3.5321 -1.5815 -1.9994
   714G12c C02P13100   4.723   0.203  11.175  0.3298 -1.0876  0.4328
   714G12c H01K13101   4.700   0.289  11.112  2.0115 -4.2210 -4.7704
   714G12c H01J13102   4.657   0.135  11.122  0.7952 -0.2065 -1.3250
   714G12c O00H13103   4.855   0.163  11.159 -1.0232 -0.6671 -0.2072
   714G12c H01I13104   4.897   0.247  11.157 -0.6048 -0.6621  4.2365
   714G12c C02H13105   4.305   0.256  11.412  0.0846  0.0165 -0.4324
   714G12c H01C13106   4.258   0.175  11.359 -0.4765 -2.4621  3.6710
   714G12c C02L13107   4.220   0.342  11.498  0.0923 -0.4939 -2.1402
   714G12c H01D13108   4.113   0.355  11.496  0.1136 -0.2982 -5.6187
   714G12c C01313109   3.781   0.863  11.757 -0.0365  0.3883  0.0178
   714G12c H00013110   3.774   0.826  11.656  5.0308 -0.5171 -0.1436
   714G12c C01413111   3.729   0.996  11.801 -0.4195  2.3493 -0.9274
   714G12c C00F13112   3.677   1.093  11.703 -0.2464 -1.8999 -0.3777
   714G12c C00H13113   3.580   1.209  11.892 -0.2566 -1.5962  1.0747
   714G12c C00I13114   3.493   1.306  11.948 -0.2737  0.3656 -0.0257
   714G12c C00J13115   3.518   1.341  12.079  1.6197 -0.3034 -1.4479
   714G12c C00Z13116   3.810   0.985  12.156 -1.6523 -0.1435  2.7160
   714G12c C00Y13117   3.927   0.938  12.215 -0.7253  1.3972  0.8096
   714G12c H00613118   3.994   0.875  12.158 -2.7202 -1.0017  1.0011
   714G12c C00X13119   3.984   0.992  12.323  1.1186 -0.0303  0.6038
   714G12c O00313120   4.123   0.974  12.347 -0.4927 -1.2262  1.7600
   714G12c C01B13121   4.179   0.849  12.361  0.1740 -0.6205 -0.7509
   714G12c H00913122   4.127   0.756  12.386  2.1700 -0.7694  3.1941
   714G12c H00813123   4.282   0.859  12.393 -0.3457  0.9818  0.5239
   714G12c H00713124   4.192   0.805  12.262  5.5375  3.0845 -1.9157
   714G12c C00W13125   3.921   1.114  12.376 -0.6749  1.0715 -2.2674
   714G12c O00413126   3.970   1.184  12.491  1.0095  0.4146 -1.6644
   714G12c C01C13127   3.894   1.285  12.541 -2.0883  0.7005 -0.5275
   714G12c H00A13128   3.869   1.262  12.643  5.0760  0.9194  1.5104
   714G12c C00P13129   3.813   1.381  12.453  0.4531  1.6808 -0.9273
   714G12c C00O13130   3.799   1.522  12.481  0.1872  0.9966 -0.4056
   714G12c C01D13131   3.908   1.602  12.553  1.1792 -0.4378  2.3126
   714G12c H00S13132   3.995   1.551  12.592  0.3557  0.3333  5.2934
   714G12c C01E13133   3.900   1.742  12.578 -0.4838 -0.9439 -0.7073
   714G12c O00813134   4.014   1.804  12.643  1.1695 -0.1319  1.3967
   714G12c C01V13135   3.993   1.891  12.747  2.4493 -1.5365  1.1700
   714G12c C01Z13136   4.128   1.926  12.821  1.1920 -0.4336 -0.1465
   714G12c H00R13137   4.204   1.848  12.813  2.5631  1.1396 -3.4104
   714G12c H00Q13138   4.172   2.016  12.779  5.0287  0.5916  5.4857
   714G12c O00913139   4.109   1.980  12.956  0.6297  0.1245 -0.1041
   714G12c H00P13140   4.086   2.072  12.948 -9.9081 -0.8050  8.2162
   714G12c C01W13141   3.872   1.948  12.764 -2.5277 -0.9972 -0.1161
   714G12c H00O13142   3.783   1.899  12.728 -5.9972  6.7814 -3.4849
   714G12c C01X13143   3.843   2.096  12.796 -0.3174 -1.9480 -0.8339
   714G12c H00N13144   3.943   2.138  12.787 -0.5510 -0.1719  3.7483
   714G12c H00M13145   3.814   2.136  12.699  5.3977  1.9022 -1.2099
   714G12c C01Y13146   3.749   2.099  12.905 -1.1155 -0.2280  0.5243
   714G12c C02D13147   3.612   2.078  12.877  0.0123 -1.2875 -0.1507
   714G12c H01913148   3.598   2.078  12.770  6.0615 -2.5446 -1.1585
   714G12c C02C13149   3.507   2.064  12.978  0.5454  0.7686  0.3476
   714G12c H01A13150   3.405   2.095  12.959  0.4101  2.5893  3.5284
   714G12c C02B13151   3.555   2.080  13.117 -0.8549 -1.6673  0.4055
   714G12c O00E13152   3.448   2.069  13.208  0.6426 -0.3388  0.4732
   714G12c H01B13153   3.457   2.037  13.296 -5.3285 -6.2858 -0.6823
   714G12c C02F13154   3.688   2.090  13.163  1.8345 -0.0413 -0.6034
   714G12c O00F13155   3.733   2.048  13.286  0.4149 -0.3485  1.4003
   714G12c C02G13156   3.881   2.027  13.270  0.7466  0.8005  0.0048
   714G12c H01713157   3.918   1.971  13.184  1.1047 -1.7301  1.7750
   714G12c H01613158   3.918   1.996  13.368  4.9597 -0.3939 -1.8569
   714G12c H01513159   3.936   2.119  13.292  1.8771  0.0905  0.1968
   714G12c C02E13160   3.772   2.113  13.044 -0.2788 -1.2491  0.6309
   714G12c H01813161   3.876   2.128  13.073  1.0464 -3.3517 -2.7367
   714G12c C01F13162   3.801   1.811  12.499 -0.4746 -0.1343 -1.8454
   714G12c C01G13163   3.802   1.951  12.467 -0.6709 -1.1865  0.2414
   714G12c H00L13164   3.902   1.979  12.494 -1.1466 -2.9874  4.2100
   714G12c C01H13165   3.726   2.010  12.359 -0.4061 -2.5537  1.4380
   714G12c H00B13166   3.779   2.078  12.294  2.4500 -8.6933 -3.2475
   714G12c C01I13167   3.625   1.924  12.302 -0.3714 -0.1506  0.0112
   714G12c C01U13168   3.695   1.744  12.447  0.1941 -0.9368 -2.5778
   714G12c C00S13169   3.625   1.285  12.146  2.7260  1.8839 -0.5983
   714G12c C00K13170   3.503   1.469  12.135  0.0748 -0.0272 -1.3530
   714G12c C00N13171   3.689   1.602  12.427  0.8717 -0.0557  2.1606
   714G12c C00013172   3.594   1.809  12.362  2.1182  0.4217  0.9801
   714G12c C01J13173   3.577   1.891  12.175 -1.7493  0.0882  0.8289
   714G12c C01K13174   3.555   2.000  12.083  0.7979 -0.9062  1.0938
   714G12c C01P13175   3.566   2.130  12.097  1.0716 -0.7274 -0.3691
   714G12c C01Q13176   3.556   2.220  12.220  0.1700 -1.3592  0.7191
   714G12c H00G13177   3.619   2.243  12.305  1.8773 -1.6248 -0.4470
   714G12c C01R13178   3.437   2.258  12.236 -0.0327  2.5067 -1.0841
   714G12c H00F13179   3.412   2.311  12.327 -2.4581 -5.4333  3.4298
   714G12c C01S13180   3.318   2.205  12.169  0.1056 -1.5148  0.6191
   714G12c H00E13181   3.319   2.255  12.073  4.1893 -7.3019 -2.7231
   714G12c H00D13182   3.303   2.097  12.160 -5.3554 -1.9041  8.5659
   714G12c O00513183   3.207   2.202  12.264  0.4371 -0.3010 -0.5414
   714G12c H00C13184   3.141   2.154  12.216 -1.5835  1.8691 -0.0179
   714G12c C01O13185   3.579   2.205  11.973 -0.3258  0.8798  1.0464
   714G12c H00H13186   3.596   2.312  11.980 -1.3091  1.2225 -1.3088
   714G12c C01N13187   3.570   2.145  11.850  0.9725  0.0997  1.5602
   714G12c O00613188   3.596   2.210  11.727 -1.6155 -0.4485  0.7045
   714G12c C01T13189   3.489   2.309  11.721  0.3290  0.9668 -0.5690
   714G12c H00K13190   3.388   2.279  11.747 -0.0640  1.4711 -1.4990
   714G12c H00J13191   3.524   2.412  11.729  3.5190  0.5463 -6.5270
   714G12c H00I13192   3.446   2.324  11.623  2.3955  0.5015 -1.5763
   714G12c C01M13193   3.535   2.020  11.838  0.7261 -0.0316 -0.3452
   714G12c C02013194   3.444   1.568  12.045 -0.7304 -0.5787  0.1658
   714G12c C02113195   3.408   1.529  11.903 -0.5584 -0.1966  0.0746
   714G12c C01L13196   3.531   1.936  11.955  0.1737 -1.1159  0.4933
   714G12c O00713197   3.503   1.971  11.707 -1.9491 -1.1604  0.6155
   714G12c C02213198   3.445   1.609  11.797 -0.2497 -0.6989 -0.7674
   714G12c C02313199   3.429   1.391  11.860 -0.6961  0.0494  1.1297
   714G12c C00G13200   3.608   1.202  11.746  2.3438  1.7393  0.4389
   714G12c C00E13201   3.700   1.080  11.566 -0.7900  0.1921  0.8541
   714G12c O00A13202   3.752   0.970  11.485  0.5074  0.6705  0.5740
   714G12c C02413203   3.662   0.877  11.423 -1.0719  1.1638  0.5995
   714G12c H00V13204   3.567   0.863  11.476 -0.3245  2.8814  2.4299
   714G12c H00U13205   3.630   0.921  11.328 -2.1869 -2.5775 -0.8625
   714G12c H00T13206   3.717   0.795  11.377 -1.4892  0.0663  2.0289
   724G12c C00D13207   5.165   7.145   4.147  0.6246 -1.2889 -0.0588
   724G12c O00B13208   5.128   7.282   4.107  0.3292  0.3358 -0.8403
   724G12c C02513209   5.218   7.366   4.036 -0.5523 -1.4674  0.0177
   724G12c C02613210   5.147   7.495   4.000 -0.0934  1.5722 -1.6718
   724G12c H00Y13211   5.041   7.471   4.001 -0.9088  4.7530  3.3227
   724G12c H00X13212   5.172   7.522   3.897  0.7254  2.0110 -1.3646
   724G12c O00C13213   5.154   7.588   4.108 -0.7854 -2.2011 -0.2371
   724G12c H00W13214   5.104   7.540   4.173 -1.9719  0.1876  0.6756
   724G12c C02713215   5.344   7.342   4.007  0.1022 -1.1773  1.5144
   724G12c O00D13216   5.417   7.243   4.080  0.2511  1.8440  0.5012
   724G12c H00Z13217   5.371   7.269   4.158 -0.8271  1.2513  0.0753
   724G12c C02813218   5.414   7.428   3.911  1.0870 -0.5674  0.6699
   724G12c C02913219   5.518   7.388   3.807  0.4820 -1.5696  1.8875
   724G12c H01013220   5.568   7.293   3.815  1.6329 -1.3749 -2.0444
   724G12c C02T13221   5.623   7.464   3.752 -2.2825  0.7799 -0.5701
   724G12c H01O13222   5.696   7.428   3.681 -0.3876  1.9895  0.7449
   724G12c C02S13223   5.628   7.606   3.779 -1.7950  2.1830 -0.5704
   724G12c O00J13224   5.742   7.670   3.723  0.7452 -0.5090 -0.0486
   724G12c H01P13225   5.754   7.734   3.791 -4.0031 -1.5035  1.9677
   724G12c C02R13226   5.533   7.651   3.862 -0.3887 -1.0332 -0.6602
   724G12c O00I13227   5.561   7.785   3.892  0.8403 -1.3129  0.6308
   724G12c C02Q13228   5.474   7.831   3.999 -0.5042 -0.9571  0.3158
   724G12c H01N13229   5.515   7.931   4.011  3.9755 -2.5549 -0.4863
   724G12c H01R13230   5.367   7.849   3.997 -0.7446 -2.3539 -2.7971
   724G12c H01Q13231   5.515   7.793   4.092  1.6708  2.9036  1.0473
   724G12c C02A13232   5.419   7.574   3.915 -2.3933  0.5803 -0.2640
   724G12c H01113233   5.352   7.627   3.980 -6.9014 -2.1598 -2.4686
   724G12c C00C13234   5.190   7.042   4.061 -0.9918 -0.0071 -0.2974
   724G12c H01213235   5.169   7.095   3.969 -5.5738  0.7627  1.0656
   724G12c C00B13236   5.235   6.920   4.114  0.2707  0.1255 -0.2894
   724G12c C00A13237   5.252   6.795   4.038  0.7497 -2.0584 -0.3666
   724G12c C00913238   5.168   6.750   3.945  0.7121  0.1978  0.1647
   724G12c C00813239   5.050   6.791   3.865 -0.4235  0.2295 -0.1264
   724G12c H01313240   5.043   6.898   3.869  7.6586  0.9990  0.9091
   724G12c C00713241   4.942   6.708   3.851  0.0600 -1.9045  0.3303
   724G12c H01413242   4.852   6.767   3.858  0.8234 -0.3621 -1.8830
   724G12c C00613243   4.943   6.576   3.888 -0.1560  0.6496 -0.9555
   724G12c C00513244   5.064   6.521   3.952  0.4455  0.5632  0.1306
   724G12c C00413245   5.040   6.408   4.015 -0.6123 -0.9769 -0.9728
   724G12c C00313246   5.128   6.374   4.101 -1.7087  0.1726 -0.4841
   724G12c C00213247   5.118   6.234   4.151 -0.8990  1.6937 -1.2595
   724G12c C00113248   5.214   6.186   4.236  1.2055  1.2306 -0.1575
   724G12c C00M13249   5.254   6.240   4.360 -0.6175  2.1493  0.0772
   724G12c C00L13250   5.318   6.363   4.376 -1.0827 -1.3245 -0.7606
   724G12c C00R13251   5.319   6.438   4.502 -0.5951 -0.5818  1.7129
   724G12c C00Q13252   5.327   6.395   4.624  1.2043 -1.4023  0.6837
   724G12c C00V13253   5.334   6.517   4.712  0.7273  1.2920 -0.2270
   724G12c C00U13254   5.337   6.649   4.653  1.2515  0.5142  0.8539
   724G12c C00T13255   5.341   6.672   4.525  1.7951  0.3794 -0.0263
   724G12c C01613256   5.317   6.791   4.449 -1.0424  0.5397  0.9116
   724G12c C01513257   5.283   6.893   4.520  1.9559  0.8176 -0.2963
   724G12c C01013258   5.292   6.885   4.662 -2.3537  1.4062 -1.9736
   724G12c C01113259   5.298   6.997   4.737  0.4433 -1.7257 -1.0454
   724G12c H00513260   5.298   7.006   4.844  3.4644 -1.5895 -1.0057
   724G12c C01213261   5.268   7.115   4.677 -1.5484 -0.4209 -0.0864
   724G12c C01713262   5.248   7.236   4.761  0.2118  0.0078 -1.1440
   724G12c O00213263   5.360   7.283   4.822  0.5581 -0.5700 -1.0227
   724G12c H00413264   5.360   7.343   4.895  4.8058  1.1386 -2.2489
   724G12c C01813265   5.125   7.262   4.821  0.1215 -1.0193  1.3915
   724G12c O00113266   5.014   7.212   4.764 -0.0246 -0.7417 -0.0513
   724G12c H00313267   4.943   7.274   4.754  0.9756  0.9871  3.0594
   724G12c C01913268   5.099   7.386   4.899 -0.6620  2.3107 -1.1809
   724G12c H00213269   4.990   7.384   4.899 -0.7186  0.4970  2.5441
   724G12c H00113270   5.142   7.372   4.998 -1.6145 -1.2231 -1.1959
   724G12c O00013271   5.167   7.483   4.829  0.1631  1.0581 -0.0556
   724G12c C01A13272   5.098   7.522   4.729  0.8096  0.4343  0.5958
   724G12c C02K13273   4.949   7.540   4.726 -1.0545  0.5904 -1.4381
   724G12c O00G13274   4.859   7.537   4.825 -0.6577 -0.1610 -1.8311
   724G12c C02M13275   4.862   7.630   4.920 -0.5293 -0.5426  1.4746
   724G12c H01G13276   4.865   7.729   4.875 -2.3199 -0.0035  2.5014
   724G12c H01F13277   4.954   7.616   4.977 -0.3558 -6.9486 -0.0252
   724G12c H01E13278   4.772   7.600   4.973 -0.5558 -2.4792  0.3823
   724G12c C02J13279   4.895   7.555   4.600 -0.5364 -2.7271  0.2470
   724G12c H01H13280   4.790   7.571   4.580  1.1647  1.7539 -6.7045
   724G12c C02I13281   4.973   7.550   4.484 -0.2500  1.3798 -1.1113
   724G12c C02N13282   4.931   7.543   4.344 -1.3873 -0.2601 -0.3039
   724G12c H01M13283   4.937   7.455   4.281 -1.6227  0.1256 -0.8702
   724G12c C02O13284   4.872   7.648   4.300  0.4463  0.4123 -0.4218
   724G12c H01L13285   4.830   7.724   4.365 -1.5272 -3.0999  2.6376
   724G12c C02P13286   4.794   7.673   4.168 -1.5770  2.2665 -0.3314
   724G12c H01K13287   4.709   7.718   4.219 -3.4940 -4.9772  3.6146
   724G12c H01J13288   4.832   7.722   4.078  0.8877 -0.6718 -0.9966
   724G12c O00H13289   4.769   7.539   4.119  0.4074  0.9192  2.1449
   724G12c H01I13290   4.679   7.548   4.093  0.6917 -0.7589  0.4869
   724G12c C02H13291   5.113   7.548   4.496  0.8413 -0.8343  0.9240
   724G12c H01C13292   5.149   7.593   4.405 -4.6519  1.8456 -0.1442
   724G12c C02L13293   5.183   7.543   4.615  2.0058  0.8200  0.7115
   724G12c H01D13294   5.290   7.537   4.606  2.5824  7.2267  0.8826
   724G12c C01313295   5.214   7.111   4.545 -0.1142 -0.7378  0.4966
   724G12c H00013296   5.217   7.207   4.497  4.3291  0.0379  2.1391
   724G12c C01413297   5.225   6.999   4.464  0.3935  0.4546  1.0040
   724G12c C00F13298   5.229   7.031   4.327 -0.3319  0.3940  0.1216
   724G12c C00H13299   5.312   6.795   4.309 -0.1033  0.5025  0.0995
   724G12c C00I13300   5.368   6.685   4.231 -1.4719  0.2016 -0.2359
   724G12c C00J13301   5.361   6.564   4.318  1.2010 -0.3405  1.3153
   724G12c C00Z13302   5.301   6.762   4.729 -0.4250 -1.1891 -0.3921
   724G12c C00Y13303   5.332   6.752   4.875 -1.4375 -0.4865 -1.5712
   724G12c H00613304   5.387   6.837   4.912  1.5789 -2.6226 -0.9900
   724G12c C00X13305   5.331   6.633   4.937  0.8001  0.5599 -0.3381
   724G12c O00313306   5.315   6.628   5.067  0.0857 -0.6709 -0.2755
   724G12c C01B13307   5.190   6.680   5.115 -1.0314 -0.9497 -0.2821
   724G12c H00913308   5.126   6.683   5.027  8.2472  2.6176 -7.7172
   724G12c H00813309   5.164   6.610   5.194 -2.8896  2.0907  1.9669
   724G12c H00713310   5.200   6.782   5.154  1.1824  0.9822 -5.4816
   724G12c C00W13311   5.324   6.515   4.851 -2.9444 -1.1597  1.6648
   724G12c O00413312   5.322   6.401   4.917 -0.0106  1.1709  0.6393
   724G12c C01C13313   5.300   6.276   4.843  0.1656  0.0095 -0.6989
   724G12c H00A13314   5.246   6.207   4.907  1.5966  4.5565  5.9826
   724G12c C00P13315   5.295   6.271   4.696  0.8635  0.2438  0.7588
   724G12c C00O13316   5.221   6.171   4.610  1.3251 -1.4651 -0.1538
   724G12c C01D13317   5.136   6.070   4.690  1.6992 -0.4182  0.2322
   724G12c H00S13318   5.137   6.088   4.797  4.3385  3.9158 -0.3951
   724G12c C01E13319   5.022   6.013   4.640  0.5461 -1.3847  0.6061
   724G12c O00813320   4.964   5.905   4.697  1.2356 -1.0424 -0.7125
   724G12c C01V13321   5.037   5.833   4.788 -0.0215 -1.4760 -1.5877
   724G12c C01Z13322   5.155   5.745   4.736  0.7022  0.6329 -0.7555
   724G12c H00R13323   5.189   5.796   4.646  3.2188 -2.0385 -1.3800
   724G12c H00Q13324   5.235   5.740   4.810 -5.1005  1.4991  6.1237
   724G12c O00913325   5.093   5.609   4.725 -1.4118  0.7220 -0.7122
   724G12c H00P13326   5.125   5.549   4.790 -3.1558  0.5169 -0.0145
   724G12c C01W13327   4.984   5.817   4.916  1.0566  0.3294  1.3014
   724G12c H00O13328   4.886   5.841   4.956 -0.7826  0.2087 -2.8468
   724G12c C01X13329   5.068   5.739   5.031  0.7481 -1.2949  0.2597
   724G12c H00N13330   5.171   5.705   5.026  1.6490  1.5316 -2.5052
   724G12c H00M13331   5.079   5.802   5.119  3.0379 -1.1157 -0.1280
   724G12c C01Y13332   4.973   5.619   5.075 -0.9820 -1.3196 -1.3674
   724G12c C02D13333   4.989   5.488   5.007  0.8338  2.2919 -0.9351
   724G12c H01913334   5.031   5.448   4.916 -1.4955 -4.2897  0.6585
   724G12c C02C13335   4.917   5.392   5.080  0.0628 -1.5403 -0.4353
   724G12c H01A13336   4.932   5.291   5.045  3.3795 -1.4780  0.5700
   724G12c C02B13337   4.851   5.407   5.193  0.4485  1.1864 -1.5069
   724G12c O00E13338   4.812   5.290   5.241 -0.2923  0.5711  1.1082
   724G12c H01B13339   4.748   5.310   5.308 -1.2285 -1.8643  0.9768
   724G12c C02F13340   4.831   5.537   5.257  0.0632  0.4362  0.5561
   724G12c O00F13341   4.785   5.543   5.388 -1.1217  0.6704 -1.4997
   724G12c C02G13342   4.738   5.654   5.437 -0.1540 -0.6700 -0.9436
   724G12c H01713343   4.837   5.701   5.440 -3.1643  6.1946  1.0499
   724G12c H01613344   4.661   5.695   5.373 -1.7380  1.2784  2.0860
   724G12c H01513345   4.689   5.637   5.533  3.6415  7.4110  2.9631
   724G12c C02E13346   4.888   5.649   5.189  0.3226  1.2546 -1.2033
   724G12c H01813347   4.894   5.747   5.234 -2.1806 -0.3874  2.9685
   724G12c C01F13348   5.035   6.006   4.497  1.7352 -1.0857 -0.4039
   724G12c C01G13349   4.924   5.963   4.413 -0.0628  1.1445  1.3011
   724G12c H00L13350   4.841   5.920   4.467  2.5788 -3.1861  2.1749
   724G12c C01H13351   4.917   5.988   4.276  0.3371 -0.8240 -0.4454
   724G12c H00B13352   4.838   5.966   4.207  2.1835 -1.6185 -2.3607
   724G12c C01I13353   5.020   6.056   4.202 -2.0532 -0.1819 -0.7962
   724G12c C01U13354   5.128   6.066   4.410  1.0403 -0.7740 -2.3665
   724G12c C00S13355   5.367   6.557   4.451  0.5742 -0.0305 -1.5454
   724G12c C00K13356   5.303   6.456   4.269 -0.7282  0.1072  0.5141
   724G12c C00N13357   5.200   6.171   4.473 -0.5495 -0.9613 -0.1615
   724G12c C00013358   5.152   6.062   4.271 -0.7873  0.2417 -0.0218
   724G12c C01J13359   5.005   6.166   4.121 -0.5776 -1.9641 -0.1382
   724G12c C01K13360   4.893   6.208   4.047  0.0468 -0.0496  0.6298
   724G12c C01P13361   4.795   6.128   3.995 -0.5047  0.3258 -1.4344
   724G12c C01Q13362   4.809   5.992   3.960 -1.1136 -0.8374  0.5072
   724G12c H00G13363   4.901   5.956   3.918 -0.9893  2.2396 -2.0805
   724G12c C01R13364   4.705   5.903   3.988  2.3762  1.4450 -1.0547
   724G12c H00F13365   4.607   5.920   4.029  2.2232  3.4186 -2.2095
   724G12c C01S13366   4.720   5.753   3.966  1.6247  0.7844  1.6788
   724G12c H00E13367   4.639   5.755   3.892  2.0144 -0.7992  1.1799
   724G12c H00D13368   4.818   5.723   3.930  1.6875  1.2751  1.4495
   724G12c O00513369   4.680   5.652   4.057  0.2628  0.7726 -1.2073
   724G12c H00C13370   4.715   5.659   4.145  2.9040  2.1689 -2.3232
   724G12c C01O13371   4.691   6.202   3.949 -0.0441 -0.1327  0.8871
   724G12c H00H13372   4.596   6.150   3.955 -1.9561  2.8045 -2.1527
   724G12c C01N13373   4.686   6.341   3.929 -0.3807 -0.7117  0.7176
   724G12c O00613374   4.566   6.389   3.895 -0.0101  1.5768  1.6750
   724G12c C01T13375   4.532   6.529   3.944 -1.1327  1.1329 -0.4719
   724G12c H00K13376   4.607   6.592   3.992 -1.9259  4.1646 -3.0867
   724G12c H00J13377   4.423   6.538   3.949 -1.5484 -2.8563 -0.5931
   724G12c H00I13378   4.550   6.573   3.846  6.4007 -2.4457 -1.0596
   724G12c C01M13379   4.811   6.405   3.945  1.0293  0.9303  0.1289
   724G12c C02013380   5.242   6.463   4.133  0.3687 -0.6737  0.5017
   724G12c C02113381   5.277   6.571   4.046  1.7962  1.3176  0.3683
   724G12c C01L13382   4.925   6.333   3.997 -1.0465  0.2710 -0.5075
   724G12c O00713383   4.824   6.529   3.912  0.8033  1.0793 -0.9839
   724G12c C02213384   5.174   6.607   3.977  0.8564 -0.3075 -1.2926
   724G12c C02313385   5.334   6.698   4.085  1.3018  0.2523 -1.0174
   724G12c C00G13386   5.286   6.925   4.243  1.0387  0.2409  0.0814
   724G12c C00E13387   5.175   7.148   4.275  1.2675  0.6419 -0.6221
   724G12c O00A13388   5.107   7.233   4.345  0.6406 -0.2577  0.3381
   724G12c C02413389   4.969   7.200   4.375 -1.8923 -0.8040 -0.0892
   724G12c H00V13390   4.957   7.096   4.406  4.6696 -1.2534  1.6597
   724G12c H00U13391   4.919   7.230   4.282  2.0700  2.3840 -1.3122
   724G12c H00T13392   4.937   7.244   4.469 -0.4223  0.9672 -0.3972
   734G12c C00D13393   8.154   1.517   5.040  1.3842 -0.0162 -0.0767
   734G12c O00B13394   8.135   1.373   5.063 -0.0474 -0.3522  0.9949
   734G12c C02513395   8.004   1.332   5.029 -0.2517  0.0950 -1.0292
   734G12c C02613396   7.909   1.334   5.138  0.4073 -0.1079 -0.7517
   734G12c H00Y13397   7.945   1.336   5.241 -0.2230 -5.6655 -0.2520
   734G12c H00X13398   7.856   1.239   5.133  0.8500 -0.2425 -3.6976
   734G12c O00C13399   7.798   1.421   5.115 -0.9642  0.2257  1.7347
   734G12c H00W13400   7.757   1.404   5.032  6.0093 -2.8351 -1.3952
   734G12c C02713401   7.983   1.258   4.915 -1.7820 -0.1788 -1.7528
   734G12c O00D13402   8.101   1.226   4.859  0.2169  1.3791  0.9393
   734G12c H00Z13403   8.186   1.242   4.897  3.1798 -7.0130 -0.9242
   734G12c C02813404   7.855   1.216   4.855  1.7320  0.8180  0.4377
   734G12c C02913405   7.791   1.315   4.767 -0.0114  0.1772  0.3708
   734G12c H01013406   7.843   1.399   4.722  2.2678 -0.8744  0.9837
   734G12c C02T13407   7.673   1.287   4.701  0.0407 -0.6308  0.1831
   734G12c H01O13408   7.625   1.338   4.619 -0.1269 -0.2832  0.4974
   734G12c C02S13409   7.626   1.162   4.711  0.0295  1.5789  0.2044
   734G12c O00J13410   7.530   1.109   4.619  1.7943 -1.2057 -0.3128
   734G12c H01P13411   7.555   1.021   4.643  0.7335 -1.2850  0.5868
   734G12c C02R13412   7.675   1.060   4.791 -1.8876 -0.0687  0.3200
   734G12c O00I13413   7.612   0.946   4.797 -0.2150 -0.5101 -0.5397
   734G12c C02Q13414   7.508   0.914   4.893 -0.1969  0.0325  0.3812
   734G12c H01N13415   7.455   0.993   4.947  1.8927  1.2024  0.7726
   734G12c H01R13416   7.467   0.814   4.882 -0.1836 -0.6394  5.2255
   734G12c H01Q13417   7.566   0.880   4.978  1.3492 -3.4263 -1.9480
   734G12c C02A13418   7.797   1.085   4.855  0.9320 -2.0201 -0.0662
   734G12c H01113419   7.843   0.997   4.897 -0.4849 -1.0831  3.7100
   734G12c C00C13420   8.046   1.589   4.988 -0.0802 -0.9600  0.4506
   734G12c H01213421   7.955   1.537   4.961 -1.1272 -1.8850  5.2807
   734G12c C00B13422   8.035   1.733   4.966  1.1108 -0.6583 -0.5528
   734G12c C00A13423   7.920   1.819   4.953  1.3078  0.4858 -0.6968
   734G12c C00913424   7.795   1.800   4.866 -0.9919 -0.3016  1.3294
   734G12c C00813425   7.763   1.681   4.792 -1.1353 -0.8811 -1.1950
   734G12c H01313426   7.779   1.576   4.813  3.8995 -0.7131 -3.4865
   734G12c C00713427   7.708   1.723   4.662  0.7470  1.0257 -1.5098
   734G12c H01413428   7.708   1.649   4.583 -7.0627  3.3953 -4.2061
   734G12c C00613429   7.650   1.842   4.626  1.0908  1.5097  0.1691
   734G12c C00513430   7.665   1.947   4.713 -2.3587 -0.3708 -0.3785
   734G12c C00413431   7.678   2.072   4.645 -0.7528 -0.2804 -1.1507
   734G12c C00313432   7.749   2.179   4.710 -1.9775 -2.0388 -1.7186
   734G12c C00213433   7.744   2.309   4.637  2.2416 -0.2013 -1.1340
   734G12c C00113434   7.835   2.409   4.641 -0.0392  0.0245  0.0574
   734G12c C00M13435   7.970   2.398   4.673  2.1805 -0.2361 -0.0388
   734G12c C00L13436   8.022   2.322   4.767 -0.4478 -0.5266 -0.5678
   734G12c C00R13437   8.175   2.303   4.766  0.1758  0.5675 -1.2213
   734G12c C00Q13438   8.295   2.351   4.687  0.8893 -0.1774  1.7061
   734G12c C00V13439   8.414   2.290   4.736 -0.3424  0.4199 -1.9035
   734G12c C00U13440   8.425   2.189   4.838 -1.5577  0.2553  1.0917
   734G12c C00T13441   8.314   2.126   4.885 -0.5647  0.3331  0.0821
   734G12c C01613442   8.300   2.008   4.941 -0.4592  1.1011  0.1903
   734G12c C01513443   8.420   1.927   4.951 -2.0448  1.1037  1.1609
   734G12c C01013444   8.549   1.987   4.908  0.9699 -1.1257  0.1534
   734G12c C01113445   8.664   1.910   4.905  0.3241 -0.6286 -0.4282
   734G12c H00513446   8.755   1.955   4.868 -0.6520  4.5852  3.0113
   734G12c C01213447   8.661   1.775   4.967  0.6144  0.1050  2.3349
   734G12c C01713448   8.793   1.715   4.988 -1.4851  0.5435  0.4120
   734G12c O00213449   8.796   1.589   4.941  1.4378  0.9001 -0.8091
   734G12c H00413450   8.706   1.580   4.912  1.1833 -0.5434  0.3777
   734G12c C01813451   8.912   1.780   5.028 -1.1887  2.3830 -0.1082
   734G12c O00113452   8.923   1.909   5.085  0.0193  0.6738  2.0570
   734G12c H00313453   8.879   1.988   5.057  0.9071  0.6047  0.3552
   734G12c C01913454   9.048   1.713   5.007 -1.3484 -0.0435  0.8171
   734G12c H00213455   9.134   1.756   5.060 -2.3341  1.2245  1.4187
   734G12c H00113456   9.029   1.646   5.090  5.0982 -0.2282  2.3981
   734G12c O00013457   9.085   1.650   4.878 -0.0666 -0.7053 -0.0824
   734G12c C01A13458   9.195   1.706   4.823  0.6787  0.2442  0.3152
   734G12c C02K13459   9.188   1.795   4.710  0.8464  0.1218  0.1308
   734G12c O00G13460   9.093   1.775   4.621  1.0267  0.6188 -0.4020
   734G12c C02M13461   9.020   1.890   4.618 -1.2888  0.4045 -0.3083
   734G12c H01G13462   8.933   1.836   4.581  3.0722 -5.4758 -2.7185
   734G12c H01F13463   8.984   1.919   4.717  2.9644  3.1782  0.5530
   734G12c H01E13464   9.049   1.965   4.544  0.9569 -0.0671  0.0628
   734G12c C02J13465   9.293   1.884   4.690 -1.2117  1.3084  1.7729
   734G12c H01H13466   9.288   1.974   4.630 -7.3222 -2.6513 -4.3468
   734G12c C02I13467   9.404   1.891   4.769 -0.1052 -0.2032  0.6685
   734G12c C02N13468   9.504   1.995   4.776  0.8071  0.0984 -1.1768
   734G12c H01M13469   9.575   2.004   4.695 -0.4881  1.9488 -2.1428
   734G12c C02O13470   9.477   2.097   4.862 -1.5777 -0.1851  1.7570
   734G12c H01L13471   9.558   2.164   4.836 -1.6990 -0.1059  1.5809
   734G12c C02P13472   9.324   2.143   4.907 -0.5389  0.6413 -0.8466
   734G12c H01K13473   9.279   2.242   4.907 -1.6087  0.2174  2.7651
   734G12c H01J13474   9.244   2.073   4.887  1.2668 -0.4164 -4.9370
   734G12c O00H13475   9.362   2.092   5.047  1.1599 -0.8797  0.9820
   734G12c H01I13476   9.400   2.005   5.045  0.9532 -0.9546  0.1047
   734G12c C02H13477   9.421   1.771   4.847  0.2927 -1.5154  0.7539
   734G12c H01C13478   9.514   1.747   4.897 -0.1507  0.2643  2.5189
   734G12c C02L13479   9.314   1.700   4.896  0.7772 -0.6475  1.7873
   734G12c H01D13480   9.308   1.654   4.993  0.5257 -3.0425  0.6965
   734G12c C01313481   8.545   1.727   5.009  1.5530  1.4525  0.7261
   734G12c H00013482   8.547   1.627   5.049 -5.4002  4.0342  9.3090
   734G12c C01413483   8.419   1.792   4.997 -1.1824  1.2985  0.8372
   734G12c C00F13484   8.290   1.722   5.008 -1.9277  0.1270 -0.1243
   734G12c C00H13485   8.174   1.945   4.958 -0.3025 -0.1524 -0.2040
   734G12c C00I13486   8.057   2.021   4.945 -0.2787 -2.1846 -1.0717
   734G12c C00J13487   8.069   2.161   4.903 -0.9267  0.1729  0.2000
   734G12c C00Z13488   8.545   2.117   4.836 -1.2181  0.1169 -1.5652
   734G12c C00Y13489   8.669   2.192   4.785 -0.0948  0.4488  0.2239
   734G12c H00613490   8.765   2.143   4.788 -1.8545 -3.3460 -0.9871
   734G12c C00X13491   8.651   2.316   4.728 -0.1949 -0.8024 -0.9476
   734G12c O00313492   8.768   2.384   4.689 -0.0639 -0.0243 -1.0439
   734G12c C01B13493   8.798   2.453   4.812 -1.4183 -0.1342  2.7962
   734G12c H00913494   8.733   2.535   4.844 -2.0572  0.7258 -0.4727
   734G12c H00813495   8.895   2.501   4.794 -0.1636 -3.4673  0.1624
   734G12c H00713496   8.803   2.403   4.908 -3.4527  0.7829  3.3981
   734G12c C00W13497   8.529   2.361   4.695 -0.3786  1.1804 -0.2593
   734G12c O00413498   8.543   2.458   4.594 -1.7035  0.8143  0.7313
   734G12c C01C13499   8.433   2.489   4.532 -0.0862  1.0138 -0.6757
   734G12c H00A13500   8.450   2.582   4.481  4.2577 -1.5501 -4.3519
   734G12c C00P13501   8.297   2.435   4.581 -0.0546  0.6333  0.6828
   734G12c C00O13502   8.179   2.443   4.516 -0.0403  0.9800 -0.2537
   734G12c C01D13503   8.198   2.510   4.387 -1.9841  0.0687 -0.8376
   734G12c H00S13504   8.287   2.495   4.328 -2.6401 -2.5246 -1.2657
   734G12c C01E13505   8.101   2.541   4.291 -0.6276 -1.4142 -0.0878
   734G12c O00813506   8.120   2.602   4.178  0.0380 -0.6587 -0.0097
   734G12c C01V13507   8.193   2.524   4.096  0.3174 -0.5065 -0.1455
   734G12c C01Z13508   8.305   2.610   4.050  0.2353 -1.0288  1.3208
   734G12c H00R13509   8.282   2.715   4.031 -2.4342  0.6060 10.8838
   734G12c H00Q13510   8.388   2.550   4.012 -4.4660-12.3989  6.5253
   734G12c O00913511   8.389   2.636   4.176 -1.2124 -0.2759 -0.2987
   734G12c H00P13512   8.335   2.674   4.244 -3.4322  1.2728 -2.8511
   734G12c C01W13513   8.187   2.395   4.073 -0.3908  1.2235 -1.0855
   734G12c H00O13514   8.093   2.357   4.108  2.3448 -7.4952 -1.9064
   734G12c C01X13515   8.263   2.311   3.980 -0.9183 -0.2272 -0.7693
   734G12c H00N13516   8.201   2.232   3.939  0.7959 -2.1520  0.2464
   734G12c H00M13517   8.303   2.381   3.905 -1.8700 -1.5123 -2.5204
   734G12c C01Y13518   8.377   2.244   4.009  0.2036 -0.5963 -1.3516
   734G12c C02D13519   8.473   2.202   3.891  0.2204  0.6018 -0.4107
   734G12c H01913520   8.445   2.225   3.790 -4.8007  1.7105  1.0779
   734G12c C02C13521   8.587   2.110   3.899 -1.4777  0.4994 -0.9219
   734G12c H01A13522   8.657   2.071   3.827 -1.1760  1.3374 -1.0767
   734G12c C02B13523   8.605   2.065   4.031 -0.1266  1.0288 -0.8600
   734G12c O00E13524   8.710   1.975   4.044  1.5890  0.5795  0.0198
   734G12c H01B13525   8.737   2.002   4.130 -2.3069 -1.0222  1.8294
   734G12c C02F13526   8.545   2.118   4.138  0.7973  0.1809 -0.2027
   734G12c O00F13527   8.609   2.117   4.266 -0.6887 -0.4242  1.2032
   734G12c C02G13528   8.538   2.063   4.370  0.5645 -0.5128  0.7527
   734G12c H01713529   8.452   2.004   4.337  0.9901  0.3621 -2.0768
   734G12c H01613530   8.498   2.143   4.431  0.4485 -3.4916  4.7681
   734G12c H01513531   8.575   1.992   4.444  2.3837  1.2436  1.5581
   734G12c C02E13532   8.432   2.189   4.130 -1.7750 -0.1792 -0.1930
   734G12c H01813533   8.391   2.207   4.229 -0.9093  2.1732 -0.2233
   734G12c C01F13534   7.969   2.525   4.334  1.0903 -1.8872 -0.4684
   734G12c C01G13535   7.857   2.531   4.242 -0.7837  1.0198 -0.1798
   734G12c H00L13536   7.869   2.535   4.134  3.0146  4.6652  0.2503
   734G12c C01H13537   7.737   2.477   4.293  0.4535  1.5728  0.2301
   734G12c H00B13538   7.689   2.432   4.207  1.2495  1.8444 -0.3610
   734G12c C01I13539   7.721   2.442   4.426 -0.3979  0.8228 -1.3441
   734G12c C01U13540   7.944   2.495   4.475  0.3145  1.8179  0.1440
   734G12c C00S13541   8.195   2.207   4.873  0.4754  0.1407  1.7689
   734G12c C00K13542   7.964   2.230   4.830 -1.6830 -0.6737 -0.1631
   734G12c C00N13543   8.039   2.434   4.556 -0.2323 -0.2568 -0.8707
   734G12c C00013544   7.823   2.485   4.522 -1.0238 -0.7916 -1.0600
   734G12c C01J13545   7.683   2.316   4.500  0.9201 -0.6255 -1.1091
   734G12c C01K13546   7.607   2.215   4.444  0.4264 -0.4164 -0.4631
   734G12c C01P13547   7.501   2.212   4.339  0.3635  0.3514 -0.9917
   734G12c C01Q13548   7.459   2.339   4.283 -1.1734 -0.7344  0.8192
   734G12c H00G13549   7.474   2.360   4.178  1.8340 -4.2137  0.4602
   734G12c C01R13550   7.397   2.427   4.355 -0.4814 -0.4987 -0.9155
   734G12c H00F13551   7.360   2.402   4.453  1.0248 -0.3812 -0.2951
   734G12c C01S13552   7.296   2.556   4.311  0.0303  0.4573 -0.1053
   734G12c H00E13553   7.229   2.515   4.236 -2.8065 -2.5941  3.9447
   734G12c H00D13554   7.253   2.611   4.394  3.1792 -0.6431  2.3646
   734G12c O00513555   7.359   2.656   4.233 -0.4199  1.4758  1.0377
   734G12c H00C13556   7.374   2.609   4.152  6.2293  5.7271 -0.5954
   734G12c C01O13557   7.473   2.089   4.275  0.4841 -0.7818 -1.7638
   734G12c H00H13558   7.415   2.113   4.187  0.0834 -2.2421 -1.9153
   734G12c C01N13559   7.520   1.969   4.307 -0.7498 -0.0970  0.1198
   734G12c O00613560   7.481   1.845   4.263 -0.1057 -1.4385 -1.0557
   734G12c C01T13561   7.356   1.818   4.334  0.3180 -1.6974  1.5150
   734G12c H00K13562   7.320   1.716   4.319 -5.9193  0.0172  3.0386
   734G12c H00J13563   7.287   1.889   4.288  3.2540 -1.7065 -3.2239
   734G12c H00I13564   7.356   1.840   4.441 -1.2031  2.9731  0.6650
   734G12c C01M13565   7.577   1.965   4.445  0.6047  0.6424  0.2161
   734G12c C02013566   7.842   2.155   4.821 -0.6807 -0.2558 -0.5779
   734G12c C02113567   7.826   2.036   4.901 -1.3094 -1.9766 -0.6747
   734G12c C01L13568   7.629   2.083   4.518  0.6805  1.0135 -0.5781
   734G12c O00713569   7.604   1.846   4.495 -0.1381  0.5344  0.0506
   734G12c C02213570   7.748   1.936   4.836 -0.6704 -1.3636 -0.2606
   734G12c C02313571   7.932   1.960   4.942 -1.2283  0.6291 -1.1534
   734G12c C00G13572   8.161   1.802   4.982  0.8394 -2.1442 -0.4316
   734G12c C00E13573   8.279   1.577   5.047  0.0319  1.3450  0.6664
   734G12c O00A13574   8.380   1.514   5.116 -0.4163  0.6165  0.5340
   734G12c C02413575   8.359   1.400   5.198 -0.4278  1.5685  0.2662
   734G12c H00V13576   8.401   1.301   5.179  3.9505  3.7306 -2.3138
   734G12c H00U13577   8.257   1.408   5.234  0.4069  3.5916  2.3013
   734G12c H00T13578   8.430   1.438   5.273  2.4731  3.2486 -3.1594
   744G12c C00D13579  11.309   2.240   3.074  0.7199 -1.6782 -0.5837
   744G12c O00B13580  11.320   2.321   3.183 -0.1489  0.2548 -0.2966
   744G12c C02513581  11.212   2.401   3.193 -1.5418  0.3206  0.4478
   744G12c C02613582  11.095   2.380   3.291  1.2676  0.6677  0.7655
   744G12c H00Y13583  11.045   2.477   3.291 -5.4685 -2.3796 -4.6696
   744G12c H00X13584  11.158   2.385   3.380  2.1499 -0.2905  0.2038
   744G12c O00C13585  10.998   2.288   3.273  0.1169  0.3382  0.9515
   744G12c H00W13586  10.926   2.323   3.323 -2.0375  4.8073 -4.7642
   744G12c C02713587  11.239   2.543   3.170  0.5397  1.6719 -0.6975
   744G12c O00D13588  11.345   2.572   3.110  0.1534  0.1598  0.3099
   744G12c H00Z13589  11.399   2.495   3.121 -1.9366 -0.9186  3.4574
   744G12c C02813590  11.197   2.656   3.255  1.2165 -1.1332 -0.9672
   744G12c C02913591  11.074   2.715   3.242  0.3397 -0.4555  0.3110
   744G12c H01013592  11.003   2.664   3.178  0.6542 -4.2047  2.8496
   744G12c C02T13593  11.050   2.864   3.290  1.3527  1.1994 -0.2571
   744G12c H01O13594  10.979   2.922   3.232  4.7760  3.1982 -2.6046
   744G12c C02S13595  11.142   2.903   3.394 -1.0161  1.4384  0.8674
   744G12c O00J13596  11.124   3.013   3.470  0.1277 -0.4771 -0.0119
   744G12c H01P13597  11.189   3.026   3.537 -2.7313 -3.9201  3.7930
   744G12c C02R13598  11.239   2.811   3.431 -0.1380 -0.1094 -0.5143
   744G12c O00I13599  11.279   2.821   3.559 -0.0111  0.3841 -0.7255
   744G12c C02Q13600  11.426   2.810   3.563  0.8575 -1.5920 -2.3656
   744G12c H01N13601  11.468   2.714   3.533 -3.1894 -2.7577 -4.6116
   744G12c H01R13602  11.440   2.809   3.671  0.4413  6.9308 -1.8471
   744G12c H01Q13603  11.485   2.894   3.526 -0.1957  2.3007  3.9095
   744G12c C02A13604  11.284   2.712   3.335 -0.8767  0.3756 -0.6746
   744G12c H01113605  11.387   2.681   3.329 -2.3030 -4.2643 -4.0941
   744G12c C00C13606  11.249   2.276   2.951 -1.4895 -2.8484 -1.1262
   744G12c H01213607  11.173   2.352   2.962 -1.1081 -2.6717  0.4042
   744G12c C00B13608  11.232   2.155   2.873  0.3963  1.2996 -1.3824
   744G12c C00A13609  11.111   2.109   2.796 -0.8344  0.4216  0.9766
   744G12c C00913610  10.977   2.132   2.847  1.2588 -0.7801  1.2728
   744G12c C00813611  10.921   2.190   2.972  0.6460 -0.9220 -1.6208
   744G12c H01313612  10.984   2.243   3.041 -2.8422  0.9288  0.2557
   744G12c C00713613  10.803   2.139   3.019 -0.2698  0.6559  0.1951
   744G12c H01413614  10.745   2.175   3.102 -0.1937 -4.6725  2.7737
   744G12c C00613615  10.738   2.018   2.964  1.2771  0.7733 -0.0177
   744G12c C00513616  10.804   1.958   2.852  0.7784  0.1578 -2.0698
   744G12c C00413617  10.770   1.835   2.800 -2.2402  1.5434 -1.9993
   744G12c C00313618  10.846   1.775   2.695  2.4715  0.8578 -0.3758
   744G12c C00213619  10.802   1.647   2.663  0.5962  0.2828  1.0370
   744G12c C00113620  10.858   1.549   2.558  0.9945  1.3057 -0.5758
   744G12c C00M13621  10.991   1.507   2.578  0.0206  0.1894  0.1885
   744G12c C00L13622  11.096   1.609   2.583  1.0844 -0.6325 -1.0236
   744G12c C00R13623  11.224   1.598   2.634  1.1648  2.4663 -0.8384
   744G12c C00Q13624  11.305   1.483   2.662 -0.9570  1.7422  0.4622
   744G12c C00V13625  11.440   1.505   2.685 -0.2129  0.4691 -0.7212
   744G12c C00U13626  11.473   1.629   2.727  0.8506  0.7795 -0.3760
   744G12c C00T13627  11.402   1.740   2.712  0.0147 -1.5148  1.4472
   744G12c C01613628  11.430   1.855   2.759  0.9733  0.4769  0.5960
   744G12c C01513629  11.538   1.871   2.842  1.1780  0.7625 -1.0164
   744G12c C01013630  11.629   1.762   2.854 -1.7631 -0.6976 -0.4713
   744G12c C01113631  11.754   1.791   2.911  0.6102 -0.7840  0.5301
   744G12c H00513632  11.837   1.725   2.934  2.5794  1.9011  1.4265
   744G12c C01213633  11.801   1.932   2.949 -0.3212  1.2837 -0.3020
   744G12c C01713634  11.937   1.977   2.996 -0.6425  1.3633 -0.8829
   744G12c O00213635  11.949   2.088   3.074  0.1465  0.4448 -0.7459
   744G12c H00413636  12.039   2.117   3.082 -1.0715  4.6902 -0.9481
   744G12c C01813637  12.042   1.894   2.957 -0.1933  1.6034  0.3215
   744G12c O00113638  12.045   1.807   2.843  0.4361  0.1253 -0.2853
   744G12c H00313639  11.992   1.854   2.781  2.1031  0.3740 -1.5622
   744G12c C01913640  12.184   1.928   3.004  1.0217  0.4804 -0.0240
   744G12c H00213641  12.201   1.913   3.110  1.8767 -4.1710 -0.6809
   744G12c H00113642  12.245   1.838   3.009 -4.1248 -3.2621 -0.4215
   744G12c O00013643  12.271   2.024   2.957 -0.8782 -1.0369 -1.2793
   744G12c C01A13644  12.358   1.996   2.849 -0.2928 -2.2736 -0.8613
   744G12c C02K13645  12.483   1.935   2.873  0.5950  0.4369 -1.0359
   744G12c O00G13646  12.562   1.923   2.986 -0.3878  0.1340  1.0701
   744G12c C02M13647  12.626   2.034   3.046  0.9470 -1.9825  0.4247
   744G12c H01G13648  12.645   2.088   2.953  2.8222  7.7126  5.8222
   744G12c H01F13649  12.546   2.081   3.102  2.3020  0.0156  0.7253
   744G12c H01E13650  12.696   2.016   3.128  3.9237 -0.8160 -1.7642
   744G12c C02J13651  12.547   1.880   2.752  0.3198 -0.1386  0.7393
   744G12c H01H13652  12.639   1.826   2.770 -0.4376 -2.3229 -1.5987
   744G12c C02I13653  12.492   1.893   2.617 -1.4502  0.8856  1.0299
   744G12c C02N13654  12.531   1.820   2.503  1.4198  0.5215  0.6133
   744G12c H01M13655  12.457   1.804   2.425 -2.5911  3.5941  3.5559
   744G12c C02O13656  12.654   1.753   2.514  1.8454  0.3877  0.1429
   744G12c H01L13657  12.724   1.769   2.594  1.3087 -0.8950  0.8789
   744G12c C02P13658  12.706   1.654   2.404 -3.0261 -0.9743  1.6692
   744G12c H01K13659  12.628   1.640   2.329 -0.4305 -1.5445 -0.9619
   744G12c H01J13660  12.770   1.723   2.350 -5.1159  0.2308  0.6831
   744G12c O00H13661  12.776   1.543   2.445 -0.9906 -0.7685 -0.5718
   744G12c H01I13662  12.713   1.510   2.507 -2.7887 -4.6522 -4.2757
   744G12c C02H13663  12.384   1.980   2.597  0.9578  0.2084 -0.9389
   744G12c H01C13664  12.319   2.010   2.516 -4.9712 -1.3018  2.8922
   744G12c C02L13665  12.308   2.028   2.712  1.8413  0.1747 -0.6267
   744G12c H01D13666  12.211   2.076   2.721  0.2603 -2.6792 -1.8723
   744G12c C01313667  11.689   2.012   2.976  0.6457 -1.8467  0.3726
   744G12c H00013668  11.696   2.105   3.030  2.2334 -2.1532  0.7162
   744G12c C01413669  11.561   1.986   2.920 -0.2425 -0.2035  1.5210
   744G12c C00F13670  11.452   2.073   2.944 -0.5387  1.4785 -0.9564
   744G12c C00H13671  11.329   1.953   2.759  0.7645  0.2915  0.1699
   744G12c C00I13672  11.220   1.930   2.677 -0.1620 -0.4966  0.8266
   744G12c C00J13673  11.205   1.807   2.622  0.5604  0.7649 -0.0725
   744G12c C00Z13674  11.589   1.650   2.787  0.2791 -1.4062 -1.6148
   744G12c C00Y13675  11.676   1.546   2.813  0.6183  1.6597  1.3199
   744G12c H00613676  11.776   1.560   2.853  5.1209  5.0568 -9.3024
   744G12c C00X13677  11.643   1.416   2.784 -0.7517  1.1787  0.5598
   744G12c O00313678  11.741   1.319   2.814  0.1805  0.2795  0.5426
   744G12c C01B13679  11.690   1.209   2.900  1.8632 -1.2978  0.2718
   744G12c H00913680  11.620   1.253   2.971  4.9115 -0.4457  2.8658
   744G12c H00813681  11.773   1.201   2.971  2.7887  6.1109  0.4283
   744G12c H00713682  11.667   1.115   2.849  3.1424 -3.9995  4.3259
   744G12c C00W13683  11.533   1.384   2.710  0.7822  0.8217 -0.7249
   744G12c O00413684  11.478   1.248   2.726 -0.4243  0.1743  0.5203
   744G12c C01C13685  11.354   1.246   2.685  0.2342  0.5254  0.2719
   744G12c H00A13686  11.347   1.162   2.617 -1.8805 -2.5780  4.1045
   744G12c C00P13687  11.256   1.343   2.681  1.3985  0.9559  0.2974
   744G12c C00O13688  11.115   1.301   2.667  0.8583  1.1136 -0.0929
   744G12c C01D13689  11.090   1.169   2.707 -0.8407  0.4752 -1.1873
   744G12c H00S13690  11.166   1.093   2.721 -0.2797  1.1552 -0.5085
   744G12c C01E13691  10.956   1.124   2.734 -1.1432 -0.1611 -0.3680
   744G12c O00813692  10.934   0.988   2.744 -0.2535  1.0039 -0.9852
   744G12c C01V13693  10.832   0.908   2.692  0.8707  3.4247 -0.3231
   744G12c C01Z13694  10.685   0.897   2.778 -0.1524  1.6361 -1.1993
   744G12c H00R13695  10.610   0.976   2.768 -5.4938 -2.4908  3.0154
   744G12c H00Q13696  10.635   0.816   2.725  0.8328 -1.1826  2.0288
   744G12c O00913697  10.722   0.882   2.911  2.2823 -0.2296 -1.3570
   744G12c H00P13698  10.801   0.831   2.912  2.8116  0.5872 -1.4929
   744G12c C01W13699  10.848   0.848   2.574  0.0648  0.2539 -1.2250
   744G12c H00O13700  10.939   0.880   2.525 -0.0149  2.0282 -0.2627
   744G12c C01X13701  10.769   0.732   2.522  0.7204  0.0982 -0.3911
   744G12c H00N13702  10.787   0.651   2.593 -1.1344  1.2591  1.4716
   744G12c H00M13703  10.669   0.717   2.563 -0.2018 -6.5325 -4.3271
   744G12c C01Y13704  10.752   0.698   2.376 -0.5304  0.2956 -0.1125
   744G12c C02D13705  10.781   0.567   2.322  0.0540  0.3006 -0.8230
   744G12c H01913706  10.779   0.483   2.389  1.2678 -0.5819 -1.8859
   744G12c C02C13707  10.824   0.564   2.184 -0.9682  0.5198  0.7835
   744G12c H01A13708  10.869   0.475   2.143 -1.3133  0.3954  0.6690
   744G12c C02B13709  10.780   0.669   2.102 -3.0317 -0.5300  1.0712
   744G12c O00E13710  10.818   0.667   1.969  0.3222 -0.2019 -0.6510
   744G12c H01B13711  10.804   0.758   1.947  6.4789  1.0445 -0.3474
   744G12c C02F13712  10.724   0.785   2.154  1.4738 -2.3661  0.2531
   744G12c O00F13713  10.710   0.899   2.078 -0.8723  0.4372  0.6040
   744G12c C02G13714  10.601   0.877   1.978 -1.5509  1.0306  0.5399
   744G12c H01713715  10.592   0.980   1.942 -1.4861  1.6703  2.3238
   744G12c H01613716  10.636   0.816   1.894  3.1589  4.8601 -0.4543
   744G12c H01513717  10.505   0.834   2.008  1.4525 -4.6157  2.7354
   744G12c C02E13718  10.712   0.808   2.296 -0.2958 -1.0861  0.4199
   744G12c H01813719  10.720   0.908   2.335 -3.3982  0.9548 -3.7771
   744G12c C01F13720  10.856   1.214   2.713  0.8411 -0.8781 -0.8729
   744G12c C01G13721  10.728   1.231   2.782  0.9756  0.0165  0.5020
   744G12c H00L13722  10.732   1.187   2.880 -4.4802 -0.4476  0.6908
   744G12c C01H13723  10.618   1.345   2.772  0.0871  1.5801 -0.7823
   744G12c H00B13724  10.523   1.353   2.824 -0.8584  1.7501 -2.4969
   744G12c C01I13725  10.671   1.451   2.694  2.3170  1.1709 -0.2889
   744G12c C01U13726  10.881   1.323   2.620 -0.7841  0.1565 -0.0618
   744G12c C00S13727  11.292   1.717   2.620 -0.9173 -0.3890  1.3678
   744G12c C00K13728  11.078   1.742   2.611 -0.8936 -1.8795  1.2339
   744G12c C00N13729  11.014   1.368   2.608 -0.5958 -0.4647  1.9087
   744G12c C00013730  10.792   1.428   2.613 -0.4660 -0.5330  0.0201
   744G12c C01J13731  10.680   1.596   2.727 -2.2729 -0.5097  0.1990
   744G12c C01K13732  10.585   1.664   2.795  0.4166 -0.6868 -0.8356
   744G12c C01P13733  10.455   1.627   2.838 -0.1103 -0.7865 -1.6023
   744G12c C01Q13734  10.358   1.543   2.771  1.5527 -0.4441 -0.8428
   744G12c H00G13735  10.262   1.512   2.808  3.0806 -2.8157  1.2595
   744G12c C01R13736  10.335   1.573   2.643 -0.5161  0.5073  0.0613
   744G12c H00F13737  10.416   1.606   2.579 -0.7095  1.9405  0.5571
   744G12c C01S13738  10.238   1.532   2.540 -0.3189 -0.0289  0.6125
   744G12c H00E13739  10.141   1.576   2.514 -0.1268 -1.0131 -1.9158
   744G12c H00D13740  10.289   1.515   2.445 -6.6200  0.9555 -3.2843
   744G12c O00513741  10.177   1.409   2.575  0.7387 -0.4508 -0.8014
   744G12c H00C13742  10.188   1.356   2.497  0.8348  0.7837 -1.6383
   744G12c C01O13743  10.422   1.675   2.965  1.8882  0.8863 -1.9862
   744G12c H00H13744  10.342   1.631   3.023  2.2200 -0.4855 -2.5484
   744G12c C01N13745  10.500   1.761   3.037 -1.8463 -0.0673  1.1828
   744G12c O00613746  10.452   1.807   3.153  0.2029  1.3301  0.4244
   744G12c C01T13747  10.549   1.858   3.237  0.4952  1.8868  0.9411
   744G12c H00K13748  10.539   1.965   3.223  3.6538  2.9115  5.5748
   744G12c H00J13749  10.646   1.820   3.206 -1.6004 -5.8535  2.5940
   744G12c H00I13750  10.546   1.802   3.331  0.9911 -4.7587 -2.6949
   744G12c C01M13751  10.598   1.829   2.968  0.3141 -0.3617 -1.1565
   744G12c C02013752  10.964   1.829   2.633  0.4558 -0.5619 -0.5367
   744G12c C02113753  10.978   1.962   2.678  0.0384 -1.2926  0.3998
   744G12c C01L13754  10.662   1.765   2.856 -0.5624 -0.0172  1.2843
   744G12c O00713755  10.635   1.956   3.012  0.6966  1.2219  0.7828
   744G12c C02213756  10.904   2.029   2.775  0.5435 -1.1563 -2.0858
   744G12c C02313757  11.111   2.008   2.707 -0.1953  0.7819 -0.5824
   744G12c C00G13758  11.336   2.057   2.862  0.5558  0.9059  0.5136
   744G12c C00E13759  11.431   2.163   3.062 -0.9157  1.1198 -0.1262
   744G12c O00A13760  11.520   2.164   3.165 -0.6100  1.1135  0.4655
   744G12c C02413761  11.511   2.041   3.251  1.7729  0.6537 -0.2160
   744G12c H00V13762  11.589   2.039   3.327  2.4222  0.0761 -0.8820
   744G12c H00U13763  11.409   2.022   3.283  2.5807  0.2062  2.1987
   744G12c H00T13764  11.537   1.951   3.194 -1.4352  0.3885 -1.3725
   754G12c C00D13765   9.202   0.292   5.457  0.1080  0.3886  0.2358
   754G12c O00B13766   9.140   0.366   5.359  1.4873 -1.7525 -1.6336
   754G12c C02513767   9.227   0.454   5.302  2.3313  0.4246  0.0802
   754G12c C02613768   9.305   0.541   5.389 -0.9307  1.9334 -1.8085
   754G12c H00Y13769   9.252   0.593   5.468  4.3678 -3.0652  5.7109
   754G12c H00X13770   9.318   0.627   5.323 -0.2883 -0.0391 -4.3272
   754G12c O00C13771   9.443   0.501   5.412 -0.2392  0.2282  1.6970
   754G12c H00W13772   9.469   0.514   5.502  3.6457 -0.8840  0.8305
   754G12c C02713773   9.210   0.484   5.171  0.2138  0.3473 -2.5562
   754G12c O00D13774   9.125   0.409   5.082  1.0735 -1.6149  0.1441
   754G12c H00Z13775   9.123   0.488   5.030 -1.8624  1.7827  5.0394
   754G12c C02813776   9.328   0.529   5.097 -1.2096 -0.1673 -1.4434
   754G12c C02913777   9.465   0.470   5.110 -0.2488  0.4206 -0.5598
   754G12c H01013778   9.478   0.392   5.183 -4.4454 -2.0742 -2.2638
   754G12c C02T13779   9.565   0.510   5.006 -1.6096 -1.0488 -0.7813
   754G12c H01O13780   9.627   0.429   4.968 -0.1450 -0.0729 -0.5070
   754G12c C02S13781   9.544   0.630   4.936 -1.0330 -0.6533 -0.0629
   754G12c O00J13782   9.576   0.630   4.803 -0.0095 -0.1340 -0.5061
   754G12c H01P13783   9.659   0.587   4.789 -1.0877 -4.7547  5.1536
   754G12c C02R13784   9.434   0.710   4.965 -1.5392 -1.6289 -1.6088
   754G12c O00I13785   9.402   0.830   4.913  0.7267 -0.4213 -0.3517
   754G12c C02Q13786   9.399   0.852   4.770  1.2883  1.4251  0.9137
   754G12c H01N13787   9.381   0.759   4.716  0.4085 -1.8048  6.3793
   754G12c H01R13788   9.325   0.930   4.749  1.0488  1.5315  2.0966
   754G12c H01Q13789   9.492   0.891   4.730  0.1557  0.7632 -2.5263
   754G12c C02A13790   9.335   0.663   5.050 -0.9082  0.8592 -0.5621
   754G12c H01113791   9.277   0.747   5.087 -1.2114  1.8825 -3.2452
   754G12c C00C13792   9.158   0.307   5.589 -0.1462 -0.9501 -0.7683
   754G12c H01213793   9.096   0.387   5.625  4.3762  2.3481  0.1907
   754G12c C00B13794   9.226   0.219   5.681 -0.3898  0.3671  0.1993
   754G12c C00A13795   9.224   0.230   5.823  0.3144 -1.1315  0.9548
   754G12c C00913796   9.188   0.328   5.922 -0.6268 -0.6111  0.1891
   754G12c C00813797   9.183   0.470   5.934  1.0051 -0.1069 -0.3183
   754G12c H01313798   9.162   0.544   5.858 -3.9330  0.1890  1.1946
   754G12c C00713799   9.255   0.533   6.049  0.3243 -0.2141 -0.4000
   754G12c H01413800   9.291   0.634   6.038  5.3154 -1.4736  2.2556
   754G12c C00613801   9.286   0.458   6.155 -1.5893  1.5362 -0.1427
   754G12c C00513802   9.257   0.326   6.146  0.0900  1.1237  1.3230
   754G12c C00413803   9.294   0.246   6.246  0.1151  0.0934 -1.1311
   754G12c C00313804   9.342   0.109   6.220  0.9792 -0.3403  0.9456
   754G12c C00213805   9.404   0.038   6.318  0.6992  0.7667  1.1305
   754G12c C00113806   9.483  -0.098   6.337 -0.9261  1.3418 -0.2067
   754G12c C00M13807   9.569  -0.139   6.232  0.3349 -0.2741  0.7716
   754G12c C00L13808   9.521  -0.123   6.103  0.4891 -1.0863 -0.5182
   754G12c C00R13809   9.604  -0.151   5.986 -0.0934 -1.2647  0.9386
   754G12c C00Q13810   9.740  -0.175   5.971  1.8908 -1.1658  0.0733
   754G12c C00V13811   9.780  -0.180   5.840  1.5072 -0.0452 -0.1354
   754G12c C00U13812   9.703  -0.133   5.728  0.5655  0.9910 -0.2848
   754G12c C00T13813   9.573  -0.104   5.742 -0.8457  0.1359  0.3153
   754G12c C01613814   9.505  -0.015   5.662 -0.2115  0.4703 -0.0260
   754G12c C01513815   9.559   0.000   5.546 -1.6181 -0.7319  0.8460
   754G12c C01013816   9.663  -0.084   5.500 -2.1075 -1.5351 -0.8991
   754G12c C01113817   9.714  -0.048   5.374 -0.7467 -0.2644  0.6675
   754G12c H00513818   9.819  -0.073   5.368 -0.2475  1.5611  1.4996
   754G12c C01213819   9.654   0.053   5.296  0.4257  1.7252 -2.4064
   754G12c C01713820   9.734   0.112   5.184  1.7881  1.3431 -0.2187
   754G12c O00213821   9.760   0.238   5.193 -1.5441 -0.0760  0.4485
   754G12c H00413822   9.722   0.300   5.254  1.8332  5.8829 -3.0056
   754G12c C01813823   9.793   0.029   5.096  0.3759  0.9264 -0.8580
   754G12c O00113824   9.784  -0.102   5.105  0.2753  0.1407  0.5058
   754G12c H00313825   9.765  -0.124   5.015  5.8992  1.1733 -1.1261
   754G12c C01913826   9.871   0.076   4.973  0.6437  0.7606  0.1079
   754G12c H00213827   9.838   0.172   4.934 -3.9370 -2.3517 -4.4330
   754G12c H00113828   9.959   0.131   5.006  1.6594 -1.9101  2.0652
   754G12c O00013829   9.868  -0.034   4.887  0.6751 -1.2131 -0.6453
   754G12c C01A13830   9.896  -0.004   4.748 -0.8999 -0.1775  0.3716
   754G12c C02K13831   9.796   0.004   4.650 -1.5181  0.5749 -0.1122
   754G12c O00G13832   9.670   0.001   4.698  0.8504 -2.3520 -1.1061
   754G12c C02M13833   9.567   0.081   4.647  0.7610  0.7035  0.0123
   754G12c H01G13834   9.493   0.071   4.726  0.9316 -4.7033 -0.3895
   754G12c H01F13835   9.508   0.046   4.562  3.5809 -8.1919  1.2555
   754G12c H01E13836   9.581   0.189   4.638 -3.0131  1.9197  5.5778
   754G12c C02J13837   9.836   0.007   4.517 -0.7717 -2.5005 -1.6255
   754G12c H01H13838   9.750   0.033   4.457 -5.2553 -4.2510  3.6853
   754G12c C02I13839   9.974  -0.006   4.461  1.4049 -0.7430 -0.4055
   754G12c C02N13840   9.998   0.000   4.312 -0.3139  0.4949  0.2194
   754G12c H01M13841   9.920  -0.019   4.239  0.1633  1.7331 -0.6354
   754G12c C02O13842  10.116   0.055   4.278 -0.9633  0.4859 -0.4555
   754G12c H01L13843  10.178   0.086   4.361  2.8962 -1.9499 -2.2848
   754G12c C02P13844  10.179   0.066   4.137 -0.2166  1.5096  1.2081
   754G12c H01K13845  10.222   0.163   4.113 -4.4115  1.8923 -6.2445
   754G12c H01J13846  10.258  -0.009   4.146  2.9563  4.4359 -0.9476
   754G12c O00H13847  10.091   0.026   4.023 -1.8892 -0.8805 -0.1330
   754G12c H01I13848  10.043  -0.043   4.066 -3.4111 -1.5921 -2.8474
   754G12c C02H13849  10.079  -0.019   4.561 -0.7327  0.7130  1.8443
   754G12c H01C13850  10.185  -0.028   4.542 -0.8474 -3.8819  2.8144
   754G12c C02L13851  10.029  -0.024   4.687 -0.7469  0.1426 -0.8230
   754G12c H01D13852  10.111  -0.024   4.758 -1.0674 -1.5225 -0.4404
   754G12c C01313853   9.539   0.124   5.324 -0.1860  0.6397 -0.5369
   754G12c H00013854   9.525   0.230   5.310 -3.1711  0.1825 -1.3888
   754G12c C01413855   9.491   0.093   5.454 -1.5403  0.1420  0.8452
   754G12c C00F13856   9.384   0.150   5.499 -0.0122 -0.0601  1.2749
   754G12c C00H13857   9.399   0.042   5.714  0.2406  1.4578 -0.3061
   754G12c C00I13858   9.351   0.031   5.843 -0.4614  0.0054 -0.8422
   754G12c C00J13859   9.390  -0.084   5.915  2.3684 -0.4751 -0.3991
   754G12c C00Z13860   9.748  -0.147   5.596 -1.8167  1.1817 -1.6971
   754G12c C00Y13861   9.862  -0.248   5.568 -0.4561  0.3704  0.6559
   754G12c H00613862   9.904  -0.279   5.474 -1.4298  0.4806  0.1753
   754G12c C00X13863   9.937  -0.294   5.682 -1.0190 -0.4926 -0.1468
   754G12c O00313864  10.050  -0.383   5.660  0.0990 -0.9446  0.2005
   754G12c C01B13865  10.022  -0.513   5.726  0.6044 -1.0204  0.0298
   754G12c H00913866   9.944  -0.509   5.802 -2.0421  3.0290 -2.7404
   754G12c H00813867  10.123  -0.535   5.761  1.5309  3.1471  0.1629
   754G12c H00713868   9.980  -0.590   5.661  0.0495 -0.2058 -0.5877
   754G12c C00W13869   9.901  -0.245   5.819  2.2161  0.2393  0.6409
   754G12c O00413870   9.986  -0.292   5.926 -0.8148 -0.4080  0.0061
   754G12c C01C13871   9.959  -0.237   6.040 -1.8697  0.6970 -0.5784
   754G12c H00A13872  10.043  -0.266   6.101 -2.2826 -2.2475 -1.3369
   754G12c C00P13873   9.843  -0.187   6.082 -0.1680  1.9083  0.1318
   754G12c C00O13874   9.833  -0.152   6.226 -1.4147 -0.0910  0.2522
   754G12c C01D13875   9.950  -0.101   6.282  0.6886  1.2231  0.1478
   754G12c H00S13876  10.043  -0.139   6.243 -0.8985  3.6139 -6.5962
   754G12c C01E13877   9.926  -0.020   6.397  0.2895  1.8512  0.6009
   754G12c O00813878  10.026   0.037   6.474  0.5811 -1.9273  0.1378
   754G12c C01V13879  10.158  -0.024   6.470 -1.0095 -1.6494 -0.4186
   754G12c C01Z13880  10.161  -0.094   6.590  0.8851  0.0250  0.2412
   754G12c H00R13881  10.088  -0.130   6.662 -2.7091  3.0436 -1.7073
   754G12c H00Q13882  10.248  -0.158   6.586  1.9859  1.6313 -4.3895
   754G12c O00913883  10.247  -0.011   6.667 -0.9673 -0.6072  0.7769
   754G12c H00P13884  10.189   0.053   6.705 -2.2077  0.6137 -2.9171
   754G12c C01W13885  10.248   0.016   6.374  0.5657 -0.2578  0.4118
   754G12c H00O13886  10.223   0.099   6.310  1.3603 -0.7485 -0.5549
   754G12c C01X13887  10.400  -0.031   6.375 -0.8875  0.4222  1.9652
   754G12c H00N13888  10.483   0.040   6.374  2.0791 -2.9181 -0.2373
   754G12c H00M13889  10.402  -0.090   6.466  2.3435  2.4579  3.3079
   754G12c C01Y13890  10.465  -0.117   6.265  1.1302  0.8593  0.7056
   754G12c C02D13891  10.458  -0.073   6.125 -1.8585 -1.4454 -1.4914
   754G12c H01913892  10.394   0.010   6.099 -2.0706 -1.1102  0.0352
   754G12c C02C13893  10.517  -0.125   6.011 -0.0789  0.0605 -0.0789
   754G12c H01A13894  10.516  -0.073   5.916 -0.0568  5.5798  2.7542
   754G12c C02B13895  10.600  -0.243   6.048  1.5622 -0.5579  0.1722
   754G12c O00E13896  10.700  -0.275   5.959  1.5302 -0.4013  0.4465
   754G12c H01B13897  10.761  -0.332   6.003  0.2894 -3.0900 -1.1279
   754G12c C02F13898  10.614  -0.289   6.184  1.4685 -0.3878 -0.0235
   754G12c O00F13899  10.704  -0.378   6.196  0.3344  0.0856  0.0861
   754G12c C02G13900  10.780  -0.364   6.310  0.6891 -0.2083 -0.6974
   754G12c H01713901  10.805  -0.260   6.331  2.2246 -1.0768  2.1181
   754G12c H01613902  10.870  -0.415   6.276 -1.4795 -4.0753 -0.9402
   754G12c H01513903  10.737  -0.402   6.402  0.1419 -0.2144 -0.9556
   754G12c C02E13904  10.541  -0.235   6.285  1.0135  0.6381 -0.2002
   754G12c H01813905  10.565  -0.288   6.377 -1.6144 -3.5241 -1.7465
   754G12c C01F13906   9.798  -0.005   6.457  0.2768  0.2387 -0.1091
   754G12c C01G13907   9.764   0.105   6.543 -0.6275 -0.2033 -0.0049
   754G12c H00L13908   9.842   0.160   6.593 -0.8418  0.5754 -0.5114
   754G12c C01H13909   9.612   0.129   6.569 -0.5874  0.0223 -0.3864
   754G12c H00B13910   9.580   0.215   6.625  0.4303 -0.0632  0.3397
   754G12c C01I13911   9.512   0.045   6.511 -2.0679 -0.0241  1.5799
   754G12c C01U13912   9.696  -0.105   6.416  1.2655 -0.0970 -0.5031
   754G12c C00S13913   9.521  -0.137   5.877  1.1376 -0.2935  1.5749
   754G12c C00K13914   9.398  -0.067   6.058 -1.0763  0.2790 -0.6949
   754G12c C00N13915   9.702  -0.142   6.287  0.3780  0.9545 -0.0604
   754G12c C00013916   9.571  -0.077   6.450  0.1275  0.8808  0.2662
   754G12c C01J13917   9.387   0.087   6.455  0.4658  0.6105 -1.1436
   754G12c C01K13918   9.344   0.233   6.481 -0.5911  0.4108  0.3220
   754G12c C01P13919   9.311   0.308   6.602 -0.7740  1.7484  0.5579
   754G12c C01Q13920   9.328   0.243   6.719 -1.0841  0.8560 -0.0291
   754G12c H00G13921   9.422   0.229   6.770 -0.0271  0.5220 -2.0403
   754G12c C01R13922   9.228   0.170   6.749 -0.4629 -2.0963  0.2944
   754G12c H00F13923   9.237   0.088   6.819  4.4816 -1.5077  0.5288
   754G12c C01S13924   9.086   0.172   6.692 -0.9433  1.3721 -0.4626
   754G12c H00E13925   9.018   0.097   6.732  1.2767 -2.3848 -3.5038
   754G12c H00D13926   9.050   0.274   6.708 -3.6116  0.3281  0.4227
   754G12c O00513927   9.063   0.180   6.549 -0.0128 -0.5233 -1.1031
   754G12c H00C13928   9.069   0.270   6.521  2.1601  1.3710  4.6680
   754G12c C01O13929   9.332   0.438   6.597  0.7731  0.4263 -1.3477
   754G12c H00H13930   9.361   0.487   6.689 -3.2212  4.2779 -1.9677
   754G12c C01N13931   9.369   0.509   6.482 -0.4132 -2.7653  0.0180
   754G12c O00613932   9.386   0.639   6.487  0.7566  0.5381  1.0033
   754G12c C01T13933   9.483   0.716   6.411  0.7481  0.4794  1.6271
   754G12c H00K13934   9.407   0.742   6.338  4.9314  2.8923 -2.1452
   754G12c H00J13935   9.546   0.650   6.352 -0.6979  1.3461 -0.9432
   754G12c H00I13936   9.532   0.810   6.438  0.2890  1.9164 -2.2677
   754G12c C01M13937   9.342   0.435   6.373 -1.7561 -0.3778  0.4178
   754G12c C02013938   9.322   0.049   6.098 -1.8401  2.0038 -0.7504
   754G12c C02113939   9.215   0.105   6.020 -0.2241 -1.0158 -1.3609
   754G12c C01L13940   9.331   0.294   6.367 -0.3137 -0.4335 -0.9721
   754G12c O00713941   9.375   0.497   6.253 -0.9505 -0.4566 -0.2895
   754G12c C02213942   9.194   0.250   6.046  1.6003  0.9424 -0.9212
   754G12c C02313943   9.252   0.111   5.880  1.5742 -0.1331 -0.0364
   754G12c C00G13944   9.338   0.132   5.634 -0.6112  1.3976 -0.6180
   754G12c C00E13945   9.279   0.184   5.416  0.8160  0.4581 -0.1417
   754G12c O00A13946   9.247   0.124   5.291 -0.1942 -0.9862 -0.8476
   754G12c C02413947   9.105   0.081   5.272  0.1531 -1.1213  0.1636
   754G12c H00V13948   9.086  -0.012   5.219  0.5670  0.8091 -3.4920
   754G12c H00U13949   9.042   0.069   5.361  4.5792 -0.1627  3.6265
   754G12c H00T13950   9.053   0.158   5.216 -2.0034 -0.8831  2.4121
   764G12c C00D13951   7.746   5.785   0.426  2.5035  1.0458 -0.8182
   764G12c O00B13952   7.743   5.902   0.495  0.3296 -0.2775  0.2681
   764G12c C02513953   7.858   5.950   0.562  2.1328 -0.6097  1.4755
   764G12c C02613954   7.855   6.098   0.608 -0.5139  1.8138  0.1771
   764G12c H00Y13955   7.948   6.145   0.642  1.1285 -3.3995  3.5095
   764G12c H00X13956   7.801   6.102   0.702  1.0735 -0.4409  1.2398
   764G12c O00C13957   7.789   6.184   0.505 -1.2179  1.7288  0.0576
   764G12c H00W13958   7.700   6.153   0.493  0.2491 -3.1567  0.7664
   764G12c C02713959   7.961   5.876   0.571 -0.0219 -0.8616  0.4444
   764G12c O00D13960   7.973   5.736   0.560 -0.6386 -0.8496  0.2889
   764G12c H00Z13961   7.892   5.688   0.553 -0.1663 -1.4951 -0.8955
   764G12c C02813962   8.085   5.927   0.631 -0.7776 -1.3602 -1.6442
   764G12c C02913963   8.118   5.934   0.785  1.4893  0.6075  1.7375
   764G12c H01013964   8.061   5.851   0.824  0.9772 -1.4234 -2.9817
   764G12c C02T13965   8.176   6.034   0.849 -1.3549 -1.0794 -0.0125
   764G12c H01O13966   8.186   6.046   0.956 -0.7475 -1.7326  0.0072
   764G12c C02S13967   8.249   6.118   0.764  0.1591  0.1243 -0.3309
   764G12c O00J13968   8.278   6.237   0.815  0.0502  0.0643 -1.4689
   764G12c H01P13969   8.308   6.273   0.732  6.2869 -1.7360 -0.2667
   764G12c C02R13970   8.260   6.092   0.618  0.5623  0.6850 -0.2790
   764G12c O00I13971   8.329   6.188   0.536 -0.4446  0.0519  0.2596
   764G12c C02Q13972   8.470   6.173   0.536 -1.7652  0.8317  0.4185
   764G12c H01N13973   8.523   6.186   0.630 -3.4343  0.3552  1.4458
   764G12c H01R13974   8.495   6.276   0.511 -3.1307  1.1697  0.3955
   764G12c H01Q13975   8.538   6.119   0.471 -1.4298 -2.3976  3.3015
   764G12c C02A13976   8.183   5.991   0.553  0.5182  0.6364  0.2882
   764G12c H01113977   8.170   5.973   0.447 -0.5883  1.4545  0.2787
   764G12c C00C13978   7.812   5.775   0.295 -0.0338 -1.9922  0.8718
   764G12c H01213979   7.858   5.861   0.247 -2.9041 -0.1408  1.3076
   764G12c C00B13980   7.811   5.650   0.232  1.4393  1.6308 -0.0131
   764G12c C00A13981   7.900   5.604   0.121 -0.2045  0.8178  0.9392
   764G12c C00913982   8.001   5.679   0.037 -0.6065 -0.5164 -1.2071
   764G12c C00813983   8.052   5.818   0.052 -1.4068  0.5267  0.0981
   764G12c H01313984   8.052   5.871   0.146 -4.9695 -2.8816  2.1302
   764G12c C00713985   8.072   5.899  -0.066  2.0289  0.2411 -1.4072
   764G12c H01413986   8.112   5.999  -0.070 -0.0018  1.1509 -0.0934
   764G12c C00613987   8.041   5.836  -0.183 -2.5413 -3.0504  0.6339
   764G12c C00513988   8.007   5.705  -0.191 -0.8318 -0.1853 -0.1179
   764G12c C00413989   7.958   5.656  -0.316  0.4267  0.4955 -0.7526
   764G12c C00313990   7.893   5.518  -0.317 -0.6672 -0.2632  0.4392
   764G12c C00213991   7.842   5.467  -0.446  0.2125  0.4045 -0.4420
   764G12c C00113992   7.761   5.352  -0.482 -0.6283  0.8432  0.1084
   764G12c C00M13993   7.645   5.294  -0.406  0.1729  0.6102  0.1004
   764G12c C00L13994   7.642   5.294  -0.260 -0.2940  1.1349 -0.1567
   764G12c C00R13995   7.536   5.290  -0.171  0.0771  0.0521  0.1746
   764G12c C00Q13996   7.394   5.277  -0.215 -1.1366  2.9190 -1.7646
   764G12c C00V13997   7.313   5.272  -0.093 -1.9616  0.6320 -2.9057
   764G12c C00U13998   7.371   5.307   0.043  0.8858 -1.3892  0.6101
   764G12c C00T13999   7.498   5.320   0.072  0.2791 -0.7991  0.0470
   764G12c C01614000   7.538   5.407   0.178 -1.4600 -1.3177  0.7194
   764G12c C01514001   7.450   5.458   0.264 -0.4204  0.1028  1.9827
   764G12c C01014002   7.311   5.418   0.252  2.5788  0.8985 -1.5349
   764G12c C01114003   7.219   5.496   0.329 -1.1839  1.3912 -0.6161
   764G12c H00514004   7.112   5.506   0.315 -1.4803  3.1913  2.4409
   764G12c C01214005   7.257   5.555   0.448 -0.9131  0.8096 -0.1476
   764G12c C01714006   7.162   5.630   0.548  0.4908  1.7395  0.9200
   764G12c O00214007   7.205   5.629   0.675 -0.4350 -0.0492 -0.9697
   764G12c H00414008   7.160   5.694   0.728  0.2298  0.9460 -1.5985
   764G12c C01814009   7.056   5.703   0.516  0.9780  0.8801  1.2845
   764G12c O00114010   6.992   5.700   0.387  0.0510 -0.7163 -0.2452
   764G12c H00314011   7.025   5.638   0.324  1.6769 -5.8124  5.1166
   764G12c C01914012   6.968   5.778   0.609  0.9090 -0.5677  1.6546
   764G12c H00214013   6.871   5.733   0.588  1.9638 -1.4372 -1.4867
   764G12c H00114014   7.013   5.752   0.705  0.2939 -3.2298  1.2411
   764G12c O00014015   6.936   5.908   0.591  0.7304 -0.6830  0.2938
   764G12c C01A14016   6.854   5.949   0.685 -0.9255  0.7539 -1.1328
   764G12c C02K14017   6.889   5.961   0.829  2.0344 -1.6596 -0.7002
   764G12c O00G14018   7.017   5.938   0.875  0.8301 -1.4157  0.4621
   764G12c C02M14019   7.042   5.826   0.949  0.5371  0.5415  0.1492
   764G12c H01G14020   6.967   5.749   0.968  2.2534 -0.0504  5.4282
   764G12c H01F14021   7.128   5.784   0.898 -1.5165  2.4929 -5.2573
   764G12c H01E14022   7.061   5.864   1.050 -4.8452 -1.0923  1.9753
   764G12c C02J14023   6.784   5.976   0.928  2.1465 -0.5324 -0.1765
   764G12c H01H14024   6.808   5.977   1.034 -2.0609  0.2868  0.8653
   764G12c C02I14025   6.657   5.988   0.897 -0.8762  0.5469 -1.1576
   764G12c C02N14026   6.566   5.993   1.016 -0.8028  0.1495 -0.0282
   764G12c H01M14027   6.538   5.908   1.076 -1.5950  3.0975  3.9587
   764G12c C02O14028   6.530   6.125   1.051  1.4514 -0.2350 -1.0928
   764G12c H01L14029   6.487   6.135   1.150  2.3576  0.9895 -0.8178
   764G12c C02P14030   6.548   6.266   0.989 -0.6587  0.1883 -0.7542
   764G12c H01K14031   6.558   6.331   1.076 -1.2890 -0.1788 -0.4065
   764G12c H01J14032   6.632   6.251   0.922  0.4813  0.2120  0.6326
   764G12c O00H14033   6.430   6.286   0.894  1.3512 -0.2395  1.4096
   764G12c H01I14034   6.483   6.342   0.839  1.1842  0.6120  2.1083
   764G12c C02H14035   6.630   5.996   0.763  0.9693  0.5567 -0.1203
   764G12c H01C14036   6.529   6.004   0.726  0.9206  5.1410  0.6046
   764G12c C02L14037   6.718   5.963   0.657  0.1809  1.0049 -1.6717
   764G12c H01D14038   6.688   5.927   0.559 -0.5638  0.7408 -1.3494
   764G12c C01314039   7.396   5.563   0.476  0.2981 -2.7273  0.1826
   764G12c H00014040   7.408   5.614   0.571 -4.1587 -1.9559  0.4230
   764G12c C01414041   7.492   5.538   0.373 -1.4976 -1.5075  2.0382
   764G12c C00F14042   7.630   5.575   0.376  0.0631  0.7056  0.7457
   764G12c C00H14043   7.681   5.443   0.176 -0.7434 -0.5842  1.1641
   764G12c C00I14044   7.759   5.414   0.056 -0.2779  1.1742  1.7744
   764G12c C00J14045   7.718   5.306  -0.039  1.6276  0.3133  1.6075
   764G12c C00Z14046   7.274   5.347   0.136 -0.7956  0.8268  0.5272
   764G12c C00Y14047   7.140   5.333   0.118 -0.4741 -0.1765 -1.4869
   764G12c H00614048   7.060   5.341   0.191 -1.1899  3.2375 -2.5680
   764G12c C00X14049   7.079   5.294   0.002 -1.0940 -0.2310 -1.5070
   764G12c O00314050   6.941   5.280  -0.014 -0.5088 -1.0332 -0.3345
   764G12c C01B14051   6.875   5.397   0.022 -1.7168  0.3784 -0.7471
   764G12c H00914052   6.810   5.412  -0.064 -0.4604 -0.6671 -1.9182
   764G12c H00814053   6.947   5.477   0.007 -1.0988 -0.0190  0.0433
   764G12c H00714054   6.835   5.407   0.123  2.5907 -0.4972  1.1838
   764G12c C00W14055   7.168   5.273  -0.104 -1.0149  0.5570 -1.4826
   764G12c O00414056   7.114   5.234  -0.235 -0.5395  1.0218 -0.1229
   764G12c C01C14057   7.200   5.205  -0.349  0.1389  1.0636  1.6417
   764G12c H00A14058   7.161   5.120  -0.403  2.1800  2.8518 -2.9608
   764G12c C00P14059   7.339   5.245  -0.340  0.1236  2.3626  0.2452
   764G12c C00O14060   7.406   5.295  -0.455 -1.0233 -0.0995  1.9540
   764G12c C01D14061   7.313   5.333  -0.561  1.4414 -1.1658 -1.5584
   764G12c H00S14062   7.208   5.313  -0.549  2.5398 -5.1429  3.6125
   764G12c C01E14063   7.350   5.429  -0.662 -1.6534  1.6270  0.4091
   764G12c O00814064   7.261   5.512  -0.720 -0.2852  0.4424  1.2995
   764G12c C01V14065   7.132   5.455  -0.722  0.5118  0.5020 -0.5996
   764G12c C01Z14066   7.091   5.316  -0.797  0.3258  0.1409  1.3199
   764G12c H00R14067   7.022   5.312  -0.881 -1.4185  1.3787  2.6594
   764G12c H00Q14068   7.193   5.275  -0.796  1.2817  2.2894  5.9343
   764G12c O00914069   7.006   5.233  -0.733  1.3370 -0.2368  0.7413
   764G12c H00P14070   7.052   5.213  -0.653 -1.6159 -1.2770  2.2506
   764G12c C01W14071   7.042   5.523  -0.653  0.6615 -0.7643 -0.4847
   764G12c H00O14072   6.940   5.493  -0.632 -2.2609  9.8595  3.5954
   764G12c C01X14073   7.058   5.667  -0.587 -0.8367  0.3972 -1.1892
   764G12c H00N14074   7.120   5.715  -0.662  5.9587 -0.0384  3.6861
   764G12c H00M14075   6.971   5.728  -0.561  1.9664  4.1483 -0.1921
   764G12c C01Y14076   7.114   5.701  -0.457 -2.2951 -1.7873  2.1323
   764G12c C02D14077   7.038   5.743  -0.345  1.1610 -0.5924 -0.3832
   764G12c H01914078   6.941   5.769  -0.384  1.0308 -2.9445 -1.7597
   764G12c C02C14079   7.094   5.771  -0.214 -1.0510  0.0047  0.3861
   764G12c H01A14080   7.017   5.767  -0.138 -2.7801 -3.5063 -1.4357
   764G12c C02B14081   7.239   5.781  -0.186 -0.4240  0.4497 -0.8962
   764G12c O00E14082   7.264   5.787  -0.050  2.2186 -0.6212  0.7721
   764G12c H01B14083   7.355   5.797  -0.028  1.9091 -0.8627  2.2519
   764G12c C02F14084   7.313   5.723  -0.290 -0.1408 -0.1404  0.5465
   764G12c O00F14085   7.452   5.714  -0.260  0.3816 -0.0784 -0.4113
   764G12c C02G14086   7.559   5.674  -0.348 -0.7015  0.2725  0.3070
   764G12c H01714087   7.618   5.590  -0.311  0.5048 -3.0479 -8.0421
   764G12c H01614088   7.561   5.737  -0.436 -4.0842 -2.4812 -1.8935
   764G12c H01514089   7.541   5.579  -0.398  7.9096  0.0113 -3.2278
   764G12c C02E14090   7.255   5.680  -0.412 -1.9172  0.3296  0.7348
   764G12c H01814091   7.336   5.657  -0.479 -2.7395  5.0100 -2.0962
   764G12c C01F14092   7.496   5.458  -0.673  0.3430 -1.2402  1.2058
   764G12c C01G14093   7.550   5.551  -0.774 -0.9917 -2.1854 -0.0229
   764G12c H00L14094   7.467   5.607  -0.816 -2.0839  1.5183  6.3781
   764G12c C01H14095   7.691   5.593  -0.756 -1.9708 -0.1840  0.3224
   764G12c H00B14096   7.739   5.674  -0.809 -1.1643  2.6445  5.1279
   764G12c C01I14097   7.771   5.509  -0.684 -0.7210 -0.3955 -0.5939
   764G12c C01U14098   7.585   5.386  -0.601 -0.6632  1.7640 -0.3537
   764G12c C00S14099   7.586   5.292  -0.042  0.1456 -0.7700 -3.2102
   764G12c C00K14100   7.748   5.351  -0.175  0.2582  0.5012 -0.4485
   764G12c C00N14101   7.539   5.318  -0.485  1.2766 -2.0134 -0.6245
   764G12c C00014102   7.725   5.377  -0.624  1.1449  0.8665  0.3496
   764G12c C01J14103   7.859   5.561  -0.565  0.1915  0.0049  0.9916
   764G12c C01K14104   7.944   5.690  -0.570 -1.2258 -0.5695 -0.5212
   764G12c C01P14105   8.002   5.751  -0.696 -0.0879  1.7010 -2.0515
   764G12c C01Q14106   7.975   5.680  -0.830 -2.1611 -0.5952  0.4885
   764G12c H00G14107   8.010   5.578  -0.837 -2.3039 -1.2203  6.3122
   764G12c C01R14108   7.944   5.751  -0.947 -0.8158 -0.6194  0.4778
   764G12c H00F14109   7.891   5.843  -0.930 -0.0374  0.4563 -2.5927
   764G12c C01S14110   7.933   5.717  -1.096  1.5576 -0.7872 -1.1477
   764G12c H00E14111   7.862   5.634  -1.098  0.3089  0.2432 -0.3143
   764G12c H00D14112   7.873   5.800  -1.132 -1.3309 -5.5043 -8.3473
   764G12c O00514113   8.055   5.703  -1.131 -0.2383 -0.3956 -0.5404
   764G12c H00C14114   8.091   5.768  -1.072  0.9855 -3.4189  2.2292
   764G12c C01O14115   8.073   5.868  -0.692  0.1586 -1.6280  0.9401
   764G12c H00H14116   8.116   5.908  -0.782  3.7760 -2.4947  2.1771
   764G12c C01N14117   8.105   5.915  -0.555  1.2513 -0.6495 -1.1469
   764G12c O00614118   8.211   6.009  -0.521 -0.8220  1.2702 -0.1666
   764G12c C01T14119   8.332   5.993  -0.589  0.2621  0.1431  0.8637
   764G12c H00K14120   8.387   6.087  -0.588  1.1697 -0.3529 -0.4180
   764G12c H00J14121   8.327   5.966  -0.695 -3.7277 -0.3928  1.1397
   764G12c H00I14122   8.416   5.932  -0.556  2.2317  1.8768 -0.7890
   764G12c C01M14123   8.056   5.862  -0.430  0.4199 -0.8840 -0.6357
   764G12c C02014124   7.862   5.445  -0.200 -0.5426 -0.8731 -1.1893
   764G12c C02114125   7.932   5.500  -0.076 -0.0856  0.4801 -0.2170
   764G12c C01L14126   7.987   5.732  -0.444  0.4859 -1.6854  1.3648
   764G12c O00714127   8.070   5.914  -0.294 -1.9866  0.6249  0.8092
   764G12c C02214128   8.010   5.615  -0.079 -0.3190 -0.6194  0.8861
   764G12c C02314129   7.870   5.492   0.050  0.3096 -0.9213  1.6053
   764G12c C00G14130   7.712   5.550   0.275  1.3449 -0.2485 -0.6425
   764G12c C00E14131   7.665   5.690   0.460 -0.1386 -0.2804  1.0482
   764G12c O00A14132   7.615   5.701   0.581 -0.2657  1.0718  0.4833
   764G12c C02414133   7.673   5.603   0.680  1.9460 -1.1054 -0.2830
   764G12c H00V14134   7.641   5.514   0.625  3.3291  1.0442 -4.7995
   764G12c H00U14135   7.617   5.579   0.770  4.5556  1.2040  2.0733
   764G12c H00T14136   7.778   5.632   0.685  1.4471  1.6606 -3.8250
   774G12c C00D14137   7.850   7.931   2.900 -1.1659 -0.6510  1.1450
   774G12c O00B14138   7.767   7.851   2.815  0.1326  0.1142  0.5175
   774G12c C02514139   7.819   7.793   2.696  0.1471  0.6089 -1.2427
   774G12c C02614140   7.860   7.652   2.731 -0.2147 -0.0449 -0.2930
   774G12c H00Y14141   7.872   7.627   2.836 -1.4866 -1.8915 -0.5577
   774G12c H00X14142   7.954   7.679   2.682 -2.3871  1.6667 -3.7833
   774G12c O00C14143   7.783   7.544   2.692 -0.5790 -1.0939  0.1479
   774G12c H00W14144   7.757   7.551   2.601  6.3518  6.5920 -1.9172
   774G12c C02714145   7.806   7.834   2.575 -0.5200  0.3678  0.7976
   774G12c O00D14146   7.753   7.964   2.560  1.0398  0.6920 -1.7060
   774G12c H00Z14147   7.661   7.945   2.572  1.6715  0.4831  4.9687
   774G12c C02814148   7.848   7.769   2.459 -0.5432  2.9097  0.2845
   774G12c C02914149   7.763   7.724   2.363 -0.3483 -0.2622 -1.2094
   774G12c H01014150   7.663   7.743   2.398 -1.7002  1.0097 -5.4780
   774G12c C02T14151   7.804   7.646   2.239  0.1254  0.0887 -0.7873
   774G12c H01O14152   7.725   7.609   2.176 -0.5802 -5.3121  2.8975
   774G12c C02S14153   7.926   7.598   2.240  0.9563 -1.2518 -0.6317
   774G12c O00J14154   7.959   7.579   2.106  0.8014 -0.5177 -0.1371
   774G12c H01P14155   8.050   7.599   2.090  0.2355  2.8321  0.4891
   774G12c C02R14156   8.020   7.650   2.327 -1.1500  0.4106 -0.5871
   774G12c O00I14157   8.129   7.586   2.357 -1.7912 -1.4601 -0.4359
   774G12c C02Q14158   8.227   7.610   2.231 -1.2447  1.1396 -0.2732
   774G12c H01N14159   8.211   7.669   2.141 -1.2052 -2.5443 -2.7598
   774G12c H01R14160   8.273   7.520   2.191 -1.4562  3.4289 -6.0432
   774G12c H01Q14161   8.317   7.666   2.258 -3.0822  4.1271 -0.0192
   774G12c C02A14162   7.979   7.741   2.435 -0.7491  1.3331  0.6255
   774G12c H01114163   8.055   7.781   2.500  5.9743 -3.6816 -3.5108
   774G12c C00C14164   7.989   7.967   2.879 -1.0085 -0.2500 -0.1299
   774G12c H01214165   8.019   7.930   2.782  3.0528  3.4940 -0.4413
   774G12c C00B14166   8.076   8.040   2.976 -0.4051  0.5811  0.3414
   774G12c C00A14167   8.217   8.055   2.957 -0.6239 -1.2360  0.7519
   774G12c C00914168   8.299   7.956   2.919 -1.2614  1.4777  1.7848
   774G12c C00814169   8.282   7.832   2.847 -1.3269 -1.0449 -0.4914
   774G12c H01314170   8.192   7.787   2.807 -4.8081  1.5214  3.9809
   774G12c C00714171   8.372   7.729   2.870  1.3514  0.8392 -0.1458
   774G12c H01414172   8.351   7.635   2.821 -2.0435  1.3760  0.1792
   774G12c C00614173   8.483   7.743   2.963  2.0182  0.9339  0.6392
   774G12c C00514174   8.503   7.876   3.018 -0.0306  0.2596 -0.2322
   774G12c C00414175   8.584   7.901   3.132  0.0460 -1.2230 -0.6335
   774G12c C00314176   8.565   8.008   3.225 -1.2188 -0.9454  1.2248
   774G12c C00214177   8.652   8.005   3.336  2.0822  0.0058 -0.7346
   774G12c C00114178   8.659   8.097   3.449 -0.5032 -0.3241  0.4915
   774G12c C00M14179   8.544   8.134   3.520 -1.7653 -0.9136 -0.1515
   774G12c C00L14180   8.447   8.218   3.459 -0.0974 -1.1367  0.7712
   774G12c C00R14181   8.319   8.246   3.504  0.5855  1.1855 -1.9145
   774G12c C00Q14182   8.264   8.200   3.628  0.2599  1.8310  0.6407
   774G12c C00V14183   8.119   8.218   3.633  0.9717 -1.5336  0.2957
   774G12c C00U14184   8.043   8.240   3.519  0.3975 -0.2328 -1.7363
   774G12c C00T14185   8.092   8.267   3.397 -1.7258 -1.4787 -1.3018
   774G12c C01614186   8.025   8.219   3.280 -2.1001  3.0046  0.4308
   774G12c C01514187   7.883   8.219   3.291  0.6971  0.5536 -0.5451
   774G12c C01014188   7.826   8.257   3.412  0.8596  1.0117 -2.1949
   774G12c C01114189   7.685   8.257   3.443  1.5482 -0.7052  0.7486
   774G12c H00514190   7.649   8.289   3.539  2.4977  3.6686 -0.2308
   774G12c C01214191   7.602   8.232   3.334 -0.1483 -0.2940  1.3071
   774G12c C01714192   7.459   8.230   3.371 -1.0981  2.2519 -1.3659
   774G12c O00214193   7.417   8.123   3.457 -0.2473  0.7749 -1.0253
   774G12c H00414194   7.325   8.143   3.464 -0.7467 -1.4077 -1.1182
   774G12c C01814195   7.369   8.298   3.294 -0.9672  0.1661  1.6514
   774G12c O00114196   7.236   8.287   3.305 -1.0083  1.4937  0.2993
   774G12c H00314197   7.248   8.339   3.227 -0.1522 -2.1478 -2.1182
   774G12c C01914198   7.425   8.375   3.164 -0.1524  0.5817 -0.6432
   774G12c H00214199   7.471   8.466   3.201 -1.7934  2.8453 -3.9222
   774G12c H00114200   7.497   8.319   3.105 -0.6703  0.3639 -1.0738
   774G12c O00014201   7.309   8.418   3.096  0.9162 -0.0965  1.9170
   774G12c C01A14202   7.324   8.461   2.953  0.0413 -2.2616 -0.3270
   774G12c C02K14203   7.197   8.502   2.907  0.2525 -0.5227 -0.5884
   774G12c O00G14204   7.085   8.529   2.981  1.3547 -0.0441  0.2470
   774G12c C02M14205   7.092   8.665   3.024 -0.1660  1.8277  0.9516
   774G12c H01G14206   7.127   8.752   2.968 -0.3377  4.4991  4.7981
   774G12c H01F14207   7.150   8.690   3.113  1.9389  0.6710 -0.0547
   774G12c H01E14208   6.995   8.686   3.070  0.8105  6.4151  1.1826
   774G12c C02J14209   7.183   8.546   2.773  1.3050  1.3129 -1.2370
   774G12c H01H14210   7.086   8.593   2.768 -0.9184 -3.3116 -6.0536
   774G12c C02I14211   7.291   8.551   2.680  1.8672  1.0967  0.0501
   774G12c C02N14212   7.258   8.597   2.536  0.3553  0.7670 -0.1762
   774G12c H01M14213   7.310   8.673   2.479 -1.8597  1.2337 -1.6436
   774G12c C02O14214   7.198   8.511   2.457 -0.6639  0.5966  0.1663
   774G12c H01L14215   7.131   8.441   2.506  0.5145  0.6647  1.9299
   774G12c C02P14216   7.209   8.510   2.304  0.8002  0.0456  0.3213
   774G12c H01K14217   7.273   8.447   2.242 -0.1618  0.4432 -1.1146
   774G12c H01J14218   7.125   8.441   2.312 -0.3160  1.7544  5.2440
   774G12c O00H14219   7.165   8.632   2.258 -0.5687  0.0731 -0.2154
   774G12c H01I14220   7.085   8.647   2.308 -0.0517 -4.5681  2.2930
   774G12c C02H14221   7.408   8.502   2.728 -1.5037 -0.7244  1.0100
   774G12c H01C14222   7.497   8.497   2.668 -1.8292 -2.1738  0.6089
   774G12c C02L14223   7.428   8.450   2.855 -0.8782 -0.7358  1.9361
   774G12c H01D14224   7.531   8.433   2.882 -0.1983  7.9200  6.2757
   774G12c C01314225   7.660   8.175   3.226  0.4897  0.2124  1.1125
   774G12c H00014226   7.605   8.120   3.150  1.7834  3.8165 -2.6143
   774G12c C01414227   7.802   8.171   3.197 -0.2641 -0.4091  1.0064
   774G12c C00F14228   7.869   8.092   3.088  1.3815  1.2826  0.7634
   774G12c C00H14229   8.080   8.158   3.173  1.6203  0.2819 -0.4934
   774G12c C00I14230   8.217   8.196   3.167 -0.4445  0.6941  2.4170
   774G12c C00J14231   8.296   8.233   3.283 -1.2631  0.2685 -0.0024
   774G12c C00Z14232   7.903   8.252   3.527 -1.9043  1.4350  1.5560
   774G12c C00Y14233   7.844   8.240   3.662  0.6937 -0.9964 -2.3108
   774G12c H00614234   7.738   8.224   3.677  0.6554 -1.2912 -2.8856
   774G12c C00X14235   7.918   8.215   3.777 -1.4692  0.0994 -0.9166
   774G12c O00314236   7.863   8.189   3.903 -1.7720 -0.4176  1.1053
   774G12c C01B14237   7.904   8.248   4.007  0.3590 -2.1492 -0.9603
   774G12c H00914238   7.884   8.170   4.081 -1.5548 -2.3310 -1.6353
   774G12c H00814239   7.876   8.330   4.072 -5.7532 -6.2776  2.0541
   774G12c H00714240   7.974   8.326   3.979 -1.2212  0.7701  2.8113
   774G12c C00W14241   8.055   8.218   3.755  0.2342 -0.2475 -2.0514
   774G12c O00414242   8.132   8.210   3.879 -0.7809 -0.6287 -0.9626
   774G12c C01C14243   8.245   8.132   3.863 -0.1458 -1.0615 -1.1276
   774G12c H00A14244   8.206   8.031   3.851 -2.0832 -0.1420 -3.0118
   774G12c C00P14245   8.330   8.153   3.749 -0.8509 -1.0192 -0.2392
   774G12c C00O14246   8.478   8.137   3.778  0.8402 -0.9256  0.8389
   774G12c C01D14247   8.530   8.081   3.903  0.8496  0.6197 -0.0532
   774G12c H00S14248   8.483   8.064   3.999  0.9370  3.5594  0.5799
   774G12c C01E14249   8.631   7.965   3.896  0.4575  0.6319 -1.0349
   774G12c O00814250   8.675   7.872   3.990 -0.5350  1.1245 -1.6133
   774G12c C01V14251   8.756   7.930   4.082 -0.5082 -0.3975 -1.2553
   774G12c C01Z14252   8.895   7.991   4.045  0.9119 -1.1784  0.4882
   774G12c H00R14253   8.953   7.908   4.084  3.1190 -1.2145 -2.6561
   774G12c H00Q14254   8.875   8.006   3.939 -5.9047 -4.0944  1.1072
   774G12c O00914255   8.933   8.121   4.069  0.4438  0.5647 -1.0652
   774G12c H00P14256   8.852   8.169   4.064  2.7738  4.6073 -2.6985
   774G12c C01W14257   8.702   7.935   4.203  0.4789 -0.4024 -0.9539
   774G12c H00O14258   8.599   7.902   4.211  0.8053 -0.6001  9.3188
   774G12c C01X14259   8.765   8.002   4.322 -0.4409 -0.2006  1.3479
   774G12c H00N14260   8.793   8.102   4.289 -1.3203 -0.7722 -1.2200
   774G12c H00M14261   8.695   8.040   4.397  3.5378  0.5264  4.8566
   774G12c C01Y14262   8.864   7.931   4.401 -2.2233 -2.2112  3.8755
   774G12c C02D14263   8.829   7.804   4.457 -0.5152 -0.6022 -1.4009
   774G12c H01914264   8.724   7.787   4.437 -1.3963  5.6117 -3.0298
   774G12c C02C14265   8.894   7.766   4.583  1.1855  0.0763 -0.4075
   774G12c H01A14266   8.823   7.706   4.638 -1.0130  2.3095 -0.7157
   774G12c C02B14267   9.006   7.843   4.626 -1.6336 -0.2108  1.7894
   774G12c O00E14268   9.054   7.812   4.746 -0.1721 -1.6567 -0.0662
   774G12c H01B14269   9.133   7.863   4.746  4.3656 -7.7434  6.1425
   774G12c C02F14270   9.077   7.927   4.540  1.2610 -1.0409 -0.1524
   774G12c O00F14271   9.143   8.011   4.620 -0.2416 -0.9478 -0.4468
   774G12c C02G14272   9.282   8.008   4.603  0.6921  0.1578 -0.9222
   774G12c H01714273   9.344   7.982   4.689  0.4699  2.1254 -0.1419
   774G12c H01614274   9.311   8.109   4.573  8.7354 -3.6542 -8.0455
   774G12c H01514275   9.321   7.936   4.530 -2.7527 -2.7082 -0.0774
   774G12c C02E14276   8.995   7.971   4.420  0.7376 -1.4796 -0.5766
   774G12c H01814277   9.014   8.055   4.356  3.1898 -0.5485  1.2825
   774G12c C01F14278   8.705   7.943   3.772  0.0959  2.9581 -1.8107
   774G12c C01G14279   8.785   7.820   3.736 -0.5291  1.6153  0.8360
   774G12c H00L14280   8.789   7.737   3.805 -6.1363 -1.7190 -2.4615
   774G12c C01H14281   8.821   7.781   3.605 -0.9356 -2.4116  1.7199
   774G12c H00B14282   8.839   7.675   3.590 -2.6711 -2.2784 -1.9349
   774G12c C01I14283   8.793   7.897   3.503  0.6952  1.5931 -0.0562
   774G12c C01U14284   8.672   8.027   3.666  0.5682  1.2549 -0.1099
   774G12c C00S14285   8.235   8.274   3.403 -1.3356  1.6121  0.3257
   774G12c C00K14286   8.420   8.186   3.318 -0.1342  1.3851  0.4493
   774G12c C00N14287   8.568   8.119   3.666  0.3167  1.2559 -0.0206
   774G12c C00014288   8.739   8.020   3.546  1.0526  1.7008 -1.0030
   774G12c C01J14289   8.727   7.894   3.363 -0.9972 -1.0660  0.6767
   774G12c C01K14290   8.746   7.778   3.276 -0.0159 -1.0628  0.9990
   774G12c C01P14291   8.858   7.678   3.281 -0.4159 -0.4932  0.3881
   774G12c C01Q14292   8.976   7.728   3.350  0.6707 -1.0403 -1.0833
   774G12c H00G14293   9.008   7.685   3.444  5.0981  8.0043  2.1058
   774G12c C01R14294   9.070   7.785   3.291  0.1015 -0.5853  0.3212
   774G12c H00F14295   9.059   7.825   3.192 -1.5530  1.1839  1.1981
   774G12c C01S14296   9.200   7.831   3.359 -0.8060 -0.3274 -0.1155
   774G12c H00E14297   9.175   7.783   3.454 -8.0500  3.1785  0.0896
   774G12c H00D14298   9.293   7.823   3.304 -0.9153  5.6612 -1.4302
   774G12c O00514299   9.184   7.971   3.348  0.1430 -0.0375  1.5444
   774G12c H00C14300   9.127   7.993   3.420  0.6670 -3.0873  2.9614
   774G12c C01O14301   8.834   7.561   3.213  0.6539  0.1713  0.2083
   774G12c H00H14302   8.878   7.483   3.274 -3.9111  1.4758  5.5717
   774G12c C01N14303   8.750   7.569   3.102 -1.2953 -1.1402 -1.3341
   774G12c O00614304   8.763   7.481   2.993 -0.0562  0.0986  1.0211
   774G12c C01T14305   8.853   7.384   2.978  0.3994 -0.4076  0.0415
   774G12c H00K14306   8.809   7.316   2.905 -3.6276  0.3900  1.6444
   774G12c H00J14307   8.873   7.336   3.074  6.1431 -5.2207 -3.2157
   774G12c H00I14308   8.941   7.434   2.936  2.2634 -2.4859  1.3293
   774G12c C01M14309   8.668   7.684   3.086  0.7618  0.3473  1.1731
   774G12c C02014310   8.463   8.096   3.210  0.4834  0.8249  0.0167
   774G12c C02114311   8.416   8.092   3.072 -0.8831  0.4304  0.3835
   774G12c C01L14312   8.660   7.791   3.166  0.4379  2.1010  0.9170
   774G12c O00714313   8.587   7.663   2.973 -0.9188  0.0864 -0.7385
   774G12c C02214314   8.419   7.992   2.989 -0.4161  2.2762  0.1697
   774G12c C02314315   8.281   8.134   3.054 -0.9228 -0.1716  0.0987
   774G12c C00G14316   8.005   8.100   3.075  0.6088 -0.1995  1.9405
   774G12c C00E14317   7.792   7.995   3.012 -1.5850  0.8895 -0.0320
   774G12c O00A14318   7.656   7.994   3.007  1.0212  0.4118  0.3339
   774G12c C02414319   7.596   7.867   3.075 -3.0361  1.5287 -1.1133
   774G12c H00V14320   7.618   7.777   3.017 -4.2754  1.1949 -1.0924
   774G12c H00U14321   7.495   7.888   3.038 -1.4715  5.1922 -3.6099
   774G12c H00T14322   7.606   7.885   3.182 -4.9470 -2.0928 -0.2055
   784G12c C00D14323  13.132   0.320  10.980  0.9332  0.1881  1.8689
   784G12c O00B14324  13.148   0.461  10.986 -2.0807 -0.7043  1.0516
   784G12c C02514325  13.107   0.543  11.082 -1.3467 -1.3186 -0.6616
   784G12c C02614326  13.208   0.672  11.103  0.2391 -0.6267  0.0118
   784G12c H00Y14327  13.159   0.760  11.145 -4.5008  2.3578-10.2862
   784G12c H00X14328  13.264   0.703  11.015 -2.4237  2.1335 -0.7730
   784G12c O00C14329  13.298   0.663  11.204  0.1649  0.7244 -0.5156
   784G12c H00W14330  13.355   0.587  11.207  3.3767  2.9470  5.3467
   784G12c C02714331  12.979   0.559  11.126  0.1488  1.0005  1.0076
   784G12c O00D14332  12.878   0.485  11.094 -1.2143 -0.7670  0.9240
   784G12c H00Z14333  12.826   0.451  11.165 -0.2356  3.1581  3.6802
   784G12c C02814334  12.948   0.650  11.242  1.6757  0.9061  0.2724
   784G12c C02914335  13.007   0.609  11.365 -2.4782 -0.2082  3.1299
   784G12c H01014336  13.071   0.527  11.337 -0.2791  3.2328 -2.9297
   784G12c C02T14337  12.969   0.653  11.495  0.3597  0.8541  1.0145
   784G12c H01O14338  13.016   0.622  11.587 -2.1683  3.7857  3.4356
   784G12c C02S14339  12.875   0.752  11.492 -0.1014  0.3935  0.5095
   784G12c O00J14340  12.812   0.791  11.602 -0.6831  0.2085 -0.1575
   784G12c H01P14341  12.745   0.839  11.556  4.6420  5.2921 -3.2328
   784G12c C02R14342  12.813   0.803  11.375  0.8341  0.4681 -1.1779
   784G12c O00I14343  12.713   0.902  11.405  0.1323  0.5273  1.3445
   784G12c C02Q14344  12.663   0.971  11.317 -0.8975 -0.8957  0.1892
   784G12c H01N14345  12.556   0.959  11.332 -0.6820  1.9611  4.7626
   784G12c H01R14346  12.681   0.953  11.211 -2.5363  0.9609 -0.4275
   784G12c H01Q14347  12.675   1.072  11.357  5.3536 -2.7860  3.8844
   784G12c C02A14348  12.844   0.745  11.255  0.0881 -0.5057 -0.7962
   784G12c H01114349  12.813   0.810  11.174  0.1695 -0.2212 -0.6005
   784G12c C00C14350  13.139   0.241  11.092 -0.8684  0.2691 -0.7638
   784G12c H01214351  13.165   0.306  11.174 -4.2956 -2.1378  2.3446
   784G12c C00B14352  13.081   0.104  11.085  0.8379 -0.4789  0.8418
   784G12c C00A14353  13.041   0.032  11.206 -0.1102  1.1177 -0.5667
   784G12c C00914354  13.074   0.046  11.347 -0.0990  1.3804  0.1830
   784G12c C00814355  13.181   0.117  11.396  0.0198 -1.3280 -1.8883
   784G12c H01314356  13.183   0.223  11.373  3.2624 -0.2442  2.6238
   784G12c C00714357  13.267   0.081  11.492 -1.8677  1.4749 -0.1771
   784G12c H01414358  13.335   0.154  11.533  4.3406  2.1842-10.0354
   784G12c C00614359  13.270  -0.054  11.538  1.9138  0.1537  1.3135
   784G12c C00514360  13.168  -0.133  11.477 -0.1753 -0.8189 -0.5123
   784G12c C00414361  13.191  -0.278  11.475  0.6730 -0.8924 -1.2012
   784G12c C00314362  13.114  -0.355  11.397 -0.9608  0.6613 -0.5983
   784G12c C00214363  13.129  -0.501  11.378 -1.1854 -1.1440  0.0966
   784G12c C00114364  13.072  -0.629  11.322  0.7055  0.0234  1.2460
   784G12c C00M14365  13.065  -0.630  11.170  0.0877  1.2703 -0.7088
   784G12c C00L14366  13.031  -0.501  11.121  0.6035  0.0136  0.9841
   784G12c C00R14367  13.035  -0.485  10.972 -1.5682  1.5984  0.3508
   784G12c C00Q14368  13.089  -0.542  10.855 -1.1345 -0.3589 -1.0154
   784G12c C00V14369  13.065  -0.480  10.728  0.3614 -0.5218  0.0962
   784G12c C00U14370  13.037  -0.345  10.720 -1.9136  0.7755  0.3584
   784G12c C00T14371  13.004  -0.275  10.836 -0.9335  2.2798  0.3621
   784G12c C01614372  12.976  -0.140  10.840  0.4352  1.6337  0.7028
   784G12c C01514373  13.014  -0.072  10.720 -1.0680  1.4053 -0.0118
   784G12c C01014374  13.014  -0.138  10.604 -1.4635 -0.1700  0.2279
   784G12c C01114375  12.956  -0.061  10.493  0.8019  0.5959 -0.3157
   784G12c H00514376  12.963  -0.091  10.390  2.6299 -0.7180  0.1782
   784G12c C01214377  12.910   0.071  10.497  0.4511  0.6374 -0.4251
   784G12c C01714378  12.831   0.127  10.389  1.2105 -1.0358 -0.8629
   784G12c O00214379  12.718   0.077  10.345  0.5262  0.4318  0.9356
   784G12c H00414380  12.698   0.135  10.273 -0.9277 -1.6618 -0.4113
   784G12c C01814381  12.854   0.245  10.356  0.9357 -0.4845 -2.3150
   784G12c O00114382  12.764   0.288  10.256 -0.2835 -0.0691 -0.2427
   784G12c H00314383  12.769   0.381  10.239  6.1689 -0.1528  0.1296
   784G12c C01914384  12.961   0.344  10.403 -0.1228 -1.8699  1.3703
   784G12c H00214385  12.923   0.380  10.498 -2.0963 -2.3513  0.7956
   784G12c H00114386  13.068   0.323  10.408  0.6237  1.0656 -0.7413
   784G12c O00014387  12.983   0.464  10.318  0.8630  0.6612  0.2768
   784G12c C01A14388  12.891   0.566  10.308 -0.9442  1.9843  1.1210
   784G12c C02K14389  12.767   0.582  10.380  0.9764  1.4616  0.2448
   784G12c O00G14390  12.721   0.490  10.475  1.1092  0.3726  0.1141
   784G12c C02M14391  12.600   0.527  10.554  0.5422  1.1573  0.2631
   784G12c H01G14392  12.574   0.631  10.576 -0.0348  2.2689 -4.9524
   784G12c H01F14393  12.618   0.496  10.657 -2.7720  4.2596  1.9125
   784G12c H01E14394  12.509   0.484  10.512 -2.7910  4.8515  3.2998
   784G12c C02J14395  12.716   0.717  10.356  0.4417  0.1644  1.1455
   784G12c H01H14396  12.646   0.747  10.433  0.0320 -0.9895  1.2291
   784G12c C02I14397  12.738   0.797  10.237 -0.2565 -0.7003 -0.2629
   784G12c C02N14398  12.661   0.903  10.189 -1.0028  0.4483  0.4247
   784G12c H01M14399  12.569   0.933  10.238 -1.6787  0.7588 -1.0106
   784G12c C02O14400  12.665   0.943  10.061 -1.3479  1.3986 -0.3847
   784G12c H01L14401  12.713   0.894   9.978  1.1569 -3.2998  3.5438
   784G12c C02P14402  12.567   1.022   9.978  1.6337 -1.1257 -1.3447
   784G12c H01K14403  12.561   0.961   9.889 -0.0971  4.4513 -5.3765
   784G12c H01J14404  12.502   1.040  10.064  3.0714  4.7671 -1.2319
   784G12c O00H14405  12.635   1.155   9.998 -0.1143 -0.3912  1.2693
   784G12c H01I14406  12.721   1.138  10.033  0.9017  3.6047  0.9357
   784G12c C02H14407  12.857   0.771  10.168  0.0874 -0.2726 -0.9568
   784G12c H01C14408  12.892   0.821  10.079  2.9566  1.3268  0.9967
   784G12c C02L14409  12.922   0.666  10.209  1.1983  1.1652 -1.1611
   784G12c H01D14410  13.020   0.639  10.171  0.9757 -7.2059  3.1537
   784G12c C01314411  12.937   0.133  10.627 -0.5292 -0.8321  0.2871
   784G12c H00014412  12.919   0.239  10.613  2.9714 -0.9723 -8.4165
   784G12c C01414413  13.001   0.065  10.734  0.5880  0.4885  1.3536
   784G12c C00F14414  13.055   0.131  10.849  0.3468  0.5496  0.6150
   784G12c C00H14415  12.995  -0.090  10.967 -0.4598 -0.0753 -1.3145
   784G12c C00I14416  12.967  -0.163  11.079 -0.5122 -0.4859 -0.2724
   784G12c C00J14417  12.961  -0.297  11.076  0.1773 -0.0228 -0.8434
   784G12c C00Z14418  13.038  -0.280  10.602  0.8842 -1.1347 -1.2815
   784G12c C00Y14419  13.067  -0.346  10.479 -1.3035 -0.0602  0.5460
   784G12c H00614420  13.057  -0.289  10.387  1.1807 -1.9523 -0.9775
   784G12c C00X14421  13.116  -0.471  10.486 -1.5245  0.3886  2.4617
   784G12c O00314422  13.178  -0.525  10.369  0.6680  1.6148 -0.0357
   784G12c C01B14423  13.282  -0.461  10.292 -0.5638  1.6060 -0.3369
   784G12c H00914424  13.242  -0.389  10.220 -2.2219  3.3876  2.2721
   784G12c H00814425  13.332  -0.529  10.222 -2.4363  0.7249 -0.8571
   784G12c H00714426  13.352  -0.396  10.343  1.6026  0.7315 -2.1008
   784G12c C00W14427  13.096  -0.546  10.610  0.1593 -0.0757 -1.2301
   784G12c O00414428  13.111  -0.675  10.614 -0.1560  0.6239  0.5786
   784G12c C01C14429  13.182  -0.718  10.732 -1.2284  0.4610 -1.4308
   784G12c H00A14430  13.282  -0.679  10.738 -0.7719 -1.1062  2.9421
   784G12c C00P14431  13.136  -0.673  10.852 -2.1657  1.0198 -0.9668
   784G12c C00O14432  13.186  -0.749  10.965  0.5763  0.2577  0.8910
   784G12c C01D14433  13.287  -0.850  10.956  0.4996  0.5904 -1.3570
   784G12c H00S14434  13.304  -0.913  10.870  2.5873 -1.9446  0.8027
   784G12c C01E14435  13.377  -0.881  11.057 -0.0096  1.1497 -0.2070
   784G12c O00814436  13.482  -0.977  11.034  0.0495  1.6676  1.0057
   784G12c C01V14437  13.514  -1.015  10.910 -0.5124 -1.5490 -0.5994
   784G12c C01Z14438  13.454  -1.162  10.892 -2.0872  0.7620  1.6013
   784G12c H00R14439  13.409  -1.184  10.989  2.7349 -2.3774  3.3117
   784G12c H00Q14440  13.357  -1.169  10.843  1.8069 -0.9847 -6.8130
   784G12c O00914441  13.569  -1.252  10.884 -0.0073  1.4099 -0.3939
   784G12c H00P14442  13.617  -1.201  10.820 -0.2945  0.4721 -1.3710
   784G12c C01W14443  13.602  -0.936  10.839  0.9985  1.4750 -0.1399
   784G12c H00O14444  13.638  -0.982  10.748  1.1199  0.9598  0.1641
   784G12c C01X14445  13.656  -0.806  10.888 -0.3458  1.2160 -0.8211
   784G12c H00N14446  13.605  -0.804  10.984 -1.3716  4.0513 -1.3649
   784G12c H00M14447  13.759  -0.799  10.922 -1.2430 -3.0211  3.2507
   784G12c C01Y14448  13.599  -0.698  10.794 -0.8933 -0.5698 -1.1334
   784G12c C02D14449  13.621  -0.684  10.657  0.2256  1.5821  0.6206
   784G12c H01914450  13.643  -0.770  10.595  5.1169  5.5059 -3.4769
   784G12c C02C14451  13.589  -0.556  10.595  0.4004 -0.4453 -1.8647
   784G12c H01A14452  13.655  -0.535  10.512  3.9199  0.0251  0.9021
   784G12c C02B14453  13.540  -0.457  10.684  0.4349  1.3141  1.3074
   784G12c O00E14454  13.519  -0.346  10.611 -0.3390 -0.5985 -0.0757
   784G12c H01B14455  13.425  -0.350  10.613 -0.2612 -2.3462  0.2660
   784G12c C02F14456  13.513  -0.464  10.820 -0.6580 -0.9083 -1.0998
   784G12c O00F14457  13.471  -0.351  10.890 -1.1090  1.4307 -0.8487
   784G12c C02G14458  13.367  -0.387  10.973 -0.0494  0.9434  1.4223
   784G12c H01714459  13.412  -0.441  11.056 -2.9132 -2.5241  0.8764
   784G12c H01614460  13.319  -0.468  10.918 -0.1624  0.4183  2.2827
   784G12c H01514461  13.293  -0.310  10.997 -2.2203  0.4773 -3.0994
   784G12c C02E14462  13.556  -0.583  10.878  0.1299  0.9544  0.6322
   784G12c H01814463  13.518  -0.610  10.976  0.6389  1.9879  1.1153
   784G12c C01F14464  13.350  -0.830  11.186 -0.2559  0.5998 -0.7327
   784G12c C01G14465  13.427  -0.857  11.311  0.2905  0.9145 -0.2285
   784G12c H00L14466  13.496  -0.939  11.323 -0.7915  0.0059 -0.1717
   784G12c C01H14467  13.404  -0.769  11.423 -0.7850 -0.4035  0.2994
   784G12c H00B14468  13.481  -0.738  11.492 -0.5379  3.4447 -1.5516
   784G12c C01I14469  13.277  -0.700  11.418 -0.0275 -0.0519  0.3782
   784G12c C01U14470  13.220  -0.788  11.212  0.4241  0.9228 -0.2662
   784G12c C00S14471  12.986  -0.358  10.957  1.2278  1.3909 -1.6031
   784G12c C00K14472  12.993  -0.379  11.190  0.7381 -0.1794  1.6486
   784G12c C00N14473  13.162  -0.720  11.104 -0.8006 -1.2874 -1.2458
   784G12c C00014474  13.170  -0.733  11.337 -0.1134  0.2393  0.8435
   784G12c C01J14475  13.255  -0.549  11.449  0.0423 -0.7482 -1.4654
   784G12c C01K14476  13.320  -0.471  11.559  0.7688 -0.1028  0.5348
   784G12c C01P14477  13.414  -0.509  11.660  2.5462 -0.2395 -1.6154
   784G12c C01Q14478  13.381  -0.651  11.714  0.2605 -0.0181 -1.5044
   784G12c H00G14479  13.278  -0.680  11.702 -1.8308  4.1082  4.1030
   784G12c C01R14480  13.497  -0.725  11.750  0.0890  1.8804 -0.3057
   784G12c H00F14481  13.586  -0.680  11.793  1.9822 -5.1990  4.0352
   784G12c C01S14482  13.467  -0.874  11.773 -0.0935 -0.8195  0.2743
   784G12c H00E14483  13.566  -0.890  11.731  0.3349 -0.1519  1.0116
   784G12c H00D14484  13.437  -0.912  11.871  5.1531 -0.7716  2.0622
   784G12c O00514485  13.393  -0.938  11.665  0.4327  0.0617  0.5100
   784G12c H00C14486  13.299  -0.940  11.668 -0.6640-12.1062 -6.4765
   784G12c C01O14487  13.491  -0.404  11.745  0.7913  0.7667 -3.1641
   784G12c H00H14488  13.540  -0.457  11.825 -3.2882  1.4366 -0.1056
   784G12c C01N14489  13.454  -0.285  11.736  0.0431 -0.6446 -0.6311
   784G12c O00614490  13.472  -0.238  11.866  0.5376  0.1870  0.2742
   784G12c C01T14491  13.387  -0.141  11.905  0.6549 -0.0588  0.0212
   784G12c H00K14492  13.415  -0.042  11.870  0.4197  0.7839  2.1222
   784G12c H00J14493  13.278  -0.149  11.911 -0.1553  7.9577  2.9034
   784G12c H00I14494  13.413  -0.149  12.011  5.9875  0.8449 -1.1009
   784G12c C01M14495  13.346  -0.244  11.643  0.7066 -0.6170 -0.0025
   784G12c C02014496  13.008  -0.302  11.310  2.6312  2.0243 -0.1498
   784G12c C02114497  12.971  -0.161  11.333 -0.1785  0.0788 -0.8276
   784G12c C01L14498  13.298  -0.331  11.537  0.1175  0.3483  0.3729
   784G12c O00714499  13.370  -0.110  11.617  0.2417  1.8669  1.1599
   784G12c C02214500  13.051  -0.086  11.409  0.4248  2.2002 -0.7732
   784G12c C02314501  12.969  -0.085  11.202  0.2643  1.0670  0.1475
   784G12c C00G14502  13.050   0.045  10.964  1.4846 -0.4901 -0.1489
   784G12c C00E14503  13.109   0.266  10.844 -0.1086  0.4570 -2.1052
   784G12c O00A14504  13.133   0.339  10.725 -0.4068 -1.0187 -0.0422
   784G12c C02414505  13.247   0.410  10.713 -0.8111  3.1384 -0.0488
   784G12c H00V14506  13.269   0.394  10.608 -2.2080 -4.0256  0.4674
   784G12c H00U14507  13.194   0.504  10.728 -0.6373  2.7630  3.4520
   784G12c H00T14508  13.335   0.371  10.763 -1.3987  3.2300  1.0790
   794G12c C00D14509   3.760   2.851  12.462 -1.2741  0.6379 -0.8969
   794G12c O00B14510   3.710   2.970  12.478 -0.6091  0.0530 -0.8185
   794G12c C02514511   3.566   2.994  12.477  2.0497  0.2121 -2.0032
   794G12c C02614512   3.517   2.891  12.567  2.5760  0.3723 -1.5125
   794G12c H00Y14513   3.558   2.792  12.586 -0.8501 -1.0994 -1.4310
   794G12c H00X14514   3.415   2.859  12.545  4.9597 -9.0162 -1.2328
   794G12c O00C14515   3.512   2.923  12.694 -0.6030  0.2571  0.2164
   794G12c H00W14516   3.562   3.003  12.707 -9.0119  5.6820  4.1994
   794G12c C02714517   3.522   3.097  12.394 -1.0801  0.5191 -0.1535
   794G12c O00D14518   3.616   3.176  12.363 -1.6585  1.0111 -0.0042
   794G12c H00Z14519   3.674   3.114  12.322  1.6684 -5.6185 12.4326
   794G12c C02814520   3.389   3.147  12.374  0.7608  0.7798  0.3490
   794G12c C02914521   3.331   3.159  12.248 -0.4612 -1.0847 -0.9380
   794G12c H01014522   3.364   3.097  12.166  0.5567  0.1056 -1.4505
   794G12c C02T14523   3.202   3.185  12.236  1.7324  0.4597 -0.0742
   794G12c H01O14524   3.142   3.170  12.147  0.8284  3.2587 -0.0117
   794G12c C02S14525   3.114   3.184  12.345  0.5669  0.3557  0.3231
   794G12c O00J14526   2.993   3.228  12.313 -0.0220 -0.7725  0.5581
   794G12c H01P14527   2.931   3.203  12.380  1.7685 -6.8875  0.2003
   794G12c C02R14528   3.172   3.165  12.478 -0.8763 -0.2091  0.7456
   794G12c O00I14529   3.096   3.185  12.595  1.4373  0.3963 -0.1276
   794G12c C02Q14530   3.053   3.058  12.632  0.0664 -0.9834 -1.3539
   794G12c H01N14531   2.987   3.074  12.716  1.6592 -3.7979  0.5395
   794G12c H01R14532   3.151   3.017  12.659  1.5846  5.8577  5.1993
   794G12c H01Q14533   2.998   2.973  12.591 -2.9907 -3.2646  6.5448
   794G12c C02A14534   3.308   3.153  12.491  0.2734 -1.6959 -0.7116
   794G12c H01114535   3.353   3.171  12.587 -0.8911  4.6475 -1.1789
   794G12c C00C14536   3.824   2.773  12.568  1.5128 -0.0044 -0.5826
   794G12c H01214537   3.833   2.797  12.673 11.1717  0.7334 -1.1110
   794G12c C00B14538   3.862   2.638  12.536 -1.2085  0.1986 -0.5105
   794G12c C00A14539   3.929   2.532  12.614  0.2346 -0.5152  0.2390
   794G12c C00914540   4.061   2.561  12.688  1.6693 -1.1745  1.1776
   794G12c C00814541   4.140   2.676  12.724  1.8929  1.5098  0.3667
   794G12c H01314542   4.094   2.773  12.718  4.9851  2.8992 -3.6604
   794G12c C00714543   4.285   2.662  12.744  1.2197 -0.7878 -0.0501
   794G12c H01414544   4.337   2.756  12.761 -3.3809  1.4961  2.4371
   794G12c C00614545   4.343   2.545  12.752  0.7910  0.1437  1.5336
   794G12c C00514546   4.255   2.434  12.717  0.5453 -0.7919 -0.4272
   794G12c C00414547   4.325   2.309  12.685  0.8356  0.3893 -0.9724
   794G12c C00314548   4.270   2.209  12.601  0.6179 -1.8325  0.3315
   794G12c C00214549   4.350   2.092  12.548  0.2100  0.5520  0.9997
   794G12c C00114550   4.316   1.966  12.481  0.9581  0.5976  0.0578
   794G12c C00M14551   4.261   1.997  12.346  0.8476 -0.7934 -0.6540
   794G12c C00L14552   4.162   2.091  12.330 -1.2362  0.1491 -0.3444
   794G12c C00R14553   4.108   2.136  12.207  0.3158  0.1079 -0.0205
   794G12c C00Q14554   4.143   2.107  12.071 -0.1539  0.3997 -0.7112
   794G12c C00V14555   4.068   2.198  11.980  0.2579  0.8138 -0.7680
   794G12c C00U14556   3.960   2.283  12.022 -0.1437 -1.2159 -0.4642
   794G12c C00T14557   3.941   2.312  12.151  0.0730  0.7106 -0.4420
   794G12c C01614558   3.880   2.418  12.212  0.0151  0.1502  0.5030
   794G12c C01514559   3.828   2.502  12.127  1.2040 -0.4883 -1.6747
   794G12c C01014560   3.799   2.468  12.001  0.3830 -0.7618  0.2401
   794G12c C01114561   3.722   2.520  11.911 -0.7053  0.0358 -1.0535
   794G12c H00514562   3.700   2.509  11.806  2.1304  0.3416 -1.7162
   794G12c C01214563   3.650   2.630  11.957  0.3807  0.6397  0.4443
   794G12c C01714564   3.544   2.700  11.886 -1.5001 -0.4925 -0.9743
   794G12c O00214565   3.568   2.790  11.782 -1.1328  0.4388 -0.0920
   794G12c H00414566   3.483   2.829  11.766  1.0032  3.5963 -4.6702
   794G12c C01814567   3.434   2.621  11.902 -0.0440 -1.0368 -0.6110
   794G12c O00114568   3.410   2.499  11.976  0.3259  0.5424  0.8908
   794G12c H00314569   3.491   2.506  12.024 -1.2028  4.5091  3.1730
   794G12c C01914570   3.301   2.658  11.834  0.2272  0.4806 -0.3226
   794G12c H00214571   3.300   2.577  11.760 -0.9810  1.8935 -1.8769
   794G12c H00114572   3.252   2.594  11.908 -1.1286  3.4774  1.4348
   794G12c O00014573   3.283   2.792  11.806 -0.4921  0.1552  0.4121
   794G12c C01A14574   3.215   2.838  11.698  0.4237  0.1713 -0.7753
   794G12c C02K14575   3.239   2.797  11.573  0.3796 -1.2722 -0.1016
   794G12c O00G14576   3.343   2.732  11.536 -2.0098 -0.4715  0.3485
   794G12c C02M14577   3.411   2.774  11.408 -0.6859 -1.4538 -1.3137
   794G12c H01G14578   3.322   2.759  11.346 -2.1787  2.1769 -0.1549
   794G12c H01F14579   3.485   2.695  11.389 -3.0231 -4.3391  1.0282
   794G12c H01E14580   3.461   2.869  11.420  1.0990 -2.5902  0.5821
   794G12c C02J14581   3.145   2.831  11.481  0.1267 -0.9606 -0.5780
   794G12c H01H14582   3.145   2.820  11.373 -2.1174  1.3202 -0.8587
   794G12c C02I14583   3.023   2.888  11.506 -0.5686  0.5125 -0.3932
   794G12c C02N14584   2.930   2.961  11.434 -1.2301 -0.1313 -1.0801
   794G12c H01M14585   2.934   3.068  11.420  5.7712 -0.8765 -8.8972
   794G12c C02O14586   2.839   2.882  11.375  3.0349  0.9058  0.1775
   794G12c H01L14587   2.842   2.774  11.385 -3.6819  0.7454  3.6930
   794G12c C02P14588   2.716   2.946  11.335  0.4122  0.1498 -0.9136
   794G12c H01K14589   2.717   3.021  11.256 -0.5819  0.4647 -0.6391
   794G12c H01J14590   2.659   2.855  11.313 -0.3899  0.1176  1.1870
   794G12c O00H14591   2.663   2.986  11.456 -0.1284  0.0809  0.2804
   794G12c H01I14592   2.731   2.972  11.519  1.3701  1.0282 -1.1015
   794G12c C02H14593   2.985   2.896  11.640 -0.0616 -0.6096 -0.6953
   794G12c H01C14594   2.897   2.914  11.700 -1.4830 -4.5047 -1.4984
   794G12c C02L14595   3.081   2.872  11.738  0.6902  0.4848 -1.3773
   794G12c H01D14596   3.056   2.835  11.836 -3.6792  2.1444 -1.7452
   794G12c C01314597   3.668   2.678  12.088  1.0359 -1.1072 -1.6608
   794G12c H00014598   3.591   2.749  12.118 -1.0712 -0.4989 -7.8623
   794G12c C01414599   3.750   2.599  12.174 -0.5355 -0.1689  0.8342
   794G12c C00F14600   3.758   2.655  12.309  0.0627  0.5814  0.3054
   794G12c C00H14601   3.867   2.454  12.352 -1.1478  0.8074  0.6594
   794G12c C00I14602   3.931   2.358  12.439 -1.0580 -0.7293  1.7344
   794G12c C00J14603   3.983   2.244  12.379  0.2890 -0.1541  1.5591
   794G12c C00Z14604   3.884   2.358  11.939  1.3901 -1.7970  0.1178
   794G12c C00Y14605   3.894   2.335  11.798  0.8009  0.5187 -0.5249
   794G12c H00614606   3.829   2.401  11.742  0.1151  1.1001  0.9299
   794G12c C00X14607   3.978   2.240  11.747  0.4285 -0.1212 -0.3734
   794G12c O00314608   3.954   2.184  11.629 -1.0294 -0.9537 -1.4613
   794G12c C01B14609   4.005   2.055  11.585  0.1859  0.1864  0.6238
   794G12c H00914610   3.908   2.006  11.591 -1.2801  2.8753 -0.2174
   794G12c H00814611   4.053   2.049  11.488 -3.6613  2.9996 -1.5451
   794G12c H00714612   4.056   1.998  11.663  3.0941  2.9613  0.8424
   794G12c C00W14613   4.088   2.188  11.837 -0.1366 -1.8144  1.0020
   794G12c O00414614   4.208   2.137  11.790  0.1841 -0.9325 -1.4630
   794G12c C01C14615   4.290   2.060  11.871 -0.1835 -0.2786  0.7843
   794G12c H00A14616   4.284   1.960  11.831 -2.4085  1.3710 -3.3361
   794G12c C00P14617   4.271   2.042  12.014  1.3649 -0.0586 -0.6311
   794G12c C00O14618   4.367   1.984  12.106  0.3948 -0.4572  0.3403
   794G12c C01D14619   4.486   1.921  12.043  0.5422 -0.8330  0.5894
   794G12c H00S14620   4.477   1.901  11.937  0.1043 -2.9347  1.0053
   794G12c C01E14621   4.590   1.864  12.117  0.4928  1.4750 -0.3423
   794G12c O00814622   4.690   1.824  12.031  1.9851 -0.9403 -0.2431
   794G12c C01V14623   4.814   1.850  12.055 -0.2411  0.2553  0.7972
   794G12c C01Z14624   4.886   1.721  12.108  0.6128  0.7942  0.6380
   794G12c H00R14625   4.994   1.705  12.116  1.3715  3.6074 -2.6425
   794G12c H00Q14626   4.830   1.719  12.202 -0.7358  4.2118 -0.0201
   794G12c O00914627   4.843   1.617  12.023 -0.4345  0.3552  0.3607
   794G12c H00P14628   4.752   1.638  12.005  0.2500  0.2226 -4.0179
   794G12c C01W14629   4.874   1.962  12.038 -0.5841 -0.0867  0.8380
   794G12c H00O14630   4.807   2.043  12.014  0.6580  0.2483 -1.6851
   794G12c C01X14631   5.027   1.991  12.039  0.9678 -0.3454  1.0277
   794G12c H00N14632   5.082   1.922  11.975 -2.2587 -1.4685 -0.6698
   794G12c H00M14633   5.035   2.097  12.014  0.2330  0.0650  2.4763
   794G12c C01Y14634   5.101   2.035  12.160 -0.4653  0.9642  0.1563
   794G12c C02D14635   5.241   2.009  12.163  0.5817  2.0991 -0.0717
   794G12c H01914636   5.290   1.977  12.073  1.9984 -0.9661  1.7056
   794G12c C02C14637   5.313   2.043  12.279  0.5505 -2.2707 -0.2490
   794G12c H01A14638   5.420   2.033  12.287  1.3067  5.0265  3.3843
   794G12c C02B14639   5.231   2.098  12.387 -0.8912  1.7653 -1.1822
   794G12c O00E14640   5.271   2.129  12.510 -0.1175  0.2337  0.1869
   794G12c H01B14641   5.229   2.212  12.524  3.8198  2.0970  1.4322
   794G12c C02F14642   5.093   2.121  12.370  0.6021  0.7191  0.5300
   794G12c O00F14643   5.022   2.151  12.484  1.1913  0.8859  0.1907
   794G12c C02G14644   4.965   2.283  12.467  2.4197  0.7855 -1.7617
   794G12c H01714645   5.016   2.361  12.410 -4.1331  6.7920 -0.1441
   794G12c H01614646   4.929   2.323  12.562  1.9073 -2.6874 -0.4141
   794G12c H01514647   4.876   2.279  12.405 -0.9485 -3.1515  2.9686
   794G12c C02E14648   5.020   2.081  12.267 -0.7017 -0.2991  0.7648
   794G12c H01814649   4.913   2.092  12.271 -0.4636  7.1777 -3.2211
   794G12c C01F14650   4.578   1.884  12.249 -1.5014 -1.3095  2.1707
   794G12c C01G14651   4.696   1.917  12.325 -0.7036 -0.9891  0.4118
   794G12c H00L14652   4.802   1.924  12.307 -1.1886  0.9337 -2.0689
   794G12c C01H14653   4.675   1.984  12.452  0.3688 -0.3682  0.3452
   794G12c H00B14654   4.745   2.059  12.485  3.2059 -2.9911  0.4520
   794G12c C01I14655   4.549   1.978  12.527  1.9056 -0.1175 -0.4192
   794G12c C01U14656   4.458   1.897  12.321  0.4719  1.0684  0.5923
   794G12c C00S14657   4.005   2.222  12.247 -1.2375  0.7853  0.2772
   794G12c C00K14658   4.095   2.172  12.440 -1.1246 -1.1312  0.1205
   794G12c C00N14659   4.361   1.962  12.246  1.1786  0.0175 -0.4553
   794G12c C00014660   4.435   1.900  12.471  1.3240 -0.5298 -1.3116
   794G12c C01J14661   4.479   2.094  12.591 -0.8351 -1.6406  0.6508
   794G12c C01K14662   4.539   2.180  12.702 -0.2720 -1.2228 -0.3018
   794G12c C01P14663   4.647   2.135  12.778  0.2045 -0.7646 -0.3994
   794G12c C01Q14664   4.724   2.016  12.796  1.4663  1.6999 -1.4980
   794G12c H00G14665   4.686   1.915  12.785 10.1433 -2.3922  1.3037
   794G12c C01R14666   4.856   2.007  12.841  0.2712  0.4576 -2.2419
   794G12c H00F14667   4.913   2.098  12.851 -2.2716  2.1578 -2.7569
   794G12c C01S14668   4.892   1.860  12.861 -0.7873 -0.0628 -0.4432
   794G12c H00E14669   4.930   1.837  12.762 -5.5580  2.9614 -3.2023
   794G12c H00D14670   4.965   1.868  12.941 -2.4692  0.9212  1.0534
   794G12c O00514671   4.827   1.732  12.854  0.8255 -0.0734 -0.8401
   794G12c H00C14672   4.802   1.694  12.772 -6.9897  3.1509 -0.4523
   794G12c C01O14673   4.694   2.241  12.856  1.2308 -0.3751 -0.4637
   794G12c H00H14674   4.782   2.236  12.919 -0.0206 -2.5405  1.1631
   794G12c C01N14675   4.640   2.380  12.865  1.1583 -0.3447 -1.7066
   794G12c O00614676   4.717   2.449  12.941 -0.4716  1.1775  0.3587
   794G12c C01T14677   4.693   2.476  13.085 -0.2956 -0.9342  0.9366
   794G12c H00K14678   4.667   2.387  13.142 -3.0527  0.4678  1.9940
   794G12c H00J14679   4.602   2.530  13.113  0.0586 -3.1661  7.0768
   794G12c H00I14680   4.774   2.517  13.146 -3.4856  1.3137  3.8344
   794G12c C01M14681   4.519   2.410  12.804  1.3229 -0.0525  2.8416
   794G12c C02014682   4.137   2.229  12.562  2.3090 -1.9673 -1.0820
   794G12c C02114683   4.059   2.324  12.634  0.8415  0.8206  0.1458
   794G12c C01L14684   4.458   2.301  12.721 -0.7262 -0.0177  0.6554
   794G12c O00714685   4.463   2.531  12.817  0.3500 -0.8888  0.9268
   794G12c C02214686   4.123   2.436  12.690  0.1498 -0.7591  2.9334
   794G12c C02314687   3.946   2.393  12.574  0.9373 -1.6784  0.6964
   794G12c C00G14688   3.831   2.585  12.400  2.3956 -1.2504  0.7707
   794G12c C00E14689   3.733   2.790  12.331 -1.1296  0.3720  0.5366
   794G12c O00A14690   3.667   2.881  12.241  0.3518  0.6690  0.6646
   794G12c C02414691   3.752   2.928  12.136 -0.7212 -1.7901 -0.8727
   794G12c H00V14692   3.782   3.023  12.181 -3.8583  1.1265 -4.5348
   794G12c H00U14693   3.837   2.866  12.109  4.8307  5.1888 -0.9912
   794G12c H00T14694   3.696   2.962  12.049 -2.0051 -3.4956 -0.7371
   804G12c C00D14695   2.264   1.757  10.359  0.8924  0.6437  0.9493
   804G12c O00B14696   2.190   1.678  10.437 -0.1648  0.6155 -0.0538
   804G12c C02514697   2.224   1.700  10.570  1.4314 -0.1252 -0.4630
   804G12c C02614698   2.257   1.571  10.643 -0.2628 -1.5260  0.2443
   804G12c H00Y14699   2.262   1.556  10.751 -0.3971 -3.1398  0.0379
   804G12c H00X14700   2.330   1.526  10.575 -1.0427 -1.5694 -0.5662
   804G12c O00C14701   2.143   1.485  10.628 -0.1280 -1.3975 -0.5373
   804G12c H00W14702   2.112   1.473  10.540  3.0905 -2.4970 -1.5922
   804G12c C02714703   2.220   1.814  10.640 -1.7922  2.3156 -0.9582
   804G12c O00D14704   2.193   1.939  10.602 -0.9879 -0.5366  0.2653
   804G12c H00Z14705   2.159   1.932  10.514  3.2532  0.5938 -1.5590
   804G12c C02814706   2.241   1.819  10.775 -0.0313  2.3801 -0.1361
   804G12c C02914707   2.375   1.853  10.827 -0.3664  0.2503  0.6132
   804G12c H01014708   2.449   1.901  10.764  0.1998  9.1570  6.9377
   804G12c C02T14709   2.418   1.855  10.968  1.9884  1.1822 -0.4518
   804G12c H01O14710   2.514   1.897  10.992  1.6533  3.2793 -2.5310
   804G12c C02S14711   2.308   1.800  11.058 -0.9314 -1.8490  0.6011
   804G12c O00J14712   2.334   1.788  11.187 -0.1530 -0.6250  0.4227
   804G12c H01P14713   2.272   1.768  11.256 -0.3512  0.3367  0.5382
   804G12c C02R14714   2.170   1.766  11.016  1.0358  0.2674  0.8617
   804G12c O00I14715   2.064   1.723  11.087  0.0603  1.3235  0.9884
   804G12c C02Q14716   2.058   1.577  11.117  1.6545 -0.9251 -0.4945
   804G12c H01N14717   2.104   1.561  11.215  5.4602 -5.3568 -2.8094
   804G12c H01R14718   1.949   1.576  11.119  1.5300 -3.2527  5.8153
   804G12c H01Q14719   2.103   1.501  11.053  1.8006 -2.6360  1.5680
   804G12c C02A14720   2.135   1.788  10.880  0.8089  0.4677 -2.4841
   804G12c H01114721   2.034   1.759  10.856 -1.8967  4.0850  3.2770
   804G12c C00C14722   2.404   1.743  10.334  0.5007 -0.8059  1.2736
   804G12c H01214723   2.448   1.661  10.388  4.1913  1.4227  1.7982
   804G12c C00B14724   2.471   1.831  10.241 -1.5893  1.4099 -0.5237
   804G12c C00A14725   2.610   1.823  10.202 -1.6518  0.1120 -0.1899
   804G12c C00914726   2.732   1.748  10.247 -2.4345 -1.5384 -0.5409
   804G12c C00814727   2.776   1.680  10.367 -0.7562  0.6119  0.3675
   804G12c H01314728   2.712   1.609  10.417 -0.5201 -2.0475 -2.9437
   804G12c C00714729   2.897   1.691  10.423  1.2187  0.8402  0.3498
   804G12c H01414730   2.931   1.636  10.509 -1.4633 -1.8094 -0.2309
   804G12c C00614731   2.985   1.793  10.397  0.1553 -1.7979 -0.9625
   804G12c C00514732   2.953   1.849  10.268 -0.4217  1.6564 -1.8229
   804G12c C00414733   3.034   1.957  10.226  2.0035  0.5148 -1.1735
   804G12c C00314734   2.981   2.049  10.136 -2.5606 -0.7737 -1.8063
   804G12c C00214735   3.062   2.165  10.104 -1.9659  0.5652  0.0892
   804G12c C00114736   3.043   2.277  10.009  2.8480  0.2506 -0.4151
   804G12c C00M14737   2.921   2.338  10.016  1.0539  0.8217 -1.4987
   804G12c C00L14738   2.802   2.279   9.941  0.4940 -0.2588 -0.8865
   804G12c C00R14739   2.666   2.328   9.930  0.0972  1.2268  0.0937
   804G12c C00Q14740   2.619   2.459   9.963 -0.7736 -0.3717 -0.3254
   804G12c C00V14741   2.486   2.493   9.964 -0.3244  2.9430 -1.5388
   804G12c C00U14742   2.398   2.386   9.992  0.0566  2.2762  1.3312
   804G12c C00T14743   2.447   2.250   9.985  0.0469  1.0914 -0.1187
   804G12c C01614744   2.383   2.138  10.050  1.5129  0.8160 -2.2290
   804G12c C01514745   2.267   2.168  10.109  0.2276 -1.9518 -1.2981
   804G12c C01014746   2.198   2.289  10.069  0.5211  0.6533 -0.1966
   804G12c C01114747   2.061   2.302  10.112 -0.8121  0.1756  0.2588
   804G12c H00514748   2.008   2.390  10.079 -1.0072 -1.0391 -2.8180
   804G12c C01214749   2.005   2.233  10.219  0.5123  0.9259 -0.1088
   804G12c C01714750   1.875   2.280  10.286 -0.6654 -0.2407  0.3305
   804G12c O00214751   1.861   2.384  10.375  0.4621  1.2581  0.4743
   804G12c H00414752   1.816   2.360  10.455  0.8140 -4.1950 -0.7626
   804G12c C01814753   1.772   2.211  10.231 -2.3426  0.5469  0.9050
   804G12c O00114754   1.792   2.142  10.121  0.8177  0.3867 -0.1081
   804G12c H00314755   1.886   2.143  10.131  1.4125  1.7197 -4.7297
   804G12c C01914756   1.622   2.252  10.260 -1.7110  0.3186  1.2347
   804G12c H00214757   1.595   2.356  10.242  0.7497  0.6539 -0.7390
   804G12c H00114758   1.564   2.189  10.193  0.2070 -1.1958  0.9666
   804G12c O00014759   1.588   2.179  10.385 -0.7206  0.8927  0.6306
   804G12c C01A14760   1.499   2.263  10.443 -0.9947 -0.3094 -0.4040
   804G12c C02K14761   1.569   2.314  10.550 -0.5604  0.6017  0.1509
   804G12c O00G14762   1.695   2.270  10.577 -1.2362  0.8768  1.0654
   804G12c C02M14763   1.722   2.148  10.658 -1.5139  0.7046  1.5188
   804G12c H01G14764   1.699   2.057  10.603  0.1061 -1.1359  3.7814
   804G12c H01F14765   1.823   2.146  10.698 -0.1973 -1.1123 -1.7375
   804G12c H01E14766   1.654   2.192  10.731  2.1334  3.6136  3.3584
   804G12c C02J14767   1.497   2.418  10.626 -0.3368 -1.7279 -1.9493
   804G12c H01H14768   1.550   2.466  10.707  7.6186  3.7621 -9.5388
   804G12c C02I14769   1.362   2.459  10.582 -0.0722  0.4037  1.1182
   804G12c C02N14770   1.293   2.567  10.644 -0.0672  0.2903  1.1747
   804G12c H01M14771   1.284   2.650  10.574  4.3012  3.9551  4.6772
   804G12c C02O14772   1.303   2.594  10.780  0.2621  1.8209  0.5896
   804G12c H01L14773   1.263   2.686  10.820 -3.9896 -0.5998  2.3625
   804G12c C02P14774   1.325   2.485  10.885  0.7062 -0.2290 -4.3455
   804G12c H01K14775   1.389   2.408  10.843  2.5092 -2.7055  2.2827
   804G12c H01J14776   1.397   2.529  10.953  3.1882  1.9192 -8.1824
   804G12c O00H14777   1.236   2.467  10.995 -0.0174 -0.8286  0.1828
   804G12c H01I14778   1.229   2.377  11.021  0.5771 -1.7475 -2.6367
   804G12c C02H14779   1.313   2.413  10.461 -0.5662  0.7539 -1.1157
   804G12c H01C14780   1.213   2.449  10.444 -2.8537 -2.7191  3.5963
   804G12c C02L14781   1.391   2.328  10.389  1.6581 -0.1353  0.6193
   804G12c H01D14782   1.363   2.329  10.284  4.1215  4.1199 -0.1119
   804G12c C01314783   2.076   2.113  10.245  0.7853  0.4784 -1.0446
   804G12c H00014784   2.022   2.026  10.280  6.0930 -2.7155 -0.2040
   804G12c C01414785   2.201   2.071  10.180  1.2246  0.9099  0.2185
   804G12c C00F14786   2.261   1.946  10.205 -1.8458  0.2056 -1.5290
   804G12c C00H14787   2.455   2.024  10.068  1.4006 -0.0288 -0.5731
   804G12c C00I14788   2.592   2.012  10.052  0.1220 -0.0764 -1.3389
   804G12c C00J14789   2.645   2.111   9.974 -0.2314  1.1221  1.3353
   804G12c C00Z14790   2.262   2.395  10.008  0.1161 -0.6524  2.5971
   804G12c C00Y14791   2.205   2.530  10.004  0.5569  1.8494 -1.4408
   804G12c H00614792   2.113   2.568  10.045  0.5879  1.3330 -0.8846
   804G12c C00X14793   2.294   2.619   9.951 -1.0370  0.9933 -0.8111
   804G12c O00314794   2.251   2.752   9.950 -0.7797 -0.6084 -0.8266
   804G12c C01B14795   2.237   2.816   9.826  0.0254  0.2002 -1.3689
   804G12c H00914796   2.312   2.772   9.761  1.2883 -4.6329  3.0315
   804G12c H00814797   2.246   2.924   9.834  6.5832  0.2713 -6.1552
   804G12c H00714798   2.130   2.798   9.815 -1.5124  5.5511  2.2836
   804G12c C00W14799   2.432   2.620   9.931  0.4160  1.0646 -0.6089
   804G12c O00414800   2.521   2.728   9.913 -0.2132 -1.2530  1.0469
   804G12c C01C14801   2.632   2.697   9.972 -0.3553  1.0724 -0.2398
   804G12c H00A14802   2.614   2.712  10.077  4.7808 -6.8005  2.1697
   804G12c C00P14803   2.704   2.577   9.980 -0.8086 -1.2657 -0.8321
   804G12c C00O14804   2.841   2.588  10.039 -0.8478 -1.9455 -0.1810
   804G12c C01D14805   2.912   2.706  10.093  1.3292  1.8183 -1.0217
   804G12c H00S14806   2.865   2.803  10.086 -3.2804 -0.5016 -5.5004
   804G12c C01E14807   3.011   2.691  10.196  1.2175  0.9362  0.1410
   804G12c O00814808   3.059   2.789  10.294 -0.4179 -0.6001 -0.7306
   804G12c C01V14809   3.064   2.917  10.251 -0.0314 -0.8450  0.3593
   804G12c C01Z14810   3.134   2.963  10.131  0.8076 -0.3008 -0.1638
   804G12c H00R14811   3.221   2.897  10.125 -0.2485 -1.5909 -2.3732
   804G12c H00Q14812   3.192   3.055  10.129 -2.4934  1.9001  0.9493
   804G12c O00914813   3.048   3.002  10.019 -1.0751  1.3002 -0.3563
   804G12c H00P14814   3.009   3.081  10.054  0.4979  1.9635 -0.0213
   804G12c C01W14815   3.000   3.007  10.328  0.4941 -0.8203  1.7362
   804G12c H00O14816   2.973   2.992  10.431  0.3836  1.3964  2.0568
   804G12c C01X14817   2.978   3.163  10.339 -0.2618 -1.0592 -1.1490
   804G12c H00N14818   2.937   3.166  10.239 -4.5040  5.0410  0.4600
   804G12c H00M14819   2.910   3.188  10.421 -2.6063 -0.4987 -3.2316
   804G12c C01Y14820   3.115   3.233  10.347  0.3636  0.3859  0.4082
   804G12c C02D14821   3.201   3.185  10.463 -1.0838 -0.7716 -0.8490
   804G12c H01914822   3.198   3.124  10.552 -3.6710  4.8230  3.2176
   804G12c C02C14823   3.338   3.236  10.464  1.0776 -1.7120  0.4677
   804G12c H01A14824   3.389   3.204  10.554  2.4865  1.6632  0.9461
   804G12c C02B14825   3.384   3.317  10.354 -0.6967 -0.1333 -0.4708
   804G12c O00E14826   3.503   3.385  10.380 -0.1724  0.6949 -0.2591
   804G12c H01B14827   3.515   3.370  10.472 -0.2152 -1.5901 -0.6130
   804G12c C02F14828   3.295   3.389  10.258 -1.2686 -0.9887 -0.0845
   804G12c O00F14829   3.351   3.486  10.187 -1.8940  2.1995 -0.8778
   804G12c C02G14830   3.274   3.525  10.065  0.4556 -0.3767  0.3900
   804G12c H01714831   3.283   3.603   9.989 -5.3225 -1.7235 -1.9407
   804G12c H01614832   3.229   3.442  10.011 -1.5234  1.5685 -1.0130
   804G12c H01514833   3.174   3.536  10.107  1.8995  4.3089  3.0852
   804G12c C02E14834   3.151   3.336  10.252 -1.5024 -1.3351 -0.6866
   804G12c H01814835   3.079   3.357  10.174 -0.6501 -4.0201 -2.2697
   804G12c C01F14836   3.081   2.579  10.201  0.1165  0.9922  1.6463
   804G12c C01G14837   3.180   2.545  10.293  0.9247 -2.1407 -0.5044
   804G12c H00L14838   3.209   2.610  10.373  7.2218  1.9245 -5.5746
   804G12c C01H14839   3.219   2.410  10.292 -1.0412  0.7510  0.5884
   804G12c H00B14840   3.250   2.378  10.390 -1.5993  3.9564  1.8729
   804G12c C01I14841   3.199   2.317  10.178 -0.6851  1.1854  0.0821
   804G12c C01U14842   3.058   2.495  10.081 -0.5197  0.1572 -1.4869
   804G12c C00S14843   2.577   2.225   9.948  0.2862  0.5803 -0.3405
   804G12c C00K14844   2.779   2.154   9.996 -0.5284 -1.1780  0.2227
   804G12c C00N14845   2.922   2.476  10.070  2.0961 -0.5103  1.6054
   804G12c C00014846   3.135   2.375  10.065 -1.1569 -1.4218  2.7222
   804G12c C01J14847   3.171   2.176  10.189  0.6912  1.0595 -0.2939
   804G12c C01K14848   3.248   2.082  10.266  0.4003 -0.1198  0.6318
   804G12c C01P14849   3.380   2.095  10.309  1.3603 -0.1565 -1.3018
   804G12c C01Q14850   3.481   2.182  10.273 -1.2895  0.2261  1.6243
   804G12c H00G14851   3.512   2.266  10.333 -1.4239 -1.2712  3.8189
   804G12c C01R14852   3.551   2.150  10.145  0.2779  0.1421  0.0793
   804G12c H00F14853   3.651   2.181  10.117  1.2088 -5.3486 -3.4238
   804G12c C01S14854   3.530   2.010  10.076  1.1804 -0.8735  0.4162
   804G12c H00E14855   3.438   2.008  10.016  2.4753 -3.9078 -1.5654
   804G12c H00D14856   3.577   2.024   9.978 -0.9653  4.9253  0.0082
   804G12c O00514857   3.592   1.891  10.126  0.8923  1.6171  0.6719
   804G12c H00C14858   3.533   1.864  10.195  2.4527  2.6100  2.4127
   804G12c C01O14859   3.419   2.009  10.404  1.0872  0.2933 -2.5173
   804G12c H00H14860   3.522   1.994  10.429  0.5274 -0.8315 -0.8361
   804G12c C01N14861   3.331   1.904  10.453 -0.0192 -0.2056  1.7695
   804G12c O00614862   3.362   1.797  10.539  0.7608  0.6881 -0.1319
   804G12c C01T14863   3.460   1.836  10.632  0.4428 -0.3991  0.6643
   804G12c H00K14864   3.551   1.851  10.574  1.1982  2.9022  2.6141
   804G12c H00J14865   3.462   1.770  10.718  3.6344  3.6485  3.8758
   804G12c H00I14866   3.423   1.936  10.653 -3.5499 -0.7296 -3.8533
   804G12c C01M14867   3.198   1.900  10.403 -0.0822 -0.8021 -1.7666
   804G12c C02014868   2.858   2.058  10.061 -0.8207  2.0483 -1.0198
   804G12c C02114869   2.800   1.924  10.098  1.1586 -0.8062 -0.9218
   804G12c C01L14870   3.157   1.981  10.292 -0.6856 -1.1726  2.0518
   804G12c O00714871   3.114   1.794  10.443  0.2848 -0.6129 -0.8705
   804G12c C02214872   2.841   1.824  10.182 -0.2546 -0.1430  1.4713
   804G12c C02314873   2.667   1.897  10.095  1.7190  0.1886  0.0138
   804G12c C00G14874   2.394   1.924  10.174 -0.2202 -0.3777  0.5202
   804G12c C00E14875   2.196   1.851  10.286 -0.6333  0.3106  0.9580
   804G12c O00A14876   2.065   1.816  10.293  0.8885  0.0737 -0.4958
   804G12c C02414877   2.021   1.780  10.154 -0.4343  2.1741 -1.4342
   804G12c H00V14878   1.915   1.775  10.178 -1.1052  5.2291 -3.4755
   804G12c H00U14879   2.083   1.695  10.127  0.9009  2.0104  2.0025
   804G12c H00T14880   2.023   1.856  10.076 -0.0169 -0.6802 -4.3270
   814G12c C00D14881   5.358  12.502   9.168  0.7297 -0.5858  0.9084
   814G12c O00B14882   5.377  12.462   9.037  0.6583 -2.1516  1.7158
   814G12c C02514883   5.493  12.515   8.959  0.1791  1.5654 -2.8275
   814G12c C02614884   5.445  12.613   8.864  1.1793 -1.0916  0.9812
   814G12c H00Y14885   5.496  12.595   8.769 -3.3628  0.7815 -2.0017
   814G12c H00X14886   5.465  12.716   8.895  2.0043 -1.5317  1.9410
   814G12c O00C14887   5.324  12.559   8.808 -0.1619 -2.2469 -0.8871
   814G12c H00W14888   5.319  12.480   8.860 -1.0857 -1.2868  0.4962
   814G12c C02714889   5.630  12.491   9.006  0.1698  0.7420 -1.0053
   814G12c O00D14890   5.647  12.383   9.095 -0.7632  0.7070 -0.5263
   814G12c H00Z14891   5.616  12.445   9.159 -4.2254  2.4253 -3.6338
   814G12c C02814892   5.725  12.560   8.920  0.1836 -0.9191  0.6270
   814G12c C02914893   5.786  12.678   8.948  0.7494 -0.1384 -0.1573
   814G12c H01014894   5.761  12.729   9.040 -0.9212 -1.1698 -0.0272
   814G12c C02T14895   5.879  12.748   8.860  0.8538 -0.4546 -1.0906
   814G12c H01O14896   5.910  12.848   8.888 -5.3057  1.0828  0.9247
   814G12c C02S14897   5.930  12.672   8.749 -1.1955 -0.7384  0.6953
   814G12c O00J14898   6.017  12.729   8.671  1.0038  0.8260 -0.2269
   814G12c H01P14899   6.013  12.697   8.582  0.5693  2.3491 -0.7674
   814G12c C02R14900   5.876  12.546   8.716 -0.8269  0.4151 -0.0680
   814G12c O00I14901   5.912  12.515   8.587 -1.0643  0.9653  1.1639
   814G12c C02Q14902   5.804  12.487   8.500  0.4338  0.3247 -1.6346
   814G12c H01N14903   5.828  12.448   8.401 -0.2587 -0.3435 -1.5373
   814G12c H01R14904   5.769  12.588   8.477 -3.0463 -1.7575 -6.2835
   814G12c H01Q14905   5.714  12.461   8.555 -1.6433  2.0051 -4.0952
   814G12c C02A14906   5.777  12.489   8.801 -1.6930 -0.7987  1.4248
   814G12c H01114907   5.750  12.386   8.778  1.1204 -1.6912  2.0199
   814G12c C00C14908   5.358  12.647   9.183 -0.3511  1.6027  0.8319
   814G12c H01214909   5.355  12.705   9.091 -8.4128  6.6724  3.8208
   814G12c C00B14910   5.344  12.699   9.312  2.1908 -0.0112 -0.5660
   814G12c C00A14911   5.323  12.840   9.346 -0.3988  0.5292  0.6536
   814G12c C00914912   5.401  12.940   9.282 -0.9493  1.5659  0.2064
   814G12c C00814913   5.506  12.935   9.181 -0.0127  0.9574  0.5197
   814G12c H01314914   5.508  12.870   9.095 -5.5110 -1.0981  1.7383
   814G12c C00714915   5.630  13.010   9.189  0.0124 -1.6760  1.4023
   814G12c H01414916   5.711  12.991   9.119  2.3231 -5.1443  4.8408
   814G12c C00614917   5.656  13.094   9.311  0.6086 -0.1912  0.7137
   814G12c C00514918   5.550  13.095   9.408 -0.8321  0.7393 -0.7264
   814G12c C00414919   5.583  13.149   9.531 -0.1500 -2.7879  1.6520
   814G12c C00314920   5.494  13.118   9.640  1.0612  0.4358  0.0814
   814G12c C00214921   5.532  13.179   9.767 -1.2124  1.6124  1.5414
   814G12c C00114922   5.501  13.163   9.900  0.6265  0.3879  0.9714
   814G12c C00M14923   5.473  13.038   9.958  0.7390 -1.2780 -0.4144
   814G12c C00L14924   5.400  12.933   9.884  0.1233  1.1877  0.0144
   814G12c C00R14925   5.387  12.799   9.928  1.1747  1.1404  0.2848
   814G12c C00Q14926   5.468  12.733  10.026  1.2873 -0.3574 -0.5534
   814G12c C00V14927   5.444  12.590  10.009 -1.1209  0.2751 -1.2784
   814G12c C00U14928   5.411  12.524   9.895 -1.9642  0.3886  0.6390
   814G12c C00T14929   5.385  12.598   9.787  1.5119  0.1874  0.0831
   814G12c C01614930   5.372  12.560   9.654  0.4233  1.3244  1.1058
   814G12c C01514931   5.373  12.418   9.630  0.3953 -1.6930 -1.8065
   814G12c C01014932   5.376  12.334   9.745 -0.6217  1.1519  0.9711
   814G12c C01114933   5.343  12.200   9.720  0.3328  0.5493 -0.3318
   814G12c H00514934   5.341  12.134   9.806  3.3896  2.4529  1.2777
   814G12c C01214935   5.329  12.128   9.597 -1.5668  0.9661 -0.4658
   814G12c C01714936   5.321  11.980   9.574  1.8417  0.8196  0.1155
   814G12c O00214937   5.211  11.899   9.554 -0.6352 -1.0178 -1.4516
   814G12c H00414938   5.249  11.813   9.564  0.5930 -0.2141  1.2087
   814G12c C01814939   5.435  11.916   9.591 -1.1371  1.1081 -0.4970
   814G12c O00114940   5.567  11.969   9.623  0.4398 -0.3125 -0.4236
   814G12c H00314941   5.577  12.062   9.639  2.2367 -0.3150 -1.3777
   814G12c C01914942   5.453  11.769   9.564  2.4461 -0.7444 -0.2820
   814G12c H00214943   5.417  11.752   9.463  3.6116  1.2387 -1.0519
   814G12c H00114944   5.557  11.737   9.563  3.2369  1.6072  0.9145
   814G12c O00014945   5.358  11.708   9.638  0.5743 -0.8343 -0.3744
   814G12c C01A14946   5.388  11.657   9.773  1.2527 -0.3435 -1.1837
   814G12c C02K14947   5.290  11.574   9.827 -0.6645  1.6958 -2.1843
   814G12c O00G14948   5.195  11.510   9.745  0.3628 -0.8790  0.2063
   814G12c C02M14949   5.248  11.398   9.686  0.1683 -0.8296 -0.6638
   814G12c H01G14950   5.355  11.389   9.669  0.1540 -5.8393  0.9084
   814G12c H01F14951   5.201  11.409   9.589 -0.4285 -2.7290 -0.6137
   814G12c H01E14952   5.224  11.304   9.737 -5.1936  1.9463  2.3347
   814G12c C02J14953   5.307  11.535   9.966  0.0925  0.2403 -1.0976
   814G12c H01H14954   5.220  11.504  10.022  3.2863  0.0413  4.0761
   814G12c C02I14955   5.406  11.589  10.055  0.8593 -0.1161  0.2233
   814G12c C02N14956   5.377  11.608  10.198 -0.1828 -0.7342 -1.3461
   814G12c H01M14957   5.285  11.625  10.252  0.8100 -0.6116  0.3676
   814G12c C02O14958   5.462  11.562  10.276 -0.6354 -1.0864 -0.6559
   814G12c H01L14959   5.563  11.543  10.242  1.0133 -5.6012  5.7225
   814G12c C02P14960   5.430  11.492  10.420 -2.5024 -1.1274  1.0114
   814G12c H01K14961   5.513  11.503  10.490  1.1329  3.6717 -3.6493
   814G12c H01J14962   5.345  11.526  10.480  0.4834 -4.0123  7.2755
   814G12c O00H14963   5.436  11.344  10.405 -0.0816  0.6151 -0.9186
   814G12c H01I14964   5.354  11.337  10.359  2.2397  0.5404 -5.3141
   814G12c C02H14965   5.506  11.661   9.993 -0.6508 -0.1229 -0.0763
   814G12c H01C14966   5.567  11.730  10.051 -4.3958  4.9687 -1.8585
   814G12c C02L14967   5.493  11.689   9.847  0.9886 -2.0104  0.8638
   814G12c H01D14968   5.552  11.773   9.814 -2.5473  1.5364  3.1955
   814G12c C01314969   5.336  12.221   9.492  0.1960  1.8950 -0.6763
   814G12c H00014970   5.304  12.183   9.397 -1.9687  2.5683 -0.2399
   814G12c C01414971   5.329  12.367   9.511 -1.7823  0.1954 -1.0896
   814G12c C00F14972   5.333  12.467   9.401  0.3785  1.1781 -1.6239
   814G12c C00H14973   5.315  12.640   9.558 -1.0373  0.2559  0.0433
   814G12c C00I14974   5.297  12.783   9.583 -0.3350 -1.2897 -0.0484
   814G12c C00J14975   5.296  12.816   9.726  1.6800 -0.6963  1.6452
   814G12c C00Z14976   5.403  12.388   9.878 -0.5740 -0.2749  1.4409
   814G12c C00Y14977   5.402  12.315  10.001 -2.0576  0.5014 -1.0722
   814G12c H00614978   5.353  12.219   9.997  0.9696 -1.4955  4.2354
   814G12c C00X14979   5.403  12.370  10.121  0.1234  0.6957 -1.1960
   814G12c O00314980   5.398  12.285  10.222 -0.1203  0.1516  1.8352
   814G12c C01B14981   5.275  12.290  10.299  0.5453 -0.0334 -0.4095
   814G12c H00914982   5.229  12.352  10.376 -3.2954 -2.4999 -0.5873
   814G12c H00814983   5.213  12.246  10.221  3.3365 -5.3624  0.1322
   814G12c H00714984   5.284  12.198  10.356 -5.7994  0.1827  1.2220
   814G12c C00W14985   5.410  12.513  10.133  0.2927 -1.9041  0.9703
   814G12c O00414986   5.457  12.590  10.241  0.5674  0.2798  0.1378
   814G12c C01C14987   5.575  12.670  10.221  0.1722  0.8917  0.1209
   814G12c H00A14988   5.658  12.604  10.197  0.0325  0.8367 -0.2168
   814G12c C00P14989   5.543  12.771  10.127  0.1167  0.2475  1.3999
   814G12c C00O14990   5.615  12.898  10.149  0.9579  0.3197  1.0428
   814G12c C01D14991   5.720  12.904  10.228 -0.6122 -0.4921 -0.5715
   814G12c H00S14992   5.741  12.825  10.298  2.4038  0.3074 -0.4888
   814G12c C01E14993   5.801  13.030  10.218  1.2786  1.0539  0.9933
   814G12c O00814994   5.886  13.075  10.314 -0.3369 -0.8755 -0.2679
   814G12c C01V14995   5.867  13.031  10.451 -0.3874 -0.0775  1.3647
   814G12c C01Z14996   5.983  12.970  10.515 -0.1247 -0.9728  1.9085
   814G12c H00R14997   5.976  12.917  10.610 -4.2242 -1.5097  1.3997
   814G12c H00Q14998   6.048  12.933  10.435 -0.3664  2.3250  0.0681
   814G12c O00914999   6.042  13.063  10.597  0.8085  0.1991  0.2234
   814G12c H00P15000   5.967  13.086  10.650  2.5943  4.4677  1.1332
   814G12c C01W15001   5.753  13.080  10.505  1.1506  2.0127 -0.4412
   814G12c H00O15002   5.676  13.134  10.451 -2.7192  2.4002  5.0848
   814G12c C01X15003   5.690  13.064  10.646  0.3557 -0.6738 -0.3567
   814G12c H00N15004   5.781  13.073  10.706  2.7137  0.7332 -3.9533
   814G12c H00M15005   5.639  13.146  10.697  1.2836 -2.2315  3.2111
   814G12c C01Y15006   5.609  12.942  10.660  1.2124 -0.4160 -0.5010
   814G12c C02D15007   5.510  12.958  10.748  0.4080  0.0890  0.6789
   814G12c H01915008   5.480  13.047  10.801  3.0246 -2.6763  7.2464
   814G12c C02C15009   5.452  12.836  10.789 -1.8215  0.0696 -0.7567
   814G12c H01A15010   5.378  12.822  10.867 -1.0547 -2.4033 -0.4318
   814G12c C02B15011   5.471  12.716  10.727 -1.0262 -0.3541 -1.9060
   814G12c O00E15012   5.371  12.630  10.740 -0.4077 -0.3549  0.1089
   814G12c H01B15013   5.308  12.654  10.806  0.9162 -2.9542  2.4077
   814G12c C02F15014   5.603  12.686  10.668 -0.1919 -0.2138  1.2034
   814G12c O00F15015   5.673  12.564  10.649 -0.2889 -0.5063  0.1889
   814G12c C02G15016   5.605  12.458  10.675 -0.3804  0.6579  0.6973
   814G12c H01715017   5.547  12.486  10.587 -1.2968 -0.9725  0.7635
   814G12c H01615018   5.546  12.421  10.759 -0.0312 -0.8656  0.2909
   814G12c H01515019   5.678  12.378  10.669  1.8777  2.6988  0.0270
   814G12c C02E15020   5.659  12.809  10.618  1.2614 -0.1801  1.5528
   814G12c H01815021   5.739  12.798  10.546 -5.9974  3.2042 -8.1468
   814G12c C01F15022   5.777  13.125  10.134  0.0705  0.1343 -1.3613
   814G12c C01G15023   5.867  13.224  10.084 -0.2070 -0.0617  0.2951
   814G12c H00L15024   5.968  13.248  10.113  0.3171 -3.1568  1.2168
   814G12c C01H15025   5.829  13.297   9.954 -0.4725  0.4808 -0.3773
   814G12c H00B15026   5.874  13.396   9.948 -3.5277  1.7613 -3.4343
   814G12c C01I15027   5.700  13.282   9.902  1.2996 -1.4285 -1.1884
   814G12c C01U15028   5.637  13.143  10.079 -0.9539  0.8852  1.4116
   814G12c C00S15029   5.320  12.724   9.830  1.1599 -0.0631  0.8843
   814G12c C00K15030   5.359  12.939   9.752  0.3968 -1.1943  0.4359
   814G12c C00N15031   5.567  13.024  10.065  0.1170 -0.8180  0.0454
   814G12c C00015032   5.595  13.235   9.983 -0.1358  0.0241  0.9928
   814G12c C01J15033   5.650  13.267   9.767  0.9650  0.6393 -1.0279
   814G12c C01K15034   5.714  13.313   9.656 -0.4443  0.3528  2.0688
   814G12c C01P15035   5.766  13.443   9.640 -0.5140 -0.5752  0.0985
   814G12c C01Q15036   5.741  13.541   9.739 -0.6590 -0.3007 -1.3827
   814G12c H00G15037   5.826  13.585   9.790 -3.4177 -0.0501  3.2819
   814G12c C01R15038   5.618  13.596   9.781  0.6046  1.2926  0.4274
   814G12c H00F15039   5.544  13.520   9.764  0.1448  1.9693 -0.6490
   814G12c C01S15040   5.594  13.746   9.829 -0.9470 -0.3419  1.3054
   814G12c H00E15041   5.503  13.738   9.889  0.2645 -5.8725  2.6859
   814G12c H00D15042   5.672  13.779   9.897  1.3856  0.8577 -1.8428
   814G12c O00515043   5.558  13.837   9.734  0.4425 -0.1500 -0.7220
   814G12c H00C15044   5.465  13.840   9.719  0.7286  3.9164 -2.2176
   814G12c C01O15045   5.840  13.461   9.528  0.8404 -0.9816 -0.5153
   814G12c H00H15046   5.868  13.552   9.477 -1.6122 -1.4953 -2.9336
   814G12c C01N15047   5.865  13.354   9.426  1.3050  1.3219 -0.3463
   814G12c O00615048   5.968  13.360   9.326 -1.0831 -0.5890 -0.9742
   814G12c C01T15049   6.102  13.378   9.374  0.9432 -0.4780 -0.3449
   814G12c H00K15050   6.125  13.485   9.370 -1.7545  0.0915 -1.3956
   814G12c H00J15051   6.109  13.345   9.477 -4.1210  1.3645  0.7182
   814G12c H00I15052   6.154  13.319   9.298 -0.5830 -6.2730  2.7906
   814G12c C01M15053   5.781  13.243   9.433 -0.0006  1.5076  0.3321
   814G12c C02015054   5.395  13.012   9.632 -0.7266 -0.7827 -0.9148
   814G12c C02115055   5.347  12.990   9.505  1.2370  0.8620  0.7597
   814G12c C01L15056   5.695  13.235   9.547  1.7835 -2.0255 -0.2991
   814G12c O00715057   5.778  13.146   9.333 -0.3088 -1.5011 -0.1443
   814G12c C02215058   5.424  13.030   9.389 -1.2672 -0.2580  0.7955
   814G12c C02315059   5.276  12.875   9.470 -0.0818  1.1901 -0.2636
   814G12c C00G15060   5.338  12.609   9.423  0.1663 -0.8969 -0.3201
   814G12c C00E15061   5.304  12.425   9.272 -1.3074 -0.0211 -1.2190
   814G12c O00A15062   5.244  12.298   9.261  0.5009 -0.4798 -0.5051
   814G12c C02415063   5.111  12.318   9.228 -2.3795 -1.2022  0.3019
   814G12c H00V15064   5.076  12.420   9.213  1.5801  0.0425 -0.8271
   814G12c H00U15065   5.085  12.281   9.327  5.6473  1.3535  3.7839
   814G12c H00T15066   5.123  12.289   9.124  3.9215 -0.8121  0.7621
   824G12c C00D15067   7.064   8.536   4.352  0.7835  0.9851  1.4444
   824G12c O00B15068   7.112   8.646   4.425  1.2184  0.7149 -0.1326
   824G12c C02515069   7.057   8.678   4.552  1.1653 -1.2164  2.4340
   824G12c C02615070   6.934   8.771   4.532  0.4024 -0.5080  0.1879
   824G12c H00Y15071   6.869   8.726   4.457 -2.2135  3.3926 -0.0304
   824G12c H00X15072   6.924   8.874   4.497 -1.7904 -3.0459 -7.7399
   824G12c O00C15073   6.867   8.776   4.646  0.5480  1.1038 -0.4032
   824G12c H00W15074   6.809   8.848   4.662  4.1261  5.0931 -4.1469
   824G12c C02715075   7.104   8.634   4.669  0.3027  1.0082 -2.4961
   824G12c O00D15076   7.053   8.647   4.793  0.5351  0.5167  0.6048
   824G12c H00Z15077   6.968   8.687   4.782  1.5034  2.0437 -1.7461
   824G12c C02815078   7.238   8.561   4.689  2.1215  0.0011  1.6261
   824G12c C02915079   7.339   8.590   4.600  0.8652  0.5407 -0.4009
   824G12c H01015080   7.323   8.652   4.513 -1.1797  5.9326  3.5123
   824G12c C02T15081   7.465   8.559   4.630  0.3727 -0.2542 -0.9261
   824G12c H01O15082   7.554   8.612   4.599  2.5635 -0.7204  4.1188
   824G12c C02S15083   7.504   8.461   4.740  0.1416  0.4874  2.1747
   824G12c O00J15084   7.645   8.443   4.751  0.5718  0.6755  0.1407
   824G12c H01P15085   7.673   8.359   4.782 -5.3095  1.4617  9.7092
   824G12c C02R15086   7.406   8.415   4.826 -1.5258  0.1228  0.1977
   824G12c O00I15087   7.457   8.339   4.935  0.9569  1.2836 -0.6679
   824G12c C02Q15088   7.369   8.279   5.025  1.1023 -0.7682  0.1187
   824G12c H01N15089   7.428   8.220   5.094  3.0162  0.3906 -0.4904
   824G12c H01R15090   7.316   8.222   4.948 -1.9217  2.8154 -0.6009
   824G12c H01Q15091   7.312   8.354   5.080  2.2662 -2.3062  3.5374
   824G12c C02A15092   7.273   8.467   4.799 -1.4294  0.4796  0.8051
   824G12c H01115093   7.189   8.440   4.860 -4.6080 -1.7042 -4.1614
   824G12c C00C15094   6.992   8.440   4.433  0.2409 -2.2032  1.4954
   824G12c H01215095   7.018   8.425   4.537  0.0788  3.1672  2.4724
   824G12c C00B15096   6.916   8.335   4.370  0.5689 -0.8929 -1.1466
   824G12c C00A15097   6.835   8.249   4.438 -0.0100  0.5682 -0.5899
   824G12c C00915098   6.846   8.197   4.568  0.8197  0.1956 -0.3747
   824G12c C00815099   6.925   8.215   4.698 -2.3686 -1.0858 -0.8504
   824G12c H01315100   6.989   8.302   4.689 -4.7331  1.7993  6.3856
   824G12c C00715101   6.966   8.116   4.785  0.2978 -0.0197 -1.4681
   824G12c H01415102   7.021   8.155   4.870 -1.2103 -0.9091 -0.0523
   824G12c C00615103   6.900   7.992   4.774  1.2961  1.8414 -1.2798
   824G12c C00515104   6.813   7.973   4.671 -0.0395  1.2988  1.1631
   824G12c C00415105   6.781   7.844   4.623 -0.5714 -0.2797 -1.0174
   824G12c C00315106   6.717   7.826   4.500 -2.1409  0.3636 -0.0968
   824G12c C00215107   6.717   7.684   4.453 -0.2047  0.3741 -0.4354
   824G12c C00115108   6.695   7.603   4.325  0.4364 -0.9195  0.2313
   824G12c C00M15109   6.731   7.653   4.192 -1.2209  0.5168 -0.7943
   824G12c C00L15110   6.711   7.777   4.163 -0.3830  0.2147  0.6274
   824G12c C00R15111   6.790   7.840   4.047 -0.1961  0.3824  0.3134
   824G12c C00Q15112   6.844   7.767   3.934  0.1102  0.7418  0.5578
   824G12c C00V15113   6.883   7.868   3.837 -0.2740  1.6649  1.9725
   824G12c C00U15114   6.899   8.009   3.868 -0.3897 -2.0714  0.3187
   824G12c C00T15115   6.845   8.065   3.977 -0.9682  0.5202 -0.2655
   824G12c C01615116   6.864   8.192   4.034  0.8338  1.6858  0.9152
   824G12c C01515117   6.931   8.280   3.952  0.2405 -0.9818  1.1523
   824G12c C01015118   6.949   8.240   3.820 -1.1791 -0.1135 -0.9084
   824G12c C01115119   6.989   8.343   3.742 -0.8667  0.0005 -1.3088
   824G12c H00515120   7.021   8.322   3.641  3.9616  1.4645 -0.2434
   824G12c C01215121   7.046   8.467   3.796  1.7952 -1.5437  0.1668
   824G12c C01715122   7.063   8.579   3.708 -0.6848  0.0378  0.7396
   824G12c O00215123   6.957   8.645   3.693  0.7609 -0.8898 -0.3867
   824G12c H00415124   7.001   8.679   3.616 -3.3221  3.9582 -0.8915
   824G12c C01815125   7.167   8.596   3.628  0.6482 -0.7687  0.7521
   824G12c O00115126   7.170   8.711   3.551  0.3483  2.0519 -1.0480
   824G12c H00315127   7.256   8.709   3.512  1.9868  0.8466  2.3615
   824G12c C01915128   7.245   8.473   3.581 -0.5764 -1.2673 -1.8546
   824G12c H00215129   7.246   8.407   3.668 -6.2777 -0.9039 -1.3583
   824G12c H00115130   7.211   8.406   3.502  3.4214 -0.5336 -4.3347
   824G12c O00015131   7.394   8.500   3.562  0.2500  0.8864 -0.6677
   824G12c C01A15132   7.466   8.511   3.674 -2.5125  0.5882 -1.1832
   824G12c C02K15133   7.471   8.392   3.756  0.6537  0.5673  0.4688
   824G12c O00G15134   7.429   8.273   3.710  1.2387  1.5223 -0.4532
   824G12c C02M15135   7.335   8.204   3.799 -0.9166  0.6224  0.0829
   824G12c H01G15136   7.410   8.150   3.857 -1.3135  0.0260  0.0504
   824G12c H01F15137   7.260   8.144   3.747 -0.5744  0.0499  0.2402
   824G12c H01E15138   7.267   8.268   3.855 -2.1892 -0.7857  0.1759
   824G12c C02J15139   7.526   8.401   3.882 -0.8137 -0.5371  0.1826
   824G12c H01H15140   7.528   8.302   3.924  0.4703 -2.9304 -5.1091
   824G12c C02I15141   7.584   8.518   3.947  0.6862 -0.8937 -0.7550
   824G12c C02N15142   7.615   8.533   4.088  0.6196 -0.5710  0.1545
   824G12c H01M15143   7.559   8.466   4.152  3.0708 -2.6281  0.2346
   824G12c C02O15144   7.701   8.606   4.147 -2.1122  0.2207  0.8304
   824G12c H01L15145   7.767   8.670   4.090 -3.1955 -4.3211 -6.2275
   824G12c C02P15146   7.696   8.620   4.294 -0.0626  0.1924 -0.1297
   824G12c H01K15147   7.791   8.604   4.345  4.0617 12.2628 -2.4098
   824G12c H01J15148   7.691   8.729   4.292  1.6041  0.2745 -2.3799
   824G12c O00H15149   7.578   8.576   4.352 -0.2277 -0.2018 -0.0935
   824G12c H01I15150   7.517   8.647   4.336 -1.5022 -0.2517  4.0026
   824G12c C02H15151   7.542   8.631   3.877  0.1199 -0.5606  0.7027
   824G12c H01C15152   7.573   8.732   3.899 -3.8501  2.3891 -5.9407
   824G12c C02L15153   7.494   8.633   3.744 -1.3339 -0.1250  1.9700
   824G12c H01D15154   7.518   8.704   3.666  1.9576 -2.8717  0.3402
   824G12c C01315155   7.048   8.491   3.932 -2.3997 -1.1478 -1.3405
   824G12c H00015156   7.118   8.563   3.972 -0.0207 -3.7554 -0.7016
   824G12c C01415157   6.973   8.407   4.011 -0.7479  1.6933  0.3323
   824G12c C00F15158   6.967   8.433   4.159  0.8589  0.6869  0.7481
   824G12c C00H15159   6.838   8.217   4.170  0.0722 -0.6101 -0.0060
   824G12c C00I15160   6.788   8.121   4.252  0.7963 -0.2597 -0.6898
   824G12c C00J15161   6.768   8.000   4.190  0.5696  1.4777  0.5759
   824G12c C00Z15162   6.950   8.102   3.778  1.3366  0.2968  0.3001
   824G12c C00Y15163   6.975   8.055   3.651  0.3462  1.4312  0.5554
   824G12c H00615164   7.007   8.127   3.577  0.6508  0.2421 -0.4819
   824G12c C00X15165   6.978   7.914   3.617  0.3737 -2.5630  0.7943
   824G12c O00315166   6.982   7.861   3.482 -0.4873  0.9084 -1.1749
   824G12c C01B15167   7.028   7.958   3.370 -0.3717 -0.7183 -1.0788
   824G12c H00915168   6.949   7.956   3.296 -0.7414 -0.4630 -0.6924
   824G12c H00815169   7.110   7.922   3.307  3.3397 11.1772 -4.2395
   824G12c H00715170   7.030   8.062   3.402  3.1191 -0.0134 -3.3025
   824G12c C00W15171   6.943   7.819   3.715  0.2449 -0.1229  0.4065
   824G12c O00415172   6.938   7.696   3.672  0.0958  0.2538  1.3873
   824G12c C01C15173   6.941   7.614   3.776  1.1500  1.4219 -0.0176
   824G12c H00A15174   7.033   7.558   3.779  0.9438  1.0788 -0.0762
   824G12c C00P15175   6.890   7.637   3.916  0.4127  1.3589  0.0907
   824G12c C00O15176   6.893   7.544   4.029  2.8014 -0.8297 -0.7609
   824G12c C01D15177   7.006   7.460   4.035  0.6008  0.0212  0.2884
   824G12c H00S15178   7.071   7.467   3.950 -1.1176  0.9041 -0.9970
   824G12c C01E15179   7.010   7.366   4.136  0.4230  0.6168 -0.4153
   824G12c O00815180   7.127   7.308   4.163 -0.8822 -0.0622  0.5082
   824G12c C01V15181   7.220   7.275   4.062  0.2384  0.2253  0.7110
   824G12c C01Z15182   7.351   7.368   4.063 -0.7835  0.2606  0.2931
   824G12c H00R15183   7.385   7.365   4.166 -0.5614  1.9502  0.2863
   824G12c H00Q15184   7.441   7.351   4.004 -2.9373  0.9452 -3.3176
   824G12c O00915185   7.314   7.511   4.018 -0.2570 -0.1202  0.5736
   824G12c H00P15186   7.306   7.564   4.096 -2.9753 -2.6119  2.0751
   824G12c C01W15187   7.186   7.192   3.969 -0.3532  0.2078  0.8077
   824G12c H00O15188   7.081   7.172   3.979 -0.7054  2.2640  1.5457
   824G12c C01X15189   7.283   7.137   3.856 -1.3812 -0.7173 -0.9390
   824G12c H00N15190   7.382   7.180   3.870 -1.1992 -2.0514  2.2614
   824G12c H00M15191   7.296   7.030   3.872 -1.7957 -0.9592 -2.1350
   824G12c C01Y15192   7.213   7.202   3.734 -1.4167  0.2047 -0.7136
   824G12c C02D15193   7.305   7.288   3.658 -0.0419  0.4362  1.3875
   824G12c H01915194   7.411   7.308   3.669 -0.2282  2.7563 -0.5646
   824G12c C02C15195   7.261   7.342   3.545  0.9932 -0.8365 -1.4885
   824G12c H01A15196   7.334   7.391   3.481  0.9273 -1.5077 -2.0737
   824G12c C02B15197   7.132   7.335   3.512  0.1747 -0.1268 -1.6778
   824G12c O00E15198   7.109   7.401   3.393  1.3737  1.0711 -0.6565
   824G12c H01B15199   7.019   7.424   3.375  2.5073  1.8871 -6.0480
   824G12c C02F15200   7.044   7.243   3.563  0.3483 -0.9451 -0.0511
   824G12c O00F15201   6.909   7.205   3.518 -0.6938 -0.4419  1.1991
   824G12c C02G15202   6.797   7.258   3.611 -0.5207 -0.5977  0.8923
   824G12c H01715203   6.825   7.245   3.715  0.3701 -0.7188  0.6406
   824G12c H01615204   6.708   7.197   3.599  1.3814 -2.7237 -3.3557
   824G12c H01515205   6.749   7.355   3.597 -4.0991 -2.5160 -0.8953
   824G12c C02E15206   7.091   7.172   3.673 -2.3723  0.0907  0.3125
   824G12c H01815207   7.031   7.139   3.756  1.4715 -2.1977  2.3420
   824G12c C01F15208   6.937   7.368   4.255  0.8129  1.6965  0.5905
   824G12c C01G15209   6.979   7.328   4.381  0.4309 -1.7151 -2.0855
   824G12c H00L15210   7.072   7.277   4.400  0.9675 -0.3083 -0.8263
   824G12c C01H15211   6.924   7.390   4.499  2.2531 -0.1963 -0.2719
   824G12c H00B15212   6.993   7.366   4.579  2.5215  1.4324  0.0186
   824G12c C01I15213   6.831   7.477   4.486  1.3710  0.3461  1.4734
   824G12c C01U15214   6.820   7.427   4.239 -0.1730 -0.5060  0.2183
   824G12c C00S15215   6.796   7.972   4.063 -1.8832 -0.9254  0.1283
   824G12c C00K15216   6.712   7.888   4.253 -1.2629 -1.2906  0.2484
   824G12c C00N15217   6.812   7.540   4.144  1.2438  1.4034 -1.2222
   824G12c C00015218   6.763   7.479   4.362  0.3255  0.7870  2.1870
   824G12c C01J15219   6.775   7.584   4.548 -0.4430 -0.3723  0.3834
   824G12c C01K15220   6.806   7.592   4.694 -0.4861 -1.1047  1.8032
   824G12c C01P15221   6.843   7.494   4.810  1.0189  0.0196 -0.9657
   824G12c C01Q15222   6.797   7.350   4.794 -2.0421 -0.3889  0.0014
   824G12c H00G15223   6.726   7.338   4.714  2.3060 -1.1945 -3.9382
   824G12c C01R15224   6.819   7.252   4.884  1.0525 -1.2775  1.0481
   824G12c H00F15225   6.869   7.267   4.979 -0.5763 -2.4217  2.1243
   824G12c C01S15226   6.770   7.117   4.876  1.6634 -1.0974  0.0015
   824G12c H00E15227   6.875   7.090   4.892  3.1064  3.3940 -1.1639
   824G12c H00D15228   6.726   7.071   4.964 -3.0895  6.5752  2.1522
   824G12c O00515229   6.716   7.091   4.739 -2.7228  0.7227  0.8322
   824G12c H00C15230   6.647   7.028   4.755 -0.8216 -1.2726  1.2460
   824G12c C01O15231   6.890   7.537   4.932 -0.3951  0.4747 -0.0730
   824G12c H00H15232   6.910   7.488   5.026  2.0853 -3.4583 -2.5551
   824G12c C01N15233   6.899   7.678   4.945  0.1365 -0.7028  1.0670
   824G12c O00615234   6.932   7.744   5.062 -0.9257 -0.0381 -0.3736
   824G12c C01T15235   6.880   7.679   5.184  0.6482 -0.4523  1.3718
   824G12c H00K15236   6.973   7.631   5.216  4.7032  1.7621 -5.8333
   824G12c H00J15237   6.777   7.644   5.179  1.6986 -3.2610 -3.0091
   824G12c H00I15238   6.876   7.768   5.247 -2.5728  0.8454 -0.5956
   824G12c C01M15239   6.880   7.763   4.838  0.4404  0.2583  1.3361
   824G12c C02015240   6.713   7.924   4.392 -2.3248 -0.6218  0.1112
   824G12c C02115241   6.716   8.045   4.447 -0.8331  0.3372 -0.5849
   824G12c C01L15242   6.822   7.731   4.707 -0.4816 -0.1487  1.3713
   824G12c O00715243   6.913   7.897   4.880  0.7748  0.9209 -1.3975
   824G12c C02215244   6.760   8.077   4.570  1.4769 -1.1929 -1.9344
   824G12c C02315245   6.734   8.172   4.370  0.0459  0.3697  1.7439
   824G12c C00G15246   6.905   8.334   4.235 -0.3180  0.0288  0.5585
   824G12c C00E15247   7.031   8.542   4.218  0.1649  0.5976 -0.2738
   824G12c O00A15248   7.040   8.678   4.166 -0.4395 -0.1203  1.3912
   824G12c C02415249   6.950   8.742   4.107  2.1899  0.0865  0.7478
   824G12c H00V15250   6.996   8.833   4.069  3.2610  0.0613  1.9585
   824G12c H00U15251   6.856   8.758   4.160  2.7808 -0.3842  1.9654
   824G12c H00T15252   6.925   8.712   4.005 -3.5208  1.6496  1.5195
   834G12c C00D15253  11.660   3.512   4.208  0.4869 -1.1748 -0.9635
   834G12c O00B15254  11.750   3.524   4.088  0.1526 -1.1778 -0.1535
   834G12c C02515255  11.871   3.585   4.085 -0.2646 -0.0819 -2.0870
   834G12c C02615256  11.956   3.522   3.976  0.0293  0.8290 -1.0695
   834G12c H00Y15257  11.935   3.415   3.971 -5.1148  1.7998 -2.4688
   834G12c H00X15258  12.064   3.539   3.972  0.6572 -1.0803  3.6598
   834G12c O00C15259  11.895   3.558   3.848  0.2880 -1.5236 -1.0337
   834G12c H00W15260  11.842   3.636   3.851 -0.9709 -2.4061  0.6378
   834G12c C02715261  11.897   3.706   4.157  0.8385 -0.5978 -1.6571
   834G12c O00D15262  11.808   3.776   4.233 -1.5734 -1.0905 -0.3966
   834G12c H00Z15263  11.859   3.815   4.301 -2.0396  1.4281 -1.4466
   834G12c C02815264  12.024   3.760   4.139 -1.8961  1.2386  0.4534
   834G12c C02915265  12.072   3.816   4.252 -0.7961 -0.7648  0.7819
   834G12c H01015266  12.009   3.825   4.340  0.4190 -1.1045  1.7106
   834G12c C02T15267  12.185   3.903   4.234 -2.3984 -0.3274 -0.3965
   834G12c H01O15268  12.211   3.977   4.308 -2.2260  5.2371 -5.6786
   834G12c C02S15269  12.271   3.920   4.128 -0.3857 -1.1277  0.0785
   834G12c O00J15270  12.381   3.985   4.163  0.5687  0.2379  0.7397
   834G12c H01P15271  12.368   4.009   4.072 -2.0530  3.4264  1.8364
   834G12c C02R15272  12.219   3.857   4.014 -0.3903 -0.0450  0.8109
   834G12c O00I15273  12.263   3.891   3.889  0.0139  0.7632  0.2909
   834G12c C02Q15274  12.411   3.891   3.858  0.1795  0.6087  0.5043
   834G12c H01N15275  12.466   3.954   3.928  0.2767  0.6122  0.4249
   834G12c H01R15276  12.469   3.812   3.903  0.4440 -0.5440 -1.7757
   834G12c H01Q15277  12.452   3.919   3.761 -2.2117  6.4390  0.9039
   834G12c C02A15278  12.111   3.774   4.018  0.7543 -0.6453  0.3847
   834G12c H01115279  12.086   3.715   3.932 -4.7099  0.8077  0.8282
   834G12c C00C15280  11.714   3.505   4.341  0.9755 -0.3850  0.4810
   834G12c H01215281  11.813   3.545   4.355  0.6344  1.6219 -2.4309
   834G12c C00B15282  11.635   3.484   4.463 -1.4694 -0.1822  0.9011
   834G12c C00A15283  11.688   3.503   4.595  0.2286 -0.5295 -2.6410
   834G12c C00915284  11.826   3.470   4.656  1.8233 -1.0283 -1.4103
   834G12c C00815285  11.947   3.412   4.613  0.3227  1.1546 -1.3423
   834G12c H01315286  11.993   3.426   4.516  4.6492  2.8371  0.8173
   834G12c C00715287  12.033   3.323   4.697 -1.8451 -0.2587  1.0250
   834G12c H01415288  12.090   3.252   4.640 -1.1501 -0.8518  2.4218
   834G12c C00615289  11.994   3.279   4.823  0.4621 -0.1123  0.2716
   834G12c C00515290  11.867   3.333   4.860 -0.6349  0.9106  1.1996
   834G12c C00415291  11.802   3.277   4.974 -0.6255 -0.4275 -0.3554
   834G12c C00315292  11.662   3.305   5.010  0.5147 -1.4438  0.7016
   834G12c C00215293  11.629   3.244   5.134 -1.1317 -0.0547 -0.4173
   834G12c C00115294  11.507   3.221   5.179  0.0795 -2.4607  1.3096
   834G12c C00M15295  11.372   3.212   5.105 -0.9307 -0.4533 -0.4509
   834G12c C00L15296  11.351   3.283   4.991  0.1660 -1.4582 -0.8582
   834G12c C00R15297  11.255   3.272   4.889 -0.2809 -0.1577  0.3207
   834G12c C00Q15298  11.153   3.158   4.888  0.3456 -0.9075 -0.5369
   834G12c C00V15299  11.083   3.154   4.760  0.1408  0.6179  0.0039
   834G12c C00U15300  11.132   3.220   4.643  0.4951  0.3251  0.8444
   834G12c C00T15301  11.238   3.314   4.661  0.5712 -2.6608  0.2969
   834G12c C01615302  11.288   3.375   4.550 -0.2933 -1.4775  0.6474
   834G12c C01515303  11.239   3.361   4.426  0.6914  1.2156 -0.0746
   834G12c C01015304  11.114   3.282   4.411 -0.4855  1.1321 -0.2316
   834G12c C01115305  11.045   3.309   4.303  0.3509  1.0347 -0.7479
   834G12c H00515306  10.953   3.254   4.313  1.6454 -1.0132  0.3169
   834G12c C01215307  11.099   3.371   4.181 -1.4694  0.1456 -0.3675
   834G12c C01715308  11.000   3.382   4.064  1.4954  0.2033 -0.8487
   834G12c O00215309  10.903   3.269   4.059  0.2841 -1.5224 -0.7193
   834G12c H00415310  10.828   3.294   4.008  2.1259  1.5952 -2.0361
   834G12c C01815311  10.980   3.485   3.990 -1.0783  0.3146 -0.4434
   834G12c O00115312  11.038   3.603   4.004 -0.4140 -0.0034 -2.1600
   834G12c H00315313  10.984   3.671   3.966 -2.1935 -1.1188 -1.7058
   834G12c C01915314  10.862   3.491   3.880 -0.7928  0.9217  1.2575
   834G12c H00215315  10.889   3.536   3.785 -2.4483  3.1254  1.7924
   834G12c H00115316  10.843   3.404   3.819  3.0475  3.0382 -3.2564
   834G12c O00015317  10.753   3.542   3.950  0.3904 -0.3788 -0.9433
   834G12c C01A15318  10.656   3.620   3.893  0.9522 -0.5500  0.0788
   834G12c C02K15319  10.692   3.743   3.839  1.5197  0.7453  0.1743
   834G12c O00G15320  10.804   3.797   3.864  0.7802 -0.0442 -1.0277
   834G12c C02M15321  10.798   3.883   3.968 -0.7437 -0.0533 -0.5366
   834G12c H01G15322  10.796   3.841   4.069 -3.3281 -1.3106 -1.0712
   834G12c H01F15323  10.704   3.936   3.981 -0.5197 -0.1277  1.5522
   834G12c H01E15324  10.878   3.954   3.946 -0.8246 -2.2783 -9.7173
   834G12c C02J15325  10.601   3.819   3.757 -3.0078  1.0582  0.9037
   834G12c H01H15326  10.640   3.912   3.720  4.1987 -2.2832 -0.8052
   834G12c C02I15327  10.478   3.764   3.728 -0.5644 -0.1956 -0.5825
   834G12c C02N15328  10.380   3.818   3.640 -0.8602  0.3784  0.2622
   834G12c H01M15329  10.302   3.760   3.594 -1.4970  3.2096 -2.3789
   834G12c C02O15330  10.354   3.949   3.667 -1.1654  0.1539 -0.2165
   834G12c H01L15331  10.422   4.011   3.723  1.8139 -1.6096 -1.6862
   834G12c C02P15332  10.259   4.030   3.614  0.4736  0.1545  0.9309
   834G12c H01K15333  10.272   4.138   3.602  1.6991 -0.1545 -0.6583
   834G12c H01J15334  10.222   3.985   3.522 -2.2471  0.5305  1.8088
   834G12c O00H15335  10.138   4.027   3.686 -0.0670  0.1839 -1.0860
   834G12c H01I15336  10.151   3.962   3.753  6.1018 -4.0372 -5.8415
   834G12c C02H15337  10.442   3.639   3.785 -0.6864  0.8606 -0.9339
   834G12c H01C15338  10.338   3.609   3.781 -0.9673  0.1922  5.5127
   834G12c C02L15339  10.528   3.583   3.880  1.5459  1.5809  0.6926
   834G12c H01D15340  10.514   3.490   3.934  0.0396  1.8419  0.7884
   834G12c C01315341  11.233   3.416   4.191  1.0779  0.2290  1.5183
   834G12c H00015342  11.275   3.479   4.114  7.2491 -0.5609  3.9286
   834G12c C01415343  11.304   3.415   4.313  1.8755  0.9505 -1.3548
   834G12c C00F15344  11.442   3.439   4.316 -0.6256 -1.1455 -1.7323
   834G12c C00H15345  11.419   3.430   4.566 -0.8322  0.2315 -0.0114
   834G12c C00I15346  11.471   3.470   4.687  0.1103 -0.2603 -0.7332
   834G12c C00J15347  11.369   3.441   4.798  1.2588  0.3365 -0.5422
   834G12c C00Z15348  11.065   3.209   4.517 -0.8482 -0.9813 -0.6425
   834G12c C00Y15349  10.930   3.150   4.518 -1.5344 -0.6059  0.8556
   834G12c H00615350  10.874   3.138   4.427 -2.3341  1.8844  0.9778
   834G12c C00X15351  10.875   3.125   4.654  0.0430 -1.0426 -1.4607
   834G12c O00315352  10.750   3.079   4.631 -0.3061  0.7171 -0.1891
   834G12c C01B15353  10.653   3.093   4.729 -0.0578 -0.3348  0.0665
   834G12c H00915354  10.558   3.055   4.692 -1.2510  2.0448  0.6146
   834G12c H00815355  10.636   3.198   4.752 -3.5658 -1.1536  1.4675
   834G12c H00715356  10.635   3.042   4.823 -6.7649 -1.9340 -1.7946
   834G12c C00W15357  10.955   3.106   4.759  0.3472  1.2710 -0.1816
   834G12c O00415358  10.901   3.025   4.864  0.5239 -0.6650  0.1987
   834G12c C01C15359  11.002   2.975   4.939  0.5473  1.0785  1.5263
   834G12c H00A15360  10.976   2.915   5.025 -6.6830  3.6793  1.4905
   834G12c C00P15361  11.134   3.039   4.961  0.4263 -1.9443 -0.4491
   834G12c C00O15362  11.237   2.992   5.051  0.1091  0.1639  1.0070
   834G12c C01D15363  11.238   2.858   5.095 -0.2504  0.0374 -0.1204
   834G12c H00S15364  11.180   2.795   5.029  3.3362  1.0582 -4.4208
   834G12c C01E15365  11.334   2.796   5.179  0.6006 -1.1916 -0.2996
   834G12c O00815366  11.346   2.650   5.176 -0.1430  0.8803  0.5250
   834G12c C01V15367  11.229   2.579   5.217  0.1945 -0.1217  0.4812
   834G12c C01Z15368  11.114   2.551   5.113  1.3052 -0.9897  1.1374
   834G12c H00R15369  11.079   2.450   5.135  8.2867 -3.0499  4.1663
   834G12c H00Q15370  11.044   2.626   5.151 -0.8781 -2.2648 -0.2386
   834G12c O00915371  11.119   2.573   4.977  0.8445  1.0738  0.1531
   834G12c H00P15372  11.208   2.558   4.951  2.2685 -0.3898  5.2759
   834G12c C01W15373  11.204   2.595   5.340 -0.3405 -1.9842 -1.2469
   834G12c H00O15374  11.117   2.542   5.375 -0.4775 -1.3825 -0.6682
   834G12c C01X15375  11.275   2.665   5.447 -0.0185 -0.1420 -0.3056
   834G12c H00N15376  11.281   2.586   5.521  2.3696  1.9455  1.8426
   834G12c H00M15377  11.362   2.722   5.413 -1.9124  4.4428  2.0691
   834G12c C01Y15378  11.181   2.773   5.500  0.0472  0.8593  0.7666
   834G12c C02D15379  11.217   2.825   5.625 -1.7869 -1.9915 -0.2598
   834G12c H01915380  11.283   2.764   5.684  1.0002  1.5196  0.4310
   834G12c C02C15381  11.164   2.941   5.679  0.0172 -0.9683  0.1002
   834G12c H01A15382  11.219   3.003   5.749  2.5084  2.2901 -4.5035
   834G12c C02B15383  11.050   2.993   5.603 -1.4485 -0.2316 -0.1235
   834G12c O00E15384  10.970   3.094   5.647 -0.6006  1.4252  1.9883
   834G12c H01B15385  10.903   3.090   5.581  1.0796 -2.1257  0.3153
   834G12c C02F15386  11.001   2.929   5.487  1.6328 -0.6004 -0.5845
   834G12c O00F15387  10.914   3.010   5.417 -0.2187 -0.4587  0.9680
   834G12c C02G15388  10.858   2.949   5.315  0.3505 -0.7983  0.6833
   834G12c H01715389  10.809   2.855   5.343 -1.8768  1.3805  4.4430
   834G12c H01615390  10.930   2.912   5.241  3.7098  0.0959  3.4217
   834G12c H01515391  10.783   3.007   5.262 -1.0446 -4.4593 -1.5840
   834G12c C02E15392  11.065   2.821   5.434 -0.3133 -0.4962 -0.5526
   834G12c H01815393  11.030   2.772   5.344 -2.5496 -3.4430  1.8109
   834G12c C01F15394  11.439   2.880   5.216  0.3752  0.1456  1.2308
   834G12c C01G15395  11.543   2.830   5.284 -1.1248 -1.1371  0.1163
   834G12c H00L15396  11.545   2.723   5.296 -3.1961 -1.1784  0.2521
   834G12c C01H15397  11.655   2.910   5.314 -1.0486  1.4423 -1.2996
   834G12c H00B15398  11.753   2.866   5.302 -2.2277 -0.6802 -3.7290
   834G12c C01I15399  11.638   3.050   5.277  1.6254  0.9854  0.4499
   834G12c C01U15400  11.425   3.024   5.212 -0.9466  0.8539  0.0801
   834G12c C00S15401  11.250   3.361   4.791 -2.1120 -0.5222 -1.9380
   834G12c C00K15402  11.432   3.391   4.923 -1.7110  0.0321 -1.9607
   834G12c C00N15403  11.324   3.073   5.118 -0.9668  0.9411 -1.4331
   834G12c C00015404  11.517   3.098   5.261 -0.3500 -1.2050  0.0608
   834G12c C01J15405  11.719   3.152   5.202  0.7831  0.0067 -1.5983
   834G12c C01K15406  11.850   3.134   5.176  0.5021  2.0605  0.5988
   834G12c C01P15407  11.952   3.076   5.261  0.3901  1.8126 -1.8073
   834G12c C01Q15408  11.919   3.074   5.397  0.4736  0.0095  0.8378
   834G12c H00G15409  11.884   3.168   5.436  7.2768  1.4186  4.2125
   834G12c C01R15410  11.928   2.970   5.479 -0.4267 -0.9797 -0.4274
   834G12c H00F15411  11.974   2.873   5.463  2.1068 -0.4437  2.9508
   834G12c C01S15412  11.890   2.970   5.635  0.6750  0.9887  0.4106
   834G12c H00E15413  11.782   2.963   5.647  0.5925 -4.6003 -2.2074
   834G12c H00D15414  11.928   2.887   5.694  1.6393  2.1261  1.4442
   834G12c O00515415  11.928   3.091   5.672  1.0957  0.4736  0.3559
   834G12c H00C15416  12.010   3.091   5.626  1.6379 -2.9384  1.1647
   834G12c C01O15417  12.085   3.057   5.205  0.7405  1.7636  0.0169
   834G12c H00H15418  12.144   3.016   5.285 -2.6309  2.5029  3.0087
   834G12c C01N15419  12.115   3.076   5.071 -1.0420  0.8611 -1.0133
   834G12c O00615420  12.232   3.056   5.009  0.2196 -0.4461 -0.7355
   834G12c C01T15421  12.331   3.126   5.038 -0.0735 -0.3569  0.7620
   834G12c H00K15422  12.303   3.232   5.031  5.3286  1.5869  5.0282
   834G12c H00J15423  12.353   3.092   5.139  2.4707  3.6094  1.6560
   834G12c H00I15424  12.429   3.136   4.991 -0.6695 -0.9049 -0.6248
   834G12c C01M15425  12.016   3.156   5.014 -2.8928  0.5088  2.4387
   834G12c C02015426  11.577   3.399   4.923  0.4472  0.5624 -0.3062
   834G12c C02115427  11.666   3.454   4.831  0.3145 -0.0109 -1.2725
   834G12c C01L15428  11.886   3.191   5.055  0.1312 -0.9608  0.8330
   834G12c O00715429  12.051   3.189   4.886  1.1583 -0.1616 -0.7447
   834G12c C02215430  11.790   3.429   4.790 -0.7714 -0.6118 -0.6749
   834G12c C02315431  11.603   3.495   4.707  0.5491 -0.5630  0.0846
   834G12c C00G15432  11.501   3.462   4.450 -0.7403  1.3971  0.5559
   834G12c C00E15433  11.529   3.464   4.200  1.3322 -0.3214 -0.5244
   834G12c O00A15434  11.476   3.460   4.081 -0.7053 -0.7500 -0.4954
   834G12c C02415435  11.520   3.360   3.995  1.4797 -1.0688 -1.4296
   834G12c H00V15436  11.492   3.368   3.890 -2.1727  4.1969 -0.2278
   834G12c H00U15437  11.623   3.327   4.009  2.8978  3.5217 -0.1530
   834G12c H00T15438  11.459   3.277   4.031  3.4502 -2.5287 -1.3419
   844G12c C00D15439   2.046   6.164   7.584  0.6983 -0.2198  0.1200
   844G12c O00B15440   2.134   6.265   7.590  1.1983 -0.4376  0.6508
   844G12c C02515441   2.264   6.250   7.582  2.0282  0.6117 -2.1309
   844G12c C02615442   2.322   6.262   7.727 -0.0528  0.6447  0.1831
   844G12c H00Y15443   2.264   6.203   7.799 -4.8451  6.3403  1.4706
   844G12c H00X15444   2.325   6.362   7.769 -3.1214 -1.1809  5.2120
   844G12c O00C15445   2.452   6.235   7.760  0.7172 -1.0018 -0.1450
   844G12c H00W15446   2.495   6.300   7.707 -0.5165  1.2144  1.5199
   844G12c C02715447   2.318   6.266   7.459 -0.2250 -1.2863  0.2801
   844G12c O00D15448   2.240   6.274   7.340 -1.9560 -0.1639  0.1714
   844G12c H00Z15449   2.292   6.274   7.261  4.5396  1.6771  4.0511
   844G12c C02815450   2.454   6.290   7.450  0.5017 -1.6762  0.3020
   844G12c C02915451   2.552   6.210   7.483  0.7009 -1.0971 -0.6322
   844G12c H01015452   2.549   6.106   7.511  6.5335 -1.8183 -1.9331
   844G12c C02T15453   2.687   6.247   7.512 -1.1469 -1.3031  0.6151
   844G12c H01O15454   2.769   6.179   7.527 -2.6086 -3.2969 -0.2106
   844G12c C02S15455   2.714   6.385   7.471  0.2912  1.9088 -0.6482
   844G12c O00J15456   2.842   6.432   7.468 -1.0892 -0.7845 -0.4030
   844G12c H01P15457   2.812   6.521   7.454 -0.1745 -0.2359  0.9677
   844G12c C02R15458   2.614   6.469   7.419  0.5058  0.4799  0.1036
   844G12c O00I15459   2.661   6.599   7.432 -0.3441  0.9516  0.0562
   844G12c C02Q15460   2.582   6.682   7.501 -0.0374  1.0095 -0.0499
   844G12c H01N15461   2.548   6.637   7.594  0.2797 -1.3155 -1.0204
   844G12c H01R15462   2.509   6.748   7.452 -1.4629 -0.4887  0.0182
   844G12c H01Q15463   2.636   6.756   7.560 -2.2311  7.3163 -5.2788
   844G12c C02A15464   2.481   6.419   7.402 -0.8615  1.7230 -0.2949
   844G12c H01115465   2.398   6.485   7.383 -0.1722  1.3810 -5.1292
   844G12c C00C15466   2.094   6.033   7.592  1.5982 -1.7996  0.3280
   844G12c H01215467   2.195   6.018   7.629  2.1559  4.9132  2.0672
   844G12c C00B15468   1.993   5.929   7.578 -0.9249 -0.3086 -0.1411
   844G12c C00A15469   2.004   5.797   7.611  0.2545  0.8425  0.7404
   844G12c C00915470   2.102   5.731   7.695  1.5447  2.0192 -0.2260
   844G12c C00815471   2.214   5.762   7.751  1.0878 -0.1248 -1.4542
   844G12c H01315472   2.237   5.861   7.787  1.0165 -0.6815  0.1365
   844G12c C00715473   2.319   5.670   7.761 -0.0933  1.1100 -0.7683
   844G12c H01415474   2.423   5.690   7.782 -0.5343 -0.9976  4.2568
   844G12c C00615475   2.299   5.554   7.692 -2.2441  0.7393  0.4399
   844G12c C00515476   2.162   5.521   7.651 -1.3765  0.2884 -1.2826
   844G12c C00415477   2.133   5.402   7.576  0.2416 -0.5305 -0.7103
   844G12c C00315478   2.007   5.374   7.520 -0.1853 -2.5859 -0.6908
   844G12c C00215479   1.999   5.278   7.416  0.1430  0.7170  0.7728
   844G12c C00115480   1.884   5.227   7.334 -0.8732  0.2552  0.1179
   844G12c C00M15481   1.788   5.305   7.267 -0.7583 -1.3839 -1.4613
   844G12c C00L15482   1.747   5.427   7.323 -0.5885 -0.5344  0.5134
   844G12c C00R15483   1.666   5.515   7.248 -0.3934 -2.0101  0.3768
   844G12c C00Q15484   1.625   5.526   7.105 -1.9436 -1.2749 -0.3729
   844G12c C00V15485   1.580   5.651   7.090  1.0340  1.0286  0.2273
   844G12c C00U15486   1.605   5.772   7.157 -0.7290  0.1493  0.1972
   844G12c C00T15487   1.641   5.769   7.288  0.3018  0.4218  0.7377
   844G12c C01615488   1.699   5.869   7.358 -0.0588 -0.2566  0.6832
   844G12c C01515489   1.696   6.008   7.299 -3.0111  1.4346 -0.4246
   844G12c C01015490   1.647   6.014   7.170  2.1146 -0.0826 -0.8364
   844G12c C01115491   1.661   6.140   7.103 -1.7644 -1.5229  1.7037
   844G12c H00515492   1.618   6.144   7.004  4.7619 -5.8234 -1.6820
   844G12c C01215493   1.698   6.251   7.187 -1.0859 -0.4137  0.3736
   844G12c C01715494   1.732   6.378   7.110  1.1891 -1.0490  1.4454
   844G12c O00215495   1.832   6.362   7.022  0.6255 -0.6223 -0.6863
   844G12c H00415496   1.819   6.436   6.965 -0.0138 -0.0590  0.1728
   844G12c C01815497   1.672   6.501   7.148 -0.0052 -0.5713 -0.2060
   844G12c O00115498   1.537   6.514   7.190 -0.5030 -0.6154  1.3728
   844G12c H00315499   1.522   6.598   7.151 -2.1463 -2.6980 -2.7981
   844G12c C01915500   1.733   6.650   7.100 -1.5778  0.5186 -0.9334
   844G12c H00215501   1.791   6.712   7.169 -3.1207  2.5485 -1.3992
   844G12c H00115502   1.806   6.645   7.019  1.5314 -6.5275  1.9074
   844G12c O00015503   1.617   6.727   7.071  0.0453  0.6066  0.6282
   844G12c C01A15504   1.613   6.831   7.000  0.8091  1.1978  0.4726
   844G12c C02K15505   1.493   6.871   6.938 -1.4642 -0.2109 -1.2849
   844G12c O00G15506   1.387   6.795   6.925  1.1296  0.5687 -0.4154
   844G12c C02M15507   1.379   6.713   6.812 -0.5856 -1.6205 -0.3724
   844G12c H01G15508   1.458   6.710   6.737  4.5523  2.3612  4.3689
   844G12c H01F15509   1.288   6.758   6.771 -2.0242  2.8861  6.8201
   844G12c H01E15510   1.323   6.621   6.824  3.3017 -3.8418  1.9272
   844G12c C02J15511   1.487   7.001   6.883 -0.5416 -0.9430 -0.0675
   844G12c H01H15512   1.394   7.015   6.830  0.9408 -2.7516 -3.3591
   844G12c C02I15513   1.598   7.088   6.888 -0.8812  1.2448  0.0267
   844G12c C02N15514   1.593   7.210   6.819  0.7458  2.1897  0.0217
   844G12c H01M15515   1.611   7.208   6.712  5.6908 -7.2335  0.5382
   844G12c C02O15516   1.624   7.319   6.883 -2.9394 -1.6225 -2.1294
   844G12c H01L15517   1.631   7.306   6.990 -0.7133 -1.1232 -2.1896
   844G12c C02P15518   1.691   7.452   6.845 -1.1237  0.5766 -0.6718
   844G12c H01K15519   1.633   7.529   6.895  0.2259  2.8549 -2.5272
   844G12c H01J15520   1.795   7.441   6.875 -1.4665 -1.1111 -0.0261
   844G12c O00H15521   1.694   7.508   6.711  0.7500  0.2662 -1.3205
   844G12c H01I15522   1.715   7.437   6.652 -3.7080 -1.9297 -0.4786
   844G12c C02H15523   1.729   7.036   6.932 -0.6417 -0.0907  0.2549
   844G12c H01C15524   1.821   7.053   6.878  1.9045 -0.9806  4.0849
   844G12c C02L15525   1.723   6.925   7.015 -2.4239 -2.1478  0.3037
   844G12c H01D15526   1.824   6.900   7.044 -2.7919 -3.1326  0.7761
   844G12c C01315527   1.708   6.255   7.322  0.3430 -1.0865 -1.6387
   844G12c H00015528   1.766   6.344   7.338 -0.5568 -0.7623 -0.0706
   844G12c C01415529   1.744   6.116   7.369 -0.1406  0.6061 -0.2124
   844G12c C00F15530   1.846   6.091   7.454 -0.7405  0.4828  0.1988
   844G12c C00H15531   1.793   5.855   7.452 -0.1247  0.9973 -1.2205
   844G12c C00I15532   1.807   5.724   7.490 -1.0475  0.9424 -0.6586
   844G12c C00J15533   1.754   5.609   7.429  0.0626  0.7688  0.4617
   844G12c C00Z15534   1.596   5.894   7.099 -1.8433 -1.3656  0.1126
   844G12c C00Y15535   1.536   5.898   6.967  0.7350 -0.0393 -0.0266
   844G12c H00615536   1.518   5.996   6.926  0.2411  1.6039  3.8649
   844G12c C00X15537   1.492   5.784   6.907 -0.3516  1.5462 -0.9958
   844G12c O00315538   1.467   5.825   6.778  0.8236  0.1933  1.4248
   844G12c C01B15539   1.375   5.751   6.701 -0.6718 -1.5946 -0.7370
   844G12c H00915540   1.407   5.647   6.710  2.6124 -0.6115 -0.4453
   844G12c H00815541   1.374   5.773   6.594  2.0643  3.5170  0.1416
   844G12c H00715542   1.295   5.794   6.762  4.0184  2.8154  2.7117
   844G12c C00W15543   1.533   5.665   6.960  2.5617 -0.9176 -0.6423
   844G12c O00415544   1.500   5.555   6.888 -0.6403 -1.0078 -0.3355
   844G12c C01C15545   1.554   5.423   6.906  0.4946  1.8897 -0.8278
   844G12c H00A15546   1.534   5.343   6.836  0.3608  1.0367  0.1547
   844G12c C00P15547   1.653   5.422   7.005 -1.0182  0.6254 -1.1084
   844G12c C00O15548   1.766   5.327   7.013  1.2992  0.1506  0.4125
   844G12c C01D15549   1.813   5.288   6.885  1.1150 -0.6068  1.1052
   844G12c H00S15550   1.768   5.331   6.796 -1.4914  2.5604  3.8113
   844G12c C01E15551   1.947   5.218   6.884 -0.3083 -0.6240  1.8839
   844G12c O00815552   2.014   5.191   6.756 -0.6418  0.6291  0.9965
   844G12c C01V15553   2.064   5.307   6.700 -0.4677 -0.2159  0.8581
   844G12c C01Z15554   1.992   5.416   6.612  0.3082 -0.0677 -1.2008
   844G12c H00R15555   1.963   5.504   6.670 -0.5987  0.0919 -1.8826
   844G12c H00Q15556   2.064   5.455   6.540  0.0658  3.2136  0.2390
   844G12c O00915557   1.902   5.355   6.524  0.4470 -0.7349  1.1571
   844G12c H00P15558   1.928   5.270   6.493 -0.2208  1.8641 -7.9447
   844G12c C01W15559   2.191   5.326   6.718  0.0110 -0.3220  0.3605
   844G12c H00O15560   2.241   5.262   6.789  1.7361  2.1529  1.4471
   844G12c C01X15561   2.279   5.448   6.653 -0.8231  1.0662  0.3286
   844G12c H00N15562   2.247   5.518   6.575 -0.2321 -2.4053 -3.1983
   844G12c H00M15563   2.339   5.511   6.719 -2.2567  4.3522 -1.3557
   844G12c C01Y15564   2.379   5.344   6.567  0.6642  0.8562  0.5573
   844G12c C02D15565   2.436   5.227   6.618  1.5380  0.6764 -1.4786
   844G12c H01915566   2.373   5.177   6.690  7.1714 -2.6975  1.3990
   844G12c C02C15567   2.519   5.158   6.541 -0.7496  1.8142  1.6700
   844G12c H01A15568   2.561   5.059   6.551  1.7688  2.1939 -3.4596
   844G12c C02B15569   2.569   5.204   6.418 -0.9478 -0.0827  0.7413
   844G12c O00E15570   2.670   5.140   6.346  1.2057  0.0783 -0.8521
   844G12c H01B15571   2.697   5.077   6.411  2.6447 -2.6730 -3.9531
   844G12c C02F15572   2.523   5.330   6.376  1.2491 -1.2021  0.2723
   844G12c O00F15573   2.566   5.395   6.264  0.1361  0.1145 -0.0882
   844G12c C02G15574   2.499   5.352   6.144 -1.0080 -0.0021  0.8890
   844G12c H01715575   2.399   5.313   6.162 -0.4067 -3.2112 -2.1360
   844G12c H01615576   2.559   5.271   6.102 -2.5400 -2.1104  2.6545
   844G12c H01515577   2.499   5.454   6.107 -3.3888  0.1143  1.1483
   844G12c C02E15578   2.431   5.405   6.453  2.1290  0.8526 -1.5346
   844G12c H01815579   2.422   5.502   6.408 -1.9626  0.9870 -0.6553
   844G12c C01F15580   1.992   5.175   6.999  0.2869  0.5555  1.8700
   844G12c C01G15581   2.118   5.103   7.019  0.4470 -0.2832  1.1854
   844G12c H00L15582   2.179   5.065   6.939  3.0141 -1.0260  3.4229
   844G12c C01H15583   2.183   5.115   7.152  0.5630  0.6277 -0.0772
   844G12c H00B15584   2.287   5.096   7.173 -0.5326 -2.3345  3.0842
   844G12c C01I15585   2.093   5.151   7.258 -1.2903  0.2056 -0.1656
   844G12c C01U15586   1.908   5.176   7.113 -1.3459  0.1030 -0.0966
   844G12c C00S15587   1.670   5.636   7.323  0.4103  0.5055  0.4288
   844G12c C00K15588   1.814   5.482   7.429  0.1101 -0.5532 -0.4112
   844G12c C00N15589   1.817   5.278   7.124 -1.0383 -0.2594 -0.2414
   844G12c C00015590   1.955   5.143   7.237  2.0580  0.1466  0.1251
   844G12c C01J15591   2.122   5.210   7.379  1.5518 -1.0475 -0.1350
   844G12c C01K15592   2.251   5.222   7.448  0.8425 -0.9530 -1.1561
   844G12c C01P15593   2.372   5.120   7.438  1.1652 -0.9609  1.4497
   844G12c C01Q15594   2.368   5.009   7.361  0.7004  1.0225  0.0077
   844G12c H00G15595   2.275   4.954   7.362  3.5476 -4.1148 -0.3241
   844G12c C01R15596   2.496   4.943   7.316 -0.4638  1.4580  0.9593
   844G12c H00F15597   2.591   4.982   7.350 -0.1199  2.5141 -1.1807
   844G12c C01S15598   2.511   4.812   7.235  0.4316  0.7987 -1.1064
   844G12c H00E15599   2.414   4.850   7.202 -0.2844  1.1251  1.3034
   844G12c H00D15600   2.481   4.713   7.269 -2.6186  2.0798  0.1234
   844G12c O00515601   2.622   4.790   7.175  1.1991  0.1546  0.2821
   844G12c H00C15602   2.661   4.856   7.119 -3.6010  0.3555 -3.1214
   844G12c C01O15603   2.485   5.171   7.491 -0.8709 -1.8553 -2.2554
   844G12c H00H15604   2.582   5.126   7.504 -0.6563 -1.0496 -1.0699
   844G12c C01N15605   2.482   5.278   7.585  1.3636 -1.5691 -1.6431
   844G12c O00615606   2.597   5.353   7.594 -0.6998 -0.6738  0.7119
   844G12c C01T15607   2.704   5.272   7.639  0.9320  0.2854  0.7110
   844G12c H00K15608   2.698   5.208   7.727  4.2641  0.8552  1.4032
   844G12c H00J15609   2.758   5.228   7.554  0.5726 -2.5197  1.8950
   844G12c H00I15610   2.776   5.353   7.641 -0.3073  1.8354 -5.4518
   844G12c C01M15611   2.364   5.351   7.613 -1.3816 -1.2222  0.2562
   844G12c C02015612   1.906   5.473   7.533 -1.4470 -1.0537  2.1423
   844G12c C02115613   1.920   5.569   7.631 -0.4852 -0.9010 -1.9219
   844G12c C01L15614   2.242   5.320   7.539 -1.7147 -0.3708 -2.8668
   844G12c O00715615   2.397   5.461   7.684 -1.9710 -2.4359  0.4635
   844G12c C02215616   2.054   5.591   7.686  1.2018  1.2050  0.0613
   844G12c C02315617   1.903   5.704   7.582 -1.1289  0.6272  1.7573
   844G12c C00G15618   1.875   5.956   7.498 -1.3102  0.5978  1.6122
   844G12c C00E15619   1.924   6.198   7.523  0.4342 -0.7787  0.3775
   844G12c O00A15620   1.901   6.335   7.525 -1.7917  0.0014  0.0983
   844G12c C02415621   1.794   6.344   7.626  0.1891 -0.3020 -1.9475
   844G12c H00V15622   1.733   6.431   7.649  5.6304  2.9769  1.2085
   844G12c H00U15623   1.707   6.283   7.606 -2.9841  1.3677  5.3735
   844G12c H00T15624   1.839   6.304   7.717 -2.7315 -1.0322 -0.7910
   854G12c C00D15625   5.372   7.795   5.978 -0.3237  0.1532 -1.4058
   854G12c O00B15626   5.281   7.710   6.064 -0.7662 -0.8414  0.7179
   854G12c C02515627   5.207   7.811   6.135  1.1841 -0.0288  0.8651
   854G12c C02615628   5.085   7.858   6.084 -0.3297  1.0412  1.0361
   854G12c H00Y15629   5.011   7.863   6.164  2.0063  7.0671  3.1700
   854G12c H00X15630   5.027   7.785   6.029 -3.8793  1.1085  4.4832
   854G12c O00C15631   5.097   7.992   6.026 -1.0638  0.2130  0.0495
   854G12c H00W15632   5.188   8.008   6.043 -1.2618 -0.1616  1.5270
   854G12c C02715633   5.268   7.848   6.251 -1.2090 -0.4657  1.4841
   854G12c O00D15634   5.369   7.784   6.296  0.2506 -1.7251  0.3021
   854G12c H00Z15635   5.406   7.761   6.212 -0.7159 -0.6766 -0.4169
   854G12c C02815636   5.231   7.959   6.330  0.7683 -0.0388  0.0442
   854G12c C02915637   5.221   8.082   6.285 -0.9866 -0.1402  1.5962
   854G12c H01015638   5.273   8.108   6.194 -3.9992  2.8413  0.6186
   854G12c C02T15639   5.124   8.169   6.337 -0.2959  1.0199 -0.4686
   854G12c H01O15640   5.095   8.271   6.313 -1.4156  1.0684  0.9968
   854G12c C02S15641   5.023   8.121   6.430 -0.0513  0.2261 -1.6629
   854G12c O00J15642   4.937   8.216   6.484  0.3259  0.8460 -1.2207
   854G12c H01P15643   4.883   8.180   6.552  1.5334 -1.9642 -1.6555
   854G12c C02R15644   5.042   8.003   6.497  1.7390  0.4594 -0.8611
   854G12c O00I15645   4.976   7.989   6.614 -1.3715  1.6199  1.2127
   854G12c C02Q15646   5.042   7.997   6.738  0.3051  0.0931  0.8660
   854G12c H01N15647   5.071   8.101   6.752  5.1274 -1.1092  0.6018
   854G12c H01R15648   5.116   7.925   6.771 -1.6856 -3.2210 -1.6271
   854G12c H01Q15649   4.953   7.998   6.802 -1.2801  3.1515 -1.2570
   854G12c C02A15650   5.145   7.920   6.429  1.7412 -0.5194  0.1163
   854G12c H01115651   5.142   7.819   6.467  1.8744  0.0823  1.7672
   854G12c C00C15652   5.342   7.882   5.866  0.2159  0.4987  0.0934
   854G12c H01215653   5.236   7.904   5.865 -0.9042 -4.4964 -0.3433
   854G12c C00B15654   5.454   7.972   5.824 -0.7335 -1.1973 -2.4298
   854G12c C00A15655   5.455   8.094   5.750 -0.3751 -0.8279  1.2404
   854G12c C00915656   5.389   8.089   5.626  1.5799  0.3663 -1.7047
   854G12c C00815657   5.293   7.993   5.567 -1.2034  1.4586  1.1867
   854G12c H01315658   5.261   7.900   5.613 -2.8798  1.2527 -0.3576
   854G12c C00715659   5.265   7.995   5.435  0.7535 -1.6289  0.9972
   854G12c H01415660   5.190   7.960   5.366  1.3048 -1.5647  0.3638
   854G12c C00615661   5.329   8.103   5.368  0.3832  0.5582  0.0182
   854G12c C00515662   5.413   8.195   5.418 -1.0383 -0.2235 -0.6002
   854G12c C00415663   5.520   8.252   5.337 -1.8000  0.5561 -0.8975
   854G12c C00315664   5.649   8.296   5.397  1.3662 -0.0635 -0.2386
   854G12c C00215665   5.753   8.331   5.305 -0.2480  0.4894  1.2311
   854G12c C00115666   5.888   8.360   5.312 -0.7831 -1.4717 -0.9636
   854G12c C00M15667   5.986   8.274   5.402  0.2119 -0.3395 -1.0467
   854G12c C00L15668   5.952   8.246   5.532 -0.1069  0.2853  0.6680
   854G12c C00R15669   6.014   8.144   5.617 -0.2704 -0.6611  1.4271
   854G12c C00Q15670   6.120   8.058   5.600  0.8309 -1.2004  1.7402
   854G12c C00V15671   6.147   7.978   5.711  0.9481  0.3880 -2.2125
   854G12c C00U15672   6.070   7.966   5.828 -1.1132  1.4400 -1.3520
   854G12c C00T15673   5.953   8.024   5.821 -0.8115  0.2367  0.3061
   854G12c C01615674   5.834   7.960   5.851  1.1171  1.6402  0.2825
   854G12c C01515675   5.843   7.888   5.970  0.7364  1.2044 -0.6496
   854G12c C01015676   5.982   7.838   6.011  0.9225  1.5666  0.1111
   854G12c C01115677   6.004   7.819   6.137  0.6305 -1.0605 -0.2356
   854G12c H00515678   6.109   7.823   6.163 -0.1411  1.7126  2.7802
   854G12c C01215679   5.898   7.825   6.233  1.0667  0.2209  0.7922
   854G12c C01715680   5.908   7.845   6.383 -1.8146 -0.5944  1.5424
   854G12c O00215681   5.827   7.765   6.453  0.3156 -0.6518 -0.1817
   854G12c H00415682   5.795   7.811   6.529  0.2085 -1.7151  0.4277
   854G12c C01815683   5.985   7.921   6.457  0.8622  0.1876 -1.1473
   854G12c O00115684   6.088   8.007   6.386 -0.2502 -0.8370 -0.1720
   854G12c H00315685   6.138   7.975   6.313 -1.0356  3.1691 -2.6366
   854G12c C01915686   5.965   7.925   6.616 -0.6706  0.5803  0.8263
   854G12c H00215687   6.026   8.010   6.644 -0.7115 -0.0135  2.8593
   854G12c H00115688   6.005   7.832   6.658  4.9424  2.4718  0.0010
   854G12c O00015689   5.825   7.955   6.654  0.8302 -0.7970 -0.1270
   854G12c C01A15690   5.817   8.042   6.771 -0.6179 -1.2469  0.9463
   854G12c C02K15691   5.867   8.002   6.895 -0.4485 -0.7091  2.3453
   854G12c O00G15692   5.867   7.873   6.923  0.0154  0.4185 -1.3088
   854G12c C02M15693   5.754   7.803   6.965 -0.1051  0.2810 -0.3511
   854G12c H01G15694   5.737   7.861   7.056  2.6929  3.0702 -1.5077
   854G12c H01F15695   5.773   7.697   6.978 -1.6012  0.0743  0.2168
   854G12c H01E15696   5.677   7.809   6.889 -2.2183  0.4789  1.7517
   854G12c C02J15697   5.874   8.099   6.992 -2.2552 -0.4066  3.2742
   854G12c H01H15698   5.924   8.059   7.078 -3.0408  1.9854  4.9040
   854G12c C02I15699   5.866   8.240   6.953  1.2486 -1.2639  0.1575
   854G12c C02N15700   5.898   8.349   7.046  0.5736 -0.3926 -0.2423
   854G12c H01M15701   5.861   8.329   7.145 -4.4748 -8.3215 -3.1999
   854G12c C02O15702   5.951   8.460   7.002  1.5815 -0.6615 -0.2079
   854G12c H01L15703   5.982   8.452   6.898 -0.9094 -4.0659 -0.7856
   854G12c C02P15704   5.963   8.604   7.054  1.4498  1.8901 -1.6195
   854G12c H01K15705   5.984   8.647   7.152  4.9549  1.8429 -2.2602
   854G12c H01J15706   6.070   8.607   7.032  2.6890  1.8628  3.7177
   854G12c O00H15707   5.888   8.683   6.961 -0.0303  1.0543  0.4477
   854G12c H01I15708   5.915   8.773   6.962  0.1073  1.0671  4.9324
   854G12c C02H15709   5.849   8.275   6.810  0.3265 -1.0926 -0.4003
   854G12c H01C15710   5.821   8.378   6.791  2.2413 -0.2689  1.0503
   854G12c C02L15711   5.811   8.177   6.719 -1.3612 -0.1872 -0.6763
   854G12c H01D15712   5.776   8.167   6.618 -6.4376 -0.9466  1.0154
   854G12c C01315713   5.760   7.820   6.171  0.0201  0.5320  1.0324
   854G12c H00015714   5.676   7.804   6.237 -1.2166 -1.7830 -1.0264
   854G12c C01415715   5.739   7.857   6.044  2.1708  1.3694  0.3240
   854G12c C00F15716   5.604   7.857   5.980 -0.1456  0.6042  1.4679
   854G12c C00H15717   5.707   8.020   5.831 -0.1661 -0.5773  1.2078
   854G12c C00I15718   5.705   8.145   5.767  1.0865 -0.0529  1.0663
   854G12c C00J15719   5.816   8.190   5.705 -1.9152 -0.5194  0.5216
   854G12c C00Z15720   6.086   7.864   5.914  0.4851  2.2562 -0.3607
   854G12c C00Y15721   6.216   7.822   5.941  0.0630  0.3611  0.9595
   854G12c H00615722   6.240   7.755   6.023  4.1030  3.1408  2.1894
   854G12c C00X15723   6.305   7.828   5.817 -0.8462 -0.1266 -0.0113
   854G12c O00315724   6.424   7.762   5.815  0.2584  0.8191 -0.2022
   854G12c C01B15725   6.504   7.804   5.922 -1.2690  0.1951  1.5883
   854G12c H00915726   6.502   7.734   6.006  0.2428 -6.8177 -3.7207
   854G12c H00815727   6.510   7.909   5.947 -2.5917  0.0575  2.4945
   854G12c H00715728   6.595   7.787   5.864 -3.5953 -1.2146 -1.8471
   854G12c C00W15729   6.269   7.902   5.707 -0.0977 -1.0616 -0.9938
   854G12c O00415730   6.352   7.889   5.606 -1.0402  1.0860  0.9528
   854G12c C01C15731   6.281   7.917   5.486  0.6383  1.0956  0.4369
   854G12c H00A15732   6.225   7.850   5.423 -3.3438  0.6851  4.1279
   854G12c C00P15733   6.205   8.035   5.482  0.6711 -0.7005 -0.8813
   854G12c C00O15734   6.180   8.100   5.361 -0.6048  1.2074 -0.1580
   854G12c C01D15735   6.248   8.040   5.246 -1.1162  0.2300  1.2164
   854G12c H00S15736   6.345   7.994   5.258 -0.0987  3.0445  4.6664
   854G12c C01E15737   6.200   8.047   5.115 -0.4006  0.3992 -1.4816
   854G12c O00815738   6.239   7.990   4.991 -1.9073  1.1284  0.5914
   854G12c C01V15739   6.346   8.038   4.921 -0.5605  1.3697  1.4533
   854G12c C01Z15740   6.371   7.937   4.810  1.1618 -1.2350 -0.8274
   854G12c H00R15741   6.313   7.850   4.840  8.0489 -3.5737  7.9473
   854G12c H00Q15742   6.323   7.970   4.718 -1.0837 -1.1837  0.3303
   854G12c O00915743   6.504   7.894   4.797  0.4585  0.4140  0.3732
   854G12c H00P15744   6.499   7.827   4.730  5.6379 -1.5301  1.6865
   854G12c C01W15745   6.421   8.156   4.936 -0.7208 -0.2838  0.4758
   854G12c H00O15746   6.342   8.212   4.984 -0.3878 -0.2772  1.0240
   854G12c C01X15747   6.553   8.228   4.877  0.5067 -0.5415 -0.0494
   854G12c H00N15748   6.644   8.168   4.870  2.9698  2.9447  0.6287
   854G12c H00M15749   6.549   8.262   4.774  5.7800 -3.7510 -1.5234
   854G12c C01Y15750   6.629   8.302   4.992  0.1169 -1.3916 -0.6487
   854G12c C02D15751   6.662   8.253   5.115 -0.6322 -0.4418 -0.0149
   854G12c H01915752   6.662   8.149   5.142 -2.5832 -0.2068  0.9965
   854G12c C02C15753   6.730   8.329   5.215 -1.3435  1.1351 -0.0509
   854G12c H01A15754   6.779   8.288   5.303 -1.8902 -2.3613 -1.2857
   854G12c C02B15755   6.733   8.464   5.194 -1.7751  1.3830  0.3925
   854G12c O00E15756   6.766   8.554   5.296 -0.3865  1.7045 -0.9235
   854G12c H01B15757   6.726   8.640   5.294  1.5009  2.8995  4.7180
   854G12c C02F15758   6.699   8.536   5.078  1.1730  0.9543  1.5448
   854G12c O00F15759   6.725   8.672   5.077  0.6960  1.9131 -0.4863
   854G12c C02G15760   6.856   8.695   5.014 -0.5093 -0.3517  0.8110
   854G12c H01715761   6.889   8.791   5.056  1.2380  0.2130 -1.7599
   854G12c H01615762   6.940   8.634   5.046  3.0705  3.7730 -0.2560
   854G12c H01515763   6.859   8.759   4.926 -0.0900 -6.0841 -3.5958
   854G12c C02E15764   6.664   8.434   4.981 -0.1930  1.0921  0.0163
   854G12c H01815765   6.625   8.486   4.895  1.4999 10.1262  4.0776
   854G12c C01F15766   6.085   8.132   5.100  0.8784  0.7060  0.5993
   854G12c C01G15767   6.000   8.144   4.984  1.1345 -1.7402 -1.1191
   854G12c H00L15768   6.028   8.116   4.884 -0.2779  0.0598 -2.0490
   854G12c C01H15769   5.870   8.213   4.993 -0.6847 -0.6034  0.5998
   854G12c H00B15770   5.799   8.170   4.925 -4.5246  3.0623  2.1024
   854G12c C01I15771   5.844   8.287   5.108  0.7340  0.9405  0.0214
   854G12c C01U15772   6.046   8.221   5.193 -0.2651  1.1161  0.3802
   854G12c C00S15773   5.936   8.126   5.722  1.2477  1.7909  0.7312
   854G12c C00K15774   5.813   8.252   5.576  0.1664  1.4660 -0.3261
   854G12c C00N15775   6.083   8.198   5.320  0.1700  0.6052 -1.9776
   854G12c C00015776   5.948   8.319   5.191  1.1158 -0.0504  1.4408
   854G12c C01J15777   5.722   8.293   5.169  1.4414 -1.6511  1.1139
   854G12c C01K15778   5.576   8.304   5.108 -0.0047  1.6807 -1.6031
   854G12c C01P15779   5.526   8.313   4.976  2.1245 -0.3536  0.7442
   854G12c C01Q15780   5.600   8.381   4.863  0.1152  0.7220  0.5414
   854G12c H00G15781   5.618   8.488   4.855  1.2103  0.7108  2.5659
   854G12c C01R15782   5.612   8.296   4.769 -0.2746 -0.4721 -1.0870
   854G12c H00F15783   5.609   8.190   4.787  0.1814  0.7658  9.0892
   854G12c C01S15784   5.675   8.326   4.647  0.0475 -0.9672  0.7827
   854G12c H00E15785   5.651   8.239   4.587 -9.3772  0.7737  1.2755
   854G12c H00D15786   5.655   8.429   4.619 -1.3109 -2.2918 -3.4179
   854G12c O00515787   5.796   8.316   4.663 -0.2205 -0.6184 -0.4977
   854G12c H00C15788   5.805   8.385   4.726 -1.9952  0.0081 -0.8881
   854G12c C01O15789   5.398   8.287   4.945  0.2477  0.0014  0.2683
   854G12c H00H15790   5.371   8.281   4.840  3.0614 -5.5420 -0.3281
   854G12c C01N15791   5.299   8.248   5.039  0.1258 -0.7067 -0.3611
   854G12c O00615792   5.184   8.191   4.991  0.7970 -0.4652  0.2815
   854G12c C01T15793   5.127   8.183   4.860 -0.7526  0.2320 -0.4245
   854G12c H00K15794   5.040   8.119   4.864  0.1466 -0.9644  0.3479
   854G12c H00J15795   5.186   8.115   4.799 -1.3306 -0.1689 -0.5363
   854G12c H00I15796   5.112   8.283   4.817  3.3258  0.3974 -1.7198
   854G12c C01M15797   5.355   8.235   5.169  0.3173 -0.1669  0.4574
   854G12c C02015798   5.669   8.283   5.537  1.1584  0.3862  1.0364
   854G12c C02115799   5.559   8.249   5.607 -0.2618  1.9349  0.1675
   854G12c C01L15800   5.490   8.280   5.209  0.5238  0.3865 -1.4539
   854G12c O00715801   5.276   8.159   5.263 -1.3462  0.1645 -0.4056
   854G12c C02215802   5.430   8.204   5.556 -0.4771  0.0033 -0.2923
   854G12c C02315803   5.571   8.177   5.727 -1.6083 -0.4602 -0.0723
   854G12c C00G15804   5.588   7.944   5.874  0.6324  2.0801 -0.3349
   854G12c C00E15805   5.497   7.775   6.025  2.0116  0.7094 -0.0841
   854G12c O00A15806   5.510   7.678   6.128 -1.8734  1.4287  0.1942
   854G12c C02415807   5.525   7.561   6.050  0.7490  0.3417 -0.5205
   854G12c H00V15808   5.490   7.558   5.947 -0.7309  0.3983 -0.0302
   854G12c H00U15809   5.632   7.580   6.050  1.2631 -2.3005 -2.1897
   854G12c H00T15810   5.496   7.460   6.078  1.3896 -1.0514 -4.6239
   864G12c C00D15811   7.712   2.621   5.920 -0.2318 -0.3948 -0.0462
   864G12c O00B15812   7.685   2.753   5.897  0.6293  0.4851 -0.1589
   864G12c C02515813   7.629   2.820   5.784 -0.3954 -1.0872 -0.3942
   864G12c C02615814   7.725   2.904   5.687  1.1829 -0.4715  1.6946
   864G12c H00Y15815   7.663   2.961   5.618  0.1709 -4.7915 -1.1820
   864G12c H00X15816   7.771   2.847   5.606 -1.9343  0.5649 -0.9230
   864G12c O00C15817   7.790   2.998   5.791  0.4762 -0.2134  0.7157
   864G12c H00W15818   7.730   3.066   5.817  1.5850  0.2624  2.1276
   864G12c C02715819   7.499   2.840   5.766 -0.3543  0.6184 -0.4868
   864G12c O00D15820   7.421   2.783   5.842  0.9514 -0.0885 -0.5593
   864G12c H00Z15821   7.474   2.755   5.915 -4.9663  0.2852  4.3564
   864G12c C02815822   7.430   2.866   5.641  0.7779 -3.3743  0.1090
   864G12c C02915823   7.323   2.972   5.641 -0.4794  0.8859  0.4585
   864G12c H01015824   7.328   3.041   5.724  3.2542  1.1072  0.1223
   864G12c C02T15825   7.248   3.003   5.528  0.6625  0.3101 -0.3550
   864G12c H01O15826   7.190   3.094   5.529  1.5567  1.0008 -3.9548
   864G12c C02S15827   7.265   2.914   5.424  0.2322  0.7996  1.2110
   864G12c O00J15828   7.214   2.942   5.297  0.4639 -0.7683 -2.4217
   864G12c H01P15829   7.247   2.903   5.217  1.0372  3.3572 -4.3435
   864G12c C02R15830   7.365   2.813   5.418 -0.3713  0.9362 -0.0153
   864G12c O00I15831   7.368   2.745   5.303  0.7177 -0.2570  2.1460
   864G12c C02Q15832   7.487   2.738   5.234  0.5738 -0.6788  1.1481
   864G12c H01N15833   7.562   2.807   5.197  6.7667 -6.1225  2.6854
   864G12c H01R15834   7.539   2.680   5.310  5.0665  3.1949  1.2418
   864G12c H01Q15835   7.473   2.643   5.180 -4.2128 -0.1170  1.1424
   864G12c C02A15836   7.448   2.783   5.528 -0.6585 -0.4011 -1.4412
   864G12c H01115837   7.531   2.715   5.513  6.0208  5.0549  6.0383
   864G12c C00C15838   7.671   2.522   5.830  1.1460 -1.2177 -1.3088
   864G12c H01215839   7.621   2.534   5.735 -1.3491 -2.7356 -0.2134
   864G12c C00B15840   7.715   2.388   5.844 -2.2262 -1.0621  0.8215
   864G12c C00A15841   7.682   2.273   5.764  1.0286  0.7285 -1.7124
   864G12c C00915842   7.566   2.243   5.718  1.2226 -1.2910 -0.3362
   864G12c C00815843   7.460   2.311   5.665 -1.1903 -0.3138  0.1370
   864G12c H01315844   7.471   2.393   5.595 -6.2029 -0.4499 -1.0406
   864G12c C00715845   7.351   2.221   5.632 -1.3121 -0.8578 -0.5500
   864G12c H01415846   7.261   2.269   5.595  0.3388  2.2017 -0.7940
   864G12c C00615847   7.355   2.089   5.615  1.9101 -2.2398  1.1132
   864G12c C00515848   7.460   2.028   5.684 -1.0391 -0.3674  0.8231
   864G12c C00415849   7.460   1.883   5.697 -0.0084  0.9008  0.3847
   864G12c C00315850   7.585   1.830   5.749 -0.8604  1.8396 -1.9494
   864G12c C00215851   7.587   1.680   5.772  0.7432 -1.8882 -0.9514
   864G12c C00115852   7.689   1.598   5.831 -0.9272  1.7548 -0.4167
   864G12c C00M15853   7.766   1.640   5.946  0.2151  1.3378 -1.3176
   864G12c C00L15854   7.827   1.754   5.967 -0.5936  1.4150  0.1745
   864G12c C00R15855   7.857   1.817   6.095 -0.1859 -0.0401  0.5077
   864G12c C00Q15856   7.858   1.770   6.231  0.1805  3.5236  0.9215
   864G12c C00V15857   7.898   1.859   6.326 -0.1864 -0.0003 -1.7057
   864G12c C00U15858   7.889   1.998   6.298  1.1951  2.1681  0.9389
   864G12c C00T15859   7.867   2.045   6.168  1.2587  0.7759  0.4566
   864G12c C01615860   7.838   2.177   6.127 -0.8795 -1.1450 -0.5664
   864G12c C01515861   7.858   2.279   6.220 -0.1436  0.8847 -0.3393
   864G12c C01015862   7.898   2.238   6.351  2.2392  0.7299 -0.6855
   864G12c C01115863   7.898   2.338   6.452  0.7537 -0.1520 -0.2311
   864G12c H00515864   7.935   2.307   6.548  4.8558 -0.3143 -1.7573
   864G12c C01215865   7.842   2.472   6.420  1.2062  0.2732 -0.0892
   864G12c C01715866   7.846   2.591   6.499 -0.7134  0.4098  1.1237
   864G12c O00215867   7.739   2.662   6.547  1.2234  0.2459  0.7049
   864G12c H00415868   7.707   2.602   6.613 -1.6823  1.1323  0.1662
   864G12c C01815869   7.968   2.639   6.531  0.3436  0.5312  0.8763
   864G12c O00115870   8.089   2.592   6.503 -0.4379 -0.1814 -1.8259
   864G12c H00315871   8.162   2.651   6.510 -1.3389  0.5258  2.4086
   864G12c C01915872   7.978   2.763   6.625 -0.3536 -1.1878 -0.7406
   864G12c H00215873   7.900   2.838   6.620  2.9162  2.2751 -2.0245
   864G12c H00115874   7.998   2.723   6.724 -1.6024  1.1737  0.5108
   864G12c O00015875   8.114   2.814   6.616  0.7694  0.9291  0.0528
   864G12c C01A15876   8.163   2.908   6.535 -0.4098  1.5892  0.5629
   864G12c C02K15877   8.294   2.954   6.570  0.3416  0.9657 -0.7746
   864G12c O00G15878   8.346   2.907   6.692  0.8850  0.9285  0.1272
   864G12c C02M15879   8.465   2.838   6.674  1.7708  0.2101 -0.5109
   864G12c H01G15880   8.505   2.794   6.766 -5.9300  0.0646  3.1067
   864G12c H01F15881   8.542   2.898   6.625 -1.6698  2.8963 -2.8276
   864G12c H01E15882   8.450   2.761   6.599  3.6715 -2.2493  1.5359
   864G12c C02J15883   8.375   3.022   6.477 -0.4006  2.0634 -1.1837
   864G12c H01H15884   8.476   3.059   6.488 -2.7267  7.4680  5.3547
   864G12c C02I15885   8.285   3.078   6.380  0.5489  1.3322 -1.0061
   864G12c C02N15886   8.358   3.152   6.268  0.1521  0.3991  0.7805
   864G12c H01M15887   8.314   3.248   6.244 -3.9523 -0.8726  2.6552
   864G12c C02O15888   8.475   3.138   6.195 -1.7021  0.2586  2.0186
   864G12c H01L15889   8.508   3.211   6.123  0.6200  0.7414  3.5238
   864G12c C02P15890   8.605   3.083   6.232 -0.1206 -1.9431  0.5114
   864G12c H01K15891   8.685   3.155   6.249 -1.7095  0.5208 -2.1251
   864G12c H01J15892   8.599   3.043   6.334 -0.4870  4.0419  3.0277
   864G12c O00H15893   8.640   2.958   6.163 -0.3240  1.3881  0.6430
   864G12c H01I15894   8.715   2.930   6.213  0.0745  7.6310  4.0505
   864G12c C02H15895   8.145   3.052   6.363 -2.1525  0.1296  0.2250
   864G12c H01C15896   8.101   3.104   6.278  2.7096  3.2975 -0.5429
   864G12c C02L15897   8.098   2.941   6.423 -0.5312 -0.2982 -0.2305
   864G12c H01D15898   8.013   2.875   6.412 -2.7365  1.7924  3.1455
   864G12c C01315899   7.804   2.493   6.286 -0.0653 -0.8899  0.0205
   864G12c H00015900   7.750   2.586   6.279  3.1155  0.8037 -4.0771
   864G12c C01415901   7.825   2.406   6.185  0.6032 -0.1032  0.3479
   864G12c C00F15902   7.793   2.445   6.060 -1.2346  1.2715  0.4935
   864G12c C00H15903   7.809   2.216   5.991 -0.8948 -1.3876 -1.2441
   864G12c C00I15904   7.792   2.108   5.898  0.5480  1.1161 -1.3582
   864G12c C00J15905   7.822   1.987   5.952  0.4790  1.0716  2.1224
   864G12c C00Z15906   7.925   2.098   6.387 -0.8437  0.4713 -1.0067
   864G12c C00Y15907   7.988   2.053   6.502 -0.2143  0.0175  1.2882
   864G12c H00615908   8.035   2.134   6.555 -2.8782  1.0618  2.1265
   864G12c C00X15909   7.970   1.915   6.548 -1.5466 -0.0393  0.9574
   864G12c O00315910   8.022   1.880   6.671 -0.2998 -1.0953 -0.6754
   864G12c C01B15911   8.159   1.812   6.665  0.1735 -0.9785 -0.6269
   864G12c H00915912   8.201   1.835   6.763 -5.8453  6.4821  0.6815
   864G12c H00815913   8.238   1.864   6.610 -2.4320  1.9963 -1.7212
   864G12c H00715914   8.175   1.705   6.659  2.2083 -0.5333 -7.0732
   864G12c C00W15915   7.928   1.819   6.455  0.8600  0.8711 -1.9638
   864G12c O00415916   7.924   1.692   6.488  0.5456  0.1011 -2.0589
   864G12c C01C15917   7.852   1.606   6.410 -0.1199 -0.8189 -3.7639
   864G12c H00A15918   7.775   1.545   6.454  4.4713 -3.4787  1.2169
   864G12c C00P15919   7.821   1.624   6.272 -1.1437 -1.3173  0.1672
   864G12c C00O15920   7.758   1.523   6.195 -1.1088  0.3737  2.1274
   864G12c C01D15921   7.718   1.412   6.248  0.6702 -1.0056  0.8554
   864G12c H00S15922   7.764   1.370   6.336  4.3432  4.6538  1.9041
   864G12c C01E15923   7.616   1.330   6.200  0.3024 -1.5678  0.2378
   864G12c O00815924   7.547   1.280   6.300 -0.0359  1.4747 -1.7264
   864G12c C01V15925   7.565   1.132   6.335  1.0087  0.6136 -0.7412
   864G12c C01Z15926   7.446   1.051   6.360  1.2333 -1.7775 -1.6298
   864G12c H00R15927   7.359   1.038   6.296 -2.4957 -2.5039  3.2615
   864G12c H00Q15928   7.495   0.955   6.373  1.6556 -1.3405  0.0965
   864G12c O00915929   7.448   1.107   6.491  0.9603  0.0640  0.5508
   864G12c H00P15930   7.513   1.175   6.479  0.7501 -0.3567 -3.5012
   864G12c C01W15931   7.692   1.093   6.328  1.4963 -1.3272  3.2882
   864G12c H00O15932   7.778   1.150   6.295  5.5043 -6.9678  3.3051
   864G12c C01X15933   7.739   0.947   6.338  0.5517  0.0283 -0.4086
   864G12c H00N15934   7.683   0.865   6.292 -0.4192  1.5341 -1.9539
   864G12c H00M15935   7.815   0.915   6.266 -0.7178  2.7574 -3.0790
   864G12c C01Y15936   7.783   0.917   6.473  2.1897 -0.6047  1.1752
   864G12c C02D15937   7.903   0.959   6.504 -0.3915 -1.7351  0.6675
   864G12c H01915938   7.974   1.020   6.449  0.4291 -4.4275 -1.3253
   864G12c C02C15939   7.976   0.888   6.598  0.0917  0.7592 -1.3150
   864G12c H01A15940   8.082   0.879   6.578 -0.9420 -6.4949 -5.5152
   864G12c C02B15941   7.904   0.816   6.703 -0.9366  2.4511 -2.1460
   864G12c O00E15942   7.972   0.719   6.776  0.5961 -0.2266  0.5591
   864G12c H01B15943   7.920   0.644   6.800 -0.9566  0.7354  0.2737
   864G12c C02F15944   7.763   0.797   6.686 -0.7142  0.0921 -0.7839
   864G12c O00F15945   7.698   0.702   6.759 -0.5347 -0.9732  0.6339
   864G12c C02G15946   7.600   0.777   6.847 -0.5845  0.3178  1.0405
   864G12c H01715947   7.574   0.748   6.949 -1.5997  0.2898  0.7885
   864G12c H01615948   7.507   0.744   6.800 -0.8833 -2.0419  3.1525
   864G12c H01515949   7.626   0.882   6.856  3.3994 -0.3502 -1.7566
   864G12c C02E15950   7.700   0.838   6.565 -0.0237  1.5236  1.2145
   864G12c H01815951   7.593   0.820   6.565  0.2551 -1.4443 -5.8676
   864G12c C01F15952   7.555   1.370   6.064 -1.7081 -1.0566 -0.4183
   864G12c C01G15953   7.417   1.375   6.034  1.1391 -0.7597  0.0584
   864G12c H00L15954   7.333   1.359   6.099  1.4961 -0.2027  0.6658
   864G12c C01H15955   7.368   1.419   5.906 -0.0995 -0.0704  0.4712
   864G12c H00B15956   7.273   1.471   5.900  1.0277  1.7200 -4.9052
   864G12c C01I15957   7.474   1.488   5.825 -0.8888 -0.0238  0.5408
   864G12c C01U15958   7.644   1.445   5.975 -1.1151  0.9924 -0.8173
   864G12c C00S15959   7.869   1.954   6.068 -1.1518 -0.1489  2.2390
   864G12c C00K15960   7.796   1.871   5.877  0.3934 -0.3539 -0.0488
   864G12c C00N15961   7.736   1.532   6.045 -0.8304 -1.0266  1.1035
   864G12c C00015962   7.624   1.477   5.845  0.8631 -0.9914 -0.6535
   864G12c C01J15963   7.461   1.606   5.752  0.4712  0.3674 -0.6402
   864G12c C01K15964   7.335   1.669   5.698 -0.5043  0.7753 -1.2564
   864G12c C01P15965   7.212   1.609   5.667  1.1281  0.7334 -1.4142
   864G12c C01Q15966   7.223   1.461   5.610 -1.4640 -1.2860  1.1244
   864G12c H00G15967   7.180   1.369   5.647 -1.9447 -0.7512  1.9171
   864G12c C01R15968   7.243   1.465   5.473 -0.1634  0.1024 -0.9244
   864G12c H00F15969   7.246   1.562   5.424  2.3140  1.4651  1.8108
   864G12c C01S15970   7.236   1.341   5.391  0.0447  0.8546 -1.0446
   864G12c H00E15971   7.151   1.292   5.438  0.4572  2.4472  1.4764
   864G12c H00D15972   7.197   1.343   5.289  2.3452 -1.6159 -2.0448
   864G12c O00515973   7.369   1.288   5.371 -0.1419  1.0745  1.1206
   864G12c H00C15974   7.448   1.338   5.386  0.2515  1.8219 -2.7468
   864G12c C01O15975   7.096   1.674   5.628 -0.4557  0.1405 -0.4214
   864G12c H00H15976   7.016   1.602   5.621 -0.2899  0.2610 -5.3346
   864G12c C01N15977   7.107   1.812   5.595 -1.9115  0.9602  0.3523
   864G12c O00615978   6.983   1.879   5.566 -0.3979 -0.4157  0.9798
   864G12c C01T15979   6.914   1.827   5.467  0.9797  0.5914  0.5193
   864G12c H00K15980   6.928   1.720   5.452 -1.1021 -0.7044  6.3994
   864G12c H00J15981   6.903   1.881   5.373 -0.4384 -3.4317 -1.7360
   864G12c H00I15982   6.819   1.820   5.520  4.1316  0.5658  6.5959
   864G12c C01M15983   7.237   1.886   5.607 -0.6219  1.2844 -0.3556
   864G12c C02015984   7.701   1.913   5.782  0.7042  0.6917  1.0676
   864G12c C02115985   7.684   2.035   5.711 -0.1896 -1.2455  0.2252
   864G12c C01L15986   7.344   1.809   5.677 -0.3472  0.3595  1.0594
   864G12c O00715987   7.230   2.024   5.595  0.3404  0.2903 -1.6275
   864G12c C02215988   7.568   2.100   5.715 -0.2034  0.8499 -1.4237
   864G12c C02315989   7.727   2.145   5.778  0.4532 -0.7098  0.4529
   864G12c C00G15990   7.782   2.354   5.961  0.0238 -1.4449 -0.7919
   864G12c C00E15991   7.782   2.577   6.028  0.3565 -1.4467  0.6083
   864G12c O00A15992   7.845   2.678   6.091  0.9085  0.3389 -0.5615
   864G12c C02415993   7.973   2.679   6.035 -0.7069 -1.8409 -0.5945
   864G12c H00V15994   7.999   2.589   5.980 -0.3898 -0.0880 -3.3870
   864G12c H00U15995   7.970   2.746   5.949 -4.7271 -5.5595 -3.5435
   864G12c H00T15996   8.046   2.721   6.105  0.6952  5.3190 -5.8073
   874G12c C00D15997  12.033   5.347   0.962  0.4023  0.8355 -0.8031
   874G12c O00B15998  12.113   5.455   1.001 -0.6248  0.7153 -0.0063
   874G12c C02515999  12.233   5.448   0.935 -0.8212  0.8819 -1.3472
   874G12c C02616000  12.364   5.383   0.984  0.1631 -1.8788 -0.7982
   874G12c H00Y16001  12.441   5.339   0.920 -1.9963 -0.7265 -4.3095
   874G12c H00X16002  12.303   5.302   1.025 -0.7851 -1.0857 -0.6316
   874G12c O00C16003  12.413   5.449   1.099  0.0186  0.6464  0.0342
   874G12c H00W16004  12.375   5.405   1.173 -2.0737 -4.4674 -3.8045
   874G12c C02716005  12.241   5.538   0.854 -0.3369 -2.6880  0.6620
   874G12c O00D16006  12.156   5.647   0.855 -0.9849 -0.2717  0.6272
   874G12c H00Z16007  12.067   5.625   0.874 -3.0941  6.6482  0.2610
   874G12c C02816008  12.346   5.541   0.770  0.2049 -0.3960 -0.4916
   874G12c C02916009  12.408   5.657   0.726  0.5676  0.8715  0.8779
   874G12c H01016010  12.399   5.754   0.773 -1.7001  1.0951  0.0487
   874G12c C02T16011  12.458   5.687   0.590 -0.1718  0.4070 -0.2878
   874G12c H01O16012  12.495   5.781   0.553  6.2504  0.5765  5.5287
   874G12c C02S16013  12.479   5.576   0.522 -0.4448 -0.1498  1.6253
   874G12c O00J16014  12.540   5.574   0.403 -0.2498  1.8292  0.6551
   874G12c H01P16015  12.581   5.489   0.397 -1.1215  1.3314  1.5576
   874G12c C02R16016  12.454   5.452   0.567  0.8145  1.1566 -1.3689
   874G12c O00I16017  12.495   5.348   0.473  0.7668  0.4216  0.0375
   874G12c C02Q16018  12.409   5.224   0.479  0.7533 -0.4678 -0.9052
   874G12c H01N16019  12.427   5.161   0.566 -2.0711 -1.2019 -0.7966
   874G12c H01R16020  12.412   5.154   0.396  2.2825 -3.9618  1.9473
   874G12c H01Q16021  12.310   5.263   0.504  1.6911  0.9775  0.7296
   874G12c C02A16022  12.387   5.440   0.692  0.2720  0.7035 -0.9933
   874G12c H01116023  12.358   5.343   0.730  3.6173 -1.0264 -2.5783
   874G12c C00C16024  12.063   5.219   1.009  0.7196 -0.7609  1.1028
   874G12c H01216025  12.137   5.185   1.081  1.1438 -4.5879 -1.0311
   874G12c C00B16026  11.983   5.114   0.972  1.1719  1.9844 -0.2044
   874G12c C00A16027  12.010   4.964   0.995 -0.8737 -0.1251  0.0758
   874G12c C00916028  12.142   4.900   1.000 -0.6739 -0.5144  1.0406
   874G12c C00816029  12.279   4.942   1.024 -0.3341  1.2829 -1.3510
   874G12c H01316030  12.331   5.032   1.054 -2.0219  2.9261 -3.2397
   874G12c C00716031  12.374   4.847   0.966  1.4061 -0.4738 -0.8200
   874G12c H01416032  12.477   4.878   0.952  0.0470  5.3875  0.5777
   874G12c C00616033  12.354   4.725   0.910 -1.3547  0.4354  0.3904
   874G12c C00516034  12.216   4.687   0.924 -1.1084 -1.1592 -1.9519
   874G12c C00416035  12.166   4.583   0.847 -0.5788  0.6147  0.6916
   874G12c C00316036  12.024   4.556   0.823  0.3129  1.7884  1.3542
   874G12c C00216037  12.006   4.428   0.765  1.8951 -0.7342  0.0474
   874G12c C00116038  11.871   4.383   0.721  0.1642 -1.1539  1.9965
   874G12c C00M16039  11.759   4.481   0.671 -0.7996 -0.3751 -0.4083
   874G12c C00L16040  11.690   4.596   0.721  0.6374 -0.7964 -0.0743
   874G12c C00R16041  11.611   4.701   0.653 -2.4675 -0.0062 -0.5609
   874G12c C00Q16042  11.544   4.718   0.537 -1.7108  1.2393 -0.7447
   874G12c C00V16043  11.477   4.840   0.530 -0.0901  0.0931  0.7483
   874G12c C00U16044  11.526   4.955   0.603  0.9505  0.1256  2.0319
   874G12c C00T16045  11.623   4.936   0.693 -1.0283  1.1500  1.4923
   874G12c C01616046  11.696   5.052   0.751 -0.8974  0.3926  1.4719
   874G12c C01516047  11.651   5.172   0.718 -0.2355 -0.9325  0.6764
   874G12c C01016048  11.532   5.187   0.641 -1.3520 -0.3279 -0.6761
   874G12c C01116049  11.498   5.323   0.615  0.1392 -0.5356  0.7856
   874G12c H00516050  11.398   5.341   0.576  0.2317 -4.5066 -1.5078
   874G12c C01216051  11.567   5.429   0.672  0.2592  0.1968 -0.1893
   874G12c C01716052  11.534   5.564   0.635  1.1796  0.2417  0.2351
   874G12c O00216053  11.583   5.623   0.516  0.3663 -0.7250  0.7202
   874G12c H00416054  11.533   5.703   0.517 -2.9184 -2.6701  3.2724
   874G12c C01816055  11.470   5.646   0.724  0.1870 -0.9240  0.1670
   874G12c O00116056  11.422   5.600   0.843  0.5672 -0.7500  1.3293
   874G12c H00316057  11.511   5.573   0.856  2.5140  4.9706  1.0080
   874G12c C01916058  11.414   5.781   0.678  0.6214 -0.2116 -0.9200
   874G12c H00216059  11.312   5.820   0.688  2.3688  5.5301 -3.0379
   874G12c H00116060  11.477   5.866   0.704 -0.7859  1.1466 -1.8309
   874G12c O00016061  11.408   5.785   0.515 -0.5395  0.0567 -1.0193
   874G12c C01A16062  11.300   5.851   0.461 -1.0019 -0.0251  0.7080
   874G12c C02K16063  11.251   5.817   0.315  1.0572  0.6410 -2.0316
   874G12c O00G16064  11.304   5.703   0.259 -0.4519  0.4976  0.7427
   874G12c C02M16065  11.215   5.598   0.285 -1.0459 -0.1633 -0.7508
   874G12c H01G16066  11.195   5.507   0.228 -1.8953  0.0315 -0.7595
   874G12c H01F16067  11.145   5.624   0.364 -3.6342 -1.9894 -2.4045
   874G12c H01E16068  11.282   5.532   0.342  0.2813  2.7930  1.2445
   874G12c C02J16069  11.137   5.888   0.258 -1.2111 -0.0295  3.0658
   874G12c H01H16070  11.141   5.857   0.155  1.3625  3.6724  1.9360
   874G12c C02I16071  11.092   5.995   0.325 -0.6339  1.1355 -1.1631
   874G12c C02N16072  11.006   6.098   0.260  0.5785 -0.2517  1.6218
   874G12c H01M16073  11.067   6.183   0.230  0.8253 -0.4885  1.4474
   874G12c C02O16074  10.894   6.046   0.202 -0.3239 -1.3983  0.3666
   874G12c H01L16075  10.845   6.106   0.126  4.9347 -0.5011 -2.5369
   874G12c C02P16076  10.838   5.908   0.263  0.4960 -1.0267  2.2619
   874G12c H01K16077  10.799   5.846   0.182 -2.1815 -1.5414  3.8827
   874G12c H01J16078  10.913   5.836   0.297 -0.2313 -2.5724  0.6908
   874G12c O00H16079  10.719   5.968   0.328 -0.2877 -1.3749 -0.0579
   874G12c H01I16080  10.683   6.044   0.285  0.5698 -3.8545 -5.6886
   874G12c C02H16081  11.168   6.043   0.444  0.6686  0.6511 -0.7507
   874G12c H01C16082  11.114   6.111   0.508 -1.5256 -3.9471  2.6296
   874G12c C02L16083  11.278   5.979   0.497  0.1653 -1.2516 -0.4453
   874G12c H01D16084  11.335   6.007   0.584  1.5292  0.7249 -1.9255
   874G12c C01316085  11.679   5.416   0.746  0.9295  1.1945  1.2557
   874G12c H00016086  11.732   5.500   0.789  5.5578  0.2800 -2.2765
   874G12c C01416087  11.712   5.278   0.774 -1.6260 -1.5012 -0.5091
   874G12c C00F16088  11.822   5.259   0.865  0.2774  0.9399 -0.3265
   874G12c C00H16089  11.801   5.025   0.844  1.4962  1.3861  0.2846
   874G12c C00I16090  11.800   4.893   0.883 -1.0280 -0.1357  1.2796
   874G12c C00J16091  11.731   4.793   0.824  1.1663  1.7067  0.7285
   874G12c C00Z16092  11.471   5.078   0.574 -0.1541 -1.6830 -0.5140
   874G12c C00Y16093  11.349   5.095   0.504  1.1889  0.3632 -1.5552
   874G12c H00616094  11.289   5.183   0.484  2.9110  1.0605 -3.7917
   874G12c C00X16095  11.326   4.999   0.413  1.1945 -1.0126  0.7508
   874G12c O00316096  11.205   4.997   0.365  0.8498  0.2993  1.2608
   874G12c C01B16097  11.145   5.100   0.301 -2.4136  1.0997 -0.1155
   874G12c H00916098  11.197   5.188   0.263 -0.9244  4.0438  7.8734
   874G12c H00816099  11.065   5.049   0.246 -1.2739  0.3796 -1.1356
   874G12c H00716100  11.071   5.142   0.369 -1.7396  2.5539 -0.2524
   874G12c C00W16101  11.394   4.865   0.420  1.7748 -0.7329 -0.6186
   874G12c O00416102  11.399   4.793   0.300 -0.0506  0.2880 -0.4751
   874G12c C01C16103  11.476   4.675   0.299 -0.6273 -0.8607 -0.7533
   874G12c H00A16104  11.512   4.630   0.207 -1.9193  2.1497 -2.8526
   874G12c C00P16105  11.557   4.626   0.422  0.0421  0.0856  1.7351
   874G12c C00O16106  11.642   4.508   0.414  0.0568  0.6124  0.2126
   874G12c C01D16107  11.669   4.432   0.286 -0.9839 -1.6442  0.5221
   874G12c H00S16108  11.627   4.441   0.187 -1.2040 -7.0505 -0.0322
   874G12c C01E16109  11.791   4.348   0.269  0.0714  0.0620 -1.4243
   874G12c O00816110  11.808   4.302   0.139 -0.2989  1.2136  1.5252
   874G12c C01V16111  11.760   4.164   0.135 -1.4195 -0.7493  0.4333
   874G12c C01Z16112  11.597   4.149   0.133  1.2761 -0.4955 -0.6635
   874G12c H00R16113  11.558   4.149   0.235  2.9964  3.2143  0.0822
   874G12c H00Q16114  11.575   4.249   0.095  3.4046 -0.3044 -1.4500
   874G12c O00916115  11.531   4.047   0.058 -0.7446  0.2287 -0.1278
   874G12c H00P16116  11.439   4.035   0.075  0.0792  0.4637  5.3915
   874G12c C01W16117  11.849   4.066   0.178 -0.5414  0.7728 -1.1674
   874G12c H00O16118  11.954   4.072   0.202  1.1286 -6.2796 -5.3598
   874G12c C01X16119  11.811   3.920   0.192 -0.3335  0.7496 -0.2366
   874G12c H00N16120  11.883   3.880   0.263  0.0743  2.0465  0.0888
   874G12c H00M16121  11.719   3.911   0.249 -2.2906  4.8794 -2.4795
   874G12c C01Y16122  11.787   3.819   0.089 -1.3586 -1.3414 -0.2352
   874G12c C02D16123  11.665   3.747   0.053 -0.6813 -0.8566 -1.1083
   874G12c H01916124  11.575   3.757   0.111 -2.2338  6.0384 -4.1243
   874G12c C02C16125  11.652   3.620  -0.021  0.1776 -0.7126 -0.5633
   874G12c H01A16126  11.551   3.581  -0.011 -0.1362  0.9507  3.8666
   874G12c C02B16127  11.752   3.596  -0.120  1.4005 -0.3974  0.0879
   874G12c O00E16128  11.731   3.506  -0.220 -1.0233  0.4382  0.4866
   874G12c H01B16129  11.782   3.524  -0.297 -8.1831  4.3343 -3.9360
   874G12c C02F16130  11.886   3.660  -0.087 -0.7919 -0.6891  0.6427
   874G12c O00F16131  11.969   3.617  -0.187  0.2089 -1.2906  1.5848
   874G12c C02G16132  12.069   3.711  -0.209 -0.4783  0.2324 -1.8997
   874G12c H01716133  12.131   3.711  -0.120 -1.4337  2.9001 -1.1752
   874G12c H01616134  12.023   3.808  -0.229 -1.7820  1.0123  4.1248
   874G12c H01516135  12.151   3.681  -0.274  0.6311 -0.0434 -0.3826
   874G12c C02E16136  11.891   3.760   0.021  1.3086  0.7174  0.7249
   874G12c H01816137  11.987   3.802   0.044  3.0427 -2.1024 -1.0534
   874G12c C01F16138  11.890   4.342   0.365 -0.5923  0.4581  1.4889
   874G12c C01G16139  12.016   4.280   0.342  0.7611  0.6040 -0.0767
   874G12c H00L16140  12.043   4.263   0.238 -0.1943  3.7698 -0.8989
   874G12c C01H16141  12.088   4.265   0.460 -0.7627 -1.8640  1.3506
   874G12c H00B16142  12.191   4.239   0.438 -1.6377 -2.6174 -2.0440
   874G12c C01I16143  12.045   4.273   0.584 -0.6224 -1.1707 -0.2303
   874G12c C01U16144  11.840   4.355   0.493  1.4025  0.5602 -0.1262
   874G12c C00S16145  11.618   4.808   0.750  0.7407 -0.4602  0.2020
   874G12c C00K16146  11.765   4.654   0.814  1.1370  1.3695  0.8274
   874G12c C00N16147  11.738   4.452   0.526  0.6484 -0.1845  0.6639
   874G12c C00016148  11.903   4.297   0.603 -1.4696 -0.5233  1.1274
   874G12c C01J16149  12.101   4.343   0.700  0.3537  1.1710 -1.9977
   874G12c C01K16150  12.236   4.386   0.700 -0.3335  0.6077  0.5037
   874G12c C01P16151  12.352   4.294   0.685 -0.8876  0.2205 -0.2362
   874G12c C01Q16152  12.346   4.153   0.658 -1.3097  0.7958  0.4439
   874G12c H00G16153  12.368   4.106   0.564  0.6292 -4.2321  3.2156
   874G12c C01R16154  12.289   4.070   0.734  0.3683  0.4324 -0.0140
   874G12c H00F16155  12.241   4.106   0.823 -3.6679  0.8855 -2.2402
   874G12c C01S16156  12.218   3.937   0.673  0.8603 -0.7748  0.2515
   874G12c H00E16157  12.153   3.934   0.761  2.3696 -3.2827  1.3141
   874G12c H00D16158  12.157   3.976   0.591 -0.8690  0.5578  2.1165
   874G12c O00516159  12.306   3.826   0.652  1.4801 -0.2886  1.3715
   874G12c H00C16160  12.329   3.837   0.561 -1.2962 -5.0673 -0.0826
   874G12c C01O16161  12.478   4.337   0.658  1.2192 -0.5694  0.2209
   874G12c H00H16162  12.551   4.275   0.607 -0.7335 -2.7336  0.0336
   874G12c C01N16163  12.499   4.465   0.708 -1.7522 -0.5093  1.3809
   874G12c O00616164  12.622   4.524   0.651  0.4002 -0.2394  1.9365
   874G12c C01T16165  12.604   4.557   0.508  0.3776  1.1059  0.7386
   874G12c H00K16166  12.697   4.592   0.462 -1.4175  1.7851 -2.5479
   874G12c H00J16167  12.526   4.629   0.485  0.8747  1.8368  1.3098
   874G12c H00I16168  12.602   4.458   0.463  0.0571 -0.5092  4.1400
   874G12c C01M16169  12.406   4.541   0.790  0.9591 -1.1117  0.7401
   874G12c C02016170  11.906   4.639   0.866  0.4682  1.1797 -2.3192
   874G12c C02116171  11.973   4.741   0.941  0.4422 -0.4629 -1.0985
   874G12c C01L16172  12.261   4.496   0.786 -0.2371  0.1599  0.7849
   874G12c O00716173  12.441   4.660   0.830 -0.0470 -0.4960 -1.7128
   874G12c C02216174  12.112   4.758   0.962 -0.1936  0.1999  0.5901
   874G12c C02316175  11.917   4.872   0.943 -1.5152 -0.3198 -0.0276
   874G12c C00G16176  11.871   5.135   0.892 -2.0326 -0.6347 -0.0237
   874G12c C00E16177  11.916   5.370   0.875 -3.1429  0.8496  1.1615
   874G12c O00A16178  11.951   5.455   0.784  0.8030  0.6065  1.5698
   874G12c C02416179  12.010   5.413   0.663  0.9566 -0.0733  0.2561
   874G12c H00V16180  12.090   5.346   0.695  0.7069 -0.4342  0.1282
   874G12c H00U16181  12.049   5.507   0.622  2.1988  0.4058  2.4216
   874G12c H00T16182  11.957   5.337   0.606 -0.8860 -1.4547  3.6674
   884G12c C00D16183   1.609   8.702   7.820  0.1347 -1.0266  0.9642
   884G12c O00B16184   1.541   8.816   7.797  0.4387 -0.9552 -0.3090
   884G12c C02516185   1.513   8.921   7.892 -1.0431 -0.4448 -1.7665
   884G12c C02616186   1.386   8.966   7.871  0.1412 -0.3109  1.0588
   884G12c H00Y16187   1.337   9.037   7.938 -5.2048 -3.5150  0.7676
   884G12c H00X16188   1.336   8.870   7.882  0.4333 -0.4040  1.5949
   884G12c O00C16189   1.385   8.997   7.738  0.7287  1.0874  0.1370
   884G12c H00W16190   1.320   9.065   7.744  2.7924  2.9114  5.4106
   884G12c C02716191   1.597   8.949   7.991  0.4801 -0.2542  1.1237
   884G12c O00D16192   1.714   8.884   8.024  0.3384 -0.8526  1.3340
   884G12c H00Z16193   1.781   8.950   8.033  2.9283 -2.7149 -2.8516
   884G12c C02816194   1.569   9.061   8.090  0.8648 -0.6812  0.0965
   884G12c C02916195   1.635   9.041   8.223  0.9631 -1.0510 -0.3073
   884G12c H01016196   1.648   8.945   8.271  4.5117  0.2427  1.5029
   884G12c C02T16197   1.596   9.121   8.322  0.4802  0.8130  0.2436
   884G12c H01O16198   1.635   9.089   8.418  1.7474  3.9900  0.8368
   884G12c C02S16199   1.514   9.239   8.304 -0.8056 -0.6399  0.3505
   884G12c O00J16200   1.488   9.327   8.410  0.2597  1.0972 -0.1180
   884G12c H01P16201   1.498   9.407   8.360 -2.0127  5.2605  5.5309
   884G12c C02R16202   1.479   9.290   8.175  0.9069  0.8521  0.7505
   884G12c O00I16203   1.438   9.428   8.163  1.0183  1.2291 -0.5535
   884G12c C02Q16204   1.336   9.469   8.068  1.0044 -0.4733  1.1596
   884G12c H01N16205   1.307   9.393   7.995 -1.0113  1.3869 -0.0178
   884G12c H01R16206   1.373   9.559   8.018 -2.1891  2.1234  3.2605
   884G12c H01Q16207   1.252   9.527   8.107  1.0532  2.8561 -3.2123
   884G12c C02A16208   1.499   9.185   8.073 -0.7254  1.2084 -0.5295
   884G12c H01116209   1.499   9.217   7.970 -1.9009  3.0120  0.0174
   884G12c C00C16210   1.563   8.605   7.908  0.3161 -0.5656 -0.4033
   884G12c H01216211   1.502   8.655   7.982  1.1151  2.1744 -1.4926
   884G12c C00B16212   1.627   8.477   7.888  0.7862 -0.0646 -0.5453
   884G12c C00A16213   1.608   8.364   7.976 -1.4695  1.9347  0.8081
   884G12c C00916214   1.571   8.362   8.118 -1.0815 -0.9316  0.3785
   884G12c C00816215   1.541   8.471   8.206 -0.4628  1.0734  0.4801
   884G12c H01316216   1.529   8.577   8.193 -1.4099  0.3654 -5.8478
   884G12c C00716217   1.547   8.433   8.352 -1.2893 -0.9167  0.8867
   884G12c H01416218   1.533   8.503   8.433 -3.9605 -0.0019 -0.3125
   884G12c C00616219   1.607   8.307   8.399 -1.1335 -2.3764 -1.2028
   884G12c C00516220   1.615   8.202   8.303  0.0043  0.1822 -0.1096
   884G12c C00416221   1.678   8.082   8.330 -0.3198  1.0345 -1.1156
   884G12c C00316222   1.746   8.012   8.224 -1.3781 -0.2390  0.0832
   884G12c C00216223   1.843   7.913   8.269 -0.2268 -0.5636  0.5505
   884G12c C00116224   1.955   7.852   8.207  0.6999 -0.2512  0.0270
   884G12c C00M16225   2.037   7.886   8.088  0.5679 -0.4300 -1.1534
   884G12c C00L16226   1.977   7.954   7.974 -0.4813 -0.9785  0.5334
   884G12c C00R16227   2.062   8.016   7.874 -0.0876  0.2286  0.2451
   884G12c C00Q16228   2.210   8.048   7.874 -0.2355  0.2100  0.7579
   884G12c C00V16229   2.257   8.144   7.774  0.8239  1.1470  0.1624
   884G12c C00U16230   2.163   8.229   7.700 -0.9888  1.4802 -1.0804
   884G12c C00T16231   2.036   8.223   7.741 -1.7837  0.8848 -0.9262
   884G12c C01616232   1.941   8.330   7.727 -0.2573  1.4755  1.0090
   884G12c C01516233   1.972   8.423   7.624  1.7869  0.6480 -1.3506
   884G12c C01016234   2.091   8.415   7.558 -0.9204  0.1091  1.1850
   884G12c C01116235   2.099   8.485   7.438 -0.3069  1.6069 -0.9243
   884G12c H00516236   2.179   8.461   7.370  3.0635  6.4752  1.0282
   884G12c C01216237   2.010   8.586   7.416 -0.6238  0.0515  1.6681
   884G12c C01716238   2.041   8.640   7.280  1.8239 -0.9829  0.1228
   884G12c O00216239   1.933   8.661   7.188 -0.1469 -1.5879 -0.3863
   884G12c H00416240   1.958   8.695   7.104 -0.5203  6.6450  2.4416
   884G12c C01816241   2.179   8.690   7.247  0.2560  1.5089  1.1113
   884G12c O00116242   2.285   8.720   7.326  1.0693  0.4547  0.4935
   884G12c H00316243   2.334   8.767   7.261 -3.8666  3.7116 -1.1381
   884G12c C01916244   2.218   8.764   7.123 -0.3599 -0.8097 -0.5310
   884G12c H00216245   2.259   8.690   7.054 -5.9651 -0.7674 -4.2021
   884G12c H00116246   2.125   8.811   7.090  0.9975  2.5271  0.2010
   884G12c O00016247   2.312   8.858   7.123 -1.0599  0.3419  0.8784
   884G12c C01A16248   2.286   8.973   7.034  1.7425 -0.4908 -0.3645
   884G12c C02K16249   2.303   8.952   6.897  1.6469 -2.3919 -1.4876
   884G12c O00G16250   2.360   8.834   6.861 -0.0889 -0.0171  1.4029
   884G12c C02M16251   2.497   8.807   6.915 -0.8570  0.7514  2.1993
   884G12c H01G16252   2.484   8.709   6.868 -0.6175  0.6400  2.3649
   884G12c H01F16253   2.594   8.825   6.869 -2.3549  3.6460 -0.0280
   884G12c H01E16254   2.510   8.769   7.016  1.9098 -0.9592  1.2776
   884G12c C02J16255   2.235   9.027   6.795 -0.8488 -0.6876  0.8284
   884G12c H01H16256   2.248   8.971   6.704  6.2758  1.1872  0.3580
   884G12c C02I16257   2.158   9.143   6.836  0.6152 -2.5601 -0.8571
   884G12c C02N16258   2.092   9.229   6.755 -0.4709 -0.5665  1.6329
   884G12c H01M16259   2.104   9.273   6.657 -2.2814 -3.4045  0.0468
   884G12c C02O16260   1.958   9.223   6.762 -0.5335  1.4369 -1.0903
   884G12c H01L16261   1.912   9.177   6.848  0.1814 -0.1931 -1.5559
   884G12c C02P16262   1.840   9.266   6.666 -0.7327 -0.7009 -0.1976
   884G12c H01K16263   1.884   9.317   6.580 -3.6689 -0.7716 -1.7997
   884G12c H01J16264   1.800   9.175   6.621  3.0279 -2.7413  0.3928
   884G12c O00H16265   1.733   9.348   6.699  0.1733  0.4024  1.4125
   884G12c H01I16266   1.650   9.319   6.665 -0.9370  5.0163 -0.2373
   884G12c C02H16267   2.160   9.165   6.983 -1.2942  0.6424 -0.1417
   884G12c H01C16268   2.120   9.259   7.016 -1.0025  0.3061  1.2398
   884G12c C02L16269   2.233   9.100   7.077  0.0411  0.0416 -0.1424
   884G12c H01D16270   2.244   9.117   7.184 -7.7688  1.8816  0.6574
   884G12c C01316271   1.902   8.616   7.494  0.6847  1.6936  0.1895
   884G12c H00016272   1.837   8.695   7.458  0.7318  0.6126 -2.3638
   884G12c C01416273   1.880   8.531   7.615 -0.7461  0.3391 -1.0582
   884G12c C00F16274   1.788   8.549   7.708 -0.0107  1.1835 -0.5549
   884G12c C00H16275   1.814   8.335   7.790  0.5485 -0.6793  0.3276
   884G12c C00I16276   1.791   8.223   7.870  0.7788 -0.2491 -0.0572
   884G12c C00J16277   1.855   8.103   7.864 -1.7476 -2.6602  1.5694
   884G12c C00Z16278   2.190   8.322   7.598 -1.9021  1.4493  0.0499
   884G12c C00Y16279   2.316   8.328   7.557 -1.0035  1.1125  0.6524
   884G12c H00616280   2.354   8.394   7.479  9.9602  1.3194  5.3180
   884G12c C00X16281   2.414   8.255   7.627  0.6383 -0.0029 -0.3944
   884G12c O00316282   2.553   8.245   7.603  0.4130 -0.3755 -0.5887
   884G12c C01B16283   2.604   8.353   7.534 -0.8061  0.3343  0.3212
   884G12c H00916284   2.578   8.450   7.576  4.2436  1.4245  1.2411
   884G12c H00816285   2.712   8.364   7.526  0.2439 -4.0389  5.5683
   884G12c H00716286   2.606   8.335   7.427  0.1148  2.1507  0.0105
   884G12c C00W16287   2.382   8.171   7.738 -0.3143 -1.3917 -1.7952
   884G12c O00416288   2.481   8.135   7.810 -1.1391 -0.1336  1.8081
   884G12c C01C16289   2.453   8.055   7.920 -0.2443 -0.5159 -0.9511
   884G12c H00A16290   2.517   8.086   8.001 -1.7164-10.1128  4.6619
   884G12c C00P16291   2.321   7.993   7.949  0.5700  2.0979  1.6636
   884G12c C00O16292   2.310   7.908   8.069  2.2536  0.8739  0.7321
   884G12c C01D16293   2.424   7.874   8.135 -0.1809 -0.9512 -0.9384
   884G12c H00S16294   2.517   7.872   8.080  0.6860 -2.3806  0.5400
   884G12c C01E16295   2.409   7.856   8.280 -1.7369 -1.4832 -1.8815
   884G12c O00816296   2.530   7.871   8.354 -1.2940 -0.0296 -0.5937
   884G12c C01V16297   2.583   7.987   8.395 -0.4984  0.2739  1.5959
   884G12c C01Z16298   2.633   7.945   8.545  1.3441 -0.0931  0.9192
   884G12c H00R16299   2.671   7.843   8.538 -3.0118 -2.1780  4.5982
   884G12c H00Q16300   2.711   8.003   8.594 -0.0014  4.1757 -1.7031
   884G12c O00916301   2.536   7.961   8.652  0.2140  0.5465  1.6228
   884G12c H00P16302   2.496   8.046   8.644 -1.7541 -0.4746  0.3326
   884G12c C01W16303   2.613   8.096   8.323 -1.6670  1.1093  0.9929
   884G12c H00O16304   2.592   8.079   8.219 -0.3022  3.4132  0.3267
   884G12c C01X16305   2.675   8.237   8.352  0.9815 -0.2750  1.0478
   884G12c H00N16306   2.633   8.307   8.281  6.3009 -1.2291 -3.4207
   884G12c H00M16307   2.620   8.276   8.438 -7.3185  0.4366 -4.0247
   884G12c C01Y16308   2.814   8.238   8.355  0.4207 -0.1483 -1.0783
   884G12c C02D16309   2.893   8.249   8.462  0.2545  0.1255  0.2661
   884G12c H01916310   2.838   8.249   8.555 -7.2035  3.6839 -3.6774
   884G12c C02C16311   3.035   8.259   8.472 -0.5969  1.2906  1.9180
   884G12c H01A16312   3.087   8.231   8.562  3.2294 -3.7179 -1.4863
   884G12c C02B16313   3.106   8.270   8.350  1.0924 -1.7371 -0.8279
   884G12c O00E16314   3.228   8.322   8.374 -0.7931  0.4075 -1.2566
   884G12c H01B16315   3.259   8.373   8.300 -2.6655  2.3103 -0.7619
   884G12c C02F16316   3.024   8.277   8.225 -0.8061  1.2736 -0.3243
   884G12c O00F16317   3.083   8.323   8.122  0.4583 -0.4877  0.9510
   884G12c C02G16318   3.160   8.239   8.047  1.0281  0.0235  0.9495
   884G12c H01716319   3.086   8.202   7.976  3.8367 -0.0050 -2.0870
   884G12c H01616320   3.211   8.286   7.963 -3.7197 -1.4520 -2.9924
   884G12c H01516321   3.253   8.199   8.089  4.8030  1.4827 -5.2988
   884G12c C02E16322   2.880   8.283   8.230 -1.3110  1.4941  0.4188
   884G12c H01816323   2.825   8.300   8.138 -0.1501  0.0891 -0.5583
   884G12c C01F16324   2.292   7.852   8.345 -0.6071  0.7017  0.9445
   884G12c C01G16325   2.242   7.890   8.479 -3.2170  1.3752  0.0647
   884G12c H00L16326   2.310   7.955   8.532  2.0687 -0.4329 -3.9912
   884G12c C01H16327   2.105   7.888   8.532  0.1636 -1.7590 -0.0619
   884G12c H00B16328   2.097   7.944   8.625 -5.9337 -0.8994 -0.9104
   884G12c C01I16329   2.007   7.875   8.427 -0.4748 -1.5329 -0.9922
   884G12c C01U16330   2.171   7.831   8.260  0.1591  1.4567  1.2263
   884G12c C00S16331   1.990   8.117   7.814 -0.2205  0.0502  0.0045
   884G12c C00K16332   1.856   8.035   7.994  0.1938 -1.2525 -0.5797
   884G12c C00N16333   2.179   7.877   8.132 -0.2027 -0.2860 -0.7208
   884G12c C00016334   2.035   7.802   8.303 -0.5381  0.4146 -0.8072
   884G12c C01J16335   1.864   7.901   8.408  0.6640 -0.1009 -1.1602
   884G12c C01K16336   1.780   7.956   8.516  0.3827 -1.6348 -0.2162
   884G12c C01P16337   1.798   7.941   8.652  0.4593 -0.5642 -0.1891
   884G12c C01Q16338   1.831   7.807   8.706 -2.9010 -0.3994  0.5773
   884G12c H00G16339   1.884   7.808   8.800  2.6389 -2.8971 -2.2874
   884G12c C01R16340   1.767   7.701   8.643  1.4347  0.1664 -0.5339
   884G12c H00F16341   1.685   7.737   8.582 -0.3907 -1.9688  0.5871
   884G12c C01S16342   1.770   7.562   8.697 -0.2682  0.3514  2.4649
   884G12c H00E16343   1.667   7.534   8.720 -0.3620 -2.5872 -1.1297
   884G12c H00D16344   1.800   7.486   8.626 -0.8326  4.3774 -2.3807
   884G12c O00516345   1.857   7.549   8.808  1.1627 -0.2680  0.0495
   884G12c H00C16346   1.937   7.536   8.759 -0.9811 -1.4249 -3.3264
   884G12c C01O16347   1.734   8.007   8.748 -0.5892  1.5618  0.9164
   884G12c H00H16348   1.753   7.995   8.854 -0.9387 -2.1074  0.6256
   884G12c C01N16349   1.693   8.130   8.699 -1.2279 -0.0222 -0.2041
   884G12c O00616350   1.648   8.230   8.777  0.9449 -0.0427  1.8535
   884G12c C01T16351   1.719   8.281   8.882 -0.9419 -0.3518  0.3056
   884G12c H00K16352   1.783   8.212   8.937  6.4250  0.8499 -5.9645
   884G12c H00J16353   1.781   8.367   8.855  0.5586 -1.1814  1.0484
   884G12c H00I16354   1.656   8.335   8.953  1.3017  0.2537  1.8673
   884G12c C01M16355   1.676   8.152   8.561  0.1182 -0.1742  0.9531
   884G12c C02016356   1.751   8.066   8.089 -0.7348 -0.0472 -0.8284
   884G12c C02116357   1.631   8.153   8.066 -0.1180  1.5501  0.9668
   884G12c C01L16358   1.713   8.060   8.461  0.9689  0.4368  0.4497
   884G12c O00716359   1.630   8.281   8.532  0.2592  0.8552  0.7468
   884G12c C02216360   1.571   8.222   8.167 -0.5812 -0.8463 -0.1522
   884G12c C02316361   1.674   8.236   7.957 -1.2091  0.0138  0.7161
   884G12c C00G16362   1.746   8.446   7.794  0.8092  1.0821 -0.8162
   884G12c C00E16363   1.714   8.676   7.730 -2.2378 -0.8996 -0.0352
   884G12c O00A16364   1.747   8.782   7.651 -0.2067 -0.3487  0.9370
   884G12c C02416365   1.839   8.884   7.710  0.3413  0.6708 -1.2151
   884G12c H00V16366   1.786   8.929   7.794  1.5522 -1.3447  0.6693
   884G12c H00U16367   1.934   8.852   7.752 -0.9913 -2.6983 -0.5865
   884G12c H00T16368   1.858   8.962   7.636  4.9922  4.6794  3.8066
   894G12c C00D16369   3.931  12.715  12.804  0.2108 -2.7297  0.2781
   894G12c O00B16370   3.861  12.589  12.807 -0.6072 -0.4782  0.7004
   894G12c C02516371   3.810  12.543  12.933  1.5362 -0.5104 -0.5915
   894G12c C02616372   3.902  12.541  13.063 -0.5786  0.7207 -0.5430
   894G12c H00Y16373   3.931  12.639  13.101  0.4889  1.1924 -2.4715
   894G12c H00X16374   3.995  12.498  13.025  2.8299  6.0368  1.2156
   894G12c O00C16375   3.845  12.468  13.162  0.9978  0.4420 -1.2215
   894G12c H00W16376   3.773  12.428  13.116 -0.3907  3.3119 -1.6529
   894G12c C02716377   3.679  12.489  12.923  1.0730 -0.1860 -0.7663
   894G12c O00D16378   3.600  12.509  12.806  0.5458  0.4198 -1.5173
   894G12c H00Z16379   3.630  12.580  12.751 -3.0234 -1.2474 -5.8376
   894G12c C02816380   3.608  12.430  13.031  1.1520  0.5589 -1.0557
   894G12c C02916381   3.527  12.320  13.000 -1.7732 -0.2995  0.7609
   894G12c H01016382   3.517  12.307  12.893  2.7428  2.8847 -0.2146
   894G12c C02T16383   3.420  12.284  13.090 -0.8727  1.0209 -0.2124
   894G12c H01O16384   3.367  12.211  13.031  3.0217  1.2649 -4.2862
   894G12c C02S16385   3.421  12.335  13.220 -0.1430 -2.1059  0.5077
   894G12c O00J16386   3.323  12.287  13.309  0.2679 -0.6575  1.2612
   894G12c H01P16387   3.284  12.363  13.349 -1.0740  0.8473 -2.5852
   894G12c C02R16388   3.513  12.440  13.254 -0.6318  0.4078  0.4209
   894G12c O00I16389   3.513  12.480  13.394  0.8633  0.2221  0.1161
   894G12c C02Q16390   3.629  12.428  13.443 -0.0572 -0.5379 -0.2773
   894G12c H01N16391   3.695  12.358  13.391 -1.3759 -2.4975  0.6074
   894G12c H01R16392   3.597  12.400  13.544  5.0530 -5.5226  0.2281
   894G12c H01Q16393   3.705  12.491  13.488  0.2877 -0.7943 -0.4933
   894G12c C02A16394   3.593  12.493  13.159 -0.0899  0.8841 -1.2756
   894G12c H01116395   3.642  12.584  13.190  1.1245 -0.3168  0.3276
   894G12c C00C16396   3.893  12.810  12.897  0.6864  0.3089  1.2612
   894G12c H01216397   3.809  12.789  12.961  3.4715  1.7714  5.5992
   894G12c C00B16398   3.963  12.918  12.916 -0.8813  0.6511  0.3117
   894G12c C00A16399   3.950  13.012  13.020  0.2057 -0.3056  0.2943
   894G12c C00916400   3.826  13.070  13.097  0.2857 -0.2658 -0.9883
   894G12c C00816401   3.696  13.047  13.068  1.6688  1.7715  0.8372
   894G12c H01316402   3.692  12.967  12.996  1.8015 -0.9572  3.7506
   894G12c C00716403   3.607  13.154  13.075 -1.1273 -0.0748  0.9664
   894G12c H01416404   3.500  13.143  13.075 -0.8818 -3.2222  2.0074
   894G12c C00616405   3.657  13.279  13.123 -1.8299  1.2577 -1.0252
   894G12c C00516406   3.791  13.296  13.149  0.0901  0.6911  1.3964
   894G12c C00416407   3.854  13.429  13.144 -0.2539 -1.0594 -1.8849
   894G12c C00316408   3.990  13.440  13.144  0.2758 -0.9452 -0.6830
   894G12c C00216409   4.039  13.580  13.127 -0.5210 -0.4898 -0.2989
   894G12c C00116410   4.170  13.636  13.122  2.3323 -1.0967  0.5162
   894G12c C00M16411   4.281  13.585  13.055 -0.7151 -1.2876  0.4992
   894G12c C00L16412   4.286  13.458  13.008 -0.2911 -0.6165  2.0866
   894G12c C00R16413   4.337  13.420  12.888  1.9381 -1.5237 -0.6983
   894G12c C00Q16414   4.435  13.477  12.791 -0.0931 -0.3945  0.2078
   894G12c C00V16415   4.480  13.388  12.692 -0.0863 -0.0386  1.1404
   894G12c C00U16416   4.431  13.265  12.677  1.3220  0.3989  0.9826
   894G12c C00T16417   4.346  13.207  12.774  2.0383 -0.6017 -0.4650
   894G12c C01616418   4.260  13.096  12.758 -0.2529  1.0560 -1.6531
   894G12c C01516419   4.272  13.033  12.632  0.2727 -0.0371 -2.1929
   894G12c C01016420   4.359  13.088  12.535  1.0336 -1.5930 -1.2213
   894G12c C01116421   4.383  13.011  12.409 -0.2662  0.9491  0.2184
   894G12c H00516422   4.436  13.058  12.327 -0.1377  1.5205  0.6282
   894G12c C01216423   4.300  12.895  12.386 -0.2373 -0.0696  0.4360
   894G12c C01716424   4.289  12.834  12.257  1.7010 -1.1310  0.0947
   894G12c O00216425   4.225  12.900  12.160 -0.0307  0.5955 -0.3620
   894G12c H00416426   4.243  12.992  12.157  3.5008  0.2710  4.3387
   894G12c C01816427   4.331  12.713  12.234 -1.1158 -2.0964  0.9643
   894G12c O00116428   4.378  12.640  12.333  0.2563  0.2681 -1.5465
   894G12c H00316429   4.336  12.640  12.418  1.3431 -0.2480 -0.9974
   894G12c C01916430   4.326  12.631  12.094 -0.3881 -0.6166 -0.2277
   894G12c H00216431   4.352  12.525  12.094  7.9779  0.9249 -6.0420
   894G12c H00116432   4.247  12.672  12.032 -1.0750  0.4463  1.3158
   894G12c O00016433   4.460  12.658  12.059  0.9350 -1.3543  1.4413
   894G12c C01A16434   4.516  12.636  11.931 -0.8050  0.6808  0.5888
   894G12c C02K16435   4.460  12.625  11.804  0.8308 -0.5522 -0.3564
   894G12c O00G16436   4.326  12.601  11.808  0.4794 -0.4347 -0.1400
   894G12c C02M16437   4.261  12.549  11.689 -0.0229  0.7892 -0.4826
   894G12c H01G16438   4.267  12.619  11.606  3.5851 -0.6687 -1.5799
   894G12c H01F16439   4.153  12.551  11.703  0.3649 -1.6531  3.9991
   894G12c H01E16440   4.319  12.465  11.651  2.8184  2.9991 -1.2406
   894G12c C02J16441   4.536  12.605  11.679 -1.4106  0.1667  0.3482
   894G12c H01H16442   4.498  12.570  11.585 -2.7674  2.4562  0.0230
   894G12c C02I16443   4.673  12.614  11.700 -0.4002  0.0696 -0.4713
   894G12c C02N16444   4.738  12.578  11.576  0.9015 -0.2053  1.3387
   894G12c H01M16445   4.741  12.647  11.493  1.3119 -1.0053  0.6780
   894G12c C02O16446   4.743  12.453  11.523  0.6992  0.2348  0.3982
   894G12c H01L16447   4.694  12.392  11.598 -1.9322 -2.4597 -3.3309
   894G12c C02P16448   4.744  12.422  11.378 -0.3313 -1.0299  0.4980
   894G12c H01K16449   4.775  12.511  11.324 -3.3549 -0.4345 -0.3383
   894G12c H01J16450   4.775  12.331  11.326  3.1745  1.9235 -2.8515
   894G12c O00H16451   4.602  12.398  11.333 -0.2271 -0.7858  1.4330
   894G12c H01I16452   4.575  12.484  11.305 -1.6131 -3.3735 -6.4485
   894G12c C02H16453   4.724  12.591  11.829  0.5851 -0.3544  0.1465
   894G12c H01C16454   4.824  12.553  11.835 -0.0933 -1.7649  4.0807
   894G12c C02L16455   4.655  12.596  11.964 -0.0521  1.7256  1.0681
   894G12c H01D16456   4.709  12.586  12.057 -1.3703  3.0934  2.0162
   894G12c C01316457   4.218  12.855  12.480 -0.1803 -0.2833  2.9111
   894G12c H00016458   4.153  12.779  12.439  0.5881  2.0783 -3.0923
   894G12c C01416459   4.194  12.916  12.601 -0.6970 -0.4335  0.1089
   894G12c C00F16460   4.107  12.871  12.706 -1.1634 -0.1604  0.0538
   894G12c C00H16461   4.178  13.055  12.853  0.0856  0.9266 -1.3022
   894G12c C00I16462   4.173  13.116  12.984  0.2909 -2.7396 -0.4053
   894G12c C00J16463   4.244  13.243  12.984  1.1771  0.6725  0.5465
   894G12c C00Z16464   4.440  13.195  12.565 -0.8395 -0.9027 -0.9979
   894G12c C00Y16465   4.540  13.240  12.476 -1.0169  2.1831 -0.8556
   894G12c H00616466   4.585  13.173  12.404  1.6329  2.3623  0.5340
   894G12c C00X16467   4.602  13.367  12.488  0.0549  0.1394 -0.7303
   894G12c O00316468   4.705  13.403  12.406  0.5598  0.4231  0.9466
   894G12c C01B16469   4.794  13.510  12.440 -0.0358  0.8117 -0.4476
   894G12c H00916470   4.820  13.522  12.334  0.1083 -1.8938 -0.7692
   894G12c H00816471   4.890  13.496  12.490  1.1177  6.1606 -0.8872
   894G12c H00716472   4.755  13.611  12.448 -2.1197 -0.3175  8.0357
   894G12c C00W16473   4.576  13.432  12.606  0.3104  0.3644 -0.7963
   894G12c O00416474   4.658  13.535  12.647 -1.3715 -0.3876 -1.5304
   894G12c C01C16475   4.574  13.643  12.672 -0.1862  0.6728  0.3660
   894G12c H00A16476   4.611  13.742  12.650  9.5178 -2.6673 -0.7260
   894G12c C00P16477   4.474  13.619  12.767  1.0440  0.2696 -0.4864
   894G12c C00O16478   4.402  13.719  12.839  1.6219 -0.9207 -0.0181
   894G12c C01D16479   4.401  13.840  12.773 -0.3398  2.8951 -1.5114
   894G12c H00S16480   4.455  13.874  12.686  2.5703 -1.0312 -1.3645
   894G12c C01E16481   4.285  13.929  12.780  0.5888  0.4441 -0.0812
   894G12c O00816482   4.254  13.999  12.661  0.2767  0.8195  0.2263
   894G12c C01V16483   4.360  14.018  12.560  1.2997  1.4221  1.8162
   894G12c C01Z16484   4.453  14.137  12.566  0.6388 -0.1514 -0.5736
   894G12c H00R16485   4.404  14.234  12.572 -1.7453 -1.4233  1.3284
   894G12c H00Q16486   4.451  14.149  12.674 -5.0927 -1.3082 -0.3816
   894G12c O00916487   4.575  14.125  12.512 -0.0177  1.7722  1.3846
   894G12c H00P16488   4.640  14.131  12.581 -0.7787 -1.9094  2.5418
   894G12c C01W16489   4.333  13.944  12.447 -1.6657  1.4143 -1.0508
   894G12c H00O16490   4.263  13.863  12.442  4.6977 -4.8364  2.2422
   894G12c C01X16491   4.413  13.964  12.307  0.2684 -1.8756  0.5844
   894G12c H00N16492   4.516  13.986  12.336 -0.8483  0.5157  3.0264
   894G12c H00M16493   4.415  13.857  12.290  2.1802 -1.0886 -5.3197
   894G12c C01Y16494   4.362  14.059  12.197  0.3996 -0.0103 -0.0259
   894G12c C02D16495   4.429  14.087  12.068  0.8862  0.5596  0.5676
   894G12c H01916496   4.535  14.072  12.051  0.8809 -3.9149  3.4277
   894G12c C02C16497   4.351  14.099  11.964 -1.1788 -2.8693 -1.1089
   894G12c H01A16498   4.373  14.104  11.858 -4.4673 -0.3862 -1.7423
   894G12c C02B16499   4.210  14.129  11.977 -0.4340  0.9051  1.5950
   894G12c O00E16500   4.135  14.165  11.864  0.5890 -0.3660 -0.1205
   894G12c H01B16501   4.072  14.233  11.883 -5.4793 -5.8424  1.3063
   894G12c C02F16502   4.159  14.128  12.099 -0.5737 -0.5580 -0.1161
   894G12c O00F16503   4.039  14.179  12.121 -0.2014  0.2757  0.7660
   894G12c C02G16504   4.043  14.303  12.207  0.3918 -2.5470 -0.3716
   894G12c H01716505   4.128  14.371  12.203  3.3970 -6.0610  0.0990
   894G12c H01616506   3.960  14.365  12.175 -3.1728 -6.1730  1.3510
   894G12c H01516507   4.071  14.269  12.307 -4.5580  1.0467  2.4259
   894G12c C02E16508   4.239  14.109  12.223  1.4835  1.3484  1.2346
   894G12c H01816509   4.177  14.103  12.312  0.5577  0.4592  0.5357
   894G12c C01F16510   4.195  13.890  12.887  0.5288  0.2964  0.5577
   894G12c C01G16511   4.056  13.934  12.887  0.8620  0.1056  0.1613
   894G12c H00L16512   4.018  14.009  12.820  3.2893  6.3823  5.3332
   894G12c C01H16513   3.965  13.893  12.989 -0.7620 -1.2497  0.8097
   894G12c H00B16514   3.860  13.891  12.963  0.0893  0.7452 -3.0514
   894G12c C01I16515   4.010  13.797  13.084  0.6458  0.1400  2.2102
   894G12c C01U16516   4.230  13.801  12.991  0.1923 -0.7003  1.8134
   894G12c C00S16517   4.327  13.281  12.887  1.5982  0.7078 -2.0448
   894G12c C00K16518   4.207  13.351  13.060 -0.1418 -1.5111  1.3546
   894G12c C00N16519   4.316  13.696  12.958  0.3676  0.3357  0.6519
   894G12c C00016520   4.144  13.768  13.086 -0.0878 -2.9353  0.3975
   894G12c C01J16521   3.938  13.681  13.139  0.4574  0.2613  1.1727
   894G12c C01K16522   3.795  13.684  13.152 -0.6957  1.1598 -1.0795
   894G12c C01P16523   3.697  13.775  13.164  0.7450 -1.1627 -0.1163
   894G12c C01Q16524   3.716  13.907  13.183  0.2940  1.5025 -0.3917
   894G12c H00G16525   3.698  13.985  13.110 -0.8399  2.1073  0.5148
   894G12c C01R16526   3.761  13.954  13.299 -0.4984  0.7338 -2.2269
   894G12c H00F16527   3.733  13.888  13.379  6.0200  3.8214  3.0510
   894G12c C01S16528   3.816  14.092  13.321  0.4224 -0.6531 -1.8966
   894G12c H00E16529   3.812  14.109  13.428 -0.1085 -0.9614 -1.8678
   894G12c H00D16530   3.904  14.092  13.256  1.7776  6.2280 -0.4698
   894G12c O00516531   3.742  14.213  13.285  0.0002 -0.5836 -0.1361
   894G12c H00C16532   3.715  14.258  13.364 -5.0907  0.1735 -2.1444
   894G12c C01O16533   3.560  13.738  13.184  0.7207 -0.2155  2.5375
   894G12c H00H16534   3.483  13.814  13.187 -0.2989 -1.2420  8.6465
   894G12c C01N16535   3.534  13.601  13.202 -0.5114  1.8822 -1.0791
   894G12c O00616536   3.410  13.545  13.192 -0.3389 -0.0120  0.8542
   894G12c C01T16537   3.310  13.607  13.111  1.6412 -0.6988 -0.2773
   894G12c H00K16538   3.238  13.576  13.036  1.4301 -1.9278  0.4169
   894G12c H00J16539   3.292  13.694  13.174  2.4349 -2.3245  2.2811
   894G12c H00I16540   3.350  13.675  13.036 10.4227  0.2348  4.6044
   894G12c C01M16541   3.625  13.495  13.186 -0.0396 -1.2131  0.1046
   894G12c C02016542   4.076  13.328  13.118  0.5309  0.8163 -0.6069
   894G12c C02116543   4.016  13.196  13.144 -1.6166 -0.6020  0.0463
   894G12c C01L16544   3.769  13.541  13.166  0.3363  0.8926 -1.0451
   894G12c O00716545   3.576  13.371  13.166 -0.2838  0.1292 -0.5499
   894G12c C02216546   3.878  13.196  13.146  0.1721  0.2172 -0.1881
   894G12c C02316547   4.058  13.087  13.070 -4.2173  0.3744  1.3531
   894G12c C00G16548   4.079  12.952  12.827 -0.1994  1.1289  0.0220
   894G12c C00E16549   4.043  12.750  12.706  0.5318  1.4969  1.6272
   894G12c O00A16550   4.114  12.649  12.638 -0.2627 -0.1170 -0.0746
   894G12c C02416551   4.169  12.572  12.725  0.9655  0.3715  0.3923
   894G12c H00V16552   4.093  12.534  12.794 -4.4454  2.3244 -4.1287
   894G12c H00U16553   4.244  12.607  12.795  2.2094  0.9271 -1.1965
   894G12c H00T16554   4.176  12.467  12.695 -0.7315  0.6724 -1.1281
   904G12c C00D16555  11.961   2.097  11.156  1.3108 -2.3411  1.6654
   904G12c O00B16556  11.969   2.066  11.302 -1.4827  0.4400 -0.6871
   904G12c C02516557  12.061   1.983  11.344 -0.8091  1.7768 -1.8627
   904G12c C02616558  12.035   1.836  11.331  0.0647 -0.3145  2.1708
   904G12c H00Y16559  11.932   1.843  11.364 -0.6780 -2.9326  0.5374
   904G12c H00X16560  12.095   1.759  11.379  3.9169  3.1536  3.2246
   904G12c O00C16561  12.053   1.802  11.199 -0.4031 -1.3204 -0.2928
   904G12c H00W16562  11.991   1.735  11.179 -4.5955  1.0363  3.7770
   904G12c C02716563  12.191   2.017  11.368  1.8121  0.0658 -0.2158
   904G12c O00D16564  12.227   2.136  11.429  0.1995 -0.0859  0.6792
   904G12c H00Z16565  12.306   2.135  11.481  1.1357 -0.6987 -0.7453
   904G12c C02816566  12.286   1.916  11.370  0.0359  0.9293  0.7793
   904G12c C02916567  12.323   1.826  11.462 -0.6290 -0.2553  0.4795
   904G12c H01016568  12.284   1.831  11.562  1.5333 -0.8706  1.3693
   904G12c C02T16569  12.383   1.712  11.425  0.5524  1.0614 -0.4433
   904G12c H01O16570  12.405   1.650  11.510 -0.2362  2.6665  0.9521
   904G12c C02S16571  12.414   1.672  11.287  1.6866  0.0026 -1.2882
   904G12c O00J16572  12.487   1.554  11.252  1.0043 -0.8030 -1.3457
   904G12c H01P16573  12.556   1.513  11.303  2.1110 -4.2943 -5.3640
   904G12c C02R16574  12.395   1.766  11.189 -0.4278 -0.4101 -0.9082
   904G12c O00I16575  12.445   1.733  11.056  0.8629 -0.4298  0.5774
   904G12c C02Q16576  12.416   1.804  10.914 -0.4305  1.0209 -0.9372
   904G12c H01N16577  12.333   1.783  10.847 -1.2483 -5.5315  1.7283
   904G12c H01R16578  12.485   1.754  10.846  6.3961  4.3303  2.9449
   904G12c H01Q16579  12.462   1.903  10.915 -3.2738  2.3680 -1.1942
   904G12c C02A16580  12.332   1.896  11.229 -1.3652 -0.0389  1.0148
   904G12c H01116581  12.368   1.972  11.161 -5.4810  0.2760 -1.0089
   904G12c C00C16582  12.079   2.109  11.096 -0.5352  0.2493 -1.0975
   904G12c H01216583  12.179   2.105  11.137 -0.2205  3.8391 -1.3084
   904G12c C00B16584  12.089   2.127  10.956  1.0408 -0.4840 -0.6257
   904G12c C00A16585  12.219   2.104  10.876 -1.3793  0.2504  0.8759
   904G12c C00916586  12.342   2.176  10.909 -0.1941  0.5026 -0.2948
   904G12c C00816587  12.389   2.240  11.020 -1.1898 -0.1780  0.0096
   904G12c H01316588  12.322   2.246  11.105 -3.3365 -1.3250 -1.5470
   904G12c C00716589  12.528   2.306  11.006  0.6149 -0.0263 -0.6047
   904G12c H01416590  12.576   2.378  11.070 -1.4676  0.5424  0.3608
   904G12c C00616591  12.572   2.332  10.880 -0.6320  3.1197  0.6907
   904G12c C00516592  12.512   2.269  10.772 -0.3318 -0.1447 -0.0108
   904G12c C00416593  12.514   2.324  10.646  2.5016  0.9133  2.5872
   904G12c C00316594  12.416   2.278  10.539  0.4982  0.5492  1.0583
   904G12c C00216595  12.437   2.336  10.401 -0.7022  0.9959 -1.1860
   904G12c C00116596  12.381   2.316  10.270  0.7025  0.8706  1.3458
   904G12c C00M16597  12.236   2.305  10.245 -0.9888  1.8525 -0.3817
   904G12c C00L16598  12.158   2.235  10.330 -0.2181  0.8276  1.9450
   904G12c C00R16599  12.009   2.226  10.325 -1.3422 -0.3104 -0.8819
   904G12c C00Q16600  11.917   2.304  10.264 -0.6321  0.9706  0.4840
   904G12c C00V16601  11.788   2.305  10.318  0.1311 -0.6542 -0.9430
   904G12c C00U16602  11.763   2.255  10.450 -0.7091 -2.0595 -0.0150
   904G12c C00T16603  11.859   2.201  10.526 -0.2565  0.7904  1.0055
   904G12c C01616604  11.864   2.181  10.656 -0.5445 -0.4448 -0.4238
   904G12c C01516605  11.748   2.222  10.722 -2.1585  0.0267 -0.3267
   904G12c C01016606  11.639   2.268  10.646  0.9004  0.3601 -1.2114
   904G12c C01116607  11.521   2.315  10.718 -0.1734 -0.2733 -0.7064
   904G12c H00516608  11.458   2.389  10.671  1.8479 -0.3254 -3.6396
   904G12c C01216609  11.495   2.254  10.849  0.5018 -1.3167 -0.0148
   904G12c C01716610  11.369   2.295  10.902 -0.0038  1.7407  0.5845
   904G12c O00216611  11.350   2.308  11.031 -0.7198  0.4236 -0.6892
   904G12c H00416612  11.267   2.291  11.072  1.8155 -3.2817  3.3547
   904G12c C01816613  11.256   2.293  10.830  2.0824  0.1688  0.7773
   904G12c O00116614  11.135   2.328  10.891 -1.4092 -1.5247 -0.7802
   904G12c H00316615  11.064   2.333  10.829  0.4273 -0.8310 -2.8845
   904G12c C01916616  11.215   2.256  10.677 -0.9712 -0.2875  0.4985
   904G12c H00216617  11.306   2.209  10.638 -1.3480 -4.1585  3.9435
   904G12c H00116618  11.145   2.181  10.713  2.4511 -2.0180  3.9516
   904G12c O00016619  11.170   2.349  10.579  0.4403 -0.9720  0.0022
   904G12c C01A16620  11.066   2.321  10.479 -2.0271 -2.1711  0.6749
   904G12c C02K16621  10.975   2.221  10.459 -0.9154  0.7555  1.4302
   904G12c O00G16622  10.940   2.160  10.580  0.0571  1.4232  0.4857
   904G12c C02M16623  10.795   2.134  10.580  0.4475 -0.0535 -0.6049
   904G12c H01G16624  10.742   2.191  10.503  4.2672 -0.6140 -3.8152
   904G12c H01F16625  10.739   2.149  10.672 -0.1405  1.6208 -1.2175
   904G12c H01E16626  10.782   2.038  10.531 -2.0625  2.0578 -4.3884
   904G12c C02J16627  10.914   2.180  10.333 -0.6521 -0.8424  2.2563
   904G12c H01H16628  10.863   2.089  10.306 -1.5762 -0.8014  3.8379
   904G12c C02I16629  10.928   2.285  10.228  1.0281 -1.3282  0.5268
   904G12c C02N16630  10.869   2.277  10.094  0.0170  1.2385  0.4262
   904G12c H01M16631  10.902   2.208  10.019  2.0085  2.2829  0.3219
   904G12c C02O16632  10.750   2.349  10.070 -0.1399  1.0534  0.0650
   904G12c H01L16633  10.703   2.327   9.976 -3.8093 -0.0872  2.0665
   904G12c C02P16634  10.680   2.483  10.124 -0.0890 -0.1820  0.4921
   904G12c H01K16635  10.577   2.455  10.144 -0.0338 -3.2091 -2.9917
   904G12c H01J16636  10.732   2.523  10.211  2.1771 -0.6175 -0.6071
   904G12c O00H16637  10.712   2.587  10.032 -1.1780 -0.2979  1.1897
   904G12c H01I16638  10.795   2.569   9.992 -1.4153 -1.0760  1.0447
   904G12c C02H16639  11.032   2.381  10.247 -0.0750 -0.8966  1.5981
   904G12c H01C16640  11.068   2.450  10.173  0.0266  6.6352  7.9957
   904G12c C02L16641  11.101   2.415  10.369  0.9362  1.3046 -0.7621
   904G12c H01D16642  11.175   2.487  10.399  1.0291  4.3400 -7.5328
   904G12c C01316643  11.607   2.221  10.923  0.6480  1.0857 -0.6327
   904G12c H00016644  11.602   2.243  11.028 -3.0400  0.5490 -0.6143
   904G12c C01416645  11.736   2.203  10.866 -0.0638 -2.6793 -0.7454
   904G12c C00F16646  11.853   2.176  10.945  0.3470  0.6275  0.0262
   904G12c C00H16647  11.976   2.152  10.735 -0.6873  0.6943  0.5431
   904G12c C00I16648  12.102   2.136  10.665  2.1707  0.2863 -0.5529
   904G12c C00J16649  12.100   2.161  10.521  0.5122 -0.3527  0.2959
   904G12c C00Z16650  11.660   2.296  10.509 -0.0904 -0.4741 -0.8575
   904G12c C00Y16651  11.544   2.342  10.429 -1.2489 -0.4783  1.4139
   904G12c H00616652  11.449   2.348  10.479 -1.3577  1.3557  1.0446
   904G12c C00X16653  11.561   2.372  10.291 -0.2667 -0.2639  0.2341
   904G12c O00316654  11.462   2.398  10.216 -0.2282  0.0081 -0.5391
   904G12c C01B16655  11.448   2.323  10.099 -1.5329  0.0035  0.1969
   904G12c H00916656  11.398   2.394  10.032 -2.8717  2.2403  3.4565
   904G12c H00816657  11.366   2.252  10.107 -0.1604 -2.0237 -2.6799
   904G12c H00716658  11.498   2.239  10.051 -0.1573 -0.0871  1.7612
   904G12c C00W16659  11.692   2.363  10.239  0.4002  0.8558  1.2461
   904G12c O00416660  11.723   2.432  10.123 -0.5019 -1.7717  0.6478
   904G12c C01C16661  11.832   2.504  10.130  1.3642 -0.1063 -0.0657
   904G12c H00A16662  11.801   2.606  10.143  1.9991 -0.4872  5.3516
   904G12c C00P16663  11.946   2.417  10.168  0.6859 -1.2854 -1.0368
   904G12c C00O16664  12.075   2.455  10.126  0.9230  0.1729  0.4045
   904G12c C01D16665  12.079   2.581  10.041 -0.2621 -0.0061  1.4008
   904G12c H00S16666  12.010   2.602   9.961  4.6546 -3.4756 -4.1829
   904G12c C01E16667  12.200   2.661  10.030  1.6921  0.1210  1.5712
   904G12c O00816668  12.181   2.810  10.019 -0.5697  0.2340 -0.7880
   904G12c C01V16669  12.260   2.876   9.927  0.0763  1.0295 -1.1803
   904G12c C01Z16670  12.211   3.030   9.937 -1.2065  1.5559 -0.1590
   904G12c H00R16671  12.158   3.051  10.030 -3.7218 -1.3133 -0.8841
   904G12c H00Q16672  12.302   3.088   9.923  1.6100 -0.4970  7.5030
   904G12c O00916673  12.108   3.053   9.840 -0.6412 -0.7121  0.5451
   904G12c H00P16674  12.036   3.001   9.873  1.4845 -5.6268 -2.0316
   904G12c C01W16675  12.366   2.817   9.851  0.2840 -1.2082  0.4323
   904G12c H00O16676  12.383   2.713   9.871  5.3880 -1.5650 -4.6036
   904G12c C01X16677  12.450   2.903   9.728 -0.0757  0.6039  0.7793
   904G12c H00N16678  12.440   3.012   9.733  6.4950  1.3969  0.4988
   904G12c H00M16679  12.554   2.874   9.742 -0.7498 -3.3443 -1.6934
   904G12c C01Y16680  12.414   2.832   9.599  1.0507  0.0321 -0.0370
   904G12c C02D16681  12.338   2.881   9.499  0.5181 -0.2888 -1.5220
   904G12c H01916682  12.317   2.987   9.500  5.0958  0.7871 -4.1880
   904G12c C02C16683  12.301   2.803   9.377 -0.3761  0.8736 -0.8685
   904G12c H01A16684  12.252   2.855   9.296 -3.0019 -0.7158 -0.3927
   904G12c C02B16685  12.349   2.666   9.374  0.3368 -1.1032 -0.9490
   904G12c O00E16686  12.328   2.601   9.272  0.2102  0.3508  0.5276
   904G12c H01B16687  12.315   2.508   9.278 -2.7483  0.7918  1.7284
   904G12c C02F16688  12.446   2.605   9.470  1.5014  1.3628  0.2834
   904G12c O00F16689  12.531   2.495   9.448  0.5083  0.2969  0.4913
   904G12c C02G16690  12.475   2.371   9.477 -1.4984  0.4885  1.1930
   904G12c H01716691  12.483   2.337   9.581 -4.5779 -0.2749  1.1985
   904G12c H01616692  12.519   2.294   9.414 -4.1091 -1.7079  1.9708
   904G12c H01516693  12.374   2.366   9.437 -0.4175  2.3841 -1.9781
   904G12c C02E16694  12.470   2.700   9.577 -1.5199  1.0226  0.4420
   904G12c H01816695  12.521   2.696   9.672 -1.4860 -2.8103  0.3175
   904G12c C01F16696  12.308   2.607  10.113  1.4761  0.7702  0.0894
   904G12c C01G16697  12.410   2.690  10.158 -0.4469  0.0365  0.6837
   904G12c H00L16698  12.379   2.792  10.139  3.0399  0.6392 -2.3974
   904G12c C01H16699  12.500   2.629  10.239  0.2242 -0.6060  0.5806
   904G12c H00B16700  12.546   2.709  10.294  0.7173 -2.8621  3.5795
   904G12c C01I16701  12.540   2.501  10.237 -2.2034  0.7227 -0.3896
   904G12c C01U16702  12.318   2.473  10.136 -0.8574  0.6838  0.1773
   904G12c C00S16703  11.976   2.170  10.454  0.7280 -0.5763 -0.7431
   904G12c C00K16704  12.209   2.197  10.467 -0.3890 -1.6739 -1.0806
   904G12c C00N16705  12.197   2.408  10.159 -1.1693  1.9481  1.4210
   904G12c C00016706  12.448   2.410  10.171 -1.0766 -1.5068  0.5472
   904G12c C01J16707  12.540   2.428  10.380  0.1716 -2.0681  0.2657
   904G12c C01K16708  12.633   2.472  10.489  0.1249  0.7861  1.2054
   904G12c C01P16709  12.722   2.568  10.485  0.4883  0.5787 -1.6654
   904G12c C01Q16710  12.735   2.683  10.403 -0.2368  1.2317 -0.2575
   904G12c H00G16711  12.717   2.782  10.442  0.4243  2.0306 -1.9331
   904G12c C01R16712  12.822   2.642  10.313  1.4064 -0.7920  0.2615
   904G12c H00F16713  12.849   2.538  10.298  8.4122  1.1695 -2.9123
   904G12c C01S16714  12.887   2.741  10.206  0.2179 -0.1471  0.6541
   904G12c H00E16715  12.996   2.740  10.211  0.1691 -3.0764  8.2285
   904G12c H00D16716  12.875   2.691  10.110 -0.9321 -1.1857  1.3391
   904G12c O00516717  12.867   2.886  10.215 -0.2134  0.8048  1.7411
   904G12c H00C16718  12.942   2.926  10.173  2.5620 -6.3035 -0.7686
   904G12c C01O16719  12.818   2.598  10.589  0.0554 -0.3208  1.2374
   904G12c H00H16720  12.904   2.662  10.573 -1.8325  1.3850 -2.6006
   904G12c C01N16721  12.793   2.544  10.711 -1.0520  0.4128 -1.9177
   904G12c O00616722  12.904   2.576  10.794 -1.4643  0.1846 -1.3055
   904G12c C01T16723  12.910   2.668  10.906  0.4157  1.0417 -1.5330
   904G12c H00K16724  12.820   2.660  10.966  2.0131 -1.1964  0.6339
   904G12c H00J16725  12.993   2.629  10.965 -3.5786 -1.2652  2.9102
   904G12c H00I16726  12.915   2.774  10.880  0.7106  1.3358 -0.2812
   904G12c C01M16727  12.684   2.464  10.735  0.1593 -0.8363 -1.4253
   904G12c C02016728  12.323   2.185  10.568 -1.7511 -0.6789  0.0997
   904G12c C02116729  12.349   2.114  10.689  0.7695 -0.9481 -0.2965
   904G12c C01L16730  12.603   2.421  10.616 -0.1399 -0.2590 -1.1295
   904G12c O00716731  12.664   2.424  10.864  1.0653 -0.1049  0.8699
   904G12c C02216732  12.425   2.170  10.797  0.0985 -0.3753 -0.3688
   904G12c C02316733  12.212   2.099  10.748 -0.7814  1.6742 -1.1518
   904G12c C00G16734  11.972   2.149  10.873 -0.8878  0.1642 -1.1116
   904G12c C00E16735  11.847   2.126  11.084  0.8008  0.5302  1.2687
   904G12c O00A16736  11.717   2.126  11.142 -1.2174  1.3803 -0.6815
   904G12c C02416737  11.668   2.000  11.163  0.2334 -0.2306 -0.4945
   904G12c H00V16738  11.568   2.023  11.201 -0.0843  0.4835 -1.7197
   904G12c H00U16739  11.704   1.946  11.251  2.3615  6.3052  3.0729
   904G12c H00T16740  11.681   1.916  11.096 -3.5241 -1.7365  0.5657
   914G12c C00D16741   3.880   1.300   4.079  0.1162  0.7567 -0.2393
   914G12c O00B16742   3.895   1.439   4.096 -0.1582 -1.0570 -0.4657
   914G12c C02516743   3.995   1.529   4.086  0.1781 -1.6691 -0.7428
   914G12c C02616744   3.950   1.636   3.997  0.6071 -0.5633 -1.2141
   914G12c H00Y16745   3.878   1.621   3.916  2.0959  6.1633 -4.1692
   914G12c H00X16746   4.029   1.692   3.948  0.1114  1.4742  0.2604
   914G12c O00C16747   3.889   1.715   4.091 -0.1093 -1.8124 -0.3016
   914G12c H00W16748   3.814   1.667   4.122  0.3626  0.1195  4.1754
   914G12c C02716749   4.100   1.550   4.170  1.1462  0.6073 -0.7735
   914G12c O00D16750   4.125   1.469   4.281  1.6532 -0.7893 -0.7632
   914G12c H00Z16751   4.135   1.380   4.250 -1.8624 -0.9282 -1.6770
   914G12c C02816752   4.194   1.639   4.116  1.0327 -0.1442 -0.2540
   914G12c C02916753   4.219   1.767   4.168  0.0205  0.1081  1.7572
   914G12c H01016754   4.193   1.789   4.271 -2.7265  4.0100  0.2872
   914G12c C02T16755   4.321   1.851   4.148  0.9518  0.2933  1.3607
   914G12c H01O16756   4.366   1.918   4.220  4.7240  8.1191 -7.1913
   914G12c C02S16757   4.379   1.825   4.031  0.7667 -1.3306 -0.1908
   914G12c O00J16758   4.486   1.903   3.991  1.9819  0.7863 -0.0608
   914G12c H01P16759   4.526   1.823   3.961  1.4086  0.7002 -0.6102
   914G12c C02R16760   4.365   1.718   3.963  0.8770  0.3976 -0.6579
   914G12c O00I16761   4.440   1.716   3.840  1.3206  0.1844 -0.4051
   914G12c C02Q16762   4.348   1.780   3.756 -0.1701  0.2801  0.0577
   914G12c H01N16763   4.276   1.698   3.753  2.6573 -2.2907 -0.4258
   914G12c H01R16764   4.282   1.863   3.783 -3.2744 -1.6628 -1.3104
   914G12c H01Q16765   4.397   1.803   3.661 -0.8786 -3.7928 -1.3974
   914G12c C02A16766   4.274   1.610   4.006 -1.5577 -1.6502  1.5231
   914G12c H01116767   4.284   1.520   3.946 -4.5401 -1.7972  1.1848
   914G12c C00C16768   4.002   1.234   4.048  1.0232  2.1328 -0.3451
   914G12c H01216769   4.105   1.267   4.047  2.4756 -1.9742  1.2379
   914G12c C00B16770   3.992   1.092   4.048 -0.5064 -0.2348 -0.5744
   914G12c C00A16771   4.089   1.003   3.998  2.2827  0.2220 -1.3884
   914G12c C00916772   4.190   1.010   3.890  1.3332  0.3785 -0.5403
   914G12c C00816773   4.194   1.120   3.797  1.0332 -0.4805  1.6690
   914G12c H01316774   4.168   1.222   3.820 -0.1133 -0.1576 -0.8372
   914G12c C00716775   4.267   1.093   3.683 -1.7205 -1.1406  1.6344
   914G12c H01416776   4.322   1.170   3.630  2.7238 -3.2089  3.0249
   914G12c C00616777   4.277   0.957   3.635  1.3334  0.2762  1.3352
   914G12c C00516778   4.268   0.863   3.736 -0.3504 -0.3365  1.5521
   914G12c C00416779   4.247   0.722   3.695  2.4496 -1.9150 -0.4603
   914G12c C00316780   4.180   0.622   3.780  1.0475  0.7570  0.9028
   914G12c C00216781   4.178   0.488   3.733 -0.9633  2.3843  0.2158
   914G12c C00116782   4.135   0.363   3.782  0.1574 -0.5134  1.1844
   914G12c C00M16783   4.007   0.345   3.865 -1.0542  0.8824  0.4333
   914G12c C00L16784   3.984   0.438   3.976 -0.2621 -0.2546  0.6741
   914G12c C00R16785   3.838   0.474   3.997 -0.2116  0.0967  0.5141
   914G12c C00Q16786   3.716   0.407   3.986 -0.5707  0.7129  0.2151
   914G12c C00V16787   3.595   0.492   4.011 -0.4172  1.2518 -0.0568
   914G12c C00U16788   3.592   0.623   4.071  0.1285 -0.3135  0.7945
   914G12c C00T16789   3.715   0.681   4.091 -1.7166  1.2970  0.5988
   914G12c C01616790   3.728   0.816   4.102 -1.4417  0.0338  0.6686
   914G12c C01516791   3.621   0.895   4.126  0.7431 -0.3592  0.3701
   914G12c C01016792   3.495   0.832   4.133  1.4720  0.7607  0.0300
   914G12c C01116793   3.376   0.891   4.167  0.2403  1.4071  1.4780
   914G12c H00516794   3.288   0.837   4.199 -1.6726  4.5134  1.6849
   914G12c C01216795   3.376   1.035   4.196 -0.4365 -0.8232 -1.4724
   914G12c C01716796   3.254   1.106   4.256  0.3111  0.0883  0.0627
   914G12c O00216797   3.255   1.240   4.222  0.2827  0.4758  1.2856
   914G12c H00416798   3.166   1.272   4.227 -0.1366 -0.3627 -0.3012
   914G12c C01816799   3.162   1.059   4.331  1.1019 -0.8154 -0.9412
   914G12c O00116800   3.151   0.938   4.382  0.6520 -0.2203  0.4498
   914G12c H00316801   3.234   0.893   4.378 -0.1323 -1.5988 -0.8121
   914G12c C01916802   3.049   1.149   4.388 -1.4276  2.0463  0.6685
   914G12c H00216803   3.007   1.123   4.485  5.4225 -4.0551  2.4284
   914G12c H00116804   3.116   1.184   4.466 -2.9869 -0.9005  3.4401
   914G12c O00016805   2.963   1.239   4.307 -0.4423  0.9518 -0.2501
   914G12c C01A16806   2.864   1.173   4.234 -0.8294  1.0266 -0.3769
   914G12c C02K16807   2.777   1.273   4.163  0.2069  0.2189  0.6256
   914G12c O00G16808   2.813   1.409   4.151  0.0519 -0.1067  0.6725
   914G12c C02M16809   2.867   1.454   4.038  0.9377  1.0079 -0.2267
   914G12c H01G16810   2.941   1.391   3.989 -3.0540 -4.3171  0.0208
   914G12c H01F16811   2.818   1.479   3.944  2.3253 -5.3992 -2.9271
   914G12c H01E16812   2.909   1.551   4.061 -3.7822  3.1907 -0.2157
   914G12c C02J16813   2.658   1.242   4.096  0.4866  0.3565 -0.5798
   914G12c H01H16814   2.615   1.323   4.039 -0.3703  5.0575  6.1219
   914G12c C02I16815   2.622   1.108   4.095 -0.3666  0.9339  0.5456
   914G12c C02N16816   2.484   1.092   4.073  0.2265 -0.1392  0.1233
   914G12c H01M16817   2.429   1.185   4.066  2.4605  1.4549  2.5326
   914G12c C02O16818   2.427   0.977   4.061  1.1263 -1.1065 -0.7609
   914G12c H01L16819   2.504   0.902   4.074  1.5287 -0.7746 -1.2538
   914G12c C02P16820   2.285   0.967   4.038  0.9371  1.5614 -0.0126
   914G12c H01K16821   2.235   0.917   4.121  3.1716  3.2402  2.4196
   914G12c H01J16822   2.226   1.050   4.077  0.1458 -1.1815  4.9605
   914G12c O00H16823   2.239   0.941   3.910 -0.2366  0.8734 -0.1853
   914G12c H01I16824   2.301   0.883   3.869  1.2589 -2.9182  6.7001
   914G12c C02H16825   2.722   1.008   4.140  0.6485  0.4148 -0.6161
   914G12c H01C16826   2.680   0.929   4.201 -1.8301  1.2189 -1.2117
   914G12c C02L16827   2.830   1.043   4.198 -1.0884  0.4345  1.3317
   914G12c H01D16828   2.899   0.963   4.220 -3.4291 -2.2798 -0.9181
   914G12c C01316829   3.503   1.101   4.190  0.9538  0.8182  1.1383
   914G12c H00016830   3.494   1.207   4.170  2.8779  0.2146 -3.8071
   914G12c C01416831   3.629   1.034   4.159  0.8358  0.7589  0.1396
   914G12c C00F16832   3.753   1.099   4.114 -0.7779 -1.3227 -0.7934
   914G12c C00H16833   3.853   0.880   4.072 -1.6870 -0.8596 -2.0194
   914G12c C00I16834   3.966   0.799   4.043  0.4053  0.9740  0.4509
   914G12c C00J16835   3.936   0.667   4.023  0.1937  0.2526  0.0798
   914G12c C00Z16836   3.480   0.693   4.083  0.8696  0.1421 -1.0379
   914G12c C00Y16837   3.359   0.629   4.044 -0.4136 -0.4214 -0.6787
   914G12c H00616838   3.306   0.723   4.040 -1.9080 -1.3487 -3.8096
   914G12c C00X16839   3.348   0.505   4.011 -0.9187  0.8311 -0.1385
   914G12c O00316840   3.227   0.467   3.967  1.2980 -0.9707  2.4747
   914G12c C01B16841   3.114   0.454   4.056  1.2175  0.0686 -1.2709
   914G12c H00916842   3.152   0.474   4.156 -4.5134 -2.7491  1.7271
   914G12c H00816843   3.070   0.362   4.018  3.2416 -0.8129 -1.5390
   914G12c H00716844   3.042   0.535   4.039 -0.7703 -1.6947 -1.4094
   914G12c C00W16845   3.467   0.422   4.000 -0.5585 -0.7568  0.5521
   914G12c O00416846   3.435   0.305   3.967  0.4750  0.3727  0.2765
   914G12c C01C16847   3.544   0.211   3.949  0.0133 -1.6723  0.0044
   914G12c H00A16848   3.562   0.104   3.946  1.3787 -1.6467  3.9788
   914G12c C00P16849   3.682   0.270   3.927  0.1501 -1.9691 -0.2667
   914G12c C00O16850   3.779   0.203   3.840  0.1804 -0.2902  0.2897
   914G12c C01D16851   3.729   0.140   3.726  0.4304  0.2991 -0.4105
   914G12c H00S16852   3.623   0.122   3.719  0.3427  0.5360  0.2282
   914G12c C01E16853   3.776   0.146   3.587  1.2081 -1.2017 -1.7114
   914G12c O00816854   3.707   0.093   3.491  0.0072  0.4359 -0.1286
   914G12c C01V16855   3.579   0.131   3.452 -0.7173 -0.2809 -0.5952
   914G12c C01Z16856   3.461   0.030   3.447 -0.4791 -0.4217  0.6354
   914G12c H00R16857   3.381   0.067   3.383  1.5730  1.1416 -1.1082
   914G12c H00Q16858   3.481  -0.065   3.399 -0.6697 -1.2730  2.2226
   914G12c O00916859   3.425   0.044   3.586 -0.9414  0.4301  0.1988
   914G12c H00P16860   3.372  -0.031   3.607  1.3766 -1.5943 -0.8079
   914G12c C01W16861   3.541   0.254   3.396  0.4247  0.0926  0.1224
   914G12c H00O16862   3.449   0.250   3.340  2.2684  0.3821 -3.0085
   914G12c C01X16863   3.626   0.370   3.405 -1.8795  1.4607 -0.9519
   914G12c H00N16864   3.541   0.436   3.421 -1.0449  1.5169  4.0661
   914G12c H00M16865   3.706   0.356   3.478  0.1933  0.6596 -3.3318
   914G12c C01Y16866   3.690   0.415   3.269 -0.0706 -1.0953 -0.0401
   914G12c C02D16867   3.677   0.347   3.158 -1.5337 -2.4945 -0.0275
   914G12c H01916868   3.631   0.249   3.161 -3.4089 -1.5960  2.0495
   914G12c C02C16869   3.719   0.398   3.031  0.2118 -0.3321 -0.4352
   914G12c H01A16870   3.670   0.337   2.957 -1.1227 -3.2632  2.7185
   914G12c C02B16871   3.787   0.531   3.020 -1.9006  1.2535  1.7965
   914G12c O00E16872   3.814   0.571   2.905 -0.6146 -0.6419  1.1677
   914G12c H01B16873   3.834   0.663   2.897 -0.3153 -0.7886  0.0866
   914G12c C02F16874   3.783   0.602   3.142  0.3587 -0.8669 -0.1535
   914G12c O00F16875   3.854   0.725   3.140 -0.0285  1.4880 -0.1535
   914G12c C02G16876   3.976   0.716   3.214  1.3862 -0.0118  1.5577
   914G12c H01716877   4.047   0.772   3.154  0.5114 -2.4333 -1.8775
   914G12c H01616878   3.953   0.770   3.307  0.8622  0.7082  1.0168
   914G12c H01516879   4.032   0.623   3.226 -0.8609 -1.5501  0.4969
   914G12c C02E16880   3.749   0.543   3.260 -0.1080 -0.4217  1.2266
   914G12c H01816881   3.760   0.608   3.346  2.0674  2.0271 -0.8202
   914G12c C01F16882   3.897   0.205   3.569 -1.3949  0.3894 -0.1437
   914G12c C01G16883   3.953   0.252   3.431 -0.0699  1.2712 -1.0986
   914G12c H00L16884   3.928   0.231   3.328  2.3785  0.9726 -1.6603
   914G12c C01H16885   4.065   0.338   3.444  0.8537  0.0675  0.9990
   914G12c H00B16886   4.065   0.413   3.366  0.4664  0.7594  1.6632
   914G12c C01I16887   4.159   0.330   3.550 -1.1757  0.3292  0.1765
   914G12c C01U16888   3.981   0.214   3.683 -1.3863 -1.5131  0.4679
   914G12c C00S16889   3.826   0.604   4.052  0.0236 -0.1125  0.4945
   914G12c C00K16890   4.037   0.577   3.976 -1.6240  1.1499  0.3130
   914G12c C00N16891   3.910   0.249   3.806  0.1097 -0.4971  0.4823
   914G12c C00016892   4.111   0.272   3.668 -0.8815 -0.0248 -2.4952
   914G12c C01J16893   4.223   0.463   3.597 -0.6716  1.4140 -0.0695
   914G12c C01K16894   4.294   0.559   3.514  0.4170 -1.5110  1.1453
   914G12c C01P16895   4.372   0.531   3.391  0.6249  1.6571 -0.9946
   914G12c C01Q16896   4.381   0.388   3.349  0.0137 -1.7077 -0.5844
   914G12c H00G16897   4.293   0.332   3.324 -0.7286  0.1208 -2.1752
   914G12c C01R16898   4.501   0.326   3.351 -1.2032 -1.9900 -0.1840
   914G12c H00F16899   4.583   0.395   3.356 -4.7553  2.2655  3.3102
   914G12c C01S16900   4.499   0.181   3.321 -0.9662  0.2947 -0.0668
   914G12c H00E16901   4.528   0.133   3.414 -4.7074  0.1180  1.0827
   914G12c H00D16902   4.406   0.153   3.272  0.6357 -8.1828  0.9745
   914G12c O00516903   4.578   0.117   3.211  0.4595  1.3226  0.2034
   914G12c H00C16904   4.523   0.098   3.137  3.4269  0.0675 -1.7851
   914G12c C01O16905   4.432   0.632   3.329 -1.0908 -1.9857  0.1521
   914G12c H00H16906   4.489   0.631   3.238 -2.5397  5.2799 -1.1101
   914G12c C01N16907   4.425   0.768   3.380 -0.1716 -1.0116  0.1955
   914G12c O00616908   4.490   0.852   3.279 -1.2977  0.2300 -0.1064
   914G12c C01T16909   4.515   0.992   3.296  1.1920  0.5063  1.0742
   914G12c H00K16910   4.604   1.033   3.247  1.9740 -1.2419  0.9782
   914G12c H00J16911   4.570   0.984   3.390  3.4671  7.0431  0.5189
   914G12c H00I16912   4.470   1.077   3.347  1.6139  4.1372 -4.2057
   914G12c C01M16913   4.352   0.803   3.488  2.1392 -0.0916 -1.0365
   914G12c C02016914   4.134   0.663   3.908  1.2360  0.3733  1.0722
   914G12c C02116915   4.176   0.793   3.939  0.1465 -0.9336 -1.9692
   914G12c C01L16916   4.290   0.688   3.569  1.2311  0.9689 -0.0258
   914G12c O00716917   4.335   0.935   3.517 -0.3515  0.0414 -2.0785
   914G12c C02216918   4.242   0.885   3.874  0.0619  0.9530  0.5774
   914G12c C02316919   4.083   0.865   4.020 -1.2433  0.4870  1.1036
   914G12c C00G16920   3.869   1.032   4.077  0.6959  1.1255  0.0698
   914G12c C00E16921   3.767   1.240   4.128 -1.2230  0.6002 -1.0236
   914G12c O00A16922   3.679   1.330   4.189  0.6809 -1.0569 -0.9658
   914G12c C02416923   3.729   1.365   4.329 -1.5064  1.2027 -1.7242
   914G12c H00V16924   3.672   1.293   4.388  5.7074 -6.7177 -3.4056
   914G12c H00U16925   3.678   1.462   4.328 -6.7894 -1.3294  1.4758
   914G12c H00T16926   3.823   1.351   4.382 -4.1713  5.1590  4.6998
   924G12c C00D16927   7.238   9.889   5.095  0.1450 -0.6604  1.1708
   924G12c O00B16928   7.368   9.943   5.115 -0.9779  0.7284  0.2510
   924G12c C02516929   7.401  10.077   5.129  0.3800  0.5516  0.0466
   924G12c C02616930   7.537  10.081   5.098 -1.0830  0.1741  1.4950
   924G12c H00Y16931   7.564   9.981   5.065 -6.3113 -1.3715  1.3134
   924G12c H00X16932   7.575  10.088   5.200 -2.6665  1.2592  2.0274
   924G12c O00C16933   7.598  10.205   5.077  1.1826  0.0243  1.0524
   924G12c H00W16934   7.632  10.216   4.990  2.9638  1.2018  1.8608
   924G12c C02716935   7.309  10.177   5.161  1.2168 -0.4628 -0.4147
   924G12c O00D16936   7.166  10.171   5.194 -1.7051 -1.2225 -0.3252
   924G12c H00Z16937   7.125  10.203   5.273  2.6970 -4.9507  3.7477
   924G12c C02816938   7.367  10.306   5.204 -0.7483  2.0788 -0.4446
   924G12c C02916939   7.469  10.300   5.315 -0.7051 -0.9101  0.3748
   924G12c H01016940   7.488  10.199   5.346  0.6086 -1.2018 -1.3225
   924G12c C02T16941   7.539  10.406   5.369  1.6703 -1.0780 -0.4776
   924G12c H01O16942   7.576  10.386   5.469 -1.9975  3.0243  1.8797
   924G12c C02S16943   7.499  10.526   5.318 -0.4629 -0.5815 -0.5584
   924G12c O00J16944   7.513  10.626   5.401  0.7142  0.7926  0.9090
   924G12c H01P16945   7.529  10.589   5.487  2.3843 -2.3783 -0.7124
   924G12c C02R16946   7.391  10.543   5.226  2.1992  0.2615 -0.0694
   924G12c O00I16947   7.342  10.663   5.188  0.5748  0.9220  0.2050
   924G12c C02Q16948   7.375  10.697   5.060  0.5171 -1.2976 -0.1199
   924G12c H01N16949   7.305  10.755   5.000  1.8715  2.2974  1.6423
   924G12c H01R16950   7.417  10.613   5.006  4.9799  1.9400 -1.9729
   924G12c H01Q16951   7.441  10.781   5.080  9.7872 -6.4756 -5.6357
   924G12c C02A16952   7.341  10.437   5.158  0.9808  0.8010  0.6215
   924G12c H01116953   7.264  10.445   5.082  1.6514 -0.2228 -0.1725
   924G12c C00C16954   7.190   9.870   4.966  0.0866  0.4816  0.2811
   924G12c H01216955   7.275   9.876   4.900  2.8795 -2.1350  3.4329
   924G12c C00B16956   7.060   9.810   4.931  0.6342  0.7559  1.2988
   924G12c C00A16957   7.012   9.744   4.806  0.9235  1.8924  0.5831
   924G12c C00916958   7.012   9.782   4.665  0.2698 -1.0647 -0.1864
   924G12c C00816959   7.044   9.895   4.588 -0.4541 -1.5272  0.9908
   924G12c H01316960   7.111   9.967   4.631 -2.2194  2.9976 -3.4270
   924G12c C00716961   6.985   9.921   4.456  0.1382  0.3362 -0.5067
   924G12c H01416962   7.029   9.994   4.388  2.6019  2.7904  3.5226
   924G12c C00616963   6.885   9.827   4.412  0.3508  1.8648 -0.0961
   924G12c C00516964   6.861   9.707   4.489 -0.1233  0.5565  0.4792
   924G12c C00416965   6.746   9.630   4.464  0.1329  2.5035 -0.6962
   924G12c C00316966   6.698   9.550   4.568  1.0984  1.8187  0.6327
   924G12c C00216967   6.578   9.478   4.531  0.9994 -2.2456 -2.5104
   924G12c C00116968   6.478   9.411   4.621  0.5717 -0.6583  0.5601
   924G12c C00M16969   6.470   9.424   4.773 -2.1088 -2.1882 -0.8342
   924G12c C00L16970   6.567   9.410   4.872 -1.2168  0.0980 -0.5296
   924G12c C00R16971   6.561   9.446   5.016  0.4785 -0.1158 -0.4285
   924G12c C00Q16972   6.444   9.474   5.094  1.4368  0.8676  0.1156
   924G12c C00V16973   6.477   9.526   5.223  1.0011  0.4823  1.5546
   924G12c C00U16974   6.602   9.560   5.257 -1.4514  0.1178  0.9049
   924G12c C00T16975   6.690   9.584   5.157 -0.1173 -1.1668 -1.2474
   924G12c C01616976   6.803   9.659   5.167  0.6524  0.0303 -0.6247
   924G12c C01516977   6.825   9.712   5.298 -0.9799  1.0135  0.8558
   924G12c C01016978   6.745   9.692   5.411 -0.1402 -1.3610  1.1102
   924G12c C01116979   6.798   9.760   5.530  3.4522  0.5669  0.9629
   924G12c H00516980   6.733   9.744   5.615  2.3456  0.9662  0.1996
   924G12c C01216981   6.938   9.786   5.543 -0.7088  0.2775 -0.0406
   924G12c C01716982   6.987   9.795   5.671 -1.1956 -0.2302  1.4854
   924G12c O00216983   6.924   9.710   5.750  0.5956 -0.8112 -1.5757
   924G12c H00416984   6.890   9.666   5.674 -0.9086  0.7065 -1.8214
   924G12c C01816985   7.052   9.889   5.733  0.8961 -0.7321  1.7055
   924G12c O00116986   7.095   9.994   5.651  0.2755  0.3049  1.6241
   924G12c H00316987   7.009  10.033   5.652 -0.3421 -0.9849  0.3730
   924G12c C01916988   7.086   9.899   5.879 -0.1432 -0.8395 -0.1973
   924G12c H00216989   7.112   9.800   5.916 -1.2245 -2.9000 -4.5484
   924G12c H00116990   6.994   9.904   5.937  0.6154  1.5650  0.8365
   924G12c O00016991   7.181  10.002   5.908  1.5635 -1.3026 -0.1080
   924G12c C01A16992   7.264  10.006   6.011  2.0163  0.5721 -0.8477
   924G12c C02K16993   7.232  10.032   6.146  0.4266  1.4843 -0.1536
   924G12c O00G16994   7.099  10.099   6.150  0.6414  0.8338  0.9672
   924G12c C02M16995   7.037  10.087   6.280 -0.6059  1.6957  0.6078
   924G12c H01G16996   6.941  10.138   6.289 -1.5829  0.7614 -3.1956
   924G12c H01F16997   7.032   9.982   6.308 -2.4119  1.2529 -1.1972
   924G12c H01E16998   7.093  10.152   6.346  2.7061  1.0137 -1.3860
   924G12c C02J16999   7.335  10.031   6.251 -0.8588 -1.6364 -1.0002
   924G12c H01H17000   7.292  10.054   6.348 -0.7645 -2.2248 -0.8173
   924G12c C02I17001   7.468  10.012   6.236 -1.0336  0.1645 -0.1719
   924G12c C02N17002   7.571  10.026   6.350 -1.0478 -1.5136  0.8203
   924G12c H01M17003   7.576  10.120   6.404 -2.0200 -2.1042  1.9726
   924G12c C02O17004   7.627   9.897   6.377  1.0835 -0.4320  0.9420
   924G12c H01L17005   7.608   9.821   6.303 -2.4300 -2.9331  4.2184
   924G12c C02P17006   7.767   9.905   6.459  0.2250 -0.8108 -1.0265
   924G12c H01K17007   7.821   9.999   6.472 -2.8044  0.8564  0.1440
   924G12c H01J17008   7.740   9.887   6.563 13.3224  0.4855  3.5202
   924G12c O00H17009   7.827   9.786   6.422  0.2008  1.1275 -0.4915
   924G12c H01I17010   7.754   9.739   6.385 -2.5855  7.3552 -3.7212
   924G12c C02H17011   7.504   9.985   6.106  1.0579 -0.8219  0.4741
   924G12c H01C17012   7.608   9.979   6.076  1.3733  8.8641 -2.0010
   924G12c C02L17013   7.400   9.985   5.992 -1.8924 -0.2305  0.8658
   924G12c H01D17014   7.411   9.936   5.896 -1.8950  2.4867 -0.5462
   924G12c C01317015   7.008   9.816   5.426 -0.5008  0.4353  2.3989
   924G12c H00017016   7.075   9.900   5.416  0.9503 -1.2785 -4.8652
   924G12c C01417017   6.961   9.761   5.302  0.0061  0.5473  0.2129
   924G12c C00F17018   7.041   9.772   5.180 -1.6034 -0.8534 -0.4263
   924G12c C00H17019   6.881   9.689   5.050 -0.9286  1.4723  0.5201
   924G12c C00I17020   6.851   9.618   4.932 -0.8457 -1.4507 -1.5519
   924G12c C00J17021   6.748   9.523   4.926 -0.3217 -0.5838 -0.7027
   924G12c C00Z17022   6.635   9.622   5.377 -0.2941  0.5058 -0.2590
   924G12c C00Y17023   6.532   9.624   5.480  0.9939 -0.2523 -0.2651
   924G12c H00617024   6.541   9.657   5.582 -1.6818 -3.3163  1.0536
   924G12c C00X17025   6.402   9.585   5.449 -0.1411 -0.6079  0.2706
   924G12c O00317026   6.294   9.617   5.534 -1.2014  0.9540  0.6545
   924G12c C01B17027   6.313   9.753   5.609 -1.2237 -1.0418  0.1517
   924G12c H00917028   6.255   9.835   5.567 -4.0357  0.0356  5.6609
   924G12c H00817029   6.403   9.746   5.670 -4.1031  1.6807  5.0851
   924G12c H00717030   6.266   9.726   5.704  6.4760 -6.5579  2.9108
   924G12c C00W17031   6.380   9.545   5.319  1.0409 -1.5168 -1.2138
   924G12c O00417032   6.245   9.557   5.286  0.2265  0.5321  1.4642
   924G12c C01C17033   6.213   9.504   5.160 -1.9399  0.0431  0.9115
   924G12c H00A17034   6.127   9.439   5.155 -0.6966 -1.4240 -6.0218
   924G12c C00P17035   6.311   9.481   5.057  0.6562  1.3944  0.2178
   924G12c C00O17036   6.256   9.450   4.923  0.6056 -0.5312  1.0555
   924G12c C01D17037   6.121   9.504   4.889  0.2603 -0.0039  1.0146
   924G12c H00S17038   6.043   9.534   4.958 -2.1187 -2.8595 -0.2998
   924G12c C01E17039   6.072   9.545   4.768  3.2282 -0.2937 -0.9168
   924G12c O00817040   5.953   9.607   4.754 -0.0083 -0.0516 -2.2310
   924G12c C01V17041   5.832   9.531   4.766 -0.1121 -1.4625 -0.1947
   924G12c C01Z17042   5.759   9.571   4.887  1.1093  0.0454 -0.0303
   924G12c H00R17043   5.662   9.533   4.856 -0.0303 -1.2838  4.7398
   924G12c H00Q17044   5.816   9.501   4.948  4.5228 -1.4074 -4.5951
   924G12c O00917045   5.768   9.713   4.914 -0.8901 -0.8217 -0.7904
   924G12c H00P17046   5.806   9.733   4.997 -0.2172  1.7722 -1.6890
   924G12c C01W17047   5.793   9.414   4.694  0.4353  0.9000 -1.5235
   924G12c H00O17048   5.729   9.349   4.751  0.9724  3.5312  2.2913
   924G12c C01X17049   5.869   9.342   4.588  1.0738  0.4428  0.0042
   924G12c H00N17050   5.925   9.419   4.535 -1.6483 -0.4243 -4.2999
   924G12c H00M17051   5.947   9.273   4.623  1.4489 -0.5316 -2.6438
   924G12c C01Y17052   5.740   9.289   4.530 -0.5703 -1.8220  2.2282
   924G12c C02D17053   5.665   9.178   4.586  1.1587 -0.6458 -1.8352
   924G12c H01917054   5.687   9.127   4.678 -2.1394  3.1038  1.1946
   924G12c C02C17055   5.551   9.121   4.509 -1.5807 -0.9719 -1.2667
   924G12c H01A17056   5.491   9.034   4.533 -1.7014 -1.3516 -2.9041
   924G12c C02B17057   5.512   9.191   4.387  0.2731  2.5013 -1.7591
   924G12c O00E17058   5.412   9.129   4.303  1.4024  1.5194 -0.1204
   924G12c H01B17059   5.351   9.187   4.260 -1.4794 -0.6076  0.9026
   924G12c C02F17060   5.609   9.295   4.333  0.0627 -0.4310  1.1234
   924G12c O00F17061   5.548   9.334   4.215  0.1965 -0.8293  1.2172
   924G12c C02G17062   5.618   9.380   4.093 -0.8171  1.4837  0.6672
   924G12c H01717063   5.563   9.424   4.009  1.8220 -0.2547 -2.0979
   924G12c H01617064   5.631   9.281   4.048  2.1750 -3.0422 10.1614
   924G12c H01517065   5.711   9.425   4.126  3.5187 -4.6142 -2.3032
   924G12c C02E17066   5.711   9.357   4.413 -0.0164 -0.7770 -0.7387
   924G12c H01817067   5.774   9.436   4.374  3.3171 -3.6657 -1.4392
   924G12c C01F17068   6.154   9.555   4.663 -1.6490  1.2567 -0.7395
   924G12c C01G17069   6.148   9.628   4.542 -0.0721  0.8469 -1.1729
   924G12c H00L17070   6.051   9.676   4.537 -0.2842  0.2278 -3.8734
   924G12c C01H17071   6.261   9.638   4.445  0.2631  0.2056  1.3840
   924G12c H00B17072   6.276   9.707   4.363 -3.7902  3.0532  2.8753
   924G12c C01I17073   6.375   9.545   4.460 -0.0319  0.8192 -1.0243
   924G12c C01U17074   6.270   9.479   4.674 -0.0669 -0.7276  1.0751
   924G12c C00S17075   6.683   9.501   5.044  0.7276 -2.1215 -0.2259
   924G12c C00K17076   6.699   9.458   4.811 -0.3757  0.0804  3.1724
   924G12c C00N17077   6.332   9.447   4.802 -0.1141 -0.3856  1.9052
   924G12c C00017078   6.354   9.427   4.562  0.5166  1.0294 -0.4798
   924G12c C01J17079   6.507   9.524   4.423  0.8320  0.1237  0.5077
   924G12c C01K17080   6.552   9.619   4.318  0.3813  1.2485  0.2990
   924G12c C01P17081   6.494   9.653   4.177 -0.1947  0.3905 -0.5434
   924G12c C01Q17082   6.361   9.608   4.122  0.1404 -1.0850  1.4006
   924G12c H00G17083   6.302   9.684   4.072 -0.1797 -2.3631 -0.2140
   924G12c C01R17084   6.313   9.492   4.168  1.1657  1.3046 -0.7248
   924G12c H00F17085   6.379   9.428   4.226 -4.3608  1.9141  6.9476
   924G12c C01S17086   6.181   9.416   4.165 -1.8739 -0.8096 -2.1660
   924G12c H00E17087   6.159   9.368   4.070 -0.7997  3.5949 -4.7657
   924G12c H00D17088   6.182   9.326   4.226 -0.4141 -1.3576 -2.9875
   924G12c O00517089   6.080   9.508   4.191  0.6779  0.4618 -0.0909
   924G12c H00C17090   5.993   9.484   4.162 -0.8298  2.7412  2.2654
   924G12c C01O17091   6.573   9.702   4.075  1.6194  0.8059 -0.2860
   924G12c H00H17092   6.527   9.695   3.978  3.6177 -0.4831 -1.1775
   924G12c C01N17093   6.699   9.746   4.107  2.8178 -0.2464 -1.5235
   924G12c O00617094   6.766   9.840   4.019  0.4959  0.6510  0.9753
   924G12c C01T17095   6.699   9.922   3.923  0.9922  0.7003 -0.6012
   924G12c H00K17096   6.658   9.881   3.830 -2.2745 -2.6017  2.1320
   924G12c H00J17097   6.783   9.989   3.903  0.2860  2.4844  2.1432
   924G12c H00I17098   6.618   9.977   3.970  0.9103  0.0694  0.0165
   924G12c C01M17099   6.748   9.736   4.239  0.9060  1.3718 -0.5088
   924G12c C02017100   6.763   9.504   4.687 -0.0142  0.3933  0.8236
   924G12c C02117101   6.885   9.592   4.700  1.0062  1.0379  1.3577
   924G12c C01L17102   6.673   9.661   4.340  0.3284  1.4670 -0.4248
   924G12c O00717103   6.848   9.824   4.283  0.6382  0.1814 -0.5015
   924G12c C02217104   6.925   9.675   4.612  1.1622 -0.4578 -0.1264
   924G12c C02317105   6.924   9.647   4.812 -0.5460  0.8562 -0.6424
   924G12c C00G17106   6.993   9.759   5.054  1.0071 -0.1119 -1.3134
   924G12c C00E17107   7.165   9.832   5.195 -1.6051  0.7815  0.3923
   924G12c O00A17108   7.236   9.797   5.304 -0.7545  0.1545 -1.7490
   924G12c C02417109   7.344   9.847   5.377 -0.2456 -0.1713 -0.9384
   924G12c H00V17110   7.394   9.765   5.429  2.7534 -0.4700 -4.1917
   924G12c H00U17111   7.337   9.934   5.442  2.1026 -1.6155  1.3529
   924G12c H00T17112   7.433   9.852   5.315  0.4631 -2.3262 -0.1606
   934G12c C00D17113   8.914   6.675   6.977  0.8211 -1.4433  0.1206
   934G12c O00B17114   9.052   6.707   6.952  0.7245 -1.9509  0.2789
   934G12c C02517115   9.099   6.729   6.817 -0.2939  0.4340 -0.2067
   934G12c C02617116   9.225   6.803   6.803 -2.6071  0.2368 -0.7304
   934G12c H00Y17117   9.286   6.749   6.877  0.4673  7.0275  2.1031
   934G12c H00X17118   9.286   6.813   6.714  3.1459 -3.9837  2.3856
   934G12c O00C17119   9.202   6.941   6.818 -1.0565  0.7266  0.8119
   934G12c H00W17120   9.261   6.965   6.887 -2.5748  6.7959  0.2552
   934G12c C02717121   9.048   6.649   6.711  1.1854  1.7189  0.4535
   934G12c O00D17122   8.947   6.568   6.724  2.2447 -0.0867  0.4796
   934G12c H00Z17123   8.944   6.507   6.651  6.2753  1.8603 -1.4710
   934G12c C02817124   9.132   6.628   6.596 -0.4777  0.5319  0.8112
   934G12c C02917125   9.127   6.715   6.491  0.8216 -1.0855  0.3854
   934G12c H01017126   9.050   6.791   6.479 -0.7807 -3.3008 -4.8564
   934G12c C02T17127   9.215   6.683   6.381 -0.4162 -0.6511 -0.7439
   934G12c H01O17128   9.202   6.750   6.297 -1.1538  4.1272  3.0053
   934G12c C02S17129   9.290   6.559   6.373  0.4234 -0.4205 -0.7659
   934G12c O00J17130   9.346   6.504   6.265 -0.6313 -0.9559 -0.7044
   934G12c H01P17131   9.366   6.415   6.290 -7.6999 -2.8709 -0.9094
   934G12c C02R17132   9.290   6.489   6.485  0.0485 -0.9529  0.6923
   934G12c O00I17133   9.371   6.371   6.480 -1.0573  0.2027 -0.7442
   934G12c C02Q17134   9.404   6.311   6.608 -0.2846 -0.2711 -0.8023
   934G12c H01N17135   9.352   6.217   6.628  3.8878 -4.1343 -6.5287
   934G12c H01R17136   9.415   6.391   6.681 -1.1545 -3.2422  2.7183
   934G12c H01Q17137   9.510   6.311   6.584  0.2261 -5.9956  0.7183
   934G12c C02A17138   9.228   6.533   6.597  0.7235 -0.4025  0.9021
   934G12c H01117139   9.243   6.478   6.689  1.8833  3.1036  2.9025
   934G12c C00C17140   8.825   6.785   6.947  0.7374 -0.0831 -1.7064
   934G12c H01217141   8.871   6.844   6.869  3.5319 -0.0726 -0.1401
   934G12c C00B17142   8.693   6.769   6.998  0.3278  1.1979  0.6600
   934G12c C00A17143   8.564   6.845   6.968 -0.8100 -0.2355 -0.6641
   934G12c C00917144   8.544   6.972   6.890 -1.2296 -1.0638  1.6037
   934G12c C00817145   8.648   7.074   6.856  0.3215  0.3371 -0.8008
   934G12c H01317146   8.743   7.037   6.890  0.6457  2.1934  0.4015
   934G12c C00717147   8.608   7.202   6.921  1.6027 -0.1406  0.0417
   934G12c H01417148   8.690   7.267   6.948  3.0908 -1.1165 -1.9960
   934G12c C00617149   8.466   7.235   6.933  0.9984 -1.2129  0.3241
   934G12c C00517150   8.375   7.131   6.947 -0.3683  0.2321 -0.3080
   934G12c C00417151   8.257   7.139   7.031 -0.2729  0.4813 -0.6995
   934G12c C00317152   8.199   7.032   7.095 -0.2325  0.8601 -2.3150
   934G12c C00217153   8.089   7.064   7.187  0.8892 -0.3441  0.5299
   934G12c C00117154   8.004   6.999   7.283 -0.8463 -0.0952  1.1249
   934G12c C00M17155   8.069   6.912   7.381  0.5184  1.6751  0.7244
   934G12c C00L17156   8.175   6.824   7.341 -1.7431 -1.9080  0.1981
   934G12c C00R17157   8.249   6.719   7.421 -0.6962  0.5356 -0.2445
   934G12c C00Q17158   8.244   6.706   7.561 -0.0443 -2.3193 -0.3890
   934G12c C00V17159   8.328   6.603   7.598 -1.0363  0.8922 -1.2167
   934G12c C00U17160   8.427   6.554   7.514 -0.5438  1.7187 -1.3528
   934G12c C00T17161   8.440   6.587   7.380 -0.3161 -0.0281 -0.5422
   934G12c C01617162   8.548   6.571   7.283  0.7858  0.9334  0.3977
   934G12c C01517163   8.661   6.524   7.350  1.3837  0.1991  1.4725
   934G12c C01017164   8.646   6.466   7.481 -0.4924  0.7081  1.8314
   934G12c C01117165   8.768   6.411   7.525  0.3487 -0.4632  1.1277
   934G12c H00517166   8.779   6.345   7.610 -4.6201 -5.2058 -1.5419
   934G12c C01217167   8.884   6.398   7.444  0.5911  0.0226 -0.5207
   934G12c C01717168   8.993   6.302   7.463  2.2860  0.6643 -0.0396
   934G12c O00217169   8.953   6.175   7.496  2.3655  0.1133 -0.1719
   934G12c H00417170   9.038   6.139   7.475  5.2184  3.1728  5.0636
   934G12c C01817171   9.122   6.350   7.458 -0.6861  1.4666 -0.3446
   934G12c O00117172   9.159   6.488   7.490  0.2184  0.1471  0.5006
   934G12c H00317173   9.137   6.470   7.580 -2.2180  3.6223  0.7042
   934G12c C01917174   9.239   6.258   7.483 -0.6273 -0.5236 -0.5196
   934G12c H00217175   9.263   6.267   7.589 -3.4344  2.1870 -0.0569
   934G12c H00117176   9.324   6.303   7.431 -2.6025 -0.3061 -3.6759
   934G12c O00017177   9.223   6.119   7.436 -0.9147  2.7843  0.4144
   934G12c C01A17178   9.335   6.093   7.365 -1.0529 -0.3488  0.5213
   934G12c C02K17179   9.421   5.977   7.388 -1.4998  0.3127 -0.8567
   934G12c O00G17180   9.404   5.913   7.512  0.3379  1.2593  1.0655
   934G12c C02M17181   9.363   5.781   7.506 -2.1922 -0.3942 -1.1394
   934G12c H01G17182   9.393   5.716   7.588  2.6872  4.8128  1.5796
   934G12c H01F17183   9.354   5.712   7.422 -4.3037 -2.7022  0.9095
   934G12c H01E17184   9.255   5.783   7.502 -2.2116  0.5896 -0.2547
   934G12c C02J17185   9.530   5.932   7.310  0.7841  0.4500  2.2558
   934G12c H01H17186   9.575   5.838   7.338  1.3605  0.9514  3.0221
   934G12c C02I17187   9.572   5.988   7.186  0.9035  0.1933  0.3535
   934G12c C02N17188   9.674   5.953   7.084 -0.2383 -1.0628  0.5420
   934G12c H01M17189   9.679   5.856   7.037 -2.2945  1.1779 -4.7388
   934G12c C02O17190   9.742   6.072   7.047 -0.0127  2.3360  0.0496
   934G12c H01L17191   9.722   6.161   7.106 -0.7438 -2.5506  7.8680
   934G12c C02P17192   9.847   6.118   6.939  1.1724  3.2844  0.3785
   934G12c H01K17193   9.822   6.058   6.852  3.9931 -3.7445  4.0234
   934G12c H01J17194   9.812   6.220   6.923 -6.8584  0.6299 -0.9082
   934G12c O00H17195   9.983   6.130   6.968  0.2654  1.1838  0.2598
   934G12c H01I17196   9.997   6.121   7.062 -5.5821-11.2854  0.8913
   934G12c C02H17197   9.495   6.091   7.159 -0.2348  0.6334 -0.9811
   934G12c H01C17198   9.512   6.134   7.061 -0.3270  2.8716 -0.0554
   934G12c C02L17199   9.368   6.147   7.231  0.0457 -0.9517 -1.1362
   934G12c H01D17200   9.306   6.218   7.178  1.0921  1.4137  0.7328
   934G12c C01317201   8.886   6.474   7.337 -0.0757 -0.4852 -0.2316
   934G12c H00017202   8.981   6.480   7.286 -0.7082  2.5180 -1.1609
   934G12c C01417203   8.776   6.525   7.275 -0.7918 -0.4694 -0.2896
   934G12c C00F17204   8.775   6.596   7.144  0.5650 -0.9112 -2.0347
   934G12c C00H17205   8.546   6.633   7.156  0.1261  1.9613  0.3536
   934G12c C00I17206   8.428   6.702   7.119 -0.0575  0.3190  0.8699
   934G12c C00J17207   8.313   6.692   7.203 -0.2649 -0.2533  0.1246
   934G12c C00Z17208   8.532   6.458   7.556 -0.1209  0.4052  0.0076
   934G12c C00Y17209   8.527   6.417   7.685  0.4721 -0.0345 -0.1380
   934G12c H00617210   8.610   6.366   7.730  2.2690  1.9483 -1.1093
   934G12c C00X17211   8.420   6.444   7.785 -0.2657 -0.1958 -3.0004
   934G12c O00317212   8.425   6.375   7.892 -1.3302 -0.3724 -0.6727
   934G12c C01B17213   8.310   6.368   7.987 -0.1323 -0.3144 -0.2560
   934G12c H00917214   8.248   6.458   7.989  2.0956  1.5485 -6.2675
   934G12c H00817215   8.373   6.338   8.071  2.4107 -0.0245 -2.0092
   934G12c H00717216   8.278   6.268   7.957  2.2981 -1.3858  0.6382
   934G12c C00W17217   8.304   6.524   7.723  0.0785 -0.9677  3.0423
   934G12c O00417218   8.214   6.581   7.802 -2.4734  1.2889  2.1425
   934G12c C01C17219   8.212   6.721   7.783  0.3937  0.5708 -0.5832
   934G12c H00A17220   8.277   6.762   7.858  4.8494 -3.6153 -1.9483
   934G12c C00P17221   8.178   6.794   7.666 -1.9991 -0.7060 -1.7399
   934G12c C00O17222   8.117   6.925   7.642 -1.6575  0.0201  0.2227
   934G12c C01D17223   8.132   7.016   7.742 -0.3440  0.6392  0.4342
   934G12c H00S17224   8.209   6.999   7.815 -1.9149  1.1932  2.2907
   934G12c C01E17225   8.092   7.154   7.727  0.8018 -0.4065 -0.3066
   934G12c O00817226   8.168   7.265   7.793  0.1075  0.5046  0.7543
   934G12c C01V17227   8.116   7.313   7.914  0.3719 -0.8678 -0.6788
   934G12c C01Z17228   8.013   7.438   7.901 -0.5137  2.1634  0.9399
   934G12c H00R17229   8.008   7.495   7.808 -2.4883 -0.5431 -0.6547
   934G12c H00Q17230   7.915   7.393   7.907  0.2009  0.7844  2.8290
   934G12c O00917231   8.070   7.534   8.006  1.2354  1.1217  0.0960
   934G12c H00P17232   8.118   7.464   8.048-10.7071 -7.2841  2.2907
   934G12c C01W17233   8.108   7.231   8.032 -1.1160  0.7049  0.1428
   934G12c H00O17234   8.165   7.140   8.038  1.3660  2.1117 -0.9003
   934G12c C01X17235   8.030   7.256   8.167  0.9610 -0.8042  0.7297
   934G12c H00N17236   8.067   7.193   8.248 -1.0306 -3.2065 -0.1737
   934G12c H00M17237   8.037   7.358   8.205  1.7178 -0.1351 -1.1417
   934G12c C01Y17238   7.902   7.180   8.174  0.7243 -0.8934 -0.6994
   934G12c C02D17239   7.883   7.049   8.221 -0.0818  2.0457  0.5885
   934G12c H01917240   7.971   6.992   8.248  0.0676  1.7191 -0.5545
   934G12c C02C17241   7.763   6.984   8.244 -1.8788 -0.7118  1.5747
   934G12c H01A17242   7.769   6.891   8.298  1.3031 -3.0884 -2.5670
   934G12c C02B17243   7.645   7.051   8.226 -0.3002  0.7904  0.5064
   934G12c O00E17244   7.540   6.988   8.267 -0.6561 -0.0755  1.5750
   934G12c H01B17245   7.515   6.913   8.215  2.1867 -0.4767  0.7062
   934G12c C02F17246   7.651   7.185   8.171 -2.1306  0.5632 -1.3263
   934G12c O00F17247   7.528   7.254   8.170  0.3075  1.3289 -0.0121
   934G12c C02G17248   7.492   7.272   8.039  0.2760  0.0753 -0.7900
   934G12c H01717249   7.393   7.287   8.082  1.3337  0.9160  1.4644
   934G12c H01617250   7.525   7.364   7.992 -1.5345  0.7332 -0.8245
   934G12c H01517251   7.501   7.189   7.970 -5.3544 -3.5917  2.4470
   934G12c C02E17252   7.776   7.252   8.150  0.4445 -1.2300 -1.2932
   934G12c H01817253   7.767   7.358   8.132 -5.2243 -1.4592 -0.6172
   934G12c C01F17254   8.032   7.181   7.600 -0.4757 -1.2350  1.4444
   934G12c C01G17255   7.999   7.311   7.562  0.8175  0.0480  0.9959
   934G12c H00L17256   8.007   7.399   7.625  1.7029  2.1220 -1.9246
   934G12c C01H17257   8.004   7.336   7.417 -1.8289  0.6306  0.4249
   934G12c H00B17258   8.020   7.429   7.366  3.8745  2.7423  5.4302
   934G12c C01I17259   7.991   7.225   7.324  0.7134 -0.5397  0.4331
   934G12c C01U17260   7.997   7.085   7.501 -0.6020 -0.4119 -0.3246
   934G12c C00S17261   8.324   6.650   7.326 -1.0180  1.1481 -1.1006
   934G12c C00K17262   8.232   6.816   7.206 -0.2250 -1.0995 -0.8904
   934G12c C00N17263   8.070   6.973   7.507 -0.1870 -2.3393 -0.1355
   934G12c C00017264   7.943   7.095   7.376 -0.4044 -0.3225  1.1883
   934G12c C01J17265   8.045   7.200   7.197  1.5631  0.7100 -0.6709
   934G12c C01K17266   8.097   7.302   7.119 -0.7674  1.6948 -0.9406
   934G12c C01P17267   8.051   7.444   7.107 -0.5659  0.6629 -0.7327
   934G12c C01Q17268   7.921   7.503   7.121 -0.2281 -0.6293 -0.2576
   934G12c H00G17269   7.919   7.610   7.135  0.3059  0.4317 -6.6566
   934G12c C01R17270   7.812   7.458   7.065 -0.4639 -0.0946  0.4636
   934G12c H00F17271   7.752   7.544   7.040 -1.4976 -1.9330 -3.8422
   934G12c C01S17272   7.788   7.338   6.986 -0.4030 -1.4443 -0.4051
   934G12c H00E17273   7.865   7.261   6.989  0.1511 -0.9163  4.8508
   934G12c H00D17274   7.686   7.301   6.985 -1.4799  1.1164  3.3416
   934G12c O00517275   7.821   7.375   6.854 -0.4059 -0.7336  1.1943
   934G12c H00C17276   7.895   7.321   6.832  2.4286  4.1259 -2.0206
   934G12c C01O17277   8.146   7.536   7.084 -0.4251  0.7541 -0.4173
   934G12c H00H17278   8.118   7.639   7.066  0.4089  0.3348 -4.6578
   934G12c C01N17279   8.276   7.505   7.038 -0.4680 -1.3309 -0.3855
   934G12c O00617280   8.351   7.608   6.992 -0.9986 -0.8079 -0.0325
   934G12c C01T17281   8.496   7.623   7.011 -0.4204 -0.7084  2.1237
   934G12c H00K17282   8.521   7.724   6.979  0.0227 -0.3831  3.4653
   934G12c H00J17283   8.534   7.585   7.106 -3.8019 -1.1471  3.3934
   934G12c H00I17284   8.567   7.574   6.945  0.1738  0.6417  1.7648
   934G12c C01M17285   8.303   7.368   7.023 -1.7884  0.7891  0.2722
   934G12c C02017286   8.258   6.910   7.093  1.1557  0.0113 -0.2508
   934G12c C02117287   8.354   6.887   6.980  0.8907  0.0712  0.1935
   934G12c C01L17288   8.211   7.269   7.058 -0.9203  0.0041  1.6860
   934G12c O00717289   8.435   7.352   6.995 -0.4057  0.0749  0.3443
   934G12c C02217290   8.405   6.996   6.913 -2.2290  0.5872 -0.8640
   934G12c C02317291   8.436   6.786   7.005 -0.2979  0.6071 -0.6339
   934G12c C00G17292   8.665   6.664   7.097  1.0382  1.0527 -0.7951
   934G12c C00E17293   8.885   6.574   7.052  0.5158  0.0507 -0.3833
   934G12c O00A17294   8.965   6.463   7.025  0.3103 -1.2279  0.6864
   934G12c C02417295   8.883   6.334   7.027 -0.2968 -0.2861  0.2073
   934G12c H00V17296   8.788   6.325   7.080 -1.6395  4.8878 -1.0969
   934G12c H00U17297   8.941   6.266   7.089  3.0904  5.8990  4.3370
   934G12c H00T17298   8.890   6.311   6.920 -1.7971 -0.0515  0.0488
   944G12c C00D17299  11.619   0.173   4.652  1.5962  0.8885  0.3837
   944G12c O00B17300  11.572   0.241   4.757  1.1215  0.0209 -0.7013
   944G12c C02517301  11.595   0.177   4.880 -1.5136 -0.5025 -0.0891
   944G12c C02617302  11.507   0.059   4.937  0.3196 -0.5270  2.3235
   944G12c H00Y17303  11.488   0.058   5.044  3.0456 -1.1986  2.8451
   944G12c H00X17304  11.550  -0.040   4.924  0.4581 -0.1271 -0.7695
   944G12c O00C17305  11.371   0.085   4.955 -0.1586 -0.8352  0.0952
   944G12c H00W17306  11.351   0.156   4.896 -1.2297  1.7038  3.3642
   944G12c C02717307  11.683   0.242   4.972  0.5936 -0.5648  0.3561
   944G12c O00D17308  11.707   0.195   5.099 -0.2950 -1.4886 -0.2487
   944G12c H00Z17309  11.642   0.127   5.101 -2.0656  0.1819  3.4265
   944G12c C02817310  11.753   0.371   4.923  0.0460 -0.2193 -0.7882
   944G12c C02917311  11.692   0.473   4.856 -0.5161  1.1085  0.7337
   944G12c H01017312  11.586   0.453   4.853  0.2835 -4.2058  2.7560
   944G12c C02T17313  11.773   0.578   4.806  0.3896  1.1096  1.5795
   944G12c H01O17314  11.740   0.653   4.736  3.8989 -0.0629 -1.4866
   944G12c C02S17315  11.911   0.583   4.820 -1.8986  0.5493 -1.1303
   944G12c O00J17316  11.970   0.697   4.784 -0.7971 -0.8520 -0.4594
   944G12c H01P17317  12.052   0.673   4.825 -2.1596 -2.1914  1.5764
   944G12c C02R17318  11.960   0.509   4.930  0.9734 -1.1396 -0.9974
   944G12c O00I17319  12.073   0.550   4.996  0.2990  0.3451 -0.5806
   944G12c C02Q17320  12.086   0.506   5.128  1.3859 -0.5260  0.9117
   944G12c H01N17321  11.993   0.485   5.181  1.3905 -3.4273 -0.1165
   944G12c H01R17322  12.123   0.588   5.190 -7.2677 -0.7997  7.4244
   944G12c H01Q17323  12.185   0.459   5.124  2.0756  1.0683 -2.7712
   944G12c C02A17324  11.881   0.406   4.969  1.1886  0.4971 -1.0701
   944G12c H01117325  11.910   0.327   5.037 -3.1106 -1.8882 -1.8097
   944G12c C00C17326  11.751   0.130   4.639  0.5640 -0.4731  0.7253
   944G12c H01217327  11.814   0.143   4.726 -0.4132 -1.0326  1.5285
   944G12c C00B17328  11.785   0.064   4.528  0.2687  0.7787  1.5170
   944G12c C00A17329  11.914   0.021   4.481  0.0369  1.3362 -1.0626
   944G12c C00917330  12.032   0.081   4.528  0.7623 -1.2758  0.2502
   944G12c C00817331  12.068   0.190   4.609 -1.7138 -2.5688  0.1371
   944G12c H01317332  12.008   0.270   4.650  2.5164 -0.4857  2.6017
   944G12c C00717333  12.208   0.216   4.620  1.1458 -0.9057  0.7182
   944G12c H01417334  12.238   0.311   4.662 -0.3548 -0.3872  0.6371
   944G12c C00617335  12.284   0.172   4.503  1.0424  0.3633  0.2262
   944G12c C00517336  12.242   0.074   4.410 -1.1618  0.8231 -1.5942
   944G12c C00417337  12.290   0.088   4.287  1.5551 -0.5326 -1.0842
   944G12c C00317338  12.227   0.010   4.183  1.0067 -0.8682 -0.4315
   944G12c C00217339  12.277   0.043   4.053 -0.3320  1.0069  0.1596
   944G12c C00117340  12.229  -0.019   3.931 -1.0707 -0.9914 -3.0092
   944G12c C00M17341  12.092  -0.013   3.883 -0.1187  0.4146 -0.3600
   944G12c C00L17342  11.985  -0.056   3.964 -1.3084 -0.2434  0.5142
   944G12c C00R17343  11.844  -0.037   3.927  0.2554  1.3864 -0.9703
   944G12c C00Q17344  11.759   0.002   3.818 -0.7005  0.1968  0.4747
   944G12c C00V17345  11.627   0.020   3.855  1.6159  0.5130  0.1206
   944G12c C00U17346  11.570  -0.008   3.978 -0.1964 -0.5949 -0.8541
   944G12c C00T17347  11.647  -0.062   4.077 -0.8843 -1.2180  0.3783
   944G12c C01617348  11.610  -0.046   4.215 -1.6259 -1.7809  0.6945
   944G12c C01517349  11.478  -0.016   4.236  0.7700  0.9588  0.1571
   944G12c C01017350  11.395  -0.018   4.127  0.6407 -0.1732 -0.8280
   944G12c C01117351  11.260  -0.008   4.172 -1.1164  1.6663  0.4194
   944G12c H00517352  11.198  -0.036   4.088  0.0797 -4.8565  1.4171
   944G12c C01217353  11.220   0.034   4.289  0.1335 -1.9229 -1.3907
   944G12c C01717354  11.080   0.011   4.321  1.5185 -1.8971  0.4463
   944G12c O00217355  11.055  -0.072   4.415 -0.5280  0.7617  0.7923
   944G12c H00417356  10.962  -0.086   4.419  0.0443 -3.4343  2.9380
   944G12c C01817357  11.001   0.114   4.283 -1.3866  2.4132  0.8341
   944G12c O00117358  11.037   0.204   4.179 -0.7419 -0.4142 -1.8109
   944G12c H00317359  10.951   0.210   4.139 -2.0637 -0.9754  0.8102
   944G12c C01917360  10.864   0.127   4.338  0.9417  0.5089 -1.5569
   944G12c H00217361  10.816   0.071   4.419 -2.5607  4.0641 -1.0171
   944G12c H00117362  10.905   0.195   4.413  0.3781  3.2009 -3.6162
   944G12c O00017363  10.783   0.197   4.260  1.5865 -0.7644  1.6294
   944G12c C01A17364  10.711   0.284   4.332  0.0173  1.2014 -0.8832
   944G12c C02K17365  10.581   0.242   4.381 -0.7362 -1.2466 -0.8929
   944G12c O00G17366  10.502   0.167   4.301  0.0348  0.0291 -0.4938
   944G12c C02M17367  10.564   0.039   4.231 -0.5868 -0.9839 -0.7197
   944G12c H01G17368  10.614  -0.009   4.316 -2.7382  0.3453  1.3527
   944G12c H01F17369  10.609   0.038   4.131 -4.7487 -0.0337 -2.6986
   944G12c H01E17370  10.494  -0.034   4.191 -5.4694  0.5787  4.3874
   944G12c C02J17371  10.531   0.304   4.490 -1.5198  0.3329  0.3602
   944G12c H01H17372  10.433   0.277   4.526 -1.4289 -3.4405 -2.0051
   944G12c C02I17373  10.593   0.421   4.550  0.1958  0.3194 -0.1192
   944G12c C02N17374  10.536   0.474   4.669  0.6747 -1.1451 -0.9826
   944G12c H01M17375  10.530   0.435   4.769  3.5086  0.9065  0.0448
   944G12c C02O17376  10.444   0.561   4.621 -1.2175  0.9068 -0.3769
   944G12c H01L17377  10.444   0.588   4.516  0.0398  4.2863  0.4172
   944G12c C02P17378  10.312   0.619   4.676 -0.3388 -0.0715  0.1792
   944G12c H01K17379  10.235   0.589   4.604 -2.8274 -0.2842  2.8582
   944G12c H01J17380  10.319   0.570   4.772  0.9602  2.5503  1.4781
   944G12c O00H17381  10.307   0.766   4.679 -0.8018  0.6678 -0.4535
   944G12c H01I17382  10.376   0.781   4.615 -0.2566  6.9914  1.2684
   944G12c C02H17383  10.704   0.473   4.481 -0.0853  1.8060  0.8483
   944G12c H01C17384  10.771   0.558   4.484 -0.4456  2.3806 -3.3290
   944G12c C02L17385  10.769   0.397   4.384 -0.1908 -1.7408  1.2244
   944G12c H01D17386  10.870   0.434   4.368 -2.1689  2.3592 -3.0321
   944G12c C01317387  11.314   0.055   4.387  0.6609 -0.9251  1.6807
   944G12c H00017388  11.273   0.066   4.486 -1.7977 -3.8944  1.0814
   944G12c C01417389  11.452   0.029   4.367  1.0756 -1.3782  0.1711
   944G12c C00F17390  11.540   0.044   4.472 -1.7898  0.6160 -0.6155
   944G12c C00H17391  11.704  -0.056   4.323  0.2576 -1.3272 -0.1418
   944G12c C00I17392  11.840  -0.087   4.293 -0.8999 -0.2582  1.0256
   944G12c C00J17393  11.861  -0.109   4.156 -0.6872  0.7335 -0.5981
   944G12c C00Z17394  11.438   0.005   3.995  1.0116 -0.5386 -0.7385
   944G12c C00Y17395  11.342   0.032   3.884 -0.2396  1.1623 -0.9785
   944G12c H00617396  11.250   0.058   3.934 -1.8520 -5.4483 -0.1067
   944G12c C00X17397  11.395   0.040   3.759  1.1526  0.1489  0.0968
   944G12c O00317398  11.311   0.068   3.644 -0.3878 -1.1879  0.8730
   944G12c C01B17399  11.194   0.126   3.658 -0.3685 -0.6729  0.0157
   944G12c H00917400  11.117   0.050   3.667 -0.1399 -0.6353  3.1948
   944G12c H00817401  11.174   0.200   3.580  1.4727  1.1179  1.1873
   944G12c H00717402  11.178   0.169   3.757  2.6232  0.2807  0.1262
   944G12c C00W17403  11.537   0.056   3.747 -0.0408  0.4959 -0.6826
   944G12c O00417404  11.585   0.096   3.617 -0.4358  2.0261  0.3078
   944G12c C01C17405  11.709   0.052   3.601 -0.5196  0.2888  1.0044
   944G12c H00A17406  11.697  -0.040   3.546 -1.2681 -0.7590  2.8822
   944G12c C00P17407  11.821   0.040   3.695 -0.0218  0.0517  0.6622
   944G12c C00O17408  11.958   0.089   3.688 -0.3120 -0.8215 -0.3312
   944G12c C01D17409  11.977   0.194   3.596  0.7594 -0.2426  0.5348
   944G12c H00S17410  11.896   0.216   3.527  1.6978  2.1410  0.1543
   944G12c C01E17411  12.091   0.252   3.560 -1.4514  0.5150 -1.2277
   944G12c O00817412  12.067   0.378   3.506  0.2638  0.8840  0.5055
   944G12c C01V17413  12.058   0.408   3.371  0.7950 -1.9718  0.2385
   944G12c C01Z17414  12.029   0.551   3.345  1.1357 -1.4759 -0.4951
   944G12c H00R17415  12.052   0.581   3.243  0.9134 -3.2162 -1.0797
   944G12c H00Q17416  11.942   0.586   3.401  0.9860 -0.5856 -1.2819
   944G12c O00917417  12.124   0.639   3.382  0.4558 -1.8035 -0.1204
   944G12c H00P17418  12.090   0.702   3.444  6.7756 -1.2462  3.1901
   944G12c C01W17419  12.097   0.320   3.266 -0.7086 -0.3761 -0.1652
   944G12c H00O17420  12.154   0.237   3.304 -1.3048  1.1101  4.2600
   944G12c C01X17421  12.045   0.348   3.133  0.9435  0.1194 -0.1295
   944G12c H00N17422  11.978   0.274   3.089  0.0867  1.9867 -2.0384
   944G12c H00M17423  11.966   0.418   3.158 -2.7114 -5.5547  5.9453
   944G12c C01Y17424  12.159   0.385   3.049  1.5502  0.9035 -1.6749
   944G12c C02D17425  12.291   0.398   3.096  0.0480 -0.2258  0.2498
   944G12c H01917426  12.297   0.406   3.204  2.1543  3.8445 -0.0751
   944G12c C02C17427  12.394   0.413   2.999 -0.6123  1.3259  0.4241
   944G12c H01A17428  12.493   0.426   3.039 -1.6072 -3.7332  5.1843
   944G12c C02B17429  12.366   0.410   2.858  1.2753 -0.5568  1.4724
   944G12c O00E17430  12.459   0.422   2.754 -0.6214  0.2835  1.0455
   944G12c H01B17431  12.500   0.353   2.704 -4.5021 -0.6613 -1.0188
   944G12c C02F17432  12.230   0.414   2.821 -0.9732 -1.4342 -0.0308
   944G12c O00F17433  12.200   0.420   2.684  1.5796 -0.7545  0.2797
   944G12c C02G17434  12.085   0.334   2.634  1.6647 -0.1638  0.1119
   944G12c H01717435  11.991   0.357   2.685  0.6844  3.1449 -2.8992
   944G12c H01617436  12.121   0.232   2.628 -0.8864 -0.9413 -5.6080
   944G12c H01517437  12.067   0.347   2.527 -2.2464 -0.6149  0.6474
   944G12c C02E17438  12.130   0.429   2.921  0.7337  1.9503  0.5990
   944G12c H01817439  12.027   0.421   2.888  1.0498  1.9617 -0.4098
   944G12c C01F17440  12.199   0.230   3.663 -0.1082 -1.6355 -0.9014
   944G12c C01G17441  12.305   0.311   3.693 -1.6122  1.1975 -1.2243
   944G12c H00L17442  12.362   0.381   3.635  0.2402 -0.7258 -1.7936
   944G12c C01H17443  12.379   0.293   3.816  0.8967  0.1939  0.1235
   944G12c H00B17444  12.465   0.355   3.839  2.3945 -1.8729  0.2028
   944G12c C01I17445  12.364   0.174   3.898 -1.2999 -0.0680 -0.9620
   944G12c C01U17446  12.199   0.115   3.740  0.2677  0.1469  0.5583
   944G12c C00S17447  11.773  -0.103   4.041 -1.6990  0.9157  0.0629
   944G12c C00K17448  11.993  -0.065   4.102 -0.2248  0.9145 -0.6701
   944G12c C00N17449  12.085   0.060   3.763 -0.0609  0.6960 -2.2163
   944G12c C00017450  12.302   0.064   3.834  0.4398 -1.5295  1.0031
   944G12c C01J17451  12.378   0.144   4.035  0.2332 -0.2562 -0.5361
   944G12c C01K17452  12.444   0.229   4.137 -0.2524 -0.4997  0.1359
   944G12c C01P17453  12.555   0.313   4.136  0.4742 -1.8491 -0.1681
   944G12c C01Q17454  12.663   0.283   4.074  0.0626 -0.4088  1.5680
   944G12c H00G17455  12.723   0.193   4.075  4.6613  2.3797 -1.2712
   944G12c C01R17456  12.696   0.368   3.969  0.3819 -0.1581 -0.3635
   944G12c H00F17457  12.793   0.347   3.927  4.1756  2.5591  6.3170
   944G12c C01S17458  12.652   0.502   3.945 -0.4735  0.6420  0.1783
   944G12c H00E17459  12.556   0.519   3.993 -1.8497 -3.1513 -1.0173
   944G12c H00D17460  12.727   0.575   3.977 -1.7805  1.9184  0.3665
   944G12c O00517461  12.653   0.499   3.792  0.5242 -1.1234  0.4561
   944G12c H00C17462  12.723   0.560   3.774 -3.0350  2.8385 -0.9968
   944G12c C01O17463  12.581   0.405   4.239  0.7529 -2.5192  1.8205
   944G12c H00H17464  12.664   0.472   4.254 -0.0147 -2.1024  4.6076
   944G12c C01N17465  12.495   0.394   4.354 -0.5547 -1.6835 -0.7989
   944G12c O00617466  12.509   0.481   4.463  0.2799  2.1183  1.4859
   944G12c C01T17467  12.402   0.561   4.522  0.4096 -0.2129 -0.4287
   944G12c H00K17468  12.389   0.646   4.455  1.1123  2.4188  2.6454
   944G12c H00J17469  12.441   0.597   4.617  3.3572  2.8032 -2.6756
   944G12c H00I17470  12.300   0.523   4.522  1.2534 -3.2755  6.6549
   944G12c C01M17471  12.423   0.275   4.371  0.0160 -0.5736  0.6872
   944G12c C02017472  12.093  -0.059   4.203  0.1316 -2.5786  0.7280
   944G12c C02117473  12.069  -0.076   4.349 -1.1562  0.4006 -0.5944
   944G12c C01L17474  12.388   0.187   4.261  0.5595  0.5356  0.9146
   944G12c O00717475  12.398   0.228   4.499 -0.7647  0.9183 -2.1257
   944G12c C02217476  12.123   0.015   4.438  1.0686 -1.9630  0.7680
   944G12c C02317477  11.923  -0.082   4.387  0.3227 -0.2916  1.5674
   944G12c C00G17478  11.676   0.012   4.444  1.1505 -0.7645 -1.6214
   944G12c C00E17479  11.520   0.139   4.574  0.1628  0.9419 -1.3231
   944G12c O00A17480  11.395   0.188   4.620 -0.7157 -0.0525  2.3358
   944G12c C02417481  11.374   0.313   4.547  1.9222 -0.5317 -0.1188
   944G12c H00V17482  11.402   0.297   4.443 -1.2834 -0.7260 -1.0070
   944G12c H00U17483  11.402   0.399   4.608 -3.4914  0.8406  0.7076
   944G12c H00T17484  11.276   0.325   4.502  3.0454  1.7352 -2.0817
   954G12c C00D17485   2.210   8.641  12.208 -0.2844 -0.6414 -0.3928
   954G12c O00B17486   2.129   8.665  12.336  0.1158  1.6343  0.8937
   954G12c C02517487   2.175   8.767  12.401 -0.6849 -0.7185  1.7528
   954G12c C02617488   2.324   8.752  12.444  0.8920  1.0054 -0.1396
   954G12c H00Y17489   2.362   8.834  12.505 -0.6506  0.9839  0.8680
   954G12c H00X17490   2.417   8.728  12.392  1.8738  0.0706  1.9830
   954G12c O00C17491   2.365   8.673  12.528  0.0024  0.3439  0.6310
   954G12c H00W17492   2.295   8.629  12.575  0.0746  1.9695  2.3077
   954G12c C02717493   2.080   8.860  12.449  0.7360 -0.0362 -0.6409
   954G12c O00D17494   1.938   8.849  12.421  0.0699  1.3025 -0.1216
   954G12c H00Z17495   1.914   8.774  12.370 -8.7930  4.0925 -0.9212
   954G12c C02817496   2.108   8.957  12.551 -1.0041 -0.4627 -0.9076
   954G12c C02917497   2.097   9.093  12.538 -2.0615  1.4033  1.2868
   954G12c H01017498   2.107   9.129  12.436  4.5611 -2.2167  0.3496
   954G12c C02T17499   2.135   9.183  12.647 -1.0891  1.3016  0.4295
   954G12c H01O17500   2.128   9.290  12.661 -0.3710  0.8239  5.4115
   954G12c C02S17501   2.206   9.138  12.762 -1.8110  0.1566 -1.1261
   954G12c O00J17502   2.237   9.218  12.863  1.4633 -0.3301  0.3079
   954G12c H01P17503   2.301   9.165  12.909  1.7671 -1.1692 -1.0454
   954G12c C02R17504   2.207   9.000  12.794 -0.4465  0.7147  0.8072
   954G12c O00I17505   2.239   8.963  12.928 -0.5814  0.3960  0.8340
   954G12c C02Q17506   2.141   8.998  13.027 -1.1123 -0.2290 -1.1602
   954G12c H01N17507   2.040   8.994  12.986 -2.5544 -6.0810  2.4872
   954G12c H01R17508   2.162   8.951  13.123 -0.8710 -4.6996 -3.2838
   954G12c H01Q17509   2.123   9.103  13.051 -0.3782 -1.8225  8.7865
   954G12c C02A17510   2.155   8.920  12.691  0.0310 -0.4798  0.4783
   954G12c H01117511   2.140   8.814  12.702  6.1506 -1.7755 -1.8146
   954G12c C00C17512   2.191   8.518  12.127 -0.5943 -0.6176 -1.9644
   954G12c H01217513   2.147   8.446  12.194  2.2144 -0.3883  0.2472
   954G12c C00B17514   2.272   8.503  12.000  1.6952  0.4063  0.2517
   954G12c C00A17515   2.297   8.386  11.907 -0.8613 -0.1098  0.3516
   954G12c C00917516   2.337   8.245  11.951 -0.8774 -0.0878  1.5340
   954G12c C00817517   2.309   8.176  12.069  1.3203  0.1981 -0.1713
   954G12c H01317518   2.218   8.184  12.127  0.1963 -4.7549 -0.9511
   954G12c C00717519   2.396   8.062  12.097 -0.1625 -1.4806  0.4511
   954G12c H01417520   2.385   8.024  12.197  5.0244 -6.5681 -0.6283
   954G12c C00617521   2.501   8.017  12.012 -0.6875  2.4576 -0.3299
   954G12c C00517522   2.501   8.071  11.890 -0.4280  1.1933  0.5456
   954G12c C00417523   2.618   8.055  11.798  1.8125 -0.0251 -0.7162
   954G12c C00317524   2.640   8.139  11.687  0.8959  0.1003  0.0241
   954G12c C00217525   2.771   8.122  11.623 -0.4870 -1.2524 -0.4762
   954G12c C00117526   2.835   8.197  11.518 -1.5176 -0.7809 -0.7727
   954G12c C00M17527   2.846   8.344  11.503  0.4442 -0.0348 -0.3673
   954G12c C00L17528   2.777   8.424  11.592 -1.5257 -0.2344  0.1215
   954G12c C00R17529   2.789   8.567  11.625  0.9070  0.7089  0.2939
   954G12c C00Q17530   2.915   8.636  11.637  0.1148 -1.5191 -0.5395
   954G12c C00V17531   2.899   8.761  11.695  0.4162 -0.9469  0.3485
   954G12c C00U17532   2.786   8.790  11.787  1.0486 -1.4491 -0.7620
   954G12c C00T17533   2.694   8.700  11.794  0.4556 -0.8745 -2.5966
   954G12c C01617534   2.589   8.697  11.878 -0.1198  0.8331 -0.2701
   954G12c C01517535   2.575   8.810  11.960  1.5850  0.4000  1.0405
   954G12c C01017536   2.677   8.910  11.963  2.5667  0.8386  0.3249
   954G12c C01117537   2.665   9.025  12.034 -0.5293 -0.7640 -0.6611
   954G12c H00517538   2.736   9.106  12.021  0.2439 -1.0309  1.6215
   954G12c C01217539   2.539   9.053  12.091 -1.0485  0.4076 -0.0427
   954G12c C01717540   2.517   9.169  12.170 -1.5244 -0.2075 -0.7376
   954G12c O00217541   2.398   9.228  12.155 -0.5108 -0.4212 -0.0382
   954G12c H00417542   2.400   9.289  12.083  2.4135  1.1370  1.2643
   954G12c C01817543   2.605   9.202  12.271 -0.0211  2.8214 -1.0683
   954G12c O00117544   2.717   9.146  12.257 -0.5216  0.6162  0.8315
   954G12c H00317545   2.790   9.176  12.309  0.1698  4.3117 -2.0553
   954G12c C01917546   2.582   9.279  12.398 -0.8029 -0.8510 -1.2751
   954G12c H00217547   2.480   9.250  12.424 -0.8786  2.5728  2.7815
   954G12c H00117548   2.630   9.261  12.494  2.2542 -0.1472 -2.6278
   954G12c O00017549   2.560   9.423  12.372 -1.2953  1.1850  0.5147
   954G12c C01A17550   2.681   9.509  12.367 -1.8520 -2.2703  0.8855
   954G12c C02K17551   2.812   9.486  12.426  1.2134 -1.4999 -0.0737
   954G12c O00G17552   2.873   9.399  12.515  0.8176 -0.7257 -0.1046
   954G12c C02M17553   2.814   9.424  12.650 -0.7289  0.2345 -2.1764
   954G12c H01G17554   2.899   9.420  12.719 -3.6936  0.8604  1.6629
   954G12c H01F17555   2.763   9.329  12.634  3.1381 -1.7227 -3.5589
   954G12c H01E17556   2.737   9.495  12.679 -3.1600 -4.4110  3.5666
   954G12c C02J17557   2.913   9.572  12.362  0.4107 -0.1318  1.5423
   954G12c H01H17558   3.013   9.536  12.378  0.2345 -6.0221 -6.7708
   954G12c C02I17559   2.903   9.677  12.273 -2.5477 -0.9675 -0.7199
   954G12c C02N17560   2.997   9.744  12.197 -0.3519 -0.1445  0.3146
   954G12c H01M17561   2.993   9.821  12.121  4.1266  0.4626  0.5832
   954G12c C02O17562   3.128   9.733  12.236  0.2760  0.3628 -0.0722
   954G12c H01L17563   3.155   9.671  12.320 -2.1380 -0.5064  0.0906
   954G12c C02P17564   3.235   9.780  12.151  0.0060  0.7573 -0.5506
   954G12c H01K17565   3.223   9.872  12.093  3.7637  1.0672 -1.0042
   954G12c H01J17566   3.328   9.812  12.200 -2.0139  3.7258  1.5640
   954G12c O00H17567   3.266   9.686  12.048 -1.1562  0.6392 -0.9824
   954G12c H01I17568   3.360   9.686  12.047 -1.0164 -4.1654  0.0895
   954G12c C02H17569   2.779   9.701  12.237  0.4383  1.3650  1.6279
   954G12c H01C17570   2.773   9.774  12.157 -0.4492 -0.2791  0.1477
   954G12c C02L17571   2.664   9.620  12.271  0.0361  0.9133  0.6458
   954G12c H01D17572   2.566   9.616  12.225 -0.7254 -4.7505  2.3943
   954G12c C01317573   2.449   8.946  12.094 -0.8169 -0.3359  0.6637
   954G12c H00017574   2.362   8.988  12.142 -1.8587 -2.5484  0.7431
   954G12c C01417575   2.452   8.839  12.012  1.5760 -0.6492  0.2811
   954G12c C00F17576   2.375   8.725  12.045 -0.8631  0.9424 -0.6884
   954G12c C00H17577   2.484   8.584  11.882 -1.3228  1.0752  0.6088
   954G12c C00I17578   2.472   8.493  11.781 -0.5700  1.0514  1.3724
   954G12c C00J17579   2.596   8.499  11.707 -0.2304  0.7705 -1.4608
   954G12c C00Z17580   2.773   8.902  11.858 -0.4805  0.3025  1.4882
   954G12c C00Y17581   2.887   8.984  11.844 -0.2614 -0.0138 -2.3226
   954G12c H00617582   2.880   9.084  11.884  1.7814 -1.7179  2.6380
   954G12c C00X17583   2.996   8.972  11.747  0.4180  0.3846 -0.9410
   954G12c O00317584   3.096   9.061  11.736  0.3774 -0.6132  1.0592
   954G12c C01B17585   3.189   9.062  11.635 -0.5822 -0.9209 -0.0988
   954G12c H00917586   3.143   9.119  11.554  3.0051  7.3882  3.1557
   954G12c H00817587   3.251   8.973  11.634  0.5839 -0.1090 -0.8343
   954G12c H00717588   3.248   9.134  11.690  5.1492 -3.6242 -2.3015
   954G12c C00W17589   2.982   8.865  11.657  0.5360 -0.1557  1.3362
   954G12c O00417590   3.050   8.848  11.533  0.0571  0.1479  1.4224
   954G12c C01C17591   3.121   8.730  11.544  0.2381  0.8826 -2.2405
   954G12c H00A17592   3.216   8.738  11.596 -0.6846  1.0160 -0.5273
   954G12c C00P17593   3.034   8.605  11.556  0.8349 -0.3978  0.0062
   954G12c C00O17594   3.084   8.469  11.512 -2.4715 -1.0031  0.8519
   954G12c C01D17595   3.216   8.441  11.474 -0.2987 -0.8292  0.5801
   954G12c H00S17596   3.291   8.516  11.456 -3.3682  3.1083  3.2138
   954G12c C01E17597   3.273   8.306  11.469  1.0977  0.6132 -1.8756
   954G12c O00817598   3.407   8.292  11.455 -0.1878 -0.7269 -0.3421
   954G12c C01V17599   3.485   8.277  11.342  0.2262  1.3993 -0.6117
   954G12c C01Z17600   3.621   8.250  11.374 -1.2277 -0.3973 -0.6088
   954G12c H00R17601   3.670   8.313  11.448 -5.1598  9.1317 -5.2504
   954G12c H00Q17602   3.624   8.142  11.366 -0.1426 -0.3500 -0.8460
   954G12c O00917603   3.723   8.258  11.267 -0.1211 -0.1402  1.4037
   954G12c H00P17604   3.770   8.340  11.268  5.9557 -3.2796  3.0352
   954G12c C01W17605   3.446   8.295  11.218 -0.8143  0.2602 -1.8977
   954G12c H00O17606   3.339   8.283  11.204 -2.2157 -2.2876  7.4832
   954G12c C01X17607   3.536   8.290  11.085  0.2455  0.9950 -0.3874
   954G12c H00N17608   3.609   8.209  11.078  2.0342  2.8149 -4.6046
   954G12c H00M17609   3.470   8.216  11.041 -3.8254  5.2459 -1.7849
   954G12c C01Y17610   3.613   8.411  11.036 -0.2314  1.2878 -0.3431
   954G12c C02D17611   3.574   8.541  11.050 -0.6978 -1.9918  0.5193
   954G12c H01917612   3.492   8.548  11.121 -5.3138 -0.7342 -4.5756
   954G12c C02C17613   3.649   8.646  11.001  0.8901  1.5453  1.7905
   954G12c H01A17614   3.611   8.743  11.028 -4.0007  0.6021 -1.1242
   954G12c C02B17615   3.741   8.620  10.902  0.9228 -1.6557  0.1286
   954G12c O00E17616   3.789   8.722  10.838  1.0168  0.3212  0.1391
   954G12c H01B17617   3.877   8.749  10.860 -1.0040  4.6550  3.7574
   954G12c C02F17618   3.779   8.493  10.869 -0.3250  1.1962 -1.7129
   954G12c O00F17619   3.878   8.487  10.762  1.2729  0.5161 -0.7891
   954G12c C02G17620   3.810   8.493  10.635  1.4270 -1.0788  0.5877
   954G12c H01717621   3.842   8.586  10.589 -2.4350  4.2033  7.5071
   954G12c H01617622   3.703   8.498  10.659 -0.8397  2.3177 -8.2637
   954G12c H01517623   3.816   8.407  10.569 -2.3886 -3.1791  2.7856
   954G12c C02E17624   3.718   8.384  10.931 -0.0091 -0.4947 -0.2289
   954G12c H01817625   3.756   8.295  10.884  2.3265  1.6228 -2.5048
   954G12c C01F17626   3.192   8.196  11.489  2.6936  1.5006 -1.2997
   954G12c C01G17627   3.215   8.058  11.542  1.1218 -0.2092 -1.7593
   954G12c H00L17628   3.307   8.057  11.599  0.5172 -3.1443 -0.7422
   954G12c C01H17629   3.103   7.979  11.600  0.4684 -0.9045  0.9319
   954G12c H00B17630   3.135   7.902  11.668  3.3275  2.8519  4.0460
   954G12c C01I17631   2.969   8.021  11.566  0.7920  1.3821 -0.3031
   954G12c C01U17632   3.060   8.228  11.464 -0.0549  0.1016  0.0888
   954G12c C00S17633   2.683   8.610  11.697  0.7172 -0.9384 -0.9306
   954G12c C00K17634   2.655   8.374  11.667 -1.0904 -0.5153  0.5230
   954G12c C00N17635   3.001   8.359  11.497  2.2516  1.2778 -1.4424
   954G12c C00017636   2.954   8.128  11.493  1.0706  0.2607  0.6180
   954G12c C01J17637   2.849   7.990  11.625 -0.7753  0.2955 -0.4505
   954G12c C01K17638   2.795   7.898  11.722  1.5314  1.0852  0.4852
   954G12c C01P17639   2.855   7.768  11.741  1.0223 -1.3997 -1.0977
   954G12c C01Q17640   2.943   7.678  11.653 -0.0103  0.0793  0.7636
   954G12c H00G17641   3.036   7.653  11.702 -2.1137 -2.5335  3.5687
   954G12c C01R17642   2.881   7.589  11.567  0.0850 -0.5816  0.0323
   954G12c H00F17643   2.773   7.598  11.559 -0.2520  1.6487  5.1805
   954G12c C01S17644   2.947   7.475  11.491 -0.0641  1.5724 -0.8827
   954G12c H00E17645   2.994   7.398  11.552  3.9013  3.7696 -0.9774
   954G12c H00D17646   2.883   7.425  11.419  0.2400 -2.0159  1.2227
   954G12c O00517647   3.064   7.492  11.403 -1.0279 -1.1172 -2.5550
   954G12c H00C17648   3.133   7.483  11.467 -1.2596 -0.3044 -2.1817
   954G12c C01O17649   2.818   7.701  11.854 -2.0265 -0.1422  2.4790
   954G12c H00H17650   2.864   7.610  11.889 -3.4175 -1.0962  1.8758
   954G12c C01N17651   2.734   7.752  11.960  0.9149  0.6835  0.5961
   954G12c O00617652   2.695   7.671  12.058  0.0417 -1.5155  0.2785
   954G12c C01T17653   2.801   7.599  12.146  0.6585 -1.7708  0.3837
   954G12c H00K17654   2.898   7.636  12.181  2.0763 -0.5365 -4.5444
   954G12c H00J17655   2.846   7.527  12.077  6.9218  4.4067 -2.6326
   954G12c H00I17656   2.728   7.581  12.225 -0.7438  2.6590  0.2490
   954G12c C01M17657   2.689   7.878  11.953 -0.2187  0.7574 -2.6740
   954G12c C02017658   2.577   8.265  11.686 -1.7699 -0.4276  0.6716
   954G12c C02117659   2.447   8.265  11.739 -0.2088  0.0263 -0.7877
   954G12c C01L17660   2.693   7.946  11.819 -1.7639 -0.8497 -0.6028
   954G12c O00717661   2.582   7.901  12.042 -0.0431  0.2141 -1.6661
   954G12c C02217662   2.413   8.180  11.849 -0.4316 -0.4653  0.5266
   954G12c C02317663   2.389   8.385  11.796  0.7657 -0.5951 -0.6095
   954G12c C00G17664   2.380   8.601  11.978 -0.0576 -1.8495 -0.8431
   954G12c C00E17665   2.257   8.744  12.129 -0.2615  0.4330 -0.0838
   954G12c O00A17666   2.174   8.861  12.125  0.3467  0.8054 -0.1858
   954G12c C02417667   2.051   8.835  12.047  0.0163 -1.5957 -0.9735
   954G12c H00V17668   2.026   8.733  12.074 -0.5646 -1.6356 -1.6462
   954G12c H00U17669   2.057   8.844  11.939 -0.6573  2.0118 -0.7971
   954G12c H00T17670   2.009   8.936  12.054 -2.4638 -2.4078 -3.1927
   964G12c C00D17671  13.319   9.120  10.645  0.0311 -1.0629 -0.1584
   964G12c O00B17672  13.438   9.076  10.652 -0.3541 -0.7271 -0.1059
   964G12c C02517673  13.537   9.135  10.586 -0.2077 -1.2809 -0.8888
   964G12c C02617674  13.630   9.197  10.683  0.7725 -0.7882 -0.4227
   964G12c H00Y17675  13.727   9.150  10.695 -0.0478 -1.3031  6.1557
   964G12c H00X17676  13.606   9.138  10.772  5.4975  1.5293  2.5494
   964G12c O00C17677  13.631   9.332  10.702  0.6922  0.2515  1.0377
   964G12c H00W17678  13.648   9.374  10.619  3.2938 -0.6685  1.0388
   964G12c C02717679  13.576   9.101  10.458  0.1605  0.5974  0.9920
   964G12c O00D17680  13.702   9.125  10.424 -1.3406  2.1807  1.6702
   964G12c H00Z17681  13.717   9.143  10.332 -3.5941 -4.3927 -0.2830
   964G12c C02817682  13.480   9.083  10.347  0.0049 -2.0250 -0.0211
   964G12c C02917683  13.403   8.974  10.319 -1.0599 -1.1777  0.8061
   964G12c H01017684  13.422   8.893  10.389  3.7560  0.8992  2.1028
   964G12c C02T17685  13.331   8.956  10.188 -0.3036  1.3724  1.0711
   964G12c H01O17686  13.275   8.873  10.148 -2.8603  4.2548 -1.6118
   964G12c C02S17687  13.346   9.082  10.098  0.1290 -0.2689  1.7853
   964G12c O00J17688  13.285   9.055   9.982  0.5531  1.3931 -1.1486
   964G12c H01P17689  13.300   9.129   9.924  2.8181 -1.5409 -4.5630
   964G12c C02R17690  13.425   9.190  10.131 -0.1782  0.7475  0.0780
   964G12c O00I17691  13.433   9.293  10.032  0.6202  0.2735  0.8140
   964G12c C02Q17692  13.460   9.424  10.091  0.9266  1.0434  0.6903
   964G12c H01N17693  13.383   9.446  10.165  0.0819 -2.0976  0.8484
   964G12c H01R17694  13.476   9.468   9.993 -7.4481  0.9433 -1.1389
   964G12c H01Q17695  13.555   9.430  10.143 -1.1795 -0.9044  5.1096
   964G12c C02A17696  13.517   9.162  10.232 -1.1598 -0.4346 -0.6459
   964G12c H01117697  13.572   9.252  10.252 -1.7966  0.7897 -4.1654
   964G12c C00C17698  13.257   9.182  10.540  1.4438  0.4323  0.9096
   964G12c H01217699  13.332   9.230  10.479  3.0692 -2.7066  0.3517
   964G12c C00B17700  13.110   9.159  10.521  0.6629  0.4918 -0.0778
   964G12c C00A17701  13.040   9.193  10.406  0.7208 -0.6200  0.7845
   964G12c C00917702  13.063   9.313  10.335 -1.3804 -0.3255 -1.6177
   964G12c C00817703  13.169   9.402  10.323  0.0034  0.5137 -0.3659
   964G12c H01317704  13.227   9.412  10.413  0.1427 -1.4828 -0.1989
   964G12c C00717705  13.130   9.527  10.245 -0.1639 -0.2223 -0.2194
   964G12c H01417706  13.210   9.598  10.229 -2.3454  1.6451 -3.1694
   964G12c C00617707  13.010   9.576  10.231 -0.2901 -0.9858  1.3505
   964G12c C00517708  12.904   9.482  10.224 -0.7461  0.4984 -2.0569
   964G12c C00417709  12.771   9.525  10.230 -0.7066  1.4300 -0.2967
   964G12c C00317710  12.664   9.426  10.269  0.4376 -0.1194  0.5602
   964G12c C00217711  12.526   9.479  10.275  1.7805  0.8792  0.4368
   964G12c C00117712  12.407   9.420  10.332  0.1843 -0.9989  0.7188
   964G12c C00M17713  12.378   9.332  10.446  0.5752 -0.6041 -1.1740
   964G12c C00L17714  12.482   9.279  10.514 -1.7668  1.4575  0.5564
   964G12c C00R17715  12.491   9.220  10.646 -1.2896  0.8381 -1.1545
   964G12c C00Q17716  12.417   9.227  10.767  0.6354 -0.3588  0.5495
   964G12c C00V17717  12.490   9.187  10.881 -0.8375 -0.9547  0.6360
   964G12c C00U17718  12.608   9.111  10.877 -1.5003 -0.8274  0.2086
   964G12c C00T17719  12.679   9.096  10.760 -0.3270 -2.2776 -0.7125
   964G12c C01617720  12.818   9.073  10.751 -0.2096 -0.3580 -0.3514
   964G12c C01517721  12.891   9.035  10.870  1.5746 -1.1544  0.3966
   964G12c C01017722  12.806   9.001  10.980 -0.3888 -1.4519  0.1501
   964G12c C01117723  12.861   8.920  11.070 -0.6541  0.5111 -1.3188
   964G12c H00517724  12.817   8.874  11.157  3.3024  1.4766  1.2947
   964G12c C01217725  12.996   8.921  11.087  0.1950 -0.6483  1.2118
   964G12c C01717726  13.061   8.907  11.217  1.6822  0.0303 -0.5853
   964G12c O00217727  13.039   9.024  11.293 -0.0516  0.6083 -0.8136
   964G12c H00417728  13.098   9.010  11.366  1.0107 -1.6798 -2.0218
   964G12c C01817729  13.122   8.803  11.259  0.9440  0.6189  0.5891
   964G12c O00117730  13.125   8.710  11.166  0.8651 -0.7143 -0.0402
   964G12c H00317731  13.046   8.709  11.113 -0.3380  3.2924  1.4725
   964G12c C01917732  13.215   8.785  11.387  0.1387  1.0202 -0.7982
   964G12c H00217733  13.159   8.742  11.470  1.1643  3.8174  1.4185
   964G12c H00117734  13.280   8.701  11.362 -5.0574 -4.0789  1.4438
   964G12c O00017735  13.291   8.886  11.440 -0.6872 -1.0394  1.3014
   964G12c C01A17736  13.405   8.856  11.504 -0.0115  0.7342  0.2660
   964G12c C02K17737  13.516   8.919  11.446 -0.5733  1.0865 -1.1253
   964G12c O00G17738  13.514   8.942  11.310 -0.4148  0.0306  0.1390
   964G12c C02M17739  13.581   9.056  11.257  1.3111 -0.2785 -0.1344
   964G12c H01G17740  13.667   9.098  11.308  2.0149 -2.0476  0.1495
   964G12c H01F17741  13.509   9.138  11.248  0.6029  0.5539  8.6466
   964G12c H01E17742  13.575   9.052  11.148 -0.8823 -4.7324  0.0237
   964G12c C02J17743  13.632   8.928  11.537 -1.6099 -0.4979 -0.0864
   964G12c H01H17744  13.719   8.974  11.492 -0.7555 -2.1109 -0.1109
   964G12c C02I17745  13.649   8.868  11.663 -0.9782  1.2729 -0.5118
   964G12c C02N17746  13.775   8.865  11.717 -1.0480 -0.8091  1.0071
   964G12c H01M17747  13.842   8.808  11.654 -3.5488  0.5684 -3.1300
   964G12c C02O17748  13.804   8.906  11.845 -1.5223  0.8452  1.5832
   964G12c H01L17749  13.743   8.957  11.918  0.9294  1.8172  3.0265
   964G12c C02P17750  13.948   8.900  11.904 -1.9276  1.2234  0.0974
   964G12c H01K17751  13.966   8.958  11.994  2.0289  9.4137 -5.3979
   964G12c H01J17752  13.963   8.798  11.941  1.8732  0.7166 -2.6055
   964G12c O00H17753  14.044   8.889  11.804 -0.4840  0.3318 -0.0037
   964G12c H01I17754  14.063   8.975  11.771 -1.6212  1.1144  1.3328
   964G12c C02H17755  13.526   8.795  11.705 -2.4638  0.4727 -0.0633
   964G12c H01C17756  13.538   8.743  11.798  2.8895  3.1718  0.9817
   964G12c C02L17757  13.397   8.829  11.642 -0.0918 -2.1220 -0.9205
   964G12c H01D17758  13.310   8.842  11.703  3.1188 -0.8989  3.6294
   964G12c C01317759  13.073   8.950  10.973  0.1364  1.3796 -1.0469
   964G12c H00017760  13.175   8.918  10.982 -0.3807  0.2038  0.9760
   964G12c C01417761  13.028   9.015  10.855 -0.4731  1.0021 -0.6145
   964G12c C00F17762  13.106   9.052  10.747  1.0555 -0.0164  0.3948
   964G12c C00H17763  12.894   9.095  10.632 -0.5203 -1.3585 -0.4968
   964G12c C00I17764  12.828   9.139  10.515  1.5226 -0.4155 -1.1151
   964G12c C00J17765  12.686   9.167  10.532  0.4199 -0.5977 -0.6029
   964G12c C00Z17766  12.670   9.046  10.986  0.0608  1.7874  0.3922
   964G12c C00Y17767  12.604   9.062  11.118  1.9014  0.1534  0.8842
   964G12c H00617768  12.661   9.041  11.206  0.6187  4.4632  2.8592
   964G12c C00X17769  12.485   9.137  11.123 -0.5331 -1.1620  1.4732
   964G12c O00317770  12.379   9.095  11.182  0.5987 -1.6738  0.6066
   964G12c C01B17771  12.309   9.149  11.283 -0.0331  1.0191 -0.0156
   964G12c H00917772  12.287   9.255  11.292  2.5547  1.3166  3.9539
   964G12c H00817773  12.377   9.140  11.368  0.4106  7.4365  0.5557
   964G12c H00717774  12.230   9.078  11.308  0.7993  0.5928  1.4423
   964G12c C00W17775  12.433   9.219  11.005 -0.2562  0.3543 -1.2009
   964G12c O00417776  12.307   9.287  11.025  0.3893  0.5990  0.7656
   964G12c C01C17777  12.234   9.283  10.910  0.6027 -1.7775  0.3806
   964G12c H00A17778  12.136   9.308  10.949 -3.9456 -1.0074 -9.8406
   964G12c C00P17779  12.291   9.300  10.782 -1.5924 -0.6641 -1.2479
   964G12c C00O17780  12.256   9.407  10.677  1.1203  0.3221 -0.9797
   964G12c C01D17781  12.163   9.510  10.718  0.9437  1.3327  0.2122
   964G12c H00S17782  12.128   9.540  10.815  3.6596  3.3258  0.6158
   964G12c C01E17783  12.128   9.624  10.642  3.0105  0.4949  0.6840
   964G12c O00817784  12.071   9.733  10.680  1.1770 -0.0030 -0.7356
   964G12c C01V17785  12.019   9.759  10.802  0.3676  2.5340 -0.8645
   964G12c C01Z17786  12.094   9.860  10.879 -0.9457 -0.0153 -0.0227
   964G12c H00R17787  12.167   9.930  10.839 -1.2679  4.8639  7.1350
   964G12c H00Q17788  12.026   9.892  10.957 -2.8078  3.8292 -3.0743
   964G12c O00917789  12.176   9.775  10.960 -0.0015  1.2182  0.1884
   964G12c H00P17790  12.262   9.814  10.964  3.2542 -5.3794 -0.3228
   964G12c C01W17791  11.900   9.714  10.843  0.1114  0.9186  1.5299
   964G12c H00O17792  11.854   9.741  10.937  5.3907 -3.5666  5.7925
   964G12c C01X17793  11.805   9.636  10.754 -0.5278  0.1240  0.3429
   964G12c H00N17794  11.702   9.671  10.762  0.1252  1.3606  4.0061
   964G12c H00M17795  11.842   9.633  10.651 -2.9972  0.6184 -0.6098
   964G12c C01Y17796  11.779   9.498  10.789  0.4337  0.4790 -0.6586
   964G12c C02D17797  11.870   9.420  10.875  0.8480  0.3191 -0.4008
   964G12c H01917798  11.974   9.445  10.892  0.4320 -0.0529  3.0509
   964G12c C02C17799  11.833   9.315  10.972 -1.0136  1.8051 -0.5506
   964G12c H01A17800  11.890   9.239  11.024 -1.7022  4.6245  4.7163
   964G12c C02B17801  11.690   9.297  10.981  0.0514  0.4063 -0.6967
   964G12c O00E17802  11.658   9.212  11.074  0.9842  0.3882  0.6713
   964G12c H01B17803  11.564   9.204  11.078  0.6487 -1.0565 -5.2578
   964G12c C02F17804  11.607   9.357  10.890 -1.2163  1.7117 -0.4797
   964G12c O00F17805  11.453   9.348  10.915 -0.4376  1.3874  0.3627
   964G12c C02G17806  11.377   9.474  10.945 -2.0801  1.3217 -0.1506
   964G12c H01717807  11.395   9.566  10.890 -5.5156  2.3322  0.2951
   964G12c H01617808  11.398   9.520  11.041 -0.1242  1.1767 -0.4769
   964G12c H01517809  11.271   9.494  10.941 -1.2537  6.8363  1.6848
   964G12c C02E17810  11.643   9.441  10.779 -0.6321  1.5283  0.1372
   964G12c H01817811  11.556   9.487  10.734 -1.6356 -1.3190 -0.9787
   964G12c C01F17812  12.195   9.631  10.519  0.7063 -0.2249  0.1168
   964G12c C01G17813  12.209   9.755  10.444  0.2638 -0.2757 -1.1729
   964G12c H00L17814  12.160   9.842  10.485  0.7491  1.4626 -4.0693
   964G12c C01H17815  12.307   9.768  10.351 -0.0569  0.9142  1.2519
   964G12c H00B17816  12.343   9.861  10.310  3.0810  2.0270  6.1807
   964G12c C01I17817  12.371   9.651  10.290  0.3838  0.8683  1.9922
   964G12c C01U17818  12.252   9.514  10.454  2.7096  0.4305 -1.0686
   964G12c C00S17819  12.620   9.166  10.654  0.6797 -1.1417 -0.3541
   964G12c C00K17820  12.611   9.250  10.444  1.0895 -0.8072  0.4577
   964G12c C00N17821  12.290   9.405  10.538 -0.6974 -2.2679  1.8385
   964G12c C00017822  12.313   9.518  10.324 -0.5737  1.5462  1.3708
   964G12c C01J17823  12.508   9.622  10.263 -1.4550  1.5884  0.2361
   964G12c C01K17824  12.600   9.697  10.185 -0.1772 -0.9819  0.9773
   964G12c C01P17825  12.572   9.817  10.121 -0.0913  0.9464 -0.8156
   964G12c C01Q17826  12.449   9.842  10.041 -0.2171  1.5118 -0.2498
   964G12c H00G17827  12.413   9.944  10.037  4.6225  3.3127 -0.4753
   964G12c C01R17828  12.376   9.751   9.984  1.6013 -0.0867  0.2527
   964G12c H00F17829  12.398   9.647  10.005  2.5135  0.3721  1.6394
   964G12c C01S17830  12.273   9.779   9.860 -0.9033  1.1049  0.9739
   964G12c H00E17831  12.320   9.819   9.770  5.1755 -0.9410  3.0350
   964G12c H00D17832  12.212   9.697   9.822 -1.1302  2.2607 -1.2506
   964G12c O00517833  12.161   9.858   9.893 -1.2879  0.6593  0.1791
   964G12c H00C17834  12.166   9.935   9.840 -0.8534  4.0841  4.9248
   964G12c C01O17835  12.680   9.909  10.101 -2.6555 -0.0128 -1.6042
   964G12c H00H17836  12.682   9.994  10.033 -1.3259  0.4572 -1.0082
   964G12c C01N17837  12.813   9.884  10.125  0.1544  0.0866 -0.8734
   964G12c O00617838  12.913   9.977  10.095  0.0584 -1.6252 -0.6402
   964G12c C01T17839  12.875  10.110  10.086 -0.2341 -0.1793 -0.2520
   964G12c H00K17840  12.849  10.103   9.981 -0.1481  2.9221 -0.5141
   964G12c H00J17841  12.960  10.177  10.098 -2.4423  2.2645  2.3611
   964G12c H00I17842  12.794  10.152  10.145  2.7087 -2.1312  5.6963
   964G12c C01M17843  12.855   9.749  10.179 -0.4731  0.1264 -0.5688
   964G12c C02017844  12.697   9.289  10.325  1.1745 -1.4300 -0.4387
   964G12c C02117845  12.836   9.248  10.302 -0.6357  0.8663 -1.0657
   964G12c C01L17846  12.742   9.649  10.181  1.1158 -1.2921  0.5871
   964G12c O00717847  12.994   9.710  10.192  0.1014  0.9136 -0.3747
   964G12c C02217848  12.930   9.351  10.280 -1.6742 -0.6894  0.0413
   964G12c C02317849  12.905   9.156  10.397  0.3464 -1.3301  0.7807
   964G12c C00G17850  13.036   9.099  10.634 -0.4471  2.4018 -0.6501
   964G12c C00E17851  13.249   9.054  10.757 -1.8059  0.6052  1.1987
   964G12c O00A17852  13.282   9.070  10.889 -1.2045  1.1274  0.6637
   964G12c C02417853  13.317   9.199  10.925  0.1184 -0.6543  0.5970
   964G12c H00V17854  13.218   9.243  10.911  1.0634  2.3300  2.8422
   964G12c H00U17855  13.380   9.263  10.864 -1.8536  3.1344  2.3706
   964G12c H00T17856  13.366   9.234  11.016  4.9728  5.3651 -3.9416
   974G12c C00D17857  12.217   1.295   0.332  0.5626  1.5226  0.8798
   974G12c O00B17858  12.084   1.322   0.286 -0.3597 -0.1179  0.4796
   974G12c C02517859  12.050   1.293   0.147  2.2983  0.0831 -2.3649
   974G12c C02617860  12.038   1.145   0.112  0.4164  1.0238  0.1258
   974G12c H00Y17861  12.135   1.098   0.126  0.1341  0.6111  0.7210
   974G12c H00X17862  11.962   1.142   0.033  0.7473 -1.8392 -0.1629
   974G12c O00C17863  11.945   1.085   0.197 -2.5089 -0.6128 -0.5483
   974G12c H00W17864  11.924   1.158   0.253 -0.0141  2.1540 -2.9600
   974G12c C02717865  12.055   1.404   0.054 -0.8956 -1.7955  0.2174
   974G12c O00D17866  12.056   1.535   0.102 -0.9594  1.3458  0.1546
   974G12c H00Z17867  12.091   1.603   0.046 -1.2485 -3.4172 -6.3927
   974G12c C02817868  12.039   1.394  -0.082 -0.5899 -0.1538  0.8952
   974G12c C02917869  12.133   1.317  -0.145 -0.3152 -1.7137  0.2776
   974G12c H01017870  12.220   1.273  -0.099 -2.2012 -0.9974  4.7941
   974G12c C02T17871  12.140   1.329  -0.284 -0.6492 -0.5176  0.0352
   974G12c H01O17872  12.222   1.315  -0.353  0.6494 -1.1647  1.6702
   974G12c C02S17873  12.056   1.420  -0.346  0.4967  0.9346  0.4705
   974G12c O00J17874  12.093   1.417  -0.473  0.8334  0.4037 -1.0266
   974G12c H01P17875  12.068   1.506  -0.493 -2.8329  0.2827  2.5067
   974G12c C02R17876  11.964   1.496  -0.293  1.3662 -0.7534 -0.5761
   974G12c O00I17877  11.906   1.585  -0.379 -1.0197 -2.2026 -1.4966
   974G12c C02Q17878  11.791   1.667  -0.343  1.2073  1.0351  0.1021
   974G12c H01N17879  11.734   1.687  -0.434 -2.7091 -0.2154  2.1859
   974G12c H01R17880  11.841   1.760  -0.315  0.4673  3.5210 -5.9279
   974G12c H01Q17881  11.705   1.626  -0.291  0.0982 -1.5620 -3.5540
   974G12c C02A17882  11.951   1.481  -0.148 -0.6782  0.3105 -1.0486
   974G12c H01117883  11.897   1.547  -0.082  0.8540 -0.8213  1.3894
   974G12c C00C17884  12.234   1.255   0.471 -0.7338  0.1613  1.3914
   974G12c H01217885  12.162   1.249   0.551  1.7381 -2.4700  3.5154
   974G12c C00B17886  12.326   1.161   0.497  0.1296  0.5729  1.2427
   974G12c C00A17887  12.362   1.083   0.623 -1.5119 -1.3340  0.5053
   974G12c C00917888  12.321   1.099   0.772 -1.4209 -0.6476  0.6758
   974G12c C00817889  12.223   1.188   0.840 -0.8070  0.9568  2.4591
   974G12c H01317890  12.159   1.253   0.784  0.6751 -1.5024 -2.3285
   974G12c C00717891  12.246   1.190   0.980 -0.8148 -0.8947 -0.6019
   974G12c H01417892  12.202   1.249   1.059 -1.0089  2.3787 -3.0713
   974G12c C00617893  12.346   1.107   1.051  1.2086 -0.9263  0.0733
   974G12c C00517894  12.437   1.035   0.983 -1.9842  0.5975  0.0774
   974G12c C00417895  12.554   0.993   1.036 -1.2735  1.1518  2.5709
   974G12c C00317896  12.654   0.931   0.940  0.1583  1.4667  0.7584
   974G12c C00217897  12.784   0.897   0.995  1.4285  0.7832  0.4307
   974G12c C00117898  12.899   0.834   0.952  0.0139  1.0888  0.1752
   974G12c C00M17899  12.957   0.890   0.827 -0.7072 -1.1630 -0.6322
   974G12c C00L17900  12.899   0.886   0.695  0.1953 -0.3581 -2.2728
   974G12c C00R17901  12.949   0.960   0.575  1.0183 -0.8746  1.2716
   974G12c C00Q17902  13.054   1.048   0.555 -0.1993  0.4550  0.6526
   974G12c C00V17903  13.049   1.123   0.434  0.6815 -0.1318 -1.7739
   974G12c C00U17904  12.932   1.132   0.359  1.1448 -1.3022  0.3790
   974G12c C00T17905  12.806   1.074   0.397  0.2024 -2.0922 -0.3421
   974G12c C01617906  12.683   1.127   0.367 -1.0316  0.3372 -0.5303
   974G12c C01517907  12.685   1.201   0.252 -1.2981 -0.9128 -1.3763
   974G12c C01017908  12.801   1.227   0.183 -0.0680 -0.9255 -1.1779
   974G12c C01117909  12.785   1.292   0.055  0.0793 -1.1119 -1.0791
   974G12c H00517910  12.844   1.342  -0.020  3.2048 -2.9901  0.0448
   974G12c C01217911  12.662   1.319  -0.005 -0.7944  0.0283 -0.0002
   974G12c C01717912  12.633   1.414  -0.117  1.0236  1.2588  2.1915
   974G12c O00217913  12.633   1.541  -0.114  0.4634 -0.9950 -0.7238
   974G12c H00417914  12.547   1.556  -0.152 -0.5773 -1.2972  1.4733
   974G12c C01817915  12.595   1.351  -0.238 -0.0266 -0.3056 -1.5219
   974G12c O00117916  12.546   1.231  -0.228 -0.4328 -0.5290  0.1384
   974G12c H00317917  12.472   1.236  -0.287  1.5818 -0.1782 -2.4635
   974G12c C01917918  12.569   1.442  -0.368  0.3568 -1.0489  0.3670
   974G12c H00217919  12.651   1.513  -0.380  0.1077 -0.7340  0.5422
   974G12c H00117920  12.559   1.362  -0.441 -0.4474  0.9006 -1.6997
   974G12c O00017921  12.462   1.540  -0.348  0.3877 -0.5595 -1.9468
   974G12c C01A17922  12.396   1.614  -0.443 -1.0982 -1.9451  0.0367
   974G12c C02K17923  12.302   1.706  -0.394 -0.0464  0.7087 -1.3670
   974G12c O00G17924  12.347   1.739  -0.270 -0.4883 -0.8795  0.4250
   974G12c C02M17925  12.299   1.697  -0.158 -0.1940 -0.3939 -0.4336
   974G12c H01G17926  12.219   1.623  -0.170 -2.9819  2.8099 -2.8018
   974G12c H01F17927  12.246   1.789  -0.133  3.1756  2.2791 -2.6612
   974G12c H01E17928  12.368   1.672  -0.078 -2.4043 -1.2788  1.2336
   974G12c C02J17929  12.200   1.761  -0.470  1.1584  0.5882 -1.1042
   974G12c H01H17930  12.135   1.822  -0.409  5.0345 -0.3943  4.4687
   974G12c C02I17931  12.183   1.717  -0.598 -0.3659  0.8084  0.6344
   974G12c C02N17932  12.082   1.793  -0.671 -0.6248 -0.1581  0.1479
   974G12c H01M17933  12.099   1.831  -0.771 -3.9380 -2.9117 -1.5929
   974G12c C02O17934  11.964   1.815  -0.608  1.5557 -0.3281  0.1225
   974G12c H01L17935  11.920   1.810  -0.509  2.7720  4.5704  1.0106
   974G12c C02P17936  11.862   1.914  -0.671 -1.0304  0.2743  0.6369
   974G12c H01K17937  11.820   1.950  -0.578 -3.3159  0.3328 -0.4033
   974G12c H01J17938  11.933   1.990  -0.704 -1.0423 -0.2010 -0.5224
   974G12c O00H17939  11.752   1.883  -0.756 -0.2679 -0.3588  1.2099
   974G12c H01I17940  11.790   1.867  -0.841 -1.3482 -3.0078  1.1802
   974G12c C02H17941  12.296   1.657  -0.661 -0.9472 -0.4024 -2.2107
   974G12c H01C17942  12.286   1.632  -0.766 -3.8717  6.2195 -3.7496
   974G12c C02L17943  12.405   1.597  -0.573  0.1811 -0.2069 -0.6457
   974G12c H01D17944  12.473   1.527  -0.620  5.6071  2.5547  2.5479
   974G12c C01317945  12.555   1.256   0.070  1.1538 -0.2969 -0.1300
   974G12c H00017946  12.453   1.258   0.034  0.1811 -1.9898  2.4335
   974G12c C01417947  12.567   1.246   0.208 -0.9774  1.8467 -0.8869
   974G12c C00F17948  12.450   1.238   0.289 -0.0222  0.4984 -1.0106
   974G12c C00H17949  12.574   1.104   0.442  0.3301  1.0054 -1.3136
   974G12c C00I17950  12.593   1.013   0.557  0.1639 -0.0288 -0.7557
   974G12c C00J17951  12.715   0.969   0.585  0.7675  0.6329 -0.4172
   974G12c C00Z17952  12.921   1.189   0.236  0.3041 -0.3341  0.2642
   974G12c C00Y17953  13.047   1.225   0.177  1.0987  0.7831  0.0005
   974G12c H00617954  13.037   1.258   0.075 -2.2235  1.8864  0.5959
   974G12c C00X17955  13.167   1.244   0.252  0.1682 -0.9532  0.5087
   974G12c O00317956  13.274   1.301   0.196  0.1671  1.3476  0.9954
   974G12c C01B17957  13.335   1.238   0.078 -0.0745  0.1001  0.7611
   974G12c H00917958  13.295   1.140   0.051  1.2413 -0.6538  1.4974
   974G12c H00817959  13.436   1.270   0.102 -0.2173 -2.1132  4.6276
   974G12c H00717960  13.346   1.294  -0.015 -0.6740 -2.0607 -0.6548
   974G12c C00W17961  13.173   1.192   0.389 -1.3588 -0.2852  0.7589
   974G12c O00417962  13.270   1.210   0.475 -1.6268  0.3947 -0.1682
   974G12c C01C17963  13.290   1.094   0.558 -1.2102 -0.6900 -0.5419
   974G12c H00A17964  13.380   1.057   0.510 -4.8344  0.1132 -8.7504
   974G12c C00P17965  13.180   1.048   0.626  0.7443  1.5498  0.8816
   974G12c C00O17966  13.186   1.008   0.771  1.4264  0.3781  1.2397
   974G12c C01D17967  13.310   1.050   0.830  0.7106  1.8270 -0.5195
   974G12c H00S17968  13.396   1.074   0.770  2.3590  3.2437  2.3092
   974G12c C01E17969  13.308   1.051   0.968  0.1244  0.0828 -0.1522
   974G12c O00817970  13.414   1.123   1.022 -0.2369  0.6370  0.4927
   974G12c C01V17971  13.529   1.058   1.010 -1.3018  0.3289  3.0282
   974G12c C01Z17972  13.551   0.909   1.015  0.8572 -0.0291 -0.0385
   974G12c H00R17973  13.478   0.843   1.063  1.5375 -2.1070 -1.7815
   974G12c H00Q17974  13.529   0.856   0.922 -3.7007  2.0603 -0.3173
   974G12c O00917975  13.674   0.862   1.079 -2.3238  0.0511  0.7856
   974G12c H00P17976  13.742   0.921   1.049 -4.5353  3.2563  1.7458
   974G12c C01W17977  13.626   1.124   0.952  0.6965 -1.6309 -2.6329
   974G12c H00O17978  13.594   1.226   0.938  1.2073 -0.9653  0.5928
   974G12c C01X17979  13.747   1.061   0.885 -1.1729 -0.5611 -1.0357
   974G12c H00N17980  13.814   1.132   0.934 -2.4978  3.5521 -4.8909
   974G12c H00M17981  13.773   0.957   0.904 -2.2460 -2.1554 -7.1932
   974G12c C01Y17982  13.735   1.056   0.734  1.1701 -0.9152  1.8410
   974G12c C02D17983  13.784   1.154   0.634  1.4242 -0.5554 -1.3122
   974G12c H01917984  13.813   1.252   0.667 -1.2776  0.0317 -0.5812
   974G12c C02C17985  13.774   1.139   0.498  1.7152  1.9247 -0.5520
   974G12c H01A17986  13.817   1.202   0.423  5.1246 -0.7853 -0.9991
   974G12c C02B17987  13.699   1.040   0.448  1.7649 -0.7114 -0.7445
   974G12c O00E17988  13.698   1.000   0.314 -0.1100 -1.6210  0.0548
   974G12c H01B17989  13.609   0.969   0.318 -1.3883  0.6227 -5.5886
   974G12c C02F17990  13.628   0.953   0.537 -0.4836 -2.8450 -0.9129
   974G12c O00F17991  13.564   0.849   0.488 -0.5030  0.0578  0.4454
   974G12c C02G17992  13.558   0.725   0.550  0.2023 -0.5421  0.8896
   974G12c H01717993  13.663   0.701   0.565  1.6197  5.0383  0.9610
   974G12c H01617994  13.536   0.659   0.466  2.1904 -2.4901  1.8627
   974G12c H01517995  13.539   0.717   0.657  0.4632  3.8101  1.3574
   974G12c C02E17996  13.647   0.959   0.680  0.5894 -1.1537 -0.0724
   974G12c H01817997  13.595   0.887   0.742  1.0683 -3.3137 -2.0958
   974G12c C01F17998  13.211   0.995   1.057 -1.4496  0.1757 -0.3286
   974G12c C01G17999  13.182   1.038   1.189 -0.1062 -0.5609  0.1485
   974G12c H00L18000  13.243   1.122   1.217  3.4610 -3.4667  1.3560
   974G12c C01H18001  13.047   1.010   1.234 -1.2695  0.1814  0.5122
   974G12c H00B18002  12.987   1.050   1.314  0.3649  7.0175 -1.3696
   974G12c C01I18003  12.960   0.916   1.160 -1.3892 -0.7238 -2.2272
   974G12c C01U18004  13.109   0.910   0.987 -1.5690  1.6374  0.1408
   974G12c C00S18005  12.820   1.005   0.526 -0.5258 -1.1759  0.8449
   974G12c C00K18006  12.754   0.906   0.699 -1.7204 -0.8650  0.3731
   974G12c C00N18007  13.089   0.945   0.854 -0.0078 -0.7956  0.9175
   974G12c C00018008  13.000   0.863   1.042 -0.6251  0.8046  1.7928
   974G12c C01J18009  12.818   0.929   1.140 -1.3439 -0.5625  0.5654
   974G12c C01K18010  12.702   0.947   1.237 -1.1801 -1.3059  0.5660
   974G12c C01P18011  12.699   0.960   1.384 -1.2076 -1.6896 -1.2242
   974G12c C01Q18012  12.805   0.909   1.463  0.4493  0.2099  0.0854
   974G12c H00G18013  12.888   0.971   1.490  4.5571 -3.9286 -2.3252
   974G12c C01R18014  12.795   0.786   1.521  0.5156  0.2418 -0.6046
   974G12c H00F18015  12.701   0.756   1.477  1.1195 -3.4047  0.4657
   974G12c C01S18016  12.892   0.708   1.600 -0.6889  1.5506  0.7383
   974G12c H00E18017  12.837   0.742   1.688 -4.1740  4.7450 -2.4801
   974G12c H00D18018  12.844   0.621   1.557 -3.4554  2.5270  1.7568
   974G12c O00518019  13.029   0.722   1.573 -0.2741  1.6067  0.5137
   974G12c H00C18020  13.065   0.808   1.557 -1.5910  2.3023  1.1290
   974G12c C01O18021  12.584   0.992   1.461  0.0046 -0.9133 -0.0722
   974G12c H00H18022  12.596   0.976   1.567 -0.1002 -2.9218 -0.3407
   974G12c C01N18023  12.468   1.031   1.387  1.3722 -1.6277  1.7432
   974G12c O00618024  12.347   1.020   1.463  0.0170  0.3676  2.3649
   974G12c C01T18025  12.273   0.908   1.464  0.2427 -0.1760  2.3030
   974G12c H00K18026  12.166   0.914   1.443  0.5083  1.2170  1.3397
   974G12c H00J18027  12.252   0.880   1.568  2.8365 -0.3789  2.7982
   974G12c H00I18028  12.323   0.816   1.432 -3.7616 -1.9997  0.9673
   974G12c C01M18029  12.462   1.035   1.246 -1.7600  0.6141  1.0004
   974G12c C02018030  12.640   0.924   0.803  1.1088 -2.0716 -0.5328
   974G12c C02118031  12.503   0.972   0.759 -2.2337 -0.8840  1.6858
   974G12c C01L18032  12.575   0.995   1.178  0.9551 -0.8471  0.2636
   974G12c O00718033  12.335   1.062   1.186  0.2449  0.3257  0.9325
   974G12c C02218034  12.410   1.010   0.843 -0.7730 -0.0884 -1.0841
   974G12c C02318035  12.482   0.987   0.623 -2.2544 -1.6561  1.1990
   974G12c C00G18036  12.447   1.172   0.419 -1.2813 -0.3846 -1.8536
   974G12c C00E18037  12.334   1.308   0.255  0.0090 -0.3317 -1.1394
   974G12c O00A18038  12.339   1.407   0.153  0.6410 -0.3589 -0.0176
   974G12c C02418039  12.404   1.535   0.204 -0.9187 -1.4639  1.5968
   974G12c H00V18040  12.512   1.525   0.212 -0.1355  3.2715 -1.1771
   974G12c H00U18041  12.420   1.582   0.302  0.6025 -3.9018  2.5654
   974G12c H00T18042  12.379   1.625   0.148 -3.2584 -1.0301  3.2581
   984G12c C00D18043   9.743  11.959   4.306  0.3404  1.6776  0.1118
   984G12c O00B18044   9.645  11.879   4.261  0.3470  0.4745  0.0491
   984G12c C02518045   9.640  11.824   4.132 -1.0604  0.0402 -2.6930
   984G12c C02618046   9.745  11.704   4.115 -0.1558  0.2637 -1.3343
   984G12c H00Y18047   9.736  11.603   4.077  4.4204 -0.8237  0.1463
   984G12c H00X18048   9.793  11.735   4.022  1.8408  2.3839  0.3446
   984G12c O00C18049   9.835  11.686   4.219 -0.0487 -0.1047 -0.2803
   984G12c H00W18050   9.810  11.758   4.275 -0.8557 -1.5212  1.1941
   984G12c C02718051   9.546  11.862   4.048 -1.0541  1.1187  1.1141
   984G12c O00D18052   9.451  11.972   4.054 -0.9255 -0.6159  1.1278
   984G12c H00Z18053   9.431  11.981   4.146 -2.1302 -3.6541  1.2077
   984G12c C02818054   9.511  11.762   3.945 -0.0715 -1.4642  0.8959
   984G12c C02918055   9.595  11.730   3.825  0.1177  0.0878 -0.3116
   984G12c H01018056   9.694  11.747   3.783  0.7195 -1.6983  0.3480
   984G12c C02T18057   9.542  11.635   3.737  1.2271 -0.0796 -0.1940
   984G12c H01O18058   9.602  11.612   3.651  1.2235  1.6908 -0.6716
   984G12c C02S18059   9.423  11.565   3.761  0.4957  0.9808 -0.3375
   984G12c O00J18060   9.380  11.444   3.687 -0.2819 -0.2491  0.3996
   984G12c H01P18061   9.295  11.421   3.722  1.6821 -2.0019  4.3061
   984G12c C02R18062   9.346  11.590   3.870 -0.6848  0.5865 -0.7900
   984G12c O00I18063   9.230  11.524   3.908 -0.8952  0.2237  1.8324
   984G12c C02Q18064   9.118  11.614   3.910  0.7432  0.8493 -1.4031
   984G12c H01N18065   9.121  11.605   3.801  7.0048  2.2434 -1.5168
   984G12c H01R18066   9.114  11.718   3.944 -0.2260  0.5809 -0.6496
   984G12c H01Q18067   9.013  11.587   3.924  2.9178 -6.1324  4.4254
   984G12c C02A18068   9.393  11.695   3.958 -0.6873 -0.2898  0.2401
   984G12c H01118069   9.350  11.728   4.051  2.4984 -4.6345  3.4720
   984G12c C00C18070   9.836  12.011   4.221  0.5119 -0.8853  0.6903
   984G12c H01218071   9.816  12.027   4.117  1.7503 -3.0874  0.0681
   984G12c C00B18072   9.941  12.069   4.272  0.0930 -1.1004  0.1722
   984G12c C00A18073  10.056  12.113   4.184 -0.7470  0.3860 -1.0297
   984G12c C00918074  10.109  12.031   4.080 -1.3031 -0.6836  0.3482
   984G12c C00818075  10.076  11.930   3.992 -1.5105  3.0118 -0.2221
   984G12c H01318076   9.976  11.895   4.012  0.4913 -5.8309 -3.3788
   984G12c C00718077  10.160  11.834   3.931  0.8877  0.1617  0.2062
   984G12c H01418078  10.138  11.742   3.880  4.7186 -0.7363  0.0144
   984G12c C00618079  10.295  11.872   3.942  0.0583 -0.6207  1.9777
   984G12c C00518080  10.331  11.998   4.014 -0.4235 -1.7361  0.4816
   984G12c C00418081  10.463  12.039   4.045  2.4275 -0.5657  0.1352
   984G12c C00318082  10.490  12.133   4.150 -0.5895  0.1435 -0.2381
   984G12c C00218083  10.633  12.137   4.203  0.1967 -1.2687 -1.1085
   984G12c C00118084  10.707  12.204   4.321  1.3499  0.1926  1.0574
   984G12c C00M18085  10.660  12.201   4.458 -0.2474 -0.0161  1.5302
   984G12c C00L18086  10.516  12.175   4.472  0.3834  0.0448 -1.7094
   984G12c C00R18087  10.467  12.201   4.598 -0.4472  0.3736 -1.0724
   984G12c C00Q18088  10.514  12.135   4.714  1.1047  0.3649 -0.8032
   984G12c C00V18089  10.404  12.150   4.808  1.5072  0.1154 -0.0249
   984G12c C00U18090  10.276  12.199   4.779  0.4037 -0.9526 -0.8894
   984G12c C00T18091  10.227  12.218   4.653 -0.6791 -1.8653 -1.0621
   984G12c C01618092  10.111  12.162   4.601  2.6964 -1.6465  0.3538
   984G12c C01518093  10.007  12.139   4.679  0.1244 -1.1997 -0.4588
   984G12c C01018094  10.033  12.165   4.811  0.6324  0.3982  0.1146
   984G12c C01118095   9.915  12.163   4.907  1.6381 -0.1715  0.6158
   984G12c H00518096   9.927  12.194   5.009 -1.6620 -0.4703  1.1617
   984G12c C01218097   9.772  12.129   4.862 -0.1471  2.2921  1.4481
   984G12c C01718098   9.669  12.082   4.951  0.4438  0.2240  2.8508
   984G12c O00218099   9.537  12.139   4.947  0.3902 -0.0096  0.2020
   984G12c H00418100   9.484  12.073   4.989 -2.0346 -2.7538 -6.3842
   984G12c C01818101   9.681  11.972   5.027 -0.1404 -2.0329  1.1879
   984G12c O00118102   9.812  11.930   5.029  1.4720 -0.0238 -0.9786
   984G12c H00318103   9.867  12.005   5.048  5.3178 -2.4742 -1.9065
   984G12c C01918104   9.576  11.903   5.124  2.0448 -0.5554 -0.7749
   984G12c H00218105   9.498  11.872   5.055 -0.0429 11.0841 -4.5950
   984G12c H00118106   9.632  11.830   5.184  2.6269 -2.0051 -3.0130
   984G12c O00018107   9.504  11.992   5.200  0.3590  0.1105  0.0467
   984G12c C01A18108   9.525  11.992   5.343 -0.7687 -1.1853  2.5664
   984G12c C02K18109   9.539  12.110   5.413  0.5369  0.8372 -1.8355
   984G12c O00G18110   9.546  12.222   5.337  1.3658  0.0768  0.6488
   984G12c C02M18111   9.430  12.307   5.310  2.1858 -1.4826 -0.5431
   984G12c H01G18112   9.426  12.347   5.208 -2.2200 -0.5378 -0.1193
   984G12c H01F18113   9.441  12.391   5.378 -0.7666 -1.7849  0.3880
   984G12c H01E18114   9.331  12.269   5.285  1.1202 -1.2064  3.0652
   984G12c C02J18115   9.519  12.126   5.551 -0.1628  0.8866  1.4686
   984G12c H01H18116   9.499  12.225   5.590  3.7362  2.0776  0.6341
   984G12c C02I18117   9.507  12.007   5.624  1.3414  1.2556 -0.9917
   984G12c C02N18118   9.517  12.023   5.766  0.0581  1.2745  0.2915
   984G12c H01M18119   9.470  11.937   5.811 -0.4086  0.7206 -1.2367
   984G12c C02O18120   9.569  12.134   5.830 -1.2750  0.5144 -0.5948
   984G12c H01L18121   9.616  12.220   5.783  3.0828 -0.4979  1.6213
   984G12c C02P18122   9.579  12.145   5.980 -0.1189 -0.9984 -1.2986
   984G12c H01K18123   9.664  12.199   6.022 -5.5897  5.1339  2.8288
   984G12c H01J18124   9.499  12.189   6.041  1.9005 -0.9719  1.4494
   984G12c O00H18125   9.576  12.041   6.055 -0.8809  0.4934  0.1286
   984G12c H01I18126   9.493  12.014   6.093 -1.0376 -0.5953 -0.9289
   984G12c C02H18127   9.522  11.879   5.564 -0.5846  1.8228 -0.1074
   984G12c H01C18128   9.536  11.788   5.621 -4.6292  0.9332 -0.3939
   984G12c C02L18129   9.524  11.875   5.420 -0.8561 -1.3700  1.7489
   984G12c H01D18130   9.512  11.769   5.406 -4.7994 -0.6307 -1.6063
   984G12c C01318131   9.772  12.088   4.726  0.1281  0.8458  0.1877
   984G12c H00018132   9.674  12.083   4.681  0.0221 -5.7692  0.6309
   984G12c C01418133   9.894  12.090   4.635  1.3652  0.2128  0.8670
   984G12c C00F18134   9.863  12.067   4.498  1.6984 -0.9224 -1.1526
   984G12c C00H18135  10.083  12.161   4.460  1.6596 -1.2862 -1.2884
   984G12c C00I18136  10.164  12.213   4.370  0.6550 -0.5194  0.3435
   984G12c C00J18137  10.285  12.237   4.432  0.7349  0.7320  0.4241
   984G12c C00Z18138  10.165  12.184   4.864  0.4597  0.1665 -0.1364
   984G12c C00Y18139  10.185  12.146   4.992 -0.4846 -1.0384  1.0843
   984G12c H00618140  10.114  12.147   5.073  1.6609  0.8926  3.0262
   984G12c C00X18141  10.307  12.098   5.022 -1.3277  1.0623 -0.2316
   984G12c O00318142  10.319  12.043   5.142 -0.0463  0.5073 -0.2438
   984G12c C01B18143  10.371  12.106   5.258 -0.7764  1.6776 -1.4784
   984G12c H00918144  10.473  12.144   5.269  1.1693 -3.4619 -0.1152
   984G12c H00818145  10.384  12.016   5.319 -1.0702  2.7456  0.2043
   984G12c H00718146  10.283  12.151   5.305 -0.2993  1.6496 -0.5511
   984G12c C00W18147  10.414  12.085   4.927  1.3954 -0.4551 -1.7481
   984G12c O00418148  10.529  12.039   4.984 -1.0008  0.0737 -1.4522
   984G12c C01C18149  10.637  12.022   4.891  0.1418  0.8252 -0.0816
   984G12c H00A18150  10.716  11.959   4.930 -1.6431 -2.2397 -1.2735
   984G12c C00P18151  10.632  12.058   4.745 -1.3635  0.4777 -0.4079
   984G12c C00O18152  10.733  12.034   4.649  0.8080  0.6762  0.6037
   984G12c C01D18153  10.818  11.936   4.677 -0.8052  0.0080 -0.7019
   984G12c H00S18154  10.820  11.861   4.755  2.3907  0.3382 -0.3753
   984G12c C01E18155  10.928  11.892   4.595  0.8492  0.0748 -0.9475
   984G12c O00818156  11.003  11.786   4.631  0.3278 -0.3472  0.3962
   984G12c C01V18157  11.135  11.782   4.607  0.2711  0.1177 -0.5409
   984G12c C01Z18158  11.196  11.649   4.613 -0.4730  0.4781 -0.0282
   984G12c H00R18159  11.153  11.592   4.530 -2.0461  2.5306 -0.6835
   984G12c H00Q18160  11.295  11.657   4.569 -0.2498  3.4543  0.8817
   984G12c O00918161  11.207  11.605   4.741  1.7678  0.1632  0.9133
   984G12c H00P18162  11.119  11.586   4.769  1.0148  3.3555  0.9063
   984G12c C01W18163  11.221  11.888   4.572 -1.1995 -0.0197  0.0497
   984G12c H00O18164  11.171  11.982   4.552  0.4410  0.5823 -1.3919
   984G12c C01X18165  11.374  11.917   4.589 -1.2553  1.3991  0.3929
   984G12c H00N18166  11.456  11.886   4.524 -1.5843 -2.1277  1.5777
   984G12c H00M18167  11.387  12.025   4.595  1.4210  0.9764  4.0157
   984G12c C01Y18168  11.446  11.912   4.716  0.9226  0.0086 -1.0892
   984G12c C02D18169  11.391  11.855   4.831 -0.2576  0.5908 -1.1668
   984G12c H01918170  11.292  11.872   4.870 -2.2623  2.8408 -6.6828
   984G12c C02C18171  11.465  11.802   4.939 -0.8759 -1.0176 -1.1048
   984G12c H01A18172  11.416  11.768   5.029  1.9919 -0.7130  0.6249
   984G12c C02B18173  11.604  11.796   4.941 -1.7141 -0.3551 -0.6405
   984G12c O00E18174  11.669  11.715   5.029  1.0218  0.8943 -0.0396
   984G12c H01B18175  11.657  11.719   5.123  0.6412  1.0078 -0.0891
   984G12c C02F18176  11.674  11.871   4.832  0.3134 -0.0926  0.1469
   984G12c O00F18177  11.794  11.804   4.810 -0.8245  0.1420  0.7349
   984G12c C02G18178  11.800  11.715   4.698  0.0993 -0.5206 -0.8028
   984G12c H01718179  11.897  11.670   4.672  0.9034  1.6638 -1.6433
   984G12c H01618180  11.715  11.649   4.714  0.6860 -1.2431 -0.5999
   984G12c H01518181  11.770  11.760   4.604  2.3213 -4.3958 -3.5336
   984G12c C02E18182  11.592  11.934   4.731  0.5783 -0.2321 -0.0900
   984G12c H01818183  11.630  12.002   4.656 -1.2450 -1.2388 -1.9634
   984G12c C01F18184  10.927  11.958   4.474 -1.1672 -0.7003 -1.1109
   984G12c C01G18185  10.953  11.875   4.358 -1.8324 -0.6784 -0.1130
   984G12c H00L18186  10.989  11.780   4.395 -1.9208 -0.9173 -0.6350
   984G12c C01H18187  10.913  11.901   4.229  1.5368  1.6131 -0.9906
   984G12c H00B18188  10.908  11.831   4.147 -2.4437 -1.8313  1.9611
   984G12c C01I18189  10.840  12.030   4.210 -1.5882 -0.2282  0.2922
   984G12c C01U18190  10.869  12.078   4.439  0.3516 -0.9462 -0.4038
   984G12c C00S18191  10.328  12.242   4.562  0.6786 -1.0723 -1.3180
   984G12c C00K18192  10.407  12.195   4.367  0.2922  0.0545 -0.3713
   984G12c C00N18193  10.757  12.107   4.532  0.6000 -0.6846  0.8002
   984G12c C00018194  10.839  12.143   4.308 -1.1622  0.7318  1.0686
   984G12c C01J18195  10.723  12.043   4.134 -0.5806 -0.7200 -1.2163
   984G12c C01K18196  10.693  11.964   4.016  0.1712  0.7182  0.2891
   984G12c C01P18197  10.802  11.913   3.923 -0.0033 -0.6076  2.4788
   984G12c C01Q18198  10.919  12.002   3.919  1.0146 -0.1930  1.2680
   984G12c H00G18199  10.904  12.102   3.959  1.3920 -0.8722  3.1291
   984G12c C01R18200  11.036  11.956   3.876 -1.3007 -0.8379 -0.6900
   984G12c H00F18201  11.053  11.855   3.841  1.2022 -1.6941  2.6979
   984G12c C01S18202  11.146  12.054   3.866  0.3672  0.7137 -0.6183
   984G12c H00E18203  11.084  12.107   3.793 -8.3564 -3.1480  3.2457
   984G12c H00D18204  11.209  12.106   3.937  3.4141 -1.9537 -1.2932
   984G12c O00518205  11.247  12.032   3.765 -0.2742 -0.1751  1.1194
   984G12c H00C18206  11.222  11.994   3.682  1.9342  0.2290  0.2493
   984G12c C01O18207  10.766  11.802   3.846 -1.4168 -0.2443 -0.4229
   984G12c H00H18208  10.834  11.753   3.777 -1.8834  1.8183 -2.3961
   984G12c C01N18209  10.627  11.761   3.852 -0.1218 -1.9503  1.5098
   984G12c O00618210  10.600  11.655   3.768  0.1799  0.5486 -1.0007
   984G12c C01T18211  10.586  11.682   3.624  0.3175  0.3665 -0.0680
   984G12c H00K18212  10.574  11.780   3.578 -1.4570  0.7719  1.2194
   984G12c H00J18213  10.519  11.607   3.584 -2.4663  0.8586  3.4801
   984G12c H00I18214  10.686  11.671   3.582  2.4152  1.4868  4.3357
   984G12c C01M18215  10.530  11.837   3.923  1.2227  0.8443  1.0058
   984G12c C02018216  10.394  12.189   4.229  0.7944  0.9318 -1.1306
   984G12c C02118217  10.276  12.198   4.156  0.1627  0.0652 -1.1535
   984G12c C01L18218  10.558  11.954   3.994  1.6892 -1.0086 -1.2384
   984G12c O00718219  10.403  11.786   3.914  0.3328 -0.4860  0.4692
   984G12c C02218220  10.239  12.087   4.082 -0.9427 -1.5611 -0.8511
   984G12c C02318221  10.150  12.211   4.222 -0.6131  0.3560 -1.8963
   984G12c C00G18222   9.961  12.122   4.407  0.0941  0.4894 -1.0169
   984G12c C00E18223   9.760  11.982   4.445  2.2556 -2.7716  0.2572
   984G12c O00A18224   9.699  11.894   4.528 -1.2337 -0.2335 -0.9332
   984G12c C02418225   9.769  11.776   4.534 -1.0246  2.7094  0.5455
   984G12c H00V18226   9.730  11.720   4.619 -6.0725  1.8830 -2.0883
   984G12c H00U18227   9.876  11.782   4.517 -0.9056 -1.9564 -1.1734
   984G12c H00T18228   9.705  11.725   4.461 -6.7395  0.0561  6.8294
   994G12c C00D18229   1.296   3.467   2.248 -0.0515 -0.0383  1.2341
   994G12c O00B18230   1.164   3.477   2.203 -0.6679 -0.0724  0.1397
   994G12c C02518231   1.136   3.442   2.071  0.2183 -1.5144  0.1202
   994G12c C02618232   1.181   3.531   1.968 -1.2605 -0.1557  0.5827
   994G12c H00Y18233   1.213   3.633   1.989 -3.3426 -0.0048  3.1888
   994G12c H00X18234   1.095   3.557   1.906 -1.7993  0.4034  1.5553
   994G12c O00C18235   1.282   3.480   1.876  0.6876  0.5655 -1.5188
   994G12c H00W18236   1.259   3.389   1.865 -5.3101  1.7933 -1.1723
   994G12c C02718237   1.079   3.314   2.046  0.0144 -1.1663 -0.8544
   994G12c O00D18238   1.035   3.237   2.145 -0.5907  0.6967  0.5963
   994G12c H00Z18239   1.098   3.266   2.210  1.7508  5.8766 -3.6297
   994G12c C02818240   1.050   3.287   1.905  0.1611 -0.8513 -1.0914
   994G12c C02918241   0.937   3.330   1.824  0.3696  0.9103  1.3918
   994G12c H01018242   0.858   3.383   1.877 -2.2683 -1.6931  0.2143
   994G12c C02T18243   0.922   3.273   1.698 -0.3976 -0.6314  0.9173
   994G12c H01O18244   0.843   3.282   1.624 -4.1165 -3.0392  4.4180
   994G12c C02S18245   1.022   3.194   1.647 -1.3842 -0.4786  1.9092
   994G12c O00J18246   1.029   3.157   1.511 -1.1313  0.2781 -1.2472
   994G12c H01P18247   1.102   3.107   1.478  0.8647  4.8085 -4.3106
   994G12c C02R18248   1.137   3.154   1.718  1.0692 -0.8335 -0.5172
   994G12c O00I18249   1.226   3.053   1.678 -2.0660 -0.3675  0.0683
   994G12c C02Q18250   1.330   3.009   1.772 -0.2174 -1.3626  1.0528
   994G12c H01N18251   1.281   2.939   1.839  2.2805  1.8016  6.5221
   994G12c H01R18252   1.385   3.091   1.819 -0.0197 -2.6127  3.0852
   994G12c H01Q18253   1.398   2.952   1.709 -1.2201  1.4279 -2.7697
   994G12c C02A18254   1.137   3.196   1.864 -0.9150 -1.3203 -0.1035
   994G12c H01118255   1.207   3.174   1.943 -1.9034 -0.9586  0.8848
   994G12c C00C18256   1.353   3.585   2.274 -0.6458  0.1907  1.0396
   994G12c H01218257   1.312   3.671   2.223  5.4148  1.1326 -2.7083
   994G12c C00B18258   1.468   3.611   2.331  0.0031 -1.4308 -0.4339
   994G12c C00A18259   1.524   3.731   2.382 -0.1567  1.7494 -0.0489
   994G12c C00918260   1.516   3.871   2.357 -0.5307  1.0835  0.4790
   994G12c C00818261   1.437   3.951   2.273  0.0527 -0.0123 -0.4095
   994G12c H01318262   1.353   3.904   2.225  0.1498 -4.7928  3.6443
   994G12c C00718263   1.463   4.086   2.244 -0.6377 -0.4062  1.0381
   994G12c H01418264   1.407   4.148   2.175  1.6989  0.2214 -0.3730
   994G12c C00618265   1.588   4.143   2.292  0.3065 -1.2435  0.0956
   994G12c C00518266   1.666   4.056   2.363  0.2374  1.5950 -0.5950
   994G12c C00418267   1.805   4.089   2.400  0.5686 -1.0758 -1.5999
   994G12c C00318268   1.876   3.996   2.476 -0.9043  0.2201  0.6306
   994G12c C00218269   2.026   4.021   2.492 -0.6285  0.6139  0.6953
   994G12c C00118270   2.132   3.950   2.550 -1.3343  1.3527  1.9957
   994G12c C00M18271   2.154   3.818   2.490  1.4694 -1.1378  1.5155
   994G12c C00L18272   2.060   3.723   2.516  0.2608  0.4258  0.9539
   994G12c C00R18273   2.077   3.592   2.445  0.5276 -2.6199 -0.5921
   994G12c C00Q18274   2.175   3.516   2.383  1.7306 -0.4516  1.3310
   994G12c C00V18275   2.128   3.375   2.348 -1.1567 -1.7060 -0.1169
   994G12c C00U18276   1.995   3.332   2.343  0.0668 -0.2004 -0.1664
   994G12c C00T18277   1.892   3.411   2.396  0.0392 -0.6728 -1.1419
   994G12c C01618278   1.764   3.400   2.391 -0.0544  2.1754  1.7475
   994G12c C01518279   1.728   3.281   2.332  0.6520  1.8976  0.2446
   994G12c C01018280   1.819   3.181   2.298  0.4889 -1.2089 -0.2109
   994G12c C01118281   1.779   3.047   2.287  0.7836  0.8303  0.1879
   994G12c H00518282   1.847   2.963   2.287  2.8798  2.4007  3.3491
   994G12c C01218283   1.640   3.017   2.271  1.1363 -0.9691  0.8875
   994G12c C01718284   1.595   2.882   2.226  0.7487  0.9258 -0.3745
   994G12c O00218285   1.524   2.883   2.119  0.2370  0.0636  0.1409
   994G12c H00418286   1.518   2.798   2.079  2.3304  0.9489 -2.1922
   994G12c C01818287   1.637   2.748   2.265  0.2358  2.7085  0.8244
   994G12c O00118288   1.689   2.727   2.394 -0.9288 -0.8622  0.0437
   994G12c H00318289   1.653   2.814   2.408 -0.5773  0.9494 -7.7936
   994G12c C01918290   1.598   2.634   2.175  0.9787  1.4965 -1.0876
   994G12c H00218291   1.601   2.661   2.069 -4.1761  3.7768 -0.8020
   994G12c H00118292   1.686   2.584   2.213  0.2426 -0.1140 -1.4523
   994G12c O00018293   1.460   2.635   2.194  1.5799  1.1486  1.1608
   994G12c C01A18294   1.383   2.515   2.191 -2.1191  0.8326  0.3681
   994G12c C02K18295   1.425   2.385   2.206  1.0802  1.3100 -0.9928
   994G12c O00G18296   1.565   2.356   2.230 -0.1460  1.4225  0.6973
   994G12c C02M18297   1.607   2.293   2.359 -0.5895 -0.5317 -0.0285
   994G12c H01G18298   1.642   2.193   2.337  0.3785 -0.0640 -0.6792
   994G12c H01F18299   1.526   2.311   2.430 -2.2220 -3.5009 -1.0714
   994G12c H01E18300   1.702   2.343   2.375  1.0964 -2.0253 -4.5497
   994G12c C02J18301   1.313   2.294   2.215 -0.5681  0.0691 -0.9817
   994G12c H01H18302   1.341   2.196   2.249 -1.5493  1.1671  3.1729
   994G12c C02I18303   1.182   2.329   2.202 -0.5068 -0.9678  0.3511
   994G12c C02N18304   1.091   2.221   2.238  0.4564  0.1976  0.6219
   994G12c H01M18305   1.121   2.117   2.234 -0.5736 -0.2130  2.6284
   994G12c C02O18306   0.959   2.256   2.251 -0.5646 -0.8630  1.2222
   994G12c H01L18307   0.931   2.358   2.271 -4.2302 -0.9770 -2.6116
   994G12c C02P18308   0.844   2.183   2.251  0.9697  0.0934 -0.3459
   994G12c H01K18309   0.791   2.228   2.335  1.0934 -3.3445  1.6646
   994G12c H01J18310   0.762   2.220   2.189 -2.8238 -3.8159  1.9871
   994G12c O00H18311   0.849   2.053   2.222 -0.7938  0.0008 -0.8760
   994G12c H01I18312   0.831   2.028   2.311 -6.2686 -3.4290 -2.7641
   994G12c C02H18313   1.149   2.471   2.198  1.1141  0.6902  2.5951
   994G12c H01C18314   1.046   2.501   2.205  1.4031  3.4122 -2.4182
   994G12c C02L18315   1.255   2.551   2.174 -0.2190 -0.7983  2.1809
   994G12c H01D18316   1.219   2.652   2.171 -3.2808 -1.8971 -0.4334
   994G12c C01318317   1.557   3.129   2.258  2.3858  0.4923 -0.5122
   994G12c H00018318   1.461   3.092   2.224  3.0052 -3.0625  1.3125
   994G12c C01418319   1.586   3.252   2.327  0.5298  0.4628 -0.9577
   994G12c C00F18320   1.505   3.366   2.331  0.1521 -0.0775 -0.0091
   994G12c C00H18321   1.688   3.513   2.390 -0.6040  1.2103  1.0291
   994G12c C00I18322   1.736   3.625   2.454  1.3463 -0.1931  0.2325
   994G12c C00J18323   1.862   3.622   2.510  0.5529 -1.0876 -0.3327
   994G12c C00Z18324   1.955   3.216   2.284  0.4966 -1.7901 -0.6317
   994G12c C00Y18325   2.051   3.128   2.244  0.3179  0.0139  0.1884
   994G12c H00618326   2.008   3.041   2.197  1.1829  1.2637 -3.0151
   994G12c C00X18327   2.184   3.160   2.233  0.9105 -0.6023  0.2953
   994G12c O00318328   2.288   3.075   2.200  0.4685 -0.5227 -0.2692
   994G12c C01B18329   2.285   3.062   2.055  0.1645 -1.1567  0.2288
   994G12c H00918330   2.367   3.032   1.990  2.7400 -0.4815  3.0356
   994G12c H00818331   2.208   3.002   2.008  1.8454 -2.0588 -1.4706
   994G12c H00718332   2.237   3.153   2.022  1.0609 -1.5920 -2.4229
   994G12c C00W18333   2.218   3.286   2.291  0.1293  0.7347 -1.4305
   994G12c O00418334   2.350   3.322   2.256 -0.0544 -1.2469 -1.0144
   994G12c C01C18335   2.406   3.435   2.324  0.3176 -0.7728 -1.8968
   994G12c H00A18336   2.513   3.430   2.308  0.8246  1.8156  0.3358
   994G12c C00P18337   2.316   3.550   2.341 -0.7096  0.1501  0.2980
   994G12c C00O18338   2.339   3.692   2.334 -0.8418 -0.4589 -0.6390
   994G12c C01D18339   2.466   3.721   2.285 -0.6502  0.2826  0.0344
   994G12c H00S18340   2.521   3.642   2.236 -2.6170 -4.0952  4.4775
   994G12c C01E18341   2.522   3.849   2.263  0.7004 -0.9359 -0.3328
   994G12c O00818342   2.623   3.857   2.186  0.7872  1.0697 -0.3646
   994G12c C01V18343   2.719   3.965   2.194 -0.0849  0.1524 -0.0933
   994G12c C01Z18344   2.773   3.968   2.059  0.5676 -0.5596 -0.7099
   994G12c H00R18345   2.877   3.989   2.083  0.6443 -1.5781 -0.1228
   994G12c H00Q18346   2.779   3.878   1.999  5.2657 -0.6340 -0.3527
   994G12c O00918347   2.667   4.036   1.988 -0.4282  0.9593 -0.0433
   994G12c H00P18348   2.612   4.093   2.040  2.1763  2.8997  0.6631
   994G12c C01W18349   2.760   4.035   2.295  1.9321  0.6686 -0.9596
   994G12c H00O18350   2.697   4.014   2.381 -4.8002 -0.1356 -5.6921
   994G12c C01X18351   2.861   4.144   2.347 -0.8995  0.3612 -1.9550
   994G12c H00N18352   2.873   4.222   2.272 -3.8993  2.0586 -0.7905
   994G12c H00M18353   2.827   4.216   2.421  2.6912  0.2653 -0.1154
   994G12c C01Y18354   2.987   4.072   2.402  0.5158 -1.7673  0.4176
   994G12c C02D18355   2.994   4.013   2.529 -0.0311  0.9611 -0.5589
   994G12c H01918356   2.919   4.036   2.603  1.5702 -2.4424  2.2986
   994G12c C02C18357   3.106   3.924   2.560  2.9653  0.3897 -0.0175
   994G12c H01A18358   3.105   3.894   2.664  0.7765 -0.6969 -0.3256
   994G12c C02B18359   3.210   3.904   2.473 -0.3869 -0.0605 -0.5866
   994G12c O00E18360   3.317   3.837   2.529  0.6721 -0.5406  0.4427
   994G12c H01B18361   3.393   3.879   2.492 -2.7451  1.1048 -5.2455
   994G12c C02F18362   3.211   3.959   2.341 -0.7091 -0.8039  0.1166
   994G12c O00F18363   3.306   3.911   2.261 -0.4691  0.3814 -1.3824
   994G12c C02G18364   3.312   3.783   2.229 -0.8630  2.5387 -0.3422
   994G12c H01718365   3.253   3.723   2.299  2.4412 -2.2225 -1.3539
   994G12c H01618366   3.270   3.786   2.128  3.3116 -1.3724 -2.3718
   994G12c H01518367   3.397   3.716   2.246  0.2351  4.5679  2.4081
   994G12c C02E18368   3.090   4.025   2.316 -0.8668 -0.8908 -0.5266
   994G12c H01818369   3.051   4.033   2.215 -2.6470  0.1390  0.2275
   994G12c C01F18370   2.438   3.953   2.316 -1.3017 -0.5460  0.0708
   994G12c C01G18371   2.442   4.090   2.293 -0.4882 -1.2737 -0.9212
   994G12c H00L18372   2.513   4.131   2.222  2.0242  2.9932  3.7020
   994G12c C01H18373   2.320   4.170   2.341  0.0307  0.2378 -0.9947
   994G12c H00B18374   2.292   4.251   2.275  0.4671 -5.5036 -8.9527
   994G12c C01I18375   2.227   4.126   2.432  0.7433  1.1375  0.5102
   994G12c C01U18376   2.333   3.920   2.420 -1.3445  0.5053  1.6272
   994G12c C00S18377   1.943   3.534   2.447 -0.9996 -1.3823 -0.4563
   994G12c C00K18378   1.917   3.748   2.539 -2.0611  1.3217  0.3596
   994G12c C00N18379   2.266   3.794   2.411  0.3958  1.3989  2.7856
   994G12c C00018380   2.250   4.002   2.491 -0.5825  0.8101 -0.7496
   994G12c C01J18381   2.078   4.148   2.441 -1.2203 -1.0220 -0.4380
   994G12c C01K18382   1.997   4.263   2.401 -0.1260 -0.1455 -0.8123
   994G12c C01P18383   2.033   4.414   2.399  0.1321  0.6468 -0.9810
   994G12c C01Q18384   2.150   4.485   2.449 -0.0336  1.9542 -0.6206
   994G12c H00G18385   2.148   4.593   2.447  2.3275  2.1042 -7.9257
   994G12c C01R18386   2.252   4.437   2.530 -0.6735  1.1664 -1.4416
   994G12c H00F18387   2.246   4.341   2.579  2.6621  2.7636  2.4229
   994G12c C01S18388   2.381   4.513   2.571  0.4987 -0.2931  0.0825
   994G12c H00E18389   2.414   4.459   2.660 -6.8477  0.0829  3.3997
   994G12c H00D18390   2.449   4.489   2.489 -1.0277 -2.5218 -0.5618
   994G12c O00518391   2.351   4.655   2.583  1.4314  0.1874 -0.2353
   994G12c H00C18392   2.424   4.702   2.621  4.1563 -3.0377 -1.1507
   994G12c C01O18393   1.935   4.492   2.349 -1.5387  1.0808  0.0157
   994G12c H00H18394   1.987   4.564   2.288  3.0049  0.6002  3.1141
   994G12c C01N18395   1.798   4.455   2.322  0.0308 -0.6930  0.5189
   994G12c O00618396   1.711   4.542   2.258 -1.0920  1.0889 -1.9267
   994G12c C01T18397   1.667   4.650   2.326  0.0766  0.6819  0.3960
   994G12c H00K18398   1.694   4.626   2.429  0.4659  1.0763  0.3869
   994G12c H00J18399   1.694   4.752   2.298  0.2302  2.6394  6.8850
   994G12c H00I18400   1.563   4.681   2.318 -1.0321 -3.2340 -2.3918
   994G12c C01M18401   1.767   4.311   2.329 -0.2660  2.1658  0.7613
   994G12c C02018402   1.827   3.860   2.516  0.4378  0.3224 -1.3817
   994G12c C02118403   1.687   3.851   2.506  0.3835 -0.0349 -0.3531
   994G12c C01L18404   1.863   4.222   2.392 -1.1898 -0.9789  0.2831
   994G12c O00718405   1.648   4.269   2.268  0.0228 -0.2106 -0.5928
   994G12c C02218406   1.627   3.928   2.411  1.6427  0.6935 -1.2147
   994G12c C02318407   1.637   3.721   2.468  0.6519 -0.9552 -0.4220
   994G12c C00G18408   1.557   3.495   2.358 -0.7520 -0.4170  0.6690
   994G12c C00E18409   1.366   3.361   2.281 -0.4073 -0.4144 -0.3138
   994G12c O00A18410   1.311   3.246   2.269  1.3882  1.2325 -0.2342
   994G12c C02418411   1.235   3.207   2.373  0.4718 -0.4054  0.7979
   994G12c H00V18412   1.187   3.301   2.401  0.4874  0.7916 -2.8757
   994G12c H00U18413   1.174   3.127   2.331  1.0202 -0.0469 -0.7091
   994G12c H00T18414   1.298   3.195   2.461 -0.1080  3.1323  1.7789
  1004G12c C00D18415  10.914   6.700   1.002 -0.3147 -1.1890  1.2428
  1004G12c O00B18416  10.841   6.764   1.086  0.1994 -1.4575 -0.2883
  1004G12c C02518417  10.738   6.850   1.029 -0.9958  0.2660 -1.4995
  1004G12c C02618418  10.777   7.003   1.022 -0.3862  1.7136 -0.6040
  1004G12c H00Y18419  10.881   7.029   1.002  2.5444 -6.4592  1.8030
  1004G12c H00X18420  10.743   7.072   1.100  6.8997  2.3547  2.3903
  1004G12c O00C18421  10.741   7.058   0.896 -0.1955  0.2721 -1.3861
  1004G12c H00W18422  10.803   7.021   0.835 -0.3636 -5.7934  1.7597
  1004G12c C02718423  10.612   6.793   1.037 -0.6989  1.5903  0.7260
  1004G12c O00D18424  10.586   6.687   1.108  0.2679  1.0837 -1.3494
  1004G12c H00Z18425  10.661   6.680   1.165 -1.1992  1.8480  0.7414
  1004G12c C02818426  10.497   6.867   0.972  2.0986  1.7123  0.9386
  1004G12c C02918427  10.431   6.984   1.043 -0.0089  0.3950 -1.9451
  1004G12c H01018428  10.492   7.005   1.130  2.0355  2.3122 -3.7732
  1004G12c C02T18429  10.329   7.055   0.978 -0.9831 -0.0461 -0.8475
  1004G12c H01O18430  10.307   7.152   1.020  0.0029  0.8621 -2.3628
  1004G12c C02S18431  10.286   7.011   0.853  0.5923 -0.0562  0.6110
  1004G12c O00J18432  10.189   7.067   0.769 -0.3497  1.6596  0.6552
  1004G12c H01P18433  10.172   7.035   0.682 -4.1621  2.8108  0.8899
  1004G12c C02R18434  10.374   6.922   0.777  1.2285  1.2402  1.9160
  1004G12c O00I18435  10.329   6.893   0.641  0.0581 -1.1203  0.0028
  1004G12c C02Q18436  10.219   6.814   0.657  1.1477  0.4531 -0.2058
  1004G12c H01N18437  10.260   6.746   0.582  1.6511  0.0317  0.4539
  1004G12c H01R18438  10.129   6.856   0.610 -1.8892 -5.9601 -0.6541
  1004G12c H01Q18439  10.163   6.784   0.745  3.0436  2.2378  1.6624
  1004G12c C02A18440  10.473   6.853   0.843  1.5580  1.1123 -0.0627
  1004G12c H01118441  10.534   6.797   0.774 -1.6652 -2.7493  0.0524
  1004G12c C00C18442  11.036   6.645   1.073 -0.0603 -0.7982  1.5057
  1004G12c H01218443  11.054   6.697   1.166 -3.5401  3.0156  0.2014
  1004G12c C00B18444  11.127   6.568   0.989 -1.2607 -1.4571  1.6252
  1004G12c C00A18445  11.252   6.520   1.027  0.1424  0.1490 -1.6153
  1004G12c C00918446  11.351   6.552   1.140  1.1211 -0.5122  0.1674
  1004G12c C00818447  11.370   6.671   1.207  2.7606  0.3787 -0.7498
  1004G12c H01318448  11.286   6.736   1.225 -2.3220 -6.3538  2.0922
  1004G12c C00718449  11.499   6.725   1.249  0.2652  1.2588  2.5662
  1004G12c H01418450  11.508   6.815   1.307  4.0542  3.4265 -1.0936
  1004G12c C00618451  11.613   6.651   1.196  2.3173  1.7032  0.8497
  1004G12c C00518452  11.593   6.542   1.112 -0.1291  1.8432 -0.7193
  1004G12c C00418453  11.695   6.480   1.046  1.4083 -1.0598 -0.9890
  1004G12c C00318454  11.665   6.397   0.938 -1.1283 -0.8775  0.9774
  1004G12c C00218455  11.771   6.348   0.855  0.2428 -0.2163  0.3174
  1004G12c C00118456  11.775   6.273   0.728 -0.8770 -0.8398  0.7992
  1004G12c C00M18457  11.689   6.290   0.612  1.1215  1.8594  0.6613
  1004G12c C00L18458  11.560   6.307   0.635 -1.3878  2.0960 -1.1049
  1004G12c C00R18459  11.459   6.327   0.528 -1.6008  0.1236  0.4517
  1004G12c C00Q18460  11.461   6.370   0.390 -0.3487 -0.5681 -1.3280
  1004G12c C00V18461  11.334   6.383   0.336  2.6359  0.2597  0.0186
  1004G12c C00U18462  11.220   6.413   0.419  1.8396  0.5597 -0.1123
  1004G12c C00T18463  11.233   6.395   0.552  0.3168  0.1901 -0.5011
  1004G12c C01618464  11.136   6.420   0.646 -0.5820  0.0462 -1.0103
  1004G12c C01518465  11.011   6.452   0.588 -1.4015 -0.2085  1.1937
  1004G12c C01018466  10.990   6.448   0.455 -2.0708  1.3867 -0.7188
  1004G12c C01118467  10.854   6.498   0.419 -2.1239 -0.8632  0.0818
  1004G12c H00518468  10.840   6.504   0.313  4.3025 -4.6053 -1.2260
  1004G12c C01218469  10.755   6.561   0.492 -0.4570  2.4276 -0.2892
  1004G12c C01718470  10.621   6.610   0.451 -0.7227 -0.5659  0.7072
  1004G12c O00218471  10.588   6.751   0.446  0.2558  0.0681 -0.1682
  1004G12c H00418472  10.522   6.727   0.384  0.4239 -3.7359  0.9788
  1004G12c C01818473  10.530   6.523   0.409  0.9757 -0.4826  0.0105
  1004G12c O00118474  10.399   6.562   0.374 -0.1065  0.8000 -0.4557
  1004G12c H00318475  10.413   6.546   0.282  7.0235 -2.0404  0.7892
  1004G12c C01918476  10.549   6.370   0.420 -1.3138  0.4589 -0.8279
  1004G12c H00218477  10.599   6.362   0.517 -4.3209 -2.1128  0.5895
  1004G12c H00118478  10.453   6.319   0.421 -0.7663 -0.5834 -0.6098
  1004G12c O00018479  10.622   6.358   0.301  0.5527 -0.6016  0.5160
  1004G12c C01A18480  10.576   6.285   0.201  0.9013  1.4697 -1.1707
  1004G12c C02K18481  10.636   6.296   0.070 -0.9728  0.5989  0.6530
  1004G12c O00G18482  10.743   6.381   0.036  1.6322  0.1170 -0.2556
  1004G12c C02M18483  10.706   6.508   0.045  0.5862  0.8979  0.8180
  1004G12c H01G18484  10.781   6.543  -0.026  0.0988  2.0222  0.8412
  1004G12c H01F18485  10.754   6.563   0.126  5.5892 -0.1919 -1.2286
  1004G12c H01E18486  10.613   6.552   0.009  0.0301  2.4271  3.9829
  1004G12c C02J18487  10.608   6.195  -0.028  0.2291  2.7451 -0.1103
  1004G12c H01H18488  10.665   6.191  -0.119 -1.8053 -0.2707 -1.3531
  1004G12c C02I18489  10.509   6.091  -0.018 -1.0182 -0.1722 -0.9835
  1004G12c C02N18490  10.487   6.003  -0.125  0.1072 -1.1671 -0.7422
  1004G12c H01M18491  10.457   6.032  -0.225  2.0017  0.2545 -0.9299
  1004G12c C02O18492  10.499   5.866  -0.124 -0.4644  1.0550 -0.3070
  1004G12c H01L18493  10.516   5.817  -0.030 -4.1399  1.8910  0.8901
  1004G12c C02P18494  10.434   5.795  -0.239  1.5292 -1.0664 -0.2664
  1004G12c H01K18495  10.351   5.854  -0.279  1.7256  3.7446  5.6882
  1004G12c H01J18496  10.495   5.738  -0.309 -2.3516 -1.1621 -3.7874
  1004G12c O00H18497  10.383   5.668  -0.182  0.3569  0.1379 -0.8387
  1004G12c H01I18498  10.291   5.682  -0.164  1.9884 10.8843  2.9598
  1004G12c C02H18499  10.460   6.080   0.115  0.8787 -0.6364 -0.8995
  1004G12c H01C18500  10.364   6.048   0.152  0.6915  1.9781  1.0261
  1004G12c C02L18501  10.493   6.184   0.214  0.1068  1.6058 -0.7991
  1004G12c H01D18502  10.457   6.143   0.308  3.7284 -4.5451 -1.7731
  1004G12c C01318503  10.787   6.566   0.631 -0.4110  0.6955  0.6009
  1004G12c H00018504  10.731   6.606   0.714 -1.9712 -2.1170  0.9512
  1004G12c C01418505  10.927   6.533   0.669  0.6291  0.1409 -0.5661
  1004G12c C00F18506  10.968   6.589   0.806 -0.2737  0.2971 -0.0508
  1004G12c C00H18507  11.158   6.438   0.782 -0.8440  1.3080  0.1070
  1004G12c C00I18508  11.271   6.372   0.838  1.8352  0.2549  0.1841
  1004G12c C00J18509  11.355   6.305   0.738 -1.1909 -0.4009 -1.9910
  1004G12c C00Z18510  11.095   6.434   0.368  0.9199 -1.1709  0.3643
  1004G12c C00Y18511  11.082   6.457   0.226 -0.2219 -0.0265 -0.6566
  1004G12c H00618512  10.992   6.471   0.169  1.7466  4.5722 -2.8806
  1004G12c C00X18513  11.193   6.432   0.135 -0.3099 -0.3003 -1.2456
  1004G12c O00318514  11.164   6.507   0.035 -1.2423  0.7136  1.3603
  1004G12c C01B18515  11.195   6.462  -0.094  1.8840  0.5915  1.7847
  1004G12c H00918516  11.241   6.557  -0.120  1.9973  0.3329  1.0331
  1004G12c H00818517  11.105   6.492  -0.147 -0.1364  4.6725  7.0526
  1004G12c H00718518  11.232   6.360  -0.102  2.8837  1.2281 -7.9015
  1004G12c C00W18519  11.322   6.406   0.196  1.1929 -0.0113  0.8347
  1004G12c O00418520  11.430   6.404   0.116 -1.1403 -0.0875 -1.4553
  1004G12c C01C18521  11.556   6.434   0.173 -1.1787 -0.7969 -0.9072
  1004G12c H00A18522  11.631   6.493   0.122 -1.0056 -0.3398 -0.1295
  1004G12c C00P18523  11.586   6.384   0.308  0.5376 -0.0530 -0.3035
  1004G12c C00O18524  11.725   6.355   0.348 -1.1855 -0.4724 -0.1789
  1004G12c C01D18525  11.828   6.439   0.282 -0.9518  0.0783  0.0610
  1004G12c H00S18526  11.828   6.452   0.174  0.2923 -2.2651 -0.2508
  1004G12c C01E18527  11.954   6.479   0.342  0.5620 -0.3490 -1.4820
  1004G12c O00818528  12.053   6.555   0.293  0.5652 -1.2234  0.9526
  1004G12c C01V18529  12.140   6.512   0.189  1.5336 -0.1862 -0.6461
  1004G12c C01Z18530  12.279   6.490   0.222 -1.2345 -1.9547  0.9947
  1004G12c H00R18531  12.325   6.588   0.237-10.2939  2.3859  3.6950
  1004G12c H00Q18532  12.283   6.447   0.322  2.2569 -3.3289  0.3477
  1004G12c O00918533  12.395   6.466   0.151  0.9436 -0.7593 -0.8537
  1004G12c H00P18534  12.409   6.377   0.122  2.7141 -2.3272  4.2348
  1004G12c C01W18535  12.081   6.503   0.067 -1.3212 -0.7884 -1.7653
  1004G12c H00O18536  11.994   6.566   0.057 -1.6803 -1.3199 -1.9743
  1004G12c C01X18537  12.128   6.423  -0.042  0.2908  0.3698 -0.7258
  1004G12c H00N18538  12.090   6.459  -0.138  1.1707  1.2678 -0.7483
  1004G12c H00M18539  12.237   6.418  -0.050  0.6550  3.4494  1.2886
  1004G12c C01Y18540  12.068   6.274  -0.024 -1.9056 -0.8197 -0.2414
  1004G12c C02D18541  11.983   6.195  -0.104  0.9780  0.1135  1.2197
  1004G12c H01918542  11.951   6.211  -0.206  3.9123  1.7710  0.4996
  1004G12c C02C18543  11.962   6.055  -0.084 -0.5413 -0.4098  1.5223
  1004G12c H01A18544  11.922   6.013  -0.175 -1.4998  4.3168 -0.4092
  1004G12c C02B18545  12.015   5.993   0.031 -0.4667 -1.0243 -1.1378
  1004G12c O00E18546  11.997   5.854   0.040  1.5243 -0.5666  0.0385
  1004G12c H01B18547  12.022   5.796  -0.030  3.0265  0.9213 -0.6935
  1004G12c C02F18548  12.084   6.068   0.124 -0.0272  0.9235  0.2072
  1004G12c O00F18549  12.105   6.036   0.256 -1.0088 -0.8088 -1.0723
  1004G12c C02G18550  12.227   6.069   0.298  0.3939 -0.2447  0.0820
  1004G12c H01718551  12.229   6.166   0.348 -0.2504  0.2028 -0.7624
  1004G12c H01618552  12.321   6.064   0.242  5.2029  0.3787  7.3262
  1004G12c H01518553  12.252   6.011   0.388  4.0720 -5.2070 -3.8012
  1004G12c C02E18554  12.108   6.210   0.103 -0.6461 -0.1685 -1.8144
  1004G12c H01818555  12.171   6.282   0.153 -0.3175  3.0452 -6.5480
  1004G12c C01F18556  11.977   6.440   0.479  1.1608  0.8760 -1.5640
  1004G12c C01G18557  12.084   6.492   0.573  0.4995 -1.0680 -0.6898
  1004G12c H00L18558  12.138   6.582   0.549 -0.0614 -2.0350 -6.3344
  1004G12c C01H18559  12.081   6.464   0.708  0.9415  0.5063  0.8883
  1004G12c H00B18560  12.110   6.530   0.789  5.2728 -5.1365  4.2517
  1004G12c C01I18561  11.984   6.368   0.760 -0.7352  0.1838 -1.0044
  1004G12c C01U18562  11.891   6.338   0.549  2.1827 -0.4156  3.1782
  1004G12c C00S18563  11.350   6.348   0.607 -0.4103  1.7087  0.3987
  1004G12c C00K18564  11.502   6.298   0.762 -1.1832  2.1481 -0.2535
  1004G12c C00N18565  11.760   6.320   0.476  0.6980 -0.2587 -0.3890
  1004G12c C00018566  11.908   6.291   0.675  0.2737  0.8485  0.3147
  1004G12c C01J18567  11.903   6.403   0.878  0.5667 -0.6328  2.1705
  1004G12c C01K18568  11.942   6.486   0.995 -2.4918  1.0271 -0.0515
  1004G12c C01P18569  12.071   6.522   1.042  0.5861 -2.8737 -0.7953
  1004G12c C01Q18570  12.189   6.433   1.019  0.7558 -0.7062 -0.0437
  1004G12c H00G18571  12.183   6.362   0.938-11.1776 -0.2942 -0.3807
  1004G12c C01R18572  12.310   6.436   1.081  0.2431  1.4386 -1.7082
  1004G12c H00F18573  12.319   6.494   1.172 -2.5763  2.6620 -2.1684
  1004G12c C01S18574  12.438   6.367   1.065 -0.2531 -0.2919 -0.6454
  1004G12c H00E18575  12.477   6.308   1.148 -0.9511  3.1952  2.2955
  1004G12c H00D18576  12.412   6.300   0.983 -1.0464  1.2572 -1.6801
  1004G12c O00518577  12.520   6.481   1.063 -2.1842 -1.5571 -0.1988
  1004G12c H00C18578  12.499   6.509   0.975 -0.8382  0.2128  0.0129
  1004G12c C01O18579  12.074   6.619   1.147 -0.3885  2.3251 -2.1844
  1004G12c H00H18580  12.149   6.653   1.218 -2.3781  0.6988  0.8131
  1004G12c C01N18581  11.967   6.686   1.207  0.8101  1.0599  1.8878
  1004G12c O00618582  11.995   6.772   1.300 -0.8528  1.0027  0.1511
  1004G12c C01T18583  11.923   6.895   1.358 -0.3043  1.1956 -0.5864
  1004G12c H00K18584  11.851   6.853   1.428  0.7070 -2.7362 -1.7900
  1004G12c H00J18585  11.853   6.935   1.284  1.6673  0.5521 -2.9017
  1004G12c H00I18586  11.994   6.970   1.394 -1.4824  3.7221 -3.3253
  1004G12c C01M18587  11.840   6.645   1.156  0.1186 -0.7391 -1.2902
  1004G12c C02018588  11.530   6.350   0.905 -1.3067 -1.1425 -0.7523
  1004G12c C02118589  11.436   6.385   1.004 -1.1532  1.2558  1.1055
  1004G12c C01L18590  11.820   6.536   1.058  0.3721  1.5277 -1.5637
  1004G12c O00718591  11.732   6.702   1.221 -0.0225  0.6348  1.3718
  1004G12c C02218592  11.470   6.480   1.107 -0.6136  0.2570  0.5512
  1004G12c C02318593  11.302   6.403   0.970  1.1552 -1.3022 -0.0313
  1004G12c C00G18594  11.083   6.533   0.860 -0.3048 -1.9040 -0.0783
  1004G12c C00E18595  10.898   6.688   0.864 -2.1290 -0.6730  0.8556
  1004G12c O00A18596  10.821   6.795   0.795 -1.2478 -1.3967 -0.9590
  1004G12c C02418597  10.903   6.872   0.700  0.0871 -0.8265 -2.2900
  1004G12c H00V18598  10.983   6.930   0.747 -1.5286  0.9454 -1.6762
  1004G12c H00U18599  10.826   6.919   0.639 -3.6096 -3.4588  0.2089
  1004G12c H00T18600  10.970   6.812   0.638  1.2465 -1.3818 -0.5351
  1014G12c C00D18601   6.425   7.936   1.275 -1.6741 -1.3876 -0.0660
  1014G12c O00B18602   6.429   7.857   1.387 -0.6594  0.5641  1.2738
  1014G12c C02518603   6.524   7.898   1.488  0.7726  1.0151 -1.0168
  1014G12c C02618604   6.483   7.836   1.612 -0.3493 -0.1822  0.4419
  1014G12c H00Y18605   6.553   7.867   1.690  2.1206  1.2240 -2.2178
  1014G12c H00X18606   6.507   7.729   1.611 -2.2396 -0.6399 -2.9067
  1014G12c O00C18607   6.339   7.856   1.610  0.0177 -0.1757 -0.4343
  1014G12c H00W18608   6.335   7.882   1.519  5.5717  0.9202 -0.5211
  1014G12c C02718609   6.629   7.965   1.470 -2.4440 -2.1449 -0.3168
  1014G12c O00D18610   6.657   8.044   1.362  0.2382 -0.4980  3.0196
  1014G12c H00Z18611   6.664   8.139   1.367 -3.0917 -0.0508  1.0909
  1014G12c C02818612   6.736   7.977   1.569 -0.1794 -0.5264  3.5962
  1014G12c C02918613   6.724   8.066   1.675 -0.8165 -0.9121  0.5693
  1014G12c H01018614   6.625   8.110   1.680  0.6636  2.2204  4.3150
  1014G12c C02T18615   6.827   8.100   1.764  0.3678 -0.8534  0.2444
  1014G12c H01O18616   6.834   8.146   1.861 -0.2857  2.8519 -1.3338
  1014G12c C02S18617   6.947   8.036   1.745  1.1157  0.9502 -0.3763
  1014G12c O00J18618   7.048   8.059   1.834  1.3553  0.8099  0.5401
  1014G12c H01P18619   7.123   8.011   1.802 -1.7633 -3.8000 -0.3151
  1014G12c C02R18620   6.980   7.952   1.636  0.3455  1.5686  0.0875
  1014G12c O00I18621   7.104   7.900   1.595 -0.2661  0.7951  0.4620
  1014G12c C02Q18622   7.167   7.946   1.484 -1.5665  0.4320  1.1642
  1014G12c H01N18623   7.256   7.886   1.469 -3.9791 -2.4153 -2.6418
  1014G12c H01R18624   7.098   7.912   1.407  4.7910 -2.9716 -3.4066
  1014G12c H01Q18625   7.180   8.054   1.485  1.0808  0.2149 -2.1658
  1014G12c C02A18626   6.869   7.919   1.537  1.0944 -1.0340 -1.2644
  1014G12c H01118627   6.871   7.851   1.454 -2.4388  0.0448 -2.2877
  1014G12c C00C18628   6.488   7.911   1.155 -0.0990  0.0819 -1.8487
  1014G12c H01218629   6.556   7.827   1.156  2.3130  1.9703 -2.7318
  1014G12c C00B18630   6.481   8.009   1.053  0.4323 -0.1756 -0.6761
  1014G12c C00A18631   6.544   8.004   0.913  1.2384 -0.8332 -0.4463
  1014G12c C00918632   6.671   7.932   0.861 -1.3325  1.0596 -1.1752
  1014G12c C00818633   6.768   7.857   0.941  1.4838  0.2877 -0.5905
  1014G12c H01318634   6.720   7.778   0.998  7.1482  0.7338  5.4190
  1014G12c C00718635   6.899   7.880   0.901 -0.0727 -1.5783 -0.3270
  1014G12c H01418636   6.962   7.795   0.923  5.2210  1.8443 -1.2948
  1014G12c C00618637   6.945   7.961   0.801  0.1589 -0.8748  0.3316
  1014G12c C00518638   6.843   8.026   0.712 -0.8070 -1.5021 -0.2015
  1014G12c C00418639   6.882   8.146   0.638  1.6697  0.5352  0.0117
  1014G12c C00318640   6.771   8.230   0.575 -0.7992  1.1493  0.4673
  1014G12c C00218641   6.807   8.330   0.496 -0.5523  1.0508  0.1757
  1014G12c C00118642   6.723   8.440   0.433  0.9171 -1.1462  1.3780
  1014G12c C00M18643   6.606   8.513   0.467 -0.6822 -0.8928 -0.0445
  1014G12c C00L18644   6.513   8.444   0.565  0.5533 -0.9445  2.0644
  1014G12c C00R18645   6.430   8.517   0.655 -0.1550 -0.3179 -0.0436
  1014G12c C00Q18646   6.379   8.656   0.679  0.6488  0.3147 -0.4922
  1014G12c C00V18647   6.310   8.671   0.805  0.4453  0.1159  0.4972
  1014G12c C00U18648   6.296   8.573   0.908 -1.3502 -1.3698 -0.5596
  1014G12c C00T18649   6.347   8.457   0.895  0.6462  0.3881 -1.5371
  1014G12c C01618650   6.325   8.339   0.973 -0.1742 -0.1997 -0.8579
  1014G12c C01518651   6.269   8.374   1.103  1.3661 -1.7870  0.1512
  1014G12c C01018652   6.242   8.510   1.138 -1.4047  0.7074 -0.9291
  1014G12c C01118653   6.226   8.540   1.273  0.1408  0.9668 -1.9724
  1014G12c H00518654   6.195   8.640   1.302  1.4737  1.0741 -0.8649
  1014G12c C01218655   6.263   8.449   1.373  1.0484  1.1316  2.5727
  1014G12c C01718656   6.300   8.506   1.512  1.2564 -0.0186  0.1788
  1014G12c O00218657   6.195   8.514   1.592  0.4914 -0.8295  1.3720
  1014G12c H00418658   6.130   8.471   1.539  0.2282 -1.6888  2.3835
  1014G12c C01818659   6.430   8.524   1.548  0.7531  0.4683 -0.7848
  1014G12c O00118660   6.521   8.508   1.453  0.3717 -1.0340  0.7451
  1014G12c H00318661   6.473   8.483   1.376  1.5901  2.0952 -1.1299
  1014G12c C01918662   6.492   8.536   1.687  0.6573  0.7846  0.1227
  1014G12c H00218663   6.568   8.613   1.699  0.9079  0.7592 -1.2409
  1014G12c H00118664   6.400   8.557   1.740 -2.8578 -3.0830 -3.9761
  1014G12c O00018665   6.539   8.416   1.740 -0.0784  1.1163 -0.3547
  1014G12c C01A18666   6.603   8.422   1.862  0.0633 -1.9257 -0.1342
  1014G12c C02K18667   6.549   8.329   1.957 -1.6937  0.3175  1.2191
  1014G12c O00G18668   6.517   8.210   1.918 -0.2175  0.8737 -0.3039
  1014G12c C02M18669   6.577   8.113   1.993 -0.3431  0.4460 -0.2574
  1014G12c H01G18670   6.681   8.113   2.023 -0.9913  3.7099  2.3378
  1014G12c H01F18671   6.589   8.032   1.922  2.3821  1.7879 -1.3639
  1014G12c H01E18672   6.495   8.062   2.045 -4.0036  6.2072  0.1511
  1014G12c C02J18673   6.593   8.352   2.104 -0.9328 -0.6756  1.7119
  1014G12c H01H18674   6.562   8.280   2.179 -3.6665 -0.9842  0.3298
  1014G12c C02I18675   6.703   8.436   2.142 -0.2879  1.2415 -0.6710
  1014G12c C02N18676   6.745   8.422   2.281 -1.5556 -0.9111 -2.4066
  1014G12c H01M18677   6.767   8.331   2.333 -1.8607 -2.7413 -5.3630
  1014G12c C02O18678   6.719   8.537   2.352  1.4436  0.4023 -0.5666
  1014G12c H01L18679   6.658   8.625   2.338 -2.7799 -2.3668 -0.4951
  1014G12c C02P18680   6.768   8.571   2.487  0.7150  0.4136 -1.1548
  1014G12c H01K18681   6.673   8.564   2.539  3.6878 -3.3826  4.3236
  1014G12c H01J18682   6.788   8.480   2.545  2.4834  0.0436 -2.3140
  1014G12c O00H18683   6.800   8.709   2.498  0.4520 -0.7721  1.0875
  1014G12c H01I18684   6.862   8.736   2.432 -4.1660  3.1872 -2.0404
  1014G12c C02H18685   6.763   8.522   2.046 -1.1510  0.4757  0.9878
  1014G12c H01C18686   6.863   8.562   2.054 -0.4334 -1.3913  1.6188
  1014G12c C02L18687   6.714   8.514   1.909 -2.0433 -1.5485  1.1160
  1014G12c H01D18688   6.764   8.590   1.850  1.2658 -5.7413 -1.7812
  1014G12c C01318689   6.284   8.314   1.342  0.0757 -0.8625  0.6788
  1014G12c H00018690   6.332   8.254   1.418  5.8950 -0.7537 -2.6860
  1014G12c C01418691   6.284   8.276   1.207  0.5128  0.1140  0.9833
  1014G12c C00F18692   6.344   8.149   1.177  1.8502 -0.0851  0.4182
  1014G12c C00H18693   6.402   8.223   0.953  0.8943  0.6065  0.4194
  1014G12c C00I18694   6.456   8.196   0.833  1.3064 -0.1004 -0.8859
  1014G12c C00J18695   6.437   8.301   0.739 -0.4493 -0.1963  0.1573
  1014G12c C00Z18696   6.243   8.605   1.038  2.2074  1.3923  1.5899
  1014G12c C00Y18697   6.194   8.733   1.062 -0.9228  0.2362 -0.7507
  1014G12c H00618698   6.168   8.772   1.159  4.0818 -0.1050  0.8965
  1014G12c C00X18699   6.199   8.831   0.959  1.4401  1.3092  0.0451
  1014G12c O00318700   6.210   8.957   0.990 -0.2092 -0.2467  0.4596
  1014G12c C01B18701   6.094   9.020   0.934  0.7404 -1.7186 -1.0202
  1014G12c H00918702   6.116   9.089   0.852  7.5336 -3.1752 -0.7253
  1014G12c H00818703   6.008   8.958   0.912  0.6596 -2.7540  2.0214
  1014G12c H00718704   6.067   9.081   1.020 -0.5338 -1.0986 -1.8398
  1014G12c C00W18705   6.246   8.792   0.830 -0.3809  0.6200  1.4016
  1014G12c O00418706   6.277   8.901   0.749 -1.1562  1.6384  0.5058
  1014G12c C01C18707   6.363   8.891   0.641 -0.6263 -0.3047 -0.0065
  1014G12c H00A18708   6.428   8.972   0.613  2.6289  0.0573  7.3697
  1014G12c C00P18709   6.403   8.769   0.586  0.2560 -0.9870 -0.5664
  1014G12c C00O18710   6.539   8.765   0.507  0.6251 -0.6343  2.3627
  1014G12c C01D18711   6.615   8.888   0.466  1.0574 -0.3353 -1.3727
  1014G12c H00S18712   6.582   8.991   0.455  1.4999 -0.3569 -2.9823
  1014G12c C01E18713   6.756   8.892   0.459 -0.8689 -0.3155 -0.2921
  1014G12c O00818714   6.848   9.010   0.467  0.5704 -0.3203  0.9975
  1014G12c C01V18715   6.796   9.146   0.487  1.1791  0.9116  0.6813
  1014G12c C01Z18716   6.743   9.200   0.352 -1.2535 -0.2255  1.2129
  1014G12c H00R18717   6.667   9.148   0.293  1.7374 -2.7701 -0.5845
  1014G12c H00Q18718   6.670   9.272   0.389  3.6363  6.2790 -0.9797
  1014G12c O00918719   6.829   9.301   0.291  0.8089 -2.1267 -0.0017
  1014G12c H00P18720   6.773   9.377   0.289  1.5129 -1.4878  2.4456
  1014G12c C01W18721   6.817   9.224   0.578  1.7200  0.5421 -1.5371
  1014G12c H00O18722   6.885   9.178   0.648  1.2671  5.2254  2.2566
  1014G12c C01X18723   6.742   9.357   0.614  1.3654 -0.2827 -0.1575
  1014G12c H00N18724   6.739   9.346   0.722  3.1513  2.3371  0.2067
  1014G12c H00M18725   6.782   9.446   0.566 -5.3377  2.5982 -1.0621
  1014G12c C01Y18726   6.580   9.366   0.602 -0.2471  0.6664  0.2534
  1014G12c C02D18727   6.489   9.283   0.680 -0.3995  0.2052  0.8451
  1014G12c H01918728   6.522   9.181   0.695  5.6883  2.1607  2.3177
  1014G12c C02C18729   6.354   9.315   0.698  0.2614  1.8850  0.8709
  1014G12c H01A18730   6.286   9.255   0.758 -1.0690  2.4948 -0.0007
  1014G12c C02B18731   6.303   9.434   0.647  0.7399  0.4710  0.7398
  1014G12c O00E18732   6.169   9.474   0.673  0.1778  0.2542  0.2805
  1014G12c H01B18733   6.173   9.568   0.666  0.4108  0.3448  1.5615
  1014G12c C02F18734   6.397   9.525   0.612  0.3521 -0.9231 -0.3015
  1014G12c O00F18735   6.366   9.657   0.609 -1.4714  0.5996  0.5079
  1014G12c C02G18736   6.430   9.760   0.510 -1.0374  0.5280 -1.0403
  1014G12c H01718737   6.418   9.696   0.422  0.0800 -0.7207 -0.3150
  1014G12c H01618738   6.369   9.849   0.519 -1.6289 -0.3206  6.1723
  1014G12c H01518739   6.533   9.777   0.543 -0.7453  4.3431 -3.5948
  1014G12c C02E18740   6.518   9.483   0.547 -0.2346 -1.2686  0.5155
  1014G12c H01818741   6.571   9.558   0.490  1.3615 -0.8161  2.5467
  1014G12c C01F18742   6.831   8.770   0.427 -1.7540  0.1316  0.5270
  1014G12c C01G18743   6.975   8.751   0.425  0.5319 -1.7898 -0.1485
  1014G12c H00L18744   7.033   8.842   0.426 -5.4306  2.6383 -7.0861
  1014G12c C01H18745   7.033   8.621   0.432  1.3775  0.3367  0.8873
  1014G12c H00B18746   7.122   8.626   0.494  2.9897 -3.0980 -0.9742
  1014G12c C01I18747   6.938   8.505   0.434 -0.5345 -0.1087  1.8312
  1014G12c C01U18748   6.759   8.647   0.409  0.2227 -0.0814 -1.7146
  1014G12c C00S18749   6.389   8.416   0.762  0.7702 -0.2653 -2.5799
  1014G12c C00K18750   6.545   8.320   0.631 -0.6115 -0.5610  1.8028
  1014G12c C00N18751   6.627   8.657   0.467  2.7762 -0.7474  0.5305
  1014G12c C00018752   6.809   8.521   0.379 -0.0430 -1.8309 -1.3261
  1014G12c C01J18753   6.939   8.373   0.496 -1.3176 -2.7510 -0.5518
  1014G12c C01K18754   7.056   8.303   0.559 -0.4323 -1.5794 -0.9277
  1014G12c C01P18755   7.193   8.335   0.570 -2.2600 -1.4092 -0.8630
  1014G12c C01Q18756   7.254   8.421   0.470  2.1784  1.2707  1.7026
  1014G12c H00G18757   7.201   8.430   0.376  2.9008  1.2268  1.2855
  1014G12c C01R18758   7.352   8.500   0.502 -0.7970 -2.1981  0.3544
  1014G12c H00F18759   7.401   8.515   0.598 -0.5475  1.0307 -0.2170
  1014G12c C01S18760   7.425   8.585   0.413 -0.4806 -1.0445 -0.5748
  1014G12c H00E18761   7.429   8.559   0.307  1.0481 -0.4796 -0.6617
  1014G12c H00D18762   7.402   8.688   0.442 -1.1788 -1.9974  2.5178
  1014G12c O00518763   7.554   8.559   0.463  0.4608  2.9290 -0.2216
  1014G12c H00C18764   7.549   8.465   0.477  1.3997  3.3477  3.2820
  1014G12c C01O18765   7.280   8.282   0.673  0.3604  0.8539  0.8257
  1014G12c H00H18766   7.382   8.316   0.662  0.5436 -0.4577 -1.8969
  1014G12c C01N18767   7.245   8.168   0.741  0.8842 -0.5174  0.9590
  1014G12c O00618768   7.344   8.087   0.783  0.7068 -0.3703  0.2604
  1014G12c C01T18769   7.380   8.084   0.917  0.8352  0.4529  0.8716
  1014G12c H00K18770   7.489   8.086   0.917  0.8861  4.3038 -2.4807
  1014G12c H00J18771   7.348   8.175   0.967  1.4329 -3.4449  9.0979
  1014G12c H00I18772   7.331   7.995   0.958  2.7611 -2.5746 -2.9439
  1014G12c C01M18773   7.106   8.116   0.714 -1.8572 -0.2930 -2.2505
  1014G12c C02018774   6.642   8.206   0.642  0.3625  1.4098  1.4044
  1014G12c C02118775   6.610   8.077   0.697  0.8844 -0.3186  0.4597
  1014G12c C01L18776   7.007   8.192   0.636 -1.1543 -0.6877 -0.9352
  1014G12c O00718777   7.073   8.016   0.800  0.3297 -1.3955  0.4986
  1014G12c C02218778   6.708   7.984   0.727  0.6285  2.4335  0.1214
  1014G12c C02318779   6.513   8.077   0.800 -1.2278  0.3760 -0.1779
  1014G12c C00G18780   6.412   8.121   1.061  0.5688 -0.3991  1.2297
  1014G12c C00E18781   6.343   8.049   1.280  1.4323 -1.1121  0.0716
  1014G12c O00A18782   6.253   8.050   1.383 -1.1032 -0.1271  1.1989
  1014G12c C02418783   6.131   7.999   1.357  0.4938 -0.2991 -2.8255
  1014G12c H00V18784   6.145   7.895   1.325 -7.0674 -6.1755  9.2609
  1014G12c H00U18785   6.063   8.043   1.285  5.2342  2.0196 -6.1832
  1014G12c H00T18786   6.089   7.967   1.452 -6.3129  1.1005 -5.0987
  1024G12c C00D18787   5.322   9.502  10.450  0.3829  1.4707 -0.8651
  1024G12c O00B18788   5.338   9.368  10.397  0.5682 -0.2874  0.4504
  1024G12c C02518789   5.219   9.300  10.417  2.1819  0.3519  0.6773
  1024G12c C02618790   5.115   9.328  10.311  0.2222 -0.1507 -1.6950
  1024G12c H00Y18791   5.187   9.382  10.250  3.4955 -0.0221  2.1303
  1024G12c H00X18792   5.040   9.384  10.367 -1.8490 -4.5429  0.1617
  1024G12c O00C18793   5.082   9.210  10.232  1.8479 -1.5738 -0.0804
  1024G12c H00W18794   5.151   9.153  10.263  3.1066 -0.4539 -0.7454
  1024G12c C02718795   5.211   9.202  10.499  0.1667  0.1927  1.7588
  1024G12c O00D18796   5.319   9.207  10.588  1.5541  0.1920 -0.7478
  1024G12c H00Z18797   5.294   9.217  10.679  0.5880  2.6525 -1.2403
  1024G12c C02818798   5.114   9.096  10.513  0.9618  1.5543 -0.4121
  1024G12c C02918799   5.179   8.973  10.496 -0.1599 -0.7392 -0.3538
  1024G12c H01018800   5.285   8.967  10.475  0.0211  1.7371 -0.3408
  1024G12c C02T18801   5.114   8.856  10.487  1.6403 -0.0256 -1.3487
  1024G12c H01O18802   5.182   8.774  10.504  2.6020  1.4683  2.3914
  1024G12c C02S18803   4.978   8.855  10.476  1.2567  0.2349  0.9229
  1024G12c O00J18804   4.924   8.728  10.467 -1.3132 -2.0041 -0.1813
  1024G12c H01P18805   4.978   8.663  10.424  0.2082 -1.6141  1.0911
  1024G12c C02R18806   4.899   8.965  10.484 -1.0981  1.2605 -0.7552
  1024G12c O00I18807   4.771   8.955  10.478 -0.9923  0.0144  0.6491
  1024G12c C02Q18808   4.681   8.971  10.588  1.1513  1.2381 -0.9261
  1024G12c H01N18809   4.602   9.046  10.584  3.8561  4.1830 -1.1044
  1024G12c H01R18810   4.742   9.010  10.669  1.8136 -0.6655 -0.4781
  1024G12c H01Q18811   4.608   8.891  10.596  1.7663 -0.2830 -7.6497
  1024G12c C02A18812   4.963   9.088  10.505 -1.2775 -0.0751 -0.3493
  1024G12c H01118813   4.893   9.168  10.487  0.7523  1.3106 -2.2888
  1024G12c C00C18814   5.229   9.531  10.539 -0.8664 -0.2371 -0.0465
  1024G12c H01218815   5.154   9.458  10.569 -0.5317 -0.0504  1.2628
  1024G12c C00B18816   5.196   9.650  10.601 -0.6546  0.9551 -1.2229
  1024G12c C00A18817   5.104   9.682  10.698 -0.0064 -0.9557 -0.0451
  1024G12c C00918818   4.972   9.633  10.721 -1.2846 -0.6801 -1.7314
  1024G12c C00818819   4.878   9.557  10.623  1.2153 -1.9604 -0.7850
  1024G12c H01318820   4.893   9.491  10.540 -0.5313 -1.0366 -1.8705
  1024G12c C00718821   4.749   9.554  10.657  1.1403 -0.0287  0.1331
  1024G12c H01418822   4.681   9.477  10.623 -2.7160  0.8895  5.0752
  1024G12c C00618823   4.707   9.638  10.770  0.1687  1.6633  0.3618
  1024G12c C00518824   4.790   9.728  10.843 -1.8937 -0.8544  0.2697
  1024G12c C00418825   4.754   9.850  10.916  0.2212 -0.0678  1.6130
  1024G12c C00318826   4.843   9.953  10.926 -0.2053 -0.1767 -0.9737
  1024G12c C00218827   4.784  10.078  10.950 -0.4311 -0.9079 -0.6306
  1024G12c C00118828   4.844  10.198  10.989 -1.2062 -1.9937  0.9294
  1024G12c C00M18829   4.971  10.262  10.928  0.8295  0.9770  0.1145
  1024G12c C00L18830   5.101  10.201  10.911  0.0434  1.2900 -0.8223
  1024G12c C00R18831   5.190  10.243  10.815  0.0348  0.0298 -1.6338
  1024G12c C00Q18832   5.214  10.363  10.744 -0.1105 -0.7411  0.5581
  1024G12c C00V18833   5.325  10.356  10.656  0.1068  0.0346  0.2706
  1024G12c C00U18834   5.377  10.224  10.614 -0.2815  0.3634 -0.6441
  1024G12c C00T18835   5.323  10.115  10.657  0.9561  1.7691  1.3314
  1024G12c C01618836   5.371   9.993  10.608  1.0985  0.3179 -0.1829
  1024G12c C01518837   5.479   9.980  10.522  1.1844 -0.9860  0.1065
  1024G12c C01018838   5.533  10.093  10.484 -1.2655  0.1760 -0.2125
  1024G12c C01118839   5.635  10.076  10.388 -0.5312  0.8078  0.0125
  1024G12c H00518840   5.698  10.155  10.350  0.8286 -1.1869 -2.0007
  1024G12c C01218841   5.657   9.950  10.324  1.2082  0.6041  1.2053
  1024G12c C01718842   5.750   9.929  10.206  0.0318  0.7080 -1.6091
  1024G12c O00218843   5.795   9.803  10.184  1.5960 -0.9133  1.3060
  1024G12c H00418844   5.822   9.784  10.096 -2.5262 -3.4114  0.4400
  1024G12c C01818845   5.783  10.036  10.123  1.4910 -0.6451 -1.1229
  1024G12c O00118846   5.724  10.152  10.135  0.8239  0.7446 -0.9977
  1024G12c H00318847   5.646  10.165  10.188 -0.2910 -1.3702 -2.0665
  1024G12c C01918848   5.893  10.039  10.027 -0.3808  1.9532  0.9023
  1024G12c H00218849   5.878  10.000   9.927  3.8979  1.7059  0.2626
  1024G12c H00118850   5.951  10.125   9.994  4.2137 -1.9387 -1.7649
  1024G12c O00018851   6.006   9.975  10.082  1.2737 -0.3986  1.1520
  1024G12c C01A18852   6.067  10.069  10.171 -0.2552 -1.1464  0.3674
  1024G12c C02K18853   6.181  10.150  10.141 -0.6872 -0.6971 -0.8890
  1024G12c O00G18854   6.275  10.132  10.046  1.4948  0.2377  1.2038
  1024G12c C02M18855   6.223  10.115   9.919 -0.7406  2.8120 -0.6844
  1024G12c H01G18856   6.291  10.163   9.849  3.8609 -2.4511 -0.1917
  1024G12c H01F18857   6.176  10.029   9.873 -4.5627  6.1256 -3.3113
  1024G12c H01E18858   6.142  10.185   9.900 -3.8588 -0.4783  0.0516
  1024G12c C02J18859   6.219  10.232  10.245  0.3029  0.2104 -1.7283
  1024G12c H01H18860   6.312  10.283  10.221  0.4344 -1.6181 -5.5389
  1024G12c C02I18861   6.172  10.263  10.375 -0.6702  0.5074 -1.1076
  1024G12c C02N18862   6.220  10.335  10.486  0.5130 -0.6775  0.9719
  1024G12c H01M18863   6.327  10.353  10.485  0.5269 -0.6818  1.7632
  1024G12c C02O18864   6.141  10.380  10.580 -0.5604  0.7446 -0.4124
  1024G12c H01L18865   6.044  10.334  10.593  0.8367 -2.0258  0.6321
  1024G12c C02P18866   6.168  10.478  10.682  0.0581 -0.6377  0.4356
  1024G12c H01K18867   6.131  10.438  10.776  2.0808 -2.1911  0.6183
  1024G12c H01J18868   6.276  10.492  10.682  0.1906 -1.6135 -1.1418
  1024G12c O00H18869   6.146  10.615  10.647 -0.8041 -1.3335  1.1684
  1024G12c H01I18870   6.193  10.625  10.566 -2.5152 -4.9269 -0.3877
  1024G12c C02H18871   6.076  10.166  10.398 -1.2708 -0.7837 -1.2085
  1024G12c H01C18872   6.025  10.172  10.493  3.0323  1.6212  1.1247
  1024G12c C02L18873   6.030  10.066  10.302  0.3993 -1.0239 -2.7572
  1024G12c H01D18874   5.962   9.986  10.327 -3.5459  1.0375 -6.3159
  1024G12c C01318875   5.589   9.831  10.366 -2.3766  0.7433 -0.6307
  1024G12c H00018876   5.607   9.738  10.315 -3.3955  1.5478 -2.5329
  1024G12c C01418877   5.503   9.852  10.470  1.3006  1.3520 -1.0239
  1024G12c C00F18878   5.411   9.737  10.505  0.3415  0.1938 -0.2103
  1024G12c C00H18879   5.296   9.873  10.648 -0.0316  1.8586 -0.9532
  1024G12c C00I18880   5.203   9.888  10.748 -0.0773 -0.8590  0.3367
  1024G12c C00J18881   5.185  10.014  10.804  0.3970 -1.1733 -0.1412
  1024G12c C00Z18882   5.483  10.217  10.524 -0.5741  1.1962  1.2893
  1024G12c C00Y18883   5.527  10.330  10.473 -0.8364  0.1097  0.2641
  1024G12c H00618884   5.617  10.321  10.415 -3.3713  0.8351 -3.9862
  1024G12c C00X18885   5.480  10.467  10.513 -0.8228  0.5082  1.3204
  1024G12c O00318886   5.533  10.577  10.454  0.3209 -0.5503  1.0383
  1024G12c C01B18887   5.488  10.615  10.332  0.2663  0.5264 -0.0311
  1024G12c H00918888   5.567  10.664  10.276  1.5746 -2.4118 -0.8369
  1024G12c H00818889   5.393  10.664  10.355  0.3001  1.8189 -2.4846
  1024G12c H00718890   5.465  10.520  10.284 -5.0088  2.5309 -1.8626
  1024G12c C00W18891   5.380  10.473  10.604 -0.3793  2.5832  1.4124
  1024G12c O00418892   5.343  10.597  10.651  0.7395 -1.0201 -0.0971
  1024G12c C01C18893   5.213  10.612  10.720 -0.5636  0.2836  0.4589
  1024G12c H00A18894   5.193  10.710  10.761 -2.9326 -2.6684  6.9550
  1024G12c C00P18895   5.140  10.496  10.768 -0.0149 -1.6310 -0.0350
  1024G12c C00O18896   5.000  10.493  10.811 -0.9583 -0.9226  0.1634
  1024G12c C01D18897   4.925  10.600  10.757 -0.2410 -0.2580 -0.2879
  1024G12c H00S18898   4.946  10.695  10.709 -2.3971  0.2650 -0.2410
  1024G12c C01E18899   4.775  10.569  10.728  0.7801 -0.2939 -0.6228
  1024G12c O00818900   4.728  10.644  10.634 -0.7906  0.2044  0.8015
  1024G12c C01V18901   4.650  10.756  10.668 -1.7630 -1.1469  0.1105
  1024G12c C01Z18902   4.543  10.752  10.782  0.6249 -0.6318 -1.7242
  1024G12c H00R18903   4.480  10.665  10.760 -1.4832 -0.5201  3.1461
  1024G12c H00Q18904   4.584  10.727  10.880  1.1036 -9.2417 -3.6608
  1024G12c O00918905   4.439  10.839  10.781 -0.3324  0.0567 -0.1994
  1024G12c H00P18906   4.469  10.922  10.814  0.6167  1.4664 -4.3898
  1024G12c C01W18907   4.645  10.845  10.558 -0.4414 -1.0510  1.5916
  1024G12c H00O18908   4.603  10.944  10.550 -1.3961 -1.6903 -2.7567
  1024G12c C01X18909   4.696  10.826  10.409  2.8620 -0.5085 -0.1147
  1024G12c H00N18910   4.763  10.740  10.408  2.9241 -0.4813 -3.8222
  1024G12c H00M18911   4.614  10.817  10.338 -4.7126 -6.5591  8.2188
  1024G12c C01Y18912   4.818  10.891  10.349  0.7728 -0.6995  0.1442
  1024G12c C02D18913   4.823  10.878  10.208 -0.5843  1.1648 -0.9004
  1024G12c H01918914   4.735  10.830  10.166  0.6826 -0.7002 -1.4780
  1024G12c C02C18915   4.935  10.928  10.144  1.0282 -0.8590 -1.3291
  1024G12c H01A18916   4.928  10.929  10.036  4.0294  1.8889 -1.5795
  1024G12c C02B18917   5.043  11.006  10.187 -0.9038 -1.5861  0.2354
  1024G12c O00E18918   5.141  11.047  10.099 -0.7971  0.6853  2.2158
  1024G12c H01B18919   5.145  11.140  10.114  0.9259  1.6513 -3.3567
  1024G12c C02F18920   5.012  11.053  10.314  0.8735 -0.8075  0.1301
  1024G12c O00F18921   5.101  11.125  10.370 -0.7106  0.2895 -1.0528
  1024G12c C02G18922   5.229  11.077  10.377  0.8960  0.7592  0.1503
  1024G12c H01718923   5.296  11.144  10.324 -5.5891  2.3981 -6.8404
  1024G12c H01618924   5.225  10.969  10.359 -1.2914  1.2332 -2.5742
  1024G12c H01518925   5.258  11.124  10.471  1.2553 -0.9431  0.9196
  1024G12c C02E18926   4.890  11.010  10.372 -0.3919  0.2840  0.6450
  1024G12c H01818927   4.877  11.083  10.450 -1.9160  3.1261 -2.1355
  1024G12c C01F18928   4.710  10.457  10.786 -0.8460  2.2669 -1.5266
  1024G12c C01G18929   4.585  10.399  10.765 -0.1713  0.6792  1.7761
  1024G12c H00L18930   4.519  10.441  10.690 -4.7554 -3.5025  3.1568
  1024G12c C01H18931   4.522  10.292  10.836 -0.9098 -0.3365 -0.4586
  1024G12c H00B18932   4.426  10.254  10.806 -0.5748 -0.0701 -1.9294
  1024G12c C01I18933   4.630  10.232  10.925 -1.5127 -1.5594 -1.5647
  1024G12c C01U18934   4.793  10.376  10.871  0.6133  0.6653 -1.1878
  1024G12c C00S18935   5.221  10.130  10.754  0.0011 -1.0166  0.4485
  1024G12c C00K18936   5.081  10.051  10.890 -0.9598 -0.1345 -0.3909
  1024G12c C00N18937   4.941  10.384  10.858  0.7403 -1.1694 -0.5430
  1024G12c C00018938   4.749  10.296  10.961 -0.1851 -0.1657 -2.7735
  1024G12c C01J18939   4.646  10.098  10.967  0.2062 -0.8830 -0.6641
  1024G12c C01K18940   4.553   9.998  10.945 -2.4047  0.3075  1.3863
  1024G12c C01P18941   4.410  10.019  10.940  0.0861 -0.2252  0.3589
  1024G12c C01Q18942   4.362  10.113  11.032  1.2920  0.4143 -1.5518
  1024G12c H00G18943   4.436  10.153  11.100  5.9201 -4.8485 -3.0326
  1024G12c C01R18944   4.238  10.138  11.066 -0.0923 -0.6107  0.5830
  1024G12c H00F18945   4.156  10.083  11.021  3.8644 -2.4751 -4.9018
  1024G12c C01S18946   4.211  10.251  11.164 -0.4235 -1.2504  0.0290
  1024G12c H00E18947   4.104  10.259  11.146 -0.0232 -5.1286 -5.6919
  1024G12c H00D18948   4.220  10.191  11.254 -0.4374 -0.5121  0.5259
  1024G12c O00518949   4.300  10.354  11.184  0.8584  0.9740  0.0373
  1024G12c H00C18950   4.353  10.355  11.262  3.3196  2.4858 -1.6079
  1024G12c C01O18951   4.329   9.914  10.889 -0.2024  0.8636 -1.2280
  1024G12c H00H18952   4.221   9.915  10.882 -0.3339 -0.3022  0.4983
  1024G12c C01N18953   4.388   9.794  10.870 -1.2885  1.0498  1.2548
  1024G12c O00618954   4.311   9.698  10.812 -0.0514 -0.4252  0.4712
  1024G12c C01T18955   4.188   9.678  10.890  0.8465 -0.2781  0.1225
  1024G12c H00K18956   4.173   9.585  10.946 -1.9061  2.1410  3.6224
  1024G12c H00J18957   4.095   9.663  10.835  1.4259 -0.3934 -0.8448
  1024G12c H00I18958   4.184   9.735  10.983  1.8598  1.2692 -0.7573
  1024G12c C01M18959   4.529   9.767  10.870 -0.4872  0.6111 -1.6406
  1024G12c C02018960   4.990   9.939  10.902  2.7122  1.5995 -0.4915
  1024G12c C02118961   5.025   9.796  10.885  0.9241 -0.7834 -1.5778
  1024G12c C01L18962   4.615   9.871  10.916  0.1167 -0.2183 -0.8398
  1024G12c O00718963   4.567   9.655  10.793 -0.4101  0.5052 -0.8464
  1024G12c C02218964   4.934   9.703  10.846 -0.0864 -0.3872 -0.3576
  1024G12c C02318965   5.143   9.776  10.797  1.2350  2.4002 -0.2293
  1024G12c C00G18966   5.299   9.751  10.587 -0.6148 -0.0908 -0.1740
  1024G12c C00E18967   5.425   9.611  10.450  1.4132 -0.1330  0.1347
  1024G12c O00A18968   5.540   9.548  10.423  0.5159  0.2302 -0.1402
  1024G12c C02418969   5.623   9.549  10.537 -0.8401 -0.2722 -0.5176
  1024G12c H00V18970   5.623   9.639  10.597 -2.6047  0.9932 -2.3358
  1024G12c H00U18971   5.726   9.532  10.505  1.2408 -2.3122  6.4931
  1024G12c H00T18972   5.578   9.460  10.582  2.1798 -0.1850  2.8700
  1034G12c C00D18973   5.895   7.146  13.504 -0.3157 -2.0292  1.0739
  1034G12c O00B18974   5.962   7.248  13.456  1.5223  0.1950  0.9409
  1034G12c C02518975   5.892   7.368  13.483  0.0657 -0.4741  1.1596
  1034G12c C02618976   5.812   7.393  13.602  1.3408  0.6393 -0.7401
  1034G12c H00Y18977   5.719   7.337  13.608  0.7568  1.4018 -2.3105
  1034G12c H00X18978   5.803   7.500  13.624  0.7641  0.2801  0.8078
  1034G12c O00C18979   5.899   7.368  13.726 -1.0901  0.0797 -0.5846
  1034G12c H00W18980   5.981   7.361  13.680 -1.3193 -2.9793 -0.6334
  1034G12c C02718981   5.862   7.442  13.364 -0.3847  2.2323  2.1557
  1034G12c O00D18982   5.784   7.552  13.369 -1.4079 -2.0724 -0.9416
  1034G12c H00Z18983   5.813   7.567  13.458 -5.6019  1.3763  0.0733
  1034G12c C02818984   5.942   7.435  13.236  1.4066 -1.5182 -0.2688
  1034G12c C02918985   6.074   7.378  13.210  0.4207 -2.9272 -0.6145
  1034G12c H01018986   6.128   7.317  13.282  1.5613 -3.6479 -2.0538
  1034G12c C02T18987   6.137   7.410  13.100 -0.2015  0.0595 -1.0280
  1034G12c H01O18988   6.242   7.388  13.115  0.5760  2.8069 -2.2703
  1034G12c C02S18989   6.078   7.495  13.025 -0.4561  0.1129  0.2910
  1034G12c O00J18990   6.148   7.546  12.914  0.1136 -0.8685 -0.9134
  1034G12c H01P18991   6.102   7.607  12.859  1.9918 -0.3729 -1.9771
  1034G12c C02R18992   5.940   7.537  13.026 -0.2428 -0.5195  0.8386
  1034G12c O00I18993   5.905   7.596  12.908  0.8040  0.1096 -0.2088
  1034G12c C02Q18994   5.779   7.681  12.912  1.0230  0.6048  0.7391
  1034G12c H01N18995   5.796   7.724  13.011 -0.2424  0.3793  1.0648
  1034G12c H01R18996   5.697   7.614  12.886  0.1669  1.0131  2.2693
  1034G12c H01Q18997   5.781   7.760  12.837  0.9392 -0.5763 -0.5364
  1034G12c C02A18998   5.877   7.525  13.147  1.9270 -0.1254 -0.5065
  1034G12c H01118999   5.771   7.542  13.136  1.7030 -1.9743 -1.5669
  1034G12c C00C19000   5.780   7.114  13.448  1.6918  0.0285  0.1962
  1034G12c H01219001   5.744   7.201  13.396  3.5418  2.2315  2.4355
  1034G12c C00B19002   5.707   6.995  13.451 -1.6643 -0.7454  0.7836
  1034G12c C00A19003   5.584   6.962  13.389 -0.9910 -0.1326 -0.6363
  1034G12c C00919004   5.479   7.056  13.355 -0.2623  0.9751 -0.6197
  1034G12c C00819005   5.466   7.191  13.303  0.4178  1.9329 -1.8299
  1034G12c H01319006   5.562   7.236  13.282  3.3330 -3.3608 -0.7767
  1034G12c C00719007   5.344   7.251  13.317 -0.6868 -1.0789 -3.2099
  1034G12c H01419008   5.343   7.347  13.267  0.8233  2.6280  3.2983
  1034G12c C00619009   5.228   7.181  13.366 -0.9334  0.3469  2.8377
  1034G12c C00519010   5.242   7.042  13.393  0.1811  0.4711  0.2033
  1034G12c C00419011   5.144   6.971  13.458  0.3339  0.6335 -0.0282
  1034G12c C00319012   5.179   6.847  13.522  1.3450 -0.3131  0.9585
  1034G12c C00219013   5.077   6.780  13.608  0.4459 -0.2538  0.0292
  1034G12c C00119014   5.079   6.648  13.660  1.6720 -0.4863 -0.3661
  1034G12c C00M19015   5.177   6.569  13.744  1.5826 -0.2388 -0.7306
  1034G12c C00L19016   5.310   6.589  13.698  0.6874  0.2987  1.2767
  1034G12c C00R19017   5.409   6.571  13.788 -3.0349  0.1893  0.1276
  1034G12c C00Q19018   5.433   6.537  13.937 -2.1502 -1.1658 -0.5792
  1034G12c C00V19019   5.567   6.543  13.980 -1.0049 -0.4983  0.4734
  1034G12c C00U19020   5.672   6.604  13.900 -0.5872 -2.1877  1.3892
  1034G12c C00T19021   5.649   6.636  13.770  1.4419 -0.1943  0.3433
  1034G12c C01619022   5.734   6.722  13.686  0.6318 -1.5419 -0.4001
  1034G12c C01519023   5.861   6.733  13.731  1.2855 -1.6705 -0.6893
  1034G12c C01019024   5.912   6.648  13.833  0.0868 -0.7288  1.1964
  1034G12c C01119025   6.054   6.641  13.861  1.2015 -0.3625 -3.0788
  1034G12c H00519026   6.084   6.595  13.953 -1.6018  2.2807 -0.7030
  1034G12c C01219027   6.156   6.698  13.786 -0.5557 -0.1497  0.4166
  1034G12c C01719028   6.292   6.668  13.804  1.3127 -1.4262 -0.3818
  1034G12c O00219029   6.308   6.618  13.921 -1.4635 -0.6629  0.7120
  1034G12c H00419030   6.336   6.529  13.910  0.5551 -0.0000  0.2670
  1034G12c C01819031   6.381   6.643  13.712  0.8994 -0.7007 -1.1728
  1034G12c O00119032   6.365   6.680  13.581 -0.9017 -0.7561 -0.5397
  1034G12c H00319033   6.446   6.681  13.532  2.3013 -2.5729  4.4470
  1034G12c C01919034   6.523   6.597  13.737 -0.8799  0.0474  1.4823
  1034G12c H00219035   6.516   6.566  13.841 -2.2806 -6.9597 -0.4620
  1034G12c H00119036   6.573   6.520  13.679  0.3194  0.8720  1.4042
  1034G12c O00019037   6.616   6.693  13.743  1.0848 -0.7741  2.1209
  1034G12c C01A19038   6.749   6.649  13.761 -0.2278  0.4221  0.3350
  1034G12c C02K19039   6.855   6.739  13.719  1.0758  1.9673  1.6423
  1034G12c O00G19040   6.806   6.876  13.689  0.2556 -1.2059  0.9407
  1034G12c C02M19041   6.795   6.911  13.552  0.1681  0.3890  0.0158
  1034G12c H01G19042   6.700   6.959  13.531 -2.8170 -3.1941  4.3029
  1034G12c H01F19043   6.817   6.830  13.483  4.3189  1.2992  0.1629
  1034G12c H01E19044   6.874   6.985  13.539  1.3908 -0.3106  2.9433
  1034G12c C02J19045   6.991   6.699  13.708  0.5204  0.3917 -1.4026
  1034G12c H01H19046   7.053   6.777  13.667  1.6269  1.6231  2.3899
  1034G12c C02I19047   7.028   6.565  13.725 -0.2206  0.8339 -0.1785
  1034G12c C02N19048   7.146   6.515  13.683  0.4123  0.8920  0.9518
  1034G12c H01M19049   7.235   6.525  13.743  0.8085 -1.0555  0.7453
  1034G12c C02O19050   7.126   6.447  13.562 -2.0312  0.5401 -0.7150
  1034G12c H01L19051   7.035   6.480  13.514 -1.0544  2.3363 -1.3913
  1034G12c C02P19052   7.208   6.356  13.487 -1.1360  0.1671  0.6769
  1034G12c H01K19053   7.267   6.304  13.563 -0.8504 -0.0167  0.3345
  1034G12c H01J19054   7.129   6.301  13.438  0.8804 -3.0976  0.9047
  1034G12c O00H19055   7.303   6.411  13.393 -0.5319  0.0399  0.5113
  1034G12c H01I19056   7.336   6.330  13.357 -8.4560 -4.0310  1.1350
  1034G12c C02H19057   6.924   6.470  13.763 -0.8641  1.4615 -0.7461
  1034G12c H01C19058   6.950   6.365  13.765 -3.6556  0.6693  5.2703
  1034G12c C02L19059   6.791   6.516  13.787 -0.4415 -0.6120 -1.5441
  1034G12c H01D19060   6.713   6.456  13.832 -0.8649 -0.5461 -2.1906
  1034G12c C01319061   6.109   6.783  13.677  0.3782  0.4474  0.3667
  1034G12c H00019062   6.185   6.846  13.635  0.7712 -2.3156 -3.3006
  1034G12c C01419063   5.957   6.811  13.665  2.5195  0.6377 -0.2086
  1034G12c C00F19064   5.900   6.911  13.585 -0.4280  0.1311  0.4303
  1034G12c C00H19065   5.688   6.795  13.574  0.1830  0.9884 -1.9171
  1034G12c C00I19066   5.573   6.763  13.521  1.4999 -1.6334 -0.1452
  1034G12c C00J19067   5.488   6.693  13.607  1.2566 -0.8747 -0.0651
  1034G12c C00Z19068   5.811   6.607  13.932 -0.7947  0.8441  0.1155
  1034G12c C00Y19069   5.837   6.557  14.069 -0.2156 -0.6172 -0.6518
  1034G12c H00619070   5.940   6.567  14.099 -0.2487  1.3840 -1.1779
  1034G12c C00X19071   5.736   6.500  14.153 -0.3818 -0.3960  0.3834
  1034G12c O00319072   5.784   6.471  14.287 -0.9329 -1.4286  0.0146
  1034G12c C01B19073   5.748   6.333  14.312  0.7858 -1.8218 -2.4109
  1034G12c H00919074   5.825   6.277  14.365 -0.2937 -2.1481 -1.1724
  1034G12c H00819075   5.670   6.325  14.387  2.6203  5.1312  0.6335
  1034G12c H00719076   5.740   6.277  14.219 -1.5269 -1.0619 -2.6874
  1034G12c C00W19077   5.609   6.487  14.101  1.1911 -1.1006 -0.2301
  1034G12c O00419078   5.510   6.432  14.184 -0.4471 -0.4407  0.2323
  1034G12c C01C19079   5.382   6.405  14.127 -2.1435  1.9429 -0.4633
  1034G12c H00A19080   5.349   6.304  14.142  3.9358 -0.1375  0.5343
  1034G12c C00P19081   5.334   6.489  14.027 -0.4360 -2.6079  0.8035
  1034G12c C00O19082   5.200   6.513  14.002  0.6001 -0.5773 -0.0005
  1034G12c C01D19083   5.114   6.508  14.109  0.6347 -0.6993 -1.4552
  1034G12c H00S19084   5.165   6.462  14.193  0.9756 -0.1089 -1.3342
  1034G12c C01E19085   4.999   6.615  14.115 -0.5596  0.6503  0.8814
  1034G12c O00819086   4.941   6.628  14.229  0.4587 -1.0247  1.0277
  1034G12c C01V19087   4.897   6.513  14.299 -0.1268 -0.5764  0.3103
  1034G12c C01Z19088   4.837   6.584  14.406 -0.2639  1.8925  2.3888
  1034G12c H00R19089   4.869   6.648  14.489  0.1270 -1.5215  4.9773
  1034G12c H00Q19090   4.767   6.515  14.453 -2.7406  0.9335 -2.4381
  1034G12c O00919091   4.752   6.694  14.346 -0.0195  0.0927  0.7664
  1034G12c H00P19092   4.804   6.745  14.285 -3.3343  0.9096 -1.5512
  1034G12c C01W19093   4.939   6.384  14.292 -0.5989 -0.8019  1.9367
  1034G12c H00O19094   4.965   6.317  14.212 -3.8558  5.0108 -4.5813
  1034G12c C01X19095   4.957   6.294  14.421 -0.8024  0.7678 -1.1030
  1034G12c H00N19096   4.872   6.308  14.488  1.0119 -0.9214  1.6528
  1034G12c H00M19097   4.912   6.214  14.362  0.9766 -1.1350  0.0673
  1034G12c C01Y19098   5.086   6.295  14.474 -1.1236 -1.1345 -0.6347
  1034G12c C02D19099   5.161   6.194  14.411 -0.4068 -0.0055  1.1866
  1034G12c H01919100   5.120   6.107  14.362 -2.9363 -0.3393  3.7511
  1034G12c C02C19101   5.300   6.187  14.459  2.2844  1.6775 -0.3522
  1034G12c H01A19102   5.375   6.114  14.430  0.9644 -1.3355  3.4308
  1034G12c C02B19103   5.339   6.303  14.530 -0.8089  0.3349  0.9445
  1034G12c O00E19104   5.475   6.317  14.550 -1.6246  0.8072  1.2956
  1034G12c H01B19105   5.475   6.302  14.644 -1.6912 -0.1275  1.1459
  1034G12c C02F19106   5.282   6.438  14.510 -0.8405 -0.7918 -1.1849
  1034G12c O00F19107   5.368   6.545  14.519  0.1200  0.6166 -1.0252
  1034G12c C02G19108   5.318   6.665  14.575 -1.3029  1.0915 -1.2264
  1034G12c H01719109   5.276   6.634  14.671 -1.1533  3.2341 -0.4351
  1034G12c H01619110   5.258   6.699  14.491 -6.3037 -6.9093 -1.4470
  1034G12c H01519111   5.406   6.727  14.595 -4.5649  4.9202  2.1147
  1034G12c C02E19112   5.144   6.426  14.511  2.2461 -0.4227  0.5240
  1034G12c H01819113   5.093   6.513  14.547 -2.9386 -3.3745  0.7527
  1034G12c C01F19114   4.954   6.676  13.993 -0.8979  2.3928  0.3994
  1034G12c C01G19115   4.830   6.774  13.982  0.9834  0.2289  0.3772
  1034G12c H00L19116   4.767   6.783  14.069  3.3328  2.4257  1.9401
  1034G12c C01H19117   4.824   6.836  13.853 -1.0287 -1.5410 -0.4572
  1034G12c H00B19118   4.765   6.924  13.870 -0.3085 -1.5620  2.3557
  1034G12c C01I19119   4.904   6.787  13.740 -1.9781  2.2486  0.6088
  1034G12c C01U19120   5.003   6.622  13.877 -1.2915 -0.2786  0.2870
  1034G12c C00S19121   5.518   6.631  13.716  0.4868  0.4323 -0.4744
  1034G12c C00K19122   5.357   6.676  13.590 -0.4890 -0.6278 -0.2502
  1034G12c C00N19123   5.122   6.553  13.888  0.7319 -0.5183 -0.4040
  1034G12c C00019124   4.965   6.662  13.750  1.8378  0.0706  0.3150
  1034G12c C01J19125   4.951   6.854  13.631 -0.3932  0.1578  1.7571
  1034G12c C01K19126   4.912   6.976  13.578 -1.8226 -1.6735  0.1058
  1034G12c C01P19127   4.789   7.037  13.569 -0.6392 -1.3262  2.7509
  1034G12c C01Q19128   4.668   6.963  13.606  0.7393 -0.2451  0.0347
  1034G12c H00G19129   4.668   6.858  13.633  3.4817 -0.3635 -0.2413
  1034G12c C01R19130   4.543   7.026  13.631 -2.7994  0.4931  0.0478
  1034G12c H00F19131   4.564   7.129  13.604  0.4602  0.6586  2.9139
  1034G12c C01S19132   4.427   6.963  13.658 -2.5085 -1.1733 -0.5455
  1034G12c H00E19133   4.365   7.049  13.634  1.0451  2.1331  1.5966
  1034G12c H00D19134   4.411   6.866  13.611 -7.3260  0.4342 -2.5558
  1034G12c O00519135   4.398   6.921  13.793  0.6388  1.2409  0.3242
  1034G12c H00C19136   4.476   6.927  13.846  3.1284 -0.2766 -2.9835
  1034G12c C01O19137   4.782   7.183  13.533 -1.1516 -0.2813  0.0250
  1034G12c H00H19138   4.697   7.249  13.533 -1.1990 -0.3408 -0.8972
  1034G12c C01N19139   4.874   7.234  13.462 -1.3156  0.8775 -0.2697
  1034G12c O00619140   4.856   7.359  13.417  1.3754 -0.6145  2.2869
  1034G12c C01T19141   4.726   7.381  13.341 -0.9717 -0.4130 -0.0105
  1034G12c H00K19142   4.736   7.377  13.232  1.0793 -0.9403  0.1807
  1034G12c H00J19143   4.654   7.462  13.355 -2.1414  0.3772 -7.9080
  1034G12c H00I19144   4.666   7.292  13.358  1.2510 -1.6636  1.5389
  1034G12c C01M19145   4.995   7.162  13.434 -1.7628  0.1347 -1.5854
  1034G12c C02019146   5.302   6.782  13.507  1.4623  0.3552  2.1922
  1034G12c C02119147   5.380   6.844  13.408  0.1698 -0.1975  1.4471
  1034G12c C01L19148   5.022   7.040  13.501  1.9641 -0.9361 -0.5408
  1034G12c O00719149   5.112   7.237  13.387  2.0822 -0.8016 -0.3707
  1034G12c C02219150   5.369   6.975  13.361 -0.2280  0.4450 -0.4324
  1034G12c C02319151   5.527   6.848  13.427  0.0990 -0.6449 -0.4944
  1034G12c C00G19152   5.769   6.893  13.533 -0.7414  0.8755  0.8040
  1034G12c C00E19153   5.967   7.040  13.565 -0.1390  1.1264 -0.7003
  1034G12c O00A19154   6.096   7.059  13.615 -0.8008  0.8370  2.0290
  1034G12c C02419155   6.104   7.105  13.752 -0.9299 -0.2359 -0.4890
  1034G12c H00V19156   6.018   7.121  13.816  5.3974  1.9370  8.3047
  1034G12c H00U19157   6.160   7.186  13.798 -0.3818 -1.9659  1.9942
  1034G12c H00T19158   6.164   7.019  13.780 -2.7673 -1.9279 -1.6136
  1044G12c C00D19159   6.688   6.211   5.227 -0.1750  0.2728 -0.1712
  1044G12c O00B19160   6.778   6.152   5.316 -1.5789  1.4887 -0.2022
  1044G12c C02519161   6.909   6.119   5.290 -0.2389  0.7497  0.2823
  1044G12c C02619162   6.901   5.958   5.288  0.2360  0.9708  1.2001
  1044G12c H00Y19163   6.892   5.902   5.381-11.4240  1.1486  0.9091
  1044G12c H00X19164   6.981   5.922   5.223  1.4068  7.3246 -1.2368
  1044G12c O00C19165   6.784   5.934   5.216  0.6611 -0.1158 -0.7056
  1044G12c H00W19166   6.720   5.974   5.272  3.2755 -3.3718  5.1330
  1044G12c C02719167   7.014   6.190   5.242 -0.6844  0.9791  0.9154
  1044G12c O00D19168   7.150   6.124   5.209 -1.1374 -0.3453 -0.0092
  1044G12c H00Z19169   7.218   6.174   5.251 -1.5451 -0.6232  1.0004
  1044G12c C02819170   7.012   6.338   5.254 -0.5479  0.6599  0.9193
  1044G12c C02919171   7.014   6.398   5.381  1.2403  0.2244  1.2160
  1044G12c H01019172   6.989   6.352   5.475 -1.6631 -5.0935 -1.9438
  1044G12c C02T19173   7.081   6.517   5.387 -1.7282  0.9910 -0.2923
  1044G12c H01O19174   7.143   6.542   5.472  1.4154 -5.4446 -0.4385
  1044G12c C02S19175   7.136   6.588   5.268  0.2175 -1.4747  1.1138
  1044G12c O00J19176   7.228   6.693   5.260  0.8246 -0.3019  0.9054
  1044G12c H01P19177   7.220   6.684   5.353  0.9785  0.2947  0.9784
  1044G12c C02R19178   7.103   6.544   5.143  1.5584  2.0313  0.4979
  1044G12c O00I19179   7.157   6.607   5.025  1.0847  0.2633 -0.3587
  1044G12c C02Q19180   7.272   6.555   4.963 -0.5700  0.5336 -0.9945
  1044G12c H01N19181   7.358   6.500   5.002 -2.6687 -0.1038  3.0296
  1044G12c H01R19182   7.301   6.645   4.909  4.0575 -1.2303 -1.6991
  1044G12c H01Q19183   7.221   6.467   4.924 -1.0324 -1.8494  4.4609
  1044G12c C02A19184   7.057   6.403   5.139 -0.8120 -0.2500 -0.1311
  1044G12c H01119185   7.063   6.358   5.041  1.4129  3.4797 -1.7821
  1044G12c C00C19186   6.729   6.257   5.089 -2.0143 -1.3552 -1.6272
  1044G12c H01219187   6.835   6.241   5.075 -2.0559 -0.0277 -3.6494
  1044G12c C00B19188   6.656   6.282   4.986 -1.1472 -1.7806  0.3142
  1044G12c C00A19189   6.694   6.318   4.844 -0.5803 -0.0084  0.0008
  1044G12c C00919190   6.824   6.323   4.777  0.3041  0.3525  0.1932
  1044G12c C00819191   6.949   6.284   4.814 -0.9404 -0.4715  1.2962
  1044G12c H01319192   6.983   6.215   4.889 -6.2722 -0.3055  4.0809
  1044G12c C00719193   7.049   6.355   4.733 -0.1539  0.6327 -0.6483
  1044G12c H01419194   7.153   6.333   4.747 -0.7176 -0.4563  1.9705
  1044G12c C00619195   7.010   6.467   4.645  0.0965  0.6076  0.3866
  1044G12c C00519196   6.881   6.462   4.606 -0.7406 -1.5600  1.8369
  1044G12c C00419197   6.825   6.566   4.513  1.5893 -1.4078  1.3401
  1044G12c C00319198   6.684   6.575   4.488  0.4379 -0.0088 -0.5542
  1044G12c C00219199   6.636   6.690   4.402 -1.8521  0.0480 -0.7534
  1044G12c C00119200   6.506   6.734   4.356  0.9483 -0.3528  0.4566
  1044G12c C00M19201   6.411   6.753   4.460  0.7915 -0.9692 -1.6914
  1044G12c C00L19202   6.393   6.681   4.588  1.0774  0.2355 -0.2151
  1044G12c C00R19203   6.294   6.704   4.696  1.1719  1.7356  0.6985
  1044G12c C00Q19204   6.237   6.812   4.729 -0.0418 -0.5318  0.3197
  1044G12c C00V19205   6.159   6.780   4.852  0.5772 -1.9114 -0.2286
  1044G12c C00U19206   6.171   6.659   4.935 -2.9203 -0.2237  0.5324
  1044G12c C00T19207   6.256   6.576   4.896 -0.8345  0.2541  0.5971
  1044G12c C01619208   6.328   6.480   4.979 -0.5061  0.5116 -0.6721
  1044G12c C01519209   6.288   6.483   5.110  0.3530 -3.0111 -0.5086
  1044G12c C01019210   6.166   6.549   5.147  0.6813  0.5520 -0.3609
  1044G12c C01119211   6.124   6.541   5.273 -0.8465  2.6750  0.3061
  1044G12c H00519212   6.048   6.598   5.323  2.1336  3.1857  4.5015
  1044G12c C01219213   6.178   6.443   5.357 -0.0071  0.3049  1.1537
  1044G12c C01719214   6.121   6.433   5.494  0.6954  0.1894  0.3548
  1044G12c O00219215   6.175   6.480   5.605  0.1050  1.7551 -1.1556
  1044G12c H00419216   6.088   6.485   5.644 -0.2280 -0.1421 -1.5898
  1044G12c C01819217   5.986   6.402   5.509 -0.4839  0.5184 -1.2503
  1044G12c O00119218   5.902   6.359   5.405 -2.3528  1.3735 -0.7229
  1044G12c H00319219   5.935   6.356   5.317 -6.2493 -0.8871 -2.2467
  1044G12c C01919220   5.893   6.425   5.633 -1.7139 -0.7761  0.1631
  1044G12c H00219221   5.850   6.520   5.602 -3.3600 -0.5582  2.9425
  1044G12c H00119222   5.822   6.343   5.644 -4.4333  1.4964  0.1495
  1044G12c O00019223   5.931   6.465   5.771 -1.2793  1.4543  2.1647
  1044G12c C01A19224   5.832   6.524   5.837  0.2578  0.3765 -0.3579
  1044G12c C02K19225   5.820   6.666   5.861 -0.5326 -0.6431  0.9953
  1044G12c O00G19226   5.940   6.745   5.866 -1.6642 -0.3953  0.2266
  1044G12c C02M19227   5.921   6.864   5.778  0.3628  0.8522  0.3872
  1044G12c H01G19228   6.005   6.932   5.795 -4.1984  7.9506 -3.0713
  1044G12c H01F19229   5.841   6.938   5.783 -1.6375 -1.2239 -0.1064
  1044G12c H01E19230   5.873   6.849   5.681  0.4945 -2.4241  0.7858
  1044G12c C02J19231   5.709   6.725   5.895 -0.7550 -0.6622  0.9866
  1044G12c H01H19232   5.687   6.830   5.903  7.9262  1.3672  2.7734
  1044G12c C02I19233   5.591   6.642   5.884  0.1120  0.5764 -0.7903
  1044G12c C02N19234   5.466   6.720   5.865 -0.5471  1.7390 -0.6238
  1044G12c H01M19235   5.391   6.691   5.793 -1.8219 -0.1053  1.3751
  1044G12c C02O19236   5.404   6.796   5.950 -0.4351 -1.3178 -1.8388
  1044G12c H01L19237   5.331   6.846   5.888  2.1034  2.3646 -1.9655
  1044G12c C02P19238   5.433   6.817   6.096 -0.0824 -1.1960 -0.2157
  1044G12c H01K19239   5.362   6.896   6.123  0.6453 -0.4472 -0.4782
  1044G12c H01J19240   5.522   6.875   6.074  0.7420 -1.4762  2.2567
  1044G12c O00H19241   5.431   6.700   6.174 -0.8727  1.6946  0.0322
  1044G12c H01I19242   5.400   6.626   6.124  1.8158  0.9882 -0.6455
  1044G12c C02H19243   5.592   6.509   5.892 -0.2352 -1.9691  0.4847
  1044G12c H01C19244   5.496   6.459   5.882 -1.5088 -0.9493  5.9750
  1044G12c C02L19245   5.718   6.449   5.882 -0.0898  1.7378  0.3669
  1044G12c H01D19246   5.712   6.341   5.877  0.6429  1.7147 -0.1398
  1044G12c C01319247   6.289   6.366   5.322 -0.4546  0.1825 -0.6782
  1044G12c H00019248   6.322   6.283   5.383  1.7475  2.0460  0.7136
  1044G12c C01419249   6.351   6.392   5.202 -1.3027 -0.2528 -0.8684
  1044G12c C00F19250   6.483   6.337   5.174 -1.5286  1.5879  1.5447
  1044G12c C00H19251   6.446   6.404   4.939 -0.7900 -0.4630  0.3672
  1044G12c C00I19252   6.484   6.426   4.799  0.4504  0.9490 -0.7898
  1044G12c C00J19253   6.411   6.522   4.730  0.7142 -0.3367 -0.9905
  1044G12c C00Z19254   6.102   6.641   5.056  0.2755 -1.0392  0.5234
  1044G12c C00Y19255   6.005   6.737   5.082 -0.5656  1.3120 -0.6519
  1044G12c H00619256   5.965   6.750   5.182  2.7627  9.0401  0.0321
  1044G12c C00X19257   5.983   6.850   5.001  0.7979 -0.7107 -0.1295
  1044G12c O00319258   5.862   6.921   5.012 -0.9733 -0.0421 -0.8723
  1044G12c C01B19259   5.740   6.880   4.929  0.2741  0.5278  0.6570
  1044G12c H00919260   5.723   6.781   4.970 -0.7820 -2.2050 -5.8600
  1044G12c H00819261   5.727   6.866   4.822 -1.3038  0.6446  0.8223
  1044G12c H00719262   5.647   6.934   4.947 -1.4137 -2.7013  2.0608
  1044G12c C00W19263   6.064   6.865   4.889 -0.0122  0.9315 -1.2773
  1044G12c O00419264   6.032   6.972   4.810 -0.3279 -0.3031  0.0306
  1044G12c C01C19265   6.139   7.030   4.737 -2.6215  0.5111  0.6547
  1044G12c H00A19266   6.193   7.117   4.770 -2.5039  0.5491  0.3682
  1044G12c C00P19267   6.233   6.946   4.671 -2.3451  2.1698 -0.0482
  1044G12c C00O19268   6.298   6.986   4.552  1.4867 -0.5539  0.4989
  1044G12c C01D19269   6.306   7.127   4.508 -0.1720  1.4430 -0.9153
  1044G12c H00S19270   6.262   7.207   4.566 -1.8543 -0.8989  1.1766
  1044G12c C01E19271   6.411   7.185   4.426 -1.0684 -1.0134 -1.8823
  1044G12c O00819272   6.423   7.315   4.380 -1.2831 -0.1155 -0.8877
  1044G12c C01V19273   6.354   7.424   4.440 -1.0180 -0.8237  0.9276
  1044G12c C01Z19274   6.383   7.422   4.587  1.4341  0.5025  1.0360
  1044G12c H00R19275   6.305   7.452   4.658  1.4854  3.2759 -0.0317
  1044G12c H00Q19276   6.441   7.343   4.635  3.8617 -1.2557 -4.4150
  1044G12c O00919277   6.470   7.524   4.587  0.5143  0.9008 -0.5805
  1044G12c H00P19278   6.513   7.519   4.503  4.7190  2.7408  1.3426
  1044G12c C01W19279   6.321   7.531   4.355  0.6081 -0.9204  0.0576
  1044G12c H00O19280   6.310   7.633   4.389  0.7632  1.2497 -5.7796
  1044G12c C01X19281   6.264   7.495   4.209  1.8261 -0.1139 -0.4010
  1044G12c H00N19282   6.274   7.588   4.153 -3.5900  1.8765  1.5962
  1044G12c H00M19283   6.306   7.430   4.133 -1.3084 -1.6515 -0.8698
  1044G12c C01Y19284   6.114   7.452   4.221  1.0904  1.9053  0.1230
  1044G12c C02D19285   6.016   7.541   4.194 -0.9760  0.9034  0.3969
  1044G12c H01919286   6.061   7.631   4.153 -4.5647  3.5187  1.8828
  1044G12c C02C19287   5.874   7.518   4.204  2.5662 -2.4774 -0.6667
  1044G12c H01A19288   5.830   7.612   4.175  2.6595 -0.8125  4.1014
  1044G12c C02B19289   5.839   7.390   4.233 -0.6609 -0.2190  0.3661
  1044G12c O00E19290   5.704   7.382   4.255  0.2083  1.0686  1.3537
  1044G12c H01B19291   5.651   7.442   4.304 -5.1775 -1.9939 -0.2978
  1044G12c C02F19292   5.946   7.311   4.285  2.5197  0.1341 -0.3599
  1044G12c O00F19293   5.899   7.201   4.347  0.6428 -0.7130 -0.7426
  1044G12c C02G19294   5.806   7.107   4.271  0.1648 -1.5223 -0.2519
  1044G12c H01719295   5.796   7.149   4.171 -1.8115 -3.6672 -1.0050
  1044G12c H01619296   5.704   7.144   4.260  2.2472  4.0961 -2.3222
  1044G12c H01519297   5.856   7.018   4.232 -0.8007 -2.4875  0.6530
  1044G12c C02E19298   6.081   7.341   4.286  0.6474  0.7455 -0.4875
  1044G12c H01819299   6.146   7.269   4.334 -0.7431  3.1160  5.3941
  1044G12c C01F19300   6.494   7.096   4.370 -0.4444  0.3289 -1.5199
  1044G12c C01G19301   6.639   7.130   4.329 -0.9161 -1.6440 -0.5831
  1044G12c H00L19302   6.684   7.224   4.300 -4.8047  1.3624  2.5279
  1044G12c C01H19303   6.722   7.027   4.313 -0.2938 -0.0611 -1.4851
  1044G12c H00B19304   6.827   7.043   4.295  0.3126 -1.5744  0.4809
  1044G12c C01I19305   6.683   6.896   4.316 -0.5522  0.4575 -0.5545
  1044G12c C01U19306   6.458   6.962   4.368 -1.3811  0.3008  0.4403
  1044G12c C00S19307   6.303   6.595   4.777  2.8073  0.2850 -0.4675
  1044G12c C00K19308   6.462   6.563   4.613  0.1951  1.4080 -1.2483
  1044G12c C00N19309   6.375   6.908   4.467  0.7591 -0.4274 -1.3628
  1044G12c C00019310   6.541   6.867   4.316  0.2087 -0.5584  1.3387
  1044G12c C01J19311   6.748   6.765   4.341  1.2855 -2.2267 -0.1971
  1044G12c C01K19312   6.884   6.747   4.360  0.9716  0.1576 -0.3039
  1044G12c C01P19313   6.982   6.804   4.274  0.2267  2.7098 -1.3351
  1044G12c C01Q19314   6.951   6.836   4.136 -2.3539 -0.5357  0.9968
  1044G12c H00G19315   7.009   6.913   4.087  1.9165 -3.6057  0.9920
  1044G12c C01R19316   6.848   6.771   4.073  1.8320  0.4382 -0.0479
  1044G12c H00F19317   6.799   6.685   4.117 -0.1700  0.1200 -2.7736
  1044G12c C01S19318   6.827   6.828   3.926  1.3613  2.3315 -0.7148
  1044G12c H00E19319   6.834   6.930   3.889  3.5213  1.0892 -3.9407
  1044G12c H00D19320   6.894   6.763   3.870 -2.2192 -2.5124  0.2823
  1044G12c O00519321   6.688   6.777   3.903  0.4978  0.8748 -2.0432
  1044G12c H00C19322   6.638   6.840   3.853  3.6332  5.1358 -0.0987
  1044G12c C01O19323   7.111   6.812   4.335 -0.5461  1.6620 -0.2878
  1044G12c H00H19324   7.186   6.868   4.282  0.0660  2.6775  1.6125
  1044G12c C01N19325   7.140   6.742   4.462 -1.4598 -0.9436  2.0011
  1044G12c O00619326   7.271   6.733   4.489 -0.1728 -0.8963 -1.1675
  1044G12c C01T19327   7.376   6.756   4.396  0.2534 -1.1195  0.0889
  1044G12c H00K19328   7.334   6.684   4.325  0.0307 -0.4565 -0.4648
  1044G12c H00J19329   7.469   6.708   4.423 -0.4553  0.0887  5.2659
  1044G12c H00I19330   7.403   6.859   4.369 -5.1456 -0.0650 -2.0774
  1044G12c C01M19331   7.040   6.655   4.510 -1.4985 -0.2678 -1.0047
  1044G12c C02019332   6.588   6.490   4.558 -1.3385 -0.9996 -0.2744
  1044G12c C02119333   6.646   6.370   4.620  2.1760 -0.5362 -0.8749
  1044G12c C01L19334   6.905   6.660   4.461  1.0033  0.3001 -0.7390
  1044G12c O00719335   7.078   6.577   4.625 -0.4257  0.8273  0.0090
  1044G12c C02219336   6.787   6.368   4.654  1.5595  0.5117 -0.7658
  1044G12c C02319337   6.588   6.332   4.749 -0.5895 -0.7574 -0.1074
  1044G12c C00G19338   6.524   6.344   5.038 -0.0742 -0.6492  0.7706
  1044G12c C00E19339   6.562   6.272   5.276  0.3667 -0.7355 -0.5617
  1044G12c O00A19340   6.535   6.295   5.414 -0.1434 -0.6173  0.0020
  1044G12c C02419341   6.563   6.177   5.508  1.0848 -1.2162  0.2480
  1044G12c H00V19342   6.663   6.157   5.545  1.0733 -3.6724 -0.9302
  1044G12c H00U19343   6.533   6.107   5.430 -2.1065  1.2027 -0.8328
  1044G12c H00T19344   6.491   6.130   5.574  2.6262 -0.8339  2.2245
  1054G12c C00D19345   2.635   5.073  10.241  0.1199  1.4710  2.3165
  1054G12c O00B19346   2.593   4.978  10.142 -1.5063 -0.2282 -1.4404
  1054G12c C02519347   2.506   4.877  10.181 -0.1262 -0.5903 -0.6832
  1054G12c C02619348   2.371   4.935  10.210 -0.8666 -1.5820 -1.7702
  1054G12c H00Y19349   2.398   5.015  10.279 -8.2044 -3.7065  4.3366
  1054G12c H00X19350   2.280   4.904  10.262  1.2645 -2.4066  1.5915
  1054G12c O00C19351   2.330   4.961  10.076  0.2983  0.5876 -0.1945
  1054G12c H00W19352   2.237   4.968  10.090  0.4146 -2.0578  2.5807
  1054G12c C02719353   2.521   4.744  10.177 -0.8244  0.5827 -1.1762
  1054G12c O00D19354   2.626   4.666  10.142  0.4385  0.1536  1.4397
  1054G12c H00Z19355   2.704   4.688  10.191  2.0072  0.6489 -1.1423
  1054G12c C02819356   2.409   4.668  10.163  0.9001 -0.3468 -0.0416
  1054G12c C02919357   2.380   4.574  10.263 -0.9647  2.8952 -0.2709
  1054G12c H01019358   2.430   4.553  10.357  0.2466  2.4949 -0.9960
  1054G12c C02T19359   2.262   4.499  10.247 -0.0002 -0.9915  1.5731
  1054G12c H01O19360   2.215   4.484  10.343  1.9836  2.0885  3.1196
  1054G12c C02S19361   2.174   4.501  10.132 -0.6343  0.1003 -0.9326
  1054G12c O00J19362   2.058   4.426  10.122  0.2298 -0.5578  0.0533
  1054G12c H01P19363   2.017   4.445  10.038  5.4152 -0.4168 -2.6408
  1054G12c C02R19364   2.229   4.567  10.014 -0.9160  0.4350 -0.0836
  1054G12c O00I19365   2.185   4.539   9.888 -0.2433  1.0342  0.0484
  1054G12c C02Q19366   2.050   4.525   9.858 -0.3633  0.8975  1.0858
  1054G12c H01N19367   1.984   4.586   9.918  1.2533  0.2975  3.5781
  1054G12c H01R19368   2.045   4.416   9.863  2.1685  0.8423  3.9606
  1054G12c H01Q19369   2.046   4.552   9.752  4.0238 -0.9588  0.3282
  1054G12c C02A19370   2.335   4.647  10.036  0.6107 -0.5666 -0.9482
  1054G12c H01119371   2.356   4.706   9.949 -1.0453 -1.6186 -2.1045
  1054G12c C00C19372   2.699   4.985  10.334  1.9199  1.4671 -0.2472
  1054G12c H01219373   2.698   4.883  10.301 -1.1808  1.3138  0.1506
  1054G12c C00B19374   2.738   5.035  10.449 -0.6921 -0.7078 -0.2696
  1054G12c C00A19375   2.781   4.979  10.576 -1.1947 -0.8566  0.4876
  1054G12c C00919376   2.742   4.854  10.647 -0.1161 -1.3453 -1.7340
  1054G12c C00819377   2.639   4.760  10.626 -2.5757 -1.0348  1.5129
  1054G12c H01319378   2.589   4.770  10.530 -6.3844  1.3872  3.6374
  1054G12c C00719379   2.554   4.713  10.730 -0.5123  0.3668  0.5438
  1054G12c H01419380   2.467   4.653  10.706  1.5671 -1.8867 -1.5614
  1054G12c C00619381   2.581   4.733  10.873 -1.9342  0.5733  0.5542
  1054G12c C00519382   2.683   4.829  10.893  1.1021  1.5947  0.2574
  1054G12c C00419383   2.694   4.892  11.014 -0.9120 -0.8845 -1.5596
  1054G12c C00319384   2.789   4.996  11.012 -0.8064  0.9045 -2.0112
  1054G12c C00219385   2.793   5.063  11.152  0.7786  1.5686  1.0393
  1054G12c C00119386   2.872   5.181  11.206  1.0069 -0.7839 -1.1073
  1054G12c C00M19387   2.887   5.308  11.133 -0.5421  0.2475 -0.5127
  1054G12c C00L19388   2.897   5.320  11.003  1.1165  0.4606  0.7455
  1054G12c C00R19389   2.878   5.438  10.922 -0.7056  0.3128 -0.3568
  1054G12c C00Q19390   2.838   5.574  10.954 -0.1892 -2.1065  0.1950
  1054G12c C00V19391   2.836   5.650  10.835  2.0672 -1.4302 -1.9631
  1054G12c C00U19392   2.836   5.599  10.705 -1.1551 -1.6707 -0.4862
  1054G12c C00T19393   2.856   5.470  10.685  1.1481 -0.8340  0.4437
  1054G12c C01619394   2.826   5.395  10.571  0.6038  0.4780  1.0891
  1054G12c C01519395   2.791   5.472  10.470 -0.5145  0.7235  0.3024
  1054G12c C01019396   2.772   5.613  10.472  1.3663  1.6192  0.0587
  1054G12c C01119397   2.748   5.696  10.361  0.5789 -0.8875 -1.4331
  1054G12c H00519398   2.721   5.800  10.349  1.6971 -0.5645 -1.2609
  1054G12c C01219399   2.739   5.617  10.230  0.5308 -0.7544  0.7034
  1054G12c C01719400   2.677   5.678  10.127 -1.6620  0.2378  0.4706
  1054G12c O00219401   2.538   5.661  10.128  1.6363  0.4667 -0.4626
  1054G12c H00419402   2.546   5.645  10.221  1.2315  3.3449  0.0898
  1054G12c C01819403   2.754   5.732  10.024  0.4959 -1.4549 -0.0879
  1054G12c O00119404   2.693   5.792   9.915 -0.7753  0.3369 -1.2534
  1054G12c H00319405   2.758   5.851   9.878 -2.7475  5.8586  3.3813
  1054G12c C01919406   2.895   5.746  10.013  0.0508  0.7491 -0.5578
  1054G12c H00219407   2.945   5.676  10.080 -5.4504 -3.8011 -0.8419
  1054G12c H00119408   2.926   5.742   9.908  1.3273 -6.8660 -0.1723
  1054G12c O00019409   2.972   5.843  10.062 -0.7454 -1.5637  0.5246
  1054G12c C01A19410   2.919   5.940  10.140  0.4286 -1.2332  1.1815
  1054G12c C02K19411   2.966   5.972  10.279 -0.5125  0.6858  1.7072
  1054G12c O00G19412   3.053   5.889  10.346  0.2474 -0.8426 -1.7244
  1054G12c C02M19413   3.136   5.820  10.280  0.3213  0.6358 -0.5427
  1054G12c H01G19414   3.125   5.713  10.267 -0.7403  0.9057 -2.0495
  1054G12c H01F19415   3.212   5.820  10.358  0.0194  4.5080 -0.1370
  1054G12c H01E19416   3.188   5.890  10.214 -2.1566  4.1667  1.0910
  1054G12c C02J19417   2.913   6.091  10.356  0.5433 -1.1833  1.1489
  1054G12c H01H19418   2.942   6.114  10.457 -0.1036 -1.1731  1.3344
  1054G12c C02I19419   2.808   6.173  10.297  0.6829 -0.7356 -1.1473
  1054G12c C02N19420   2.712   6.238  10.380  0.2679  0.1459 -0.0099
  1054G12c H01M19421   2.638   6.171  10.419 -1.0332  2.7895  2.1939
  1054G12c C02O19422   2.744   6.360  10.424  0.0339 -1.6992 -2.2316
  1054G12c H01L19423   2.674   6.391  10.500 -4.7706 -2.6693 -6.0250
  1054G12c C02P19424   2.862   6.449  10.401  0.5567  0.4056  1.1306
  1054G12c H01K19425   2.939   6.416  10.471  3.8804  4.8056 -0.2349
  1054G12c H01J19426   2.897   6.453  10.298  0.4904 -5.3243  0.7099
  1054G12c O00H19427   2.841   6.578  10.455  0.8521  1.0970  0.6248
  1054G12c H01I19428   2.864   6.619  10.373 -0.1116 -2.4009 -1.4973
  1054G12c C02H19429   2.777   6.148  10.164 -0.2801 -1.3967 -0.7675
  1054G12c H01C19430   2.695   6.207  10.127  3.6432  5.6175  0.8975
  1054G12c C02L19431   2.828   6.032  10.094  0.3396  1.0584 -0.3823
  1054G12c H01D19432   2.791   6.034   9.992  5.3192  9.2056 -2.4754
  1054G12c C01319433   2.754   5.486  10.230 -0.0393  0.1178  0.6188
  1054G12c H00019434   2.744   5.438  10.134 -0.5528  0.4545  0.4986
  1054G12c C01419435   2.757   5.412  10.351 -1.6577 -0.6805 -2.6007
  1054G12c C00F19436   2.723   5.269  10.356  1.6005 -0.2424  0.8980
  1054G12c C00H19437   2.828   5.248  10.581  1.2715 -1.1135 -1.7111
  1054G12c C00I19438   2.878   5.170  10.683 -0.4017 -0.9503 -0.0568
  1054G12c C00J19439   2.905   5.259  10.790  0.8625  0.7995  0.0878
  1054G12c C00Z19440   2.794   5.674  10.592  0.5713  0.2956  0.6613
  1054G12c C00Y19441   2.782   5.822  10.620  1.5130  0.4993 -0.3945
  1054G12c H00619442   2.748   5.901  10.554 -2.2441 -3.9713 -4.1541
  1054G12c C00X19443   2.844   5.869  10.727  0.6209 -0.0366 -1.5390
  1054G12c O00319444   2.843   6.004  10.758 -0.2518 -0.3990 -0.1312
  1054G12c C01B19445   2.978   6.065  10.760  0.3556  1.1363  2.9669
  1054G12c H00919446   3.023   6.050  10.858  3.3346 -0.5221  1.4092
  1054G12c H00819447   2.940   6.155  10.712  0.4432 -0.4188 -0.1312
  1054G12c H00719448   3.056   6.007  10.710  1.4287  2.6072  2.8896
  1054G12c C00W19449   2.848   5.789  10.845 -0.5771  0.3091  0.5999
  1054G12c O00419450   2.876   5.854  10.962  0.1100 -0.2712 -0.9342
  1054G12c C01C19451   2.858   5.782  11.080  0.6784 -0.0377  0.0383
  1054G12c H00A19452   2.866   5.824  11.179 -0.5894 -0.3100  0.2612
  1054G12c C00P19453   2.855   5.638  11.086  0.5100 -0.4951  0.1030
  1054G12c C00O19454   2.805   5.545  11.186  0.3985 -1.0409 -0.5123
  1054G12c C01D19455   2.694   5.610  11.265  0.5260  1.3211  1.7481
  1054G12c H00S19456   2.675   5.717  11.264 -1.2588  1.0923  4.9255
  1054G12c C01E19457   2.605   5.533  11.345 -0.8096 -1.9691 -0.6963
  1054G12c O00819458   2.475   5.575  11.374 -0.0217  0.6273 -0.9295
  1054G12c C01V19459   2.382   5.540  11.279 -0.1153 -1.2998 -0.6981
  1054G12c C01Z19460   2.247   5.485  11.337  0.7082  1.2590  0.9234
  1054G12c H00R19461   2.209   5.429  11.251  3.6164  0.3131  0.1941
  1054G12c H00Q19462   2.273   5.429  11.427 -4.1182  2.7571  3.4375
  1054G12c O00919463   2.160   5.593  11.372 -0.1720  0.2491  0.7752
  1054G12c H00P19464   2.167   5.656  11.302 -2.1404 -2.6577 -2.2036
  1054G12c C01W19465   2.370   5.590  11.153 -0.1676 -0.1052 -0.2839
  1054G12c H00O19466   2.458   5.635  11.110 -2.8491  4.7101 -1.1078
  1054G12c C01X19467   2.265   5.568  11.063  0.4411  1.1193 -1.2938
  1054G12c H00N19468   2.178   5.609  11.116  0.9403 -0.5818  0.9418
  1054G12c H00M19469   2.306   5.628  10.982 -0.2077  3.1027 -0.1853
  1054G12c C01Y19470   2.250   5.428  10.996  0.0629 -0.3108 -0.3604
  1054G12c C02D19471   2.124   5.361  10.998  0.3928  0.9004 -1.4946
  1054G12c H01919472   2.048   5.391  11.068  0.6099  0.5466 -1.1078
  1054G12c C02C19473   2.108   5.242  10.920 -1.0393  0.2672 -1.5534
  1054G12c H01A19474   2.006   5.212  10.899 -0.6028  0.6894 -4.3753
  1054G12c C02B19475   2.206   5.235  10.814  1.4016 -0.2442 -0.0300
  1054G12c O00E19476   2.199   5.132  10.716  0.1058 -0.1871  0.3859
  1054G12c H01B19477   2.287   5.114  10.688  1.2987  3.0563  1.7570
  1054G12c C02F19478   2.341   5.274  10.837  0.1209  0.2879  0.5178
  1054G12c O00F19479   2.462   5.209  10.785  1.6365 -0.3120  1.6327
  1054G12c C02G19480   2.572   5.201  10.895 -0.0716  0.9128  0.2766
  1054G12c H01719481   2.602   5.299  10.931 -1.7102  0.8463  1.8826
  1054G12c H01619482   2.655   5.141  10.857  1.9910  2.9784  1.3614
  1054G12c H01519483   2.523   5.141  10.972 -0.1207 -3.7112 -3.1177
  1054G12c C02E19484   2.365   5.373  10.940  0.7964 -1.2404 -1.0171
  1054G12c H01819485   2.455   5.433  10.935  0.2877 -0.5393 -1.9146
  1054G12c C01F19486   2.646   5.397  11.382  1.2984  0.4860  1.8164
  1054G12c C01G19487   2.569   5.298  11.446  0.1554 -0.1400 -1.3851
  1054G12c H00L19488   2.491   5.351  11.497 -0.0509 -3.8310  2.3356
  1054G12c C01H19489   2.587   5.154  11.429  0.6382  1.0519 -0.7536
  1054G12c H00B19490   2.517   5.076  11.453  2.1962  1.0128  4.0366
  1054G12c C01I19491   2.701   5.120  11.347  1.1621  0.4367  0.3716
  1054G12c C01U19492   2.776   5.350  11.331  1.8833 -0.6240 -1.5628
  1054G12c C00S19493   2.916   5.390  10.792 -0.1363 -1.5971 -0.9646
  1054G12c C00K19494   2.897   5.198  10.922  0.6722  1.0774 -1.4810
  1054G12c C00N19495   2.826   5.406  11.206 -0.3602 -0.9069 -2.7590
  1054G12c C00019496   2.803   5.214  11.327  1.1659 -0.8407  0.1600
  1054G12c C01J19497   2.714   5.011  11.261  0.5773  0.1245 -0.5853
  1054G12c C01K19498   2.624   4.901  11.255  0.9685 -1.0589 -0.1715
  1054G12c C01P19499   2.562   4.836  11.367 -1.8946 -0.2599 -0.6312
  1054G12c C01Q19500   2.592   4.830  11.516 -1.3190 -0.0420  1.8640
  1054G12c H00G19501   2.535   4.851  11.606 -0.9835 -1.1751  2.3554
  1054G12c C01R19502   2.720   4.848  11.546 -1.4561 -1.6581 -1.3540
  1054G12c H00F19503   2.784   4.875  11.463 -7.4796  4.7365 -4.4737
  1054G12c C01S19504   2.798   4.850  11.670 -1.8545  1.0964 -1.7447
  1054G12c H00E19505   2.766   4.769  11.736  0.8508 -1.5596 -3.5835
  1054G12c H00D19506   2.898   4.812  11.647 -1.9257  2.2772 -4.0696
  1054G12c O00519507   2.789   4.965  11.740  0.0612 -0.5268 -1.3381
  1054G12c H00C19508   2.824   5.036  11.689  3.1601  3.5710  5.7375
  1054G12c C01O19509   2.490   4.729  11.341 -0.6058  0.9551 -0.0558
  1054G12c H00H19510   2.470   4.658  11.420 -0.1587  3.5185  2.4525
  1054G12c C01N19511   2.457   4.695  11.215 -0.7058  0.8501 -0.0283
  1054G12c O00619512   2.420   4.560  11.181  1.2098 -0.6491 -0.2181
  1054G12c C01T19513   2.322   4.504  11.265  1.2147  0.8762 -0.2968
  1054G12c H00K19514   2.290   4.581  11.335 -2.6139  0.2690 -1.2837
  1054G12c H00J19515   2.367   4.479  11.361  0.2297  0.6153  0.0947
  1054G12c H00I19516   2.248   4.443  11.214  2.3557  0.7683 -1.8765
  1054G12c C01M19517   2.511   4.763  11.104 -0.1817  1.5137  0.2568
  1054G12c C02019518   2.851   5.056  10.907 -0.3598 -0.8113 -0.1106
  1054G12c C02119519   2.857   4.974  10.793 -0.0602 -0.4375  0.6410
  1054G12c C01L19520   2.609   4.866  11.123 -1.7425 -0.0813 -1.6610
  1054G12c O00719521   2.483   4.733  10.973 -1.4180  0.0661  1.7172
  1054G12c C02219522   2.763   4.878  10.784 -0.2199  0.1609 -0.8962
  1054G12c C02319523   2.862   5.031  10.673 -0.4642  0.8715  0.0014
  1054G12c C00G19524   2.773   5.181  10.471  0.4663 -1.8643  2.2547
  1054G12c C00E19525   2.648   5.200  10.256  0.1649 -0.4075 -0.2312
  1054G12c O00A19526   2.592   5.285  10.159  0.3054  0.1124 -0.5367
  1054G12c C02419527   2.466   5.273  10.133  0.0988 -0.0376  0.4635
  1054G12c H00V19528   2.406   5.248  10.221  1.5586  0.9157  1.7541
  1054G12c H00U19529   2.471   5.183  10.072  1.5310  2.1651 -2.8075
  1054G12c H00T19530   2.412   5.359  10.093 -1.5768  2.7455  7.9995
  1064G12c C00D19531   6.964  11.667   8.986  0.2898 -1.0832 -1.2429
  1064G12c O00B19532   6.924  11.712   9.108  0.7718  0.8096 -0.7364
  1064G12c C02519533   6.786  11.749   9.136 -1.4004  1.0342  1.9391
  1064G12c C02619534   6.767  11.877   9.208  0.2507 -0.8215  0.3169
  1064G12c H00Y19535   6.683  11.885   9.276  1.6979 -2.1515  2.3347
  1064G12c H00X19536   6.762  11.970   9.150  2.6679 -2.2206 -2.2876
  1064G12c O00C19537   6.887  11.925   9.277  1.4728 -0.0611 -0.4718
  1064G12c H00W19538   6.856  11.964   9.358  5.0023 -0.2460  1.0685
  1064G12c C02719539   6.680  11.675   9.100  2.2676  0.8645 -0.6734
  1064G12c O00D19540   6.559  11.712   9.135  1.0076 -0.3047 -0.1015
  1064G12c H00Z19541   6.522  11.655   9.070 -1.7154  1.6514 -0.3549
  1064G12c C02819542   6.692  11.540   9.024  1.5236 -1.0490 -1.0027
  1064G12c C02919543   6.750  11.437   9.097 -0.5043 -0.2045 -0.1042
  1064G12c H01019544   6.784  11.433   9.199  0.3290 -7.0952 -0.3874
  1064G12c C02T19545   6.740  11.307   9.054  0.4213 -0.9974  0.0545
  1064G12c H01O19546   6.787  11.219   9.094  1.8932 -1.2806 -2.1941
  1064G12c C02S19547   6.671  11.289   8.929  0.7244  0.7632  1.0879
  1064G12c O00J19548   6.657  11.160   8.864 -0.3476 -1.0961 -0.5320
  1064G12c H01P19549   6.610  11.161   8.782  2.8609 -3.8250 -2.5216
  1064G12c C02R19550   6.615  11.393   8.854  1.2672  0.3436 -0.9991
  1064G12c O00I19551   6.565  11.359   8.728 -0.3526  0.1342  0.2163
  1064G12c C02Q19552   6.431  11.398   8.695 -0.9078 -0.5522 -0.8006
  1064G12c H01N19553   6.424  11.453   8.601 -2.2362 -3.5641 -2.5252
  1064G12c H01R19554   6.413  11.470   8.775  2.2873 -1.8698  1.2240
  1064G12c H01Q19555   6.341  11.341   8.674 -3.3252  1.6033  3.2005
  1064G12c C02A19556   6.612  11.519   8.920  0.1124 -0.2234  0.5911
  1064G12c H01119557   6.587  11.607   8.863 -2.4677 -2.9842 -2.7895
  1064G12c C00C19558   7.020  11.534   8.986  0.6967 -0.7724  1.3745
  1064G12c H01219559   7.037  11.487   9.082 -2.1925  0.3234  2.4618
  1064G12c C00B19560   7.080  11.485   8.860 -0.5825 -2.0610 -0.8796
  1064G12c C00A19561   7.162  11.359   8.832  1.0402 -0.1436 -0.3547
  1064G12c C00919562   7.220  11.254   8.918  0.7007  0.9190  1.5300
  1064G12c C00819563   7.226  11.210   9.051  1.0780 -0.3822 -1.0264
  1064G12c H01319564   7.149  11.251   9.114  2.7512 -3.8543  3.5134
  1064G12c C00719565   7.330  11.122   9.108  0.3527 -0.3933  0.3853
  1064G12c H01419566   7.336  11.118   9.216  5.6292 -1.8846  0.2149
  1064G12c C00619567   7.433  11.076   9.009 -0.0299  0.7794 -0.4870
  1064G12c C00519568   7.410  11.109   8.875  1.0105 -0.0577  0.4957
  1064G12c C00419569   7.482  11.062   8.764 -0.6014 -0.3708  0.3291
  1064G12c C00319570   7.456  11.102   8.637  0.0102 -0.8491 -0.5540
  1064G12c C00219571   7.525  11.039   8.526 -0.3072  0.2748  1.9411
  1064G12c C00119572   7.532  11.059   8.372 -0.9015  1.1007 -0.0090
  1064G12c C00M19573   7.525  11.200   8.314 -1.2908  0.7282  0.6000
  1064G12c C00L19574   7.436  11.286   8.378 -1.3846 -0.0390  0.6437
  1064G12c C00R19575   7.429  11.416   8.347 -0.2239 -1.2416 -0.0878
  1064G12c C00Q19576   7.482  11.490   8.240  0.7187 -0.3930 -1.5531
  1064G12c C00V19577   7.425  11.624   8.252 -0.0278  0.5767 -0.3769
  1064G12c C00U19578   7.328  11.665   8.337 -0.1807 -0.8833  0.9187
  1064G12c C00T19579   7.256  11.591   8.412  1.7008 -0.9265 -1.6460
  1064G12c C01619580   7.197  11.627   8.535 -0.6485 -0.4204  1.3300
  1064G12c C01519581   7.184  11.764   8.553 -1.4230  0.1092 -1.4487
  1064G12c C01019582   7.255  11.854   8.466  1.4118 -0.1120  1.0414
  1064G12c C01119583   7.239  11.994   8.491 -1.5435  0.2246 -0.4291
  1064G12c H00519584   7.293  12.050   8.416  1.8231 -1.8770  0.3352
  1064G12c C01219585   7.207  12.023   8.619  0.4655 -0.2120  0.1867
  1064G12c C01719586   7.245  12.155   8.660 -0.0892 -0.1315  0.4988
  1064G12c O00219587   7.237  12.254   8.565 -1.2517 -2.2561  0.2577
  1064G12c H00419588   7.258  12.344   8.587  3.1699 -1.9471 -4.2221
  1064G12c C01819589   7.294  12.178   8.786  0.8685 -1.7679  0.1021
  1064G12c O00119590   7.356  12.294   8.811 -0.2015 -0.1368 -0.0954
  1064G12c H00319591   7.436  12.278   8.859 -0.0506  0.7273 -0.0606
  1064G12c C01919592   7.333  12.067   8.883 -1.8984 -1.1862  1.3271
  1064G12c H00219593   7.384  12.089   8.977  2.1793 -4.5449  0.0697
  1064G12c H00119594   7.251  11.998   8.902 -4.3059  0.2241 -3.4052
  1064G12c O00019595   7.445  12.000   8.817 -0.9028  0.0579  0.6323
  1064G12c C01A19596   7.491  11.876   8.869 -1.2205 -0.3533  0.1192
  1064G12c C02K19597   7.577  11.786   8.801 -0.0168 -1.1374 -1.3529
  1064G12c O00G19598   7.637  11.810   8.683  1.6549  0.7911  1.0783
  1064G12c C02M19599   7.556  11.835   8.583  1.1712 -0.8739  0.1387
  1064G12c H01G19600   7.591  11.870   8.486 -2.9194 -1.2569 -1.5398
  1064G12c H01F19601   7.469  11.897   8.605  1.0352 -1.6099  1.7488
  1064G12c H01E19602   7.533  11.729   8.575 -3.3371 -0.3547  3.7796
  1064G12c C02J19603   7.615  11.665   8.857 -1.3195  0.2112 -2.1443
  1064G12c H01H19604   7.692  11.602   8.815 -2.3144  0.7746 -4.9528
  1064G12c C02I19605   7.589  11.646   8.993  0.0373 -2.3431 -1.5185
  1064G12c C02N19606   7.610  11.503   9.052  0.2000 -0.7097 -0.7710
  1064G12c H01M19607   7.584  11.423   8.984 -3.2175 -0.2102 -0.1473
  1064G12c C02O19608   7.703  11.512   9.145 -0.5553  1.3972  2.4830
  1064G12c H01L19609   7.738  11.601   9.195  7.8970  0.6811 -1.3684
  1064G12c C02P19610   7.768  11.385   9.200 -0.6064 -2.1409 -0.2291
  1064G12c H01K19611   7.828  11.358   9.113  3.6263 -1.7254  2.4278
  1064G12c H01J19612   7.849  11.398   9.271 -4.3405 -2.0424  4.2985
  1064G12c O00H19613   7.684  11.295   9.242  0.4125 -0.2802 -0.8850
  1064G12c H01I19614   7.602  11.293   9.196 -1.7360  5.7171  2.0872
  1064G12c C02H19615   7.514  11.742   9.065  0.3357 -0.8663  0.9814
  1064G12c H01C19616   7.471  11.718   9.161  3.9369  2.9063  3.6749
  1064G12c C02L19617   7.448  11.850   8.996 -0.7636  0.8210 -2.4767
  1064G12c H01D19618   7.399  11.884   9.086 -2.0995 -1.1472 -2.4275
  1064G12c C01319619   7.124  11.947   8.709 -1.6196  0.7914  1.7091
  1064G12c H00019620   7.067  11.974   8.797 -4.2527  4.8009 -1.0209
  1064G12c C01419621   7.111  11.813   8.669  0.6223  1.2873  0.4908
  1064G12c C00F19622   7.060  11.712   8.763 -2.3871  0.0085  0.9196
  1064G12c C00H19623   7.153  11.528   8.630  0.3601  0.6833 -0.2453
  1064G12c C00I19624   7.190  11.402   8.608 -1.4036  0.0349  0.5848
  1064G12c C00J19625   7.255  11.375   8.482 -1.5149  1.6035 -1.1128
  1064G12c C00Z19626   7.319  11.803   8.355 -1.7693  0.0762 -0.6018
  1064G12c C00Y19627   7.376  11.886   8.264 -0.2624  0.9444  0.4408
  1064G12c H00619628   7.348  11.990   8.253 -2.4352  0.2082 -1.3765
  1064G12c C00X19629   7.473  11.845   8.163  0.4857  1.1226  0.4988
  1064G12c O00319630   7.540  11.937   8.081  0.1048  0.5652 -0.7302
  1064G12c C01B19631   7.671  11.970   8.119 -1.3750  0.4016 -0.8886
  1064G12c H00919632   7.730  11.880   8.106  3.1774  2.1560  5.3351
  1064G12c H00819633   7.689  11.995   8.224 -7.3716  4.6949 -0.6379
  1064G12c H00719634   7.713  12.047   8.053 -3.1947  6.1748  4.1731
  1064G12c C00W19635   7.477  11.714   8.151 -1.7501  0.2080 -0.1746
  1064G12c O00419636   7.562  11.669   8.044 -0.6737  1.2047  0.7860
  1064G12c C01C19637   7.642  11.560   8.066  0.7721 -0.0337 -1.1358
  1064G12c H00A19638   7.686  11.521   7.974 -1.5897 -4.0696 -0.6727
  1064G12c C00P19639   7.598  11.452   8.159 -1.2255  0.7064  0.5985
  1064G12c C00O19640   7.691  11.339   8.199 -0.6112  0.5172 -1.5092
  1064G12c C01D19641   7.844  11.344   8.198  1.2238  0.7078  0.5007
  1064G12c H00S19642   7.854  11.436   8.141 -0.1171 -0.7754 -2.2083
  1064G12c C01E19643   7.923  11.278   8.280  1.9046  1.5094  1.5394
  1064G12c O00819644   8.034  11.332   8.356 -0.4122  0.3268 -1.3897
  1064G12c C01V19645   8.009  11.369   8.481 -0.2903 -0.5334 -0.6694
  1064G12c C01Z19646   7.894  11.469   8.516  1.5142 -1.7326  0.6506
  1064G12c H00R19647   7.788  11.454   8.495  1.9032  2.4157 -5.7002
  1064G12c H00Q19648   7.864  11.466   8.621  5.8621 -7.1062  2.0225
  1064G12c O00919649   7.972  11.591   8.475 -0.0204  0.2271  0.3915
  1064G12c H00P19650   7.997  11.574   8.386 -1.2949 -0.2271  0.1037
  1064G12c C01W19651   8.066  11.351   8.592 -0.1295  1.2979 -0.3994
  1064G12c H00O19652   8.019  11.371   8.687  0.5944 -1.8645  0.6773
  1064G12c C01X19653   8.201  11.262   8.593 -0.7407 -1.2098  0.2420
  1064G12c H00N19654   8.231  11.242   8.490 -0.5088  1.3876 -0.2301
  1064G12c H00M19655   8.281  11.331   8.619  0.6411 -1.0043 -4.1137
  1064G12c C01Y19656   8.190  11.122   8.666  1.0253  0.0465 -0.5083
  1064G12c C02D19657   8.207  10.989   8.608  0.4368 -0.0350  0.0054
  1064G12c H01919658   8.233  10.975   8.504  1.9025  1.4079  0.1550
  1064G12c C02C19659   8.188  10.875   8.689  1.1668 -0.4476  0.9997
  1064G12c H01A19660   8.197  10.780   8.639  0.3993  0.3068 -0.6196
  1064G12c C02B19661   8.171  10.889   8.836 -1.2713  0.1810 -0.3843
  1064G12c O00E19662   8.144  10.793   8.920 -1.2985  1.3627 -0.5939
  1064G12c H01B19663   8.148  10.849   8.996  0.3226  5.1724 -3.3515
  1064G12c C02F19664   8.135  11.015   8.882  0.4316 -1.8809  0.6466
  1064G12c O00F19665   8.095  11.005   9.012  0.5559  0.8359  0.5770
  1064G12c C02G19666   8.044  11.134   9.078  1.4018 -0.5628  0.4572
  1064G12c H01719667   8.079  11.188   9.166 -1.2063  0.7544  0.7154
  1064G12c H01619668   7.963  11.066   9.101  1.9985 -0.0345  4.5641
  1064G12c H01519669   8.019  11.216   9.010  2.6631  0.6652  1.4298
  1064G12c C02E19670   8.137  11.129   8.798  0.6348 -0.1667 -0.6230
  1064G12c H01819671   8.090  11.217   8.839 -6.0175 -4.0366  0.7222
  1064G12c C01F19672   7.861  11.160   8.333 -1.6883 -0.1910 -0.8104
  1064G12c C01G19673   7.940  11.064   8.398  1.7241  0.4960  0.1825
  1064G12c H00L19674   8.044  11.082   8.420  1.9934 -6.2256  6.4757
  1064G12c C01H19675   7.884  10.972   8.483  1.4399 -0.0782 -1.3784
  1064G12c H00B19676   7.935  10.923   8.565  0.4680 -0.5082 -1.0234
  1064G12c C01I19677   7.739  10.972   8.475  0.9337  1.7658  0.7613
  1064G12c C01U19678   7.731  11.125   8.290  1.2628  0.9436 -0.5082
  1064G12c C00S19679   7.301  11.462   8.391 -0.8369 -0.2342 -0.8302
  1064G12c C00K19680   7.351  11.268   8.483  0.9973  0.5936 -1.0858
  1064G12c C00N19681   7.642  11.239   8.285 -1.3258 -0.7139 -1.6836
  1064G12c C00019682   7.670  11.019   8.357 -0.4978  0.9945 -0.2059
  1064G12c C01J19683   7.631  10.943   8.563  0.5364 -1.7898  0.0900
  1064G12c C01K19684   7.660  10.906   8.700  0.0589 -1.4017  1.3836
  1064G12c C01P19685   7.759  10.793   8.725  0.3346 -0.6265 -1.1893
  1064G12c C01Q19686   7.780  10.676   8.626  0.2409  0.1432  0.2978
  1064G12c H00G19687   7.702  10.605   8.603  0.5110  0.0779 -0.4471
  1064G12c C01R19688   7.880  10.652   8.542  0.4538  1.0006  1.4392
  1064G12c H00F19689   7.965  10.712   8.569  2.7316 -0.9936 -1.0416
  1064G12c C01S19690   7.861  10.573   8.411  0.2669  0.9755  0.1653
  1064G12c H00E19691   7.755  10.549   8.418  1.0334 -2.1652  2.1615
  1064G12c H00D19692   7.865  10.655   8.340  1.5214 -1.8110 -3.1329
  1064G12c O00519693   7.952  10.459   8.393  0.3931 -0.2485 -0.5947
  1064G12c H00C19694   8.040  10.484   8.368 -0.4391  1.8920 -1.5390
  1064G12c C01O19695   7.786  10.774   8.861 -1.2218  0.9024  0.0405
  1064G12c H00H19696   7.872  10.713   8.882 -0.7154  1.4283 -0.4874
  1064G12c C01N19697   7.721  10.836   8.971  1.1223  1.1511 -2.5983
  1064G12c O00619698   7.756  10.789   9.107  1.4048 -0.8443  0.9850
  1064G12c C01T19699   7.718  10.871   9.211  0.1455 -0.1636  1.0330
  1064G12c H00K19700   7.788  10.872   9.294 -1.8530 -2.6573  2.7901
  1064G12c H00J19701   7.635  10.812   9.248 -3.4475 -0.1326 -6.0133
  1064G12c H00I19702   7.697  10.977   9.195 -5.3490 -1.3476 -0.7173
  1064G12c C01M19703   7.625  10.940   8.934 -0.0735  1.6271  0.2242
  1064G12c C02019704   7.348  11.187   8.598  1.0394 -0.4947 -0.4427
  1064G12c C02119705   7.242  11.193   8.694 -2.0658  1.2600  2.1976
  1064G12c C01L19706   7.589  10.971   8.794 -0.9952 -1.0275  0.7545
  1064G12c O00719707   7.564  11.023   9.026 -0.1786  0.0634 -0.7693
  1064G12c C02219708   7.294  11.169   8.833  1.3943 -2.6516 -1.4105
  1064G12c C02319709   7.163  11.312   8.714 -0.4664 -0.4668  1.0930
  1064G12c C00G19710   7.090  11.564   8.751  0.5974  0.5800  0.3586
  1064G12c C00E19711   6.995  11.758   8.881 -0.4977 -0.8693  1.5055
  1064G12c O00A19712   6.894  11.864   8.881 -0.8343 -0.0418 -1.1743
  1064G12c C02419713   6.800  11.843   8.787  0.0520 -1.5898  0.6307
  1064G12c H00V19714   6.830  11.762   8.720  3.0963 -2.2865  2.6964
  1064G12c H00U19715   6.803  11.935   8.730 -1.0085  0.5521  3.8718
  1064G12c H00T19716   6.700  11.838   8.831 -1.5012 -0.8193 -2.7146
  1074G12c C00D19717  12.949  11.780  10.338 -0.6757  1.3754 -1.3789
  1074G12c O00B19718  13.028  11.789  10.215  1.9827  1.1536  0.3955
  1074G12c C02519719  13.035  11.689  10.120  1.3451  0.4016  1.2224
  1074G12c C02619720  12.991  11.550  10.160 -1.1622  0.5084  1.2771
  1074G12c H00Y19721  13.046  11.484  10.228  0.8379  5.9028  5.1921
  1074G12c H00X19722  12.995  11.477  10.079 -7.3374  2.6474 -1.2544
  1074G12c O00C19723  12.849  11.534  10.180  0.1651 -0.5819 -0.0886
  1074G12c H00W19724  12.836  11.543  10.273  1.3028 -2.7181  0.3213
  1074G12c C02719725  13.108  11.709  10.010  1.5174 -0.8721  0.0195
  1074G12c O00D19726  13.136  11.842   9.967 -2.2033 -1.9493  0.0690
  1074G12c H00Z19727  13.166  11.845   9.877 -6.0883  7.7212 -1.5407
  1074G12c C02819728  13.143  11.605   9.931 -1.2879  1.0664 -0.5765
  1074G12c C02919729  13.061  11.566   9.818 -0.3130  0.7220 -1.1045
  1074G12c H01019730  12.979  11.625   9.779 -4.8583  4.0434 11.2896
  1074G12c C02T19731  13.085  11.448   9.752  0.6709  0.0728  0.3655
  1074G12c H01O19732  13.027  11.416   9.667  3.0342  1.1475 -1.7118
  1074G12c C02S19733  13.190  11.352   9.801  0.3486  1.7217 -0.2729
  1074G12c O00J19734  13.223  11.255   9.731  0.3831  0.6731  1.4103
  1074G12c H01P19735  13.316  11.263   9.747  2.0274 -1.3339 -5.4587
  1074G12c C02R19736  13.282  11.399   9.900 -0.1855  2.6788  0.5349
  1074G12c O00I19737  13.398  11.313   9.927  0.1123 -0.1626 -0.9465
  1074G12c C02Q19738  13.520  11.330   9.871  0.1091 -0.6179 -1.2608
  1074G12c H01N19739  13.553  11.430   9.899 -2.9313 -0.7685  3.3568
  1074G12c H01R19740  13.588  11.252   9.904 -1.8969  0.8089  7.5836
  1074G12c H01Q19741  13.544  11.329   9.764  3.5557  1.7255 -0.5889
  1074G12c C02A19742  13.246  11.512   9.961  0.2436  0.2185 -0.7428
  1074G12c H01119743  13.303  11.558  10.041  1.8025  1.6730 -2.6255
  1074G12c C00C19744  12.843  11.864  10.362  1.4962  1.3661 -0.1605
  1074G12c H01219745  12.815  11.945  10.296  1.3537  1.5206  0.0883
  1074G12c C00B19746  12.785  11.853  10.490 -1.5549  1.2009  1.0147
  1074G12c C00A19747  12.671  11.938  10.551  0.2811 -0.9875 -0.3230
  1074G12c C00919748  12.658  12.089  10.552 -0.9651  1.1573  1.4893
  1074G12c C00819749  12.711  12.192  10.478  0.4340 -1.0459 -0.1273
  1074G12c H01319750  12.751  12.184  10.378 -3.6227 -0.8051 -1.8833
  1074G12c C00719751  12.702  12.324  10.540 -1.3247 -1.0884  0.6452
  1074G12c H01419752  12.751  12.400  10.481 -3.8986 -0.8802 -1.2854
  1074G12c C00619753  12.673  12.355  10.677  0.7577 -1.4864  0.2876
  1074G12c C00519754  12.615  12.248  10.741 -0.9678 -2.1061 -0.6301
  1074G12c C00419755  12.549  12.264  10.871 -0.9078  0.9181  1.2086
  1074G12c C00319756  12.503  12.142  10.929  1.3106  1.4555 -1.1918
  1074G12c C00219757  12.497  12.165  11.082  0.0461 -1.4811 -2.8112
  1074G12c C00119758  12.487  12.063  11.186 -0.2318 -0.5668  0.0028
  1074G12c C00M19759  12.567  11.944  11.202  0.2512 -0.6633  0.6285
  1074G12c C00L19760  12.574  11.852  11.093 -0.3011 -0.0373 -0.3390
  1074G12c C00R19761  12.668  11.740  11.095  0.4355 -0.0954  1.9416
  1074G12c C00Q19762  12.719  11.666  11.203 -0.1840  0.4679 -0.1828
  1074G12c C00V19763  12.781  11.538  11.147  1.1687  1.6883  0.4506
  1074G12c C00U19764  12.813  11.519  11.002  0.9322  0.6261  0.4934
  1074G12c C00T19765  12.762  11.601  10.913 -0.0596 -1.3478 -0.2125
  1074G12c C01619766  12.797  11.610  10.786 -0.4985 -0.5828 -1.4274
  1074G12c C01519767  12.878  11.514  10.729 -1.0079  0.8726 -2.5987
  1074G12c C01019768  12.922  11.407  10.812  0.6422 -0.6590  1.0003
  1074G12c C01119769  13.010  11.302  10.766  0.4506 -0.3766  0.2814
  1074G12c H00519770  13.045  11.221  10.827 -0.3274 -4.0842 -3.9271
  1074G12c C01219771  13.046  11.300  10.633  1.1729 -0.6507  0.4001
  1074G12c C01719772  13.158  11.211  10.575 -0.4847  2.4277  0.0942
  1074G12c O00219773  13.167  11.090  10.645 -0.3160 -0.1661  1.2641
  1074G12c H00419774  13.113  11.018  10.675  2.3178 -2.7560  0.0703
  1074G12c C01819775  13.240  11.235  10.473  0.4232  0.1881  1.0632
  1074G12c O00119776  13.263  11.354  10.420 -0.8980 -0.3559 -0.4556
  1074G12c H00319777  13.335  11.338  10.361 -0.7433 -3.5730  0.4672
  1074G12c C01919778  13.325  11.137  10.409  0.5632  1.0452 -0.1671
  1074G12c H00219779  13.386  11.130  10.500 -2.9309 -5.3457  2.0570
  1074G12c H00119780  13.279  11.038  10.400  3.0939 -0.1982  0.0890
  1074G12c O00019781  13.399  11.172  10.282  0.9593 -1.4140 -1.0516
  1074G12c C01A19782  13.518  11.129  10.272 -0.2353  0.1832  0.6133
  1074G12c C02K19783  13.609  11.217  10.311 -0.6491  0.3947  0.0496
  1074G12c O00G19784  13.573  11.332  10.366  0.8292 -0.2667 -1.5536
  1074G12c C02M19785  13.519  11.439  10.298  0.3411  1.4896 -0.9852
  1074G12c H01G19786  13.445  11.508  10.339 -0.1245 -0.6167  1.8664
  1074G12c H01F19787  13.480  11.436  10.197  1.4248 -2.0669 -1.3476
  1074G12c H01E19788  13.620  11.479  10.284  3.1775 -2.2382  5.8908
  1074G12c C02J19789  13.737  11.170  10.331 -3.0772 -0.5535  0.2798
  1074G12c H01H19790  13.800  11.232  10.393 -2.9868  0.2769 -0.6292
  1074G12c C02I19791  13.768  11.048  10.295 -1.6568  1.0500 -0.5961
  1074G12c C02N19792  13.904  10.995  10.317 -1.3152  0.1982  1.6879
  1074G12c H01M19793  13.935  11.015  10.419 -4.5262  0.0521  2.7560
  1074G12c C02O19794  13.966  10.922  10.231  0.7524 -1.7788  1.9282
  1074G12c H01L19795  13.923  10.885  10.139 -5.5027 -3.1297  5.1693
  1074G12c C02P19796  14.120  10.867  10.231  0.5095 -1.8630 -0.8777
  1074G12c H01K19797  14.135  10.761  10.210  3.0983 -1.2827 -2.0860
  1074G12c H01J19798  14.127  10.870  10.122  2.5514 -2.1750 -0.7663
  1074G12c O00H19799  14.233  10.951  10.220 -0.0265 -0.6593  0.5353
  1074G12c H01I19800  14.293  10.994  10.278 -1.2740 -1.3181  2.3603
  1074G12c C02H19801  13.680  10.951  10.241  1.9951 -0.5724  2.4648
  1074G12c H01C19802  13.725  10.855  10.219 -0.8022 -0.4872 -5.3634
  1074G12c C02L19803  13.541  10.986  10.249 -0.5891 -0.6280 -2.0340
  1074G12c H01D19804  13.445  10.941  10.230 -2.2126  3.0310 -3.0332
  1074G12c C01319805  13.010  11.409  10.557  0.3633 -1.0158 -1.1093
  1074G12c H00019806  13.046  11.398  10.456  3.0470 -0.0954 -0.3007
  1074G12c C01419807  12.938  11.530  10.596  0.9835 -0.7424 -1.3723
  1074G12c C00F19808  12.894  11.632  10.515 -1.1220 -0.4733  0.5562
  1074G12c C00H19809  12.752  11.710  10.697 -0.5762 -1.2730 -0.4114
  1074G12c C00I19810  12.642  11.784  10.745  1.8605 -1.1164  0.1617
  1074G12c C00J19811  12.611  11.774  10.877 -0.7512 -0.9017  0.2676
  1074G12c C00Z19812  12.898  11.421  10.951  0.5977  0.2724  1.3783
  1074G12c C00Y19813  12.952  11.329  11.049 -0.6795  1.4178  1.3207
  1074G12c H00619814  13.013  11.245  11.021 -2.8577  0.4759 -0.7931
  1074G12c C00X19815  12.914  11.326  11.185 -0.8898  0.3938 -0.6370
  1074G12c O00319816  12.986  11.248  11.277 -0.7934  0.3558  0.3816
  1074G12c C01B19817  13.117  11.201  11.236  2.1729  2.0413 -0.2851
  1074G12c H00919818  13.185  11.285  11.241  4.2097  0.7496 -4.0942
  1074G12c H00819819  13.094  11.124  11.161 -6.9711 -0.7633  4.5902
  1074G12c H00719820  13.166  11.138  11.310  1.0348 -0.8623 -1.9061
  1074G12c C00W19821  12.846  11.442  11.229 -0.8043 -0.2217 -0.9763
  1074G12c O00419822  12.857  11.473  11.362  0.1935  2.2900 -0.2524
  1074G12c C01C19823  12.801  11.601  11.406 -0.4588  0.5657 -0.1036
  1074G12c H00A19824  12.846  11.619  11.503 -2.3712  1.1347  0.6998
  1074G12c C00P19825  12.734  11.705  11.339  0.2807  0.7956 -1.9440
  1074G12c C00O19826  12.724  11.838  11.391  0.5900  1.0010 -1.7740
  1074G12c C01D19827  12.801  11.897  11.490 -1.3461 -0.3443 -0.8541
  1074G12c H00S19828  12.879  11.832  11.527 -1.7862  0.9956  2.6227
  1074G12c C01E19829  12.782  12.028  11.542  0.8057  1.0482  0.1575
  1074G12c O00819830  12.846  12.077  11.643  0.5536 -0.1688  1.0220
  1074G12c C01V19831  12.772  12.058  11.753  0.3844  0.5150 -0.1474
  1074G12c C01Z19832  12.718  11.918  11.788  1.0913  0.1455  0.1760
  1074G12c H00R19833  12.804  11.853  11.771  0.9401 -0.2737  0.9803
  1074G12c H00Q19834  12.728  11.888  11.892 -2.3902 -0.5284  0.3868
  1074G12c O00919835  12.603  11.871  11.693 -1.2456  0.1510 -1.3300
  1074G12c H00P19836  12.519  11.901  11.725 -1.9796  2.2798 -5.0371
  1074G12c C01W19837  12.754  12.173  11.837  1.7013 -1.4103 -1.1446
  1074G12c H00O19838  12.731  12.161  11.942  1.5936  2.9108 -0.5657
  1074G12c C01X19839  12.800  12.316  11.826  0.3681  1.2831 -1.2678
  1074G12c H00N19840  12.865  12.336  11.911 -1.7379  0.1604  0.6733
  1074G12c H00M19841  12.854  12.314  11.732 -3.4535  4.0928 -3.6608
  1074G12c C01Y19842  12.687  12.426  11.830  0.0259 -0.3673  0.7318
  1074G12c C02D19843  12.637  12.479  11.716 -1.1003  0.2063 -1.6219
  1074G12c H01919844  12.644  12.425  11.623 -1.4306 -2.7541  0.0044
  1074G12c C02C19845  12.580  12.614  11.721 -1.1751  1.0432  1.1770
  1074G12c H01A19846  12.565  12.681  11.637 -1.1857 -3.2660 -2.4894
  1074G12c C02B19847  12.534  12.662  11.835 -1.3663 -1.0151  0.9456
  1074G12c O00E19848  12.448  12.764  11.837 -0.4779  0.7677  0.1460
  1074G12c H01B19849  12.434  12.810  11.919  5.4862  5.4824 -1.0703
  1074G12c C02F19850  12.559  12.590  11.953  1.2660  0.1259  0.4554
  1074G12c O00F19851  12.524  12.640  12.067 -1.0893 -0.8824  0.9903
  1074G12c C02G19852  12.515  12.582  12.183  0.5262  0.2988 -0.7799
  1074G12c H01719853  12.483  12.680  12.217  1.7248  0.1830  0.7668
  1074G12c H01619854  12.609  12.538  12.218 -2.4523 -1.0019  6.5377
  1074G12c H01519855  12.439  12.511  12.215  4.4260 -2.0080  4.1049
  1074G12c C02E19856  12.637  12.481  11.953  1.1620  1.0966 -0.9296
  1074G12c H01819857  12.667  12.436  12.047  1.9518 -5.2006 -3.9476
  1074G12c C01F19858  12.683  12.106  11.474 -0.0682 -0.8453  1.6315
  1074G12c C01G19859  12.696  12.245  11.474  2.1209 -0.4795  0.0142
  1074G12c H00L19860  12.756  12.262  11.562  1.8784  0.6157 -0.0204
  1074G12c C01H19861  12.644  12.342  11.380 -0.2244 -0.8157 -0.1150
  1074G12c H00B19862  12.686  12.441  11.367 -2.4633  0.3065  0.8874
  1074G12c C01I19863  12.548  12.268  11.289  0.1185  1.1000 -0.6346
  1074G12c C01U19864  12.598  12.058  11.382 -1.5526 -0.1811  2.3874
  1074G12c C00S19865  12.681  11.695  10.962  0.2815  0.6798  0.3807
  1074G12c C00K19866  12.566  11.894  10.948 -0.3884 -0.8942 -1.2207
  1074G12c C00N19867  12.639  11.933  11.327 -0.8295 -0.6051  1.1144
  1074G12c C00019868  12.496  12.131  11.312 -0.8666  0.8691 -0.3773
  1074G12c C01J19869  12.500  12.294  11.150  1.9430 -0.2521  0.6647
  1074G12c C01K19870  12.539  12.408  11.072 -0.1630 -0.1393  0.1054
  1074G12c C01P19871  12.528  12.544  11.096  2.2512  0.4229  0.0608
  1074G12c C01Q19872  12.444  12.588  11.210  0.2298  1.1129 -0.4876
  1074G12c H00G19873  12.354  12.548  11.253  0.4174 -2.0674 -2.8645
  1074G12c C01R19874  12.491  12.711  11.260  0.2082  0.6049 -0.5451
  1074G12c H00F19875  12.565  12.778  11.221 -1.6919  3.5155  0.6236
  1074G12c C01S19876  12.420  12.764  11.384  1.6099  0.4287 -0.1589
  1074G12c H00E19877  12.396  12.673  11.439  1.5788  0.3908 -0.2328
  1074G12c H00D19878  12.454  12.830  11.463 -4.1269 -0.4265  3.3443
  1074G12c O00519879  12.278  12.812  11.341 -0.6158  0.1739 -0.3410
  1074G12c H00C19880  12.282  12.902  11.368  4.0474  0.4247 -1.5267
  1074G12c C01O19881  12.580  12.650  11.016  1.8186  0.1714  0.9763
  1074G12c H00H19882  12.593  12.755  11.037  0.4805 -0.1882  3.7741
  1074G12c C01N19883  12.593  12.633  10.877 -0.1049 -0.6353 -0.8364
  1074G12c O00619884  12.659  12.732  10.824 -0.7450  1.2851 -1.0082
  1074G12c C01T19885  12.603  12.761  10.698 -0.5606 -1.7122 -2.9375
  1074G12c H00K19886  12.659  12.824  10.628  6.3759 -3.8459  0.2637
  1074G12c H00J19887  12.611  12.694  10.612  2.7918 -0.1023 -3.9744
  1074G12c H00I19888  12.512  12.816  10.724  4.0508  3.4589  3.8302
  1074G12c C01M19889  12.609  12.496  10.837 -0.7215 -0.4818 -0.8266
  1074G12c C02019890  12.530  12.010  10.878  0.8207  1.4951 -0.3311
  1074G12c C02119891  12.541  11.999  10.732  0.5148 -1.6711 -2.9115
  1074G12c C01L19892  12.558  12.387  10.932  0.0242  0.5131 -1.6158
  1074G12c O00719893  12.652  12.483  10.711 -0.4277 -0.2268 -0.2153
  1074G12c C02219894  12.596  12.125  10.681 -1.3804  2.0958 -1.1316
  1074G12c C02319895  12.625  11.899  10.667 -0.6432 -1.3537  0.7101
  1074G12c C00G19896  12.820  11.738  10.573  1.5329  0.6242 -0.5994
  1074G12c C00E19897  12.981  11.677  10.419  0.3079 -0.2459  0.5880
  1074G12c O00A19898  13.102  11.616  10.395  1.0399  0.7029 -1.5904
  1074G12c C02419899  13.221  11.710  10.410 -1.2589 -0.4600  0.3652
  1074G12c H00V19900  13.312  11.659  10.380 -2.5061 -0.8108 -3.1101
  1074G12c H00U19901  13.246  11.741  10.511 -0.4550  0.8996 -0.2384
  1074G12c H00T19902  13.195  11.792  10.343 -5.0602 -1.0860  0.9332
  1084G12c C00D19903   3.660   0.158   4.494  1.0647 -1.3125 -0.0740
  1084G12c O00B19904   3.743   0.212   4.595  2.0238 -0.1746  0.1831
  1084G12c C02519905   3.794   0.337   4.572 -0.0349 -0.5899 -1.5164
  1084G12c C02619906   3.682   0.432   4.562  1.4273 -0.6733  0.8375
  1084G12c H00Y19907   3.724   0.520   4.610  0.8759 -0.6934  1.3586
  1084G12c H00X19908   3.658   0.450   4.457 -3.5185  3.3021  2.4378
  1084G12c O00C19909   3.571   0.430   4.674 -0.5482 -1.4119 -0.5809
  1084G12c H00W19910   3.619   0.398   4.749 -0.8765  0.4134  0.4491
  1084G12c C02719911   3.934   0.338   4.604  0.7982  0.6492 -0.1373
  1084G12c O00D19912   4.012   0.219   4.577 -0.8101  0.2407 -0.7096
  1084G12c H00Z19913   3.949   0.151   4.556 -0.7746  0.1301 -0.4524
  1084G12c C02819914   3.999   0.466   4.609 -0.1019 -0.6566 -1.2248
  1084G12c C02919915   4.124   0.490   4.544  0.4403 -0.0448 -1.4769
  1084G12c H01019916   4.192   0.426   4.489 -0.5540 -5.2402  2.8326
  1084G12c C02T19917   4.180   0.608   4.565  1.1569 -2.1753 -0.5494
  1084G12c H01O19918   4.274   0.625   4.515  3.1482  0.4669  3.7623
  1084G12c C02S19919   4.140   0.704   4.662 -0.1735 -1.4619 -1.0178
  1084G12c O00J19920   4.200   0.829   4.677 -0.5431  0.3776 -1.4140
  1084G12c H01P19921   4.195   0.896   4.744 -1.7109  0.3908 -1.5082
  1084G12c C02R19922   4.022   0.689   4.735  0.5345 -0.1911 -0.3269
  1084G12c O00I19923   3.952   0.804   4.743 -0.1886 -0.1696 -0.7065
  1084G12c C02Q19924   3.864   0.820   4.838  0.7874 -1.7391 -1.3712
  1084G12c H01N19925   3.887   0.926   4.851 -1.0182 -1.6960  2.1551
  1084G12c H01R19926   3.761   0.795   4.815 -1.0266 -0.9709  4.8640
  1084G12c H01Q19927   3.897   0.760   4.923  2.5439  1.7644  0.5922
  1084G12c C02A19928   3.965   0.565   4.718 -0.5332 -0.6688  1.0498
  1084G12c H01119929   3.878   0.555   4.782 -1.9266 -3.4019 -1.1566
  1084G12c C00C19930   3.524   0.130   4.488  0.2960  0.5378 -0.6065
  1084G12c H01219931   3.461   0.188   4.554 -0.8769  2.5372 -3.4062
  1084G12c C00B19932   3.450   0.076   4.383  0.6960  2.1683 -0.5591
  1084G12c C00A19933   3.303   0.063   4.366 -0.2093 -0.6901 -0.8749
  1084G12c C00919934   3.208   0.025   4.472  0.3930 -0.5075 -1.1788
  1084G12c C00819935   3.200   0.014   4.618  1.3463 -0.4963 -0.4649
  1084G12c H01319936   3.279   0.040   4.688 -1.9086  1.6829  2.5779
  1084G12c C00719937   3.071  -0.032   4.673 -0.1490  1.0935 -0.9156
  1084G12c H01419938   3.048   0.027   4.761  7.1548  7.3325 -2.5777
  1084G12c C00619939   2.978  -0.096   4.600 -0.9019 -1.3453 -0.7873
  1084G12c C00519940   3.002  -0.108   4.464  0.6630 -0.9685 -0.6875
  1084G12c C00419941   2.919  -0.181   4.384  1.5587 -0.3481  0.9731
  1084G12c C00319942   2.959  -0.203   4.249  0.4165  0.5543 -0.4736
  1084G12c C00219943   2.862  -0.280   4.164 -0.2910 -0.4421  0.6589
  1084G12c C00119944   2.871  -0.338   4.030 -0.6090 -1.6490  1.0689
  1084G12c C00M19945   2.997  -0.386   3.977 -0.7153  0.3028 -0.8553
  1084G12c C00L19946   3.114  -0.329   3.997 -0.7318 -0.7197  1.4030
  1084G12c C00R19947   3.253  -0.368   3.978  0.4911  1.4902  0.0942
  1084G12c C00Q19948   3.304  -0.506   3.977  0.3072  1.5585 -0.0285
  1084G12c C00V19949   3.443  -0.510   3.975  0.9126  2.8946  0.3681
  1084G12c C00U19950   3.525  -0.396   4.019 -1.1959  0.3337  1.7238
  1084G12c C00T19951   3.460  -0.291   4.067  0.7230 -0.6314 -0.0961
  1084G12c C01619952   3.517  -0.184   4.130 -1.3708 -1.8560 -0.0481
  1084G12c C01519953   3.657  -0.198   4.154 -2.1141 -1.4619  0.4025
  1084G12c C01019954   3.720  -0.318   4.122  1.3800  0.2280  1.4335
  1084G12c C01119955   3.854  -0.345   4.145 -0.4366 -0.7607 -0.1554
  1084G12c H00519956   3.880  -0.441   4.101  0.0138  1.7910 -5.8995
  1084G12c C01219957   3.927  -0.267   4.223  1.3640  0.2443  0.8846
  1084G12c C01719958   4.054  -0.329   4.252 -0.0374 -2.6627  0.0080
  1084G12c O00219959   4.051  -0.458   4.264 -2.0362  0.4429  1.0770
  1084G12c H00419960   4.123  -0.492   4.314 -0.3703  1.9253 -0.2498
  1084G12c C01819961   4.160  -0.240   4.248  1.1642  1.0869  0.4831
  1084G12c O00119962   4.150  -0.106   4.212 -0.6913  1.4751  0.6843
  1084G12c H00319963   4.120  -0.077   4.127 -3.7379 -3.6689 -0.1624
  1084G12c C01919964   4.302  -0.269   4.285  0.0765 -0.9985  1.4255
  1084G12c H00219965   4.294  -0.368   4.331  0.2066 -3.7214 -4.0914
  1084G12c H00119966   4.348  -0.294   4.189  1.4812  3.1471  0.9358
  1084G12c O00019967   4.377  -0.155   4.332  0.9597  1.0704  0.3448
  1084G12c C01A19968   4.507  -0.158   4.296  0.6340 -0.0522  0.4787
  1084G12c C02K19969   4.594  -0.263   4.318 -0.5219  1.4807  0.3023
  1084G12c O00G19970   4.536  -0.373   4.374  0.4148  1.0424  1.1717
  1084G12c C02M19971   4.575  -0.500   4.313  0.6135 -1.1883 -2.4022
  1084G12c H01G19972   4.671  -0.544   4.337  1.7468 -0.4754 -5.3855
  1084G12c H01F19973   4.527  -0.593   4.343 -0.5885  0.0577 -0.3262
  1084G12c H01E19974   4.578  -0.482   4.205  0.2389 -0.7914 -2.3474
  1084G12c C02J19975   4.733  -0.258   4.293  0.4134 -0.9886  0.1799
  1084G12c H01H19976   4.802  -0.341   4.299 -3.7276 -4.6561 10.6856
  1084G12c C02I19977   4.782  -0.151   4.228  0.8928 -1.5565 -0.3244
  1084G12c C02N19978   4.924  -0.135   4.221  0.9450 -0.2179 -2.0896
  1084G12c H01M19979   4.970  -0.220   4.269 -4.2691 -1.5043  1.0036
  1084G12c C02O19980   4.994  -0.044   4.152  0.9130 -2.0065  1.0416
  1084G12c H01L19981   4.945   0.034   4.096  5.6288 -3.5738 -5.9809
  1084G12c C02P19982   5.144  -0.066   4.101  0.2230 -0.1461  0.6356
  1084G12c H01K19983   5.175  -0.153   4.159  6.2704 -0.6296 -2.9320
  1084G12c H01J19984   5.154  -0.098   3.997 -3.9178 -0.2768  0.1869
  1084G12c O00H19985   5.224   0.051   4.134 -0.9413 -0.0444 -0.3031
  1084G12c H01I19986   5.313   0.019   4.129 -2.9240 -6.3624 -0.2010
  1084G12c C02H19987   4.703  -0.036   4.198 -1.3305 -2.3498  0.2134
  1084G12c H01C19988   4.736   0.055   4.151  2.1488 -3.2479  0.8114
  1084G12c C02L19989   4.559  -0.046   4.214  0.1876  0.0428 -0.1938
  1084G12c H01D19990   4.487   0.032   4.190 -1.0932 -0.8260  0.7986
  1084G12c C01319991   3.867  -0.140   4.279  0.4560 -1.0534  0.8370
  1084G12c H00019992   3.947  -0.083   4.323  0.7923 -1.0467  0.2168
  1084G12c C01419993   3.734  -0.099   4.243  0.6268 -0.0665 -0.6091
  1084G12c C00F19994   3.661  -0.003   4.300 -1.6195 -0.2343 -0.5032
  1084G12c C00H19995   3.453  -0.076   4.170  0.6201 -0.5005 -1.8473
  1084G12c C00I19996   3.321  -0.078   4.158 -1.2820 -0.8698 -0.7815
  1084G12c C00J19997   3.261  -0.171   4.060 -2.1453  0.4388 -0.6557
  1084G12c C00Z19998   3.654  -0.427   4.061 -1.4916  0.0417  0.4222
  1084G12c C00Y19999   3.691  -0.566   4.073  1.5962 -1.8379  0.3499
  1084G12c H00620000   3.766  -0.593   4.145  6.0788  1.7855 -2.7093
  1084G12c C00X20001   3.621  -0.675   4.044  0.5194 -0.6540 -2.5221
  1084G12c O00320002   3.637  -0.808   4.073  0.4764 -0.9156  0.9930
  1084G12c C01B20003   3.617  -0.840   4.221 -0.1394 -0.1569 -0.3696
  1084G12c H00920004   3.637  -0.745   4.270 -6.2086  0.7763  0.7437
  1084G12c H00820005   3.510  -0.850   4.241 -0.7608 -4.0465 -4.6264
  1084G12c H00720006   3.670  -0.921   4.270 -2.6801 -3.3233 -2.6509
  1084G12c C00W20007   3.509  -0.640   3.967  1.2432 -0.7101  0.5383
  1084G12c O00420008   3.443  -0.739   3.919 -0.1779  0.0501 -0.1197
  1084G12c C01C20009   3.310  -0.713   3.874  1.5071 -1.3251 -0.2106
  1084G12c H00A20010   3.291  -0.733   3.769 -1.4687  0.4260 -0.0674
  1084G12c C00P20011   3.217  -0.619   3.932 -1.0188  0.4639  1.1566
  1084G12c C00O20012   3.071  -0.622   3.933  1.0637  1.4578  0.2323
  1084G12c C01D20013   3.021  -0.763   3.917  0.3483 -0.9425 -0.6089
  1084G12c H00S20014   3.081  -0.846   3.882  2.4144  0.0078  0.5592
  1084G12c C01E20015   2.902  -0.806   3.982 -0.2092  0.4120  0.0705
  1084G12c O00820016   2.862  -0.934   3.975 -0.6321  0.9020 -0.6712
  1084G12c C01V20017   2.870  -0.987   3.844 -0.3342 -0.4177  0.3792
  1084G12c C01Z20018   2.968  -1.089   3.811  0.6835  2.1517 -2.5212
  1084G12c H00R20019   2.983  -1.145   3.903 -1.6303 -1.3728 -4.1593
  1084G12c H00Q20020   2.964  -1.174   3.742  4.4732 -6.6078  6.7858
  1084G12c O00920021   3.073  -1.053   3.725  1.1160  1.4710 -0.7401
  1084G12c H00P20022   3.041  -0.966   3.706 -0.3672  1.2178  0.5738
  1084G12c C01W20023   2.761  -0.968   3.776  1.9131  0.8998  0.1182
  1084G12c H00O20024   2.690  -0.892   3.804 -1.6133 -0.7905 -3.7541
  1084G12c C01X20025   2.752  -1.031   3.648  0.6616 -0.1555  0.1711
  1084G12c H00N20026   2.699  -0.969   3.576  1.9900  1.3629  0.4713
  1084G12c H00M20027   2.839  -1.076   3.600  3.3537  6.0900 -1.3354
  1084G12c C01Y20028   2.643  -1.147   3.679 -0.9674  1.0362  0.0239
  1084G12c C02D20029   2.562  -1.163   3.799 -2.3657 -0.8617  0.7130
  1084G12c H01920030   2.558  -1.078   3.865 -0.8509  0.1222 -0.4314
  1084G12c C02C20031   2.471  -1.268   3.815  1.0637 -1.5742 -0.9631
  1084G12c H01A20032   2.400  -1.259   3.896  2.9064 -0.7562  0.5915
  1084G12c C02B20033   2.462  -1.363   3.703 -0.5163 -1.2635  1.5307
  1084G12c O00E20034   2.412  -1.483   3.724 -0.5808 -1.4332 -0.3645
  1084G12c H01B20035   2.411  -1.541   3.649  0.3879  0.0254 -1.5344
  1084G12c C02F20036   2.552  -1.335   3.583  0.7698  0.0951 -0.1276
  1084G12c O00F20037   2.580  -1.444   3.498 -0.9538 -0.7904 -0.6457
  1084G12c C02G20038   2.576  -1.416   3.353 -0.1545  1.0385 -1.0916
  1084G12c H01720039   2.477  -1.371   3.355 -1.2091 -1.1489 -1.7002
  1084G12c H01620040   2.565  -1.512   3.302  0.3964  1.5130 -2.1270
  1084G12c H01520041   2.653  -1.356   3.306 -1.6888  3.5639 -0.4528
  1084G12c C02E20042   2.645  -1.230   3.580 -0.2375  0.6845 -0.0316
  1084G12c H01820043   2.697  -1.202   3.490  2.0155  3.0103  1.9244
  1084G12c C01F20044   2.830  -0.690   4.035  0.4674  0.5407  0.5763
  1084G12c C01G20045   2.722  -0.704   4.107 -0.4642  1.5801 -0.1997
  1084G12c H00L20046   2.689  -0.801   4.142 -3.1334  3.6138  3.3274
  1084G12c C01H20047   2.667  -0.585   4.180  0.2336 -0.4056 -0.5881
  1084G12c H00B20048   2.611  -0.588   4.272 -1.1114  4.2688 -1.0918
  1084G12c C01I20049   2.720  -0.469   4.160  1.2139 -1.3167  0.1193
  1084G12c C01U20050   2.846  -0.563   3.989 -1.1549 -0.3136 -2.0832
  1084G12c C00S20051   3.339  -0.265   4.001 -1.5135 -0.6234  1.0076
  1084G12c C00K20052   3.126  -0.221   4.068  0.4411  0.1737 -1.4257
  1084G12c C00N20053   2.982  -0.529   3.961  0.4972  1.2584  1.1204
  1084G12c C00020054   2.782  -0.446   4.027 -0.7433 -0.8985  1.7452
  1084G12c C01J20055   2.768  -0.367   4.247  0.2852 -0.2279  0.0523
  1084G12c C01K20056   2.725  -0.341   4.376  1.2338 -3.2493  0.1366
  1084G12c C01P20057   2.597  -0.343   4.420  1.5250 -0.7836 -2.7495
  1084G12c C01Q20058   2.485  -0.372   4.332  1.6807  0.4527 -1.3586
  1084G12c H00G20059   2.475  -0.329   4.233 -1.7113  0.6401 -0.9850
  1084G12c C01R20060   2.377  -0.441   4.381  1.5284  1.1209  0.9884
  1084G12c H00F20061   2.361  -0.467   4.485-11.0518  1.0095 -0.2903
  1084G12c C01S20062   2.244  -0.444   4.305  0.5831  0.1511  0.3933
  1084G12c H00E20063   2.269  -0.369   4.230 -3.6473  2.4512  1.1043
  1084G12c H00D20064   2.225  -0.538   4.254 -5.3108 -1.5117  5.0489
  1084G12c O00520065   2.135  -0.415   4.381  0.4493  1.5090  0.5417
  1084G12c H00C20066   2.124  -0.499   4.423 -4.4391  0.9996 -1.3910
  1084G12c C01O20067   2.559  -0.282   4.534 -0.2674  0.8877 -0.2960
  1084G12c H00H20068   2.455  -0.302   4.551 -0.5540  2.1090 -0.6030
  1084G12c C01N20069   2.638  -0.200   4.611  1.6422  1.0189  1.0490
  1084G12c O00620070   2.615  -0.151   4.727  0.3593 -0.0319 -0.6226
  1084G12c C01T20071   2.623  -0.230   4.834 -1.0801  0.3565 -1.5422
  1084G12c H00K20072   2.715  -0.288   4.844 -0.5244  1.2147 -1.6716
  1084G12c H00J20073   2.538  -0.292   4.806 -3.2590  0.8391  3.4720
  1084G12c H00I20074   2.584  -0.196   4.930  1.8640  0.2095 -0.2455
  1084G12c C01M20075   2.754  -0.180   4.557 -0.1304  0.2680 -0.1070
  1084G12c C02020076   3.060  -0.140   4.173 -1.2521 -0.5618  0.5736
  1084G12c C02120077   3.112  -0.027   4.255 -1.6067 -0.1658 -2.3585
  1084G12c C01L20078   2.804  -0.246   4.435 -0.0939  0.0753 -0.4528
  1084G12c O00720079   2.838  -0.117   4.636  0.2286  1.1098 -0.2644
  1084G12c C02220080   3.097  -0.031   4.399 -0.7431  0.1993  0.8082
  1084G12c C02320081   3.249   0.004   4.259  0.9846  0.1316  0.8001
  1084G12c C00G20082   3.524   0.011   4.277 -0.8857 -0.9096 -0.8093
  1084G12c C00E20083   3.721   0.117   4.375 -1.3525  0.0180 -1.0602
  1084G12c O00A20084   3.860   0.128   4.388 -0.8483 -0.0406  1.3928
  1084G12c C02420085   3.917   0.189   4.269  0.9061 -0.7793 -0.8394
  1084G12c H00V20086   3.892   0.292   4.246  3.4088 -0.7212 -3.5553
  1084G12c H00U20087   3.921   0.124   4.181  0.6262  1.4188 -2.4995
  1084G12c H00T20088   4.019   0.220   4.288 -0.2121  0.6380  3.3549
  1094G12c C00D20089   0.017   8.361   5.861  0.9626  0.3116  1.4239
  1094G12c O00B20090   0.096   8.456   5.790 -0.7956 -0.1356 -0.6701
  1094G12c C02520091   0.094   8.484   5.649  0.2789  1.8715 -0.2366
  1094G12c C02620092  -0.001   8.590   5.631 -0.8752 -0.5235  0.3591
  1094G12c H00Y20093  -0.024   8.591   5.524 -5.0331 -0.2105  1.1652
  1094G12c H00X20094   0.041   8.686   5.662 -4.6216  2.3530 -2.9959
  1094G12c O00C20095  -0.100   8.601   5.748  0.8236  0.2259  1.6289
  1094G12c H00W20096  -0.081   8.667   5.813  0.1981  0.9967  1.0584
  1094G12c C02720097   0.201   8.450   5.581  0.9048  0.1898 -0.4096
  1094G12c O00D20098   0.305   8.360   5.629  0.5102 -1.6690  0.1366
  1094G12c H00Z20099   0.369   8.361   5.559 -3.7877 -2.5005 -4.1105
  1094G12c C02820100   0.197   8.479   5.440  0.8153  1.0042  0.4699
  1094G12c C02920101   0.314   8.528   5.387 -1.4602 -0.1626  0.0776
  1094G12c H01020102   0.389   8.546   5.462  3.0935  3.3808 -4.9926
  1094G12c C02T20103   0.326   8.548   5.242  1.8035 -1.2073  0.4134
  1094G12c H01O20104   0.426   8.575   5.214  3.4559 -1.7053  5.3270
  1094G12c C02S20105   0.224   8.496   5.159 -1.1815 -1.8134 -0.7657
  1094G12c O00J20106   0.257   8.452   5.030 -0.0773 -0.2293  0.2934
  1094G12c H01P20107   0.169   8.439   4.998 -2.6743  4.1289  4.8230
  1094G12c C02R20108   0.088   8.450   5.202 -0.1421  1.0712  0.1163
  1094G12c O00I20109   0.003   8.380   5.124 -0.2938  0.6964  1.1163
  1094G12c C02Q20110  -0.092   8.449   5.043  0.7476  0.3407 -0.4961
  1094G12c H01N20111  -0.032   8.533   5.008  1.4847  1.7808  3.9370
  1094G12c H01R20112  -0.173   8.497   5.099 -3.0155 -2.1763 -3.5349
  1094G12c H01Q20113  -0.118   8.406   4.946  3.5634 -1.8270 -0.3475
  1094G12c C02A20114   0.086   8.448   5.346  1.7146  1.7046 -1.3924
  1094G12c H01120115  -0.020   8.449   5.361  1.4372 -1.1484 -2.8392
  1094G12c C00C20116   0.075   8.314   5.967 -0.6840 -0.6992  0.1685
  1094G12c H01220117   0.179   8.340   5.980 -0.8735 -0.3216  0.9626
  1094G12c C00B20118   0.013   8.244   6.070 -1.6563  0.2792  0.0946
  1094G12c C00A20119   0.061   8.186   6.191  1.1142 -1.9083 -0.6127
  1094G12c C00920120   0.189   8.134   6.225 -0.4234  0.2377  1.0875
  1094G12c C00820121   0.325   8.155   6.178  0.7837 -2.0199 -0.4515
  1094G12c H01320122   0.351   8.246   6.124 -4.0908  1.0824  2.0115
  1094G12c C00720123   0.412   8.050   6.196 -0.6311 -0.2508 -0.4501
  1094G12c H01420124   0.513   8.030   6.162  0.7590  3.7519  0.9261
  1094G12c C00620125   0.374   7.945   6.275 -1.2383  0.3261  0.6102
  1094G12c C00520126   0.241   7.926   6.330 -0.0638 -1.5256  0.2027
  1094G12c C00420127   0.209   7.823   6.417  0.1760  0.7068  0.2687
  1094G12c C00320128   0.073   7.828   6.466 -0.2092 -1.0792 -1.0753
  1094G12c C00220129   0.032   7.718   6.553  1.3864  0.1541  1.3335
  1094G12c C00120130  -0.084   7.673   6.590  1.4137 -0.7247 -0.2340
  1094G12c C00M20131  -0.214   7.684   6.507  0.1178 -0.0171  0.1835
  1094G12c C00L20132  -0.229   7.778   6.408  1.4304  1.8841  1.0566
  1094G12c C00R20133  -0.330   7.782   6.315 -0.0378 -0.0911 -2.6926
  1094G12c C00Q20134  -0.414   7.679   6.258 -1.0822 -0.3143  1.5501
  1094G12c C00V20135  -0.478   7.717   6.143 -1.0406  0.0627 -0.3685
  1094G12c C00U20136  -0.448   7.842   6.070 -0.7792  1.2967 -1.1262
  1094G12c C00T20137  -0.369   7.935   6.122  0.3929  1.0395 -0.0790
  1094G12c C01620138  -0.297   8.030   6.067  1.4924 -1.0141  0.6434
  1094G12c C01520139  -0.349   8.080   5.949 -0.9880 -1.3416 -1.4720
  1094G12c C01020140  -0.452   8.000   5.893 -0.0482  0.7747  0.7050
  1094G12c C01120141  -0.515   8.048   5.780  0.8509 -0.0687  1.6772
  1094G12c H00520142  -0.600   7.991   5.747  1.7643 -1.2093  1.2741
  1094G12c C01220143  -0.496   8.182   5.737  0.3872  0.3200 -0.4765
  1094G12c C01720144  -0.592   8.254   5.674 -0.8938  1.3138  0.6336
  1094G12c O00220145  -0.671   8.347   5.737 -0.7211 -1.0620  0.6040
  1094G12c H00420146  -0.715   8.392   5.666  2.2943 -4.8392 -3.9945
  1094G12c C01820147  -0.596   8.241   5.530  0.6148 -0.3353 -1.6621
  1094G12c O00120148  -0.508   8.145   5.484  0.0406  1.1591  0.4962
  1094G12c H00320149  -0.478   8.092   5.556  0.0693 -1.7026 -1.5445
  1094G12c C01920150  -0.682   8.321   5.434 -2.0170 -0.3448 -0.7697
  1094G12c H00220151  -0.629   8.412   5.406 -6.8674  3.3531  1.2224
  1094G12c H00120152  -0.671   8.301   5.328 -2.5520  1.0063 -1.0928
  1094G12c O00020153  -0.814   8.367   5.485  1.8218 -0.4924  1.0004
  1094G12c C01A20154  -0.910   8.282   5.456  1.6019 -0.1057  1.2636
  1094G12c C02K20155  -0.962   8.276   5.328 -1.4305  0.9520  0.8592
  1094G12c O00G20156  -0.892   8.329   5.224  1.4245 -0.2483 -0.7267
  1094G12c C02M20157  -0.958   8.448   5.178  0.0158  1.5388  0.4990
  1094G12c H01G20158  -0.888   8.469   5.098  1.6795  0.4351  1.6386
  1094G12c H01F20159  -1.045   8.413   5.121 -1.9399  6.9434 -0.0843
  1094G12c H01E20160  -0.969   8.524   5.255 -6.5714 -0.2975  1.7602
  1094G12c C02J20161  -1.100   8.247   5.312 -0.0656 -1.4966  0.6140
  1094G12c H01H20162  -1.153   8.258   5.219 -3.5026  0.7088  2.6651
  1094G12c C02I20163  -1.188   8.219   5.418 -0.3141 -0.5059 -0.6437
  1094G12c C02N20164  -1.334   8.220   5.395 -0.6527 -0.7280 -1.0627
  1094G12c H01M20165  -1.381   8.155   5.322  1.0271 -3.0102 -0.1860
  1094G12c C02O20166  -1.396   8.321   5.442  1.1640 -1.4035 -0.6349
  1094G12c H01L20167  -1.347   8.376   5.521 -2.4634 -3.3207  3.1121
  1094G12c C02P20168  -1.546   8.359   5.390 -1.5833  1.3998 -0.2068
  1094G12c H01K20169  -1.565   8.444   5.325  0.8454  2.6450  0.6448
  1094G12c H01J20170  -1.590   8.261   5.374  3.5904 -1.1778  0.1438
  1094G12c O00H20171  -1.583   8.409   5.512 -1.2217  0.5972 -1.0574
  1094G12c H01I20172  -1.672   8.439   5.511  0.0890  5.0113 -3.4362
  1094G12c C02H20173  -1.126   8.232   5.540 -0.3574  0.8493  0.1407
  1094G12c H01C20174  -1.169   8.212   5.637  5.8951 -2.7089  2.5289
  1094G12c C02L20175  -0.990   8.269   5.563  0.6530 -1.6303 -0.3856
  1094G12c H01D20176  -0.969   8.293   5.666  2.0713  3.0798 -1.6484
  1094G12c C01320177  -0.379   8.238   5.793 -0.9247  0.8888 -0.9308
  1094G12c H00020178  -0.359   8.335   5.751  4.3206  4.7968  8.9970
  1094G12c C01420179  -0.292   8.179   5.879  0.9703  0.2124  0.2426
  1094G12c C00F20180  -0.178   8.231   5.920 -0.7733 -1.0776 -1.0981
  1094G12c C00H20181  -0.196   8.100   6.124 -1.6016 -0.0193 -0.3493
  1094G12c C00I20182  -0.150   8.066   6.238 -0.5151  1.2044  0.2395
  1094G12c C00J20183  -0.223   7.960   6.308 -1.2213  2.1321 -0.5079
  1094G12c C00Z20184  -0.488   7.878   5.960  0.0237 -0.6521  0.3827
  1094G12c C00Y20185  -0.592   7.791   5.904  0.3075 -0.1549 -0.8129
  1094G12c H00620186  -0.658   7.794   5.818  2.6702 -2.7294 -2.7998
  1094G12c C00X20187  -0.628   7.670   5.954 -0.4290 -1.1495  0.5047
  1094G12c O00320188  -0.743   7.607   5.904  0.3877 -0.3379 -0.9921
  1094G12c C01B20189  -0.755   7.471   5.897  1.8099 -0.5335 -0.0792
  1094G12c H00920190  -0.751   7.410   5.987  3.0155 -4.8274 -2.9187
  1094G12c H00820191  -0.670   7.435   5.840  2.8421 -2.6407  2.6515
  1094G12c H00720192  -0.840   7.453   5.831  2.2336 -0.6033 -0.6024
  1094G12c C00W20193  -0.558   7.616   6.073 -0.7692 -0.6025 -0.5574
  1094G12c O00420194  -0.511   7.479   6.064 -0.4681 -0.6096 -0.5680
  1094G12c C01C20195  -0.508   7.459   6.200  2.0248  0.8955  0.1017
  1094G12c H00A20196  -0.577   7.390   6.247  0.3751  3.3079  1.3410
  1094G12c C00P20197  -0.421   7.535   6.285 -1.3548 -0.4477 -0.5244
  1094G12c C00O20198  -0.334   7.472   6.384  1.5509 -0.9313 -0.1369
  1094G12c C01D20199  -0.352   7.329   6.412  0.7886  0.8960  0.8571
  1094G12c H00S20200  -0.412   7.289   6.331  6.5635 -2.9150 -1.8659
  1094G12c C01E20201  -0.260   7.259   6.491 -1.0699  0.2154  0.3891
  1094G12c O00820202  -0.281   7.129   6.490 -0.0297  0.6706  1.5690
  1094G12c C01V20203  -0.411   7.087   6.513 -2.0705  0.1990 -0.3392
  1094G12c C01Z20204  -0.500   7.162   6.626 -0.7213 -0.4121 -0.0318
  1094G12c H00R20205  -0.440   7.195   6.711  0.6334 -3.9363  0.4284
  1094G12c H00Q20206  -0.542   7.263   6.619 -1.7225 -0.9650 -2.5046
  1094G12c O00920207  -0.624   7.115   6.671  0.4400 -1.0229 -0.4884
  1094G12c H00P20208  -0.624   7.067   6.753 -1.6423  0.9892  0.7674
  1094G12c C01W20209  -0.454   6.976   6.458  0.6504  0.3760  0.3148
  1094G12c H00O20210  -0.372   6.936   6.401 -0.0782 -1.9502  0.8566
  1094G12c C01X20211  -0.578   6.895   6.472 -0.4311  0.9276  0.3759
  1094G12c H00N20212  -0.597   6.820   6.549 -1.9280 -0.3700 -1.2149
  1094G12c H00M20213  -0.662   6.959   6.500 -1.3706  0.1727 -0.6797
  1094G12c C01Y20214  -0.626   6.899   6.323 -0.8545  0.7582 -0.0366
  1094G12c C02D20215  -0.679   7.021   6.291  1.5126  0.3925 -0.0822
  1094G12c H01920216  -0.704   7.109   6.347  0.0685 -2.6444  4.3007
  1094G12c C02C20217  -0.730   7.018   6.157  0.6937  0.3170 -0.4694
  1094G12c H01A20218  -0.756   7.116   6.121 -1.8843  0.0541  0.5840
  1094G12c C02B20219  -0.760   6.890   6.089 -0.9956  1.2189 -0.2929
  1094G12c O00E20220  -0.810   6.891   5.954 -0.5673  0.8943 -0.6573
  1094G12c H01B20221  -0.812   6.813   5.901  6.3309  3.2155 -4.8731
  1094G12c C02F20222  -0.712   6.772   6.134 -1.1572  0.0819 -1.1894
  1094G12c O00F20223  -0.724   6.660   6.054  1.0931 -0.0725 -0.8213
  1094G12c C02G20224  -0.667   6.538   6.098 -0.7162  0.9172  0.1899
  1094G12c H01720225  -0.563   6.531   6.130 -0.8995 -3.8968  0.1814
  1094G12c H01620226  -0.734   6.487   6.167  2.3858 -0.1625  2.5035
  1094G12c H01520227  -0.692   6.499   5.999 -5.4601  1.9751  0.8689
  1094G12c C02E20228  -0.642   6.775   6.246 -1.4734  0.4609  0.4875
  1094G12c H01820229  -0.595   6.686   6.285 -6.3129 -3.5217 -2.2593
  1094G12c C01F20230  -0.163   7.339   6.565  0.1541 -0.6542  0.2884
  1094G12c C01G20231  -0.020   7.294   6.609  1.1254  0.1387  1.8397
  1094G12c H00L20232  -0.016   7.186   6.603  1.2272 -0.0472  4.4638
  1094G12c C01H20233   0.088   7.374   6.612  0.2948  0.5483  0.1740
  1094G12c H00B20234   0.175   7.313   6.591  4.4745  5.4534  2.2429
  1094G12c C01I20235   0.070   7.504   6.625  0.9712 -1.2652 -0.3848
  1094G12c C01U20236  -0.164   7.480   6.553  0.4241 -1.4960  0.5046
  1094G12c C00S20237  -0.317   7.898   6.248 -2.2539 -2.3084  0.5265
  1094G12c C00K20238  -0.160   7.892   6.412  1.6357 -0.4771 -0.9322
  1094G12c C00N20239  -0.246   7.550   6.470  1.4029  0.8259 -0.0032
  1094G12c C00020240  -0.065   7.548   6.630 -1.1539  0.1155 -2.6191
  1094G12c C01J20241   0.133   7.612   6.577  0.4392 -1.3521  0.0099
  1094G12c C01K20242   0.272   7.631   6.556 -2.5207 -0.6508  0.3565
  1094G12c C01P20243   0.383   7.569   6.606  1.9686  0.2815 -0.6533
  1094G12c C01Q20244   0.351   7.501   6.716  2.5296  1.0494 -1.3465
  1094G12c H00G20245   0.266   7.506   6.783 -5.1945  3.1850-10.2885
  1094G12c C01R20246   0.402   7.376   6.703 -0.6678 -0.3893  0.6396
  1094G12c H00F20247   0.450   7.349   6.610  0.1879 -2.8944  1.7607
  1094G12c C01S20248   0.376   7.271   6.824 -0.2714  0.9522  0.0729
  1094G12c H00E20249   0.392   7.167   6.794  4.2843  0.8721  2.3836
  1094G12c H00D20250   0.430   7.295   6.915 -2.5269 -0.6163  1.9219
  1094G12c O00520251   0.235   7.278   6.824 -0.4704 -0.5356 -0.1110
  1094G12c H00C20252   0.216   7.366   6.852  5.1914  1.3567 -1.5188
  1094G12c C01O20253   0.501   7.593   6.543 -0.6028  0.8448 -0.0810
  1094G12c H00H20254   0.575   7.550   6.609 -1.9861 -3.8115 -1.3758
  1094G12c C01N20255   0.535   7.672   6.437 -1.1425 -0.3579  1.4454
  1094G12c O00620256   0.670   7.684   6.407  0.8041 -0.4040  0.2276
  1094G12c C01T20257   0.717   7.779   6.315 -0.7077  1.6776  1.0784
  1094G12c H00K20258   0.650   7.823   6.241  0.9321  3.8389  0.8449
  1094G12c H00J20259   0.750   7.865   6.373  1.4893  4.3230 -3.7952
  1094G12c H00I20260   0.803   7.763   6.251 -1.4483  1.1456  0.2123
  1094G12c C01M20261   0.420   7.740   6.377 -0.9375  0.2731 -0.1980
  1094G12c C02020262  -0.022   7.924   6.428 -2.3620 -0.2089  0.7729
  1094G12c C02120263   0.039   8.049   6.378  1.0642 -0.9776 -0.4900
  1094G12c C01L20264   0.298   7.733   6.456  1.2567  0.9253  1.4829
  1094G12c O00720265   0.455   7.846   6.299  0.9313 -0.8602 -0.0015
  1094G12c C02220266   0.164   8.054   6.336 -0.0704 -0.3106 -3.0629
  1094G12c C02320267  -0.030   8.136   6.282 -1.1742 -0.7693 -0.4887
  1094G12c C00G20268  -0.118   8.196   6.041 -0.8782  0.8748 -0.6105
  1094G12c C00E20269  -0.102   8.303   5.830  0.7487 -1.4330  0.3306
  1094G12c O00A20270  -0.130   8.315   5.694 -0.3436  0.3213 -1.0747
  1094G12c C02420271  -0.121   8.199   5.622  0.4628  1.8617 -1.6014
  1094G12c H00V20272  -0.065   8.139   5.692 -4.5988  0.4943  1.5422
  1094G12c H00U20273  -0.061   8.182   5.533  3.8483  2.8276  0.4393
  1094G12c H00T20274  -0.215   8.151   5.593  1.9353 -2.3248  0.2088
  1104G12c C00D20275   5.173  11.371   7.399 -0.8849 -0.6142 -0.2240
  1104G12c O00B20276   5.189  11.361   7.271  0.0590  1.5072  0.2032
  1104G12c C02520277   5.241  11.245   7.200  0.0889  1.6252 -0.0088
  1104G12c C02620278   5.301  11.273   7.074 -0.8787 -0.2364 -0.8189
  1104G12c H00Y20279   5.353  11.185   7.036  1.4590  2.5874 -4.4323
  1104G12c H00X20280   5.376  11.348   7.097 -0.7037 -1.7561  4.2303
  1104G12c O00C20281   5.237  11.324   6.971  0.3352 -0.3455  1.8722
  1104G12c H00W20282   5.189  11.398   7.003 -2.6495 -1.9118  1.1925
  1104G12c C02720283   5.201  11.125   7.252 -0.3548 -0.1879 -0.5440
  1104G12c O00D20284   5.123  11.104   7.368  0.1785  1.2152  0.1619
  1104G12c H00Z20285   5.164  11.047   7.431  2.0551  2.4644  0.1091
  1104G12c C02820286   5.239  11.004   7.197 -1.1597  0.1518  0.2211
  1104G12c C02920287   5.143  10.901   7.146  1.0950 -0.8395 -0.0405
  1104G12c H01020288   5.036  10.915   7.147  1.0117 -0.7868 -3.1433
  1104G12c C02T20289   5.185  10.757   7.137  0.6873 -2.6832  0.1206
  1104G12c H01O20290   5.118  10.688   7.088  1.2984 -1.1470 -3.0306
  1104G12c C02S20291   5.318  10.724   7.149 -1.0157  0.3043  0.0904
  1104G12c O00J20292   5.349  10.594   7.128 -1.1250 -0.4586  0.7573
  1104G12c H01P20293   5.443  10.583   7.136 -0.2666  5.3491  0.9117
  1104G12c C02R20294   5.416  10.822   7.201 -0.5856  1.5092  1.1938
  1104G12c O00I20295   5.538  10.786   7.234 -0.5644  0.1629  0.9632
  1104G12c C02Q20296   5.646  10.878   7.229  1.6486  0.6711 -0.1586
  1104G12c H01N20297   5.711  10.843   7.149 -5.5988 -6.4929 -3.6379
  1104G12c H01R20298   5.699  10.890   7.324  0.4756  0.3595  0.5487
  1104G12c H01Q20299   5.608  10.980   7.220  4.9690  2.1100  1.5130
  1104G12c C02A20300   5.370  10.949   7.233  0.3214 -0.0013 -1.4258
  1104G12c H01120301   5.429  11.002   7.306 -4.5980  1.5079  1.7072
  1104G12c C00C20302   5.037  11.369   7.447 -1.1280 -0.3031 -0.1221
  1104G12c H01220303   4.954  11.362   7.379 -0.2869  4.5145 -1.8317
  1104G12c C00B20304   5.005  11.338   7.584 -2.0055  0.6539  2.1071
  1104G12c C00A20305   4.873  11.302   7.637 -1.3923 -0.3887 -0.3352
  1104G12c C00920306   4.757  11.374   7.619 -1.0926  1.1135  0.7172
  1104G12c C00820307   4.743  11.483   7.542 -0.2337 -0.9876  0.3372
  1104G12c H01320308   4.786  11.538   7.459 -2.3598  2.8246  1.6405
  1104G12c C00720309   4.650  11.570   7.589  0.1447 -0.6989  1.7961
  1104G12c H01420310   4.643  11.666   7.540  1.6386 -1.3475  0.2489
  1104G12c C00620311   4.572  11.557   7.723  0.0217  0.3744  0.1520
  1104G12c C00520312   4.606  11.458   7.799  1.0319  1.6405  0.1205
  1104G12c C00420313   4.555  11.444   7.936 -0.8334 -0.4208  0.9972
  1104G12c C00320314   4.612  11.340   8.006 -0.7182 -0.4213  0.8509
  1104G12c C00220315   4.581  11.345   8.140 -0.7214 -1.1577 -0.3256
  1104G12c C00120316   4.634  11.282   8.264  0.8501 -0.0029  0.3510
  1104G12c C00M20317   4.765  11.244   8.296 -1.6820  0.2146  0.0392
  1104G12c C00L20318   4.851  11.196   8.194  1.2121  0.2211  0.3689
  1104G12c C00R20319   4.995  11.217   8.207  0.9114 -1.0293 -0.0103
  1104G12c C00Q20320   5.075  11.238   8.321  1.7555 -0.0472 -0.3169
  1104G12c C00V20321   5.220  11.264   8.279 -0.7062 -0.7169  1.9870
  1104G12c C00U20322   5.254  11.300   8.148  0.6963  1.0907 -0.0829
  1104G12c C00T20323   5.176  11.272   8.037 -0.4457 -0.7026 -0.6561
  1104G12c C01620324   5.185  11.318   7.908  0.8015 -0.1994 -0.9474
  1104G12c C01520325   5.305  11.378   7.885  1.4239 -0.3995  0.5116
  1104G12c C01020326   5.412  11.362   7.973  0.2313 -0.3763 -2.2549
  1104G12c C01120327   5.544  11.405   7.948  0.0634  0.8415  1.2436
  1104G12c H00520328   5.632  11.407   8.011  1.1086  2.9194 -0.1819
  1104G12c C01220329   5.568  11.447   7.820  0.0754 -0.7288  0.7513
  1104G12c C01720330   5.704  11.494   7.789  0.4728 -1.1148  1.4873
  1104G12c O00220331   5.811  11.406   7.769  0.3539  0.1618  1.0795
  1104G12c H00420332   5.880  11.470   7.776 -5.0590  6.1192  4.7445
  1104G12c C01820333   5.733  11.629   7.777  0.5735  0.1855  0.4521
  1104G12c O00120334   5.642  11.726   7.798 -0.0075 -1.2132  0.3707
  1104G12c H00320335   5.555  11.691   7.803 -2.6758  4.8530  0.3102
  1104G12c C01920336   5.876  11.668   7.757 -1.4480  0.0809 -0.0882
  1104G12c H00220337   5.937  11.660   7.846 -0.0404  2.0938 -0.8278
  1104G12c H00120338   5.916  11.595   7.686  3.6569  1.0869  1.5851
  1104G12c O00020339   5.891  11.801   7.716 -1.4439  1.1724 -0.1940
  1104G12c C01A20340   5.844  11.828   7.589 -0.2100 -1.1032 -1.6341
  1104G12c C02K20341   5.953  11.852   7.505 -0.5404 -0.5685  0.2311
  1104G12c O00G20342   6.086  11.821   7.530  0.4480 -0.1380 -0.9387
  1104G12c C02M20343   6.172  11.788   7.421 -2.3494  0.3187 -1.4677
  1104G12c H01G20344   6.115  11.724   7.353  0.6081 -1.1727 -2.6213
  1104G12c H01F20345   6.271  11.753   7.453 -1.8540 -0.2115 -3.5147
  1104G12c H01E20346   6.199  11.889   7.393  3.6560 -1.2796 -2.1007
  1104G12c C02J20347   5.928  11.969   7.405 -0.5834  0.7610 -0.0300
  1104G12c H01H20348   6.006  12.033   7.366  1.2615  0.5529  3.1803
  1104G12c C02I20349   5.795  12.009   7.382 -0.1784  1.5676 -0.7343
  1104G12c C02N20350   5.781  12.064   7.254  0.1339  0.2366 -0.1750
  1104G12c H01M20351   5.854  12.143   7.246 -0.4281  0.9138  1.2637
  1104G12c C02O20352   5.719  11.990   7.165  0.9969 -1.6070  0.0123
  1104G12c H01L20353   5.688  11.891   7.195  3.6779 -1.3067  4.2713
  1104G12c C02P20354   5.750  12.010   7.021  0.0624  0.9765 -0.2055
  1104G12c H01K20355   5.804  11.923   6.984 -0.1432 -1.2527  4.3126
  1104G12c H01J20356   5.658  12.003   6.963 -0.1199  1.8694 -0.0426
  1104G12c O00H20357   5.803  12.140   6.978 -0.0942 -0.9204  0.3669
  1104G12c H01I20358   5.876  12.129   6.919  0.8611  3.0825  0.6464
  1104G12c C02H20359   5.686  11.975   7.450 -0.7829 -1.2567 -1.7657
  1104G12c H01C20360   5.593  12.019   7.419 -0.3204  0.3348 -0.9261
  1104G12c C02L20361   5.714  11.901   7.565 -1.6855 -1.2353 -0.5960
  1104G12c H01D20362   5.649  11.914   7.651  5.7123 -3.6842  6.0420
  1104G12c C01320363   5.467  11.448   7.720  0.0913  1.3589  1.1263
  1104G12c H00020364   5.494  11.483   7.622  1.4229 -2.3778  0.0990
  1104G12c C01420365   5.343  11.396   7.740  0.2521 -1.2295 -0.7817
  1104G12c C00F20366   5.237  11.369   7.637 -0.3982 -0.2988  0.3239
  1104G12c C00H20367   5.083  11.306   7.810 -0.8772  1.0543  0.5033
  1104G12c C00I20368   4.962  11.220   7.847 -0.8704  0.8980  1.6728
  1104G12c C00J20369   4.948  11.193   7.989 -1.0036  0.6446 -2.0750
  1104G12c C00Z20370   5.386  11.314   8.105  0.2121 -1.2493 -2.0385
  1104G12c C00Y20371   5.491  11.283   8.195  1.4703 -0.6732 -0.9356
  1104G12c H00620372   5.596  11.283   8.169  0.8469 -1.6213 -3.6436
  1104G12c C00X20373   5.463  11.273   8.334  0.0109  2.1426 -1.5577
  1104G12c O00320374   5.558  11.251   8.431 -0.0335  0.8982  0.3612
  1104G12c C01B20375   5.565  11.318   8.553  0.3975  0.9252 -0.9425
  1104G12c H00920376   5.672  11.342   8.555 -0.0237  3.1724 -3.2363
  1104G12c H00820377   5.535  11.275   8.648  2.8818 -1.1416 -1.0219
  1104G12c H00720378   5.530  11.420   8.571  1.9828  1.2495  0.4715
  1104G12c C00W20379   5.325  11.270   8.382 -0.3175  1.1002  0.5022
  1104G12c O00420380   5.295  11.253   8.511 -0.3231 -1.3436 -0.2817
  1104G12c C01C20381   5.159  11.303   8.526 -1.2378  0.1471  0.3569
  1104G12c H00A20382   5.160  11.386   8.594 -1.9692 -0.6474  1.3566
  1104G12c C00P20383   5.045  11.273   8.450 -0.7254  0.3537  1.7111
  1104G12c C00O20384   4.923  11.307   8.499 -1.3600 -1.9557  0.6193
  1104G12c C01D20385   4.896  11.396   8.620 -0.3258  1.4254  1.8701
  1104G12c H00S20386   4.982  11.384   8.683  3.6635  0.2361 -3.4687
  1104G12c C01E20387   4.782  11.482   8.647 -0.1675  0.2239  0.3361
  1104G12c O00820388   4.765  11.571   8.745  0.7626  1.9619 -1.1588
  1104G12c C01V20389   4.842  11.568   8.862  1.2887  0.2533 -0.8700
  1104G12c C01Z20390   4.812  11.471   8.977 -1.9684 -0.4265  0.1377
  1104G12c H00R20391   4.872  11.380   8.974 -0.1482  0.7986 -2.6782
  1104G12c H00Q20392   4.858  11.534   9.053 -1.7781  0.4464 -0.6862
  1104G12c O00920393   4.681  11.454   9.034 -0.1752  0.4515 -0.2510
  1104G12c H00P20394   4.606  11.462   8.976  0.8555  0.0965 -1.6611
  1104G12c C01W20395   4.938  11.663   8.863  0.0813  0.0710 -0.8995
  1104G12c H00O20396   4.989  11.677   8.957  1.3608  2.1377 -1.8645
  1104G12c C01X20397   4.990  11.767   8.781 -0.4108 -0.8026 -0.1417
  1104G12c H00N20398   4.926  11.751   8.694 -0.1481 -0.4042 -0.4103
  1104G12c H00M20399   4.969  11.860   8.834 -1.0745  2.4270 -5.6702
  1104G12c C01Y20400   5.126  11.726   8.733 -0.6256 -0.6568 -1.2552
  1104G12c C02D20401   5.228  11.710   8.835 -0.3166 -0.4229 -1.3685
  1104G12c H01920402   5.202  11.707   8.940  5.3898 -0.1872  0.1983
  1104G12c C02C20403   5.369  11.721   8.805  0.7240  0.7302  1.2629
  1104G12c H01A20404   5.436  11.686   8.882  5.8858 -7.1102 -5.9861
  1104G12c C02B20405   5.407  11.720   8.669  0.1669 -0.1555  1.2800
  1104G12c O00E20406   5.529  11.699   8.618  0.4153  0.9549 -0.6860
  1104G12c H01B20407   5.538  11.773   8.560  0.0915  1.1255 -0.5206
  1104G12c C02F20408   5.301  11.753   8.579  1.5097 -1.0373 -1.2544
  1104G12c O00F20409   5.351  11.796   8.460  1.3334 -0.6154 -1.3685
  1104G12c C02G20410   5.283  11.749   8.336  0.6500  0.1855  0.6747
  1104G12c H01720411   5.176  11.764   8.323  0.5415  2.2709  3.5528
  1104G12c H01620412   5.321  11.652   8.302 -4.4963 -0.2691 -4.4747
  1104G12c H01520413   5.303  11.775   8.232 -2.6239  0.8718  0.1524
  1104G12c C02E20414   5.171  11.768   8.615 -0.0174 -0.2312  1.8278
  1104G12c H01820415   5.097  11.793   8.541  1.3082 -1.8537 -0.0928
  1104G12c C01F20416   4.689  11.483   8.555 -0.0136 -0.0374 -0.1436
  1104G12c C01G20417   4.571  11.570   8.558  1.6314 -0.1092 -0.4508
  1104G12c H00L20418   4.563  11.654   8.625 -0.4820  0.3989 -1.2960
  1104G12c C01H20419   4.487  11.575   8.432 -0.3622  0.0788  0.8481
  1104G12c H00B20420   4.443  11.672   8.446  3.2672  2.5534 -3.5422
  1104G12c C01I20421   4.498  11.464   8.333 -1.4188  0.8258  1.1104
  1104G12c C01U20422   4.704  11.389   8.453  0.4914 -1.5198 -0.0240
  1104G12c C00S20423   5.060  11.204   8.079  0.1183  1.9194 -1.5595
  1104G12c C00K20424   4.812  11.204   8.055  0.6591  1.4069 -0.1000
  1104G12c C00N20425   4.813  11.301   8.418 -0.2947 -0.4770  0.3527
  1104G12c C00020426   4.597  11.372   8.361  1.8111 -0.6084  1.0939
  1104G12c C01J20427   4.481  11.433   8.189 -0.0449 -0.3653 -1.8938
  1104G12c C01K20428   4.411  11.525   8.109  0.1563 -0.0915  0.7654
  1104G12c C01P20429   4.294  11.606   8.157 -1.0827  0.4519  0.6725
  1104G12c C01Q20430   4.217  11.565   8.281 -0.1211 -0.6119  1.4311
  1104G12c H00G20431   4.209  11.458   8.296 -0.6922 -1.8111 -5.6022
  1104G12c C01R20432   4.109  11.640   8.323 -0.5301  1.7679  0.1225
  1104G12c H00F20433   4.093  11.743   8.297 -0.6023  0.4716 -5.4018
  1104G12c C01S20434   4.003  11.582   8.398 -0.2276  2.0388 -0.6576
  1104G12c H00E20435   3.960  11.493   8.352 -0.7253  1.1766  1.4063
  1104G12c H00D20436   4.055  11.589   8.494  0.7170  6.0761 -1.3841
  1104G12c O00520437   3.877  11.645   8.383 -1.0164 -0.8872  0.8133
  1104G12c H00C20438   3.850  11.663   8.472 -3.7335  2.3925 -0.5782
  1104G12c C01O20439   4.251  11.698   8.067 -1.5433 -1.3995 -0.2395
  1104G12c H00H20440   4.155  11.740   8.092  1.5953  5.1560  2.1615
  1104G12c C01N20441   4.296  11.717   7.931  0.3276  1.5027  0.7351
  1104G12c O00620442   4.229  11.805   7.855  0.0595  0.2524 -0.1467
  1104G12c C01T20443   4.091  11.789   7.818  0.5232  1.2815  0.4017
  1104G12c H00K20444   4.061  11.702   7.759 -2.3834  0.4393  2.9957
  1104G12c H00J20445   4.095  11.874   7.750 -3.4101  4.4174  3.7857
  1104G12c H00I20446   4.045  11.795   7.917  2.5181 -1.2854  1.5518
  1104G12c C01M20447   4.402  11.621   7.881  1.6947 -1.1166 -0.1746
  1104G12c C02020448   4.707  11.258   7.955  0.6299  0.7160 -0.2410
  1104G12c C02120449   4.738  11.244   7.813  0.4318 -0.1221 -1.7721
  1104G12c C01L20450   4.472  11.539   7.983  0.1200  0.8229 -1.8244
  1104G12c O00720451   4.467  11.651   7.759  2.8359  0.0805  0.0230
  1104G12c C02220452   4.691  11.360   7.750 -0.7975  3.2695  0.0799
  1104G12c C02320453   4.860  11.215   7.750 -0.3572 -0.3673  1.1716
  1104G12c C00G20454   5.105  11.347   7.674 -2.5059  2.1666  0.8462
  1104G12c C00E20455   5.276  11.368   7.492  0.1883 -1.4332 -2.0478
  1104G12c O00A20456   5.404  11.372   7.442 -1.0454  1.0536  0.2770
  1104G12c C02420457   5.473  11.474   7.375 -1.5241  0.6675  2.1356
  1104G12c H00V20458   5.580  11.457   7.382 -0.6694  3.0389 -3.1352
  1104G12c H00U20459   5.437  11.562   7.428  4.9756  2.2546  4.4453
  1104G12c H00T20460   5.453  11.469   7.268 -2.0984 -0.2342  2.2815
  1114G12c C00D20461  11.852   5.086  10.943  1.2458  1.7243 -0.0516
  1114G12c O00B20462  11.744   5.059  10.851 -0.2558 -1.1874  0.8801
  1114G12c C02520463  11.655   5.163  10.815 -0.1902 -1.4229  0.5799
  1114G12c C02620464  11.692   5.240  10.680  0.0604 -0.7452 -1.0310
  1114G12c H00Y20465  11.605   5.301  10.656 -3.1035 -4.3944  0.5656
  1114G12c H00X20466  11.713   5.172  10.597  1.9780 -1.9991  0.4508
  1114G12c O00C20467  11.827   5.308  10.678  0.6298  0.9057  0.8351
  1114G12c H00W20468  11.879   5.230  10.689  2.1746  0.8042 -5.3927
  1114G12c C02720469  11.548   5.179  10.893 -1.1088 -1.5138 -0.8331
  1114G12c O00D20470  11.528   5.093  11.005  0.6917 -0.6154  0.1605
  1114G12c H00Z20471  11.462   5.139  11.055 -3.6952 -1.7617 -4.1122
  1114G12c C02820472  11.460   5.295  10.875 -1.1736 -2.0538  1.3188
  1114G12c C02920473  11.322   5.293  10.846  1.0874 -0.2295  0.1670
  1114G12c H01020474  11.315   5.195  10.800  0.0005  3.5376 -8.7045
  1114G12c C02T20475  11.241   5.403  10.871  0.7180 -1.1061  0.0180
  1114G12c H01O20476  11.138   5.403  10.841  0.9486 -1.5323 -0.7762
  1114G12c C02S20477  11.309   5.534  10.897  1.1507  0.4030 -0.7016
  1114G12c O00J20478  11.258   5.653  10.918 -1.1487  0.8527 -0.0225
  1114G12c H01P20479  11.333   5.708  10.902  4.2369 -6.4537 -2.0719
  1114G12c C02R20480  11.458   5.550  10.890  0.3284  0.1882  0.4339
  1114G12c O00I20481  11.502   5.672  10.911  0.0342 -0.2631 -0.9221
  1114G12c C02Q20482  11.482   5.740  11.030  0.0856  0.3961  0.2287
  1114G12c H01N20483  11.569   5.796  11.066  2.1668 -0.2804 -3.4284
  1114G12c H01R20484  11.441   5.682  11.112 -2.2852  3.6511  1.4657
  1114G12c H01Q20485  11.407   5.812  10.999  3.2474  3.4842 -0.6459
  1114G12c C02A20486  11.527   5.428  10.887 -0.1999 -0.5069  0.5152
  1114G12c H01120487  11.630   5.457  10.893 -1.4974  4.0661  3.4293
  1114G12c C00C20488  11.844   5.201  11.028  0.8016  0.3238  0.1092
  1114G12c H01220489  11.814   5.289  10.972  3.6034  5.5489  6.2757
  1114G12c C00B20490  11.858   5.202  11.169 -1.5832 -0.1947 -0.0050
  1114G12c C00A20491  11.857   5.302  11.272  0.9537  1.1924 -0.1337
  1114G12c C00920492  11.904   5.440  11.284  0.1410 -0.3385  0.4946
  1114G12c C00820493  11.953   5.525  11.197 -1.2508  0.5052  0.0971
  1114G12c H01320494  11.954   5.468  11.105  5.4519  2.5945 -1.4287
  1114G12c C00720495  11.984   5.657  11.220 -0.4249 -0.0845 -0.8107
  1114G12c H01420496  12.066   5.715  11.180 -0.7395  1.0342  0.1553
  1114G12c C00620497  11.964   5.708  11.354 -1.1176 -0.2265  0.5275
  1114G12c C00520498  11.927   5.606  11.442 -1.4941 -1.4639 -0.1588
  1114G12c C00420499  11.942   5.607  11.582 -1.7966  0.6957 -2.1564
  1114G12c C00320500  11.947   5.497  11.659  0.3351 -0.3405  0.7393
  1114G12c C00220501  12.000   5.525  11.799  0.1601  0.7598  0.7648
  1114G12c C00120502  12.045   5.426  11.912 -0.2502  0.0979 -0.2454
  1114G12c C00M20503  12.099   5.298  11.901 -0.1029 -0.7858 -1.0841
  1114G12c C00L20504  12.068   5.207  11.796  0.7694  0.0798  0.2152
  1114G12c C00R20505  12.135   5.080  11.741  1.2665 -1.0341  0.9093
  1114G12c C00Q20506  12.256   5.012  11.786 -1.7437 -0.9451  0.5257
  1114G12c C00V20507  12.287   4.916  11.695 -1.1852  1.6125  0.4106
  1114G12c C00U20508  12.248   4.916  11.558 -1.3601 -0.7951 -1.2298
  1114G12c C00T20509  12.139   4.994  11.510 -1.3846  0.1470  0.7505
  1114G12c C01620510  12.088   4.990  11.379  0.7443  0.1711 -2.3552
  1114G12c C01520511  12.142   4.911  11.287  0.8260  0.7043  0.4930
  1114G12c C01020512  12.242   4.821  11.328  1.1615  1.3952  0.3990
  1114G12c C01120513  12.322   4.747  11.222 -0.0508 -0.4493  0.9939
  1114G12c H00520514  12.408   4.692  11.256  2.4844  1.9905 -1.2006
  1114G12c C01220515  12.256   4.721  11.103 -0.0488 -2.0272  0.7156
  1114G12c C01720516  12.302   4.615  11.015  0.1141  0.1601  0.3248
  1114G12c O00220517  12.259   4.493  11.061 -0.5563  0.0376 -0.2192
  1114G12c H00420518  12.283   4.440  11.135 -2.8354  0.9204  1.1793
  1114G12c C01820519  12.388   4.635  10.920 -1.8819 -0.6004  1.4127
  1114G12c O00120520  12.427   4.758  10.863 -1.2901 -1.1205 -0.3976
  1114G12c H00320521  12.497   4.728  10.808  6.8766  4.0223  6.0552
  1114G12c C01920522  12.470   4.518  10.846 -1.7038 -0.3395 -0.4253
  1114G12c H00220523  12.577   4.499  10.841 -2.0557 -1.8088 -6.1915
  1114G12c H00120524  12.446   4.441  10.919 -2.9752 -2.6955 -3.1984
  1114G12c O00020525  12.393   4.443  10.744  0.9237  0.4263 -0.8671
  1114G12c C01A20526  12.403   4.491  10.620  0.1045  0.9368  0.1883
  1114G12c C02K20527  12.516   4.482  10.531 -0.0447 -0.4391 -1.5911
  1114G12c O00G20528  12.622   4.414  10.570 -1.6331  0.8625 -0.5568
  1114G12c C02M20529  12.616   4.272  10.638  1.0025 -0.9770 -0.1021
  1114G12c H01G20530  12.627   4.239  10.741 -4.3805 -3.2599 -0.0850
  1114G12c H01F20531  12.669   4.200  10.575  4.2138  0.3181  0.9836
  1114G12c H01E20532  12.509   4.255  10.627  0.6352  1.6916 -0.8798
  1114G12c C02J20533  12.514   4.558  10.411  0.7518  0.5894  1.0051
  1114G12c H01H20534  12.613   4.563  10.368 -1.0799 -2.4459 -3.9531
  1114G12c C02I20535  12.392   4.607  10.371  0.9551 -1.6739  1.5662
  1114G12c C02N20536  12.382   4.684  10.246  2.6708  0.1380  0.1404
  1114G12c H01M20537  12.325   4.644  10.163  1.2599 -2.8868  2.4472
  1114G12c C02O20538  12.475   4.772  10.230  0.4539 -1.0357 -0.9770
  1114G12c H01L20539  12.550   4.763  10.308 -6.1560 -5.4029  5.5800
  1114G12c C02P20540  12.505   4.843  10.112  1.2291  0.3841  1.6445
  1114G12c H01K20541  12.423   4.872  10.047  1.4082  5.2411  3.3336
  1114G12c H01J20542  12.526   4.938  10.162 -0.1491  2.6874 -1.9397
  1114G12c O00H20543  12.605   4.777  10.039  1.6900  0.4822 -0.3905
  1114G12c H01I20544  12.599   4.786   9.946  0.4416  0.1804 -0.3427
  1114G12c C02H20545  12.291   4.627  10.460 -0.6718 -0.4139  0.5096
  1114G12c H01C20546  12.187   4.646  10.438 -0.5831 -1.1538 -0.5808
  1114G12c C02L20547  12.290   4.559  10.590  1.3964 -0.2924  2.4028
  1114G12c H01D20548  12.217   4.566  10.670  0.8095  2.3226  1.6932
  1114G12c C01320549  12.143   4.808  11.086  1.8679 -0.7171  1.0834
  1114G12c H00020550  12.083   4.785  10.999  5.0782  4.1323 -2.7506
  1114G12c C01420551  12.081   4.893  11.168 -0.8705 -0.9796 -2.0791
  1114G12c C00F20552  11.973   4.979  11.138  0.0395 -0.9587 -0.1358
  1114G12c C00H20553  11.980   5.080  11.357 -0.1650  0.7549 -1.4864
  1114G12c C00I20554  11.934   5.162  11.461  0.2269 -0.5809 -0.9944
  1114G12c C00J20555  11.982   5.141  11.588  1.3261  2.4598 -0.7223
  1114G12c C00Z20556  12.283   4.814  11.460 -1.8779 -1.0092  0.2012
  1114G12c C00Y20557  12.376   4.717  11.517 -0.1931 -0.0803 -1.7335
  1114G12c H00620558  12.433   4.666  11.440  0.3133 -0.1205 -1.3352
  1114G12c C00X20559  12.431   4.720  11.642  0.6615  0.5697 -1.1104
  1114G12c O00320560  12.535   4.633  11.668  1.3404 -1.9719 -2.4249
  1114G12c C01B20561  12.670   4.656  11.612  1.4168  1.0696 -0.7272
  1114G12c H00920562  12.731   4.671  11.701 -0.7309  5.8120  0.1523
  1114G12c H00820563  12.677   4.725  11.528  5.5404  1.3251 -0.2386
  1114G12c H00720564  12.705   4.560  11.575 -0.2045 -2.1323  5.3957
  1114G12c C00W20565  12.386   4.823  11.727 -0.0537 -1.5819 -0.2541
  1114G12c O00420566  12.440   4.838  11.857  0.1927 -2.0774  0.7966
  1114G12c C01C20567  12.422   4.936  11.937  0.3810  1.3741 -1.3249
  1114G12c H00A20568  12.428   4.914  12.043 -0.4036  4.7493 -0.4945
  1114G12c C00P20569  12.328   5.043  11.902 -0.2524  2.5844  0.1317
  1114G12c C00O20570  12.325   5.177  11.975 -0.8109 -1.1727 -0.4191
  1114G12c C01D20571  12.432   5.203  12.052  1.1406 -0.6071 -2.7516
  1114G12c H00S20572  12.506   5.135  12.092 -3.1926 -3.5200  0.8978
  1114G12c C01E20573  12.464   5.344  12.091 -2.1262 -0.2088 -0.2268
  1114G12c O00820574  12.589   5.374  12.144  0.9265  1.1558 -1.2807
  1114G12c C01V20575  12.620   5.300  12.267  1.0635 -1.1492  0.7217
  1114G12c C01Z20576  12.742   5.220  12.244  1.3173 -0.4063  0.0299
  1114G12c H00R20577  12.722   5.170  12.149 -2.2181 -2.4015  1.7116
  1114G12c H00Q20578  12.807   5.306  12.259 -1.9796  1.6765  3.2294
  1114G12c O00920579  12.760   5.129  12.352 -0.3735  0.7608 -1.1435
  1114G12c H00P20580  12.803   5.191  12.409  8.7668 -0.1359 -6.1796
  1114G12c C01W20581  12.532   5.323  12.371  0.6038  0.4030 -0.7546
  1114G12c H00O20582  12.529   5.257  12.456  0.4491  2.4754  0.9078
  1114G12c C01X20583  12.413   5.418  12.389 -1.4480  0.3701 -0.3508
  1114G12c H00N20584  12.379   5.461  12.294 -1.3042 -0.7249 -0.9121
  1114G12c H00M20585  12.330   5.372  12.442  2.4634 -1.2258  4.7154
  1114G12c C01Y20586  12.456   5.543  12.460 -0.3746  0.0014 -0.1557
  1114G12c C02D20587  12.502   5.535  12.586 -0.8077  0.3124  0.4654
  1114G12c H01920588  12.507   5.439  12.634 -0.7394 -0.5096 -1.1261
  1114G12c C02C20589  12.567   5.654  12.657  0.0715 -0.7750 -0.4380
  1114G12c H01A20590  12.612   5.659  12.755  2.9559 -3.2135 -1.5607
  1114G12c C02B20591  12.549   5.767  12.579  0.1964  0.1202 -0.9327
  1114G12c O00E20592  12.615   5.878  12.591  0.3820 -0.4445 -0.9046
  1114G12c H01B20593  12.571   5.944  12.540  3.0645  0.2998 -2.3199
  1114G12c C02F20594  12.476   5.788  12.464  1.4926  0.1038  1.5444
  1114G12c O00F20595  12.446   5.915  12.434 -1.0851  0.5562 -0.7244
  1114G12c C02G20596  12.455   5.950  12.293  1.4735 -1.4893  0.0592
  1114G12c H01720597  12.375   6.009  12.247  2.5461  0.0928  0.1716
  1114G12c H01620598  12.523   5.901  12.223  4.4487  4.6264 -1.6883
  1114G12c H01520599  12.509   6.036  12.333 -3.2149  3.1521 -3.0125
  1114G12c C02E20600  12.415   5.670  12.405 -0.8416 -0.2684 -0.6500
  1114G12c H01820601  12.353   5.680  12.317  1.9735 -5.3052 -3.4032
  1114G12c C01F20602  12.378   5.440  12.031 -0.2987  0.5551 -0.0933
  1114G12c C01G20603  12.414   5.567  11.981 -0.8607  0.0371  1.3846
  1114G12c H00L20604  12.512   5.611  11.980  0.1944 -2.2625  0.4228
  1114G12c C01H20605  12.309   5.650  11.928 -0.2973  2.2836  0.4613
  1114G12c H00B20606  12.348   5.720  11.857 -4.1273  1.3417 -2.7146
  1114G12c C01I20607  12.173   5.607  11.932 -0.0984 -0.1698  0.3498
  1114G12c C01U20608  12.241   5.402  12.014 -0.1810  2.0712 -0.0934
  1114G12c C00S20609  12.069   5.036  11.625  1.6621  0.4155  0.5654
  1114G12c C00K20610  11.986   5.251  11.681  0.0859 -0.1698 -2.5562
  1114G12c C00N20611  12.210   5.275  11.979  1.8621  0.5112 -0.6146
  1114G12c C00020612  12.136   5.487  11.994 -0.0740  0.1258 -1.7702
  1114G12c C01J20613  12.074   5.641  11.834 -0.0510  0.6011  0.8734
  1114G12c C01K20614  12.059   5.758  11.759  1.9112  0.6662  1.7130
  1114G12c C01P20615  12.030   5.886  11.806  0.5479  1.9365 -0.7636
  1114G12c C01Q20616  12.028   5.929  11.944  2.1232 -1.4180  0.3651
  1114G12c H00G20617  12.061   6.031  11.958 -6.3931  1.9317 -0.6749
  1114G12c C01R20618  11.971   5.841  12.022  0.5609  0.1381  0.5112
  1114G12c H00F20619  11.907   5.758  11.998  3.4309 -2.7296  2.3389
  1114G12c C01S20620  11.930   5.871  12.163 -1.2506 -0.3843 -0.3870
  1114G12c H00E20621  11.973   5.814  12.245 -5.2238  1.1393  2.8949
  1114G12c H00D20622  11.959   5.962  12.216 -6.9025  3.3971 -3.2676
  1114G12c O00520623  11.791   5.899  12.199  3.3284 -0.5361  0.5362
  1114G12c H00C20624  11.736   5.898  12.123  2.4017  3.9008  1.0249
  1114G12c C01O20625  12.056   5.979  11.718  0.6940 -1.1332 -1.0897
  1114G12c H00H20626  12.031   6.075  11.760  2.1679 -1.9209  1.7059
  1114G12c C01N20627  12.054   5.982  11.579 -1.0940  2.3177 -1.0852
  1114G12c O00620628  12.056   6.089  11.501 -1.0749 -0.8814 -1.5359
  1114G12c C01T20629  12.080   6.231  11.534 -0.4464  1.4840 -1.0877
  1114G12c H00K20630  12.171   6.243  11.593  2.9083 -2.8465 -5.0014
  1114G12c H00J20631  12.093   6.272  11.433 -3.4191  0.0716 -2.0942
  1114G12c H00I20632  12.006   6.271  11.603 -0.9891 -0.2160 -0.6540
  1114G12c C01M20633  12.017   5.851  11.534 -0.2730 -0.4089 -0.1521
  1114G12c C02020634  11.919   5.361  11.627  0.3202  0.7124 -1.2920
  1114G12c C02120635  11.862   5.375  11.498 -1.0627  0.9837 -0.8630
  1114G12c C01L20636  12.007   5.734  11.630  0.0508 -0.5770  0.1570
  1114G12c O00720637  11.995   5.836  11.400 -0.0611 -0.9435 -0.1843
  1114G12c C02220638  11.878   5.483  11.415  1.0473  1.4382  1.1672
  1114G12c C02320639  11.856   5.269  11.415 -0.3490 -0.7152  1.3562
  1114G12c C00G20640  11.937   5.091  11.218 -1.4541 -0.7410 -1.0169
  1114G12c C00E20641  11.902   4.969  11.006 -0.7066 -0.6238 -1.5671
  1114G12c O00A20642  11.886   4.857  10.929  0.1957  1.3644  0.5978
  1114G12c C02420643  11.778   4.785  10.979 -0.5651 -0.0243  0.2984
  1114G12c H00V20644  11.714   4.770  10.891  2.3023 -3.2192 -1.3763
  1114G12c H00U20645  11.698   4.823  11.042 -3.4478 -8.5901  2.5147
  1114G12c H00T20646  11.824   4.689  11.004  5.1142  2.5152  0.2742
  1124G12c C00D20647   1.629  11.200  13.376  0.7578 -1.4681  0.2019
  1124G12c O00B20648   1.632  11.069  13.301  1.4299  0.5498 -0.8371
  1124G12c C02520649   1.633  11.049  13.158  2.0692  0.3501  1.4012
  1124G12c C02620650   1.504  11.126  13.080 -0.1012 -0.5567 -0.8281
  1124G12c H00Y20651   1.409  11.085  13.115 -1.0038  1.8528 -0.3622
  1124G12c H00X20652   1.477  11.066  12.992 -2.5313 -6.7798  3.7901
  1124G12c O00C20653   1.499  11.259  13.026  0.2870 -0.3960 -0.2274
  1124G12c H00W20654   1.444  11.253  12.949 -0.6061 -1.3117  0.4754
  1124G12c C02720655   1.732  10.998  13.090 -1.0936  0.8766 -0.7851
  1124G12c O00D20656   1.796  10.909  13.185 -0.0031  0.2121 -0.6489
  1124G12c H00Z20657   1.784  10.961  13.263 -4.6668  0.0933 -1.1368
  1124G12c C02820658   1.730  10.970  12.948  1.2398 -0.4046 -0.6890
  1124G12c C02920659   1.628  10.902  12.865  1.3081  0.3159 -1.1250
  1124G12c H01020660   1.533  10.878  12.910  1.5400  4.0634  1.6093
  1124G12c C02T20661   1.637  10.887  12.732 -0.7582  0.9285  0.4064
  1124G12c H01O20662   1.579  10.819  12.672 -3.1917  5.1387 -2.3305
  1124G12c C02S20663   1.746  10.958  12.651 -1.0978  0.0615  0.0084
  1124G12c O00J20664   1.783  10.912  12.536 -0.5953  2.4948 -0.2085
  1124G12c H01P20665   1.770  10.930  12.444 -3.1990  0.9547 -0.1886
  1124G12c C02R20666   1.834  11.036  12.735 -1.3419  1.1025  0.0911
  1124G12c O00I20667   1.930  11.108  12.676 -0.0336  0.3427  0.5690
  1124G12c C02Q20668   1.960  11.236  12.730 -0.1281 -2.4602 -0.5654
  1124G12c H01N20669   1.873  11.284  12.686 -1.7345 -4.0605  0.8106
  1124G12c H01R20670   2.068  11.246  12.714 -0.4352  3.0562 -0.0193
  1124G12c H01Q20671   1.953  11.249  12.837  0.9425  0.1266 -0.7681
  1124G12c C02A20672   1.811  11.050  12.868  0.5018 -0.7122  1.2931
  1124G12c H01120673   1.861  11.120  12.934 -0.5082 -0.8556  2.2350
  1124G12c C00C20674   1.497  11.225  13.406  1.4823 -0.0599 -0.3570
  1124G12c H01220675   1.408  11.164  13.411  2.4293 -1.4493  0.0499
  1124G12c C00B20676   1.476  11.348  13.454  1.2974  0.2841  1.0375
  1124G12c C00A20677   1.364  11.384  13.556 -0.7279 -0.4958 -2.2189
  1124G12c C00920678   1.227  11.328  13.577 -1.5498 -0.5673  0.6593
  1124G12c C00820679   1.156  11.223  13.513  1.1443 -0.8629 -0.5977
  1124G12c H01320680   1.210  11.132  13.492  1.9450 -0.5116 -0.0582
  1124G12c C00720681   1.020  11.238  13.455  2.2253 -0.7233  0.2686
  1124G12c H01420682   0.999  11.152  13.393  4.5378 -2.6448  2.0794
  1124G12c C00620683   0.935  11.357  13.487 -0.1269 -2.7802  0.2874
  1124G12c C00520684   1.009  11.459  13.552 -0.5579  1.4640 -1.0751
  1124G12c C00420685   0.948  11.571  13.579 -0.9026 -0.1081 -1.2572
  1124G12c C00320686   1.025  11.673  13.612 -2.4183 -0.8020 -2.1355
  1124G12c C00220687   0.965  11.806  13.617  1.0952 -1.6218  0.5582
  1124G12c C00120688   1.016  11.936  13.658  1.3555  0.0872 -0.6657
  1124G12c C00M20689   1.145  12.019  13.616  0.5521  1.3865 -1.2349
  1124G12c C00L20690   1.235  11.920  13.553 -0.6556  0.5845  1.3268
  1124G12c C00R20691   1.361  11.960  13.489 -0.9616  0.0233 -0.9784
  1124G12c C00Q20692   1.388  12.085  13.403  0.7476  0.4032 -0.1690
  1124G12c C00V20693   1.482  12.058  13.314 -1.7701 -0.2735  0.1687
  1124G12c C00U20694   1.557  11.928  13.300  0.4108  1.2326 -0.0108
  1124G12c C00T20695   1.535  11.828  13.394 -2.4068 -1.0517  0.1714
  1124G12c C01620696   1.589  11.699  13.395 -1.7525 -1.1438  0.1808
  1124G12c C01520697   1.696  11.674  13.312  2.2682 -0.5164  1.0106
  1124G12c C01020698   1.745  11.779  13.215  0.7151  0.9766 -0.5950
  1124G12c C01120699   1.854  11.758  13.140 -0.8241 -1.8478  0.3980
  1124G12c H00520700   1.910  11.824  13.075 -1.9468  3.2739  4.2119
  1124G12c C01220701   1.909  11.636  13.133  0.3590  0.9736  0.5914
  1124G12c C01720702   2.002  11.596  13.020 -1.2300  1.6499  0.7275
  1124G12c O00220703   1.948  11.499  12.933 -0.5239 -0.1964 -0.8689
  1124G12c H00420704   1.975  11.511  12.843 -5.9508  2.9152 -2.2750
  1124G12c C01820705   2.123  11.645  13.004 -1.0412 -0.7083  0.7123
  1124G12c O00120706   2.164  11.736  13.099  1.1871 -1.3512 -0.0309
  1124G12c H00320707   2.160  11.688  13.180 -2.9995  4.0960  3.2870
  1124G12c C01920708   2.233  11.596  12.911 -0.7387 -0.8156 -0.2319
  1124G12c H00220709   2.302  11.675  12.880  0.7149 -3.5981 -4.5771
  1124G12c H00120710   2.297  11.539  12.979 -1.3904  0.9519  1.9335
  1124G12c O00020711   2.156  11.523  12.813  1.9008 -0.8765 -0.8618
  1124G12c C01A20712   2.217  11.460  12.702 -1.0905  1.4119  0.4893
  1124G12c C02K20713   2.291  11.351  12.689  1.8876  0.0429 -0.1013
  1124G12c O00G20714   2.309  11.285  12.803  1.6887 -1.1877 -1.5871
  1124G12c C02M20715   2.337  11.137  12.790 -0.0356 -0.8382 -1.0805
  1124G12c H01G20716   2.272  11.078  12.725 -2.9850 -1.3226  2.1143
  1124G12c H01F20717   2.311  11.089  12.885  3.9943  0.6615  0.8814
  1124G12c H01E20718   2.441  11.122  12.763 -0.1180  0.7268 -2.3581
  1124G12c C02J20719   2.311  11.307  12.562  0.4403  0.0914 -1.0630
  1124G12c H01H20720   2.382  11.231  12.534  0.3204  0.8431 -3.5371
  1124G12c C02I20721   2.265  11.382  12.450 -0.4621 -0.1408  0.9019
  1124G12c C02N20722   2.296  11.343  12.312 -0.2191  0.8977  1.4675
  1124G12c H01M20723   2.202  11.342  12.258 -0.5640  3.5658  1.9368
  1124G12c C02O20724   2.424  11.335  12.260 -1.3068 -0.6465  1.2706
  1124G12c H01L20725   2.512  11.343  12.322  1.5236 -3.0032 -2.1839
  1124G12c C02P20726   2.418  11.314  12.108 -0.1363  0.0120 -0.3165
  1124G12c H01K20727   2.455  11.217  12.073 -4.1461 -0.3755 -3.8445
  1124G12c H01J20728   2.322  11.306  12.058  0.2773  0.8578 -1.2605
  1124G12c O00H20729   2.506  11.429  12.101  0.1290  0.5508 -0.3983
  1124G12c H01I20730   2.496  11.461  12.013  4.2265  1.4087 -0.6431
  1124G12c C02H20731   2.189  11.490  12.466 -0.7690 -0.9499 -0.6823
  1124G12c H01C20732   2.184  11.538  12.370  0.6629  6.0623  2.4256
  1124G12c C02L20733   2.149  11.514  12.597  0.4370 -1.7994 -1.1956
  1124G12c H01D20734   2.089  11.597  12.630  2.3013 -2.2458  3.7214
  1124G12c C01320735   1.860  11.534  13.208 -1.4713 -0.3436 -1.5331
  1124G12c H00020736   1.897  11.438  13.176 -3.7688 -1.7521 -0.1371
  1124G12c C01420737   1.749  11.542  13.305  0.3962  0.5701  1.7189
  1124G12c C00F20738   1.676  11.439  13.356  0.7324  1.6210 -0.1865
  1124G12c C00H20739   1.521  11.600  13.462  0.7343 -1.3698 -1.4074
  1124G12c C00I20740   1.418  11.615  13.549 -0.4387 -1.0146  1.3414
  1124G12c C00J20741   1.379  11.755  13.543  0.4013  0.0443 -1.3356
  1124G12c C00Z20742   1.670  11.902  13.225 -2.4799  0.5313  2.3941
  1124G12c C00Y20743   1.729  12.016  13.160 -1.0556 -0.6048 -1.5945
  1124G12c H00620744   1.813  11.989  13.096 -1.4478 -6.4323  0.0071
  1124G12c C00X20745   1.648  12.139  13.143  1.0299  0.4926 -0.3441
  1124G12c O00320746   1.656  12.215  13.019 -0.9752 -0.1189 -0.1025
  1124G12c C01B20747   1.631  12.139  12.905 -0.3597  0.8843 -1.5233
  1124G12c H00920748   1.712  12.067  12.895 -3.1569 -2.1696 -3.2783
  1124G12c H00820749   1.614  12.206  12.821  1.3242 -0.2292 -2.7833
  1124G12c H00720750   1.533  12.091  12.910 -0.7278  1.7790  0.1794
  1124G12c C00W20751   1.530  12.147  13.216 -0.3322  0.3507  0.2710
  1124G12c O00420752   1.481  12.271  13.211 -1.3413  0.8445 -0.0026
  1124G12c C01C20753   1.402  12.305  13.314  0.9176  0.8597 -0.4496
  1124G12c H00A20754   1.395  12.413  13.324 -1.8202  1.3543 -5.6758
  1124G12c C00P20755   1.313  12.212  13.397 -1.4627 -0.2289 -0.7698
  1124G12c C00O20756   1.183  12.230  13.446  0.9306 -1.0274  0.3871
  1124G12c C01D20757   1.100  12.320  13.360 -0.1235  0.7507 -1.0295
  1124G12c H00S20758   1.151  12.405  13.316  0.3475  0.1543 -1.6483
  1124G12c C01E20759   0.961  12.300  13.353 -0.3896  2.0283  2.3827
  1124G12c O00820760   0.863  12.359  13.275  0.2074 -0.8052 -0.0428
  1124G12c C01V20761   0.877  12.439  13.164  0.7364  2.8240 -0.5999
  1124G12c C01Z20762   0.978  12.379  13.056 -0.0033  0.0247  0.8677
  1124G12c H00R20763   1.082  12.409  13.046  0.6899  2.9833 10.8625
  1124G12c H00Q20764   0.978  12.274  13.085  1.8333 -0.9515 -2.4038
  1124G12c O00920765   0.904  12.376  12.938 -0.6094  0.0748  0.6460
  1124G12c H00P20766   0.821  12.352  12.974  1.1200 -4.9233  1.7417
  1124G12c C01W20767   0.820  12.556  13.159  0.5269  1.0576 -0.2247
  1124G12c H00O20768   0.762  12.585  13.245  1.9764  2.7152  0.2098
  1124G12c C01X20769   0.835  12.635  13.040  0.7972  0.1500 -0.7873
  1124G12c H00N20770   0.789  12.608  12.945  1.5035  0.1301 -1.1221
  1124G12c H00M20771   0.775  12.719  13.076 -5.0057 -4.4218  0.9308
  1124G12c C01Y20772   0.971  12.702  13.012 -0.4352  0.6192  0.8689
  1124G12c C02D20773   1.024  12.699  12.877 -0.8419  1.1595 -0.1940
  1124G12c H01920774   0.993  12.660  12.782 -0.4136  0.0308  0.1223
  1124G12c C02C20775   1.160  12.729  12.864 -0.6199 -1.8012  0.7496
  1124G12c H01A20776   1.174  12.731  12.757 -2.6191 -5.0040  0.3689
  1124G12c C02B20777   1.211  12.830  12.946  0.5340  1.2103  0.1629
  1124G12c O00E20778   1.305  12.925  12.917  0.0911  0.2372 -0.1579
  1124G12c H01B20779   1.350  12.960  12.993 -0.1054  1.3614 -0.5590
  1124G12c C02F20780   1.160  12.836  13.083 -1.1026  0.9906 -0.1266
  1124G12c O00F20781   1.236  12.907  13.171  1.7039 -1.4766  0.0759
  1124G12c C02G20782   1.183  12.982  13.279 -1.5925  0.3139  0.4185
  1124G12c H01720783   1.253  13.018  13.354 -1.8612  0.2765  0.6904
  1124G12c H01620784   1.098  12.951  13.341  0.1973 -1.2287  2.1854
  1124G12c H01520785   1.147  13.069  13.225 -0.6858  2.7662  3.5853
  1124G12c C02E20786   1.040  12.773  13.117  0.3851  1.4600 -0.4522
  1124G12c H01820787   0.985  12.816  13.199  3.8892  4.1924  0.6408
  1124G12c C01F20788   0.904  12.198  13.442 -0.0803  0.2715  1.2323
  1124G12c C01G20789   0.762  12.159  13.431  1.1011 -0.0601 -1.5069
  1124G12c H00L20790   0.681  12.214  13.387 -3.0750 -3.7287  1.1877
  1124G12c C01H20791   0.724  12.032  13.495 -0.3306  0.1423  0.9129
  1124G12c H00B20792   0.636  11.981  13.457 -1.9505  1.6981  2.4429
  1124G12c C01I20793   0.803  11.968  13.585 -0.1072 -0.5075  2.0158
  1124G12c C01U20794   0.974  12.133  13.538 -2.4077  0.0283 -0.4907
  1124G12c C00S20795   1.443  11.845  13.493 -0.5026 -2.8431 -2.0086
  1124G12c C00K20796   1.249  11.782  13.582  0.9895 -0.1593  0.1488
  1124G12c C00N20797   1.111  12.139  13.535 -0.9069 -3.0986 -1.5998
  1124G12c C00020798   0.915  12.043  13.635  1.0266 -0.2891 -0.3441
  1124G12c C01J20799   0.822  11.830  13.590  1.6708 -0.5238  0.9303
  1124G12c C01K20800   0.741  11.712  13.572  0.8620  0.4626  1.6510
  1124G12c C01P20801   0.603  11.707  13.549  0.0523 -2.8386  1.2952
  1124G12c C01Q20802   0.545  11.824  13.603 -1.7370  0.8315 -0.2856
  1124G12c H00G20803   0.598  11.854  13.692  1.7817 -2.3445 -1.1275
  1124G12c C01R20804   0.422  11.852  13.566 -0.4631 -0.7462 -0.4682
  1124G12c H00F20805   0.389  11.826  13.467  3.5752 -2.5212 -1.4708
  1124G12c C01S20806   0.349  11.968  13.636  0.1864 -0.1165 -1.2200
  1124G12c H00E20807   0.379  11.975  13.741 -2.8460 -0.0650 -0.2974
  1124G12c H00D20808   0.374  12.063  13.588  2.3069 -0.1897 -0.3209
  1124G12c O00520809   0.220  11.923  13.658 -0.8267  0.3627  0.1183
  1124G12c H00C20810   0.192  11.881  13.578 -0.1039  5.6543 -3.2517
  1124G12c C01O20811   0.531  11.596  13.523 -1.6853  1.1164  1.3291
  1124G12c H00H20812   0.423  11.605  13.528 -1.8230  3.9027 -3.4070
  1124G12c C01N20813   0.601  11.481  13.496  0.2491 -1.0365  0.6519
  1124G12c O00620814   0.547  11.377  13.427  0.1695 -0.7380 -0.7013
  1124G12c C01T20815   0.433  11.309  13.481 -0.0978  1.1061 -0.4015
  1124G12c H00K20816   0.470  11.229  13.545 -8.5879  0.7281  4.7817
  1124G12c H00J20817   0.377  11.375  13.547 -1.3097 -1.1522  0.9195
  1124G12c H00I20818   0.350  11.290  13.413  1.8175 -0.8563 -2.2762
  1124G12c C01M20819   0.742  11.481  13.492 -0.0955  1.3567 -0.8873
  1124G12c C02020820   1.165  11.673  13.629  0.8795  0.7330 -0.0913
  1124G12c C02120821   1.223  11.548  13.639  0.2658  0.3219  0.7955
  1124G12c C01L20822   0.811  11.589  13.549  1.4634  0.5844  0.5592
  1124G12c O00720823   0.805  11.366  13.461 -1.4307 -1.9244 -0.9465
  1124G12c C02220824   1.149  11.445  13.610 -0.7617 -0.3082  0.2315
  1124G12c C02320825   1.357  11.508  13.605 -1.0893  0.1679 -0.7960
  1124G12c C00G20826   1.556  11.469  13.419  0.5728  1.2408  0.7734
  1124G12c C00E20827   1.725  11.300  13.353  0.4729  1.2451 -2.9423
  1124G12c O00A20828   1.849  11.279  13.294  0.9064 -0.7435 -0.0949
  1124G12c C02420829   1.955  11.238  13.369 -0.4415  0.1123 -0.4531
  1124G12c H00V20830   1.906  11.197  13.456 -5.7228  3.9991 -1.3276
  1124G12c H00U20831   1.978  11.336  13.411 -0.8748  1.9940 -4.2875
  1124G12c H00T20832   2.056  11.204  13.344 -1.8947 -2.6170 -2.8778
  1134G12c C00D20833  10.306   7.739   6.621  0.3120  1.4065  0.7617
  1134G12c O00B20834  10.209   7.649   6.588 -0.4949  0.2681  0.4055
  1134G12c C02520835  10.069   7.691   6.614 -2.0879 -0.4380  1.3580
  1134G12c C02620836  10.001   7.580   6.678 -0.3944  0.9348 -0.7018
  1134G12c H00Y20837   9.901   7.589   6.636 -1.0208 -3.0090 -0.2108
  1134G12c H00X20838  10.029   7.477   6.662  0.7526  1.6250 -3.3152
  1134G12c O00C20839   9.968   7.585   6.815  0.8293 -0.7210  0.1772
  1134G12c H00W20840   9.877   7.606   6.830  0.1123  0.7616 -5.3661
  1134G12c C02720841  10.026   7.819   6.615 -1.1015  0.4849  0.5156
  1134G12c O00D20842  10.087   7.922   6.544  1.1018  0.0178 -0.3430
  1134G12c H00Z20843  10.145   7.911   6.470  3.5787  3.6514  0.9031
  1134G12c C02820844   9.900   7.863   6.688  0.2268  0.4873 -2.0031
  1134G12c C02920845   9.788   7.851   6.601  1.2980  0.9374 -0.2426
  1134G12c H01020846   9.798   7.793   6.510  0.1109  0.3276  0.0037
  1134G12c C02T20847   9.674   7.907   6.644 -0.9458  1.4212  1.2447
  1134G12c H01O20848   9.586   7.882   6.585  1.3980 -1.1603 -1.3666
  1134G12c C02S20849   9.656   7.956   6.764 -1.0929  0.1020 -1.6090
  1134G12c O00J20850   9.533   8.010   6.794 -0.1255 -0.9179 -0.5329
  1134G12c H01P20851   9.550   8.101   6.812 -2.6911 -0.2882 -1.1516
  1134G12c C02R20852   9.766   7.962   6.846  0.2174  0.8371 -0.5950
  1134G12c O00I20853   9.725   8.034   6.956 -0.2898 -1.7825  0.7727
  1134G12c C02Q20854   9.661   7.967   7.069  1.4413  1.8248 -1.7653
  1134G12c H01N20855   9.743   7.977   7.140  1.9713  3.6532 -2.6133
  1134G12c H01R20856   9.628   7.873   7.026 -5.6219  2.8263  0.7195
  1134G12c H01Q20857   9.587   8.032   7.116  1.2630 -0.5625  1.3835
  1134G12c C02A20858   9.900   7.919   6.827  1.8732  0.8193 -2.6011
  1134G12c H01120859   9.979   7.934   6.899  0.1421  3.2018 -1.1160
  1134G12c C00C20860  10.304   7.818   6.743  1.0141 -0.7328  1.1705
  1134G12c H01220861  10.241   7.794   6.827 -0.1694  1.0550  0.8176
  1134G12c C00B20862  10.406   7.908   6.766  0.6886 -0.6018 -1.6692
  1134G12c C00A20863  10.432   7.971   6.894 -0.3625 -1.0365  0.3908
  1134G12c C00920864  10.345   8.009   7.008 -2.2619 -1.4713 -0.4722
  1134G12c C00820865  10.223   7.970   7.059 -1.0373 -2.9154  0.8850
  1134G12c H01320866  10.185   7.879   7.015 -0.5857 -2.6479 -0.0653
  1134G12c C00720867  10.171   8.048   7.185  0.8667 -1.7859  0.5048
  1134G12c H01420868  10.072   8.008   7.203  0.5573 -1.7672 -1.0863
  1134G12c C00620869  10.243   8.160   7.234  0.4175  0.2444 -0.5142
  1134G12c C00520870  10.373   8.182   7.182 -0.0343 -1.3261  0.8198
  1134G12c C00420871  10.449   8.297   7.205  1.1711  1.3171 -0.6784
  1134G12c C00320872  10.572   8.320   7.130  2.0226 -1.3361 -0.6360
  1134G12c C00220873  10.629   8.451   7.150  0.5679 -0.8926 -0.6921
  1134G12c C00120874  10.727   8.526   7.087 -1.1723 -1.4142 -0.3674
  1134G12c C00M20875  10.771   8.521   6.947 -1.0543 -1.5486 -0.8341
  1134G12c C00L20876  10.791   8.414   6.876 -1.9077 -0.3511  0.7605
  1134G12c C00R20877  10.784   8.398   6.729  0.1181 -1.6295 -1.1093
  1134G12c C00Q20878  10.797   8.497   6.631  0.3960 -0.5442 -0.8885
  1134G12c C00V20879  10.790   8.448   6.498  0.9002  0.3210  0.7629
  1134G12c C00U20880  10.733   8.313   6.467 -0.6204 -0.9596 -0.9643
  1134G12c C00T20881  10.710   8.226   6.564 -0.9327  0.0051 -1.3716
  1134G12c C01620882  10.648   8.104   6.560  0.9961 -0.7057 -0.8854
  1134G12c C01520883  10.599   8.069   6.438 -0.2190 -0.7290 -0.9526
  1134G12c C01020884  10.628   8.149   6.333 -0.2165  1.1268 -1.0698
  1134G12c C01120885  10.595   8.094   6.207 -1.6949 -0.0423 -0.2205
  1134G12c H00520886  10.650   8.135   6.124  3.4006 -4.4632  0.7284
  1134G12c C01220887  10.491   7.991   6.181  0.8036  0.7421  0.0787
  1134G12c C01720888  10.457   7.927   6.060  0.6164 -1.2852  1.4377
  1134G12c O00220889  10.546   7.898   5.959  1.6418  1.3042 -1.0133
  1134G12c H00420890  10.609   7.901   6.029  3.3331 -3.8579 -2.1038
  1134G12c C01820891  10.334   7.879   6.044 -0.9761 -0.0864 -0.5194
  1134G12c O00120892  10.215   7.891   6.128  1.1000 -1.2820 -0.3338
  1134G12c H00320893  10.134   7.877   6.082 -0.1195  1.5208  0.8749
  1134G12c C01920894  10.303   7.819   5.919  0.6605 -1.6997  0.4161
  1134G12c H00220895  10.392   7.805   5.857  0.4471 -5.0151  0.7604
  1134G12c H00120896  10.265   7.719   5.941  0.4032 -1.1772  2.3867
  1134G12c O00020897  10.196   7.897   5.870  0.2414  0.3342  1.4932
  1134G12c C01A20898  10.124   7.856   5.769  0.8461 -0.1302 -0.2616
  1134G12c C02K20899  10.130   7.922   5.651 -0.2824  1.5111 -1.4765
  1134G12c O00G20900  10.219   8.025   5.648  0.3274 -0.1559  0.4799
  1134G12c C02M20901  10.331   8.005   5.580  1.5692 -0.0493 -0.2414
  1134G12c H01G20902  10.330   7.939   5.493 -2.1964 -0.3747 -0.0272
  1134G12c H01F20903  10.324   8.089   5.511 -1.4868  1.8689  2.2791
  1134G12c H01E20904  10.413   8.003   5.651 -4.3113 -1.7797  7.0568
  1134G12c C02J20905  10.071   7.866   5.539 -3.4285 -1.4885 -0.5844
  1134G12c H01H20906  10.117   7.898   5.447 -2.6245 -0.3669  0.1933
  1134G12c C02I20907  10.001   7.743   5.559  0.5446 -1.5853  0.6418
  1134G12c C02N20908   9.975   7.629   5.472  0.6835 -1.1905 -0.2227
  1134G12c H01M20909  10.034   7.539   5.477 -1.2976 -2.4308  2.8089
  1134G12c C02O20910   9.923   7.633   5.342 -0.4544  1.4502  0.0027
  1134G12c H01L20911   9.908   7.738   5.321 -1.8933  1.9497  3.2118
  1134G12c C02P20912   9.934   7.520   5.256  0.0778 -0.2337 -0.5853
  1134G12c H01K20913  10.035   7.503   5.220  0.4087  2.0415 -0.7924
  1134G12c H01J20914   9.896   7.435   5.313  2.7693 -2.6657 -2.2888
  1134G12c O00H20915   9.846   7.557   5.137 -0.3760 -0.1807  1.0713
  1134G12c H01I20916   9.821   7.646   5.158  4.7173  1.8538 -0.7375
  1134G12c C02H20917   9.962   7.696   5.683  1.2984  0.9011 -2.1304
  1134G12c H01C20918   9.918   7.600   5.709  3.9077  1.1921  4.3083
  1134G12c C02L20919  10.023   7.750   5.790 -1.8976  0.6214  0.8889
  1134G12c H01D20920  10.025   7.690   5.879  0.9592  0.3329  0.6731
  1134G12c C01320921  10.449   7.935   6.299 -1.1983  0.2413 -1.9673
  1134G12c H00020922  10.367   7.867   6.281  3.4864 -5.0939 -4.9700
  1134G12c C01420923  10.508   7.957   6.424  1.4055 -1.5483  0.5951
  1134G12c C00F20924  10.466   7.897   6.537 -1.5700  0.0683  1.7717
  1134G12c C00H20925  10.599   8.042   6.678 -2.1697 -1.2821 -0.3043
  1134G12c C00I20926  10.641   8.088   6.803 -0.2219 -0.4901  1.6613
  1134G12c C00J20927  10.737   8.191   6.807  0.7626 -0.0567 -1.5732
  1134G12c C00Z20928  10.703   8.270   6.349 -1.2430  1.6909 -0.3853
  1134G12c C00Y20929  10.733   8.349   6.237 -0.1695 -0.5716  0.1228
  1134G12c H00620930  10.706   8.317   6.138 -2.4670 -1.5837  1.0385
  1134G12c C00X20931  10.796   8.482   6.244  0.8643 -0.0461  0.4050
  1134G12c O00320932  10.831   8.539   6.118 -0.1236 -1.6817 -1.6895
  1134G12c C01B20933  10.956   8.624   6.114  0.6957  1.2392  1.0118
  1134G12c H00920934  11.042   8.569   6.077 -2.4313 -4.9229  2.2300
  1134G12c H00820935  10.974   8.638   6.220  7.3988  2.0683 -0.0300
  1134G12c H00720936  10.953   8.718   6.059  0.3373  2.8057  3.6114
  1134G12c C00W20937  10.817   8.525   6.378 -0.1750  0.4229 -1.1330
  1134G12c O00420938  10.871   8.651   6.405  0.3066 -0.2913  1.3280
  1134G12c C01C20939  10.890   8.679   6.534 -0.8563  1.3438  0.8071
  1134G12c H00A20940  10.933   8.772   6.566 -1.0532  0.2174  4.5498
  1134G12c C00P20941  10.816   8.638   6.650 -0.6560  0.7891  0.8580
  1134G12c C00O20942  10.784   8.711   6.765  1.1621 -0.6133 -0.0996
  1134G12c C01D20943  10.744   8.854   6.739  0.1354  0.0205 -1.1684
  1134G12c H00S20944  10.747   8.921   6.654 -0.6919 -5.9001 -6.2216
  1134G12c C01E20945  10.694   8.924   6.858 -0.5628  1.0645  1.0746
  1134G12c O00820946  10.629   9.045   6.820  0.1190  0.2521  0.9531
  1134G12c C01V20947  10.486   9.033   6.788 -0.8113 -0.5971 -0.4593
  1134G12c C01Z20948  10.436   9.161   6.720  0.4711  0.2487  2.0044
  1134G12c H00R20949  10.337   9.198   6.748 -2.4349 -2.0348 -4.2593
  1134G12c H00Q20950  10.508   9.242   6.729 -4.1711  4.6316  2.2512
  1134G12c O00920951  10.417   9.124   6.583 -1.2646  0.6648 -0.5244
  1134G12c H00P20952  10.506   9.094   6.595 -3.4976 -6.2948  1.3943
  1134G12c C01W20953  10.402   8.937   6.821 -0.6781  0.1097  0.6516
  1134G12c H00O20954  10.418   8.835   6.854  0.1822 -0.3513 -1.1265
  1134G12c C01X20955  10.258   8.933   6.780  1.7737  1.2964 -1.8581
  1134G12c H00N20956  10.236   9.023   6.723 -0.0375 -0.0038 -3.2632
  1134G12c H00M20957  10.208   8.850   6.732 -4.8430  0.2377  5.7132
  1134G12c C01Y20958  10.191   8.953   6.921 -0.0826  0.3390 -1.3112
  1134G12c C02D20959  10.076   8.868   6.954 -1.8732  0.5317  2.3616
  1134G12c H01920960  10.041   8.790   6.888 -2.0466  5.2028 -3.3991
  1134G12c C02C20961  10.005   8.905   7.067  1.0794 -0.1904 -0.1755
  1134G12c H01A20962   9.931   8.841   7.113  0.3542  0.4427 -0.4538
  1134G12c C02B20963  10.027   9.035   7.127 -0.3016 -0.1697  0.1256
  1134G12c O00E20964   9.930   9.078   7.210 -0.6485 -0.4049 -0.7246
  1134G12c H01B20965   9.967   9.092   7.296  0.9947  0.5487 -1.5616
  1134G12c C02F20966  10.135   9.123   7.085  0.7650 -0.4193 -1.4590
  1134G12c O00F20967  10.171   9.245   7.152  1.1424  0.4337 -0.7984
  1134G12c C02G20968  10.266   9.210   7.251  0.0981 -0.8407 -0.2571
  1134G12c H01720969  10.224   9.147   7.329 -1.6273  1.3237  0.6136
  1134G12c H01620970  10.319   9.305   7.264 -2.3462  0.3628  1.2962
  1134G12c H01520971  10.346   9.141   7.223  1.5271 -1.4135  4.7279
  1134G12c C02E20972  10.204   9.084   6.969 -0.9582  0.7874  1.1515
  1134G12c H01820973  10.231   9.170   6.910 -2.0821 -0.1543 -0.8113
  1134G12c C01F20974  10.674   8.867   6.988 -0.6266  0.2052  0.0241
  1134G12c C01G20975  10.568   8.897   7.095 -0.0319  0.0087  0.4242
  1134G12c H00L20976  10.527   8.997   7.094  6.4994  2.9651  2.7222
  1134G12c C01H20977  10.546   8.815   7.208 -0.6746 -0.6656 -0.4293
  1134G12c H00B20978  10.467   8.832   7.279 -2.4199  4.4401 -3.3473
  1134G12c C01I20979  10.591   8.686   7.199  0.3608  0.1412  0.1625
  1134G12c C01U20980  10.726   8.736   7.003  0.6507 -1.5085 -0.3015
  1134G12c C00S20981  10.757   8.267   6.688  1.2202  0.4537 -0.6206
  1134G12c C00K20982  10.722   8.293   6.912  1.0540  0.0584 -1.2617
  1134G12c C00N20983  10.757   8.649   6.894 -3.3381  1.3378 -0.5645
  1134G12c C00020984  10.705   8.664   7.114  1.1145  0.0695 -0.9933
  1134G12c C01J20985  10.534   8.551   7.221 -0.0478  0.7673 -0.0683
  1134G12c C01K20986  10.451   8.501   7.323  1.0296 -0.6613  0.5621
  1134G12c C01P20987  10.390   8.569   7.441 -1.7919 -1.1363  1.3070
  1134G12c C01Q20988  10.483   8.667   7.511 -0.2756  0.4086 -0.4756
  1134G12c H00G20989  10.589   8.649   7.507  0.1861  2.8833  0.0928
  1134G12c C01R20990  10.435   8.789   7.538 -0.0670 -2.3582 -0.4302
  1134G12c H00F20991  10.328   8.805   7.529  0.3444  1.8860  0.7378
  1134G12c C01S20992  10.517   8.918   7.593 -1.1693  0.5602  0.5942
  1134G12c H00E20993  10.521   9.009   7.534 -6.0294 -0.3941 -1.4431
  1134G12c H00D20994  10.449   8.911   7.678 -0.6225-11.2764  0.9182
  1134G12c O00520995  10.634   8.873   7.640  0.0590  0.4635 -2.1880
  1134G12c H00C20996  10.681   8.842   7.563  6.9789 -2.9210  2.8085
  1134G12c C01O20997  10.268   8.523   7.499  0.6022 -1.0608 -0.1928
  1134G12c H00H20998  10.209   8.584   7.565 -0.5453 -0.3919 -1.7996
  1134G12c C01N20999  10.206   8.404   7.453  0.2847  1.4834 -0.8285
  1134G12c O00621000  10.092   8.367   7.508  2.2576  0.5675 -0.0364
  1134G12c C01T21001  10.138   8.282   7.618  0.7143 -0.1824 -1.2569
  1134G12c H00K21002  10.229   8.223   7.606  1.8140  1.9397 -4.0413
  1134G12c H00J21003  10.069   8.212   7.665 -1.1785  0.6099 -2.7760
  1134G12c H00I21004  10.164   8.326   7.714  4.0981 -2.5739 -1.0043
  1134G12c C01M21005  10.275   8.334   7.366  0.8403  0.5905  1.4308
  1134G12c C02021006  10.625   8.237   7.033  0.6642  1.7866 -1.5896
  1134G12c C02121007  10.559   8.121   7.027  0.4362  0.2693  0.1186
  1134G12c C01L21008  10.383   8.376   7.290 -0.8336 -0.6629  1.1249
  1134G12c O00721009  10.224   8.205   7.360  0.6877 -0.5540  0.1613
  1134G12c C02221010  10.429   8.099   7.079 -2.8314 -2.2717  0.5263
  1134G12c C02321011  10.554   8.042   6.903 -1.8945  1.0363 -1.2162
  1134G12c C00G21012  10.492   7.955   6.660  0.6362 -2.2865  1.2114
  1134G12c C00E21013  10.396   7.779   6.527  0.4755  2.4293 -0.7778
  1134G12c O00A21014  10.403   7.706   6.411  0.1824 -0.6089 -1.1662
  1134G12c C02421015  10.503   7.622   6.383 -0.2173 -0.5569 -0.4597
  1134G12c H00V21016  10.545   7.587   6.477 -1.0325  5.8627  2.5642
  1134G12c H00U21017  10.570   7.685   6.325 -0.0152  2.5010  2.9415
  1134G12c H00T21018  10.498   7.527   6.329  5.6045 -0.6791 -1.0509
  1144G12c C00D21019   1.779   1.624   3.229 -0.4148 -0.0467 -0.3336
  1144G12c O00B21020   1.903   1.688   3.246  0.6351 -1.1367 -0.0288
  1144G12c C02521021   1.910   1.826   3.261 -0.1945  0.1611  1.1331
  1144G12c C02621022   1.937   1.906   3.129  0.7094 -0.2085  0.8124
  1144G12c H00Y21023   1.922   2.013   3.146  2.1652  0.4521 -1.9169
  1144G12c H00X21024   1.838   1.908   3.082 -0.8560 -1.5922  3.8732
  1144G12c O00C21025   2.037   1.872   3.032 -0.3947 -1.3972  2.5290
  1144G12c H00W21026   2.117   1.919   3.047 -0.2149  0.1756 -2.5415
  1144G12c C02721027   1.925   1.877   3.383 -0.4226 -0.5784  0.9623
  1144G12c O00D21028   1.898   1.805   3.498 -1.9039  0.8810  1.7558
  1144G12c H00Z21029   1.838   1.734   3.482 -1.4783  0.5785  1.4812
  1144G12c C02821030   2.008   1.986   3.394  0.3539  0.4575  0.6309
  1144G12c C02921031   2.148   1.975   3.388  0.0858  0.1295  1.0922
  1144G12c H01021032   2.183   1.883   3.342 -5.7406  0.7442 -5.2792
  1144G12c C02T21033   2.234   2.087   3.412 -0.4046  0.1339 -1.0906
  1144G12c H01O21034   2.340   2.091   3.430 -1.0233  0.1353  2.9313
  1144G12c C02S21035   2.175   2.210   3.445 -1.5053 -1.3775  0.7940
  1144G12c O00J21036   2.291   2.298   3.471 -0.7821 -0.7679  0.1061
  1144G12c H01P21037   2.229   2.370   3.481 -0.2431 -0.6442  3.0865
  1144G12c C02R21038   2.040   2.244   3.449 -0.6325  1.5455 -0.5294
  1144G12c O00I21039   1.998   2.374   3.442  0.3507 -1.6086 -0.4531
  1144G12c C02Q21040   1.886   2.384   3.375 -0.1513 -1.1444 -0.4827
  1144G12c H01N21041   1.815   2.451   3.422  1.5130  1.4481 -1.5817
  1144G12c H01R21042   1.851   2.320   3.293  1.6928 -3.7707  0.7160
  1144G12c H01Q21043   1.935   2.458   3.312 -1.1455  5.3165  5.7189
  1144G12c C02A21044   1.957   2.119   3.432 -0.9521  0.2955  0.0837
  1144G12c H01121045   1.851   2.132   3.449 -1.1621  3.3871 -3.0646
  1144G12c C00C21046   1.681   1.722   3.221 -0.5542 -0.8233 -0.1429
  1144G12c H01221047   1.686   1.829   3.231  2.8442 -0.9157  0.0330
  1144G12c C00B21048   1.549   1.690   3.182 -1.7426  0.3080  1.0214
  1144G12c C00A21049   1.446   1.785   3.151 -0.5829  0.4204 -0.5667
  1144G12c C00921050   1.420   1.902   3.213  0.5659  0.8554 -1.1725
  1144G12c C00821051   1.491   1.985   3.310 -0.2497  0.8843  0.1437
  1144G12c H01321052   1.580   1.940   3.351 -2.0272 -2.4901  0.4923
  1144G12c C00721053   1.437   2.113   3.324  0.5881 -0.2659 -1.4822
  1144G12c H01421054   1.497   2.199   3.348  1.9717 -1.3857 -0.8657
  1144G12c C00621055   1.307   2.153   3.290  0.2890 -0.9181 -1.2273
  1144G12c C00521056   1.232   2.050   3.222 -0.3423 -0.1252  1.1427
  1144G12c C00421057   1.088   2.039   3.217 -0.4682 -1.4105 -0.1847
  1144G12c C00321058   1.021   1.924   3.167 -0.5909 -1.0657 -0.7397
  1144G12c C00221059   0.875   1.911   3.187 -0.5923 -0.5431 -0.5428
  1144G12c C00121060   0.770   1.820   3.161  0.7539 -0.8048  0.5754
  1144G12c C00M21061   0.792   1.677   3.144  1.4375 -1.9626  0.4635
  1144G12c C00L21062   0.916   1.621   3.160  0.9825  0.0685  2.0680
  1144G12c C00R21063   0.964   1.488   3.177  0.8902  0.7519  0.6310
  1144G12c C00Q21064   0.893   1.368   3.224 -0.5811  0.1664 -0.8944
  1144G12c C00V21065   0.967   1.251   3.215  1.6088  0.0643 -1.5030
  1144G12c C00U21066   1.110   1.256   3.188  0.3349  0.4501  0.6863
  1144G12c C00T21067   1.178   1.382   3.171  0.9559  2.0308 -0.9541
  1144G12c C01621068   1.314   1.397   3.163  0.4814 -0.7715  1.2893
  1144G12c C01521069   1.395   1.301   3.191  0.0608 -0.9112  0.7535
  1144G12c C01021070   1.343   1.167   3.204  1.7618 -0.9520 -1.1551
  1144G12c C01121071   1.450   1.064   3.241  0.0548 -1.1979  0.8950
  1144G12c H00521072   1.423   0.960   3.241  1.1075 -1.5090 -2.5737
  1144G12c C01221073   1.595   1.073   3.257  0.3446  1.0668  0.0971
  1144G12c C01721074   1.684   0.973   3.297 -0.4933 -0.1608  0.7251
  1144G12c O00221075   1.654   0.871   3.379  1.3321  0.5632  0.0661
  1144G12c H00421076   1.563   0.894   3.372  1.5695  0.9496 -2.1129
  1144G12c C01821077   1.825   0.969   3.286 -1.0462 -1.3181  0.4308
  1144G12c O00121078   1.886   1.083   3.235 -0.0165  1.3455  0.5681
  1144G12c H00321079   1.979   1.081   3.253 -0.4431  1.3997  3.0078
  1144G12c C01921080   1.898   0.873   3.392  0.4783  0.5780 -0.6892
  1144G12c H00221081   1.846   0.894   3.486  1.1748 -2.3271  0.4019
  1144G12c H00121082   1.866   0.770   3.375  1.0551  0.5008 -1.3256
  1144G12c O00021083   2.049   0.885   3.377 -0.4752  0.4405 -0.8572
  1144G12c C01A21084   2.101   0.816   3.493 -0.9106 -0.9621  0.8410
  1144G12c C02K21085   2.233   0.740   3.459 -2.0249 -1.8191  0.1626
  1144G12c O00G21086   2.287   0.770   3.341  0.4793 -1.6583  1.2277
  1144G12c C02M21087   2.423   0.775   3.357 -0.0786 -0.0284  0.4298
  1144G12c H01G21088   2.469   0.712   3.433 -2.1444  2.5894  4.0147
  1144G12c H01F21089   2.463   0.751   3.258  8.3660 -4.7344  4.4347
  1144G12c H01E21090   2.448   0.882   3.356  4.2637 -0.8513 -3.7515
  1144G12c C02J21091   2.264   0.643   3.547 -0.7917 -0.0175  0.3180
  1144G12c H01H21092   2.321   0.556   3.519  1.0650  2.1587 -2.8536
  1144G12c C02I21093   2.180   0.612   3.656 -0.8358 -0.6333  0.0199
  1144G12c C02N21094   2.225   0.513   3.748 -0.8400  0.3540  1.6756
  1144G12c H01M21095   2.157   0.436   3.783 -2.3750  0.4669 -0.9342
  1144G12c C02O21096   2.359   0.501   3.779 -0.7399  0.2918 -0.8229
  1144G12c H01L21097   2.426   0.581   3.752 -1.3961  0.0293 -3.4347
  1144G12c C02P21098   2.426   0.388   3.872  0.7903 -0.1161  0.6412
  1144G12c H01K21099   2.508   0.442   3.920 -1.6268  3.9462  0.3747
  1144G12c H01J21100   2.348   0.359   3.942  2.0493  3.5635  3.7440
  1144G12c O00H21101   2.447   0.267   3.817 -1.0891  2.7576  1.9606
  1144G12c H01I21102   2.526   0.286   3.770  1.2050  0.2041  4.6110
  1144G12c C02H21103   2.067   0.681   3.696  0.5212  0.0039 -0.7172
  1144G12c H01C21104   2.025   0.662   3.794 -0.4615  0.1821 -1.0943
  1144G12c C02L21105   2.039   0.798   3.624  1.2023  0.3169  3.3551
  1144G12c H01D21106   1.963   0.862   3.667  0.9725  0.0684  3.3199
  1144G12c C01321107   1.627   1.214   3.241 -0.0301 -0.0693  0.1084
  1144G12c H00021108   1.729   1.234   3.212 -0.0498 -1.6754 -1.1813
  1144G12c C01421109   1.539   1.325   3.204  0.4692  0.4889 -1.4723
  1144G12c C00F21110   1.595   1.458   3.206 -1.3977 -0.9840 -0.2843
  1144G12c C00H21111   1.370   1.517   3.144 -0.7030  0.1285 -2.3298
  1144G12c C00I21112   1.287   1.623   3.094  0.4774 -0.7797  1.0417
  1144G12c C00J21113   1.142   1.594   3.097 -0.1215 -0.9815 -0.2576
  1144G12c C00Z21114   1.198   1.151   3.218 -0.3445  0.3814  0.1296
  1144G12c C00Y21115   1.132   1.020   3.252  2.0053  0.8371  1.7173
  1144G12c H00621116   1.192   0.930   3.249  0.2011 -0.3570 -2.6312
  1144G12c C00X21117   0.991   0.998   3.285  0.1467 -0.6746  0.5952
  1144G12c O00321118   0.957   0.875   3.322  0.9540 -0.6722 -0.7511
  1144G12c C01B21119   0.821   0.846   3.369  0.0561 -0.0560 -0.5511
  1144G12c H00921120   0.847   0.802   3.465 -3.9464 -2.8973 -0.6536
  1144G12c H00821121   0.744   0.914   3.405 -1.5157  0.3951 -4.4742
  1144G12c H00721122   0.783   0.759   3.316 -2.6509 -0.6828  2.3243
  1144G12c C00W21123   0.906   1.123   3.271 -0.3806  0.3739  1.3698
  1144G12c O00421124   0.775   1.124   3.319  1.7543 -1.7342  0.9815
  1144G12c C01C21125   0.710   1.243   3.296  0.6089  0.6329 -0.1339
  1144G12c H00A21126   0.604   1.233   3.276  0.3795 -3.9325  2.4887
  1144G12c C00P21127   0.770   1.368   3.276  0.2745 -0.7034 -0.2296
  1144G12c C00O21128   0.690   1.493   3.311 -0.6511 -0.0635  1.0929
  1144G12c C01D21129   0.609   1.498   3.422  0.5175  0.1867  0.8062
  1144G12c H00S21130   0.586   1.405   3.473  0.0324  0.6992  1.5235
  1144G12c C01E21131   0.564   1.621   3.490 -0.9429  0.0208 -0.4815
  1144G12c O00821132   0.533   1.614   3.630  0.5315 -0.8763 -0.3798
  1144G12c C01V21133   0.492   1.499   3.704 -1.9558 -0.4241  0.1828
  1144G12c C01Z21134   0.360   1.525   3.759  1.0005 -0.1576  0.9575
  1144G12c H00R21135   0.311   1.428   3.770  6.2829 -4.3293 -7.1035
  1144G12c H00Q21136   0.403   1.573   3.847  6.4366 -2.0665 -0.4617
  1144G12c O00921137   0.250   1.614   3.709 -1.1318 -1.3914  0.3800
  1144G12c H00P21138   0.306   1.679   3.670 -2.4846 -0.9919 -0.9391
  1144G12c C01W21139   0.582   1.387   3.732 -0.2315 -0.4929 -0.8890
  1144G12c H00O21140   0.685   1.397   3.700  0.5510  2.2382  2.2151
  1144G12c C01X21141   0.559   1.240   3.784 -0.8381 -0.1258 -0.2161
  1144G12c H00N21142   0.636   1.206   3.854 -0.3628 -1.1771 -1.2254
  1144G12c H00M21143   0.466   1.223   3.837 -0.9728  3.0530  0.6328
  1144G12c C01Y21144   0.554   1.119   3.694 -0.6166  0.3581  0.2403
  1144G12c C02D21145   0.619   1.004   3.737  1.4595 -0.8195 -0.3754
  1144G12c H01921146   0.698   1.009   3.811 -6.5405  0.2725  9.0311
  1144G12c C02C21147   0.603   0.873   3.691 -2.0169 -0.0620 -1.6652
  1144G12c H01A21148   0.672   0.794   3.716 -1.0677  0.3132 -3.0853
  1144G12c C02B21149   0.489   0.866   3.614  2.2265 -1.0991 -1.3255
  1144G12c O00E21150   0.452   0.749   3.565  0.6570 -1.0839  1.3315
  1144G12c H01B21151   0.379   0.716   3.515  3.8823  0.1815 -4.7695
  1144G12c C02F21152   0.432   0.984   3.541 -1.0103  0.0169 -1.0173
  1144G12c O00F21153   0.323   0.948   3.456 -1.8106 -0.2106  0.3579
  1144G12c C02G21154   0.375   0.964   3.324 -0.8844 -0.5492 -0.9933
  1144G12c H01721155   0.468   1.021   3.315 -2.5622  1.7724 -5.0802
  1144G12c H01621156   0.299   1.009   3.260 -2.3447 -8.7758 -5.6791
  1144G12c H01521157   0.355   0.885   3.252  3.1846 -1.2978 -1.4265
  1144G12c C02E21158   0.468   1.112   3.585  0.6333  0.0841  0.3933
  1144G12c H01821159   0.429   1.206   3.551 -1.2198 -2.3047 -4.4982
  1144G12c C01F21160   0.574   1.747   3.424 -1.5962  0.4166  0.2331
  1144G12c C01G21161   0.570   1.877   3.486 -0.0599  0.0920  0.2989
  1144G12c H00L21162   0.526   1.921   3.574  1.8704  1.2740  0.7035
  1144G12c C01H21163   0.635   1.988   3.430 -1.4545 -0.1653 -0.9564
  1144G12c H00B21164   0.634   2.077   3.492 -0.0417  0.7124 -2.1723
  1144G12c C01I21165   0.692   1.974   3.315  0.5761  1.3422  1.2264
  1144G12c C01U21166   0.622   1.739   3.292  0.7375 -1.2676 -0.5662
  1144G12c C00S21167   1.091   1.473   3.121 -1.2390  0.0299 -1.2213
  1144G12c C00K21168   1.038   1.694   3.103 -0.1819  0.6329 -1.9544
  1144G12c C00N21169   0.698   1.628   3.254 -1.1533  0.9687 -1.1015
  1144G12c C00021170   0.654   1.867   3.222 -0.6502 -1.5275  0.8934
  1144G12c C01J21171   0.817   2.020   3.262 -1.1558 -1.0308 -1.7775
  1144G12c C01K21172   0.874   2.145   3.292 -1.3652  0.6458  1.0593
  1144G12c C01P21173   0.805   2.261   3.337  0.0820 -1.0589 -0.8118
  1144G12c C01Q21174   0.667   2.283   3.350  1.0034  0.4419  0.3216
  1144G12c H00G21175   0.581   2.222   3.374  0.7904  1.1027  1.2658
  1144G12c C01R21176   0.603   2.404   3.345 -0.4899  0.5877  1.1379
  1144G12c H00F21177   0.674   2.479   3.316 -2.9060  4.0021  3.6151
  1144G12c C01S21178   0.453   2.428   3.346 -1.3051 -2.2477 -0.7832
  1144G12c H00E21179   0.397   2.336   3.325 -2.0361 -1.4812 -2.2307
  1144G12c H00D21180   0.424   2.412   3.451  0.9392 -0.7029  0.0998
  1144G12c O00521181   0.412   2.556   3.331  0.2099 -0.3169  0.5583
  1144G12c H00C21182   0.463   2.560   3.252  4.6898  2.3910  3.3204
  1144G12c C01O21183   0.894   2.381   3.366  0.7720  0.0107 -0.1417
  1144G12c H00H21184   0.860   2.479   3.394  4.5817  1.2304  0.5666
  1144G12c C01N21185   1.032   2.376   3.357  0.1422 -0.3594 -0.0880
  1144G12c O00621186   1.122   2.462   3.414 -0.6763  1.1849 -0.8916
  1144G12c C01T21187   1.196   2.531   3.322 -0.5964  1.6045 -1.9393
  1144G12c H00K21188   1.245   2.579   3.407  0.8183 -4.5278  0.9932
  1144G12c H00J21189   1.132   2.597   3.263 -0.6003  1.0837 -2.5158
  1144G12c H00I21190   1.254   2.455   3.271 -4.2496 -2.7273  0.0475
  1144G12c C01M21191   1.084   2.251   3.323 -0.2327 -0.2333 -0.3296
  1144G12c C02021192   1.099   1.814   3.121 -0.6456 -0.6688  1.7907
  1144G12c C02121193   1.235   1.849   3.099 -0.6717  1.9796 -1.2646
  1144G12c C01L21194   1.014   2.147   3.270 -1.1886  0.0816  1.3886
  1144G12c O00721195   1.223   2.221   3.375 -0.1461 -0.6154  1.7973
  1144G12c C02221196   1.296   1.950   3.147 -0.1218  0.7033 -0.0253
  1144G12c C02321197   1.339   1.749   3.062  0.6740 -0.4461  0.5191
  1144G12c C00G21198   1.508   1.555   3.175 -0.2799 -0.0940  0.5900
  1144G12c C00E21199   1.741   1.496   3.225  1.3309 -1.1102 -0.0001
  1144G12c O00A21200   1.844   1.408   3.247 -0.1232  0.5218  0.2023
  1144G12c C02421201   1.897   1.434   3.374 -0.2658 -0.3507  0.6495
  1144G12c H00V21202   1.956   1.351   3.412  2.2576 -0.8684 -4.0150
  1144G12c H00U21203   1.958   1.525   3.372 -1.2807  0.4002 -4.6083
  1144G12c H00T21204   1.816   1.473   3.435  3.3143  6.7061  1.5019
  1154G12c C00D21205  12.246  10.278  12.459 -1.6211  0.1163 -0.3458
  1154G12c O00B21206  12.369  10.237  12.382 -0.2042  0.7396 -1.5839
  1154G12c C02521207  12.458  10.351  12.331  0.3753 -0.1051  1.7611
  1154G12c C02621208  12.602  10.316  12.310  0.5447 -0.4984 -1.0072
  1154G12c H00Y21209  12.636  10.228  12.364  1.1679  1.8043  2.5531
  1154G12c H00X21210  12.662  10.395  12.354  0.7978 -2.4662  2.3614
  1154G12c O00C21211  12.599  10.297  12.177  0.7183 -0.7495  1.1329
  1154G12c H00W21212  12.557  10.377  12.149  3.4786 -1.2340 -5.2987
  1154G12c C02721213  12.424  10.494  12.336 -0.5532 -2.2878 -1.2609
  1154G12c O00D21214  12.301  10.540  12.341  0.1796 -1.0147  0.9768
  1154G12c H00Z21215  12.266  10.584  12.416 -2.4987 -1.3145 -0.0410
  1154G12c C02821216  12.532  10.592  12.344 -0.7090 -0.4455  0.5963
  1154G12c C02921217  12.621  10.602  12.450  1.5147 -0.3739  0.1669
  1154G12c H01021218  12.604  10.518  12.517 -2.7616 -1.4163 -2.0560
  1154G12c C02T21219  12.688  10.727  12.455 -1.0051  1.2800 -0.1644
  1154G12c H01O21220  12.750  10.716  12.543  0.1735  1.9084 -0.8963
  1154G12c C02S21221  12.648  10.840  12.401 -0.2998 -1.0482 -0.1423
  1154G12c O00J21222  12.711  10.959  12.453 -0.7262  0.6565 -0.9628
  1154G12c H01P21223  12.674  11.039  12.420 -4.8269 -1.0122 -0.7877
  1154G12c C02R21224  12.577  10.825  12.279 -0.2525 -1.1239 -0.6028
  1154G12c O00I21225  12.553  10.944  12.218  1.4711  0.0374 -0.4995
  1154G12c C02Q21226  12.659  10.987  12.156  0.2320 -0.1688  0.3821
  1154G12c H01N21227  12.654  11.021  12.052 -3.2032 -7.3729 -2.2120
  1154G12c H01R21228  12.742  10.916  12.151 -0.2337 -0.7717  1.1075
  1154G12c H01Q21229  12.708  11.051  12.229  2.5983 -5.3428  3.6233
  1154G12c C02A21230  12.497  10.701  12.265 -0.6598 -0.6563 -0.3319
  1154G12c H01121231  12.424  10.670  12.191  0.0308 -0.5776 -1.0484
  1154G12c C00C21232  12.134  10.329  12.391 -0.5911 -0.3528  1.1427
  1154G12c H01221233  12.133  10.324  12.283 -3.9425  1.6170  1.0046
  1154G12c C00B21234  12.019  10.365  12.429 -1.0131  0.5721  0.3959
  1154G12c C00A21235  11.914  10.437  12.360  2.3169  0.5125 -0.4204
  1154G12c C00921236  11.911  10.514  12.243 -1.1394 -0.5378 -0.7557
  1154G12c C00821237  12.008  10.554  12.143  1.3871  2.0080  0.2155
  1154G12c H01321238  12.095  10.491  12.128  3.2046  1.4038  9.9612
  1154G12c C00721239  11.979  10.664  12.058 -0.0701 -0.1985  1.1227
  1154G12c H01421240  12.032  10.679  11.965  2.2558  0.4755  2.5468
  1154G12c C00621241  11.868  10.744  12.087  1.2560  2.4169  0.2590
  1154G12c C00521242  11.763  10.694  12.175 -0.2281 -0.1065 -1.6450
  1154G12c C00421243  11.659  10.781  12.207 -1.9472 -0.8669 -0.4764
  1154G12c C00321244  11.611  10.761  12.336 -0.6659  0.2055 -0.0179
  1154G12c C00221245  11.529  10.874  12.382  0.3607  0.1700 -2.2054
  1154G12c C00121246  11.445  10.904  12.508 -0.4169  0.8385  0.6731
  1154G12c C00M21247  11.504  10.858  12.638  0.0340 -0.6284 -1.6662
  1154G12c C00L21248  11.583  10.740  12.658  0.1551  1.8392 -1.0164
  1154G12c C00R21249  11.663  10.713  12.771 -1.5281  0.2554  0.0647
  1154G12c C00Q21250  11.692  10.793  12.888  0.0426  1.2466  2.4819
  1154G12c C00V21251  11.782  10.724  12.981  1.5317 -0.3464 -1.0526
  1154G12c C00U21252  11.851  10.610  12.953  0.5763  2.1723 -0.1924
  1154G12c C00T21253  11.832  10.554  12.833 -0.3749  0.5319  0.1009
  1154G12c C01621254  11.913  10.470  12.769 -0.9686  0.8349  0.4501
  1154G12c C01521255  12.014  10.412  12.854 -0.8877 -0.2922 -0.9641
  1154G12c C01021256  12.022  10.442  12.994 -0.8258 -1.0783  0.1013
  1154G12c C01121257  12.110  10.367  13.074  1.0729  0.3535  0.8051
  1154G12c H00521258  12.124  10.369  13.181  6.3033  3.3389  0.2433
  1154G12c C01221259  12.222  10.303  13.020  0.0338 -0.8163 -1.6647
  1154G12c C01721260  12.304  10.240  13.121 -1.5232  0.9930 -1.7699
  1154G12c O00221261  12.263  10.146  13.209  0.4830  1.8423 -0.7764
  1154G12c H00421262  12.330  10.141  13.276 -3.8801  2.9885  3.9443
  1154G12c C01821263  12.421  10.286  13.134  0.6327 -0.9271  0.3865
  1154G12c O00121264  12.461  10.398  13.075 -2.0701 -0.7845  1.0192
  1154G12c H00321265  12.389  10.433  13.024  0.6276  1.2144 -1.5944
  1154G12c C01921266  12.517  10.240  13.227  1.2350  0.9217  0.1994
  1154G12c H00221267  12.596  10.210  13.158  0.8896  1.9027 -0.6343
  1154G12c H00121268  12.539  10.323  13.295  2.7722 -1.8877  3.2929
  1154G12c O00021269  12.474  10.131  13.322 -0.0553  1.1240  0.3007
  1154G12c C01A21270  12.579  10.124  13.413  0.7932 -0.5190  0.4113
  1154G12c C02K21271  12.547  10.081  13.544  0.4175 -0.6744 -0.9773
  1154G12c O00G21272  12.416  10.056  13.585 -0.6502  0.5454  0.0370
  1154G12c C02M21273  12.363  10.084  13.731  0.2981  1.4651  0.2332
  1154G12c H01G21274  12.401  10.000  13.790  1.3597  1.6710 -0.1605
  1154G12c H01F21275  12.261  10.044  13.728  0.8952 -0.2738  1.7390
  1154G12c H01E21276  12.365  10.165  13.803 -3.3395 -1.4761  3.9137
  1154G12c C02J21277  12.661  10.061  13.631  1.3364  0.7222  0.6256
  1154G12c H01H21278  12.636  10.038  13.733  2.1305 -4.2720 -0.1720
  1154G12c C02I21279  12.795  10.039  13.594 -2.2469  1.0447 -0.4699
  1154G12c C02N21280  12.906   9.987  13.688  0.7539 -0.0453  2.1382
  1154G12c H01M21281  12.899   9.992  13.795 -2.8622 -0.4610  1.9997
  1154G12c C02O21282  13.003   9.922  13.640  0.2557 -0.7210  0.3900
  1154G12c H01L21283  12.990   9.896  13.536 -5.4298  4.9921 -0.6325
  1154G12c C02P21284  13.112   9.860  13.699 -0.8873  1.3960 -0.3837
  1154G12c H01K21285  13.090   9.842  13.804  0.0431 -4.3309 -0.9700
  1154G12c H01J21286  13.163   9.775  13.654 -2.2806  0.4118 -0.1379
  1154G12c O00H21287  13.181   9.951  13.649 -0.1010  0.7785 -0.1760
  1154G12c H01I21288  13.170  10.040  13.680  2.9567  2.1744 -2.7095
  1154G12c C02H21289  12.813  10.074  13.460 -0.6519 -1.0995  2.3516
  1154G12c H01C21290  12.905  10.058  13.405 -0.6180  0.5283  1.9132
  1154G12c C02L21291  12.713  10.126  13.374 -0.5790  0.8346 -0.4464
  1154G12c H01D21292  12.720  10.127  13.266 -6.4544  2.1569 -0.9826
  1154G12c C01321293  12.217  10.282  12.887  1.3419  0.6490  0.6969
  1154G12c H00021294  12.318  10.250  12.869  1.2556  0.8241 -0.1388
  1154G12c C01421295  12.117  10.334  12.792 -0.2304  0.5248  0.3889
  1154G12c C00F21296  12.121  10.319  12.652  1.7678  0.2564  0.9225
  1154G12c C00H21297  11.906  10.430  12.632 -0.7948 -0.9892 -0.8119
  1154G12c C00I21298  11.790  10.471  12.565  0.2300 -0.0832  1.4361
  1154G12c C00J21299  11.704  10.549  12.619 -0.0626  0.8450 -0.1488
  1154G12c C00Z21300  11.956  10.565  13.032 -1.0579  1.4979  1.0146
  1154G12c C00Y21301  11.984  10.639  13.151  0.2199 -1.0684 -0.6492
  1154G12c H00621302  12.042  10.609  13.238 -5.2191  2.7330  4.6762
  1154G12c C00X21303  11.903  10.752  13.194  1.2604 -1.3147  1.5612
  1154G12c O00321304  11.900  10.803  13.330  2.0609 -0.5692 -0.5531
  1154G12c C01B21305  12.006  10.800  13.419 -0.3042  0.7765 -0.6029
  1154G12c H00921306  12.103  10.825  13.374  3.1394  0.5399  6.0371
  1154G12c H00821307  12.017  10.695  13.447  0.0576  0.0843 -3.1774
  1154G12c H00721308  11.968  10.854  13.505  2.6086 -0.4792  1.5546
  1154G12c C00W21309  11.808  10.808  13.100  0.7739 -1.0368  0.4269
  1154G12c O00421310  11.736  10.921  13.126  1.3470 -0.5232  0.2059
  1154G12c C01C21311  11.625  10.939  13.045 -1.0844 -0.4785 -1.0112
  1154G12c H00A21312  11.556  11.019  13.067 -0.7168  0.1507 -2.1057
  1154G12c C00P21313  11.636  10.911  12.911  1.3514  0.1497 -0.4336
  1154G12c C00O21314  11.593  11.018  12.826  1.5410 -1.5194  0.3964
  1154G12c C01D21315  11.617  11.157  12.840  0.1418 -1.0807 -1.0881
  1154G12c H00S21316  11.661  11.189  12.933 -0.2001 -2.8070 -0.2973
  1154G12c C01E21317  11.591  11.259  12.751  1.5944  0.9033  0.5951
  1154G12c O00821318  11.665  11.381  12.785  0.5791 -0.4101 -0.2723
  1154G12c C01V21319  11.619  11.499  12.759 -0.0280 -0.1617  1.2105
  1154G12c C01Z21320  11.725  11.580  12.705  0.2296 -1.2573 -0.9483
  1154G12c H00R21321  11.704  11.677  12.749  5.1708  0.3887 -1.8572
  1154G12c H00Q21322  11.829  11.570  12.739 -0.3522 -0.5538  1.1191
  1154G12c O00921323  11.705  11.621  12.573 -0.3700  2.5453  0.7709
  1154G12c H00P21324  11.671  11.707  12.552 -0.1063  3.6976  4.6187
  1154G12c C01W21325  11.493  11.526  12.769  0.4484 -0.5632  0.4247
  1154G12c H00O21326  11.416  11.454  12.791  1.8042 -1.9694  0.6569
  1154G12c C01X21327  11.426  11.660  12.735  0.5751 -0.9997  1.4777
  1154G12c H00N21328  11.337  11.626  12.788 -0.4519 -3.3273 -1.5928
  1154G12c H00M21329  11.484  11.747  12.765 -2.1182  1.6057 -0.6168
  1154G12c C01Y21330  11.373  11.674  12.590 -2.1821  1.0279  0.1802
  1154G12c C02D21331  11.428  11.753  12.500  1.2485 -0.9363 -2.0421
  1154G12c H01921332  11.468  11.843  12.544 -1.5913  3.7742 -8.3319
  1154G12c C02C21333  11.400  11.761  12.368  1.7637 -0.6872  0.1780
  1154G12c H01A21334  11.426  11.832  12.291  1.9652  0.8776  1.6516
  1154G12c C02B21335  11.281  11.694  12.326  1.3213  1.7433 -0.5428
  1154G12c O00E21336  11.267  11.693  12.197 -0.0546 -1.1159 -0.8383
  1154G12c H01B21337  11.192  11.734  12.157  3.4987  2.1175 -4.6903
  1154G12c C02F21338  11.215  11.605  12.411 -0.5611 -1.1217  0.7550
  1154G12c O00F21339  11.110  11.527  12.364  0.4962  1.8648  0.3594
  1154G12c C02G21340  11.048  11.436  12.438 -0.1336 -0.9754  1.4367
  1154G12c H01721341  11.100  11.346  12.473 -5.5454 -4.5467  0.9269
  1154G12c H01621342  10.977  11.380  12.377 -0.7003  0.3648  0.8684
  1154G12c H01521343  10.999  11.474  12.527 -0.6289 -0.8308  1.1037
  1154G12c C02E21344  11.266  11.597  12.548 -0.5792  1.8188 -0.0752
  1154G12c H01821345  11.225  11.544  12.633 -6.2132  5.0008 -0.5428
  1154G12c C01F21346  11.552  11.222  12.626 -1.8986 -0.4998 -0.4991
  1154G12c C01G21347  11.557  11.298  12.509  1.0021  0.5592 -1.6811
  1154G12c H00L21348  11.611  11.392  12.509 -3.0282  2.9820 -1.8011
  1154G12c C01H21349  11.511  11.247  12.381  0.2725 -0.2588  0.2840
  1154G12c H00B21350  11.563  11.293  12.299  7.0682 -2.9412  2.7172
  1154G12c C01I21351  11.495  11.107  12.388 -0.9129  0.7827  0.4102
  1154G12c C01U21352  11.499  11.090  12.613  0.8229  0.0074 -1.0961
  1154G12c C00S21353  11.736  10.597  12.746  0.3410 -1.5305 -0.4866
  1154G12c C00K21354  11.635  10.652  12.557  0.4965  0.3871 -0.1817
  1154G12c C00N21355  11.531  10.978  12.705  0.6637 -0.2877  1.1922
  1154G12c C00021356  11.442  11.045  12.503  2.0646  1.9402  1.7147
  1154G12c C01J21357  11.529  10.995  12.293  1.2087  0.1520  0.8018
  1154G12c C01K21358  11.585  11.012  12.158 -1.0806  0.9925  1.0134
  1154G12c C01P21359  11.583  11.126  12.067  1.4002  2.3836  1.0741
  1154G12c C01Q21360  11.468  11.223  12.088 -0.5922 -1.2826  1.6431
  1154G12c H00G21361  11.404  11.206  12.173 -3.0922 -3.4598 -0.6248
  1154G12c C01R21362  11.482  11.344  12.037 -0.6085 -1.2289  0.5726
  1154G12c H00F21363  11.578  11.373  11.997 -2.9327  8.4578  0.9501
  1154G12c C01S21364  11.396  11.463  12.099  0.7166 -0.2208 -0.1950
  1154G12c H00E21365  11.467  11.469  12.181 -1.1975 -6.1944  2.1926
  1154G12c H00D21366  11.387  11.540  12.022  1.4109  8.2244  7.3816
  1154G12c O00521367  11.281  11.387  12.134 -1.2481  0.0136  0.1401
  1154G12c H00C21368  11.213  11.451  12.142 -1.9637 -0.3536 -2.3444
  1154G12c C01O21369  11.707  11.156  11.998  0.9145  0.0051  0.6234
  1154G12c H00H21370  11.738  11.233  11.929  0.7797 -0.9380 -0.5148
  1154G12c C01N21371  11.790  11.054  11.970  1.1890 -0.3554 -1.0038
  1154G12c O00621372  11.890  11.070  11.879  2.2972 -0.8131 -0.9549
  1154G12c C01T21373  12.023  11.074  11.963  0.1279  0.1299  0.0875
  1154G12c H00K21374  12.061  11.019  12.049  1.4924 -0.3190 -0.7781
  1154G12c H00J21375  12.044  11.181  11.971  1.9690  0.1076 -3.2344
  1154G12c H00I21376  12.079  11.055  11.871 -1.1176 -1.8833 -0.2668
  1154G12c C01M21377  11.765  10.931  12.038 -0.6348  1.1245  0.0272
  1154G12c C02021378  11.638  10.651  12.412 -0.1120  1.0384  1.5523
  1154G12c C02121379  11.711  10.545  12.346  0.6097  0.2368  2.9345
  1154G12c C01L21380  11.663  10.905  12.137 -2.4909 -0.0590 -0.7952
  1154G12c O00721381  11.866  10.844  11.997  0.0255 -0.6452  0.2409
  1154G12c C02221382  11.781  10.570  12.233  0.4595 -0.8420 -0.1256
  1154G12c C02321383  11.787  10.448  12.419 -0.1544  0.2085 -0.4776
  1154G12c C00G21384  12.013  10.367  12.563  0.7805 -0.0702 -1.6226
  1154G12c C00E21385  12.226  10.252  12.594  0.2635  0.6260  1.4552
  1154G12c O00A21386  12.325  10.179  12.650  1.1863  0.0728  0.3371
  1154G12c C02421387  12.302  10.051  12.597  1.2157  0.4734  0.6349
  1154G12c H00V21388  12.395   9.999  12.624 -1.1122 -2.3212  3.6608
  1154G12c H00U21389  12.262  10.014  12.503  0.0001  0.4102  1.1756
  1154G12c H00T21390  12.247   9.990  12.669  2.2976  1.0743  2.0114
  1164G12c C00D21391   7.374   3.500   5.706  1.9116 -1.1545  0.2531
  1164G12c O00B21392   7.462   3.411   5.730 -0.6534 -0.0181 -0.1232
  1164G12c C02521393   7.536   3.385   5.840  0.0388 -1.0023 -0.0909
  1164G12c C02621394   7.520   3.233   5.846  1.0725  0.7996  0.0963
  1164G12c H00Y21395   7.532   3.184   5.749 -0.2594  1.3534 -0.3621
  1164G12c H00X21396   7.419   3.222   5.884 -0.0121 -1.8262 -3.2129
  1164G12c O00C21397   7.621   3.193   5.928  0.3230 -0.2257  1.0476
  1164G12c H00W21398   7.700   3.237   5.900 -0.4008  0.8132  0.6088
  1164G12c C02721399   7.632   3.480   5.894 -0.5757 -0.5221 -0.7032
  1164G12c O00D21400   7.669   3.596   5.831 -0.7152  0.6758  0.5670
  1164G12c H00Z21401   7.737   3.649   5.871 -1.3223  2.7469 -1.0583
  1164G12c C02821402   7.718   3.447   6.000 -0.6904 -0.1013  1.8766
  1164G12c C02921403   7.690   3.477   6.126 -0.0245  1.7370 -1.2552
  1164G12c H01021404   7.594   3.494   6.173 -0.5241 -2.3648 -0.5542
  1164G12c C02T21405   7.786   3.466   6.230 -1.2892 -1.0973  0.0557
  1164G12c H01O21406   7.766   3.527   6.316  4.1555 -1.0402  1.4555
  1164G12c C02S21407   7.914   3.417   6.210 -0.6279 -0.1764 -0.9371
  1164G12c O00J21408   7.994   3.448   6.317 -0.8608 -0.4831  0.2085
  1164G12c H01P21409   8.083   3.419   6.315 -1.5803 -2.7208 -3.4771
  1164G12c C02R21410   7.945   3.386   6.074  0.5165 -0.5391  1.8529
  1164G12c O00I21411   8.072   3.385   6.010 -0.2595  0.0808 -1.1029
  1164G12c C02Q21412   8.130   3.252   5.954  1.2489  0.5665  1.2233
  1164G12c H01N21413   8.071   3.185   6.017 -1.6343  2.7595  1.0082
  1164G12c H01R21414   8.094   3.251   5.851  3.6201  1.5106  0.3504
  1164G12c H01Q21415   8.231   3.222   5.928  0.8324  2.5688 -3.1022
  1164G12c C02A21416   7.847   3.406   5.976 -0.4909 -0.7798  0.4790
  1164G12c H01121417   7.857   3.424   5.870  2.5397  7.8404  1.8042
  1164G12c C00C21418   7.422   3.632   5.674 -0.0176  0.4895  0.8025
  1164G12c H01221419   7.515   3.642   5.620 -0.1421  4.1612  1.1587
  1164G12c C00B21420   7.325   3.732   5.675 -0.5718  1.7367  0.1190
  1164G12c C00A21421   7.348   3.868   5.634 -1.4761  1.4770 -2.6874
  1164G12c C00921422   7.470   3.945   5.620 -0.4726 -0.1132  1.7895
  1164G12c C00821423   7.588   3.934   5.687 -1.8284 -2.3275  0.5771
  1164G12c H01321424   7.622   3.847   5.741  0.8654 -0.7234  1.5843
  1164G12c C00721425   7.674   4.060   5.710 -0.0398 -0.6636  1.8181
  1164G12c H01421426   7.755   4.060   5.782  1.4244 -2.3927  0.2113
  1164G12c C00621427   7.632   4.186   5.642  0.0066 -0.7001  0.6744
  1164G12c C00521428   7.495   4.191   5.606  0.1702 -1.4865  0.2505
  1164G12c C00421429   7.416   4.308   5.640  0.7892 -0.7438  1.2205
  1164G12c C00321430   7.282   4.310   5.595 -0.5940 -0.2227 -0.6108
  1164G12c C00221431   7.207   4.435   5.606  0.6156  2.2339  0.2909
  1164G12c C00121432   7.067   4.474   5.603 -0.9725  0.4395 -1.2073
  1164G12c C00M21433   6.966   4.384   5.644 -0.1461 -1.3168  1.8409
  1164G12c C00L21434   6.961   4.249   5.615 -0.0599 -1.9337  1.7808
  1164G12c C00R21435   6.855   4.151   5.660  0.7253  0.7443  1.3760
  1164G12c C00Q21436   6.762   4.180   5.764  1.1428  1.5830  0.5111
  1164G12c C00V21437   6.700   4.056   5.799 -1.2620  1.0644  0.7476
  1164G12c C00U21438   6.766   3.928   5.766  0.1934 -0.7810  1.3095
  1164G12c C00T21439   6.888   3.917   5.711 -0.3944  0.0828  0.9436
  1164G12c C01621440   6.975   3.812   5.722 -0.3016 -1.8458  0.2798
  1164G12c C01521441   6.926   3.697   5.747 -0.8342  0.2271  0.0410
  1164G12c C01021442   6.784   3.694   5.799 -1.8479  0.3504  0.0591
  1164G12c C01121443   6.732   3.566   5.843 -0.9747 -1.0995 -1.9466
  1164G12c H00521444   6.626   3.548   5.851 -0.4444 -3.4015  0.6901
  1164G12c C01221445   6.817   3.467   5.902 -1.6769 -0.2336  1.3868
  1164G12c C01721446   6.762   3.365   5.992 -0.0508  0.7677 -1.0209
  1164G12c O00221447   6.639   3.310   5.964  1.0289 -0.4893  0.5467
  1164G12c H00421448   6.605   3.280   6.047 -1.7497  1.6514  0.2725
  1164G12c C01821449   6.838   3.328   6.101 -0.6669  1.4375 -0.8256
  1164G12c O00121450   6.962   3.375   6.139  0.9055 -1.1120  0.3510
  1164G12c H00321451   7.034   3.331   6.096  2.7369  2.7409 -0.7463
  1164G12c C01921452   6.764   3.226   6.185  0.1038  0.6276 -2.6309
  1164G12c H00221453   6.763   3.136   6.125  0.2349  0.2128 -2.0143
  1164G12c H00121454   6.824   3.196   6.271 -4.1264  0.9748  0.6570
  1164G12c O00021455   6.633   3.279   6.216  0.4619  0.4276  0.8273
  1164G12c C01A21456   6.559   3.218   6.321  1.7523  1.8401  0.7872
  1164G12c C02K21457   6.568   3.263   6.454  0.1233  0.5349  0.2252
  1164G12c O00G21458   6.649   3.373   6.458 -1.3159 -1.1162 -0.1884
  1164G12c C02M21459   6.703   3.422   6.574 -0.6385 -0.7542  0.6785
  1164G12c H01G21460   6.616   3.453   6.632 -6.9107 -4.3772 -5.9571
  1164G12c H01F21461   6.780   3.364   6.625 -0.7102 -0.8984  0.6221
  1164G12c H01E21462   6.768   3.507   6.554  2.5374 -3.4947 -1.0880
  1164G12c C02J21463   6.498   3.198   6.554 -1.0101 -1.1374 -0.4444
  1164G12c H01H21464   6.490   3.222   6.659  0.4676  0.2075 -0.6265
  1164G12c C02I21465   6.386   3.117   6.503 -0.1254 -0.7293 -0.7428
  1164G12c C02N21466   6.282   3.079   6.606  0.4534 -2.0091  0.2786
  1164G12c H01M21467   6.299   3.112   6.708 -1.5795  6.4305 -1.7337
  1164G12c C02O21468   6.156   3.050   6.588 -1.5460 -0.9376 -0.4108
  1164G12c H01L21469   6.141   3.008   6.489 -4.1826  0.8586 -0.8175
  1164G12c C02P21470   6.044   3.064   6.698 -1.2787  0.1229  0.9675
  1164G12c H01K21471   5.969   2.986   6.683  2.7287 -4.6652  4.3834
  1164G12c H01J21472   6.095   3.072   6.794  2.1657  5.6185 -1.0833
  1164G12c O00H21473   5.989   3.199   6.680  0.3037  1.7597 -1.5952
  1164G12c H01I21474   6.009   3.230   6.592  1.2674  3.7392 -0.7225
  1164G12c C02H21475   6.371   3.064   6.376 -0.7225  1.0106  1.8898
  1164G12c H01C21476   6.277   3.013   6.359  2.2673 -3.6534 -1.8552
  1164G12c C02L21477   6.478   3.106   6.276  0.4332  0.2897  0.0676
  1164G12c H01D21478   6.487   3.069   6.175  2.6438 -1.1692  0.7827
  1164G12c C01321479   6.947   3.480   5.849 -0.1004  0.9823  0.2939
  1164G12c H00021480   6.985   3.379   5.848  0.1138  1.0664 -0.9440
  1164G12c C01421481   7.002   3.582   5.775 -0.0712 -0.9989  1.5028
  1164G12c C00F21482   7.139   3.590   5.748 -2.1086 -1.1378  1.4845
  1164G12c C00H21483   7.095   3.822   5.666 -0.7144 -0.7942  0.7407
  1164G12c C00I21484   7.123   3.934   5.583  0.4869  1.3914  0.8848
  1164G12c C00J21485   7.030   4.043   5.573 -1.0717 -1.4437 -0.0083
  1164G12c C00Z21486   6.718   3.817   5.829  0.6325  0.9579  0.5163
  1164G12c C00Y21487   6.621   3.823   5.923 -0.0834 -0.1091  1.3963
  1164G12c H00621488   6.565   3.739   5.962  2.1382 -2.7922 -0.9735
  1164G12c C00X21489   6.550   3.938   5.959  0.6330 -0.6505  1.0350
  1164G12c O00321490   6.467   3.943   6.066  1.7545 -0.0252  0.2363
  1164G12c C01B21491   6.333   3.972   6.036  0.9486  0.4039 -1.0794
  1164G12c H00921492   6.264   3.937   6.113 -0.9742  0.4529 -2.7330
  1164G12c H00821493   6.299   3.948   5.936 -0.0044  5.9552 -2.2362
  1164G12c H00721494   6.320   4.080   6.038 -0.3133  0.3224 -3.7588
  1164G12c C00W21495   6.590   4.053   5.889 -0.4691  0.8115  0.4463
  1164G12c O00421496   6.534   4.183   5.930 -0.9676  0.3765  0.3922
  1164G12c C01C21497   6.571   4.299   5.887  1.5700 -1.3900  0.9914
  1164G12c H00A21498   6.507   4.382   5.861  2.4995 -2.5770 -5.8718
  1164G12c C00P21499   6.702   4.308   5.811  0.1848  0.6244 -1.8567
  1164G12c C00O21500   6.766   4.438   5.791 -0.8225  1.6628 -0.2839
  1164G12c C01D21501   6.716   4.546   5.873 -0.3812 -0.3136 -0.9869
  1164G12c H00S21502   6.625   4.526   5.928  1.3281  0.4322  2.1792
  1164G12c C01E21503   6.778   4.671   5.882 -2.3445 -0.6633 -1.6335
  1164G12c O00821504   6.723   4.780   5.955  1.0152  1.5235  1.4450
  1164G12c C01V21505   6.606   4.791   6.018  0.8670  0.9412  0.7941
  1164G12c C01Z21506   6.600   4.736   6.170 -0.7139  0.0715 -0.6445
  1164G12c H00R21507   6.589   4.632   6.142  7.3873 -1.2548 -0.2551
  1164G12c H00Q21508   6.693   4.704   6.219  0.4726  0.4764 -2.5689
  1164G12c O00921509   6.530   4.786   6.276 -0.1453 -2.3255  0.5490
  1164G12c H00P21510   6.552   4.788   6.368 -1.3146 -1.3645  0.8219
  1164G12c C01W21511   6.512   4.893   5.989 -1.6371  0.5348 -0.1070
  1164G12c H00O21512   6.436   4.923   6.060 -3.3811 -3.8305  0.0018
  1164G12c C01X21513   6.533   5.006   5.895 -0.6264  1.6807 -0.6150
  1164G12c H00N21514   6.586   5.086   5.947 -2.7550  1.5869  1.7914
  1164G12c H00M21515   6.614   4.979   5.828  3.2934 -0.7684  4.7166
  1164G12c C01Y21516   6.407   5.070   5.807  0.4850  0.6910 -1.0151
  1164G12c C02D21517   6.432   5.145   5.689  1.9229 -1.2266  1.3777
  1164G12c H01921518   6.536   5.144   5.659  2.1400 -4.2294  1.9950
  1164G12c C02C21519   6.328   5.201   5.604 -0.4545  0.7863 -0.0867
  1164G12c H01A21520   6.358   5.261   5.519  4.2466 -1.9712 -0.5359
  1164G12c C02B21521   6.212   5.208   5.674 -0.0092 -1.5150  0.9166
  1164G12c O00E21522   6.131   5.320   5.641 -0.0435  0.7903 -0.2116
  1164G12c H01B21523   6.043   5.286   5.633 -1.0416  3.2230  0.0705
  1164G12c C02F21524   6.182   5.122   5.776  1.2469 -0.1168 -0.2695
  1164G12c O00F21525   6.051   5.120   5.832 -0.6705  0.5383 -0.6495
  1164G12c C02G21526   6.011   5.132   5.971  0.0425 -0.0826 -0.3430
  1164G12c H01721527   6.042   5.064   6.050  1.3094  4.8547  3.6844
  1164G12c H01621528   5.909   5.093   5.971 -2.1476  5.2180  0.4135
  1164G12c H01521529   5.999   5.238   5.993 -2.3970  1.6078 -8.3275
  1164G12c C02E21530   6.282   5.074   5.851  0.8928 -0.2000  1.0853
  1164G12c H01821531   6.263   5.027   5.947 -0.7386 -1.2217  0.3018
  1164G12c C01F21532   6.909   4.682   5.824  0.0116 -0.9752 -1.0004
  1164G12c C01G21533   7.025   4.780   5.859 -1.1647  0.1545 -0.2127
  1164G12c H00L21534   7.016   4.876   5.909  0.3540  2.5045 -4.2694
  1164G12c C01H21535   7.157   4.759   5.796 -0.6037 -0.4083 -0.7379
  1164G12c H00B21536   7.235   4.827   5.826  3.1971 -3.5486 -2.9526
  1164G12c C01I21537   7.162   4.661   5.700  0.1838  0.0704  0.4193
  1164G12c C01U21538   6.942   4.598   5.727 -1.5841  1.2704  1.5797
  1164G12c C00S21539   6.905   4.028   5.632 -1.4049 -0.7279  0.0158
  1164G12c C00K21540   7.066   4.185   5.558  2.2414  0.6030  0.4216
  1164G12c C00N21541   6.875   4.472   5.711 -0.3079  0.1567 -1.6225
  1164G12c C00021542   7.049   4.600   5.647 -0.4168  0.3236  0.8213
  1164G12c C01J21543   7.278   4.553   5.672 -0.3518  0.2533  1.1987
  1164G12c C01K21544   7.413   4.547   5.699  0.3509 -0.3387 -1.5242
  1164G12c C01P21545   7.501   4.656   5.719 -0.8219  0.7521 -0.3411
  1164G12c C01Q21546   7.465   4.782   5.650 -0.1564 -1.5290  0.1355
  1164G12c H00G21547   7.393   4.766   5.572 -0.6671 -1.7280  0.6426
  1164G12c C01R21548   7.509   4.913   5.693 -0.7224 -0.6667 -1.5491
  1164G12c H00F21549   7.602   4.946   5.737 -1.2249 -0.1373 -0.8551
  1164G12c C01S21550   7.437   5.036   5.641 -0.6799 -1.8027  1.1904
  1164G12c H00E21551   7.480   5.108   5.711 -3.0787 -0.7950  1.7059
  1164G12c H00D21552   7.428   5.054   5.534  1.3666  2.7194  1.7013
  1164G12c O00521553   7.303   5.048   5.702 -0.0251  0.2063 -0.2033
  1164G12c H00C21554   7.255   5.127   5.683  3.4428  2.5998  0.2600
  1164G12c C01O21555   7.646   4.637   5.759 -1.0436  1.0948  0.3993
  1164G12c H00H21556   7.711   4.719   5.783  1.8412 -1.8708  3.1603
  1164G12c C01N21557   7.693   4.504   5.776  0.9568  1.7130  0.4999
  1164G12c O00621558   7.823   4.487   5.828  0.5280 -0.3084  1.0150
  1164G12c C01T21559   7.843   4.412   5.959  1.5312 -1.4354  1.8437
  1164G12c H00K21560   7.947   4.385   5.943  1.6504  0.6572 -1.3964
  1164G12c H00J21561   7.816   4.307   5.961 -1.7321 -0.7778 -1.2719
  1164G12c H00I21562   7.805   4.446   6.056 -5.6189 -3.6266  0.1133
  1164G12c C01M21563   7.618   4.406   5.705 -0.7083 -1.2920 -1.3378
  1164G12c C02021564   7.210   4.203   5.539 -0.3166 -1.0635 -0.1935
  1164G12c C02121565   7.288   4.075   5.526  1.2802 -1.8629  1.5080
  1164G12c C01L21566   7.480   4.424   5.691  0.7895 -1.0593 -0.9671
  1164G12c O00721567   7.687   4.284   5.690 -0.3058  1.0875 -0.6167
  1164G12c C02221568   7.426   4.075   5.565  0.4796  0.3446 -1.2858
  1164G12c C02321569   7.250   3.952   5.568  0.7368  0.2967  0.9361
  1164G12c C00G21570   7.182   3.715   5.681 -1.2876  0.6297  0.3756
  1164G12c C00E21571   7.252   3.485   5.768  2.2052  0.0917  0.7219
  1164G12c O00A21572   7.216   3.386   5.842  1.1168  1.1221  0.6376
  1164G12c C02421573   7.229   3.381   5.982  0.9370  0.5518  3.0242
  1164G12c H00V21574   7.145   3.312   5.985 -1.7009  3.5732  1.7045
  1164G12c H00U21575   7.186   3.466   6.036 -3.1767  2.5608 -2.8884
  1164G12c H00T21576   7.318   3.360   6.042  3.2371 -2.9710 -1.2801
  1174G12c C00D21577  11.652   3.307   8.125 -0.3464 -0.1959  1.7535
  1174G12c O00B21578  11.589   3.394   8.033 -0.6411 -0.9002  1.6032
  1174G12c C02521579  11.645   3.502   7.980 -1.6306 -1.1418 -0.0055
  1174G12c C02621580  11.783   3.482   7.900  1.1422  0.4381 -0.2289
  1174G12c H00Y21581  11.796   3.564   7.829 -2.4541 -0.4672 -2.0281
  1174G12c H00X21582  11.747   3.403   7.833 -3.0290  0.5075  1.7879
  1174G12c O00C21583  11.906   3.449   7.957 -0.4005 -1.2948 -0.4312
  1174G12c H00W21584  11.917   3.461   8.050 -2.2962  4.5637 -0.7333
  1174G12c C02721585  11.586   3.618   7.996  1.3084 -1.6078 -0.7131
  1174G12c O00D21586  11.475   3.627   8.077  0.9136 -0.8671 -0.3293
  1174G12c H00Z21587  11.464   3.539   8.111  1.8778 -0.5020  0.9923
  1174G12c C02821588  11.645   3.732   7.959  1.4500  1.3581  1.6603
  1174G12c C02921589  11.766   3.764   8.034  1.1108 -1.4859 -0.4146
  1174G12c H01021590  11.771   3.725   8.134 -3.5035 -1.9256 -0.2810
  1174G12c C02T21591  11.861   3.859   7.982  1.3517  0.6914 -0.0094
  1174G12c H01O21592  11.945   3.915   8.019  3.0813  0.6088 -3.5844
  1174G12c C02S21593  11.822   3.927   7.875 -0.0076 -0.5235 -1.2380
  1174G12c O00J21594  11.898   4.031   7.843  0.6549  1.7676  0.2847
  1174G12c H01P21595  11.851   4.109   7.867 -1.3878 -1.0215  6.4596
  1174G12c C02R21596  11.694   3.915   7.808 -1.0568 -0.9109  2.8759
  1174G12c O00I21597  11.626   3.984   7.703  0.5723  0.3789  0.2006
  1174G12c C02Q21598  11.623   4.124   7.703 -0.7997 -0.6160 -0.9652
  1174G12c H01N21599  11.536   4.154   7.644  1.2779  4.7339 -1.6309
  1174G12c H01R21600  11.700   4.164   7.637 -1.1979  3.9255  1.1192
  1174G12c H01Q21601  11.632   4.198   7.783 -0.0460 -2.7232  0.9283
  1174G12c C02A21602  11.611   3.809   7.844  0.6681  0.7366  1.0640
  1174G12c H01121603  11.513   3.799   7.799  1.8495 -1.6454 -1.1178
  1174G12c C00C21604  11.667   3.357   8.245  1.1611 -0.1961  0.4636
  1174G12c H01221605  11.616   3.450   8.262  0.7770 -0.2255 -0.5204
  1174G12c C00B21606  11.724   3.286   8.340  0.0375  0.7222 -0.0643
  1174G12c C00A21607  11.731   3.329   8.482  1.2768  1.5686  0.7900
  1174G12c C00921608  11.688   3.464   8.541  0.8335  0.1433  2.0712
  1174G12c C00821609  11.607   3.568   8.501 -0.8973 -0.9702  0.7418
  1174G12c H01321610  11.518   3.552   8.443 -1.3518 -0.4292  1.2866
  1174G12c C00721611  11.659   3.700   8.538  1.8101 -0.1949  0.4324
  1174G12c H01421612  11.611   3.786   8.494 -4.9556 -6.3397 -5.7033
  1174G12c C00621613  11.752   3.713   8.640  0.6844  0.0411  0.6843
  1174G12c C00521614  11.823   3.598   8.680 -0.1886 -0.3234 -0.0270
  1174G12c C00421615  11.953   3.597   8.734  1.6419  0.2796  2.1837
  1174G12c C00321616  12.030   3.476   8.761  0.5664 -0.4015  0.4664
  1174G12c C00221617  12.164   3.488   8.820  1.5073  0.0319  0.5080
  1174G12c C00121618  12.259   3.390   8.872  0.7146 -1.1209 -0.3839
  1174G12c C00M21619  12.311   3.290   8.782  0.1960  0.1884 -1.1030
  1174G12c C00L21620  12.229   3.205   8.712  2.3970 -0.5124  0.3401
  1174G12c C00R21621  12.253   3.098   8.632  2.4305  0.8650 -0.0105
  1174G12c C00Q21622  12.372   3.061   8.578  0.2153  0.9206  0.8120
  1174G12c C00V21623  12.369   2.976   8.460 -0.6408  0.4833 -0.0684
  1174G12c C00U21624  12.246   2.974   8.378 -0.6378 -1.2088  0.2123
  1174G12c C00T21625  12.135   3.039   8.422  0.9975  0.4636  1.7637
  1174G12c C01621626  12.016   3.058   8.343 -1.6254 -2.3660 -0.7759
  1174G12c C01521627  12.008   3.009   8.211 -0.9588  1.0758  0.7063
  1174G12c C01021628  12.122   2.925   8.169  1.2388 -0.5705  0.1270
  1174G12c C01121629  12.088   2.859   8.049  0.0676  1.0637  2.1742
  1174G12c H00521630  12.178   2.818   8.005 -2.0974  6.5270 -8.8412
  1174G12c C01221631  11.967   2.859   7.978  0.3367 -1.2941 -0.8193
  1174G12c C01721632  11.953   2.799   7.851  1.1580 -0.2135  0.3708
  1174G12c O00221633  11.886   2.676   7.865 -0.7066  0.4680  0.8572
  1174G12c H00421634  11.915   2.637   7.946 -1.4514  2.3937  2.1136
  1174G12c C01821635  12.021   2.850   7.745  2.3409  2.3251  1.7090
  1174G12c O00121636  12.067   2.743   7.658 -0.1066 -2.2131  0.5444
  1174G12c H00321637  12.133   2.707   7.715  0.3035  1.0868  2.2953
  1174G12c C01921638  12.097   2.972   7.735 -0.7949 -0.4021  1.1013
  1174G12c H00221639  12.102   3.018   7.834  3.7925  4.0625 -0.9372
  1174G12c H00121640  12.075   3.076   7.711 -0.8437  0.5774  4.9747
  1174G12c O00021641  12.228   2.911   7.683  0.1349  0.1295  0.4743
  1174G12c C01A21642  12.344   2.950   7.736 -0.6114 -0.0736 -1.8768
  1174G12c C02K21643  12.398   2.906   7.855  1.0622  0.9907  0.1059
  1174G12c O00G21644  12.377   2.783   7.904  1.2564  0.0672 -1.6753
  1174G12c C02M21645  12.466   2.673   7.907 -0.1641 -0.4724  1.2995
  1174G12c H01G21646  12.536   2.646   7.985 -1.2530  1.4927  3.0063
  1174G12c H01F21647  12.444   2.581   7.851  6.1693 -3.3031  2.9925
  1174G12c H01E21648  12.556   2.734   7.901  1.1537 -2.5397 -8.5213
  1174G12c C02J21649  12.515   2.970   7.913  0.7498  1.0139 -1.3584
  1174G12c H01H21650  12.564   2.929   8.000 -6.2755  0.0317  2.5013
  1174G12c C02I21651  12.583   3.074   7.843  0.7968  1.3639  2.0310
  1174G12c C02N21652  12.706   3.137   7.875  0.6054  0.1550 -0.5532
  1174G12c H01M21653  12.800   3.125   7.823  0.5349 -0.7161 -0.4995
  1174G12c C02O21654  12.708   3.203   7.987  0.5079 -0.0380 -0.2617
  1174G12c H01L21655  12.644   3.253   8.057  2.8243  5.8622 -2.0586
  1174G12c C02P21656  12.817   3.297   8.017  0.1493  0.5429 -0.1328
  1174G12c H01K21657  12.798   3.368   7.936  4.4983 -2.1182 -3.7182
  1174G12c H01J21658  12.810   3.353   8.110  0.3821  3.3617 -1.7573
  1174G12c O00H21659  12.937   3.247   8.014 -1.4041  0.5931  0.9744
  1174G12c H01I21660  13.008   3.305   7.992 -0.5675  0.0814  2.2732
  1174G12c C02H21661  12.522   3.111   7.721 -0.3527  1.1594 -1.4089
  1174G12c H01C21662  12.554   3.202   7.672 -3.3375 -0.2058 -6.2030
  1174G12c C02L21663  12.402   3.060   7.673 -1.3247 -0.1498 -0.4531
  1174G12c H01D21664  12.345   3.095   7.588  1.4816 -3.4544 -3.9134
  1174G12c C01321665  11.861   2.928   8.038  1.1364 -0.8803 -0.3768
  1174G12c H00021666  11.759   2.921   8.002 -0.2483  0.6637  3.0053
  1174G12c C01421667  11.886   3.009   8.154 -1.0551 -1.0996 -0.0690
  1174G12c C00F21668  11.782   3.098   8.184 -0.2750 -0.1864  0.0685
  1174G12c C00H21669  11.910   3.132   8.395  0.9385  0.9615 -1.3140
  1174G12c C00I21670  11.918   3.176   8.537  0.8534  0.9348 -0.1270
  1174G12c C00J21671  12.033   3.139   8.614 -0.0675  1.2759  1.2584
  1174G12c C00Z21672  12.239   2.912   8.251  1.2858  1.5801 -0.0055
  1174G12c C00Y21673  12.333   2.824   8.217  0.3783 -0.3728 -0.0699
  1174G12c H00621674  12.315   2.761   8.131  3.3449  2.3924 -2.9006
  1174G12c C00X21675  12.450   2.826   8.297 -1.4260  0.4513 -2.5513
  1174G12c O00321676  12.534   2.729   8.248 -0.3770  0.3181 -0.1504
  1174G12c C01B21677  12.639   2.670   8.341  1.3576 -0.1843 -0.1906
  1174G12c H00921678  12.604   2.668   8.444  2.2765  0.3372  0.1396
  1174G12c H00821679  12.735   2.721   8.350 -0.0836  4.1556 -5.9316
  1174G12c H00721680  12.647   2.565   8.314  0.0067 -0.2795 -0.2351
  1174G12c C00W21681  12.479   2.927   8.403 -0.4842  0.3976  1.0239
  1174G12c O00421682  12.591   2.925   8.473  0.8506 -0.9084  1.3034
  1174G12c C01C21683  12.624   3.025   8.553 -1.7158 -0.1844 -0.8114
  1174G12c H00A21684  12.715   2.993   8.604 -2.1383 -1.3109 -0.7446
  1174G12c C00P21685  12.514   3.093   8.606 -0.0728  0.5237 -0.8285
  1174G12c C00O21686  12.541   3.218   8.671 -0.6628  1.8334 -0.5540
  1174G12c C01D21687  12.667   3.290   8.656 -0.2016  1.1652  0.5388
  1174G12c H00S21688  12.726   3.256   8.572 -3.7522  2.9684 -2.8998
  1174G12c C01E21689  12.686   3.429   8.683  1.1139  0.0415 -0.0829
  1174G12c O00821690  12.786   3.500   8.625  0.3495  2.4610  0.4304
  1174G12c C01V21691  12.751   3.580   8.520 -2.1217 -0.5474  1.9121
  1174G12c C01Z21692  12.836   3.696   8.528 -0.4454 -0.7615  0.3718
  1174G12c H00R21693  12.809   3.719   8.631  4.2541 -4.0188  2.5320
  1174G12c H00Q21694  12.932   3.649   8.505  0.6006 -0.0601  3.1686
  1174G12c O00921695  12.872   3.816   8.449  0.1079 -0.1885  1.4011
  1174G12c H00P21696  12.954   3.861   8.464 -1.1776  2.1452  1.4749
  1174G12c C01W21697  12.663   3.565   8.419  0.0849 -1.1903 -0.0340
  1174G12c H00O21698  12.630   3.465   8.397  4.5491 -4.0359  4.9145
  1174G12c C01X21699  12.639   3.673   8.335 -0.2285  0.2940 -0.4252
  1174G12c H00N21700  12.674   3.766   8.379  1.6168 -0.5197 -0.1128
  1174G12c H00M21701  12.693   3.663   8.241  2.1082 -1.6698  1.0444
  1174G12c C01Y21702  12.480   3.694   8.326  1.0793 -0.3897  0.4069
  1174G12c C02D21703  12.393   3.607   8.260  0.7515 -1.0146 -0.3127
  1174G12c H01921704  12.439   3.518   8.218  6.2119  0.5650  1.8961
  1174G12c C02C21705  12.249   3.637   8.235  0.6125  1.6830  0.5822
  1174G12c H01A21706  12.206   3.564   8.169 -6.7144  1.3620  5.1480
  1174G12c C02B21707  12.198   3.756   8.307 -0.3589  0.5486  0.1467
  1174G12c O00E21708  12.078   3.813   8.289 -0.4861  1.7140 -0.6465
  1174G12c H01B21709  12.079   3.880   8.355  0.5703  1.4822 -0.4037
  1174G12c C02F21710  12.286   3.847   8.387  0.3289  1.3405 -1.2522
  1174G12c O00F21711  12.229   3.949   8.438  1.5996  0.5862  1.0632
  1174G12c C02G21712  12.292   4.072   8.467 -0.4408  0.9802 -0.4743
  1174G12c H01721713  12.374   4.056   8.538  1.1169  0.0381 -2.4437
  1174G12c H01621714  12.221   4.149   8.496 -1.7224  0.7099 -2.7968
  1174G12c H01521715  12.344   4.099   8.375  1.7965 -8.8590 -2.7371
  1174G12c C02E21716  12.425   3.820   8.379  1.0713  0.4415 -1.2525
  1174G12c H01821717  12.482   3.864   8.460  0.8043  3.3778 -2.6052
  1174G12c C01F21718  12.587   3.503   8.758 -1.3471 -2.5414 -2.4710
  1174G12c C01G21719  12.581   3.651   8.793  0.6438  0.6716 -0.3887
  1174G12c H00L21720  12.634   3.734   8.750  3.2246 -0.0764  1.1831
  1174G12c C01H21721  12.467   3.722   8.859 -1.5916 -1.1717  0.6739
  1174G12c H00B21722  12.456   3.825   8.830  0.7181 -0.9907  0.3300
  1174G12c C01I21723  12.360   3.619   8.873 -1.5499  1.8237  0.4280
  1174G12c C01U21724  12.495   3.426   8.816 -0.4303  0.6692 -1.4855
  1174G12c C00S21725  12.143   3.072   8.556 -1.1565 -1.2457 -1.2506
  1174G12c C00K21726  12.089   3.246   8.690 -0.6551  0.0103  0.7557
  1174G12c C00N21727  12.449   3.300   8.752  1.8555  0.3821  0.5664
  1174G12c C00021728  12.384   3.472   8.892  0.8485  1.1115 -0.5630
  1174G12c C01J21729  12.213   3.629   8.837 -1.6396  0.5270 -0.4358
  1174G12c C01K21730  12.130   3.745   8.833 -0.7668  0.1153  0.9845
  1174G12c C01P21731  12.157   3.881   8.881 -0.3654  1.4072  0.6462
  1174G12c C01Q21732  12.262   3.893   8.981  0.7246  1.2447  0.4322
  1174G12c H00G21733  12.338   3.819   9.002  3.5464  4.3185  1.5456
  1174G12c C01R21734  12.251   3.992   9.077 -0.2165  0.0728  0.7558
  1174G12c H00F21735  12.204   4.089   9.081  0.2410  0.2525  2.1850
  1174G12c C01S21736  12.301   3.954   9.219  0.9961  0.3809 -0.0617
  1174G12c H00E21737  12.278   3.847   9.219  0.8858  0.4033 -0.9801
  1174G12c H00D21738  12.402   3.959   9.260  0.1208  4.3850  1.8410
  1174G12c O00521739  12.224   4.025   9.312  1.2659  1.2849 -0.6106
  1174G12c H00C21740  12.272   4.035   9.392  8.3351 -5.0393 -3.5273
  1174G12c C01O21741  12.084   3.986   8.852  1.1759  0.1391  0.2454
  1174G12c H00H21742  12.087   4.077   8.909 -1.9836 -1.2547  2.8087
  1174G12c C01N21743  11.970   3.972   8.776  0.0982  0.8108  0.8269
  1174G12c O00621744  11.875   4.063   8.777 -0.3960 -1.0090 -1.0745
  1174G12c C01T21745  11.860   4.121   8.646  0.4505  0.1123 -1.1611
  1174G12c H00K21746  11.952   4.177   8.629  0.1653  1.1251  0.5667
  1174G12c H00J21747  11.779   4.192   8.664  3.4828  3.5983 -0.5849
  1174G12c H00I21748  11.854   4.042   8.571  4.7576 -0.7411 -0.7483
  1174G12c C01M21749  11.922   3.838   8.749 -0.5081  1.2849 -0.0769
  1174G12c C02021750  12.000   3.359   8.704  0.2536 -0.4631  0.6036
  1174G12c C02121751  11.882   3.360   8.650 -1.5160 -0.8951 -2.1141
  1174G12c C01L21752  12.000   3.712   8.780 -0.1819 -0.9812  0.9294
  1174G12c O00721753  11.797   3.835   8.679 -0.0158  0.4807  0.4404
  1174G12c C02221754  11.800   3.472   8.638  1.0432  0.5643  0.2226
  1174G12c C02321755  11.815   3.270   8.580 -2.0806 -0.6147 -1.4422
  1174G12c C00G21756  11.796   3.168   8.308 -0.7444  0.3106 -1.0462
  1174G12c C00E21757  11.697   3.175   8.086  1.1194 -1.4118 -0.0689
  1174G12c O00A21758  11.667   3.114   7.951  0.3983  1.8378 -0.0638
  1174G12c C02421759  11.541   3.095   7.893 -1.2560 -1.9281 -0.7031
  1174G12c H00V21760  11.491   3.184   7.932 -0.4703 -3.1866  3.4022
  1174G12c H00U21761  11.487   3.002   7.910 -0.6158 -2.3272 -0.8343
  1174G12c H00T21762  11.542   3.114   7.785 -1.6162 -3.0126 -0.9006
  1184G12c C00D21763   9.002   1.719   5.762  1.0045 -0.0376 -0.8020
  1184G12c O00B21764   9.086   1.674   5.839 -0.1233  0.8891 -0.5313
  1184G12c C02521765   9.063   1.705   5.967  0.0068 -1.5297 -0.0718
  1184G12c C02621766   8.937   1.681   6.058  1.1481 -0.0091  0.3470
  1184G12c H00Y21767   8.963   1.606   6.133 -1.8740  2.3955  3.9854
  1184G12c H00X21768   8.871   1.624   5.993  3.2114 -1.8116 -0.2430
  1184G12c O00C21769   8.865   1.790   6.115  0.8121  1.9708  1.5915
  1184G12c H00W21770   8.877   1.871   6.067 -1.7139  2.8126  2.2868
  1184G12c C02721771   9.179   1.754   6.022 -2.1607 -1.0999  1.0703
  1184G12c O00D21772   9.298   1.730   5.967 -0.5052  0.0025  0.1150
  1184G12c H00Z21773   9.288   1.674   5.891  4.8775  1.6140 -2.0422
  1184G12c C02821774   9.174   1.850   6.141 -0.7744  0.3418 -0.1629
  1184G12c C02921775   9.272   1.844   6.245  0.9688  1.6922 -0.9538
  1184G12c H01021776   9.343   1.764   6.233 -2.2709 -0.9708 -3.6705
  1184G12c C02T21777   9.266   1.934   6.350  0.1000 -0.8516  0.8613
  1184G12c H01O21778   9.345   1.924   6.423 -0.6445  3.4658  2.4050
  1184G12c C02S21779   9.158   2.024   6.369 -1.1295  1.2128  0.9810
  1184G12c O00J21780   9.174   2.109   6.478  0.5635  0.4683 -0.7217
  1184G12c H01P21781   9.259   2.146   6.462  0.0922  0.6438 -3.0128
  1184G12c C02R21782   9.061   2.047   6.266 -2.3849 -0.5124 -1.3426
  1184G12c O00I21783   9.004   2.169   6.234  0.0494  0.5019 -0.9189
  1184G12c C02Q21784   8.874   2.170   6.173  2.3007  1.5774 -0.2401
  1184G12c H01N21785   8.842   2.076   6.216  1.5376  0.5253 -3.0150
  1184G12c H01R21786   8.872   2.180   6.065 -1.3409  1.3302 -0.2611
  1184G12c H01Q21787   8.815   2.244   6.228 -3.2149 -4.4236  2.5248
  1184G12c C02A21788   9.087   1.958   6.152 -0.5095  1.6661 -0.5219
  1184G12c H01121789   9.042   1.995   6.061 -0.7857  4.8107  0.8178
  1184G12c C00C21790   9.039   1.854   5.738  1.6394  0.2008 -0.3059
  1184G12c H01221791   9.133   1.879   5.786  1.8861  1.7509 -1.5083
  1184G12c C00B21792   8.972   1.931   5.642  2.2115  1.4522 -0.2245
  1184G12c C00A21793   9.001   2.058   5.572 -0.6026  0.0879 -1.2618
  1184G12c C00921794   9.090   2.166   5.601 -0.9392 -1.7817  0.9628
  1184G12c C00821795   9.138   2.194   5.718  0.0893  1.2861 -1.6565
  1184G12c H01321796   9.167   2.124   5.795  1.6866 -2.0345 -5.0562
  1184G12c C00721797   9.156   2.337   5.760 -0.0158  0.8965 -1.3415
  1184G12c H01421798   9.198   2.369   5.854 -7.6062  5.3863  0.9759
  1184G12c C00621799   9.072   2.427   5.688 -0.3289 -0.4344 -1.6723
  1184G12c C00521800   9.010   2.389   5.568 -1.2388 -0.3571  1.0319
  1184G12c C00421801   8.931   2.494   5.511 -2.0480  0.3461 -1.6002
  1184G12c C00321802   8.846   2.441   5.411  0.7034  0.3550 -0.5390
  1184G12c C00221803   8.727   2.516   5.359 -0.6735 -0.0670  0.5660
  1184G12c C00121804   8.638   2.509   5.246 -0.6063  0.4991  1.7841
  1184G12c C00M21805   8.541   2.410   5.230  0.8070 -0.7511 -0.4478
  1184G12c C00L21806   8.593   2.274   5.262  0.0267  0.3039 -0.9083
  1184G12c C00R21807   8.513   2.164   5.272 -1.1563 -0.5617  1.5178
  1184G12c C00Q21808   8.369   2.158   5.269  0.4660 -3.5499 -1.8800
  1184G12c C00V21809   8.322   2.037   5.328  0.0030 -3.3680 -0.2347
  1184G12c C00U21810   8.413   1.945   5.375 -0.5189 -0.3903  0.6213
  1184G12c C00T21811   8.548   1.960   5.372 -0.0577 -0.5281 -0.7601
  1184G12c C01621812   8.644   1.885   5.434  0.9417 -0.6563  1.2851
  1184G12c C01521813   8.601   1.768   5.484  1.0792 -1.1557 -0.4427
  1184G12c C01021814   8.472   1.737   5.465  2.2574 -0.6316  2.3232
  1184G12c C01121815   8.435   1.606   5.520 -1.2014  0.8323  0.9564
  1184G12c H00521816   8.333   1.570   5.515 -1.2902  0.8713  2.3856
  1184G12c C01221817   8.520   1.502   5.550 -0.0657  0.2624  1.0933
  1184G12c C01721818   8.499   1.363   5.600 -0.3409  0.6829  0.9379
  1184G12c O00221819   8.374   1.367   5.668  0.2925  0.9734 -0.0070
  1184G12c H00421820   8.400   1.360   5.758  5.2155  0.5978 -1.3514
  1184G12c C01821821   8.539   1.246   5.542 -1.1810 -0.3919 -1.4237
  1184G12c O00121822   8.634   1.244   5.461 -0.4737  0.9665 -1.2465
  1184G12c H00321823   8.601   1.297   5.390  1.7794 -1.0060 -3.8808
  1184G12c C01921824   8.487   1.107   5.578 -0.1938  1.7362  0.2818
  1184G12c H00221825   8.552   1.022   5.556 -1.2147  1.6425 -2.5995
  1184G12c H00121826   8.402   1.095   5.510  1.9707  3.8632 -2.9294
  1184G12c O00021827   8.434   1.086   5.708 -0.0743 -0.1305 -0.1301
  1184G12c C01A21828   8.352   0.968   5.740  0.0161  1.0701  0.2215
  1184G12c C02K21829   8.224   0.974   5.704  1.0810 -0.9510 -1.0608
  1184G12c O00G21830   8.168   1.086   5.643  0.1976  0.3473  0.0565
  1184G12c C02M21831   8.142   1.187   5.732  0.4155  0.1220  0.7309
  1184G12c H01G21832   8.036   1.167   5.751 -0.0131  1.1447 -0.5455
  1184G12c H01F21833   8.155   1.288   5.692  1.3853  0.2764  1.4236
  1184G12c H01E21834   8.203   1.189   5.822 -2.0092  2.4594  2.3864
  1184G12c C02J21835   8.133   0.882   5.754  0.7415 -0.5029  2.2261
  1184G12c H01H21836   8.027   0.897   5.761  0.9413  3.9453 -1.6731
  1184G12c C02I21837   8.182   0.784   5.869  0.3046 -2.0389  0.7789
  1184G12c C02N21838   8.089   0.707   5.932 -2.2620 -1.7442  0.8501
  1184G12c H01M21839   7.986   0.719   5.962 -1.3332 -0.9511  3.9009
  1184G12c C02O21840   8.134   0.587   5.987 -0.2753 -0.4781 -0.5514
  1184G12c H01L21841   8.236   0.552   6.000 -0.5264  0.6507  5.7164
  1184G12c C02P21842   8.028   0.494   6.040 -0.3698  0.8829 -0.2281
  1184G12c H01K21843   7.921   0.508   6.034 -0.2822  4.0827  3.6144
  1184G12c H01J21844   8.023   0.385   6.034  1.7164  0.2874  5.7054
  1184G12c O00H21845   8.049   0.507   6.178  0.4109  0.1208  0.2012
  1184G12c H01I21846   8.126   0.561   6.169 -0.2449  1.4107  1.9620
  1184G12c C02H21847   8.319   0.776   5.886  0.4542 -0.3327  0.2331
  1184G12c H01C21848   8.383   0.704   5.935 -0.6392 -3.4029 -2.6565
  1184G12c C02L21849   8.402   0.881   5.825  0.2543  2.0118 -0.0123
  1184G12c H01D21850   8.507   0.900   5.842  1.3561 -3.9282  0.9832
  1184G12c C01321851   8.650   1.545   5.571 -0.0497 -0.7445  0.3985
  1184G12c H00021852   8.697   1.476   5.640 -2.8360 -0.8266  2.2963
  1184G12c C01421853   8.694   1.683   5.541  0.3898  0.9112 -0.6272
  1184G12c C00F21854   8.814   1.735   5.610  1.3116 -0.3336  1.1265
  1184G12c C00H21855   8.764   1.933   5.475  0.1982  0.9980  0.3083
  1184G12c C00I21856   8.804   2.041   5.408 -1.0593 -1.1402 -0.4647
  1184G12c C00J21857   8.714   2.104   5.315 -0.6762 -0.0871 -0.5169
  1184G12c C00Z21858   8.371   1.829   5.429 -2.0417 -0.6061  0.2417
  1184G12c C00Y21859   8.232   1.781   5.422 -1.1319  0.1824  1.8044
  1184G12c H00621860   8.195   1.680   5.433 -1.5350  0.4418  2.8594
  1184G12c C00X21861   8.147   1.887   5.404  0.7652 -0.9622  0.3552
  1184G12c O00321862   8.017   1.836   5.416 -1.3389  0.4697  0.4915
  1184G12c C01B21863   7.972   1.841   5.548  0.1555 -1.7027 -0.0583
  1184G12c H00921864   8.040   1.817   5.631 -0.0177  0.4780  0.7515
  1184G12c H00821865   7.894   1.765   5.557 -3.9257  2.4096  0.8674
  1184G12c H00721866   7.926   1.934   5.582  5.1344  2.6827 -4.4192
  1184G12c C00W21867   8.181   2.017   5.340 -1.1421 -0.1672  0.1810
  1184G12c O00421868   8.078   2.119   5.331  0.7578  0.3736 -0.3105
  1184G12c C01C21869   8.128   2.204   5.241  1.7198  0.8250 -0.5934
  1184G12c H00A21870   8.048   2.260   5.195 -0.3837 -3.4112 -2.3768
  1184G12c C00P21871   8.267   2.256   5.245  1.3607  0.9060 -0.0134
  1184G12c C00O21872   8.293   2.386   5.240  0.3951 -1.3553  1.7133
  1184G12c C01D21873   8.183   2.482   5.257 -0.2483  1.4472 -1.1665
  1184G12c H00S21874   8.083   2.444   5.276  2.4961 -4.4664  2.9825
  1184G12c C01E21875   8.201   2.623   5.315  0.2642  0.3302  0.3250
  1184G12c O00821876   8.091   2.706   5.339  1.3097 -0.4156 -0.2805
  1184G12c C01V21877   8.036   2.770   5.214  0.4258 -0.8097  0.7122
  1184G12c C01Z21878   7.896   2.769   5.214 -1.4407  0.9504  1.4160
  1184G12c H00R21879   7.880   2.876   5.230  4.8773  1.6248  4.5039
  1184G12c H00Q21880   7.870   2.746   5.111  3.5989 -4.9681  1.1858
  1184G12c O00921881   7.853   2.690   5.319 -0.1710  1.5576  1.0928
  1184G12c H00P21882   7.892   2.729   5.395 -0.3146 -4.8740  4.7946
  1184G12c C01W21883   8.116   2.812   5.101  0.5399 -0.1400  0.0998
  1184G12c H00O21884   8.222   2.800   5.116  0.0328 -3.7681  1.3732
  1184G12c C01X21885   8.087   2.889   4.975  0.4734 -0.0391  1.5424
  1184G12c H00N21886   8.029   2.832   4.903 -0.0091  4.8010 -2.1714
  1184G12c H00M21887   8.047   2.990   4.991  2.0601  0.3638  3.1115
  1184G12c C01Y21888   8.190   2.874   4.875 -0.1430 -0.1427 -0.7500
  1184G12c C02D21889   8.252   2.744   4.857  1.2191  0.1415 -0.2110
  1184G12c H01921890   8.228   2.656   4.916  1.8322 -0.3170 -0.6417
  1184G12c C02C21891   8.330   2.734   4.754  0.2672  0.9019  0.2299
  1184G12c H01A21892   8.396   2.651   4.774  2.9435  0.3022 -8.7889
  1184G12c C02B21893   8.348   2.828   4.648  0.9798  0.1572 -0.1186
  1184G12c O00E21894   8.425   2.787   4.530 -0.4641  0.5743 -0.3745
  1184G12c H01B21895   8.436   2.864   4.476 -2.2912 -2.8847 -5.9930
  1184G12c C02F21896   8.282   2.957   4.671 -1.4494 -0.7833  0.9012
  1184G12c O00F21897   8.282   3.065   4.581 -1.8096 -0.7739 -0.1036
  1184G12c C02G21898   8.175   3.093   4.471  1.5669 -0.0405  0.1002
  1184G12c H01721899   8.108   3.163   4.523 -2.2632 -0.8235 -3.5193
  1184G12c H01621900   8.129   3.002   4.432 -3.4244  1.4536  2.0580
  1184G12c H01521901   8.219   3.142   4.384  1.0764  0.9256  0.3811
  1184G12c C02E21902   8.211   2.966   4.787  0.2797 -0.7130  0.1120
  1184G12c H01821903   8.197   3.069   4.817  4.2333  0.4230 -1.5759
  1184G12c C01F21904   8.336   2.668   5.332 -1.2251  0.8198  0.8875
  1184G12c C01G21905   8.372   2.757   5.443 -0.5486 -0.6573  1.1227
  1184G12c H00L21906   8.277   2.793   5.478  0.3469 -0.2391  3.1663
  1184G12c C01H21907   8.501   2.778   5.460  0.8437 -1.2059  0.4896
  1184G12c H00B21908   8.519   2.831   5.553 -4.6645 -2.0565  2.2134
  1184G12c C01I21909   8.587   2.690   5.384 -2.2097  2.1674  1.2573
  1184G12c C01U21910   8.429   2.600   5.249  0.5639  1.5375  0.0672
  1184G12c C00S21911   8.593   2.048   5.286  0.3416  0.9142 -0.7142
  1184G12c C00K21912   8.717   2.240   5.312  0.0213 -2.1830 -0.5675
  1184G12c C00N21913   8.408   2.458   5.221  0.0828 -0.6649  0.1747
  1184G12c C00021914   8.562   2.635   5.264 -1.0204 -0.7693  0.2797
  1184G12c C01J21915   8.722   2.642   5.417  1.7100 -1.4903 -0.4263
  1184G12c C01K21916   8.798   2.704   5.526  0.2106 -1.4071 -0.7200
  1184G12c C01P21917   8.813   2.843   5.579 -0.7157 -0.6737  1.7198
  1184G12c C01Q21918   8.720   2.944   5.559  0.4968  1.8911 -1.0946
  1184G12c H00G21919   8.650   2.984   5.632  1.5993  2.3235 -0.2655
  1184G12c C01R21920   8.729   2.994   5.432  0.7516 -0.9870 -0.8004
  1184G12c H00F21921   8.819   2.967   5.378 -2.5738 -3.6594 -5.3871
  1184G12c C01S21922   8.656   3.111   5.353 -0.5501 -1.7939 -0.2582
  1184G12c H00E21923   8.716   3.185   5.302 -5.2782  0.3558 -3.0484
  1184G12c H00D21924   8.572   3.077   5.292 -1.1818  4.4071 -3.2364
  1184G12c O00521925   8.595   3.195   5.441  0.2163  0.6020 -1.3555
  1184G12c H00C21926   8.518   3.209   5.388 -1.9664 -0.6720  1.4163
  1184G12c C01O21927   8.917   2.862   5.678 -0.5111 -0.4108  1.0953
  1184G12c H00H21928   8.903   2.949   5.741  1.4042  4.1081 -4.2943
  1184G12c C01N21929   9.013   2.780   5.717  1.0881  0.3774  1.8451
  1184G12c O00621930   9.115   2.817   5.798 -0.7955  0.0115 -0.0746
  1184G12c C01T21931   9.138   2.732   5.914 -0.6714 -1.0873 -0.0757
  1184G12c H00K21932   9.050   2.667   5.908  2.1947 -5.2815  1.2689
  1184G12c H00J21933   9.132   2.795   6.003  0.9254 -0.9025 -0.0927
  1184G12c H00I21934   9.228   2.671   5.924  0.8815  1.5577  3.4032
  1184G12c C01M21935   8.986   2.648   5.671  0.9323  0.1010  0.5553
  1184G12c C02021936   8.843   2.305   5.370 -1.0408  1.2467 -1.3778
  1184G12c C02121937   8.950   2.227   5.415 -0.0804 -0.9425 -0.4672
  1184G12c C01L21938   8.896   2.613   5.581 -1.0221  0.2134  0.6006
  1184G12c O00721939   9.077   2.561   5.722  0.2147  1.6176 -0.3956
  1184G12c C02221940   9.037   2.268   5.509  0.5174  0.3118 -1.6053
  1184G12c C02321941   8.929   2.082   5.441 -1.2387  1.3624 -1.7749
  1184G12c C00G21942   8.848   1.861   5.584 -0.5336 -1.3989 -0.6665
  1184G12c C00E21943   8.894   1.651   5.690  0.3826 -0.6933 -0.9827
  1184G12c O00A21944   8.931   1.525   5.674  0.8034 -0.9633 -2.6006
  1184G12c C02421945   9.011   1.476   5.558 -0.4832  0.6759 -0.2092
  1184G12c H00V21946   8.966   1.485   5.460  1.9266  3.4332 -1.1176
  1184G12c H00U21947   9.011   1.367   5.559 -5.3767  0.5708  0.0242
  1184G12c H00T21948   9.085   1.541   5.511 -2.4988  1.5749 -2.2152
  1194G12c C00D21949   1.004   1.699   1.986 -0.6130 -0.8876  2.2766
  1194G12c O00B21950   1.114   1.774   1.931  0.0675 -0.0809 -0.2651
  1194G12c C02521951   1.241   1.802   1.971 -0.8440 -0.4913 -0.3851
  1194G12c C02621952   1.354   1.734   1.891  1.3475  0.5237 -1.0448
  1194G12c H00Y21953   1.415   1.694   1.972 -2.8410 -1.0163  1.4676
  1194G12c H00X21954   1.379   1.806   1.813  2.4039  2.8287  1.3589
  1194G12c O00C21955   1.307   1.617   1.846  0.5626 -0.7122 -0.3990
  1194G12c H00W21956   1.218   1.633   1.873 -1.1164  1.3095 -6.3021
  1194G12c C02721957   1.271   1.834   2.107 -1.5693  0.7910  0.6501
  1194G12c O00D21958   1.160   1.869   2.191  0.4510  1.0660 -1.3175
  1194G12c H00Z21959   1.102   1.898   2.123 -4.1269  8.0992  4.7198
  1194G12c C02821960   1.400   1.840   2.184 -1.6299 -1.4027  0.4595
  1194G12c C02921961   1.527   1.897   2.139 -0.1235 -0.9353  1.7346
  1194G12c H01021962   1.539   1.942   2.041  6.3427 -2.8354  1.3852
  1194G12c C02T21963   1.641   1.917   2.212  0.7969  0.6374  0.8997
  1194G12c H01O21964   1.724   1.966   2.161 -3.9110  5.3425 -2.8228
  1194G12c C02S21965   1.620   1.912   2.358  1.4164 -2.2777 -0.2226
  1194G12c O00J21966   1.730   1.944   2.426 -0.6562 -0.2376 -1.9828
  1194G12c H01P21967   1.776   1.862   2.435 -1.4428 -0.4576  0.5261
  1194G12c C02R21968   1.512   1.854   2.416 -0.1066  0.4805  0.5966
  1194G12c O00I21969   1.526   1.807   2.540 -1.2204  0.8472 -0.2010
  1194G12c C02Q21970   1.416   1.741   2.605 -0.9421 -0.5356  0.0690
  1194G12c H01N21971   1.340   1.686   2.549 -1.1996  2.3796 -2.6019
  1194G12c H01R21972   1.399   1.805   2.691 -3.1790 -4.6315  2.8327
  1194G12c H01Q21973   1.486   1.689   2.670  1.0705 -4.2401 -4.7148
  1194G12c C02A21974   1.401   1.807   2.325  0.8380 -2.6957 -2.2912
  1194G12c H01121975   1.334   1.742   2.379  2.0335 -2.3823 -0.3671
  1194G12c C00C21976   1.013   1.619   2.091 -0.9679 -1.8122  1.3211
  1194G12c H01221977   1.108   1.654   2.127 -3.4125  5.4266  1.4498
  1194G12c C00B21978   0.905   1.552   2.141  0.1456  0.6371  0.3784
  1194G12c C00A21979   0.918   1.469   2.249 -0.7598  1.1386 -0.9381
  1194G12c C00921980   1.035   1.382   2.277  2.0235 -0.8965  0.5529
  1194G12c C00821981   1.152   1.372   2.214  0.5991 -0.7723  1.6615
  1194G12c H01321982   1.213   1.451   2.172  2.3301 -2.5039  0.8662
  1194G12c C00721983   1.219   1.245   2.203  0.2533  1.1582 -1.0815
  1194G12c H01421984   1.318   1.203   2.195  1.6454  1.7504  7.6348
  1194G12c C00621985   1.163   1.135   2.296  0.5324  2.3160 -0.1967
  1194G12c C00521986   1.036   1.154   2.336  0.3604 -0.1154  0.0529
  1194G12c C00421987   0.954   1.045   2.388 -0.3020 -0.0590 -0.1948
  1194G12c C00321988   0.812   1.073   2.408  0.6657  2.0463 -0.0683
  1194G12c C00221989   0.740   0.951   2.453  0.3984 -0.6665  0.7305
  1194G12c C00121990   0.597   0.922   2.467  1.0622 -0.3452  1.9867
  1194G12c C00M21991   0.496   0.973   2.369 -0.0357  1.1958  1.7468
  1194G12c C00L21992   0.488   1.100   2.321 -1.0829 -0.3759 -0.8114
  1194G12c C00R21993   0.422   1.164   2.217 -0.0767  0.8735  1.2937
  1194G12c C00Q21994   0.330   1.103   2.127 -1.9837 -0.2772  0.2482
  1194G12c C00V21995   0.313   1.195   2.014  0.1199 -2.0013 -0.4680
  1194G12c C00U21996   0.370   1.322   1.995 -0.3441  0.3476  0.6549
  1194G12c C00T21997   0.450   1.375   2.087 -1.8160  0.9552  0.7956
  1194G12c C01621998   0.542   1.479   2.057 -1.2720  0.4347  0.2887
  1194G12c C01521999   0.534   1.543   1.942 -1.0861  2.2147  0.8464
  1194G12c C01022000   0.420   1.532   1.877  0.4001 -1.1650  0.9279
  1194G12c C01122001   0.350   1.620   1.795 -0.0037 -0.1525 -1.1470
  1194G12c H00522002   0.257   1.614   1.741 -1.7032 -2.3563  1.8401
  1194G12c C01222003   0.450   1.725   1.750  0.3284 -1.2350  1.3805
  1194G12c C01722004   0.428   1.804   1.620 -1.0092 -0.8816  1.0058
  1194G12c O00222005   0.312   1.881   1.609 -0.0852  0.1766  0.0633
  1194G12c H00422006   0.243   1.828   1.572 -0.7149  2.9766 -2.9859
  1194G12c C01822007   0.497   1.753   1.522  0.9398 -0.8219 -1.5513
  1194G12c O00122008   0.589   1.665   1.545 -0.1913 -0.5234  0.8669
  1194G12c H00322009   0.653   1.660   1.476 -9.1171 -2.0404 -8.5220
  1194G12c C01922010   0.508   1.789   1.384 -1.1360  1.0438 -0.3982
  1194G12c H00222011   0.441   1.874   1.396  2.1255  4.3194 -4.0568
  1194G12c H00122012   0.610   1.814   1.357 -3.0526  4.3140 -5.2467
  1194G12c O00022013   0.472   1.670   1.311  0.3214  1.2421 -1.2081
  1194G12c C01A22014   0.360   1.676   1.224 -0.3086  0.2132  0.0319
  1194G12c C02K22015   0.352   1.543   1.161  0.1290 -0.1680 -0.1852
  1194G12c O00G22016   0.371   1.422   1.209 -0.1580 -0.0449 -1.1501
  1194G12c C02M22017   0.267   1.338   1.243 -0.0472  0.5527  0.0859
  1194G12c H01G22018   0.170   1.338   1.193 -1.7644  3.5473  3.2367
  1194G12c H01F22019   0.265   1.357   1.350 -4.4971 -0.4994  0.2950
  1194G12c H01E22020   0.306   1.237   1.228  2.4206  1.9336 -3.8046
  1194G12c C02J22021   0.326   1.537   1.019 -1.2589 -1.0476  0.8343
  1194G12c H01H22022   0.325   1.439   0.975 -2.5483 -1.4719  1.7686
  1194G12c C02I22023   0.294   1.645   0.938 -1.7025  1.3128 -0.8990
  1194G12c C02N22024   0.278   1.643   0.797  0.0082 -0.9146  0.3900
  1194G12c H01M22025   0.205   1.583   0.744  0.5504 -3.3276  2.2845
  1194G12c C02O22026   0.369   1.697   0.709  1.5896  1.7616  0.0923
  1194G12c H01L22027   0.444   1.756   0.760  1.4925 -1.5000  4.2629
  1194G12c C02P22028   0.358   1.706   0.563 -0.7150  0.2439  1.0167
  1194G12c H01K22029   0.379   1.605   0.527  1.2860  1.0601 -0.1673
  1194G12c H01J22030   0.269   1.744   0.514 -0.2770  1.7580  1.3794
  1194G12c O00H22031   0.500   1.778   0.527 -0.9379 -0.3024 -0.7018
  1194G12c H01I22032   0.542   1.841   0.583 -2.2833  0.7838 -0.9117
  1194G12c C02H22033   0.312   1.775   1.000  0.5766  2.0125 -0.8140
  1194G12c H01C22034   0.304   1.863   0.938 -2.8973  4.4284  2.8356
  1194G12c C02L22035   0.314   1.775   1.138  0.8719 -1.0777  1.0187
  1194G12c H01D22036   0.333   1.875   1.176  1.0195 -0.9639  0.6485
  1194G12c C01322037   0.579   1.748   1.819 -0.4872  1.2424 -0.1447
  1194G12c H00022038   0.628   1.824   1.761 -2.5373  2.5256 -0.2294
  1194G12c C01422039   0.634   1.643   1.907 -0.8285 -0.4319 -1.0348
  1194G12c C00F22040   0.763   1.642   1.960  1.2605  1.0663 -0.5442
  1194G12c C00H22041   0.665   1.496   2.128  0.5500 -0.5888  0.1004
  1194G12c C00I22042   0.686   1.420   2.241 -0.3070  1.8973 -1.2287
  1194G12c C00J22043   0.575   1.323   2.270 -2.5926 -0.9340 -0.4131
  1194G12c C00Z22044   0.347   1.397   1.883 -2.9549 -0.7446 -0.7957
  1194G12c C00Y22045   0.310   1.329   1.761  2.7901 -0.8741  1.5422
  1194G12c H00622046   0.299   1.381   1.667  0.9374 -2.6924  0.7140
  1194G12c C00X22047   0.237   1.206   1.779 -1.1259  0.6874  0.9611
  1194G12c O00322048   0.154   1.150   1.685 -1.3565  0.1137  0.3502
  1194G12c C01B22049   0.134   1.236   1.568  1.3167  0.8242 -0.3641
  1194G12c H00922050   0.075   1.328   1.568 -0.1103 -0.0529  2.1909
  1194G12c H00822051   0.091   1.179   1.486 -4.6403  1.8510  1.7777
  1194G12c H00722052   0.236   1.265   1.543  1.6258 -2.6703 -3.6801
  1194G12c C00W22053   0.252   1.135   1.896  1.1735  0.8843  0.8402
  1194G12c O00422054   0.202   1.005   1.870  0.4253  0.3386 -0.6310
  1194G12c C01C22055   0.203   0.937   1.982 -0.2572  1.3895 -1.4790
  1194G12c H00A22056   0.127   0.862   2.002  3.2301 -2.5979 -2.5113
  1194G12c C00P22057   0.285   0.969   2.107  0.3005 -0.3211 -1.7732
  1194G12c C00O22058   0.307   0.860   2.201 -0.7353  0.5925 -0.1166
  1194G12c C01D22059   0.265   0.725   2.196 -0.3355 -0.2855  1.0196
  1194G12c H00S22060   0.187   0.715   2.122  1.9060 -4.4926 -0.9318
  1194G12c C01E22061   0.333   0.607   2.237  0.0488 -1.4005 -0.7897
  1194G12c O00822062   0.298   0.497   2.167  1.2178  0.5257  1.0250
  1194G12c C01V22063   0.328   0.373   2.227 -1.0840  0.6588  0.6510
  1194G12c C01Z22064   0.201   0.343   2.315 -1.3858  0.3619  0.6925
  1194G12c H00R22065   0.242   0.338   2.416  7.0554 -2.4791 -2.4243
  1194G12c H00Q22066   0.124   0.420   2.322 -0.3939  1.4340 -0.0343
  1194G12c O00922067   0.157   0.216   2.295  1.1748  0.3371 -0.9621
  1194G12c H00P22068   0.167   0.197   2.203 -2.1242 -3.8323 -0.5883
  1194G12c C01W22069   0.414   0.285   2.161 -0.6527 -0.8241 -0.2901
  1194G12c H00O22070   0.467   0.350   2.093  0.6623  3.8196  4.8497
  1194G12c C01X22071   0.437   0.146   2.173 -2.3344 -0.0327 -2.2158
  1194G12c H00N22072   0.540   0.122   2.201 -5.4248 -3.2556  9.3608
  1194G12c H00M22073   0.379   0.114   2.259  2.8133  0.7815  1.8385
  1194G12c C01Y22074   0.409   0.055   2.073  0.4767  1.3107  0.7105
  1194G12c C02D22075   0.485  -0.067   2.060 -1.4041 -0.1797 -0.2005
  1194G12c H01922076   0.566  -0.094   2.126 -0.0748  4.2045  0.1482
  1194G12c C02C22077   0.497  -0.145   1.939 -0.0747  1.0708 -0.1236
  1194G12c H01A22078   0.559  -0.232   1.958 -5.4205 -3.5488 -2.2325
  1194G12c C02B22079   0.426  -0.094   1.817  0.4591 -0.4133  0.5340
  1194G12c O00E22080   0.408  -0.190   1.712 -0.5440  0.9163  1.2489
  1194G12c H01B22081   0.326  -0.180   1.666 -1.3160 -6.0786  0.5314
  1194G12c C02F22082   0.339   0.021   1.831  1.0619 -1.2161  0.3741
  1194G12c O00F22083   0.253   0.071   1.735 -1.2253 -0.6369 -0.5858
  1194G12c C02G22084   0.292   0.059   1.600  1.5534  0.1111 -0.7723
  1194G12c H01722085   0.244   0.152   1.570 -1.2164 -0.2511  2.2807
  1194G12c H01622086   0.221  -0.005   1.546 -4.7948  4.2466  2.1564
  1194G12c H01522087   0.396   0.058   1.568 -0.6560 -2.5478 -9.4261
  1194G12c C02E22088   0.339   0.097   1.952 -0.7150 -1.8865  0.8590
  1194G12c H01822089   0.308   0.200   1.941  2.4041 -0.3311  5.0996
  1194G12c C01F22090   0.461   0.633   2.307  2.3236  0.8813 -0.0615
  1194G12c C01G22091   0.585   0.542   2.298  0.1121 -1.8194 -0.4672
  1194G12c H00L22092   0.582   0.442   2.257 -5.5677 -1.7527 -0.5764
  1194G12c C01H22093   0.710   0.606   2.325 -0.2911 -1.3513 -1.8537
  1194G12c H00B22094   0.812   0.572   2.315 -0.5292 -1.6923 -3.3005
  1194G12c C01I22095   0.705   0.727   2.405 -0.8843  0.7506 -0.4152
  1194G12c C01U22096   0.474   0.748   2.386  0.3360  0.7637  0.1626
  1194G12c C00S22097   0.467   1.298   2.201  0.5922 -1.2750  0.6777
  1194G12c C00K22098   0.595   1.203   2.349 -0.4663 -1.3392 -0.2641
  1194G12c C00N22099   0.407   0.862   2.318  0.0704 -0.8719 -1.2119
  1194G12c C00022100   0.586   0.782   2.450  0.0392  0.3669 -0.2250
  1194G12c C01J22101   0.797   0.819   2.454 -0.0988  0.8634 -0.7869
  1194G12c C01K22102   0.941   0.801   2.432  1.3193  0.1386 -0.0952
  1194G12c C01P22103   1.028   0.695   2.465 -1.2871 -0.2112  0.3012
  1194G12c C01Q22104   0.996   0.581   2.559  2.1967  0.3660  1.0305
  1194G12c H00G22105   0.918   0.619   2.622  2.3364  4.9678 -1.3696
  1194G12c C01R22106   1.045   0.451   2.548 -0.0640  0.4557 -0.3317
  1194G12c H00F22107   1.114   0.416   2.472 -4.6778 -2.7879 -3.3296
  1194G12c C01S22108   1.026   0.347   2.658 -2.0148  0.8393  2.6863
  1194G12c H00E22109   1.105   0.276   2.631 -0.2739  3.9741 -0.8924
  1194G12c H00D22110   1.062   0.336   2.761  0.8609  1.2296  1.7771
  1194G12c O00522111   0.914   0.275   2.606 -0.3257 -0.6740 -0.0789
  1194G12c H00C22112   0.930   0.183   2.617  2.3518 -0.2979 -0.4199
  1194G12c C01O22113   1.164   0.701   2.455  2.5815 -1.6708  0.8339
  1194G12c H00H22114   1.224   0.612   2.446  1.1290 -2.4726 -1.4076
  1194G12c C01N22115   1.226   0.816   2.399 -0.1361  1.5588 -0.8440
  1194G12c O00622116   1.356   0.814   2.353  0.9023  0.0736  0.7803
  1194G12c C01T22117   1.463   0.779   2.427 -1.2206 -1.8870 -1.7164
  1194G12c H00K22118   1.530   0.832   2.493  0.1985 -5.1926 -0.3945
  1194G12c H00J22119   1.535   0.794   2.347 -6.4438  4.1555 -5.8592
  1194G12c H00I22120   1.444   0.683   2.475 -2.7113 -0.0123  1.6204
  1194G12c C01M22121   1.158   0.934   2.379 -1.4725  0.4076 -2.1180
  1194G12c C02022122   0.735   1.201   2.390 -0.9246 -0.5906 -0.3976
  1194G12c C02122123   0.840   1.291   2.360 -0.1135  1.3539  0.4234
  1194G12c C01L22124   1.015   0.920   2.416  0.8260  0.7841  1.7944
  1194G12c O00722125   1.222   1.014   2.308 -0.7082 -0.3857  1.0474
  1194G12c C02222126   0.972   1.282   2.329 -0.6832  1.1795 -0.1898
  1194G12c C02322127   0.801   1.428   2.311 -0.2656 -0.8215 -1.3966
  1194G12c C00G22128   0.777   1.569   2.084 -1.2095 -0.1425  1.3126
  1194G12c C00E22129   0.877   1.717   1.925  2.2335 -1.4694  0.3793
  1194G12c O00A22130   0.848   1.809   1.813 -1.0089 -1.2612  0.1234
  1194G12c C02422131   0.875   1.946   1.859 -0.8709 -0.4382 -0.2857
  1194G12c H00V22132   0.792   2.002   1.815 -1.0542  1.1524  2.0038
  1194G12c H00U22133   0.967   1.977   1.809  0.1215 -1.9178  0.5887
  1194G12c H00T22134   0.906   1.942   1.963 -4.7093 -1.9484  0.8720
  1204G12c C00D22135   7.708   4.494   0.636  0.1252 -0.5319  2.6254
  1204G12c O00B22136   7.748   4.422   0.528 -0.0592  0.1063  0.4792
  1204G12c C02522137   7.771   4.467   0.399 -0.8027  1.1536 -1.1018
  1204G12c C02622138   7.670   4.558   0.329  0.8299 -0.3319  0.0953
  1204G12c H00Y22139   7.566   4.542   0.355  1.0801  5.1427  5.4481
  1204G12c H00X22140   7.655   4.515   0.230 -3.3726 -3.1646  1.8366
  1204G12c O00C22141   7.726   4.692   0.341  0.7554  0.8526  0.4310
  1204G12c H00W22142   7.816   4.692   0.370  2.2775  1.4664 -3.9704
  1204G12c C02722143   7.886   4.435   0.364  0.0266 -1.8172 -0.8749
  1204G12c O00D22144   7.965   4.351   0.442 -0.6251  0.8880  0.3539
  1204G12c H00Z22145   7.923   4.349   0.526 -6.3129 -0.9787 -2.2814
  1204G12c C02822146   7.944   4.474   0.236 -0.2791  0.9106 -0.0743
  1204G12c C02922147   7.887   4.448   0.103 -2.0642  0.8645  1.0034
  1204G12c H01022148   7.795   4.393   0.089 -3.4436  2.9300  1.8114
  1204G12c C02T22149   7.979   4.456  -0.017  1.9875  0.2672 -0.0201
  1204G12c H01O22150   7.942   4.434  -0.116  2.6967 -3.1832  0.4384
  1204G12c C02S22151   8.110   4.505   0.004  0.7847  0.6435 -0.1810
  1204G12c O00J22152   8.229   4.512  -0.074  0.5022 -0.5615 -0.2243
  1204G12c H01P22153   8.305   4.469  -0.038  0.0961 -4.9536 -4.1302
  1204G12c C02R22154   8.152   4.538   0.139  0.3821 -0.3508 -0.2034
  1204G12c O00I22155   8.258   4.604   0.167  0.8729  0.0018 -0.0480
  1204G12c C02Q22156   8.269   4.746   0.149 -1.0359  0.2545  0.4496
  1204G12c H01N22157   8.196   4.788   0.080  2.5368  3.2407 -1.7094
  1204G12c H01R22158   8.220   4.807   0.224  2.7918  4.8265 -0.5477
  1204G12c H01Q22159   8.366   4.775   0.108  1.3524 -4.4594  2.3137
  1204G12c C02A22160   8.078   4.506   0.250  0.9820 -0.2795  0.5949
  1204G12c H01122161   8.116   4.508   0.351 -4.0594 -1.8239  2.7020
  1204G12c C00C22162   7.811   4.554   0.700 -0.5980 -0.5873  0.3231
  1204G12c H01222163   7.915   4.542   0.675 -0.5939 -2.1012  1.0230
  1204G12c C00B22164   7.797   4.611   0.831  1.2770 -0.2512 -1.5768
  1204G12c C00A22165   7.880   4.624   0.936  1.3279  0.2760  1.0047
  1204G12c C00922166   7.988   4.547   1.003  0.7397 -1.0424  0.2071
  1204G12c C00822167   8.055   4.424   0.965  1.0367 -1.5367 -1.6256
  1204G12c H01322168   8.034   4.368   0.876  0.3599  0.4003 -2.7095
  1204G12c C00722169   8.122   4.354   1.062  0.3728  0.0439  1.6122
  1204G12c H01422170   8.140   4.253   1.026  5.0209  0.4996  2.2622
  1204G12c C00622171   8.131   4.414   1.191 -0.2537 -1.5334  1.6556
  1204G12c C00522172   8.084   4.555   1.214 -0.6448  1.4187  0.5942
  1204G12c C00422173   8.070   4.612   1.342  0.4679 -0.0851  0.1921
  1204G12c C00322174   7.986   4.719   1.363  0.2266  0.0658  0.6082
  1204G12c C00222175   7.976   4.777   1.502  0.2386  0.7541  0.6428
  1204G12c C00122176   7.860   4.850   1.548  0.2615 -0.3362  0.3278
  1204G12c C00M22177   7.710   4.858   1.522  0.5535  0.0301  0.8387
  1204G12c C00L22178   7.670   4.890   1.385  0.3368 -0.1590  0.5881
  1204G12c C00R22179   7.538   4.884   1.334  1.4729  0.6206 -1.3559
  1204G12c C00Q22180   7.419   4.851   1.414  0.9231  1.7018 -1.3764
  1204G12c C00V22181   7.317   4.817   1.324 -0.2641 -2.3305 -0.3388
  1204G12c C00U22182   7.336   4.776   1.193  0.2133  1.3627  0.9128
  1204G12c C00T22183   7.457   4.781   1.130 -0.0500  1.0479  0.7625
  1204G12c C01622184   7.490   4.716   1.010 -0.8777  0.5116 -0.8137
  1204G12c C01522185   7.391   4.681   0.931  0.4012 -1.1359 -0.1823
  1204G12c C01022186   7.261   4.670   0.989 -0.5224 -1.8657 -0.0773
  1204G12c C01122187   7.154   4.623   0.891 -0.2988  1.5756  1.5325
  1204G12c H00522188   7.054   4.611   0.929 -1.4756 -4.5191 -2.7956
  1204G12c C01222189   7.181   4.600   0.753  0.1314 -0.6618 -0.0742
  1204G12c C01722190   7.082   4.522   0.676  1.1643 -0.4578  1.3479
  1204G12c O00222191   7.007   4.600   0.604  0.2509 -0.7262 -1.2654
  1204G12c H00422192   7.071   4.664   0.578  2.1660 -0.3402  3.9693
  1204G12c C01822193   7.077   4.385   0.683  1.3881  0.5834 -0.7405
  1204G12c O00122194   7.182   4.317   0.739  0.9040  1.6546  0.4537
  1204G12c H00322195   7.231   4.285   0.665 -0.8682 -6.3798  2.2642
  1204G12c C01922196   6.990   4.309   0.586 -0.4975 -2.2710 -0.8227
  1204G12c H00222197   7.029   4.207   0.577 -3.3643 -3.1926 -3.8237
  1204G12c H00122198   6.889   4.349   0.585 -1.9654 -5.6489  1.1116
  1204G12c O00022199   7.031   4.363   0.458  0.0462 -0.8568 -0.0383
  1204G12c C01A22200   6.989   4.296   0.342  0.5489 -0.4662  0.0697
  1204G12c C02K22201   7.077   4.201   0.299 -0.4270 -0.3469  0.7802
  1204G12c O00G22202   7.182   4.157   0.378  0.4118  0.1609 -0.3102
  1204G12c C02M22203   7.131   4.022   0.404 -0.4443 -1.3575  0.8242
  1204G12c H01G22204   7.205   4.009   0.482 -2.7542 -0.0843  3.2938
  1204G12c H01F22205   7.040   3.992   0.456 -3.6137  4.7389 -0.6877
  1204G12c H01E22206   7.135   3.946   0.326 -3.2269  0.9823 -1.7915
  1204G12c C02J22207   7.067   4.175   0.165 -1.1297  1.1273  0.5756
  1204G12c H01H22208   7.148   4.121   0.118  1.9418  3.7907  2.4968
  1204G12c C02I22209   6.958   4.216   0.083 -0.7580 -1.2748 -0.9354
  1204G12c C02N22210   6.955   4.171  -0.057 -0.9702 -0.2267 -0.6710
  1204G12c H01M22211   6.917   4.076  -0.090  0.3570 -1.3755  1.0006
  1204G12c C02O22212   7.012   4.234  -0.152 -0.0595 -0.3115  1.4907
  1204G12c H01L22213   7.010   4.205  -0.256  7.6785  1.5500  0.5265
  1204G12c C02P22214   7.070   4.370  -0.137 -1.1152  1.2218 -0.1505
  1204G12c H01K22215   7.087   4.422  -0.043  2.8313  1.5607 -0.9655
  1204G12c H01J22216   7.178   4.355  -0.130 -1.0948  1.8996  1.2274
  1204G12c O00H22217   7.042   4.460  -0.244 -1.4721  0.1675 -0.2609
  1204G12c H01I22218   7.108   4.457  -0.311  0.8007  0.6807  1.8730
  1204G12c C02H22219   6.857   4.287   0.147  0.5381  0.7788 -1.6929
  1204G12c H01C22220   6.773   4.316   0.086 -2.3479  7.5879  4.8555
  1204G12c C02L22221   6.869   4.316   0.288 -1.0297 -1.9512  0.6893
  1204G12c H01D22222   6.782   4.366   0.326  0.3046  1.9357 -1.0687
  1204G12c C01322223   7.302   4.622   0.710 -0.4134 -0.1273  0.5585
  1204G12c H00022224   7.308   4.597   0.605 -1.9226 -1.7873  0.8258
  1204G12c C01422225   7.415   4.640   0.796  0.8667  0.6111 -0.2596
  1204G12c C00F22226   7.548   4.613   0.769  1.1189 -1.2500 -1.6123
  1204G12c C00H22227   7.625   4.719   0.973  0.3932  0.8073  0.0522
  1204G12c C00I22228   7.721   4.774   1.062  0.2189  0.4712  2.7347
  1204G12c C00J22229   7.684   4.829   1.170  1.5200 -0.0722 -0.0290
  1204G12c C00Z22230   7.239   4.704   1.122  0.2056 -0.0976  0.2326
  1204G12c C00Y22231   7.102   4.739   1.161  2.4278  0.5719  0.2924
  1204G12c H00622232   7.012   4.695   1.123  4.0677 -4.0380  1.3305
  1204G12c C00X22233   7.077   4.766   1.299 -1.2167 -1.5789  1.7265
  1204G12c O00322234   6.950   4.779   1.356  0.0716  1.4634 -1.4089
  1204G12c C01B22235   6.876   4.656   1.332 -1.2106 -0.6695 -0.4749
  1204G12c H00922236   6.804   4.651   1.414  0.5788  0.4595  1.1881
  1204G12c H00822237   6.913   4.555   1.349  0.7535 -0.2291 -1.9287
  1204G12c H00722238   6.823   4.648   1.236 -0.8178 -0.4802 -0.7070
  1204G12c C00W22239   7.186   4.797   1.376 -0.6441  1.7851  0.3623
  1204G12c O00422240   7.151   4.801   1.513 -0.7110  0.0828 -1.3053
  1204G12c C01C22241   7.254   4.802   1.606  1.1585  0.5308  0.3751
  1204G12c H00A22242   7.222   4.728   1.678 -0.3558  0.3181 -0.4919
  1204G12c C00P22243   7.387   4.819   1.549  1.4423  0.7460 -0.7022
  1204G12c C00O22244   7.482   4.776   1.645  1.1952 -0.4469 -0.9074
  1204G12c C01D22245   7.445   4.721   1.767 -0.8593 -0.6357 -0.2186
  1204G12c H00S22246   7.347   4.708   1.810 -1.2942  1.2212 -0.6292
  1204G12c C01E22247   7.550   4.660   1.843  0.4696  0.5579 -0.8954
  1204G12c O00822248   7.506   4.586   1.953  0.5003  0.7498 -0.3130
  1204G12c C01V22249   7.442   4.674   2.039  0.1647 -0.8971 -0.8997
  1204G12c C01Z22250   7.296   4.634   2.064  0.8696  1.2264 -0.4721
  1204G12c H00R22251   7.281   4.585   2.160 -1.1411  1.1956 -0.7829
  1204G12c H00Q22252   7.211   4.699   2.080  0.8066  2.5541 -5.3389
  1204G12c O00922253   7.255   4.531   1.966 -1.2208 -0.4180  0.1322
  1204G12c H00P22254   7.334   4.494   1.930 -0.6920  1.7663 -1.0943
  1204G12c C01W22255   7.482   4.798   2.059 -0.7370  0.2342 -0.9640
  1204G12c H00O22256   7.582   4.830   2.034 -2.8261  4.1653 -4.9286
  1204G12c C01X22257   7.416   4.922   2.124 -0.4731  0.6483 -0.3506
  1204G12c H00N22258   7.447   4.994   2.049 -3.5525 -1.1353 -3.4700
  1204G12c H00M22259   7.307   4.929   2.126 -0.3645  3.5009 -2.0533
  1204G12c C01Y22260   7.478   4.949   2.254 -0.0236 -0.5363 -0.1679
  1204G12c C02D22261   7.566   5.057   2.255 -1.8197  1.6674 -0.8988
  1204G12c H01922262   7.587   5.106   2.161  1.1403  0.5023 -0.9024
  1204G12c C02C22263   7.666   5.071   2.358 -0.3272 -0.3995  1.0023
  1204G12c H01A22264   7.729   5.153   2.326 -6.2496  4.9856  2.2156
  1204G12c C02B22265   7.676   4.969   2.456  1.6914  0.7388  0.6311
  1204G12c O00E22266   7.786   4.955   2.535 -0.8920 -0.8493  0.4035
  1204G12c H01B22267   7.758   4.982   2.621  3.6661 -3.4786  2.9281
  1204G12c C02F22268   7.557   4.887   2.474  1.1502  0.6255  0.0975
  1204G12c O00F22269   7.549   4.786   2.571  0.2756  0.6354  0.1741
  1204G12c C02G22270   7.459   4.665   2.550  0.5136 -0.8003 -1.3950
  1204G12c H01722271   7.484   4.618   2.645 -1.1400 -2.2915 -1.6726
  1204G12c H01622272   7.471   4.599   2.465 -0.8815  0.5091 -2.6494
  1204G12c H01522273   7.357   4.703   2.558  0.7679 -0.3737  0.1314
  1204G12c C02E22274   7.461   4.878   2.366  0.5101  0.8012 -0.6519
  1204G12c H01822275   7.393   4.795   2.376  0.0079 -0.1436 -8.6189
  1204G12c C01F22276   7.682   4.659   1.803 -0.2607  0.7481 -0.9927
  1204G12c C01G22277   7.785   4.572   1.868  0.3400 -1.7183 -0.9094
  1204G12c H00L22278   7.765   4.496   1.942  6.0537  0.7776  3.5878
  1204G12c C01H22279   7.925   4.592   1.811 -0.2697 -0.1313  0.7193
  1204G12c H00B22280   7.987   4.508   1.837  1.3377  0.7838 -0.0468
  1204G12c C01I22281   7.946   4.704   1.717 -2.5059 -1.0857  0.6347
  1204G12c C01U22282   7.718   4.749   1.717 -0.1769 -1.2163 -0.0671
  1204G12c C00S22283   7.550   4.855   1.196  1.3768  1.3641  0.3375
  1204G12c C00K22284   7.773   4.845   1.277  0.5380 -0.1026  0.1936
  1204G12c C00N22285   7.624   4.813   1.640  0.9390  0.3080  0.7878
  1204G12c C00022286   7.843   4.785   1.674 -0.2799  0.2309 -0.1649
  1204G12c C01J22287   8.032   4.693   1.604 -1.0546 -0.0523 -2.1811
  1204G12c C01K22288   8.116   4.583   1.590  0.5123  1.1122  1.6140
  1204G12c C01P22289   8.198   4.517   1.686 -0.6754  0.0829 -0.7957
  1204G12c C01Q22290   8.217   4.559   1.832 -0.4449 -0.2990  2.0318
  1204G12c H00G22291   8.245   4.662   1.849 -0.4547  0.0595  0.0136
  1204G12c C01R22292   8.215   4.471   1.928  0.2220 -1.6510 -0.3994
  1204G12c H00F22293   8.186   4.369   1.909 -5.8112 -2.0071  7.9949
  1204G12c C01S22294   8.263   4.496   2.070 -0.9712  0.8895  0.0192
  1204G12c H00E22295   8.336   4.415   2.081  0.0460  0.6181 -6.8753
  1204G12c H00D22296   8.342   4.571   2.061  1.0614 -1.3833 -1.9760
  1204G12c O00522297   8.176   4.563   2.160  0.7399 -0.3628  1.2959
  1204G12c H00C22298   8.101   4.508   2.142  2.6369 -1.7672 -3.1544
  1204G12c C01O22299   8.255   4.388   1.660 -0.1741 -0.6064 -0.8310
  1204G12c H00H22300   8.319   4.325   1.720 -0.1048  0.1034 -0.1442
  1204G12c C01N22301   8.233   4.320   1.538  1.2948 -0.2365 -0.2568
  1204G12c O00622302   8.269   4.182   1.524 -0.8776 -1.0431 -0.0983
  1204G12c C01T22303   8.241   4.083   1.619 -0.5185  0.2169 -0.9331
  1204G12c H00K22304   8.308   4.006   1.657  1.8058  0.3365 -4.5408
  1204G12c H00J22305   8.182   4.029   1.544 -0.0429 -2.2955  0.4652
  1204G12c H00I22306   8.185   4.120   1.705 -2.7489 -8.7297  2.0566
  1204G12c C01M22307   8.184   4.404   1.427 -0.8415 -0.4956  0.4357
  1204G12c C02022308   7.903   4.779   1.266 -0.3220 -2.3507 -0.5315
  1204G12c C02122309   7.944   4.732   1.140  0.1660  0.7647  1.5399
  1204G12c C01L22310   8.121   4.536   1.449  0.1113 -0.3789 -0.4482
  1204G12c O00722311   8.177   4.345   1.299  0.2431 -0.2215  0.4306
  1204G12c C02222312   8.037   4.627   1.103 -0.3219  1.8675 -0.1774
  1204G12c C02322313   7.850   4.725   1.029 -1.2021  1.3602 -1.1874
  1204G12c C00G22314   7.657   4.648   0.853  0.7208 -0.0198 -1.6859
  1204G12c C00E22315   7.578   4.527   0.669  0.9987  0.9920 -0.8769
  1204G12c O00A22316   7.483   4.439   0.609 -0.2798  1.1274 -0.2455
  1204G12c C02422317   7.491   4.299   0.611  0.1204  1.9497 -0.2200
  1204G12c H00V22318   7.563   4.273   0.689  6.0030  2.2217 -5.1342
  1204G12c H00U22319   7.510   4.232   0.528 -5.7618 -0.8036  0.3905
  1204G12c H00T22320   7.413   4.261   0.676  0.5800 -0.5957 -1.1054
  1214G12c C00D22321   9.298  10.613   5.306  1.4335 -0.1716 -0.3139
  1214G12c O00B22322   9.381  10.544   5.380  1.2902  0.3812 -0.3167
  1214G12c C02522323   9.517  10.567   5.364  0.4591 -0.0094  0.3084
  1214G12c C02622324   9.586  10.477   5.259  0.4188 -0.3774 -0.5244
  1214G12c H00Y22325   9.680  10.516   5.222  1.6885  3.1777  5.6672
  1214G12c H00X22326   9.526  10.480   5.168  0.2604 -2.8158 -0.5505
  1214G12c O00C22327   9.604  10.341   5.279  0.0613 -0.4609  1.1815
  1214G12c H00W22328   9.551  10.300   5.346  2.6793 -1.8934  2.4687
  1214G12c C02722329   9.582  10.660   5.427 -0.4945 -2.7567 -0.7931
  1214G12c O00D22330   9.500  10.743   5.512 -1.5226 -1.1996 -1.7612
  1214G12c H00Z22331   9.410  10.722   5.496 -2.9672  2.8359  0.1807
  1214G12c C02822332   9.724  10.704   5.411  0.7616 -0.8354 -0.1040
  1214G12c C02922333   9.823  10.613   5.405 -0.3873 -0.1610  1.8502
  1214G12c H01022334   9.779  10.517   5.427 -0.1432  0.0999  3.5377
  1214G12c C02T22335   9.959  10.660   5.399 -1.0735  0.0798 -0.5700
  1214G12c H01O22336  10.039  10.600   5.359  2.3815  2.5585  2.3250
  1214G12c C02S22337   9.983  10.798   5.398  0.3467  1.1234 -0.2070
  1214G12c O00J22338  10.107  10.831   5.393 -0.1094 -0.5838  1.1456
  1214G12c H01P22339  10.121  10.914   5.349  0.5258 -0.4364  1.6174
  1214G12c C02R22340   9.883  10.880   5.384  0.6311  0.6410  0.1472
  1214G12c O00I22341   9.917  11.014   5.391  0.3889  2.0017 -0.1811
  1214G12c C02Q22342   9.927  11.078   5.250 -0.4920 -0.2640  0.5921
  1214G12c H01N22343  10.004  11.008   5.217 -0.5312  0.0037 -0.0662
  1214G12c H01R22344   9.972  11.176   5.231  7.2823 -3.7095 -0.9014
  1214G12c H01Q22345   9.849  11.092   5.177  3.7823 -8.9335 -6.5762
  1214G12c C02A22346   9.753  10.844   5.395 -1.1929  1.2460 -0.1286
  1214G12c H01122347   9.674  10.904   5.437  2.3288  4.2662  2.4565
  1214G12c C00C22348   9.316  10.679   5.192 -0.5586 -2.6231  1.2957
  1214G12c H01222349   9.421  10.699   5.175 -1.7770  0.9039 -3.2126
  1214G12c C00B22350   9.230  10.728   5.107  1.7725 -0.2746  2.1681
  1214G12c C00A22351   9.260  10.805   4.992  0.7916 -0.8672  0.1571
  1214G12c C00922352   9.368  10.906   4.977 -1.5183  0.4014 -0.0721
  1214G12c C00822353   9.479  10.948   5.052  0.6280  0.7446  1.4092
  1214G12c H01322354   9.507  10.890   5.138 -5.0979 -0.3206  2.7196
  1214G12c C00722355   9.543  11.078   5.011  1.1947 -0.0715  0.8602
  1214G12c H01422356   9.602  11.129   5.086 -1.6247  1.4375  2.1511
  1214G12c C00622357   9.468  11.157   4.924  0.0252  0.5763 -1.3969
  1214G12c C00522358   9.385  11.096   4.828 -1.4731  0.0559 -0.5721
  1214G12c C00422359   9.283  11.181   4.758  0.7366  0.4534 -1.1445
  1214G12c C00322360   9.140  11.146   4.727 -1.6745  0.1458 -0.6876
  1214G12c C00222361   9.056  11.215   4.622 -0.2832 -1.1941 -1.8116
  1214G12c C00122362   8.921  11.186   4.574  1.6542 -0.1671  0.6162
  1214G12c C00M22363   8.826  11.143   4.666  2.2295 -2.3175 -0.0762
  1214G12c C00L22364   8.840  11.019   4.731 -0.2050  0.3481  1.0689
  1214G12c C00R22365   8.740  10.955   4.829 -1.0460  0.6664  0.8463
  1214G12c C00Q22366   8.610  10.987   4.882 -0.4733 -0.5450 -0.2432
  1214G12c C00V22367   8.556  10.905   4.979 -0.7287 -1.5966  0.5466
  1214G12c C00U22368   8.639  10.815   5.055 -0.9231 -1.4732  0.4968
  1214G12c C00T22369   8.763  10.786   5.009  1.2491 -0.0893  0.6763
  1214G12c C01622370   8.870  10.740   5.088 -0.6012 -0.5056  0.9339
  1214G12c C01522371   8.830  10.695   5.219  2.5052 -0.9127 -0.9602
  1214G12c C01022372   8.691  10.685   5.244 -0.2490  1.1771 -1.0006
  1214G12c C01122373   8.657  10.620   5.369  1.0503 -0.1393  0.8900
  1214G12c H00522374   8.553  10.618   5.398  1.7038  3.8349  3.9473
  1214G12c C01222375   8.752  10.595   5.464 -0.4056  0.2271 -0.0723
  1214G12c C01722376   8.708  10.559   5.595 -1.0911 -0.4065  0.9705
  1214G12c O00222377   8.633  10.454   5.612 -1.6185 -0.7492  0.7155
  1214G12c H00422378   8.676  10.377   5.578  0.0015 -0.8070  2.8035
  1214G12c C01822379   8.776  10.614   5.698 -1.4396 -1.2182  3.1493
  1214G12c O00122380   8.870  10.712   5.687  0.9389  1.1482 -0.2426
  1214G12c H00322381   8.919  10.751   5.757  8.1373  3.9480 -6.1792
  1214G12c C01922382   8.763  10.579   5.837 -1.6134 -1.0861 -1.1996
  1214G12c H00222383   8.824  10.489   5.847 -2.5353 -1.7796 -1.6127
  1214G12c H00122384   8.829  10.649   5.887 -2.8614 -1.7149  1.4387
  1214G12c O00022385   8.622  10.576   5.839 -0.1336  1.4890  0.2633
  1214G12c C01A22386   8.563  10.678   5.903  1.5443  1.9711  0.3418
  1214G12c C02K22387   8.505  10.666   6.032  0.0457  1.1641  1.6466
  1214G12c O00G22388   8.531  10.546   6.093  0.6391  0.3289 -0.3243
  1214G12c C02M22389   8.428  10.470   6.116 -1.1376  0.2412 -0.6925
  1214G12c H01G22390   8.401  10.404   6.035 -4.2705 -0.9380  1.2054
  1214G12c H01F22391   8.372  10.533   6.186 -0.2028  0.0479  0.2443
  1214G12c H01E22392   8.488  10.395   6.167 -3.3334  2.7723  6.3643
  1214G12c C02J22393   8.411  10.762   6.077 -0.9570 -1.4219 -0.5721
  1214G12c H01H22394   8.358  10.737   6.168  0.9889 -5.8671 -0.5343
  1214G12c C02I22395   8.396  10.874   6.003  0.3574 -0.7038  0.1169
  1214G12c C02N22396   8.273  10.955   6.032  0.2552 -0.6745 -1.3321
  1214G12c H01M22397   8.227  10.946   5.934  4.3678  0.6264 -3.5185
  1214G12c C02O22398   8.237  10.996   6.162  0.7737  0.8726 -1.1252
  1214G12c H01L22399   8.283  10.971   6.257 -0.2108 -1.8623 -1.3495
  1214G12c C02P22400   8.150  11.092   6.218  1.5651  0.6032 -0.2853
  1214G12c H01K22401   8.203  11.151   6.293  3.3369 -0.1941 -0.8701
  1214G12c H01J22402   8.149  11.163   6.135  4.1300 -2.3411 -2.9816
  1214G12c O00H22403   8.028  11.052   6.260 -1.7079  0.1324 -0.5795
  1214G12c H01I22404   8.083  10.989   6.303  0.8578 -3.1803 -7.9281
  1214G12c C02H22405   8.460  10.893   5.888  0.8108  0.9274  0.3237
  1214G12c H01C22406   8.450  10.982   5.827 -4.1675 -1.8661 -3.3420
  1214G12c C02L22407   8.529  10.789   5.821 -0.5546 -0.6098 -0.4451
  1214G12c H01D22408   8.559  10.787   5.718 -3.4060 -2.0752 -1.2955
  1214G12c C01322409   8.883  10.603   5.427 -1.3036 -0.0979 -0.0702
  1214G12c H00022410   8.953  10.580   5.506  1.9079  2.7558 -1.9877
  1214G12c C01422411   8.924  10.641   5.296  0.6313 -0.7798  0.3908
  1214G12c C00F22412   9.058  10.636   5.258  0.9568  1.7576 -1.3188
  1214G12c C00H22413   8.996  10.732   5.042  0.0845 -1.3582  0.2204
  1214G12c C00I22414   9.030  10.801   4.921  0.4738 -1.3514  0.0613
  1214G12c C00J22415   8.930  10.851   4.837 -0.9196 -0.2435  0.6923
  1214G12c C00Z22416   8.590  10.760   5.178  0.5503  1.0069 -0.4330
  1214G12c C00Y22417   8.471  10.811   5.233 -0.3535  0.4434 -0.1959
  1214G12c H00622418   8.441  10.807   5.337  2.0533 -2.7763  0.4871
  1214G12c C00X22419   8.372  10.880   5.153  0.7364  0.0996 -0.5466
  1214G12c O00322420   8.256  10.914   5.220  1.1144  0.3091 -0.3315
  1214G12c C01B22421   8.173  10.816   5.217 -0.3139 -0.5923 -0.4783
  1214G12c H00922422   8.071  10.849   5.237 -0.8368 -0.2152 -3.5436
  1214G12c H00822423   8.174  10.742   5.296 -0.2205  1.5114  1.5389
  1214G12c H00722424   8.149  10.764   5.124  1.8199  1.2956 -2.1592
  1214G12c C00W22425   8.421  10.947   5.035  1.6825  0.6382  0.6462
  1214G12c O00422426   8.334  11.031   4.965 -0.6615 -0.1960  0.5200
  1214G12c C01C22427   8.393  11.112   4.869 -0.1115 -1.3350  0.7274
  1214G12c H00A22428   8.318  11.151   4.801 -1.9989 -4.3690  0.9646
  1214G12c C00P22429   8.526  11.104   4.829 -1.0990  0.0764 -0.8488
  1214G12c C00O22430   8.594  11.215   4.773  0.6794  1.5222 -0.1363
  1214G12c C01D22431   8.541  11.345   4.780  0.5466  0.5839 -0.2136
  1214G12c H00S22432   8.450  11.329   4.836  1.6105 -6.6184 -0.0538
  1214G12c C01E22433   8.572  11.468   4.735  0.0471  0.4783 -1.4439
  1214G12c O00822434   8.493  11.578   4.762 -1.8250 -1.8675  0.2585
  1214G12c C01V22435   8.556  11.664   4.862 -0.4506 -0.5867 -0.7490
  1214G12c C01Z22436   8.539  11.811   4.840  1.1997 -1.6059 -0.5027
  1214G12c H00R22437   8.445  11.843   4.885  0.2330  2.1253 -4.8352
  1214G12c H00Q22438   8.613  11.881   4.878 -0.5299 -1.6355  3.1343
  1214G12c O00922439   8.524  11.825   4.700  0.9842 -1.0118 -1.0091
  1214G12c H00P22440   8.520  11.733   4.678  1.9559 -2.7286  5.0612
  1214G12c C01W22441   8.609  11.624   4.970  0.1071 -0.3974 -2.1130
  1214G12c H00O22442   8.634  11.523   4.997  0.9439  1.0744  3.1809
  1214G12c C01X22443   8.683  11.722   5.068  0.2198 -0.3755 -0.5833
  1214G12c H00N22444   8.639  11.822   5.069  3.6960  1.2809 -2.9877
  1214G12c H00M22445   8.649  11.687   5.166 -2.7252 -2.9016 -2.4256
  1214G12c C01Y22446   8.847  11.746   5.051  1.8973  0.1377  1.0501
  1214G12c C02D22447   8.887  11.857   5.106 -0.0915 -0.4018  0.8917
  1214G12c H01922448   8.820  11.941   5.120 -2.1297 -1.8953  0.3713
  1214G12c C02C22449   9.032  11.862   5.130  1.8312  0.4477  1.0534
  1214G12c H01A22450   9.059  11.944   5.195 -0.3522  3.7367 -2.0131
  1214G12c C02B22451   9.106  11.745   5.126  0.8336  0.0990 -1.2859
  1214G12c O00E22452   9.234  11.740   5.164  0.7510 -0.8636 -0.7314
  1214G12c H01B22453   9.219  11.713   5.254  2.1489  4.2555  1.1742
  1214G12c C02F22454   9.060  11.625   5.059 -0.0382 -0.5109 -1.3949
  1214G12c O00F22455   9.135  11.517   5.037 -0.8926  0.7099  0.1946
  1214G12c C02G22456   9.155  11.440   5.155 -0.3053 -0.6532  1.7609
  1214G12c H01722457   9.120  11.482   5.249  0.7059 -4.3080  3.8935
  1214G12c H01622458   9.262  11.460   5.164 -0.1448  0.3934 -1.9495
  1214G12c H01522459   9.172  11.346   5.103 -1.5036 -2.2107  4.0662
  1214G12c C02E22460   8.921  11.628   5.029 -1.7867  0.1152 -1.5119
  1214G12c H01822461   8.868  11.540   4.996  1.1522  0.6682 -8.7453
  1214G12c C01F22462   8.694  11.457   4.668  1.0039  0.5645 -0.0226
  1214G12c C01G22463   8.796  11.565   4.678  0.2921 -1.0644 -2.5430
  1214G12c H00L22464   8.784  11.660   4.728 -1.1043 -4.5985  4.5793
  1214G12c C01H22465   8.934  11.538   4.647 -1.2689  0.3472 -0.1143
  1214G12c H00B22466   8.986  11.618   4.697 -2.8040  0.4571  1.3483
  1214G12c C01I22467   8.974  11.409   4.584 -0.9307 -0.9397 -1.4820
  1214G12c C01U22468   8.751  11.333   4.632 -0.0816  1.9629  1.3095
  1214G12c C00S22469   8.802  10.839   4.887  2.4620  1.5578  0.3538
  1214G12c C00K22470   8.959  10.968   4.751 -0.4888 -0.6662 -0.7570
  1214G12c C00N22471   8.719  11.228   4.710 -1.8518  0.3138  2.4692
  1214G12c C00022472   8.872  11.320   4.570  0.2985 -0.2742  1.2717
  1214G12c C01J22473   9.105  11.343   4.603  0.0535  0.9133 -0.6072
  1214G12c C01K22474   9.231  11.402   4.662 -2.1993 -0.3525 -0.4921
  1214G12c C01P22475   9.292  11.533   4.652 -0.2423  1.1334  2.0058
  1214G12c C01Q22476   9.246  11.610   4.540  0.0381 -0.3054 -0.2908
  1214G12c H00G22477   9.143  11.586   4.515 -0.3570  3.4640 -2.6054
  1214G12c C01R22478   9.293  11.731   4.492  0.6135 -0.3783 -0.1005
  1214G12c H00F22479   9.395  11.763   4.502 -0.4647  2.1519  4.1577
  1214G12c C01S22480   9.228  11.804   4.368  0.1685  0.4950 -0.9396
  1214G12c H00E22481   9.271  11.901   4.343 -0.3190  3.1627  7.2006
  1214G12c H00D22482   9.229  11.727   4.291  3.7048 -4.3221  3.5256
  1214G12c O00522483   9.103  11.840   4.419  0.1628  0.2549  0.1488
  1214G12c H00C22484   9.038  11.833   4.351 -5.8782  1.2350  5.3327
  1214G12c C01O22485   9.411  11.562   4.697 -0.6469 -1.0444 -1.1057
  1214G12c H00H22486   9.474  11.650   4.696  7.3157 -5.8523  6.0263
  1214G12c C01N22487   9.467  11.480   4.813 -0.1425 -0.0183 -0.1311
  1214G12c O00622488   9.606  11.517   4.823  2.2612  0.9358  1.9760
  1214G12c C01T22489   9.601  11.611   4.929 -1.5453 -0.1662 -0.4088
  1214G12c H00K22490   9.636  11.564   5.021 -0.7335  0.7562 -0.2453
  1214G12c H00J22491   9.651  11.703   4.903 -0.4000  2.1839  8.4395
  1214G12c H00I22492   9.499  11.638   4.957  0.2177  3.5398  3.0458
  1214G12c C01M22493   9.435  11.351   4.806 -1.4119 -0.5679  1.1488
  1214G12c C02022494   9.102  11.006   4.758  0.2531  0.1957 -1.2668
  1214G12c C02122495   9.200  10.925   4.806 -0.4662  0.3762  0.8465
  1214G12c C01L22496   9.320  11.308   4.723  0.0243  0.9684 -0.5899
  1214G12c O00722497   9.513  11.272   4.889 -0.8057 -0.1251 -0.4099
  1214G12c C02222498   9.329  10.965   4.852 -1.8361 -1.2725 -0.0435
  1214G12c C02322499   9.161  10.836   4.903  1.1021 -1.4446 -0.2155
  1214G12c C00G22500   9.094  10.696   5.128 -1.5472 -0.4762 -0.5192
  1214G12c C00E22501   9.165  10.591   5.341 -0.7842  1.6785 -0.9924
  1214G12c O00A22502   9.139  10.490   5.446  0.5639 -0.3269  0.5428
  1214G12c C02422503   9.157  10.348   5.418  0.4338 -0.1739  2.4966
  1214G12c H00V22504   9.100  10.343   5.326  2.1808 -2.2315  1.4866
  1214G12c H00U22505   9.109  10.320   5.512  0.9913  1.0744  3.1667
  1214G12c H00T22506   9.262  10.321   5.430  0.8378  1.2120  2.2069
  1224G12c C00D22507  11.958   8.523  11.486 -0.8099 -1.0636  0.8282
  1224G12c O00B22508  11.961   8.672  11.457 -0.4647  0.3543 -0.3601
  1224G12c C02522509  11.998   8.783  11.546  1.0833  0.3333 -0.2223
  1224G12c C02622510  12.137   8.826  11.579 -0.3693  0.9709  0.6986
  1224G12c H00Y22511  12.157   8.774  11.672  1.2079  1.5028  0.6806
  1224G12c H00X22512  12.164   8.930  11.600 -0.6663  1.8504 -2.8436
  1224G12c O00C22513  12.248   8.782  11.504 -0.2336 -0.1238  2.3013
  1224G12c H00W22514  12.256   8.694  11.470 -2.9211  0.6128 -0.4131
  1224G12c C02722515  11.899   8.841  11.627  0.2411  1.9113 -1.2736
  1224G12c O00D22516  11.922   8.953  11.698 -0.4723 -1.0487 -1.5677
  1224G12c H00Z22517  11.862   8.955  11.770  3.0222 -2.2174  1.5449
  1224G12c C02822518  11.765   8.788  11.605 -0.3543  0.1348 -0.8276
  1224G12c C02922519  11.709   8.725  11.717  0.0873 -1.0875  0.2338
  1224G12c H01022520  11.746   8.730  11.818  1.6333 -2.5245 -0.2511
  1224G12c C02T22521  11.589   8.639  11.689  0.4728  1.4109 -0.8706
  1224G12c H01O22522  11.565   8.558  11.756 -0.9982  4.6865  2.7467
  1224G12c C02S22523  11.538   8.621  11.555  0.4034 -0.3890 -1.2098
  1224G12c O00J22524  11.427   8.546  11.529 -1.0570 -0.7986  2.0963
  1224G12c H01P22525  11.410   8.523  11.439  6.7328  1.4205 -0.3443
  1224G12c C02R22526  11.590   8.707  11.455 -0.6152 -1.4799  0.1475
  1224G12c O00I22527  11.524   8.691  11.337  0.8833  0.0219 -0.3227
  1224G12c C02Q22528  11.521   8.787  11.238  2.2324  0.4452  0.3642
  1224G12c H01N22529  11.595   8.759  11.163  2.2624  0.0658  0.5342
  1224G12c H01R22530  11.432   8.772  11.176 -1.1138  1.8149  4.6507
  1224G12c H01Q22531  11.577   8.880  11.244 -0.1616  2.0210 -1.0022
  1224G12c C02A22532  11.706   8.786  11.470  0.7213  2.6129 -1.5751
  1224G12c H01122533  11.751   8.827  11.381  2.0025 -0.6475 -2.5381
  1224G12c C00C22534  11.975   8.494  11.621 -0.5222 -1.2764  0.1378
  1224G12c H01222535  12.053   8.532  11.685  1.2190 -5.2057  0.4474
  1224G12c C00B22536  11.889   8.415  11.684 -1.2864  0.0529 -1.0504
  1224G12c C00A22537  11.886   8.397  11.823  0.4278  1.3163 -0.6677
  1224G12c C00922538  11.992   8.394  11.910  0.3415 -0.6124 -1.0778
  1224G12c C00822539  12.124   8.440  11.907 -0.3303 -0.5702  1.2799
  1224G12c H01322540  12.164   8.519  11.845  0.2602 -4.1457 -3.1422
  1224G12c C00722541  12.214   8.349  11.965  2.0767 -0.4556  0.1889
  1224G12c H01422542  12.307   8.401  11.947 -0.4358  1.4079-11.6996
  1224G12c C00622543  12.173   8.229  12.024 -0.2800 -1.5078 -0.7200
  1224G12c C00522544  12.038   8.218  12.061 -1.2920  1.1643 -0.0275
  1224G12c C00422545  12.003   8.093  12.115 -0.5736  1.7285  2.2447
  1224G12c C00322546  11.871   8.053  12.077  0.0570 -0.0195  0.3426
  1224G12c C00222547  11.856   7.920  12.125  1.4194 -0.0226  0.6344
  1224G12c C00122548  11.735   7.838  12.135 -0.7104  0.2932  1.8591
  1224G12c C00M22549  11.646   7.833  12.020  0.4725  0.8277  0.1762
  1224G12c C00L22550  11.589   7.937  11.952  0.0441 -0.2655  0.1924
  1224G12c C00R22551  11.538   7.927  11.817 -1.6923 -0.5831 -0.2790
  1224G12c C00Q22552  11.494   7.820  11.737  1.7109 -0.9922  1.5584
  1224G12c C00V22553  11.457   7.864  11.601 -0.3711 -0.8840 -0.5955
  1224G12c C00U22554  11.480   7.982  11.548 -0.3047 -0.1372 -0.5801
  1224G12c C00T22555  11.539   8.071  11.631 -2.4943 -0.5832 -0.2035
  1224G12c C01622556  11.596   8.198  11.600  0.7213  0.6884  0.4339
  1224G12c C01522557  11.594   8.224  11.456 -0.2912 -2.5039 -0.2920
  1224G12c C01022558  11.534   8.139  11.371 -1.4785  1.0937 -0.0140
  1224G12c C01122559  11.543   8.161  11.238 -1.5426  0.0866  1.7108
  1224G12c H00522560  11.500   8.084  11.174  3.6828 -0.8129 -1.0181
  1224G12c C01222561  11.599   8.278  11.177  0.3345  1.0522  0.0980
  1224G12c C01722562  11.647   8.322  11.048 -0.7808 -0.8861  0.2946
  1224G12c O00222563  11.587   8.433  11.011 -0.4320 -1.3624 -0.2123
  1224G12c H00422564  11.604   8.420  10.919  2.1877 -2.7319  0.4169
  1224G12c C01822565  11.723   8.234  10.977  0.3598 -2.3714 -0.1178
  1224G12c O00122566  11.786   8.141  11.060  0.5982  0.1964  1.8268
  1224G12c H00322567  11.777   8.194  11.138 -2.7527  0.9269  1.0165
  1224G12c C01922568  11.752   8.215  10.828 -1.1482 -0.3872  1.8009
  1224G12c H00222569  11.812   8.133  10.789 -0.5510  2.4623 -3.8638
  1224G12c H00122570  11.655   8.189  10.785  1.6458 -7.0505 -1.0500
  1224G12c O00022571  11.801   8.330  10.758 -0.0695  0.2633  0.5860
  1224G12c C01A22572  11.953   8.345  10.727 -0.7083 -1.0238  1.5297
  1224G12c C02K22573  12.029   8.446  10.641  1.0022 -0.7758 -1.6413
  1224G12c O00G22574  11.977   8.574  10.616  0.8099 -0.4449 -1.2411
  1224G12c C02M22575  11.839   8.579  10.619  1.3864  1.6798  0.0375
  1224G12c H01G22576  11.810   8.595  10.723 -1.9753 -2.6856 -0.0828
  1224G12c H01F22577  11.787   8.496  10.571  3.5598  0.0814  0.3694
  1224G12c H01E22578  11.797   8.664  10.564  1.5165  1.0244 -1.0761
  1224G12c C02J22579  12.168   8.424  10.605 -0.2309 -0.0337  0.7060
  1224G12c H01H22580  12.226   8.512  10.582  0.1725 -1.1905 -3.0973
  1224G12c C02I22581  12.240   8.323  10.667  0.2352  0.6292 -1.0713
  1224G12c C02N22582  12.388   8.299  10.632 -0.5580 -0.7435 -0.7372
  1224G12c H01M22583  12.436   8.254  10.718 -0.4456  2.9095  1.2288
  1224G12c C02O22584  12.456   8.362  10.526  0.7192  1.3622 -1.3932
  1224G12c H01L22585  12.399   8.427  10.461  0.1753 -2.3471 -4.7972
  1224G12c C02P22586  12.599   8.309  10.518  0.2663  1.6083  0.0123
  1224G12c H01K22587  12.659   8.366  10.448  0.0052  2.3205  0.3691
  1224G12c H01J22588  12.622   8.359  10.612 -0.5319 -0.2338  1.2239
  1224G12c O00H22589  12.646   8.175  10.527  0.6820  0.1365  2.1591
  1224G12c H01I22590  12.592   8.131  10.591  3.8080 -1.4702  3.7649
  1224G12c C02H22591  12.168   8.228  10.751  1.0054  0.4902 -0.0549
  1224G12c H01C22592  12.221   8.142  10.791 -2.4980 -3.3428 -3.2966
  1224G12c C02L22593  12.041   8.253  10.776  1.2179 -0.7303  0.5970
  1224G12c H01D22594  12.027   8.202  10.870 -0.7422 -3.5691 -1.1730
  1224G12c C01322595  11.608   8.371  11.283 -1.5681  1.0947  0.8161
  1224G12c H00022596  11.629   8.473  11.254 -3.6343  2.3682  3.6569
  1224G12c C01422597  11.646   8.327  11.415  0.8612  1.7092  1.7114
  1224G12c C00F22598  11.763   8.386  11.474  1.3922 -1.3200 -0.9677
  1224G12c C00H22599  11.688   8.275  11.671  0.2696  0.6567 -1.2590
  1224G12c C00I22600  11.682   8.255  11.811  0.3659 -0.1618  0.2962
  1224G12c C00J22601  11.605   8.138  11.851  0.4373  0.7748  0.4109
  1224G12c C00Z22602  11.468   8.020  11.412 -0.4745 -2.6713  0.0310
  1224G12c C00Y22603  11.376   7.938  11.328 -0.7333  0.2848  0.0755
  1224G12c H00622604  11.354   7.976  11.229  3.8126  1.3816 -0.5952
  1224G12c C00X22605  11.374   7.803  11.362  0.5278 -0.2217 -0.3582
  1224G12c O00322606  11.375   7.700  11.267 -0.5381 -0.2439 -0.1736
  1224G12c C01B22607  11.367   7.712  11.123 -0.0501  1.2411 -0.1965
  1224G12c H00922608  11.259   7.727  11.123  0.4598  5.7299 -3.1702
  1224G12c H00822609  11.390   7.609  11.094 -1.5161 -0.2020  3.4380
  1224G12c H00722610  11.451   7.769  11.083  3.1167 -1.1705  2.7245
  1224G12c C00W22611  11.410   7.771  11.498  0.9159 -1.6069  1.2133
  1224G12c O00422612  11.377   7.653  11.544  0.3900  0.1018  0.8874
  1224G12c C01C22613  11.437   7.594  11.652  1.2648  0.7689  0.4998
  1224G12c H00A22614  11.363   7.520  11.675 -2.0663  2.9825 -2.4426
  1224G12c C00P22615  11.492   7.674  11.760 -0.9690 -1.9043  1.1726
  1224G12c C00O22616  11.576   7.630  11.868 -0.0604  1.1924 -1.1047
  1224G12c C01D22617  11.611   7.498  11.855  0.0120  1.6586  1.6460
  1224G12c H00S22618  11.600   7.428  11.774  6.6233  2.9796 -0.6814
  1224G12c C01E22619  11.731   7.437  11.922  1.5907 -1.0678 -0.1468
  1224G12c O00822620  11.804   7.341  11.873 -0.1406  0.3645 -1.1524
  1224G12c C01V22621  11.885   7.384  11.767 -0.5669 -0.0768  0.9280
  1224G12c C01Z22622  11.907   7.267  11.683 -0.7703  0.0369 -0.4168
  1224G12c H00R22623  12.005   7.223  11.663 -1.0961  0.7488 -4.0246
  1224G12c H00Q22624  11.873   7.167  11.710 -1.5453  1.2427  3.3979
  1224G12c O00922625  11.863   7.287  11.558  0.5849 -0.7613 -1.7088
  1224G12c H00P22626  11.810   7.364  11.550  0.2757 -0.5180  1.8340
  1224G12c C01W22627  11.966   7.490  11.755  0.9236  0.2484 -0.0847
  1224G12c H00O22628  11.971   7.577  11.818  0.0015 -2.4413  3.8510
  1224G12c C01X22629  12.075   7.518  11.642 -1.0999  0.2328 -0.1637
  1224G12c H00N22630  12.180   7.532  11.669 -1.7700 -0.5705  3.0208
  1224G12c H00M22631  12.068   7.425  11.586 -0.6688  1.4133 -2.2734
  1224G12c C01Y22632  12.063   7.622  11.532  0.9292 -1.2851 -0.7771
  1224G12c C02D22633  12.039   7.748  11.567 -1.1713  1.1112 -2.3542
  1224G12c H01922634  12.007   7.766  11.669 -4.0315 -4.2352 -2.1444
  1224G12c C02C22635  12.035   7.866  11.478 -0.7298 -1.6744 -0.4238
  1224G12c H01A22636  11.998   7.966  11.498 -1.5108 -3.0984  6.5413
  1224G12c C02B22637  12.055   7.843  11.335  0.7316  0.8788 -0.4473
  1224G12c O00E22638  12.006   7.931  11.249 -0.4370 -0.8293  0.8479
  1224G12c H01B22639  11.954   7.877  11.191  2.1455 -0.1465 -2.2369
  1224G12c C02F22640  12.091   7.708  11.300 -1.3589  0.6614 -0.4766
  1224G12c O00F22641  12.147   7.675  11.175 -0.5244  0.6218 -1.6652
  1224G12c C02G22642  12.046   7.667  11.067 -1.0398  1.4776  0.5147
  1224G12c H01722643  12.067   7.723  10.976 -1.4794 -4.0072 -3.2169
  1224G12c H01622644  12.006   7.567  11.050 -5.2879  3.6024 -2.8203
  1224G12c H01522645  11.956   7.726  11.086 -0.4537  3.3979 -2.4461
  1224G12c C02E22646  12.110   7.611  11.403 -1.3916 -0.0266 -0.3174
  1224G12c H01822647  12.156   7.519  11.368 -0.6504 -1.1317  3.3822
  1224G12c C01F22648  11.788   7.519  12.024 -0.0154 -0.5643 -0.9438
  1224G12c C01G22649  11.916   7.508  12.054 -0.1221 -2.1235 -0.7989
  1224G12c H00L22650  11.979   7.425  12.025 -0.4355 -4.5733  4.8626
  1224G12c C01H22651  11.994   7.603  12.126  0.4767 -0.6728 -1.3541
  1224G12c H00B22652  12.095   7.573  12.152  0.1873 -0.2119  0.3854
  1224G12c C01I22653  11.927   7.716  12.173 -0.2253 -0.3297 -0.8829
  1224G12c C01U22654  11.715   7.633  12.073  0.6394  0.8639 -0.2546
  1224G12c C00S22655  11.565   8.048  11.760  0.2280  1.2215 -1.1583
  1224G12c C00K22656  11.641   8.068  11.960  0.6397 -0.6270  0.1333
  1224G12c C00N22657  11.630   7.696  11.979 -0.0527 -0.5043 -0.2686
  1224G12c C00022658  11.785   7.705  12.172 -0.6548  0.7688  0.6411
  1224G12c C01J22659  11.961   7.846  12.186 -0.2489  2.2235 -0.3798
  1224G12c C01K22660  12.086   7.883  12.233 -0.7094  0.5271  0.5670
  1224G12c C01P22661  12.192   7.812  12.287 -0.0519 -0.7955 -0.0323
  1224G12c C01Q22662  12.177   7.704  12.380  0.8614 -0.7159  1.4123
  1224G12c H00G22663  12.082   7.677  12.425 -1.3647 11.8951  6.3244
  1224G12c C01R22664  12.269   7.697  12.490 -0.8005  0.3764 -0.7476
  1224G12c H00F22665  12.366   7.742  12.498 -0.3122 -1.1786  3.6937
  1224G12c C01S22666  12.268   7.620  12.620  1.1606 -1.2878 -0.1591
  1224G12c H00E22667  12.373   7.592  12.629  1.8457  0.7319 -1.5486
  1224G12c H00D22668  12.242   7.685  12.703  3.8513  2.8947 -2.4377
  1224G12c O00522669  12.184   7.513  12.620 -0.3542 -1.1952  0.8905
  1224G12c H00C22670  12.228   7.429  12.618  1.1765 -0.3953 -2.0880
  1224G12c C01O22671  12.323   7.848  12.235  0.7297 -0.1585 -0.6533
  1224G12c H00H22672  12.404   7.782  12.263 -2.2905 -2.5559  2.8922
  1224G12c C01N22673  12.342   7.971  12.170 -1.0340  0.0083 -0.5153
  1224G12c O00622674  12.458   7.994  12.094  0.1423  0.0753  0.4440
  1224G12c C01T22675  12.592   8.009  12.168 -0.1099  1.5378  0.4651
  1224G12c H00K22676  12.666   8.051  12.100  1.0433 -1.7415 -0.3933
  1224G12c H00J22677  12.607   7.925  12.236 -2.6871  1.2585  0.7407
  1224G12c H00I22678  12.557   8.091  12.231 -7.8094  4.3153 -6.4307
  1224G12c C01M22679  12.233   8.043  12.128 -0.3197 -0.5142 -1.2338
  1224G12c C02022680  11.764   8.121  12.024  0.9129 -1.6775  0.8569
  1224G12c C02122681  11.815   8.260  12.012  1.1787 -1.1111 -0.4295
  1224G12c C01L22682  12.108   8.011  12.173 -0.6927 -0.7898 -1.3330
  1224G12c O00722683  12.277   8.150  12.055 -0.4250  0.3090  0.2694
  1224G12c C02222684  11.941   8.310  12.020 -0.0683  1.2182 -1.1254
  1224G12c C02322685  11.775   8.330  11.890 -0.4540 -0.3027 -2.2865
  1224G12c C00G22686  11.784   8.352  11.608  0.4566  0.7859 -0.1650
  1224G12c C00E22687  11.858   8.471  11.401 -0.3017  0.9946  0.8514
  1224G12c O00A22688  11.858   8.479  11.266 -0.1132 -1.2211 -0.8681
  1224G12c C02422689  11.959   8.381  11.210 -0.5759 -1.9220  0.4674
  1224G12c H00V22690  11.941   8.283  11.254  0.7616 -1.8504  1.1841
  1224G12c H00U22691  11.930   8.349  11.110 -1.0009  0.5241 -0.2445
  1224G12c H00T22692  12.064   8.409  11.204 -0.7530 -1.4317 -0.4758
  1234G12c C00D22693   9.624   7.313   2.397  0.3130 -0.4607  0.5949
  1234G12c O00B22694   9.498   7.288   2.435 -0.0834 -1.9386  0.8144
  1234G12c C02522695   9.401   7.346   2.351 -1.4698 -0.2572  0.8150
  1234G12c C02622696   9.279   7.389   2.432  0.6620 -2.0035 -0.9526
  1234G12c H00Y22697   9.262   7.346   2.531  2.3039 -7.3576 -2.8154
  1234G12c H00X22698   9.184   7.352   2.392 -1.9331  1.9551  1.2352
  1234G12c O00C22699   9.285   7.523   2.463 -1.3554 -1.1442  0.0633
  1234G12c H00W22700   9.220   7.566   2.411 -1.0684 -0.4465  0.2829
  1234G12c C02722701   9.372   7.312   2.230 -0.3765  1.7026  0.0067
  1234G12c O00D22702   9.466   7.250   2.158  0.3132  0.9298 -0.1133
  1234G12c H00Z22703   9.545   7.245   2.210 -3.8417  2.8204  7.1216
  1234G12c C02822704   9.267   7.345   2.153  0.3860  0.2396 -2.0003
  1234G12c C02922705   9.201   7.262   2.052 -0.5185  1.4851 -0.3104
  1234G12c H01022706   9.180   7.166   2.099  3.1759  1.0525  0.5589
  1234G12c C02T22707   9.115   7.333   1.949  1.9033 -2.1822 -0.6557
  1234G12c H01O22708   9.053   7.259   1.900 -3.2923  1.3341  0.2355
  1234G12c C02S22709   9.113   7.476   1.925  0.2864 -0.6014  1.4128
  1234G12c O00J22710   9.023   7.544   1.855  0.0012 -0.1059 -0.6822
  1234G12c H01P22711   8.989   7.629   1.880 -1.3761  0.3155 -3.8164
  1234G12c C02R22712   9.179   7.549   2.029  0.9417  0.8929  0.0199
  1234G12c O00I22713   9.157   7.689   2.020  0.2574  0.9628  0.1042
  1234G12c C02Q22714   9.280   7.751   2.009 -1.0583 -1.2269 -0.3782
  1234G12c H01N22715   9.332   7.718   1.919  7.2843  1.3416  3.0606
  1234G12c H01R22716   9.252   7.853   1.981  5.9339  0.8458 -0.6958
  1234G12c H01Q22717   9.352   7.735   2.090 -5.3497 -0.8892  3.7184
  1234G12c C02A22718   9.242   7.483   2.141  0.7048  0.4626 -1.9580
  1234G12c H01122719   9.276   7.562   2.207  4.8274 -0.1132 -3.2280
  1234G12c C00C22720   9.697   7.185   2.398 -2.4987 -0.4557 -1.8738
  1234G12c H01222721   9.663   7.099   2.454 -7.4062  2.2635 -0.4062
  1234G12c C00B22722   9.841   7.194   2.397 -0.1085 -1.0897  0.8694
  1234G12c C00A22723   9.927   7.102   2.387  0.6330  1.7787  0.7683
  1234G12c C00922724   9.920   6.962   2.437  0.2130 -1.6013 -0.1063
  1234G12c C00822725   9.826   6.907   2.535  0.1269  0.7793 -1.1171
  1234G12c H01322726   9.726   6.943   2.555 -1.7204 -4.2490 -0.7972
  1234G12c C00722727   9.872   6.796   2.616 -2.2027 -0.2658 -0.4176
  1234G12c H01422728   9.824   6.746   2.699  0.7902  2.2633  2.9476
  1234G12c C00622729   9.999   6.765   2.600  0.6232  1.3776  1.2416
  1234G12c C00522730  10.091   6.841   2.527 -0.0352  1.3572  1.0266
  1234G12c C00422731  10.235   6.843   2.553  1.0316  1.9480  1.2403
  1234G12c C00322732  10.328   6.924   2.472 -0.5258 -0.0625  0.3292
  1234G12c C00222733  10.482   6.901   2.512 -0.4790  1.4804  0.7036
  1234G12c C00122734  10.592   6.978   2.466  0.5419 -0.0022 -0.8115
  1234G12c C00M22735  10.567   7.125   2.475  1.0437  0.3857 -0.4856
  1234G12c C00L22736  10.477   7.205   2.394  0.0722 -1.3966 -1.5860
  1234G12c C00R22737  10.455   7.348   2.421 -1.5548  1.4417  2.2438
  1234G12c C00Q22738  10.510   7.437   2.517  0.3912  3.2354 -0.2208
  1234G12c C00V22739  10.441   7.564   2.525  0.2973 -1.5971 -0.1077
  1234G12c C00U22740  10.311   7.588   2.457  0.9806 -1.4884  1.6707
  1234G12c C00T22741  10.241   7.481   2.401 -0.6705 -1.3705 -1.2319
  1234G12c C01622742  10.106   7.463   2.408  1.5504 -0.7221  1.2748
  1234G12c C01522743  10.028   7.575   2.430  2.0846  0.4044  0.3870
  1234G12c C01022744  10.085   7.694   2.484  0.5121  1.1438  2.4124
  1234G12c C01122745   9.995   7.798   2.518 -0.5270  1.2732 -0.0117
  1234G12c H00522746  10.013   7.902   2.543 -4.4678  2.7415 -2.7820
  1234G12c C01222747   9.864   7.803   2.502 -1.1973 -1.8514  1.0932
  1234G12c C01722748   9.807   7.944   2.502  1.0256 -1.2001  0.6984
  1234G12c O00222749   9.686   7.977   2.576  0.2809 -0.0326 -0.2136
  1234G12c H00422750   9.681   7.930   2.658  0.7228  1.8839  0.9495
  1234G12c C01822751   9.859   8.046   2.434  0.0439 -0.7611 -0.4569
  1234G12c O00122752   9.964   8.033   2.335  0.3834  0.6148 -0.5283
  1234G12c H00322753   9.953   7.939   2.340 -2.8572  1.0289  1.2999
  1234G12c C01922754   9.821   8.181   2.445 -0.0490  0.2522 -1.5606
  1234G12c H00222755   9.793   8.201   2.341  0.7761  2.7546 -1.3342
  1234G12c H00122756   9.717   8.192   2.476 -1.0173  1.9824 -5.1093
  1234G12c O00022757   9.905   8.266   2.510  0.1475 -0.3319 -1.0378
  1234G12c C01A22758   9.963   8.387   2.443 -0.6970  0.0624 -0.3428
  1234G12c C02K22759  10.094   8.384   2.392 -1.0963 -0.9242  1.3235
  1234G12c O00G22760  10.149   8.260   2.391  0.5876 -0.8642 -0.8098
  1234G12c C02M22761  10.224   8.243   2.502  0.7403 -0.6060  0.3822
  1234G12c H01G22762  10.296   8.196   2.434 -1.8650 -0.0488 -2.8828
  1234G12c H01F22763  10.255   8.344   2.526  0.9288 -0.1707 -1.5851
  1234G12c H01E22764  10.168   8.184   2.575  2.8893  3.6013  5.7210
  1234G12c C02J22765  10.169   8.496   2.337  1.2068 -0.7779  1.6965
  1234G12c H01H22766  10.244   8.489   2.260 -2.0502 -1.6540 -1.5093
  1234G12c C02I22767  10.084   8.625   2.332 -0.0836  0.2640  1.9791
  1234G12c C02N22768  10.128   8.756   2.267  0.9400  1.7344 -0.5337
  1234G12c H01M22769  10.198   8.748   2.185  4.1189 -5.6439  2.4148
  1234G12c C02O22770  10.087   8.874   2.293  2.6951 -3.0767 -1.5423
  1234G12c H01L22771  10.007   8.864   2.365  2.7325 -2.0233 -1.3536
  1234G12c C02P22772  10.126   9.003   2.216 -0.5487  1.7551  1.2399
  1234G12c H01K22773  10.182   8.958   2.134  3.8147 -2.7282  6.2528
  1234G12c H01J22774  10.037   9.049   2.173 -0.1433  2.8936  1.6281
  1234G12c O00H22775  10.212   9.060   2.320  0.8763 -0.1208  0.7241
  1234G12c H01I22776  10.199   9.030   2.409 -9.5997  1.0292  0.2597
  1234G12c C02H22777   9.946   8.621   2.379  0.6185 -0.6102 -0.8747
  1234G12c H01C22778   9.886   8.709   2.399  0.1941 -0.8065 -1.2655
  1234G12c C02L22779   9.893   8.510   2.439 -1.0404  0.8232 -0.4826
  1234G12c H01D22780   9.788   8.508   2.464 -0.6724 -3.7634  1.1523
  1234G12c C01322781   9.809   7.671   2.475 -0.6157 -2.2025 -0.1191
  1234G12c H00022782   9.706   7.692   2.499  0.5248  4.3655 -0.1697
  1234G12c C01422783   9.881   7.562   2.420  0.4880  1.3758 -1.2791
  1234G12c C00F22784   9.822   7.433   2.401  0.9871  0.1493 -1.1994
  1234G12c C00H22785  10.046   7.337   2.376 -1.8646 -0.7407  0.5289
  1234G12c C00I22786  10.138   7.232   2.334  0.6674  2.0500 -1.3183
  1234G12c C00J22787  10.279   7.248   2.303 -0.6632  0.0799  0.4348
  1234G12c C00Z22788  10.227   7.701   2.503  0.4654 -0.0999 -2.2029
  1234G12c C00Y22789  10.278   7.796   2.580 -1.1628  0.8653 -0.6579
  1234G12c H00622790  10.227   7.889   2.599 -4.8837 -2.4780  8.8760
  1234G12c C00X22791  10.419   7.797   2.613  2.0466  1.7554 -1.7021
  1234G12c O00322792  10.465   7.903   2.675 -1.1977  2.5194  0.5087
  1234G12c C01B22793  10.573   7.908   2.763  1.8238 -0.5518  0.8598
  1234G12c H00922794  10.614   8.009   2.770 -3.2065  2.1109 -3.8006
  1234G12c H00822795  10.655   7.842   2.735  3.7508  1.2045  2.2575
  1234G12c H00722796  10.537   7.886   2.863 -5.9399 10.3513  1.3459
  1234G12c C00W22797  10.476   7.661   2.617  0.6383 -0.7758 -0.8188
  1234G12c O00422798  10.571   7.640   2.720 -0.0970  1.3686 -1.4081
  1234G12c C01C22799  10.562   7.503   2.762  0.8281  0.7289 -0.1473
  1234G12c H00A22800  10.500   7.487   2.849 -0.2788  2.6109 -0.5697
  1234G12c C00P22801  10.582   7.409   2.639  0.9240 -0.4118  2.1076
  1234G12c C00O22802  10.664   7.296   2.661  0.3782 -1.2864  0.0281
  1234G12c C01D22803  10.736   7.300   2.796  0.0896  0.7247  0.6507
  1234G12c H00S22804  10.777   7.388   2.843 -0.1594 -1.4400  5.1677
  1234G12c C01E22805  10.736   7.183   2.872  1.6574  0.8335  1.1537
  1234G12c O00822806  10.773   7.169   3.006 -1.5018  0.0377 -0.4899
  1234G12c C01V22807  10.663   7.187   3.100 -0.0380 -0.0436 -0.6061
  1234G12c C01Z22808  10.702   7.267   3.224 -3.3256  0.0100 -1.5867
  1234G12c H00R22809  10.741   7.350   3.165 -3.9976  1.4792 -0.0205
  1234G12c H00Q22810  10.633   7.308   3.297 -4.5151 -0.8622 -2.2038
  1234G12c O00922811  10.825   7.237   3.296  0.0723  0.6511  0.9231
  1234G12c H00P22812  10.812   7.150   3.333  4.2823  0.0341  1.1941
  1234G12c C01W22813  10.537   7.170   3.056  0.6459 -1.8258 -1.7455
  1234G12c H00O22814  10.521   7.103   2.973 -3.8877 -3.1097  0.0159
  1234G12c C01X22815  10.419   7.184   3.152 -0.4622  1.2048 -1.1250
  1234G12c H00N22816  10.398   7.081   3.123 -1.9476  2.2950 -4.1146
  1234G12c H00M22817  10.461   7.146   3.246 -2.4881  1.7722  0.0383
  1234G12c C01Y22818  10.292   7.265   3.135  1.2625  1.1792  1.7801
  1234G12c C02D22819  10.241   7.265   3.006  0.5330  0.2360 -0.4074
  1234G12c H01922820  10.297   7.188   2.955  0.9114  0.5985 -0.5378
  1234G12c C02C22821  10.183   7.390   2.956 -0.4578 -0.2506  0.9266
  1234G12c H01A22822  10.173   7.425   2.855 -0.2274  5.4545  2.6639
  1234G12c C02B22823  10.135   7.485   3.041 -0.1168 -0.3583  1.1455
  1234G12c O00E22824  10.043   7.569   2.977 -0.1613 -0.3484  0.8911
  1234G12c H01B22825   9.997   7.620   3.042 -0.0033  3.5498 -1.9273
  1234G12c C02F22826  10.152   7.480   3.175  1.1180 -0.1016  0.1870
  1234G12c O00F22827  10.093   7.581   3.240 -0.2995  0.5095 -0.6655
  1234G12c C02G22828  10.119   7.631   3.383  0.8482  0.7134  1.6388
  1234G12c H01722829  10.117   7.533   3.429 -1.6618  1.0156  2.2277
  1234G12c H01622830  10.048   7.704   3.421  1.0750  0.8070  1.8808
  1234G12c H01522831  10.208   7.689   3.357 -0.1627  1.8250  0.5806
  1234G12c C02E22832  10.237   7.357   3.225  0.8354 -1.8012  0.6716
  1234G12c H01822833  10.283   7.348   3.322 -1.6384  3.2574  2.4759
  1234G12c C01F22834  10.732   7.067   2.790 -0.5328  2.1497 -0.0036
  1234G12c C01G22835  10.753   6.937   2.840  0.5094 -0.3112 -0.2883
  1234G12c H00L22836  10.794   6.917   2.938  2.8193  4.3179 -0.1708
  1234G12c C01H22837  10.713   6.809   2.778 -0.4144  0.3893 -1.5599
  1234G12c H00B22838  10.685   6.732   2.848  0.2946  2.0773  0.6431
  1234G12c C01I22839  10.652   6.840   2.649 -0.3586  0.9671 -0.0796
  1234G12c C01U22840  10.715   7.060   2.650  0.6471 -1.3947 -0.0146
  1234G12c C00S22841  10.325   7.365   2.373 -1.0989 -0.2124  1.9730
  1234G12c C00K22842  10.357   7.144   2.354  0.7127  0.1698 -0.6623
  1234G12c C00N22843  10.662   7.171   2.581 -1.2237 -0.5707 -0.4704
  1234G12c C00022844  10.681   6.955   2.574 -1.1286  1.6878 -0.6813
  1234G12c C01J22845  10.525   6.806   2.602 -1.8642  0.7201  1.8625
  1234G12c C01K22846  10.425   6.723   2.662 -0.3817  0.7547 -0.9366
  1234G12c C01P22847  10.456   6.606   2.738  0.6920  0.6113 -0.5451
  1234G12c C01Q22848  10.585   6.535   2.715 -1.0336 -0.2504  1.0858
  1234G12c H00G22849  10.680   6.533   2.765 -1.6086 -1.6592  2.1601
  1234G12c C01R22850  10.588   6.421   2.635  0.3913  0.0930  0.9256
  1234G12c H00F22851  10.685   6.373   2.628  2.5207  4.2722 -0.1074
  1234G12c C01S22852  10.481   6.389   2.538 -0.7550 -1.0164  0.5214
  1234G12c H00E22853  10.396   6.333   2.577 -1.5626  1.5859  2.6483
  1234G12c H00D22854  10.413   6.467   2.502 -4.2458 -3.7119  0.9532
  1234G12c O00522855  10.550   6.335   2.437 -0.0943 -0.8100 -1.8635
  1234G12c H00C22856  10.640   6.327   2.466 -1.0107 -4.6823  0.2107
  1234G12c C01O22857  10.365   6.571   2.830  0.8796 -2.7639 -0.9371
  1234G12c H00H22858  10.380   6.492   2.902 -4.6304 -2.6322  0.6026
  1234G12c C01N22859  10.230   6.577   2.788  0.5167  0.6350 -0.2957
  1234G12c O00622860  10.130   6.489   2.835 -0.7780  0.2071 -0.4499
  1234G12c C01T22861  10.123   6.451   2.963 -0.9571  0.0118 -0.4755
  1234G12c H00K22862  10.190   6.367   2.980 -4.6544 -2.6228  1.8889
  1234G12c H00J22863  10.029   6.411   3.001  0.7792  1.4506  5.9156
  1234G12c H00I22864  10.122   6.535   3.031 -2.7756  0.9956 -1.6810
  1234G12c C01M22865  10.197   6.663   2.689  2.4097  0.1264  0.8544
  1234G12c C02022866  10.284   7.016   2.374  1.2602 -0.2411 -0.1657
  1234G12c C02122867  10.136   7.008   2.357  0.2478  0.5327  0.0244
  1234G12c C01L22868  10.282   6.750   2.636 -1.1656  1.5167  0.3451
  1234G12c O00722869  10.055   6.677   2.687 -0.4304 -1.8451  0.1356
  1234G12c C02222870  10.046   6.909   2.410  1.1071  0.2352 -0.1243
  1234G12c C02322871  10.060   7.115   2.355 -0.1063  0.3400  0.8653
  1234G12c C00G22872   9.901   7.322   2.386 -0.2316  0.5197  0.9100
  1234G12c C00E22873   9.680   7.432   2.382 -0.0623 -0.4619 -0.1504
  1234G12c O00A22874   9.597   7.535   2.357 -0.0007  1.2047  0.8972
  1234G12c C02422875   9.607   7.575   2.229  0.6093 -0.5135 -0.1235
  1234G12c H00V22876   9.687   7.526   2.173  4.9818  1.7895  3.7730
  1234G12c H00U22877   9.654   7.671   2.211 -2.1262  0.7403 -0.8755
  1234G12c H00T22878   9.515   7.601   2.177 -1.6499 -2.1154  2.8691
  1244G12c C00D22879   2.313   2.382   9.408 -0.9247  1.1036 -0.0550
  1244G12c O00B22880   2.235   2.283   9.403  1.3722  0.1396  1.0834
  1244G12c C02522881   2.099   2.275   9.459  0.0640  0.0905  0.3285
  1244G12c C02622882   2.004   2.166   9.388  0.6278  0.1401 -0.2007
  1244G12c H00Y22883   1.950   2.202   9.301 -0.2855  3.4488  1.6345
  1244G12c H00X22884   1.947   2.104   9.457  1.8990 -4.8665 -3.4278
  1244G12c O00C22885   2.113   2.076   9.333  0.7685 -0.0618  0.0123
  1244G12c H00W22886   2.202   2.107   9.342 -1.2031  5.4795  2.0625
  1244G12c C02722887   2.067   2.346   9.566 -0.7425 -1.4597 -0.8523
  1244G12c O00D22888   2.128   2.464   9.583  1.5569  0.5895  1.1416
  1244G12c H00Z22889   2.216   2.460   9.548  4.8677 -1.3081  8.7326
  1244G12c C02822890   1.951   2.304   9.637 -0.0734 -0.4476 -0.3414
  1244G12c C02922891   1.903   2.178   9.669 -0.5474  0.3439 -2.6144
  1244G12c H01022892   1.964   2.093   9.643 -5.8838 -5.4590  2.2482
  1244G12c C02T22893   1.791   2.158   9.784  0.0914  0.2462 -0.4868
  1244G12c H01O22894   1.743   2.064   9.810 -2.1612  1.0785 -1.4516
  1244G12c C02S22895   1.735   2.273   9.818  0.4127 -0.2930 -0.3030
  1244G12c O00J22896   1.641   2.266   9.909 -0.1766 -0.6878 -0.4608
  1244G12c H01P22897   1.601   2.349   9.930 -1.6590 -0.7956 -2.6625
  1244G12c C02R22898   1.766   2.407   9.772  0.4505  0.9690 -1.1101
  1244G12c O00I22899   1.701   2.514   9.830  0.6196 -1.1483  0.0860
  1244G12c C02Q22900   1.763   2.634   9.827 -0.2144 -0.4786  0.4780
  1244G12c H01N22901   1.707   2.717   9.870  6.1553  1.3114  6.1203
  1244G12c H01R22902   1.863   2.640   9.869 -0.3613  5.4844  0.4346
  1244G12c H01Q22903   1.729   2.644   9.724  0.0930 -8.3494 -0.7249
  1244G12c C02A22904   1.878   2.420   9.690  0.3952 -1.0613 -0.0367
  1244G12c H01122905   1.890   2.518   9.647 -2.8007 -0.2121  0.9199
  1244G12c C00C22906   2.312   2.487   9.307  0.2559  0.7796  1.5957
  1244G12c H01222907   2.257   2.471   9.215  1.1405 -3.9902  1.7515
  1244G12c C00B22908   2.354   2.613   9.333 -1.1150  0.3752 -1.4172
  1244G12c C00A22909   2.324   2.744   9.281 -0.2637 -0.5151 -0.4309
  1244G12c C00922910   2.290   2.799   9.159  0.1292  0.7692 -0.4441
  1244G12c C00822911   2.308   2.731   9.035 -0.4664  0.4037  1.3944
  1244G12c H01322912   2.340   2.628   9.033 -1.8025 -0.0063 -2.7897
  1244G12c C00722913   2.304   2.815   8.914 -3.2192  0.8253  0.8757
  1244G12c H01422914   2.296   2.756   8.824 -0.5161  2.7154 -0.6830
  1244G12c C00622915   2.320   2.958   8.931  0.9265 -0.2378 -0.9369
  1244G12c C00522916   2.321   3.000   9.071 -0.9472 -0.1142  1.6677
  1244G12c C00422917   2.383   3.126   9.096 -0.5263 -0.6274 -0.1586
  1244G12c C00322918   2.413   3.166   9.224 -0.6347 -1.6989 -1.3921
  1244G12c C00222919   2.497   3.282   9.236 -0.2132  0.4635  0.4370
  1244G12c C00122920   2.568   3.363   9.341 -1.4913  1.9809  0.0068
  1244G12c C00M22921   2.651   3.277   9.436 -0.4849 -0.5776  0.5833
  1244G12c C00L22922   2.584   3.163   9.515  0.3491 -0.5636  1.5704
  1244G12c C00R22923   2.677   3.066   9.581  0.3197  1.4024 -0.0998
  1244G12c C00Q22924   2.819   3.069   9.609  0.7701  0.4169  1.7898
  1244G12c C00V22925   2.861   2.949   9.664  0.7021 -1.5786 -0.3517
  1244G12c C00U22926   2.796   2.824   9.673 -0.0014 -0.5639  0.5244
  1244G12c C00T22927   2.673   2.819   9.607 -0.0426 -1.3918 -0.5160
  1244G12c C01622928   2.618   2.715   9.551  0.5248  0.4007 -0.3055
  1244G12c C01522929   2.679   2.597   9.565  0.4769 -1.6124 -0.8782
  1244G12c C01022930   2.799   2.597   9.624 -0.1456  0.8062 -0.9776
  1244G12c C01122931   2.874   2.479   9.627  0.5859  0.2619 -0.1723
  1244G12c H00522932   2.976   2.462   9.660  0.7038  2.7384  0.8672
  1244G12c C01222933   2.825   2.357   9.609 -1.1014 -1.3847  0.0597
  1244G12c C01722934   2.900   2.234   9.597  0.3724  0.2054 -1.2205
  1244G12c O00222935   2.858   2.129   9.671  0.7153  1.7127  0.0018
  1244G12c H00422936   2.822   2.185   9.738 -0.7860 -0.2320  0.8927
  1244G12c C01822937   2.997   2.216   9.507  2.5960 -1.9489  0.1514
  1244G12c O00122938   3.049   2.316   9.422 -0.6487  0.7306 -0.6353
  1244G12c H00322939   3.103   2.261   9.367  0.8556  1.9068 -0.3789
  1244G12c C01922940   3.085   2.094   9.487  0.5102  2.0177 -2.2846
  1244G12c H00222941   3.110   2.033   9.574  4.2740  4.2501 -1.6700
  1244G12c H00122942   3.032   2.019   9.428  5.9920  2.1045 -7.8706
  1244G12c O00022943   3.182   2.130   9.391 -2.2809  0.2563 -1.0609
  1244G12c C01A22944   3.255   2.027   9.327 -0.4300  0.3397 -0.7741
  1244G12c C02K22945   3.364   1.952   9.395 -0.5063 -0.6424 -1.8807
  1244G12c O00G22946   3.387   1.964   9.541  0.0322  0.2902  0.9101
  1244G12c C02M22947   3.517   1.983   9.576  1.3050  2.9198 -1.1800
  1244G12c H01G22948   3.531   1.952   9.679 -3.3562 -2.0128 -1.8282
  1244G12c H01F22949   3.539   2.085   9.542  0.6661  2.0477 -4.3334
  1244G12c H01E22950   3.585   1.938   9.504  1.2847 -2.2740  1.8784
  1244G12c C02J22951   3.406   1.842   9.322  1.0457  0.3047  0.3122
  1244G12c H01H22952   3.493   1.783   9.350  3.3810  2.6549 -1.7198
  1244G12c C02I22953   3.313   1.765   9.251  0.9731  0.3652  1.0333
  1244G12c C02N22954   3.301   1.622   9.281 -0.0781  0.6862 -0.9258
  1244G12c H01M22955   3.389   1.573   9.319 -3.2222 -3.1762  1.8098
  1244G12c C02O22956   3.178   1.584   9.320  0.7371 -1.3527  0.3516
  1244G12c H01L22957   3.093   1.649   9.309  1.5618 -0.9746 -4.7381
  1244G12c C02P22958   3.149   1.472   9.401 -0.3141  0.0771 -1.1236
  1244G12c H01K22959   3.173   1.394   9.329  2.4090 -4.1910  4.0647
  1244G12c H01J22960   3.234   1.434   9.457  6.8320  3.5342 -8.5131
  1244G12c O00H22961   3.055   1.523   9.480  0.2056  0.6384  1.4473
  1244G12c H01I22962   3.075   1.489   9.566  1.6658  0.3908  1.0363
  1244G12c C02H22963   3.226   1.834   9.172  0.6677 -1.0725 -0.5999
  1244G12c H01C22964   3.177   1.772   9.099 -3.0479  0.8418  0.1272
  1244G12c C02L22965   3.183   1.959   9.218 -0.3291 -2.2135  1.1831
  1244G12c H01D22966   3.083   1.979   9.182  0.0703 -1.3032  0.5552
  1244G12c C01322967   2.686   2.362   9.569 -0.3137 -0.9623  0.9908
  1244G12c H00022968   2.643   2.273   9.527 -4.5985  1.4544 -0.0002
  1244G12c C01422969   2.617   2.485   9.540 -1.1885 -1.5026  1.3087
  1244G12c C00F22970   2.500   2.491   9.470  1.7508  1.3900  0.4386
  1244G12c C00H22971   2.498   2.724   9.468  1.0703  0.7208 -0.8396
  1244G12c C00I22972   2.433   2.843   9.455  0.3102  0.5933  1.7953
  1244G12c C00J22973   2.481   2.953   9.531  1.4255  2.0393 -0.1905
  1244G12c C00Z22974   2.862   2.703   9.676 -1.5347 -2.1051  0.1191
  1244G12c C00Y22975   2.994   2.715   9.721 -0.5309  1.0634  1.0753
  1244G12c H00622976   3.029   2.615   9.744 -3.6373 -2.6461 -8.0595
  1244G12c C00X22977   3.052   2.838   9.747 -1.0560  0.1751 -1.8813
  1244G12c O00322978   3.164   2.844   9.829  0.0865 -0.3927  0.3696
  1244G12c C01B22979   3.294   2.821   9.758 -0.0714  1.1217  1.0508
  1244G12c H00922980   3.285   2.739   9.686 -1.5259 -3.9818  6.6812
  1244G12c H00822981   3.364   2.790   9.835 -3.8716 -0.3782  4.0574
  1244G12c H00722982   3.328   2.912   9.708  0.2771 -1.7283 -4.3831
  1244G12c C00W22983   3.000   2.960   9.694 -0.7042  0.6188 -1.6261
  1244G12c O00422984   3.090   3.063   9.669 -1.2831  0.7709 -0.2577
  1244G12c C01C22985   3.031   3.196   9.647  0.4988  1.2543  0.7505
  1244G12c H00A22986   3.099   3.280   9.652  2.2082 -0.1401  1.1609
  1244G12c C00P22987   2.907   3.179   9.588 -0.4785 -1.6353 -0.0429
  1244G12c C00O22988   2.900   3.258   9.465 -0.9314  0.2691  0.1848
  1244G12c C01D22989   3.023   3.271   9.394  0.4679  0.3488  0.1686
  1244G12c H00S22990   3.100   3.197   9.410  2.3811  1.8732 -1.7804
  1244G12c C01E22991   3.012   3.349   9.277 -0.8755 -0.5623 -0.6479
  1244G12c O00822992   3.122   3.390   9.197 -0.0367 -0.9628  0.8154
  1244G12c C01V22993   3.178   3.501   9.269 -0.5905  0.7470  1.6791
  1244G12c C01Z22994   3.296   3.455   9.369 -0.9603  0.7040  0.9479
  1244G12c H00R22995   3.271   3.350   9.378  0.5052  0.1715 -0.9555
  1244G12c H00Q22996   3.398   3.439   9.335 -1.5965  5.2582 -3.8063
  1244G12c O00922997   3.280   3.486   9.504 -0.2809  0.8240  0.3289
  1244G12c H00P22998   3.367   3.488   9.541 -1.1657  4.4251  2.4148
  1244G12c C01W22999   3.143   3.622   9.247  0.4126  0.5155  0.3154
  1244G12c H00O23000   3.074   3.614   9.165 -2.2062 -3.2819  2.7472
  1244G12c C01X23001   3.177   3.739   9.311 -0.3819 -1.0738  0.8867
  1244G12c H00N23002   3.243   3.720   9.396  3.9787  4.2756 -1.0228
  1244G12c H00M23003   3.224   3.816   9.249 -1.8169 -4.9585 -5.5224
  1244G12c C01Y23004   3.044   3.779   9.340 -0.3277  2.0091 -1.1304
  1244G12c C02D23005   2.953   3.840   9.256  1.8340  0.9287  2.2171
  1244G12c H01923006   2.970   3.859   9.151 -4.5082  3.7677  1.4699
  1244G12c C02C23007   2.817   3.877   9.313 -1.2083  1.2076 -0.6188
  1244G12c H01A23008   2.741   3.944   9.276 -6.6905 -4.7109 -1.0103
  1244G12c C02B23009   2.781   3.847   9.446 -0.4143 -0.6580  1.2654
  1244G12c O00E23010   2.668   3.908   9.496  0.3675 -2.6043 -1.3014
  1244G12c H01B23011   2.675   3.882   9.587 -3.2351 -0.1277 -0.1966
  1244G12c C02F23012   2.879   3.797   9.537 -0.9492 -1.9606  0.2766
  1244G12c O00F23013   2.846   3.753   9.666  0.0813  0.0004  1.1023
  1244G12c C02G23014   2.753   3.643   9.689 -0.0157 -0.1996 -0.5943
  1244G12c H01723015   2.706   3.626   9.592 -8.0574  1.7391  2.4892
  1244G12c H01623016   2.664   3.653   9.752  0.5832 -5.8974  1.4163
  1244G12c H01523017   2.805   3.563   9.741 -0.1487  3.4419  5.7660
  1244G12c C02E23018   3.010   3.763   9.475  0.2862 -0.4731  0.2587
  1244G12c H01823019   3.085   3.746   9.551  4.6004 -0.0813 -3.7104
  1244G12c C01F23020   2.892   3.397   9.234  0.3979  0.0335 -2.3217
  1244G12c C01G23021   2.871   3.440   9.100 -3.1718  0.7486  0.1948
  1244G12c H00L23022   2.954   3.439   9.031 -1.6109 -6.7837  1.6467
  1244G12c C01H23023   2.733   3.452   9.058 -0.1382  0.2087  0.2521
  1244G12c H00B23024   2.717   3.458   8.951  0.1296 -1.4337  0.1035
  1244G12c C01I23025   2.622   3.465   9.144 -0.9293  0.3043  0.1716
  1244G12c C01U23026   2.780   3.411   9.312 -0.7923  1.8764  0.9570
  1244G12c C00S23027   2.613   2.936   9.593  2.5887 -0.4999  0.7654
  1244G12c C00K23028   2.478   3.075   9.457  0.3297 -2.6895 -0.9579
  1244G12c C00N23029   2.784   3.311   9.410  0.3175  1.8989 -2.4030
  1244G12c C00023030   2.655   3.463   9.283 -0.4818 -0.0033  0.5159
  1244G12c C01J23031   2.523   3.363   9.120  0.4271  0.4408  0.0890
  1244G12c C01K23032   2.438   3.357   9.011 -0.2565 -0.8690 -1.1035
  1244G12c C01P23033   2.400   3.450   8.912  2.1557  1.1950  2.4061
  1244G12c C01Q23034   2.451   3.594   8.931  1.4423 -0.3628  1.2177
  1244G12c H00G23035   2.475   3.638   9.026  2.4535 -2.5329  1.9761
  1244G12c C01R23036   2.424   3.687   8.824  0.3538 -0.1861  0.7428
  1244G12c H00F23037   2.386   3.664   8.726  1.2541 -2.7177  0.9362
  1244G12c C01S23038   2.398   3.828   8.877  0.0517  0.2101 -0.2607
  1244G12c H00E23039   2.343   3.863   8.790  3.6652  2.7913 -1.6034
  1244G12c H00D23040   2.342   3.841   8.970 -0.9364  5.7603 -1.4787
  1244G12c O00523041   2.537   3.895   8.884 -1.7060  0.2331  1.1697
  1244G12c H00C23042   2.524   3.958   8.952  2.1699  4.9601 -2.1182
  1244G12c C01O23043   2.377   3.403   8.781 -0.1112  0.1460  0.5432
  1244G12c H00H23044   2.332   3.475   8.715  0.2913 -1.2009 -1.2269
  1244G12c C01N23045   2.383   3.265   8.747  0.3335  0.2398  0.2113
  1244G12c O00623046   2.348   3.227   8.620  0.0854 -0.0356  0.1162
  1244G12c C01T23047   2.204   3.198   8.633  0.2554  0.0745  1.5647
  1244G12c H00K23048   2.141   3.286   8.620 -5.0637 -3.1169  4.1780
  1244G12c H00J23049   2.159   3.169   8.728 -1.9128 -4.8872 -0.7803
  1244G12c H00I23050   2.159   3.140   8.553  4.8279 -5.2136  2.4994
  1244G12c C01M23051   2.392   3.179   8.854 -0.2626 -0.8479 -0.6075
  1244G12c C02023052   2.386   3.083   9.345 -1.2476 -0.4608  0.4926
  1244G12c C02123053   2.291   2.985   9.311 -1.3293  0.3304 -1.2511
  1244G12c C01L23054   2.407   3.223   8.990  0.9988 -0.6013 -1.1153
  1244G12c O00723055   2.345   3.060   8.837  0.8518  1.3690 -0.4255
  1244G12c C02223056   2.273   2.937   9.177 -1.1090  1.4171  0.3735
  1244G12c C02323057   2.323   2.860   9.369  1.0749 -0.1958  0.6570
  1244G12c C00G23058   2.449   2.609   9.427 -0.8713 -1.9208 -0.1386
  1244G12c C00E23059   2.428   2.387   9.503 -0.4711  0.9601 -0.0829
  1244G12c O00A23060   2.437   2.298   9.609 -0.1332  0.6879 -0.8921
  1244G12c C02423061   2.387   2.170   9.623  0.4908 -0.5622 -0.1819
  1244G12c H00V23062   2.419   2.127   9.528 -1.5794 -6.2854  1.5425
  1244G12c H00U23063   2.407   2.133   9.723 -3.6042  2.3434  1.8882
  1244G12c H00T23064   2.280   2.153   9.609  0.5145 -0.4659 -0.5014
  1254G12c C00D23065   4.601   7.330  10.947  1.0392  1.8485 -0.4153
  1254G12c O00B23066   4.487   7.353  11.001 -1.1183  0.0438  0.5373
  1254G12c C02523067   4.402   7.237  10.985  0.7708 -1.2200 -0.1907
  1254G12c C02623068   4.260   7.278  10.924 -0.0207  0.2810 -0.4419
  1254G12c H00Y23069   4.235   7.377  10.963 -3.4679  1.6429 -5.5062
  1254G12c H00X23070   4.196   7.190  10.914 -1.9679  1.7797 -1.6489
  1254G12c O00C23071   4.263   7.327  10.802  0.6216  0.0456  0.5371
  1254G12c H00W23072   4.273   7.420  10.784 -4.0279 -0.6715 -9.1310
  1254G12c C02723073   4.441   7.116  11.017 -0.5753  0.4090  2.0046
  1254G12c O00D23074   4.554   7.081  11.113 -0.7470  1.1423 -0.4382
  1254G12c H00Z23075   4.634   7.036  11.088  0.8068  1.1461  4.1626
  1254G12c C02823076   4.355   7.005  10.965 -0.3281  0.8511 -0.8810
  1254G12c C02923077   4.375   6.911  10.857  0.2278 -0.1362  0.6016
  1254G12c H01023078   4.459   6.938  10.795 -3.4400  3.9784 -2.9969
  1254G12c C02T23079   4.275   6.816  10.829 -0.4664 -0.9970 -0.4515
  1254G12c H01O23080   4.270   6.748  10.745 -2.0143  2.4538 -3.2639
  1254G12c C02S23081   4.181   6.791  10.922  1.3872  1.2585  0.0647
  1254G12c O00J23082   4.137   6.659  10.955  0.4649  0.3001 -0.1124
  1254G12c H01P23083   4.070   6.598  10.983  3.6779 -2.4452  1.9395
  1254G12c C02R23084   4.141   6.880  11.015 -1.0004  1.5881 -1.1074
  1254G12c O00I23085   4.092   6.833  11.140  0.2649 -0.4571 -0.1010
  1254G12c C02Q23086   3.961   6.824  11.151 -0.9905 -0.5211  0.8998
  1254G12c H01N23087   3.928   6.721  11.154  2.3646 -1.6110  3.3895
  1254G12c H01R23088   3.946   6.847  11.257 -3.0547  1.9546  0.0998
  1254G12c H01Q23089   3.910   6.895  11.086  1.5943 -1.0837 -1.8504
  1254G12c C02A23090   4.240   6.978  11.040 -0.8981 -1.0722  0.9372
  1254G12c H01123091   4.211   7.061  11.103  1.4335  0.9408 -0.5478
  1254G12c C00C23092   4.721   7.361  11.036  0.9945 -1.3123  1.0753
  1254G12c H01223093   4.696   7.414  11.126  5.7405 -2.1727  3.0321
  1254G12c C00B23094   4.848   7.330  10.998 -1.3788 -0.3429  2.7743
  1254G12c C00A23095   4.960   7.393  11.047 -0.2223 -0.1617  2.3466
  1254G12c C00923096   4.974   7.534  11.090 -0.6089  0.3166  0.7126
  1254G12c C00823097   4.886   7.652  11.099 -0.0935  2.2268 -0.9490
  1254G12c H01323098   4.779   7.639  11.088 -0.7562  7.1204 -1.0488
  1254G12c C00723099   4.951   7.770  11.147 -0.6083 -0.4009  0.0789
  1254G12c H01423100   4.899   7.848  11.201 -2.6493 -1.2022 -0.6938
  1254G12c C00623101   5.082   7.794  11.133 -1.1226 -0.0611  0.1786
  1254G12c C00523102   5.164   7.685  11.090  1.1021  0.0891 -0.8079
  1254G12c C00423103   5.291   7.708  11.045  0.2638  1.9887  0.6049
  1254G12c C00323104   5.363   7.596  10.984 -0.6465 -0.3098  0.2727
  1254G12c C00223105   5.491   7.622  10.936 -1.7558 -0.9423  0.5367
  1254G12c C00123106   5.584   7.548  10.857  0.0902 -0.0489 -0.7745
  1254G12c C00M23107   5.551   7.455  10.758  0.1134 -0.6488  1.7067
  1254G12c C00L23108   5.451   7.363  10.770 -2.0218  0.9999 -0.7103
  1254G12c C00R23109   5.380   7.301  10.663  0.7400  0.0136  0.0053
  1254G12c C00Q23110   5.402   7.292  10.516 -1.3275 -0.1778  0.3117
  1254G12c C00V23111   5.301   7.223  10.447 -1.4557  0.2415  0.0617
  1254G12c C00U23112   5.176   7.193  10.502 -0.2844  1.2878 -1.2151
  1254G12c C00T23113   5.149   7.215  10.635 -1.7959 -0.7465  0.8146
  1254G12c C01623114   5.025   7.207  10.694 -0.5532  1.1123  1.7222
  1254G12c C01523115   4.917   7.171  10.619  0.5778  1.6022  1.3459
  1254G12c C01023116   4.942   7.132  10.496 -0.4546  1.1799  1.1145
  1254G12c C01123117   4.822   7.068  10.431  0.3949 -0.7898 -1.5809
  1254G12c H00523118   4.823   7.041  10.327  0.1623  4.3529 -3.0732
  1254G12c C01223119   4.693   7.065  10.478 -0.5142  0.7997  0.6616
  1254G12c C01723120   4.583   7.032  10.383 -0.3400  1.5179 -0.0756
  1254G12c O00223121   4.621   6.947  10.275  0.1475 -0.0596 -1.4650
  1254G12c H00423122   4.546   6.907  10.234 -0.4852  1.2978 -1.6657
  1254G12c C01823123   4.472   7.101  10.357 -0.5763  0.4010  0.2297
  1254G12c O00123124   4.432   7.200  10.450 -0.4018 -0.0274  1.1260
  1254G12c H00323125   4.357   7.242  10.412 -1.1016 -3.3229 -1.3858
  1254G12c C01923126   4.391   7.087  10.227  0.2640 -2.5044  0.9878
  1254G12c H00223127   4.459   7.038  10.156 -0.5483  3.2410 -4.2269
  1254G12c H00123128   4.311   7.021  10.258  0.2233 -1.7684  2.4623
  1254G12c O00023129   4.344   7.206  10.171  0.7765 -0.4903  0.0690
  1254G12c C01A23130   4.409   7.272  10.074 -0.6104  0.8985  1.3534
  1254G12c C02K23131   4.435   7.414  10.091 -0.4788  0.8126 -0.0575
  1254G12c O00G23132   4.395   7.485  10.198  0.9211  0.2463 -0.3287
  1254G12c C02M23133   4.280   7.565  10.186 -0.8489 -0.6713 -0.5099
  1254G12c H01G23134   4.257   7.530  10.085 -5.6648 -0.7499  0.4961
  1254G12c H01F23135   4.186   7.521  10.219  0.8147 -1.8156  2.9393
  1254G12c H01E23136   4.278   7.667  10.225  2.6626 -2.5610  5.1181
  1254G12c C02J23137   4.511   7.480   9.990 -1.7890 -2.2964 -0.6819
  1254G12c H01H23138   4.537   7.585   9.993 -0.1508 -1.8718-10.8441
  1254G12c C02I23139   4.557   7.422   9.879 -1.5930 -0.8054  0.3503
  1254G12c C02N23140   4.650   7.492   9.792  0.6542  0.4899  0.4905
  1254G12c H01M23141   4.754   7.463   9.783  0.4445  0.1299 -1.0098
  1254G12c C02O23142   4.606   7.610   9.747  1.0483  0.5177 -0.2195
  1254G12c H01L23143   4.514   7.664   9.762  1.3540  1.5455 -1.9884
  1254G12c C02P23144   4.714   7.730   9.726  1.3658  0.0363 -0.1750
  1254G12c H01K23145   4.671   7.820   9.770  0.8142  1.0988 -2.7670
  1254G12c H01J23146   4.814   7.703   9.762 -0.2327 -0.9726  3.7185
  1254G12c O00H23147   4.701   7.779   9.587 -0.4617  1.0553 -0.8881
  1254G12c H01I23148   4.771   7.744   9.535  0.8047  3.1432 -0.6461
  1254G12c C02H23149   4.553   7.288   9.890  1.4469 -0.0706  0.9701
  1254G12c H01C23150   4.593   7.224   9.813  1.9858  2.5678 -1.0024
  1254G12c C02L23151   4.482   7.210   9.974  0.4314  1.4876 -1.4862
  1254G12c H01D23152   4.448   7.109   9.960  2.9992  0.7556 -2.7498
  1254G12c C01323153   4.678   7.125  10.604 -2.1551  1.1712 -1.0719
  1254G12c H00023154   4.585   7.103  10.655  0.1691  4.6775  5.3017
  1254G12c C01423155   4.787   7.181  10.666 -1.7338  0.5963 -0.3536
  1254G12c C00F23156   4.771   7.248  10.785  0.2135  0.0236 -1.5258
  1254G12c C00H23157   5.007   7.240  10.831 -2.2322 -0.0676  0.4049
  1254G12c C00I23158   5.118   7.289  10.897 -1.1759 -0.6713 -0.6687
  1254G12c C00J23159   5.247   7.286  10.840 -0.7866  1.2340 -0.9960
  1254G12c C00Z23160   5.074   7.132  10.433 -0.4065  1.7666 -0.5746
  1254G12c C00Y23161   5.095   7.130  10.291  0.4991  1.9240  2.0557
  1254G12c H00623162   5.022   7.086  10.225  1.7067 -0.8779  2.5035
  1254G12c C00X23163   5.232   7.119  10.241 -0.1455  0.3580 -0.4071
  1254G12c O00323164   5.238   7.067  10.109 -0.1133 -1.5618 -0.3896
  1254G12c C01B23165   5.345   7.000  10.043 -0.8350  1.7793  0.4626
  1254G12c H00923166   5.310   6.971   9.944 -0.9829  0.5460  0.8647
  1254G12c H00823167   5.430   7.068  10.039  1.1031 -0.4919  1.8045
  1254G12c H00723168   5.367   6.899  10.076 -3.5907  0.3139 -1.8921
  1254G12c C00W23169   5.345   7.170  10.313 -0.8385 -0.4282  0.6310
  1254G12c O00423170   5.477   7.149  10.276 -0.8506  0.1960  0.1971
  1254G12c C01C23171   5.550   7.255  10.351 -1.2212  0.4630 -0.0938
  1254G12c H00A23172   5.658   7.246  10.349 -1.4229 -3.0696  1.1903
  1254G12c C00P23173   5.504   7.351  10.448 -1.9827  1.5697  0.9549
  1254G12c C00O23174   5.574   7.458  10.493  0.4031 -1.1627  0.2573
  1254G12c C01D23175   5.634   7.540  10.384 -0.5570 -0.8859  0.4305
  1254G12c H00S23176   5.596   7.539  10.282 -3.2071  4.0004  1.1905
  1254G12c C01E23177   5.691   7.672  10.417  1.8678 -1.2350 -0.6786
  1254G12c O00823178   5.732   7.774  10.326  0.4066  0.3559  1.3777
  1254G12c C01V23179   5.726   7.760  10.193  0.1885  0.1970  0.2394
  1254G12c C01Z23180   5.607   7.818  10.123  0.9441 -1.3792 -0.6022
  1254G12c H00R23181   5.604   7.926  10.136  3.3718 -1.3464  0.0416
  1254G12c H00Q23182   5.597   7.797  10.016  0.4246 -6.0815  0.2323
  1254G12c O00923183   5.488   7.733  10.179  0.5052 -1.2334 -0.1741
  1254G12c H00P23184   5.487   7.779  10.262  3.1746 -1.2969 -0.0814
  1254G12c C01W23185   5.820   7.696  10.124 -1.3806  2.0358 -0.0436
  1254G12c H00O23186   5.898   7.643  10.176 -0.1472  2.0100 -1.8757
  1254G12c C01X23187   5.818   7.679   9.983 -0.3120  0.3473 -0.0536
  1254G12c H00N23188   5.866   7.582   9.968  1.9112  0.9772  2.7271
  1254G12c H00M23189   5.747   7.633   9.914 -0.4759  5.3143 -3.5005
  1254G12c C01Y23190   5.913   7.795   9.936  1.1407  1.9521  0.6617
  1254G12c C02D23191   5.998   7.784   9.816  0.2108 -0.8065 -0.6729
  1254G12c H01923192   5.994   7.703   9.745  2.1195  3.3346 -5.8854
  1254G12c C02C23193   6.056   7.900   9.760 -0.9100  0.2731  0.8665
  1254G12c H01A23194   6.098   7.901   9.660  1.6895 -2.0486  1.8799
  1254G12c C02B23195   6.091   8.016   9.854  0.7340 -0.8404  0.0258
  1254G12c O00E23196   6.192   8.114   9.838 -0.6978 -1.4340 -1.3762
  1254G12c H01B23197   6.251   8.075   9.776  4.3168  2.8612  0.3602
  1254G12c C02F23198   6.012   8.016   9.972  1.0569 -0.1380  1.3828
  1254G12c O00F23199   6.022   8.110  10.070 -0.5929 -0.6163 -0.2009
  1254G12c C02G23200   6.124   8.058  10.156  0.6119 -0.1487 -0.2990
  1254G12c H01723201   6.153   8.143  10.219 -0.7499  2.2342 -2.7823
  1254G12c H01623202   6.203   8.038  10.084 -2.0655  0.0145 -3.3550
  1254G12c H01523203   6.126   7.978  10.230  3.3045  6.3139  7.3825
  1254G12c C02E23204   5.916   7.927  10.010 -0.3398  0.0383 -0.0924
  1254G12c H01823205   5.863   7.944  10.102  1.0150 -2.4210  1.1982
  1254G12c C01F23206   5.689   7.713  10.561 -0.2446  0.8772  0.1800
  1254G12c C01G23207   5.712   7.848  10.612  1.5201  0.1254 -1.2449
  1254G12c H00L23208   5.717   7.916  10.528 -7.1825  1.7885 -0.8480
  1254G12c C01H23209   5.680   7.882  10.750  0.8780  0.6004  0.9287
  1254G12c H00B23210   5.677   7.986  10.780  3.2390  1.1431 -0.6358
  1254G12c C01I23211   5.650   7.774  10.843 -0.6344  0.3249  1.4753
  1254G12c C01U23212   5.665   7.613  10.654  0.7735 -1.9392 -1.8067
  1254G12c C00S23213   5.268   7.230  10.714 -0.6962  0.7471  2.3681
  1254G12c C00K23214   5.341   7.380  10.876  0.0317 -0.4446  0.0242
  1254G12c C00N23215   5.589   7.503  10.628  1.1764  0.7313  2.3018
  1254G12c C00023216   5.669   7.649  10.798  0.3037 -0.6047  0.2867
  1254G12c C01J23217   5.544   7.751  10.949 -1.3781 -0.4801  0.3206
  1254G12c C01K23218   5.480   7.869  11.015  0.8562  0.5502 -0.8863
  1254G12c C01P23219   5.523   7.995  11.041 -0.4779  0.2308  1.0361
  1254G12c C01Q23220   5.660   8.045  11.045  2.1999  1.0844  0.4076
  1254G12c H00G23221   5.702   8.113  10.973  3.2449 -0.5015 -0.4969
  1254G12c C01R23222   5.725   8.005  11.149  0.1775 -0.3216  1.3345
  1254G12c H00F23223   5.694   7.915  11.201  3.2180 -0.9939  2.0433
  1254G12c C01S23224   5.853   8.075  11.212  0.3307  0.7167 -1.0358
  1254G12c H00E23225   5.840   8.172  11.261  2.8713  2.1096 -2.9669
  1254G12c H00D23226   5.899   8.000  11.276 -2.0818  0.4202  0.3879
  1254G12c O00523227   5.929   8.103  11.109 -0.0313  0.5951 -0.2987
  1254G12c H00C23228   5.938   8.029  11.050 -1.7767  1.9696 -2.3816
  1254G12c C01O23229   5.434   8.097  11.076  0.2553  1.1378 -0.4062
  1254G12c H00H23230   5.472   8.198  11.074  7.1855 -1.1433  2.4091
  1254G12c C01N23231   5.297   8.085  11.088  0.0361  1.7881  1.0500
  1254G12c O00623232   5.233   8.192  11.096  0.9691  0.4518  0.2678
  1254G12c C01T23233   5.091   8.183  11.131 -0.8748 -0.0441  0.1451
  1254G12c H00K23234   5.034   8.224  11.047  0.4037 -0.7676 -1.0932
  1254G12c H00J23235   5.085   8.280  11.180 -4.1756  1.7276 -3.4569
  1254G12c H00I23236   5.047   8.156  11.227  4.9625  0.1793  3.1076
  1254G12c C01M23237   5.260   7.948  11.119 -0.0316 -0.9591 -1.4937
  1254G12c C02023238   5.304   7.466  10.978 -0.0774 -1.6558  0.3566
  1254G12c C02123239   5.191   7.447  11.057 -0.5165  1.0269  0.5887
  1254G12c C01L23240   5.345   7.840  11.047 -0.1701 -1.0756 -0.5437
  1254G12c O00723241   5.120   7.919  11.140 -0.4018  0.0367  0.2297
  1254G12c C02223242   5.116   7.553  11.101 -0.5489  0.1570  1.0521
  1254G12c C02323243   5.090   7.355  11.017  0.6835 -0.6988  1.6909
  1254G12c C00G23244   4.877   7.266  10.879 -0.1035 -1.1981  0.6914
  1254G12c C00E23245   4.633   7.300  10.817 -1.5957  0.8051 -0.0421
  1254G12c O00A23246   4.533   7.320  10.729  1.2048 -0.0757  2.1494
  1254G12c C02423247   4.541   7.441  10.660 -0.1498  0.2481  0.4105
  1254G12c H00V23248   4.532   7.541  10.702 -1.4937  0.5397 -0.5316
  1254G12c H00U23249   4.480   7.438  10.570 -0.9225 -4.7329  0.9837
  1254G12c H00T23250   4.641   7.440  10.616  2.2161 -0.7353  5.4826
  1264G12c C00D23251   5.819  10.471   0.465 -0.5927  0.1972 -0.7491
  1264G12c O00B23252   5.714  10.503   0.546  0.7704 -0.9506 -0.9307
  1264G12c C02523253   5.729  10.603   0.658 -1.0502  0.1630  0.2856
  1264G12c C02623254   5.760  10.549   0.787  1.8809 -0.9320  0.5184
  1264G12c H00Y23255   5.776  10.443   0.766  5.8263 -0.4370  0.7201
  1264G12c H00X23256   5.671  10.561   0.849 -1.0135  1.5536 -3.8518
  1264G12c O00C23257   5.872  10.614   0.863 -1.1050 -0.4568  0.5997
  1264G12c H00W23258   5.907  10.673   0.798  1.4934 -4.3371 -1.7845
  1264G12c C02723259   5.656  10.707   0.602  1.3748 -0.9542 -0.7532
  1264G12c O00D23260   5.620  10.711   0.471 -0.6415  0.0903  0.1357
  1264G12c H00Z23261   5.651  10.623   0.462  4.8950  1.7714  1.0281
  1264G12c C02823262   5.608  10.818   0.672 -0.5586 -0.8799 -0.7261
  1264G12c C02923263   5.589  10.933   0.599 -0.8633 -0.6238  0.1610
  1264G12c H01023264   5.603  10.941   0.492 -0.8678 -4.9474 -0.2257
  1264G12c C02T23265   5.527  11.047   0.664 -1.9337 -1.7777 -0.1942
  1264G12c H01O23266   5.483  11.118   0.596  2.4807  3.3493  1.9704
  1264G12c C02S23267   5.532  11.057   0.799 -1.7736 -0.8354 -0.2759
  1264G12c O00J23268   5.459  11.138   0.878 -0.1859  0.2474  0.5113
  1264G12c H01P23269   5.477  11.127   0.970 -5.0450 -4.1417  1.2068
  1264G12c C02R23270   5.583  10.950   0.872 -2.4622 -1.1102  1.1894
  1264G12c O00I23271   5.590  10.952   1.012  0.5454 -0.6574 -1.1612
  1264G12c C02Q23272   5.692  11.024   1.084  1.0356  0.1248  1.0618
  1264G12c H01N23273   5.722  11.002   1.187 -2.6918 -9.1043  0.6554
  1264G12c H01R23274   5.793  11.013   1.045 -0.7389  2.6741 -4.8373
  1264G12c H01Q23275   5.681  11.125   1.045 -4.6127  0.7067  3.6329
  1264G12c C02A23276   5.623  10.829   0.820  1.4242 -0.5258 -0.5784
  1264G12c H01123277   5.646  10.742   0.879  6.6963  0.1372 -1.4645
  1264G12c C00C23278   5.949  10.542   0.472 -1.0775 -0.5880  0.4687
  1264G12c H01223279   5.988  10.593   0.559  9.3131  1.4786 -4.6436
  1264G12c C00B23280   6.028  10.571   0.368  0.9547  1.5923 -0.9209
  1264G12c C00A23281   6.150  10.653   0.348  0.7743 -1.3261  1.2903
  1264G12c C00923282   6.189  10.792   0.406 -1.6896 -0.0622 -0.4527
  1264G12c C00823283   6.135  10.897   0.486 -1.1398  1.8137  0.0689
  1264G12c H01323284   6.048  10.886   0.550 -0.3506 -2.2411  0.5995
  1264G12c C00723285   6.180  11.035   0.475  0.0615 -2.3882 -0.3014
  1264G12c H01423286   6.121  11.111   0.524 -0.7879 -2.0553 -1.7897
  1264G12c C00623287   6.284  11.050   0.383  0.1421  1.3074  0.2219
  1264G12c C00523288   6.345  10.936   0.312 -0.4333 -0.9123  0.1590
  1264G12c C00423289   6.433  10.949   0.209 -2.1974  1.4902  2.5894
  1264G12c C00323290   6.471  10.841   0.126  1.2402  0.2944  0.5381
  1264G12c C00223291   6.548  10.878   0.011  0.0090  0.5240 -1.4332
  1264G12c C00123292   6.615  10.791  -0.085  0.5619  0.5309  0.0364
  1264G12c C00M23293   6.530  10.713  -0.164 -0.4617  0.6416 -0.6846
  1264G12c C00L23294   6.446  10.614  -0.103 -1.2865  0.0644  0.4819
  1264G12c C00R23295   6.344  10.537  -0.166  0.1958 -0.6452  0.7097
  1264G12c C00Q23296   6.300  10.552  -0.309  0.3664 -1.3609 -0.8894
  1264G12c C00V23297   6.193  10.466  -0.324  1.2344  0.5154  0.0295
  1264G12c C00U23298   6.103  10.433  -0.216  2.2659  0.6192 -1.2767
  1264G12c C00T23299   6.138  10.425  -0.076  1.1077  0.7869  0.8214
  1264G12c C01623300   6.059  10.435   0.029 -0.3962  0.3633 -0.6877
  1264G12c C01523301   5.919  10.440  -0.001  0.4546 -1.5129  0.2444
  1264G12c C01023302   5.867  10.407  -0.129  2.0241 -0.2917  1.5977
  1264G12c C01123303   5.736  10.362  -0.137  0.3912  0.4302  1.3773
  1264G12c H00523304   5.700  10.327  -0.233  2.2417 -1.2165  1.2604
  1264G12c C01223305   5.637  10.354  -0.027  0.3001  0.3580 -0.9021
  1264G12c C01723306   5.489  10.344  -0.051 -0.0182  0.7951 -0.3218
  1264G12c O00223307   5.429  10.426  -0.148 -0.3196  0.5288  2.4009
  1264G12c H00423308   5.504  10.482  -0.154  2.9024 -3.0323  6.3068
  1264G12c C01823309   5.418  10.253   0.012 -0.2868  1.6913  1.3281
  1264G12c O00123310   5.457  10.176   0.126 -0.5033 -0.4344 -0.1040
  1264G12c H00323311   5.531  10.197   0.181  2.0154 -0.5415 -3.2838
  1264G12c C01923312   5.282  10.229  -0.042 -0.4566  0.3500 -0.5305
  1264G12c H00223313   5.214  10.243   0.042 -8.0404  0.6114 -6.2481
  1264G12c H00123314   5.235  10.319  -0.080 -1.2769 -0.5087 -1.5818
  1264G12c O00023315   5.274  10.102  -0.100  0.4678  0.8500  0.6701
  1264G12c C01A23316   5.157  10.074  -0.154  0.2839  0.2257 -0.9624
  1264G12c C02K23317   5.156  10.019  -0.299  0.3386  0.0079  0.7897
  1264G12c O00G23318   5.280  10.003  -0.364 -0.1222 -3.2509  0.2820
  1264G12c C02M23319   5.367   9.892  -0.320 -0.4224 -1.6686 -0.4704
  1264G12c H01G23320   5.447   9.867  -0.389 -3.5864 -1.9534 -4.1932
  1264G12c H01F23321   5.322   9.796  -0.294  3.7916 -3.3743  0.8385
  1264G12c H01E23322   5.429   9.931  -0.239 -3.1401  0.5314  0.6601
  1264G12c C02J23323   5.044  10.009  -0.375  0.8056 -0.9621 -0.5712
  1264G12c H01H23324   5.058  10.008  -0.482  0.8790  5.9120 -0.8499
  1264G12c C02I23325   4.929  10.018  -0.307  0.7228  0.0524 -1.2378
  1264G12c C02N23326   4.805   9.968  -0.357  0.8253  0.2696  0.8873
  1264G12c H01M23327   4.768   9.910  -0.274  1.8259  0.3414  1.3903
  1264G12c C02O23328   4.776  10.024  -0.474 -1.3943  1.9613 -1.2588
  1264G12c H01L23329   4.850  10.074  -0.534  0.0824  0.4546 -0.7297
  1264G12c C02P23330   4.637  10.025  -0.535 -2.0652  0.7867  1.0301
  1264G12c H01K23331   4.572  10.071  -0.461  2.3207  1.4941  4.6413
  1264G12c H01J23332   4.640  10.100  -0.614 -3.5413 -2.7865 -2.6488
  1264G12c O00H23333   4.613   9.884  -0.562 -0.0450 -0.0705 -0.2665
  1264G12c H01I23334   4.681   9.833  -0.520  3.9122  4.8139 -0.2942
  1264G12c C02H23335   4.921  10.058  -0.175 -1.5995 -0.7338 -0.9429
  1264G12c H01C23336   4.833  10.060  -0.112 -2.6639  0.0236 -2.4296
  1264G12c C02L23337   5.025  10.112  -0.105  1.0258  1.2321  0.2547
  1264G12c H01D23338   5.002  10.157  -0.009  1.6040 -3.4829  2.7338
  1264G12c C01323339   5.696  10.411   0.082 -1.2429  1.1973 -1.6816
  1264G12c H00023340   5.615  10.445   0.144 -1.2628 -0.9553 -0.4794
  1264G12c C01423341   5.832  10.425   0.104 -0.7604 -0.3218 -0.7437
  1264G12c C00F23342   5.881  10.444   0.233  0.7998  0.2740  1.8539
  1264G12c C00H23343   6.105  10.466   0.164 -0.6925 -1.5375 -0.7126
  1264G12c C00I23344   6.241  10.522   0.168  1.0818 -0.0588  0.5715
  1264G12c C00J23345   6.323  10.501   0.051 -1.2955  1.0968  0.9268
  1264G12c C00Z23346   5.965  10.412  -0.242  1.8638 -0.4249 -1.5873
  1264G12c C00Y23347   5.912  10.401  -0.371 -0.8304 -0.4679 -0.9075
  1264G12c H00623348   5.807  10.426  -0.379 -1.7386 -2.3342  3.5397
  1264G12c C00X23349   6.006  10.436  -0.472 -0.3881 -0.3015 -0.8045
  1264G12c O00323350   5.968  10.421  -0.596  1.0618 -1.4386  0.3295
  1264G12c C01B23351   5.934  10.300  -0.631  1.6406  0.7464 -0.3310
  1264G12c H00923352   5.972  10.217  -0.572 -2.3206 -0.7615  0.2769
  1264G12c H00823353   5.825  10.298  -0.631  1.6228 -0.8689 -2.7216
  1264G12c H00723354   5.971  10.292  -0.734 -0.1752 -1.1931 -0.8663
  1264G12c C00W23355   6.139  10.452  -0.456  0.2526  0.2936 -1.0419
  1264G12c O00423356   6.209  10.494  -0.564 -0.4400  1.3567  0.3039
  1264G12c C01C23357   6.279  10.612  -0.535 -0.3539 -0.4229  1.9633
  1264G12c H00A23358   6.285  10.680  -0.619 -7.8167  4.1062  4.5541
  1264G12c C00P23359   6.367  10.607  -0.431  0.9131  0.6770 -1.3321
  1264G12c C00O23360   6.474  10.700  -0.421  0.3487  0.3091 -0.7656
  1264G12c C01D23361   6.495  10.784  -0.532  0.9446 -0.7820 -0.6577
  1264G12c H00S23362   6.478  10.729  -0.623  1.3737  7.3020 -6.0636
  1264G12c C01E23363   6.540  10.924  -0.513 -1.4941  1.3349 -0.3189
  1264G12c O00823364   6.531  11.006  -0.600 -0.2743  0.7035  0.4594
  1264G12c C01V23365   6.633  10.992  -0.688 -0.4490  0.5156 -0.5620
  1264G12c C01Z23366   6.742  11.103  -0.654 -1.0414 -0.7160 -0.5979
  1264G12c H00R23367   6.793  11.177  -0.716 -0.8977  2.5881  3.3329
  1264G12c H00Q23368   6.722  11.176  -0.576 -5.6688 -2.4792  0.0436
  1264G12c O00923369   6.864  11.026  -0.630 -0.8775 -0.6927  1.3844
  1264G12c H00P23370   6.829  10.940  -0.615  4.2335 -3.1044  0.2981
  1264G12c C01W23371   6.658  10.887  -0.775 -0.2673  0.5642  0.5058
  1264G12c H00O23372   6.586  10.808  -0.795  1.7168 -1.3945  0.9271
  1264G12c C01X23373   6.748  10.898  -0.903 -0.0860  1.2183 -1.9533
  1264G12c H00N23374   6.695  10.873  -0.995 -4.0745  1.1865  0.2787
  1264G12c H00M23375   6.798  10.992  -0.928  1.1669  0.4297 -2.4418
  1264G12c C01Y23376   6.848  10.779  -0.884  1.1655 -0.5417 -1.0356
  1264G12c C02D23377   6.896  10.753  -0.756 -1.0207 -0.7751  1.3099
  1264G12c H01923378   6.868  10.791  -0.659  5.6400 -1.3119  3.6811
  1264G12c C02C23379   6.995  10.657  -0.728 -1.2905 -0.9743  1.2948
  1264G12c H01A23380   7.038  10.633  -0.632  3.9535  0.7574 -0.4094
  1264G12c C02B23381   7.017  10.584  -0.840  1.2152 -0.9064 -1.9441
  1264G12c O00E23382   7.055  10.451  -0.814 -0.7508  1.3216  0.9455
  1264G12c H01B23383   7.076  10.440  -0.906 -3.9089  2.4152  0.0590
  1264G12c C02F23384   6.967  10.593  -0.975  0.0098  1.2060  0.2263
  1264G12c O00F23385   6.984  10.482  -1.058  0.3436 -1.8701 -0.3985
  1264G12c C02G23386   6.934  10.463  -1.187 -0.7447 -1.9294 -0.9656
  1264G12c H01723387   6.844  10.525  -1.186  1.7550  1.8917  1.8001
  1264G12c H01623388   6.931  10.355  -1.195 -1.9608 -2.0170  0.4815
  1264G12c H01523389   7.008  10.482  -1.265  1.2238 -4.0429  0.3273
  1264G12c C02E23390   6.899  10.705  -1.002  1.1031 -0.4693  0.5552
  1264G12c H01823391   6.896  10.710  -1.110 -1.9856  2.1481  0.6516
  1264G12c C01F23392   6.594  10.965  -0.397  0.1233  1.2689  0.1411
  1264G12c C01G23393   6.625  11.088  -0.358 -0.0197 -0.6392 -0.0317
  1264G12c H00L23394   6.604  11.173  -0.422  3.0312  0.5235  0.4096
  1264G12c C01H23395   6.656  11.119  -0.228 -0.3184 -0.3820  0.4473
  1264G12c H00B23396   6.677  11.213  -0.178 -5.4268 -0.2775  2.6409
  1264G12c C01I23397   6.676  11.015  -0.129  0.0797  1.0015 -1.4063
  1264G12c C01U23398   6.614  10.861  -0.298  1.4093 -0.0388  0.5142
  1264G12c C00S23399   6.261  10.464  -0.061 -0.2673 -0.9940  2.1987
  1264G12c C00K23400   6.423  10.602   0.033  0.1443 -2.9509 -1.0613
  1264G12c C00N23401   6.539  10.743  -0.306 -0.0989 -1.5283 -0.0852
  1264G12c C00023402   6.687  10.878  -0.178 -0.9350  1.1772 -0.8056
  1264G12c C01J23403   6.603  11.011  -0.004  1.4680 -1.8752 -1.0003
  1264G12c C01K23404   6.586  11.122   0.092 -0.2528 -0.9257  0.4825
  1264G12c C01P23405   6.670  11.239   0.122 -0.4529  0.3505  0.7554
  1264G12c C01Q23406   6.795  11.257   0.037  1.1273  0.2421 -0.7778
  1264G12c H00G23407   6.833  11.180  -0.027  4.9569 -2.8019  4.7355
  1264G12c C01R23408   6.850  11.372   0.054 -1.4992  2.6789 -0.0966
  1264G12c H00F23409   6.847  11.419   0.151  0.3659 -4.1497  3.6537
  1264G12c C01S23410   6.909  11.470  -0.051  1.4811  1.2520 -0.2345
  1264G12c H00E23411   6.974  11.402  -0.106  3.0564  3.2815 -0.9833
  1264G12c H00D23412   6.838  11.516  -0.121  1.1816  0.8233 -0.2143
  1264G12c O00523413   7.000  11.564  -0.013  0.3150 -1.0256 -1.1597
  1264G12c H00C23414   6.959  11.648  -0.022  2.7321  0.0582 -2.5808
  1264G12c C01O23415   6.613  11.331   0.209  0.0900 -0.4747 -0.4011
  1264G12c H00H23416   6.664  11.419   0.247  0.6696 -1.1908  0.4794
  1264G12c C01N23417   6.501  11.309   0.295  1.4674  0.9449 -1.0655
  1264G12c O00623418   6.467  11.406   0.383  0.3236  1.0028  0.7020
  1264G12c C01T23419   6.340  11.456   0.394  0.4109  0.8285  0.7049
  1264G12c H00K23420   6.285  11.380   0.448  2.4245 -5.0540 -4.9102
  1264G12c H00J23421   6.281  11.491   0.309  4.3111  4.5982 -0.6827
  1264G12c H00I23422   6.341  11.536   0.469 -1.3029  0.2579  1.3520
  1264G12c C01M23423   6.440  11.184   0.288  0.8146  0.1767 -1.9653
  1264G12c C02023424   6.439  10.697   0.147 -1.2377  0.7493 -0.2687
  1264G12c C02123425   6.361  10.699   0.270  0.1014 -1.9123  0.0771
  1264G12c C01L23426   6.497  11.078   0.200 -0.4192  1.8107  0.5138
  1264G12c O00723427   6.349  11.156   0.388  0.2316 -0.0575 -0.0498
  1264G12c C02223428   6.314  10.804   0.341  0.9789  0.3723  1.0586
  1264G12c C02323429   6.263  10.606   0.277  0.3884  1.3435  0.4991
  1264G12c C00G23430   6.005  10.488   0.255  0.3477 -0.8594 -0.8063
  1264G12c C00E23431   5.786  10.406   0.347 -0.8426 -0.0710 -0.3280
  1264G12c O00A23432   5.668  10.324   0.335  0.4013 -0.2652 -0.7945
  1264G12c C02423433   5.713  10.185   0.311  1.9565 -1.1264  0.5216
  1264G12c H00V23434   5.747  10.145   0.407 -0.8967  1.7716  2.8903
  1264G12c H00U23435   5.778  10.170   0.225  2.1479  2.1750  0.0530
  1264G12c H00T23436   5.640  10.125   0.257 -2.5747  1.4308  3.4453
  1274G12c C00D23437   1.799   5.806   7.979  1.8347 -0.0250  0.5861
  1274G12c O00B23438   1.789   5.674   7.989  0.7603  0.9307 -0.8072
  1274G12c C02523439   1.719   5.611   8.094 -1.8491 -1.8394  1.6650
  1274G12c C02623440   1.778   5.504   8.171  1.2699 -0.2645 -2.0466
  1274G12c H00Y23441   1.880   5.498   8.132  1.0836  3.6657 -3.4095
  1274G12c H00X23442   1.754   5.399   8.154 -9.2098  2.6599-11.4610
  1274G12c O00C23443   1.800   5.558   8.301  0.4531  0.0952 -0.8282
  1274G12c H00W23444   1.875   5.603   8.263 -4.7716  6.6554 -4.3400
  1274G12c C02723445   1.609   5.670   8.145  1.7889 -1.0082  0.4828
  1274G12c O00D23446   1.512   5.615   8.228 -0.1078  0.3698  1.3988
  1274G12c H00Z23447   1.445   5.552   8.203  0.9928  1.4223 -5.1817
  1274G12c C02823448   1.564   5.806   8.121 -0.9033  0.0035 -0.5052
  1274G12c C02923449   1.571   5.892   8.240 -1.3912 -0.6704 -1.9095
  1274G12c H01023450   1.623   5.909   8.333 -2.4340  0.3406 -1.4967
  1274G12c C02T23451   1.480   6.010   8.248 -1.6099 -0.7408  0.0779
  1274G12c H01O23452   1.507   6.089   8.316  1.9540 -3.3774  1.8505
  1274G12c C02S23453   1.364   6.030   8.176 -0.1491 -0.6125 -0.3179
  1274G12c O00J23454   1.302   6.150   8.185 -1.0327 -0.8304  0.7709
  1274G12c H01P23455   1.237   6.142   8.117  0.5696  1.7092 -1.1259
  1274G12c C02R23456   1.349   5.932   8.068  0.4430  0.3749 -0.4083
  1274G12c O00I23457   1.213   5.909   8.005 -0.4150 -0.1834 -1.8307
  1274G12c C02Q23458   1.215   5.836   7.890  0.3231  0.2280 -1.2803
  1274G12c H01N23459   1.131   5.864   7.826  2.2107  0.7436 -3.6398
  1274G12c H01R23460   1.283   5.794   7.816 -0.5001 -4.0911  0.3123
  1274G12c H01Q23461   1.181   5.749   7.946 -0.9382  4.5362  5.1830
  1274G12c C02A23462   1.463   5.846   8.027  0.3348  2.8932 -0.4211
  1274G12c H01123463   1.461   5.800   7.929 -2.4055  0.0769  0.8802
  1274G12c C00C23464   1.722   5.879   7.889 -0.8597 -0.1949 -1.7030
  1274G12c H01223465   1.642   5.816   7.856  0.6276 -3.4673  0.6335
  1274G12c C00B23466   1.729   6.025   7.909  0.9688  2.9135  1.5394
  1274G12c C00A23467   1.642   6.121   7.867 -0.0708  0.7509  0.2736
  1274G12c C00923468   1.535   6.126   7.771  0.6637 -1.9089 -1.0117
  1274G12c C00823469   1.535   6.065   7.651  1.1447 -1.7207  0.2899
  1274G12c H01323470   1.546   5.958   7.645 -0.1339 -1.7870 -1.2202
  1274G12c C00723471   1.448   6.113   7.551 -0.4423 -0.5787 -0.8272
  1274G12c H01423472   1.442   6.028   7.485  3.1548 -0.3099 -1.5893
  1274G12c C00623473   1.434   6.252   7.543 -0.9494  0.0368  0.0803
  1274G12c C00523474   1.456   6.324   7.657 -1.1334  1.6689  0.5690
  1274G12c C00423475   1.440   6.466   7.659  0.6809 -0.2552  1.5638
  1274G12c C00323476   1.477   6.545   7.769 -0.1734 -1.2826 -0.1269
  1274G12c C00223477   1.481   6.688   7.776  0.7890  0.7524  0.7895
  1274G12c C00123478   1.545   6.782   7.854 -0.0804  0.9059  0.0390
  1274G12c C00M23479   1.672   6.778   7.920 -1.8140 -0.7079 -0.0478
  1274G12c C00L23480   1.728   6.660   7.962  0.4197 -0.9827  0.5904
  1274G12c C00R23481   1.858   6.626   7.999  0.0604 -0.1294 -0.1402
  1274G12c C00Q23482   1.986   6.692   7.987 -0.3653 -1.3946 -0.0473
  1274G12c C00V23483   2.101   6.624   8.046 -0.8709 -0.5042 -2.1174
  1274G12c C00U23484   2.097   6.480   8.063 -0.7671  1.3946  0.5512
  1274G12c C00T23485   1.976   6.417   8.054  0.0569 -0.6860  0.9145
  1274G12c C01623486   1.957   6.276   8.057 -0.6675  1.0079 -1.1329
  1274G12c C01523487   2.070   6.198   8.064  1.6765  0.5183 -0.5484
  1274G12c C01023488   2.190   6.260   8.091 -0.8884 -0.5354 -0.0380
  1274G12c C01123489   2.317   6.178   8.106 -1.2542 -0.3164 -1.2666
  1274G12c H00523490   2.418   6.204   8.136  1.6385  1.5995-10.8163
  1274G12c C01223491   2.296   6.042   8.079 -0.5280  0.7427 -0.3560
  1274G12c C01723492   2.399   5.942   8.067  0.4421 -1.3792  1.1902
  1274G12c O00223493   2.486   5.949   7.957 -0.6497  0.1822  1.1210
  1274G12c H00423494   2.446   5.977   7.876  2.6133  0.3366 -0.4890
  1274G12c C01823495   2.410   5.878   8.180 -0.1943  1.3874  0.7290
  1274G12c O00123496   2.327   5.908   8.292  0.7723  0.1075 -1.1453
  1274G12c H00323497   2.394   5.881   8.353  4.0601  2.8389 -3.3317
  1274G12c C01923498   2.505   5.765   8.218  0.1103 -0.2972  1.2479
  1274G12c H00223499   2.520   5.717   8.121 -0.2783 -2.8534  2.4092
  1274G12c H00123500   2.609   5.792   8.237  0.2225  0.6675 -0.5734
  1274G12c O00023501   2.441   5.681   8.296  0.8661 -0.4393  1.1939
  1274G12c C01A23502   2.514   5.655   8.405 -0.0099 -0.1012 -1.3230
  1274G12c C02K23503   2.481   5.684   8.534  1.7487 -0.8974 -0.6322
  1274G12c O00G23504   2.354   5.727   8.582  1.0456 -1.3116 -0.7337
  1274G12c C02M23505   2.263   5.637   8.548 -1.0469 -0.1420  0.4574
  1274G12c H01G23506   2.189   5.604   8.620 -5.0854  3.0574 -1.9499
  1274G12c H01F23507   2.314   5.552   8.503 -1.2954  3.4280 -7.4753
  1274G12c H01E23508   2.201   5.678   8.468 -6.9535 -3.7713  2.8555
  1274G12c C02J23509   2.584   5.683   8.634 -0.1785  1.3439  0.2000
  1274G12c H01H23510   2.550   5.710   8.733  1.0427 -0.4798  1.1535
  1274G12c C02I23511   2.708   5.613   8.609  1.6859 -0.9511 -0.8691
  1274G12c C02N23512   2.807   5.620   8.700  0.6910  0.1596  0.2883
  1274G12c H01M23513   2.812   5.707   8.765 -3.7563 -0.1188  1.1784
  1274G12c C02O23514   2.892   5.522   8.719  0.5863  0.8671 -0.4144
  1274G12c H01L23515   2.881   5.437   8.654  0.7810 -3.6106  5.0264
  1274G12c C02P23516   2.991   5.498   8.843  0.2211 -0.4802  0.2596
  1274G12c H01K23517   3.022   5.576   8.912  2.0987 -0.2903 -0.7519
  1274G12c H01J23518   2.962   5.398   8.874  0.6667 -1.3651 -2.0285
  1274G12c O00H23519   3.121   5.466   8.784  0.6199 -0.3547 -1.2577
  1274G12c H01I23520   3.135   5.374   8.766 -2.2009 -1.2863  0.9408
  1274G12c C02H23521   2.721   5.538   8.486  0.9666 -1.2678 -0.9011
  1274G12c H01C23522   2.791   5.456   8.482  2.9623  0.4149 -1.3511
  1274G12c C02L23523   2.630   5.579   8.383 -1.2680 -0.1537  1.0966
  1274G12c H01D23524   2.654   5.558   8.279  1.7571 -4.7136  2.5315
  1274G12c C01323525   2.178   5.986   8.058 -0.6257 -0.8962  0.6990
  1274G12c H00023526   2.169   5.881   8.037 -9.0686  0.0206 -2.2010
  1274G12c C01423527   2.061   6.064   8.054 -0.7147 -1.9024  0.1811
  1274G12c C00F23528   1.932   6.015   8.037 -0.6211  0.3174 -0.2687
  1274G12c C00H23529   1.831   6.213   8.019 -0.6769 -1.2762 -0.2402
  1274G12c C00I23530   1.725   6.312   7.994 -0.2813  1.9252 -0.4755
  1274G12c C00J23531   1.748   6.443   8.021 -0.2112  2.5268  0.9807
  1274G12c C00Z23532   2.206   6.401   8.091 -0.8999  0.2491 -0.0681
  1274G12c C00Y23533   2.332   6.474   8.111  1.6100 -1.2174 -0.7088
  1274G12c H00623534   2.406   6.421   8.170  5.6791 -1.0578 -5.3362
  1274G12c C00X23535   2.353   6.607   8.098  0.9815  1.1989 -1.4929
  1274G12c O00323536   2.475   6.651   8.155  0.2435  0.6842  0.1222
  1274G12c C01B23537   2.528   6.763   8.116  0.0725 -1.0797  0.5021
  1274G12c H00923538   2.632   6.775   8.085 -1.7049  9.8263 -3.5871
  1274G12c H00823539   2.507   6.844   8.186  0.9591 -0.7275  0.3649
  1274G12c H00723540   2.483   6.786   8.019  3.4007  0.2617 -0.8045
  1274G12c C00W23541   2.234   6.687   8.054 -0.1585  2.5811 -0.8218
  1274G12c O00423542   2.237   6.817   8.010 -0.9315 -0.9223  0.0633
  1274G12c C01C23543   2.142   6.854   7.927 -0.6829 -1.5486  1.8445
  1274G12c H00A23544   2.146   6.949   7.877 -0.1889 -0.2026  4.3826
  1274G12c C00P23545   2.008   6.824   7.928  0.3003  1.5054  0.1959
  1274G12c C00O23546   1.893   6.900   7.871  0.1835  1.8631  0.0695
  1274G12c C01D23547   1.925   6.998   7.777  0.2074 -0.0960 -0.0965
  1274G12c H00S23548   2.028   7.011   7.748  0.8471  5.8620  4.0042
  1274G12c C01E23549   1.839   7.059   7.675 -0.2862  1.6225 -0.2920
  1274G12c O00823550   1.904   7.104   7.575  0.5649  0.8694  1.0347
  1274G12c C01V23551   1.916   7.248   7.578  0.2549  0.5272 -0.1449
  1274G12c C01Z23552   1.794   7.333   7.622  0.2377 -0.3455  0.7816
  1274G12c H00R23553   1.765   7.427   7.577  0.7202 -0.8368 -0.5844
  1274G12c H00Q23554   1.705   7.274   7.597  2.0818 -4.3056  3.0291
  1274G12c O00923555   1.771   7.352   7.767  0.3607 -1.8916  0.4105
  1274G12c H00P23556   1.696   7.302   7.794  0.7211 -1.9900  1.2173
  1274G12c C01W23557   2.027   7.321   7.536 -0.6235 -0.3320  0.5127
  1274G12c H00O23558   2.039   7.428   7.536  2.1221 -0.6008  0.6452
  1274G12c C01X23559   2.170   7.269   7.525  0.0114 -0.6096 -1.2845
  1274G12c H00N23560   2.237   7.311   7.600  1.8445 -1.9783 -2.0979
  1274G12c H00M23561   2.172   7.168   7.568 -0.7746 -1.3684 -2.9918
  1274G12c C01Y23562   2.215   7.238   7.369 -0.2825  0.0915  0.9040
  1274G12c C02D23563   2.333   7.168   7.355 -1.0292  0.7752 -1.0230
  1274G12c H01923564   2.381   7.094   7.418  4.4230  0.5231 -5.1519
  1274G12c C02C23565   2.395   7.198   7.227 -0.0175 -0.0382  1.7012
  1274G12c H01A23566   2.489   7.147   7.215  0.6747  1.1213  2.1504
  1274G12c C02B23567   2.332   7.266   7.128  0.2599  1.1051 -0.7592
  1274G12c O00E23568   2.398   7.272   7.008 -0.3220  1.9901  0.4866
  1274G12c H01B23569   2.407   7.366   6.999 -2.2356  1.9614 -2.8542
  1274G12c C02F23570   2.214   7.329   7.138 -0.5939  1.5967  0.3943
  1274G12c O00F23571   2.173   7.417   7.046 -0.8736 -0.5723  0.1221
  1274G12c C02G23572   2.236   7.553   7.037 -1.2887  1.6335  1.5008
  1274G12c H01723573   2.223   7.583   6.933  0.2480 -4.0198 -0.5027
  1274G12c H01623574   2.344   7.557   7.046 -0.3359 -3.3721 -4.5648
  1274G12c H01523575   2.208   7.625   7.114  6.2547  4.9739  1.5442
  1274G12c C02E23576   2.162   7.319   7.267  0.4328 -0.8945 -0.3368
  1274G12c H01823577   2.090   7.399   7.282  0.5482 -0.8234 -0.1657
  1274G12c C01F23578   1.709   7.022   7.675  1.3266  0.8884 -0.3431
  1274G12c C01G23579   1.624   7.038   7.560 -1.9011 -0.9747  0.0685
  1274G12c H00L23580   1.665   7.081   7.470  1.8625 -2.5330  0.8995
  1274G12c C01H23581   1.488   6.985   7.561  0.6097 -1.4591 -2.9532
  1274G12c H00B23582   1.452   6.993   7.460  3.1360  2.9917 -3.6039
  1274G12c C01I23583   1.470   6.890   7.674  1.1918  2.1542  0.6423
  1274G12c C01U23584   1.655   6.962   7.791 -0.0104  0.2580 -0.7222
  1274G12c C00S23585   1.862   6.494   8.058  1.6238  0.6900  1.1771
  1274G12c C00K23586   1.669   6.541   7.949  2.4735  0.4770 -0.6197
  1274G12c C00N23587   1.753   6.880   7.872 -0.0469  0.1012  1.2519
  1274G12c C00023588   1.526   6.898   7.796 -1.2765 -0.9825  0.9039
  1274G12c C01J23589   1.422   6.753   7.657  0.3513 -1.9127  0.0823
  1274G12c C01K23590   1.353   6.672   7.556 -1.4827 -0.8496  0.3623
  1274G12c C01P23591   1.270   6.721   7.460  1.1802 -0.8177 -0.8240
  1274G12c C01Q23592   1.203   6.858   7.463  2.0425  0.3700 -2.0638
  1274G12c H00G23593   1.126   6.877   7.536  1.8051  3.1807 -3.0159
  1274G12c C01R23594   1.217   6.925   7.332  2.6815 -0.5927  0.8729
  1274G12c H00F23595   1.277   6.895   7.247  0.1386  1.2544 -1.7115
  1274G12c C01S23596   1.108   7.041   7.310 -0.7112 -0.1559 -0.4358
  1274G12c H00E23597   1.080   7.116   7.384  2.8828 -0.2062  1.0439
  1274G12c H00D23598   1.175   7.122   7.279 -2.3970  2.7471  3.1481
  1274G12c O00523599   0.971   7.007   7.254  0.9235 -0.7365 -0.4801
  1274G12c H00C23600   0.932   6.935   7.301 -4.2951  1.2031 -1.4785
  1274G12c C01O23601   1.247   6.641   7.344 -0.8730  0.3763  0.9365
  1274G12c H00H23602   1.229   6.695   7.252  4.7342  1.9287  0.6084
  1274G12c C01N23603   1.291   6.505   7.330 -1.3687  0.7138 -0.5875
  1274G12c O00623604   1.250   6.430   7.222 -1.0253  1.3114  0.9188
  1274G12c C01T23605   1.142   6.459   7.119  1.2866  2.4718  0.7086
  1274G12c H00K23606   1.134   6.403   7.025  1.9896 -2.5204  3.4483
  1274G12c H00J23607   1.063   6.410   7.175  4.8597 -3.7280  0.7565
  1274G12c H00I23608   1.099   6.558   7.103 -4.4029  0.3602  2.0053
  1274G12c C01M23609   1.353   6.452   7.441 -0.1912  0.0685 -1.7291
  1274G12c C02023610   1.556   6.478   7.875 -1.0756  0.1708 -0.4794
  1274G12c C02123611   1.537   6.335   7.876 -1.1599 -0.1022 -0.2327
  1274G12c C01L23612   1.371   6.526   7.560 -1.2737 -1.1472  0.1236
  1274G12c O00723613   1.370   6.316   7.430 -0.4348 -0.8104 -1.5878
  1274G12c C02223614   1.473   6.258   7.771  1.8074  0.0674  0.5592
  1274G12c C02323615   1.626   6.243   7.934  0.3831  1.3805 -0.5311
  1274G12c C00G23616   1.833   6.081   7.980 -1.5644  0.5923  1.4733
  1274G12c C00E23617   1.911   5.875   8.054  1.6435 -1.3803 -0.3547
  1274G12c O00A23618   1.981   5.785   8.130  0.8474  0.0757 -0.8452
  1274G12c C02423619   1.979   5.825   8.270 -0.7841  0.5471 -1.4845
  1274G12c H00V23620   2.065   5.810   8.336 -1.2431  3.3516 -0.1692
  1274G12c H00U23621   1.933   5.922   8.290  2.0761  2.3425 -3.1911
  1274G12c H00T23622   1.909   5.758   8.318  0.6584 -1.4801 -2.1621
  1284G12c C00D23623   2.570   7.571  10.356 -0.6054  0.9638 -0.8672
  1284G12c O00B23624   2.500   7.454  10.339  0.9421  0.1631  1.3657
  1284G12c C02523625   2.521   7.387  10.219 -1.9186  2.1180 -2.2696
  1284G12c C02623626   2.501   7.479  10.099 -0.3441  0.4552 -0.3012
  1284G12c H00Y23627   2.547   7.577  10.101 -2.2698  1.4124 -1.6185
  1284G12c H00X23628   2.393   7.474  10.088 -0.6769 -2.4332  3.2379
  1284G12c O00C23629   2.561   7.435   9.987  0.1281  0.4228  0.5840
  1284G12c H00W23630   2.547   7.344   9.966  2.8472 -0.2849  1.7133
  1284G12c C02723631   2.552   7.254  10.221  0.0874 -1.6420  0.2645
  1284G12c O00D23632   2.530   7.174  10.323 -0.1653  0.5750 -0.0976
  1284G12c H00Z23633   2.464   7.109  10.344  2.4120 -1.7820  1.0801
  1284G12c C02823634   2.606   7.184  10.105 -0.9698 -0.4065 -0.0472
  1284G12c C02923635   2.742   7.207  10.049  0.0998  0.4969  0.6303
  1284G12c H01023636   2.817   7.275  10.086 -0.0200  1.4092 -0.7711
  1284G12c C02T23637   2.787   7.126   9.946  0.8266  1.5975  0.4111
  1284G12c H01O23638   2.882   7.131   9.896  3.0410 -2.4896  3.8367
  1284G12c C02S23639   2.716   7.009   9.899 -1.1116  0.0430  1.1986
  1284G12c O00J23640   2.767   6.913   9.824 -0.7973  0.0830 -0.4286
  1284G12c H01P23641   2.700   6.855   9.792 -1.2380  1.0160 -1.2421
  1284G12c C02R23642   2.577   7.002   9.938  1.8185 -1.7848 -0.0210
  1284G12c O00I23643   2.520   6.872   9.889 -1.6601 -1.0369 -0.6062
  1284G12c C02Q23644   2.400   6.833   9.934 -1.0441 -1.1117  0.6438
  1284G12c H01N23645   2.361   6.848   9.833  3.1356  1.3861 -0.7539
  1284G12c H01R23646   2.406   6.738   9.986 -3.0347 -1.4693  0.2682
  1284G12c H01Q23647   2.335   6.915   9.965  0.4497  2.9553 -5.9638
  1284G12c C02A23648   2.521   7.088  10.040  0.5409  0.4976 -0.4812
  1284G12c H01123649   2.442   7.071  10.111 -1.5897  4.9706 -1.5950
  1284G12c C00C23650   2.480   7.679  10.375  0.7404  0.8311 -0.2009
  1284G12c H01223651   2.374   7.675  10.358  0.7428  2.5949 -0.7797
  1284G12c C00B23652   2.510   7.806  10.384 -0.0894 -1.8636  1.5390
  1284G12c C00A23653   2.437   7.926  10.382 -0.3447  0.7961  0.2981
  1284G12c C00923654   2.302   7.951  10.356 -1.7204  0.6469  0.8261
  1284G12c C00823655   2.194   7.893  10.287  0.4597  0.8208  0.6320
  1284G12c H01323656   2.157   7.799  10.326  2.7277  2.7748  8.3112
  1284G12c C00723657   2.104   7.968  10.204 -1.5929  1.4888  0.6411
  1284G12c H01423658   2.005   7.952  10.162 -1.6808  0.5477  1.2153
  1284G12c C00623659   2.124   8.106  10.190 -0.0049  1.6014 -0.1005
  1284G12c C00523660   2.228   8.163  10.267 -0.1120 -0.6124  0.3923
  1284G12c C00423661   2.249   8.301  10.259 -1.1477  0.2984  2.2280
  1284G12c C00323662   2.381   8.340  10.299 -0.4566  0.7974 -0.1535
  1284G12c C00223663   2.384   8.484  10.297  1.5921  1.1836  0.8652
  1284G12c C00123664   2.493   8.576  10.333 -1.4134  0.5452  1.9789
  1284G12c C00M23665   2.630   8.537  10.311 -1.7596 -1.4069  2.1550
  1284G12c C00L23666   2.676   8.426  10.356  0.3812  1.6088 -1.0438
  1284G12c C00R23667   2.790   8.351  10.305  2.0052  0.7060 -2.6090
  1284G12c C00Q23668   2.881   8.394  10.210 -1.4124  0.9893 -0.0654
  1284G12c C00V23669   2.975   8.288  10.169  0.5262 -1.0048  0.0431
  1284G12c C00U23670   2.972   8.158  10.223  1.1843  0.0556 -2.3907
  1284G12c C00T23671   2.843   8.116  10.282  0.9884  0.4883 -0.2988
  1284G12c C01623672   2.816   7.991  10.329 -0.4130  1.0575 -1.6748
  1284G12c C01523673   2.907   7.888  10.298 -0.7357  1.3662  0.7091
  1284G12c C01023674   3.023   7.926  10.222 -0.2899 -0.0005  0.3528
  1284G12c C01123675   3.130   7.826  10.229 -0.6600  0.1630  1.5569
  1284G12c H00523676   3.232   7.837  10.195 -0.0728 -9.7084 -1.4374
  1284G12c C01223677   3.108   7.697  10.302 -1.2129  0.7406  0.6511
  1284G12c C01723678   3.220   7.607  10.332 -0.5452 -0.8675  0.3955
  1284G12c O00223679   3.341   7.632  10.272 -0.7954  0.0542 -0.0146
  1284G12c H00423680   3.366   7.723  10.271 -3.1611  0.7779  1.9020
  1284G12c C01823681   3.219   7.475  10.372  0.0572 -0.6864 -0.3959
  1284G12c O00123682   3.120   7.413  10.465  1.2049  1.1312 -0.9221
  1284G12c H00323683   3.163   7.330  10.478 -1.1834 -0.0078  0.0271
  1284G12c C01923684   3.336   7.396  10.357 -1.6862  1.2594 -1.6630
  1284G12c H00223685   3.373   7.384  10.255  0.3545  1.8404 -1.0116
  1284G12c H00123686   3.416   7.442  10.415 -1.6484 -1.0877  0.2389
  1284G12c O00023687   3.344   7.270  10.432  1.1195 -0.2752  0.2722
  1284G12c C01A23688   3.473   7.209  10.432  2.4568  1.5246  0.0118
  1284G12c C02K23689   3.561   7.239  10.560 -0.6711  0.1147 -0.4297
  1284G12c O00G23690   3.511   7.337  10.643 -0.5460  1.6381 -0.3073
  1284G12c C02M23691   3.412   7.305  10.745 -0.7214 -0.3249  0.8762
  1284G12c H01G23692   3.315   7.336  10.704 -1.2108 -0.2510  2.0770
  1284G12c H01F23693   3.419   7.344  10.846 -3.0603  4.6007 -0.6937
  1284G12c H01E23694   3.388   7.201  10.764  0.5982  0.0170  4.6986
  1284G12c C02J23695   3.671   7.150  10.580  0.0004 -0.5159  0.7975
  1284G12c H01H23696   3.755   7.140  10.648 -2.3115  6.1409  5.0980
  1284G12c C02I23697   3.720   7.043  10.487  1.1712 -0.0463 -0.0876
  1284G12c C02N23698   3.851   6.979  10.505 -0.9429  2.2260 -1.0915
  1284G12c H01M23699   3.907   6.978  10.597 -1.8027  3.4126 -0.5283
  1284G12c C02O23700   3.950   6.955  10.412 -0.1118 -0.7280  0.0463
  1284G12c H01L23701   4.045   6.923  10.453  1.5639  2.9295 -0.7709
  1284G12c C02P23702   3.949   6.999  10.274  2.4670  0.3134 -0.3142
  1284G12c H01K23703   3.846   7.008  10.241  2.2071 -2.4323 -0.4218
  1284G12c H01J23704   4.010   7.088  10.256  1.3563  0.0866 -6.2378
  1284G12c O00H23705   4.044   6.906  10.216 -2.2833  0.1601  0.1810
  1284G12c H01I23706   4.122   6.914  10.269 -3.9837  4.6886  2.3330
  1284G12c C02H23707   3.630   7.027  10.374 -0.0032 -1.3849 -1.2170
  1284G12c H01C23708   3.667   6.959  10.299  9.8367  1.7406  0.0739
  1284G12c C02L23709   3.510   7.089  10.360 -0.2025 -1.8578  0.0035
  1284G12c H01D23710   3.441   7.095  10.277  2.0327  6.5626 -1.7108
  1284G12c C01323711   2.987   7.671  10.366  0.1583  2.3796 -1.8591
  1284G12c H00023712   2.972   7.591  10.437 -0.3484  2.5569 -1.7640
  1284G12c C01423713   2.887   7.770  10.348  1.5236 -0.1951  0.9089
  1284G12c C00F23714   2.753   7.733  10.366  1.1620  0.8298 -1.1561
  1284G12c C00H23715   2.700   7.957  10.400 -2.1893  0.1720  0.2043
  1284G12c C00I23716   2.614   8.065  10.433  0.3407  0.9792  0.5140
  1284G12c C00J23717   2.672   8.198  10.447 -1.0992 -1.2873  1.6149
  1284G12c C00Z23718   3.056   8.054  10.179  0.1050 -0.3799 -1.3319
  1284G12c C00Y23719   3.155   8.084  10.089  0.4713  0.7304  1.4693
  1284G12c H00623720   3.206   8.010  10.028  5.1062  3.0404  2.2925
  1284G12c C00X23721   3.176   8.227  10.048 -0.1722  1.3570 -1.0883
  1284G12c O00323722   3.262   8.261   9.932  0.1156 -0.7982  1.2939
  1284G12c C01B23723   3.290   8.151   9.836 -0.3338 -0.0346  0.8678
  1284G12c H00923724   3.204   8.111   9.784  2.0272  1.2521 -4.3315
  1284G12c H00823725   3.370   8.083   9.868  1.6586  3.0039  2.7111
  1284G12c H00723726   3.327   8.211   9.753  3.5735 -5.0751 -1.3127
  1284G12c C00W23727   3.080   8.322  10.079  0.3038  0.9430  0.8268
  1284G12c O00423728   3.076   8.436   9.993 -0.2620  1.1175  0.3802
  1284G12c C01C23729   3.016   8.539  10.052  0.7216  1.3672 -0.5259
  1284G12c H00A23730   3.076   8.622  10.086 -0.2390  4.1849 -5.2507
  1284G12c C00P23731   2.902   8.522  10.133  0.8194  1.3619 -2.0231
  1284G12c C00O23732   2.812   8.628  10.150 -0.8665 -1.5000  2.0327
  1284G12c C01D23733   2.819   8.736  10.064  1.4019 -2.0211  0.5250
  1284G12c H00S23734   2.893   8.767   9.991  0.2184 -3.7539 -1.4815
  1284G12c C01E23735   2.708   8.794   9.988 -1.5693 -0.6111 -0.9408
  1284G12c O00823736   2.737   8.908   9.911  0.6526  1.2662 -2.1499
  1284G12c C01V23737   2.737   8.873   9.776  1.6272  0.2216 -1.4189
  1284G12c C01Z23738   2.694   8.993   9.687 -0.3484  0.9769 -0.1950
  1284G12c H00R23739   2.670   9.091   9.728 -4.5939 -0.4356  0.9701
  1284G12c H00Q23740   2.756   9.012   9.599  0.8329  4.3307  1.2682
  1284G12c O00923741   2.577   8.985   9.604  0.3518 -0.6457 -0.1570
  1284G12c H00P23742   2.550   9.070   9.574  0.5277  1.1380  4.3745
  1284G12c C01W23743   2.779   8.761   9.726  1.0897  2.2719  0.5699
  1284G12c H00O23744   2.811   8.682   9.791 -1.9373  2.2977  2.2030
  1284G12c C01X23745   2.763   8.744   9.576 -1.2976  0.6391  0.0152
  1284G12c H00N23746   2.663   8.724   9.538 -2.0689  0.9746  1.8247
  1284G12c H00M23747   2.775   8.825   9.504  1.3652  2.1252  2.0005
  1284G12c C01Y23748   2.857   8.644   9.491  0.1162  0.9996  0.7225
  1284G12c C02D23749   2.781   8.528   9.445 -0.2569 -1.2792  0.9719
  1284G12c H01923750   2.673   8.537   9.443 -0.0388  3.2084  3.4139
  1284G12c C02C23751   2.852   8.434   9.396 -1.2512 -0.0851  1.5087
  1284G12c H01A23752   2.785   8.359   9.356 -4.2015  2.2940  1.8554
  1284G12c C02B23753   3.000   8.425   9.408  0.1971  0.2262 -0.4552
  1284G12c O00E23754   3.061   8.306   9.358 -0.2828 -0.4390 -0.9699
  1284G12c H01B23755   3.155   8.314   9.365  0.2237  4.5254 -8.2281
  1284G12c C02F23756   3.062   8.537   9.471  1.2439 -0.6427  1.4400
  1284G12c O00F23757   3.199   8.524   9.479 -0.3719  0.3342 -0.3025
  1284G12c C02G23758   3.262   8.576   9.580  0.2924 -0.9572 -0.8323
  1284G12c H01723759   3.204   8.583   9.673 -6.5955  0.0336 -4.8862
  1284G12c H01623760   3.306   8.669   9.544 -3.3719  1.6310  0.9529
  1284G12c H01523761   3.334   8.496   9.597  1.0831 -0.3906 -1.4615
  1284G12c C02E23762   2.994   8.649   9.508 -0.2958 -0.8683 -0.4384
  1284G12c H01823763   3.030   8.715   9.586  1.6440 -0.6650 -1.4705
  1284G12c C01F23764   2.575   8.766  10.038  1.3241  1.2740 -0.0177
  1284G12c C01G23765   2.455   8.792   9.984 -0.6427 -0.9414  0.9907
  1284G12c H00L23766   2.465   8.821   9.881 -2.3113 -2.3223  0.4197
  1284G12c C01H23767   2.329   8.735  10.048 -0.1000  0.3413  0.6565
  1284G12c H00B23768   2.251   8.757   9.977  5.9310  0.8007 -6.3819
  1284G12c C01I23769   2.329   8.680  10.174 -0.4634 -0.1173 -1.3751
  1284G12c C01U23770   2.570   8.706  10.163 -0.1348 -0.8219 -1.9936
  1284G12c C00S23771   2.778   8.221  10.352 -0.4041  0.3876  0.0558
  1284G12c C00K23772   2.601   8.313  10.397  1.8447  0.5604  0.8596
  1284G12c C00N23773   2.683   8.631  10.207  1.4928 -1.2994 -0.9543
  1284G12c C00023774   2.458   8.695  10.245  0.3451  0.2352 -0.9092
  1284G12c C01J23775   2.300   8.549  10.188  1.2893  2.6809  0.6476
  1284G12c C01K23776   2.167   8.515  10.148  0.2090 -0.4971 -0.1350
  1284G12c C01P23777   2.057   8.596  10.099 -1.5478 -0.2524 -0.7709
  1284G12c C01Q23778   2.041   8.739  10.097  0.4106  0.2717  0.5133
  1284G12c H00G23779   2.044   8.799  10.187 -1.3315  2.2442 -0.6969
  1284G12c C01R23780   2.013   8.786   9.971 -0.0764 -0.0511  0.3968
  1284G12c H00F23781   2.002   8.737   9.876 -4.0486  6.0191 -2.6132
  1284G12c C01S23782   1.936   8.913   9.973 -0.1870  0.3235  0.7369
  1284G12c H00E23783   1.983   9.011   9.964  1.3090 -0.0288  3.8109
  1284G12c H00D23784   1.878   8.926   9.882 -0.9823 -3.9936  0.5274
  1284G12c O00523785   1.836   8.930  10.064  0.0400  0.9951 -1.1332
  1284G12c H00C23786   1.801   8.842  10.061  4.6644 -0.9750 -1.3511
  1284G12c C01O23787   1.935   8.535  10.072  0.8244  0.5053 -1.5697
  1284G12c H00H23788   1.856   8.597  10.034 -1.4413 -0.3362  1.5935
  1284G12c C01N23789   1.931   8.393  10.066 -1.0087  1.0350 -1.3097
  1284G12c O00623790   1.824   8.321  10.034  1.2748  1.1279 -0.4883
  1284G12c C01T23791   1.705   8.391  10.013  0.5713 -0.7469 -1.4408
  1284G12c H00K23792   1.713   8.475   9.944 -0.5677  1.5648  1.1464
  1284G12c H00J23793   1.649   8.426  10.100  4.5891 -5.3528  3.3518
  1284G12c H00I23794   1.643   8.309   9.979  1.1510 -2.4081  1.3519
  1284G12c C01M23795   2.035   8.315  10.126  0.1875 -1.4260  0.2250
  1284G12c C02023796   2.463   8.276  10.380 -1.3483 -0.1146  0.3017
  1284G12c C02123797   2.396   8.154  10.441 -0.4477  1.2090 -0.4940
  1284G12c C01L23798   2.148   8.375  10.182 -0.5218  0.7335 -0.8954
  1284G12c O00723799   2.022   8.178  10.137 -1.0810 -1.4093 -1.2357
  1284G12c C02223800   2.310   8.095  10.355  1.0147  0.5391  0.8953
  1284G12c C02323801   2.482   8.036  10.454 -0.7397  2.4030  1.6302
  1284G12c C00G23802   2.654   7.832  10.403  2.3222  1.1592 -0.4144
  1284G12c C00E23803   2.706   7.589  10.363 -0.7473 -1.0487  0.8144
  1284G12c O00A23804   2.790   7.478  10.343 -0.1572  0.7937 -0.5474
  1284G12c C02423805   2.774   7.372  10.438 -0.7582  2.1794  2.4325
  1284G12c H00V23806   2.854   7.350  10.509  1.0952 -2.5770 -0.8648
  1284G12c H00U23807   2.764   7.289  10.369  6.2493  4.6563 -2.1140
  1284G12c H00T23808   2.686   7.399  10.496 -2.7135  5.1055 -1.6658
  1294G12c C00D23809   6.422   8.940   7.764 -1.4085 -0.1162  0.0159
  1294G12c O00B23810   6.299   8.906   7.721  0.2062 -0.9234 -0.6880
  1294G12c C02523811   6.305   8.858   7.595 -0.7681  0.6089  1.2508
  1294G12c C02623812   6.291   8.945   7.462  2.0169  0.0049 -0.1557
  1294G12c H00Y23813   6.381   8.947   7.401  1.4522 -0.8441 -1.0127
  1294G12c H00X23814   6.291   9.050   7.491 -4.1664 -0.5799  2.7713
  1294G12c O00C23815   6.166   8.963   7.382 -0.7828  0.9550 -0.8002
  1294G12c H00W23816   6.102   8.909   7.425 -0.5718  1.4074  0.0848
  1294G12c C02723817   6.334   8.721   7.608  0.1832 -1.1290  2.3382
  1294G12c O00D23818   6.325   8.657   7.742  0.0297 -1.0102 -0.8274
  1294G12c H00Z23819   6.329   8.739   7.789 -3.3168 -1.1141 -0.2797
  1294G12c C02823820   6.329   8.649   7.485  0.3318 -0.8854  1.0393
  1294G12c C02923821   6.431   8.692   7.395 -0.7675  1.2849  0.2083
  1294G12c H01023822   6.521   8.749   7.415 -1.2884  3.8736 -4.0806
  1294G12c C02T23823   6.452   8.620   7.262  1.1387  0.5288 -0.9206
  1294G12c H01O23824   6.524   8.669   7.198  1.5677 -0.6030 -1.3218
  1294G12c C02S23825   6.372   8.500   7.220 -2.0314  1.0563 -0.2700
  1294G12c O00J23826   6.417   8.415   7.123 -0.6739  1.1374 -0.4055
  1294G12c H01P23827   6.353   8.351   7.095 -2.1028  3.5428 -2.8750
  1294G12c C02R23828   6.281   8.459   7.317 -0.4452  2.1175  0.8916
  1294G12c O00I23829   6.184   8.364   7.291 -0.2604 -0.2435 -0.6709
  1294G12c C02Q23830   6.205   8.290   7.168  1.0837 -0.2153 -0.7521
  1294G12c H01N23831   6.292   8.225   7.167 -0.4921 -2.4021 -4.2208
  1294G12c H01R23832   6.149   8.313   7.078  3.0607  4.1442 -0.9906
  1294G12c H01Q23833   6.153   8.196   7.188  1.8051 -0.3426  0.5956
  1294G12c C02A23834   6.250   8.545   7.439  0.2344  0.4480  0.9928
  1294G12c H01123835   6.155   8.517   7.481 -0.5171 -3.2456 -2.7890
  1294G12c C00C23836   6.426   8.946   7.905  1.0216 -0.5654 -0.6136
  1294G12c H01223837   6.327   8.920   7.938  0.7460 -4.5283 -4.1658
  1294G12c C00B23838   6.527   8.969   7.992 -0.0624  1.0851  1.9980
  1294G12c C00A23839   6.523   8.972   8.131 -1.7052  0.9005 -0.9771
  1294G12c C00923840   6.425   9.028   8.225 -0.8623  0.5149  0.0830
  1294G12c C00823841   6.327   9.113   8.189 -1.3845  0.6133 -0.9056
  1294G12c H01323842   6.258   9.089   8.109  2.4382 -3.5019 -3.2253
  1294G12c C00723843   6.316   9.240   8.266  2.9038 -0.6904  0.5302
  1294G12c H01423844   6.224   9.294   8.252  3.2404 -1.2435 -4.9815
  1294G12c C00623845   6.408   9.280   8.362  0.2656 -1.0067 -0.3755
  1294G12c C00523846   6.511   9.192   8.384  0.7039  0.2781 -0.3701
  1294G12c C00423847   6.616   9.239   8.464 -0.3864  0.1869 -1.1833
  1294G12c C00323848   6.742   9.167   8.464 -0.5767 -1.4308 -0.6419
  1294G12c C00223849   6.847   9.224   8.533 -0.2934  0.6067 -0.9751
  1294G12c C00123850   6.987   9.203   8.548  0.0675 -1.1320 -1.0500
  1294G12c C00M23851   7.083   9.165   8.452 -1.0287  0.2390 -0.4480
  1294G12c C00L23852   7.043   9.086   8.348 -1.6513 -0.0363  0.0592
  1294G12c C00R23853   7.094   9.090   8.210  0.6105 -0.7384 -0.3439
  1294G12c C00Q23854   7.217   9.152   8.161 -1.7240 -0.1695 -0.4177
  1294G12c C00V23855   7.219   9.134   8.014  0.0587 -1.0747  0.6964
  1294G12c C00U23856   7.115   9.080   7.932 -0.1672 -1.2280  0.5066
  1294G12c C00T23857   7.005   9.038   7.985  2.2050  1.3283 -0.9750
  1294G12c C01623858   6.888   9.002   7.922  1.0900 -0.4234  0.6861
  1294G12c C01523859   6.885   9.008   7.785  0.6755  0.5795  0.3690
  1294G12c C01023860   6.998   9.044   7.726 -0.4607 -0.2847  0.1814
  1294G12c C01123861   7.016   9.023   7.593  0.5121  1.7757 -0.8548
  1294G12c H00523862   7.112   9.020   7.544 -0.4012 -1.4092 -2.6346
  1294G12c C01223863   6.906   8.987   7.498  1.0831 -0.4015  0.7376
  1294G12c C01723864   6.922   8.992   7.349 -0.6746 -0.2301 -0.6585
  1294G12c O00223865   6.826   9.039   7.274 -0.8058  0.9908 -0.1706
  1294G12c H00423866   6.834   8.995   7.191 -3.1406  0.8596 -0.3633
  1294G12c C01823867   7.030   8.929   7.302  0.1952 -0.2168 -0.7281
  1294G12c O00123868   7.156   8.891   7.354 -0.2847  0.0697 -0.5110
  1294G12c H00323869   7.179   8.812   7.308  2.8168 -1.0390  2.6551
  1294G12c C01923870   7.038   8.874   7.148 -0.2773  0.0384 -2.1727
  1294G12c H00223871   7.118   8.938   7.110  2.6676 -0.1735  3.1458
  1294G12c H00123872   7.062   8.769   7.165 -1.3565  0.4018  2.2195
  1294G12c O00023873   6.920   8.905   7.077 -0.2326  0.1769 -1.1528
  1294G12c C01A23874   6.931   8.848   6.951  1.2085 -2.1860  0.2197
  1294G12c C02K23875   6.899   8.712   6.934  0.2970 -0.1746 -0.5887
  1294G12c O00G23876   6.855   8.645   7.037 -1.0836  0.7457  0.1732
  1294G12c C02M23877   6.845   8.500   7.019 -1.0584 -1.6865 -0.2896
  1294G12c H01G23878   6.810   8.453   6.927  0.0173 -1.3757 -0.8723
  1294G12c H01F23879   6.946   8.462   7.035 -0.6567 -1.5270 -2.3091
  1294G12c H01E23880   6.795   8.446   7.099  1.3506 -6.0547 -1.5337
  1294G12c C02J23881   6.892   8.653   6.797 -0.2794 -0.6071  2.2223
  1294G12c H01H23882   6.849   8.559   6.764  0.5808 -0.1291 -0.3663
  1294G12c C02I23883   6.926   8.740   6.690 -0.4545  1.2169  0.8179
  1294G12c C02N23884   6.901   8.683   6.569  0.0641 -0.9032  1.0694
  1294G12c H01M23885   6.982   8.695   6.498  0.6982 -4.9534  1.0132
  1294G12c C02O23886   6.793   8.592   6.545 -0.5969  1.1822 -0.6103
  1294G12c H01L23887   6.725   8.566   6.624  2.0629  0.4790  1.5438
  1294G12c C02P23888   6.794   8.481   6.447 -0.5445 -0.3971  0.2735
  1294G12c H01K23889   6.710   8.421   6.480  0.5181 -0.6597  2.6533
  1294G12c H01J23890   6.776   8.504   6.343  6.3160  1.6901 -0.7372
  1294G12c O00H23891   6.919   8.399   6.425  1.3115  0.5573 -1.4303
  1294G12c H01I23892   6.897   8.325   6.370 -6.8654  0.3768  1.3298
  1294G12c C02H23893   6.969   8.880   6.696  2.2244  1.5065  1.4176
  1294G12c H01C23894   6.992   8.952   6.619  2.7411 -1.9040 -1.7604
  1294G12c C02L23895   6.974   8.924   6.837  0.8018  0.8727  0.5399
  1294G12c H01D23896   7.027   9.015   6.861  0.8147  0.4494  2.1816
  1294G12c C01323897   6.784   8.946   7.570 -0.3184  0.2529 -1.6091
  1294G12c H00023898   6.702   8.949   7.499 -0.3738  3.0076 -1.4837
  1294G12c C01423899   6.777   8.953   7.713 -1.3160  1.6666 -0.7048
  1294G12c C00F23900   6.659   8.949   7.776  0.3295  0.3447  2.3757
  1294G12c C00H23901   6.761   8.976   7.999  0.0807  0.4308  0.7649
  1294G12c C00I23902   6.763   8.973   8.132 -0.8282 -0.6445 -0.3452
  1294G12c C00J23903   6.901   9.009   8.191 -0.7657 -1.1585 -0.0806
  1294G12c C00Z23904   7.121   9.075   7.804 -0.2559 -0.1723 -0.4782
  1294G12c C00Y23905   7.242   9.123   7.742 -1.5446  0.9197  2.4178
  1294G12c H00623906   7.270   9.147   7.640  0.9188  3.5187  3.6443
  1294G12c C00X23907   7.330   9.166   7.831  1.7922 -0.9400  1.8737
  1294G12c O00323908   7.423   9.236   7.761  0.9610  0.0244 -0.7897
  1294G12c C01B23909   7.560   9.237   7.793 -0.0905  1.1945  0.7418
  1294G12c H00923910   7.569   9.311   7.873  2.1064 -3.4115  5.0053
  1294G12c H00823911   7.597   9.279   7.699  0.3461 -0.2675  0.2549
  1294G12c H00723912   7.615   9.144   7.780  2.3396  3.3637 -7.3193
  1294G12c C00W23913   7.332   9.157   7.961 -0.5014 -0.3072  1.4996
  1294G12c O00423914   7.440   9.194   8.024  0.1213  0.1035  0.3495
  1294G12c C01C23915   7.414   9.290   8.126 -0.5516 -1.2641  0.0540
  1294G12c H00A23916   7.500   9.344   8.160 -1.0487 -0.2371 -0.2969
  1294G12c C00P23917   7.314   9.242   8.213 -1.2417 -0.6031 -0.1750
  1294G12c C00O23918   7.296   9.301   8.350  0.0937  0.2472  1.5993
  1294G12c C01D23919   7.368   9.414   8.369  0.8788  0.2590 -2.1696
  1294G12c H00S23920   7.451   9.442   8.306  2.4595 -0.4650 -0.4779
  1294G12c C01E23921   7.303   9.524   8.435 -0.4632  0.4549  1.0939
  1294G12c O00823922   7.347   9.652   8.437 -0.0991 -0.6583 -0.2324
  1294G12c C01V23923   7.470   9.666   8.365  1.8480  0.4711  0.2137
  1294G12c C01Z23924   7.613   9.611   8.419 -0.4279 -0.3085 -1.1721
  1294G12c H00R23925   7.686   9.636   8.343 -1.9170  2.8014 -1.6638
  1294G12c H00Q23926   7.645   9.508   8.406  2.8676  0.2486  1.5631
  1294G12c O00923927   7.624   9.648   8.558  0.8843 -1.1388  1.6379
  1294G12c H00P23928   7.540   9.649   8.602  1.2675  2.6130  2.4632
  1294G12c C01W23929   7.480   9.747   8.260  2.2638 -0.5151 -0.7244
  1294G12c H00O23930   7.571   9.736   8.201  0.2186 -6.2688 -3.1651
  1294G12c C01X23931   7.362   9.840   8.216  0.6335  0.8756 -1.4204
  1294G12c H00N23932   7.321   9.926   8.268 -3.6797  2.3240 -6.7073
  1294G12c H00M23933   7.401   9.909   8.141 -1.9334 -0.6527 -4.2603
  1294G12c C01Y23934   7.281   9.763   8.115  0.9360 -0.0255 -0.2216
  1294G12c C02D23935   7.350   9.702   8.012 -0.9232 -0.5412  0.5567
  1294G12c H01923936   7.449   9.734   7.985 -0.5794 -2.0196 -0.0034
  1294G12c C02C23937   7.281   9.621   7.931  1.3709  0.2023  1.3065
  1294G12c H01A23938   7.337   9.602   7.841 -1.7306-11.2277  1.1092
  1294G12c C02B23939   7.141   9.589   7.952  0.8424 -1.4356  0.5549
  1294G12c O00E23940   7.094   9.531   7.842  1.7338 -0.0951  1.7269
  1294G12c H01B23941   7.005   9.503   7.858  0.0560 -2.6745 -8.3882
  1294G12c C02F23942   7.071   9.657   8.053 -0.2199  3.9327 -0.6318
  1294G12c O00F23943   6.941   9.625   8.113  1.7027 -0.1170  0.0764
  1294G12c C02G23944   6.939   9.496   8.185 -1.5817  0.2316 -0.6101
  1294G12c H01723945   6.860   9.430   8.221 -0.3732 -0.1710  1.3605
  1294G12c H01623946   6.966   9.534   8.284 -0.3848  1.8951 -1.5432
  1294G12c H01523947   7.018   9.427   8.154  1.3424  0.3503  5.9037
  1294G12c C02E23948   7.139   9.752   8.137  0.5878  0.3019 -0.0108
  1294G12c H01823949   7.099   9.796   8.226  7.6395  4.9702  1.2564
  1294G12c C01F23950   7.188   9.501   8.517  0.6046  0.7653 -1.2536
  1294G12c C01G23951   7.105   9.603   8.577 -0.7806 -1.6465  1.9274
  1294G12c H00L23952   7.077   9.692   8.522 -0.2282 -2.1010  0.9084
  1294G12c C01H23953   6.979   9.549   8.637 -1.4469  0.5910 -1.4479
  1294G12c H00B23954   6.916   9.631   8.668  0.6956  1.1820  1.5433
  1294G12c C01I23955   6.943   9.415   8.640  1.5938  0.5359  0.4052
  1294G12c C01U23956   7.155   9.359   8.543 -0.1836  0.4568  0.1844
  1294G12c C00S23957   7.014   9.023   8.126 -0.5863  0.7185  0.3025
  1294G12c C00K23958   6.915   9.027   8.326  0.2263 -1.7735  0.4500
  1294G12c C00N23959   7.201   9.262   8.446  1.8400 -0.6864 -1.0219
  1294G12c C00023960   7.046   9.313   8.621  2.2901  0.1140 -0.2039
  1294G12c C01J23961   6.821   9.347   8.612 -0.2522 -0.1312  1.3796
  1294G12c C01K23962   6.697   9.406   8.652 -0.2401  0.7086 -0.1914
  1294G12c C01P23963   6.653   9.520   8.734  0.0454 -1.2351 -1.0253
  1294G12c C01Q23964   6.732   9.581   8.838  0.1482  0.7344  1.1202
  1294G12c H00G23965   6.811   9.525   8.885 -0.4547 -0.2721  0.9641
  1294G12c C01R23966   6.741   9.715   8.857  1.9523  2.1737  2.3896
  1294G12c H00F23967   6.700   9.773   8.776 -0.3756  1.6122  3.1342
  1294G12c C01S23968   6.828   9.773   8.943 -1.0807  0.1456 -0.4114
  1294G12c H00E23969   6.771   9.799   9.032  0.5048  5.9318 -0.8722
  1294G12c H00D23970   6.915   9.714   8.972 -0.0431  2.4189  1.2941
  1294G12c O00523971   6.892   9.889   8.941  0.2336 -0.7980 -0.2197
  1294G12c H00C23972   6.923   9.895   9.030  0.5570  0.3017 -0.4026
  1294G12c C01O23973   6.534   9.578   8.707  1.2376  1.8119  1.4872
  1294G12c H00H23974   6.513   9.674   8.751  1.3036  0.7690  3.8790
  1294G12c C01N23975   6.471   9.568   8.583 -1.2726 -1.6687 -0.7324
  1294G12c O00623976   6.355   9.635   8.543 -1.6879 -0.6500 -0.3461
  1294G12c C01T23977   6.340   9.767   8.602 -0.5889  0.8322  0.9082
  1294G12c H00K23978   6.435   9.810   8.569 -1.0965 -0.3389 -2.2524
  1294G12c H00J23979   6.259   9.839   8.594  3.0838  5.6003  3.4632
  1294G12c H00I23980   6.340   9.780   8.710  0.3616 -5.9821  1.9901
  1294G12c C01M23981   6.498   9.454   8.510 -0.0939 -0.5584  0.3230
  1294G12c C02023982   6.775   9.066   8.373  1.3686 -0.5023 -0.5561
  1294G12c C02123983   6.654   9.020   8.324  0.6882  0.5237  1.5429
  1294G12c C01L23984   6.601   9.357   8.551 -1.0973  0.6254  2.1329
  1294G12c O00723985   6.402   9.419   8.420 -0.1652  0.7696  0.5879
  1294G12c C02223986   6.519   9.057   8.340 -0.0373  0.5195  0.7163
  1294G12c C02323987   6.654   8.949   8.200 -0.3390 -1.8038  0.2881
  1294G12c C00G23988   6.653   8.953   7.922 -0.9318  0.7147 -0.8941
  1294G12c C00E23989   6.542   8.970   7.698 -2.4470  0.6820 -0.4400
  1294G12c O00A23990   6.526   9.027   7.569 -1.7422  0.4660 -1.6204
  1294G12c C02423991   6.568   9.169   7.574 -0.2007 -0.1859  1.0493
  1294G12c H00V23992   6.638   9.206   7.649 -1.6790  0.1202  2.3040
  1294G12c H00U23993   6.471   9.216   7.558  0.4039  1.1960  1.3081
  1294G12c H00T23994   6.608   9.187   7.474  1.6560 -4.7077  0.8669
  1304G12c C00D23995  11.835   6.165   6.288 -0.8778  0.3697  0.2458
  1304G12c O00B23996  11.964   6.172   6.248  1.1779  1.8432  1.4370
  1304G12c C02523997  11.979   6.231   6.127  0.8388  0.2676 -0.2596
  1304G12c C02623998  11.969   6.115   6.033  1.8947 -2.4864  0.3088
  1304G12c H00Y23999  11.933   6.020   6.073 -1.1307 -2.4809 -2.2207
  1304G12c H00X24000  11.894   6.143   5.959  1.1928 -3.9130  0.4588
  1304G12c O00C24001  12.083   6.106   5.960 -1.6711 -0.9602 -1.4492
  1304G12c H00W24002  12.078   6.036   5.896  1.1107 -5.1130  2.5049
  1304G12c C02724003  12.039   6.349   6.102  0.5706  0.8034 -0.2997
  1304G12c O00D24004  12.077   6.396   5.975  0.5688 -0.1951  0.0167
  1304G12c H00Z24005  12.078   6.310   5.937 -3.0658  0.7058 -2.4916
  1304G12c C02824006  12.070   6.446   6.219  1.7362  0.8288  0.0371
  1304G12c C02924007  12.171   6.428   6.316  0.2113  0.8170  0.4311
  1304G12c H01024008  12.246   6.350   6.314  1.1935  0.7463 10.7557
  1304G12c C02T24009  12.160   6.498   6.431 -3.3780 -1.0877 -1.5615
  1304G12c H01O24010  12.216   6.451   6.510  2.2176  4.9417 -1.4562
  1304G12c C02S24011  12.075   6.605   6.450  0.6749  1.7742 -1.8998
  1304G12c O00J24012  12.060   6.653   6.571 -0.0175 -0.1137 -0.0300
  1304G12c H01P24013  11.982   6.707   6.580  2.3613  2.8336  4.6154
  1304G12c C02R24014  12.013   6.655   6.334 -0.4652  0.2680 -0.0523
  1304G12c O00I24015  11.998   6.784   6.328  0.9194 -0.0435 -0.4655
  1304G12c C02Q24016  11.862   6.811   6.365  1.1950 -1.3398  0.0320
  1304G12c H01N24017  11.884   6.916   6.381 -1.6933 -0.5807 -0.7166
  1304G12c H01R24018  11.819   6.814   6.265  0.3862  1.8709  0.4475
  1304G12c H01Q24019  11.782   6.760   6.419 -1.9682  3.5756  0.2973
  1304G12c C02A24020  12.020   6.578   6.215  1.1878 -1.7019 -1.3152
  1304G12c H01124021  11.955   6.626   6.144 -0.7079 -2.0867  0.1138
  1304G12c C00C24022  11.750   6.280   6.251 -0.0529  2.2540  0.9501
  1304G12c H01224023  11.770   6.369   6.193 -3.3704  2.2100 -0.3937
  1304G12c C00B24024  11.614   6.273   6.264 -1.1535 -0.2619 -1.9231
  1304G12c C00A24025  11.507   6.374   6.229  1.4271  1.2133  0.0918
  1304G12c C00924026  11.508   6.513   6.269  0.7053  0.4301 -0.9332
  1304G12c C00824027  11.580   6.601   6.362 -0.6948  1.7995 -0.6508
  1304G12c H01324028  11.686   6.584   6.368 -0.6676  2.9263  2.8408
  1304G12c C00724029  11.519   6.724   6.404  1.6268  0.5393 -2.2352
  1304G12c H01424030  11.564   6.804   6.463  2.3721 -0.8870 -0.8221
  1304G12c C00624031  11.378   6.754   6.356  0.7266  0.9491  0.1443
  1304G12c C00524032  11.310   6.647   6.303  0.3736  0.7173  0.6866
  1304G12c C00424033  11.162   6.653   6.295  0.2745  1.1133 -0.2176
  1304G12c C00324034  11.104   6.545   6.265  1.3284  1.0638 -1.0653
  1304G12c C00224035  10.954   6.561   6.246 -1.3118  0.6776 -1.1426
  1304G12c C00124036  10.860   6.457   6.251 -0.7087  1.6327 -0.4208
  1304G12c C00M24037  10.885   6.333   6.325 -0.4313 -0.8671  0.9742
  1304G12c C00L24038  10.977   6.233   6.284  0.7501 -0.7187 -0.5543
  1304G12c C00R24039  11.009   6.111   6.354  0.1871 -0.4379 -0.2228
  1304G12c C00Q24040  10.954   6.048   6.466  0.2879 -0.8276 -0.6962
  1304G12c C00V24041  11.027   5.942   6.524  0.4548 -1.3669  0.3522
  1304G12c C00U24042  11.161   5.927   6.486 -0.5169 -0.8346  0.5468
  1304G12c C00T24043  11.230   6.002   6.389 -0.3635  0.2138  1.9535
  1304G12c C01624044  11.368   6.023   6.377  0.4803  0.9036  0.3027
  1304G12c C01524045  11.434   5.933   6.453  0.4524 -0.8207 -1.7345
  1304G12c C01024046  11.380   5.832   6.531  0.5282 -0.2609  0.7507
  1304G12c C01124047  11.456   5.750   6.612  1.2247 -0.2692 -0.4356
  1304G12c H00524048  11.414   5.707   6.702 -0.5637  4.8347  1.3238
  1304G12c C01224049  11.594   5.750   6.603 -2.1611  0.2132  0.3032
  1304G12c C01724050  11.670   5.659   6.663 -1.7172  0.9914  0.3048
  1304G12c O00224051  11.764   5.599   6.584  0.0470  0.3332  0.2583
  1304G12c H00424052  11.845   5.646   6.596 -0.0471  0.9996 -1.4999
  1304G12c C01824053  11.687   5.618   6.798  0.8564 -1.8819  1.1157
  1304G12c O00124054  11.798   5.544   6.837 -1.6322  1.6726  1.1846
  1304G12c H00324055  11.824   5.543   6.746  5.0975  4.4332  2.8044
  1304G12c C01924056  11.615   5.691   6.921 -1.5814 -1.0302  1.2123
  1304G12c H00224057  11.690   5.696   7.001 -1.6080 -2.2656  1.3307
  1304G12c H00124058  11.582   5.788   6.886  1.8208  0.5271  2.1380
  1304G12c O00024059  11.538   5.608   7.000  0.4304  0.4566  0.1673
  1304G12c C01A24060  11.406   5.610   7.022 -1.0612 -0.4117  0.4133
  1304G12c C02K24061  11.312   5.721   7.022 -1.0179 -1.6075  0.3246
  1304G12c O00G24062  11.343   5.851   6.998 -0.1434  0.3509  0.5316
  1304G12c C02M24063  11.385   5.930   7.114  1.2689 -0.1284  0.5825
  1304G12c H01G24064  11.420   5.867   7.195 -0.2827  4.3258  4.9262
  1304G12c H01F24065  11.293   5.987   7.125  2.9728  2.6029  1.1190
  1304G12c H01E24066  11.458   6.001   7.075 -0.9691  4.3629  4.1657
  1304G12c C02J24067  11.171   5.714   7.061 -1.7594  0.3681  0.7786
  1304G12c H01H24068  11.111   5.804   7.065  2.0616  3.1630 -1.4222
  1304G12c C02I24069  11.105   5.604   7.103  0.3915  1.1153  0.8147
  1304G12c C02N24070  10.965   5.603   7.122 -0.7879  0.1390  0.4888
  1304G12c H01M24071  10.908   5.695   7.130  1.5732  2.0462 -3.2095
  1304G12c C02O24072  10.889   5.492   7.150  2.4473  0.1537  0.0052
  1304G12c H01L24073  10.946   5.402   7.129  0.7056  0.1447 -5.6262
  1304G12c C02P24074  10.725   5.503   7.177 -0.4011  0.8769  0.9371
  1304G12c H01K24075  10.706   5.476   7.280 -0.2864  2.1052  1.2863
  1304G12c H01J24076  10.665   5.592   7.156 -4.6072 -2.5275 -2.5697
  1304G12c O00H24077  10.675   5.380   7.133 -0.7621  0.7912  1.6013
  1304G12c H01I24078  10.702   5.306   7.186  4.9502  1.0755 -0.5361
  1304G12c C02H24079  11.191   5.487   7.126  0.0468  0.3854  1.5217
  1304G12c H01C24080  11.159   5.391   7.163 -0.2433  1.0475  3.0086
  1304G12c C02L24081  11.331   5.501   7.084  1.6006  1.2262 -1.0838
  1304G12c H01D24082  11.385   5.408   7.087  1.3181  0.9557  7.0141
  1304G12c C01324083  11.651   5.839   6.514  0.1056 -0.8535  1.2549
  1304G12c H00024084  11.756   5.833   6.541  0.6871 -0.4873 -0.8408
  1304G12c C01424085  11.571   5.928   6.422 -0.7335 -0.1109 -0.8551
  1304G12c C00F24086  11.631   6.031   6.348 -1.0155 -1.8444 -2.1905
  1304G12c C00H24087  11.413   6.128   6.303 -0.9443 -0.9697 -1.0741
  1304G12c C00I24088  11.329   6.226   6.246 -1.2692  1.6412 -0.2796
  1304G12c C00J24089  11.192   6.190   6.249 -0.1033  0.3623 -2.3571
  1304G12c C00Z24090  11.232   5.834   6.551 -1.7322  1.2709  0.7162
  1304G12c C00Y24091  11.170   5.774   6.665 -0.6390 -0.7203  0.9872
  1304G12c H00624092  11.223   5.745   6.755 -0.1582 -0.0610  0.9281
  1304G12c C00X24093  11.029   5.763   6.690  0.0549  1.1748  0.5713
  1304G12c O00324094  10.993   5.672   6.786  0.4054 -1.1099 -0.6403
  1304G12c C01B24095  10.885   5.587   6.763  0.0733 -0.3077 -0.4460
  1304G12c H00924096  10.861   5.519   6.845  3.2481 -2.9371 -1.5780
  1304G12c H00824097  10.802   5.648   6.727  4.3225  2.3847 -6.6116
  1304G12c H00724098  10.925   5.535   6.676 -2.7332 -2.4686 -0.5525
  1304G12c C00W24099  10.958   5.856   6.615 -0.2650  2.5677 -0.1808
  1304G12c O00424100  10.831   5.888   6.671 -0.8807  0.9135  0.6567
  1304G12c C01C24101  10.760   5.971   6.586 -1.6538 -0.1000  0.8899
  1304G12c H00A24102  10.692   5.909   6.530 -3.6723 -1.1085  4.2822
  1304G12c C00P24103  10.822   6.088   6.547  1.2675 -0.7040  0.7774
  1304G12c C00O24104  10.749   6.213   6.532  1.0400 -0.6310 -0.8399
  1304G12c C01D24105  10.642   6.236   6.616 -1.2272  0.9138 -0.3003
  1304G12c H00S24106  10.635   6.157   6.690  1.9925 -1.0397 -1.9399
  1304G12c C01E24107  10.608   6.377   6.644 -1.2162  0.3931  1.2493
  1304G12c O00824108  10.551   6.416   6.763 -0.8208  0.5646  0.2206
  1304G12c C01V24109  10.454   6.346   6.817  2.0263  0.7978 -0.1563
  1304G12c C01Z24110  10.472   6.246   6.939 -1.6408  1.4647  1.7611
  1304G12c H00R24111  10.406   6.165   6.972 -7.8372  3.9409 -3.6542
  1304G12c H00Q24112  10.577   6.215   6.933 -0.9164  4.5279 -4.4138
  1304G12c O00924113  10.451   6.345   7.038  1.7024  0.9375 -0.9224
  1304G12c H00P24114  10.521   6.410   7.035  3.6625 -1.1622 -3.3057
  1304G12c C01W24115  10.337   6.329   6.752  2.0704  0.0047  0.4910
  1304G12c H00O24116  10.305   6.410   6.688 -1.7126 -3.4362 -2.1713
  1304G12c C01X24117  10.210   6.253   6.774  0.3614  0.4627  0.0829
  1304G12c H00N24118  10.203   6.238   6.882 -2.9230  8.0440  1.2326
  1304G12c H00M24119  10.131   6.327   6.767  2.8754  3.3264  0.7709
  1304G12c C01Y24120  10.224   6.111   6.723 -0.7236  0.2491 -1.0787
  1304G12c C02D24121  10.278   6.085   6.594 -0.2541  1.1296  0.5342
  1304G12c H01924122  10.277   6.152   6.510 -4.7667 -3.1132 -3.1128
  1304G12c C02C24123  10.343   5.958   6.561 -0.1492  1.8919  0.6392
  1304G12c H01A24124  10.362   5.942   6.456  1.2427 -3.6552  1.5817
  1304G12c C02B24125  10.325   5.862   6.639 -0.6543  1.3717  0.1511
  1304G12c O00E24126  10.393   5.743   6.606 -0.1548 -0.9487 -0.3460
  1304G12c H01B24127  10.461   5.696   6.651 -0.4439 -4.2450 -3.1842
  1304G12c C02F24128  10.264   5.880   6.769 -0.1687  0.2063  1.7297
  1304G12c O00F24129  10.259   5.790   6.875 -0.6315 -0.3487 -0.2242
  1304G12c C02G24130  10.392   5.769   6.929 -0.0192  0.5737  0.1376
  1304G12c H01724131  10.393   5.662   6.955 -4.9018  0.9275  2.3352
  1304G12c H01624132  10.415   5.831   7.016 -1.4692  3.4709 -1.5065
  1304G12c H01524133  10.467   5.781   6.852  3.2007 -2.9394  2.4960
  1304G12c C02E24134  10.219   5.998   6.811 -0.1679  0.0884  0.1026
  1304G12c H01824135  10.158   6.015   6.898  0.1353  0.1480  0.3049
  1304G12c C01F24136  10.662   6.476   6.552 -0.6507 -0.1390  0.9154
  1304G12c C01G24137  10.667   6.606   6.585 -2.3676 -1.6721  0.0120
  1304G12c H00L24138  10.644   6.636   6.686  3.2184 -2.7274  1.7416
  1304G12c C01H24139  10.753   6.693   6.501  0.7986  1.0563 -0.9236
  1304G12c H00B24140  10.823   6.768   6.533  8.2951 -3.3798 -5.5911
  1304G12c C01I24141  10.777   6.655   6.373 -0.2107 -0.6418  2.1327
  1304G12c C01U24142  10.699   6.435   6.418 -1.3952  0.0797 -0.2943
  1304G12c C00S24143  11.148   6.090   6.331 -0.5229 -0.9641 -1.2739
  1304G12c C00K24144  11.083   6.286   6.226  0.5393 -1.3704  1.2973
  1304G12c C00N24145  10.779   6.319   6.434 -0.0430  0.8306 -0.7013
  1304G12c C00024146  10.744   6.531   6.318  1.0164  2.7824  0.8464
  1304G12c C01J24147  10.909   6.682   6.300 -0.5870  0.0731  0.6947
  1304G12c C01K24148  10.970   6.809   6.313  1.2537  1.2748  0.2058
  1304G12c C01P24149  10.922   6.940   6.334 -1.9127 -0.1663 -0.2756
  1304G12c C01Q24150  10.786   6.990   6.307 -0.4332  0.9025 -0.9967
  1304G12c H00G24151  10.735   7.045   6.385 -5.2024 -3.6670 -0.6793
  1304G12c C01R24152  10.702   6.950   6.218 -1.2482 -1.0222  1.4169
  1304G12c H00F24153  10.719   6.860   6.162 -5.4245  0.3156 -2.3528
  1304G12c C01S24154  10.569   7.001   6.205 -1.0055 -0.3821  0.3217
  1304G12c H00E24155  10.554   7.061   6.294  1.1269 -1.6740  1.5817
  1304G12c H00D24156  10.534   7.082   6.142  1.8383 -4.1368 -6.7394
  1304G12c O00524157  10.473   6.894   6.193  0.6157  0.1181 -0.4096
  1304G12c H00C24158  10.388   6.886   6.233 -0.0435  1.3801 -1.5006
  1304G12c C01O24159  11.006   7.048   6.385  0.3231 -0.1022 -0.2040
  1304G12c H00H24160  11.002   7.155   6.400  1.2146 -0.4860  3.2072
  1304G12c C01N24161  11.139   7.018   6.418 -0.3297  1.4504 -0.0051
  1304G12c O00624162  11.230   7.100   6.487  0.9679  1.2616  1.3266
  1304G12c C01T24163  11.246   7.253   6.464 -0.0885  0.6922 -0.9459
  1304G12c H00K24164  11.160   7.320   6.468 -3.8034 -3.9055  5.9213
  1304G12c H00J24165  11.280   7.251   6.360  3.5322 -0.2737  0.2043
  1304G12c H00I24166  11.318   7.295   6.534 -4.4057 -3.4295  6.6613
  1304G12c C01M24167  11.185   6.877   6.384  0.3702  0.3038  0.9151
  1304G12c C02024168  11.146   6.420   6.198  1.3965 -0.2467  1.8748
  1304G12c C02124169  11.294   6.436   6.179 -0.7385 -0.4023  1.2962
  1304G12c C01L24170  11.103   6.778   6.336 -1.2861  1.2013 -0.4866
  1304G12c O00724171  11.316   6.863   6.398 -1.5143 -0.7077  2.1216
  1304G12c C02224172  11.371   6.554   6.226 -0.0424  0.0215 -0.2925
  1304G12c C02324173  11.391   6.333   6.167 -0.4562 -1.1276  1.2789
  1304G12c C00G24174  11.554   6.142   6.297 -0.6965  0.3691  2.5107
  1304G12c C00E24175  11.782   6.048   6.348  0.6995  0.0424  1.4210
  1304G12c O00A24176  11.875   5.950   6.381  0.9843  0.9267  0.5802
  1304G12c C02424177  11.982   5.988   6.463  0.6763 -0.8551  1.1482
  1304G12c H00V24178  12.083   5.980   6.421  2.3333  1.1305  4.5090
  1304G12c H00U24179  11.980   5.900   6.528 -5.6215 -0.3158  1.9347
  1304G12c H00T24180  11.964   6.057   6.546  1.4170  1.5244 -0.6229
  1314G12c C00D24181   4.834   4.449   5.494 -0.8727 -0.1893  0.0434
  1314G12c O00B24182   4.957   4.472   5.430  0.2812 -1.0247  0.8650
  1314G12c C02524183   5.033   4.357   5.427  0.1298  1.7607  0.4676
  1314G12c C02624184   5.162   4.425   5.402 -1.4511 -1.3466  0.6448
  1314G12c H00Y24185   5.252   4.399   5.457  3.0658 -0.7491 -5.8208
  1314G12c H00X24186   5.193   4.525   5.434 -3.6257 -0.6063  0.4861
  1314G12c O00C24187   5.216   4.379   5.276 -0.5702 -1.4635  2.4318
  1314G12c H00W24188   5.299   4.424   5.275  0.9016 -4.0892  0.6199
  1314G12c C02724189   5.007   4.226   5.422 -0.2251 -0.1929 -0.5481
  1314G12c O00D24190   4.885   4.156   5.382 -1.1310  0.2519 -0.6809
  1314G12c H00Z24191   4.909   4.116   5.300  2.4852  1.0814 -0.1007
  1314G12c C02824192   5.128   4.144   5.420  0.2653 -0.6983 -0.1604
  1314G12c C02924193   5.146   4.015   5.349 -2.1822 -1.0223 -0.3619
  1314G12c H01024194   5.095   4.014   5.254 -2.4312 -3.2458 -0.2282
  1314G12c C02T24195   5.252   3.914   5.400 -0.0360  1.4581 -0.6628
  1314G12c H01O24196   5.303   3.827   5.360 -1.9203 -0.9218  1.8561
  1314G12c C02S24197   5.326   3.951   5.515  2.6722  0.5947 -0.2565
  1314G12c O00J24198   5.407   3.845   5.570 -0.5129  0.1547  0.8404
  1314G12c H01P24199   5.423   3.779   5.504  6.4994  0.6411  1.6814
  1314G12c C02R24200   5.289   4.068   5.596  0.0704 -0.0498  1.4066
  1314G12c O00I24201   5.327   4.101   5.715 -0.0552 -1.1184  0.6907
  1314G12c C02Q24202   5.315   4.000   5.809 -0.1111 -0.2107  1.7476
  1314G12c H01N24203   5.301   3.902   5.763  2.7856  2.8527 -6.7271
  1314G12c H01R24204   5.406   3.973   5.861 -0.8130 -3.5361  1.3678
  1314G12c H01Q24205   5.225   4.038   5.857 -1.8121  2.4107 -3.1197
  1314G12c C02A24206   5.207   4.161   5.544  0.8772 -1.2405  1.3198
  1314G12c H01124207   5.172   4.232   5.617  0.9212 -3.9767  4.1110
  1314G12c C00C24208   4.717   4.411   5.429  0.2761  0.6964  1.0210
  1314G12c H01224209   4.736   4.398   5.324  4.8968  4.0881  1.2731
  1314G12c C00B24210   4.591   4.454   5.501  0.1093 -0.0688 -0.0722
  1314G12c C00A24211   4.464   4.505   5.447  0.9910 -0.2105  0.1146
  1314G12c C00924212   4.413   4.562   5.314  1.4374  0.1773 -0.9664
  1314G12c C00824213   4.491   4.590   5.208 -0.6786  0.2841  0.9674
  1314G12c H01324214   4.591   4.565   5.176 -2.7873 -4.4357 -2.5489
  1314G12c C00724215   4.492   4.714   5.159  0.5890  0.6141  0.6081
  1314G12c H01424216   4.568   4.755   5.094 -0.3454  0.5266 -0.5736
  1314G12c C00624217   4.388   4.810   5.190 -0.6807  0.8007 -0.7162
  1314G12c C00524218   4.297   4.764   5.273  0.5441  1.3380 -0.7864
  1314G12c C00424219   4.195   4.844   5.329  0.1984  1.4721  0.5742
  1314G12c C00324220   4.147   4.810   5.452  1.1198 -0.3425  0.7409
  1314G12c C00224221   4.046   4.908   5.501 -0.9418  1.7023 -0.0477
  1314G12c C00124222   3.954   4.877   5.616  1.2306  0.9923  0.7845
  1314G12c C00M24223   3.980   4.822   5.748 -0.8175 -0.2834 -1.5394
  1314G12c C00L24224   4.064   4.712   5.773 -1.6521 -1.7626  1.1540
  1314G12c C00R24225   4.134   4.688   5.891  0.2853 -0.3384  0.1692
  1314G12c C00Q24226   4.160   4.760   6.012 -1.9495  0.8576  0.7299
  1314G12c C00V24227   4.271   4.717   6.097  1.6720  0.9572 -0.8261
  1314G12c C00U24228   4.374   4.652   6.048 -0.1575 -1.6819 -0.0243
  1314G12c C00T24229   4.367   4.583   5.926 -0.4354  0.1334  0.0592
  1314G12c C01624230   4.484   4.556   5.850 -0.4598  0.2618  0.4371
  1314G12c C01524231   4.601   4.532   5.919  0.9765  1.1241  1.3188
  1314G12c C01024232   4.593   4.543   6.057 -2.7646  0.9690 -0.3649
  1314G12c C01124233   4.697   4.476   6.129 -2.9689  0.0421  0.7586
  1314G12c H00524234   4.680   4.480   6.236  0.8232 -0.4161  1.4518
  1314G12c C01224235   4.812   4.419   6.078  0.2958  1.6998  1.7104
  1314G12c C01724236   4.931   4.370   6.140  0.2090 -1.0610 -0.1088
  1314G12c O00224237   4.994   4.435   6.243 -0.2869 -1.3049  0.7833
  1314G12c H00424238   5.084   4.459   6.229 -2.0461  4.7140 -1.5548
  1314G12c C01824239   4.986   4.259   6.084 -0.7133  0.1559  0.1583
  1314G12c O00124240   4.939   4.188   5.999 -1.0027  0.0082  1.3636
  1314G12c H00324241   4.852   4.218   5.977  0.4722 -0.0041 -5.8459
  1314G12c C01924242   5.123   4.211   6.111 -1.4639 -0.1310  1.1613
  1314G12c H00224243   5.159   4.240   6.209 -4.4307  5.0083  0.9471
  1314G12c H00124244   5.164   4.119   6.069 -0.3687  1.0140 -0.3872
  1314G12c O00024245   5.218   4.316   6.083 -0.1684  1.7564 -0.2082
  1314G12c C01A24246   5.338   4.292   6.112  0.4256  1.3538  0.5646
  1314G12c C02K24247   5.403   4.290   6.238  1.6794  1.7038  0.8721
  1314G12c O00G24248   5.338   4.307   6.355 -1.2991 -1.3490 -0.2178
  1314G12c C02M24249   5.326   4.435   6.373  0.5296 -0.2449  0.9107
  1314G12c H01G24250   5.427   4.468   6.396  0.7981  2.6549 -3.7531
  1314G12c H01F24251   5.348   4.483   6.277  0.9619 -2.7356 -0.2901
  1314G12c H01E24252   5.252   4.448   6.452 -1.8004 -6.0305 -0.0098
  1314G12c C02J24253   5.544   4.267   6.253 -0.1811 -0.8649  0.8713
  1314G12c H01H24254   5.607   4.249   6.339 -1.4765 -3.4132  1.3399
  1314G12c C02I24255   5.631   4.277   6.138 -2.1241 -0.1143 -2.1388
  1314G12c C02N24256   5.783   4.256   6.129  0.8385  0.6248  1.0024
  1314G12c H01M24257   5.850   4.331   6.089  3.0519 -1.4581  0.6965
  1314G12c C02O24258   5.846   4.174   6.227  0.3745  0.3852  0.1063
  1314G12c H01L24259   5.797   4.097   6.285  2.1780 -1.9479 -1.3554
  1314G12c C02P24260   5.995   4.180   6.246 -0.5076  0.6135 -0.4138
  1314G12c H01K24261   5.998   4.222   6.346 -1.3330  6.5583 -2.6411
  1314G12c H01J24262   6.038   4.243   6.168 -1.6914  3.3384  1.0651
  1314G12c O00H24263   6.060   4.072   6.229  0.6023  1.6270 -0.0535
  1314G12c H01I24264   5.991   4.020   6.190  0.1132  3.6402 -1.9495
  1314G12c C02H24265   5.571   4.303   6.019  1.3748 -0.8189  0.3274
  1314G12c H01C24266   5.644   4.338   5.947  8.0104 -0.4097  6.7093
  1314G12c C02L24267   5.426   4.282   6.000 -1.1511  0.2433 -0.5561
  1314G12c H01D24268   5.390   4.279   5.898  5.4021  1.4764 -3.1655
  1314G12c C01324269   4.816   4.438   5.920  0.9890  0.2816  1.0276
  1314G12c H00024270   4.903   4.392   5.875  0.6491  2.0082 -1.4552
  1314G12c C01424271   4.713   4.494   5.847 -0.4238 -0.4236 -0.8494
  1314G12c C00F24272   4.706   4.486   5.706 -0.8037  1.5130  0.6650
  1314G12c C00H24273   4.472   4.517   5.714  0.5168  0.0349 -0.1652
  1314G12c C00I24274   4.345   4.534   5.648 -0.1937  0.7204  0.6076
  1314G12c C00J24275   4.254   4.602   5.729  0.4098  0.4262  1.6159
  1314G12c C00Z24276   4.499   4.623   6.116 -0.7597 -0.3837 -1.1788
  1314G12c C00Y24277   4.506   4.657   6.243 -0.4808 -0.6729  1.4165
  1314G12c H00624278   4.580   4.655   6.322  4.9283 -3.7172 -3.3717
  1314G12c C00X24279   4.414   4.759   6.288 -0.3833 -0.9319 -1.5090
  1314G12c O00324280   4.430   4.795   6.422 -0.4199 -0.2275 -0.1529
  1314G12c C01B24281   4.344   4.719   6.519 -0.8189  0.2626  0.0080
  1314G12c H00924282   4.364   4.751   6.621 -4.5849  2.9396 -0.0045
  1314G12c H00824283   4.379   4.618   6.538  5.6934  2.2144 -0.2849
  1314G12c H00724284   4.242   4.714   6.481 -0.5895  3.4530 -1.2144
  1314G12c C00W24285   4.294   4.783   6.216 -0.4205  1.4708 -0.2195
  1314G12c O00424286   4.238   4.903   6.245 -0.0565 -0.5977  0.0340
  1314G12c C01C24287   4.118   4.909   6.193 -0.0380  0.7352 -0.5072
  1314G12c H00A24288   4.047   4.876   6.267 -2.6248 -4.2413 -4.9008
  1314G12c C00P24289   4.092   4.883   6.051 -1.8371  0.1004 -2.3908
  1314G12c C00O24290   4.007   4.978   5.980  0.4768  1.1627  1.6998
  1314G12c C01D24291   3.940   5.084   6.045  0.4970  0.1322 -2.3467
  1314G12c H00S24292   3.964   5.101   6.149 -0.7663  7.7143 -3.0255
  1314G12c C01E24293   3.891   5.192   5.967 -1.0728 -1.2639  0.2019
  1314G12c O00824294   3.869   5.314   6.027 -0.8756  0.8814  1.4133
  1314G12c C01V24295   3.819   5.332   6.160 -2.3849  0.3199  0.2818
  1314G12c C01Z24296   3.859   5.459   6.208 -1.1919 -0.3834  0.3990
  1314G12c H00R24297   3.817   5.480   6.306 -2.7960  3.7093 -1.0657
  1314G12c H00Q24298   3.965   5.485   6.199 -0.6305 -2.9969 -0.8446
  1314G12c O00924299   3.778   5.525   6.103  0.3255  1.8566  0.7637
  1314G12c H00P24300   3.759   5.610   6.139  2.1972  0.9707  4.0586
  1314G12c C01W24301   3.763   5.251   6.245  2.6160  0.5294 -0.2182
  1314G12c H00O24302   3.716   5.303   6.327  7.6537  0.4940  2.9182
  1314G12c C01X24303   3.711   5.096   6.253  0.6978  0.4992 -2.7579
  1314G12c H00N24304   3.730   5.044   6.160  9.7301 -2.0842  0.0103
  1314G12c H00M24305   3.778   5.056   6.329 -4.3448 -1.0381  1.2112
  1314G12c C01Y24306   3.557   5.101   6.291  0.8205 -0.2065  0.1004
  1314G12c C02D24307   3.477   5.160   6.214 -2.4210  1.1757  1.8821
  1314G12c H01924308   3.519   5.232   6.145 -3.4383 -3.0482 -3.5046
  1314G12c C02C24309   3.332   5.160   6.227  2.2703 -0.0474 -0.2794
  1314G12c H01A24310   3.270   5.233   6.177 -3.2840 -1.9749  3.2208
  1314G12c C02B24311   3.288   5.086   6.346  0.0123 -0.5602  0.6416
  1314G12c O00E24312   3.166   5.069   6.416  1.4800  0.5472 -0.5152
  1314G12c H01B24313   3.200   5.035   6.497 -0.1173  0.9152  0.3251
  1314G12c C02F24314   3.387   5.015   6.419  0.3468 -0.5540 -1.2981
  1314G12c O00F24315   3.333   4.926   6.516  1.0427  0.1804  0.3160
  1314G12c C02G24316   3.405   4.827   6.550 -0.3633  0.6699 -0.0756
  1314G12c H01724317   3.416   4.776   6.454  1.6221  3.1292 -1.2191
  1314G12c H01624318   3.324   4.766   6.589 -0.1272 -0.5680 -1.4785
  1314G12c H01524319   3.511   4.839   6.573  0.3223  2.6369 -3.8042
  1314G12c C02E24320   3.515   5.025   6.390 -1.0328  0.7752 -0.4336
  1314G12c H01824321   3.599   4.974   6.435 -0.5098 -4.5499 -6.6812
  1314G12c C01F24322   3.891   5.172   5.821 -0.4514  1.5421 -0.7557
  1314G12c C01G24323   3.880   5.268   5.708 -1.3724 -1.4093  0.0478
  1314G12c H00L24324   3.842   5.366   5.736  1.4160 -0.6926  1.4867
  1314G12c C01H24325   3.903   5.223   5.572 -0.6222  1.2057  1.8983
  1314G12c H00B24326   3.912   5.283   5.483 -1.0586 -0.2418  0.8533
  1314G12c C01I24327   3.929   5.092   5.533  1.3285  1.3784 -1.1394
  1314G12c C01U24328   3.907   5.035   5.774  0.4294 -2.4743  0.6973
  1314G12c C00S24329   4.256   4.627   5.858  0.5921  1.8398  0.8376
  1314G12c C00K24330   4.147   4.668   5.663  0.2223 -0.6524  0.0045
  1314G12c C00N24331   3.957   4.935   5.848 -0.7758  0.6003  1.2551
  1314G12c C00024332   3.897   5.003   5.640  0.6821 -0.3775 -0.2965
  1314G12c C01J24333   4.028   5.027   5.460 -1.8014  1.4247 -0.1674
  1314G12c C01K24334   4.103   5.069   5.336  0.7169 -0.3317  0.6115
  1314G12c C01P24335   4.107   5.200   5.267 -0.5999 -1.6793 -1.0072
  1314G12c C01Q24336   4.022   5.320   5.261  0.3178 -0.2366  1.0974
  1314G12c H00G24337   4.074   5.413   5.277  1.3032 -0.1804 -2.0870
  1314G12c C01R24338   3.904   5.308   5.219  1.0876  0.8029 -1.7267
  1314G12c H00F24339   3.845   5.397   5.205 -3.3343 -2.1047 -2.7882
  1314G12c C01S24340   3.834   5.179   5.145  0.1579  0.2612  0.3154
  1314G12c H00E24341   3.854   5.107   5.225  2.9820  1.6611  0.9312
  1314G12c H00D24342   3.726   5.164   5.141  0.6675 -4.2359  0.3476
  1314G12c O00524343   3.924   5.134   5.033 -0.9829 -0.3251  1.0633
  1314G12c H00C24344   3.970   5.202   4.987  1.7210 -3.5639 -1.3448
  1314G12c C01O24345   4.198   5.228   5.176 -1.6181  1.2820  2.0775
  1314G12c H00H24346   4.208   5.324   5.127  0.9197 -1.2847 -2.8414
  1314G12c C01N24347   4.284   5.138   5.107  0.4890 -0.0073 -1.1988
  1314G12c O00624348   4.362   5.145   5.005  0.4863 -0.9011 -0.3496
  1314G12c C01T24349   4.342   5.249   4.908 -0.0583  1.0143  0.7665
  1314G12c H00K24350   4.385   5.333   4.963  0.6326  0.6032  0.8687
  1314G12c H00J24351   4.251   5.292   4.867  1.0423  1.1737 -1.6527
  1314G12c H00I24352   4.415   5.209   4.837 -5.3428-10.3149  0.6767
  1314G12c C01M24353   4.273   5.004   5.162  0.3892  0.9235  1.1588
  1314G12c C02024354   4.163   4.685   5.521  1.1745 -0.1970 -0.3329
  1314G12c C02124355   4.239   4.595   5.441 -0.6226 -1.5311 -1.4318
  1314G12c C01L24356   4.181   4.967   5.274 -0.6474 -1.0726  0.5124
  1314G12c O00724357   4.364   4.905   5.111 -0.5201  0.6695 -1.9762
  1314G12c C02224358   4.283   4.617   5.317 -0.6641  0.4351  0.0651
  1314G12c C02324359   4.341   4.523   5.509 -0.8980  1.7494 -0.4888
  1314G12c C00G24360   4.588   4.494   5.633 -0.6965  0.3035  0.1352
  1314G12c C00E24361   4.830   4.473   5.632  0.5114 -1.0791  0.4410
  1314G12c O00A24362   4.944   4.546   5.676  0.3360 -0.9586 -0.3246
  1314G12c C02424363   4.941   4.684   5.618 -1.5712  1.7167 -0.2115
  1314G12c H00V24364   4.959   4.765   5.689 -0.0806 -2.2527  4.1681
  1314G12c H00U24365   4.923   4.715   5.515  7.2707 -3.6201 -3.8918
  1314G12c H00T24366   5.049   4.700   5.616 -0.0673 -5.2639  5.6703
  1324G12c C00D24367   4.848   1.730   4.561 -1.6394 -1.1340  0.6314
  1324G12c O00B24368   4.887   1.683   4.437 -0.4852 -0.9112  2.4509
  1324G12c C02524369   4.938   1.733   4.312 -0.1386 -1.4696  0.7379
  1324G12c C02624370   5.083   1.771   4.343 -0.5737  0.6867  0.2411
  1324G12c H00Y24371   5.081   1.822   4.440 -1.7627  0.3531  0.3950
  1324G12c H00X24372   5.112   1.857   4.282  1.8817 -0.5019 -0.2898
  1324G12c O00C24373   5.176   1.667   4.334 -0.8388  0.0886  0.2567
  1324G12c H00W24374   5.153   1.576   4.344 -1.8570  0.2891 -0.2467
  1324G12c C02724375   4.882   1.676   4.200 -0.8587  1.0382  0.6956
  1324G12c O00D24376   4.756   1.606   4.199 -1.1891 -1.1382 -1.2809
  1324G12c H00Z24377   4.718   1.668   4.138 -2.1672 -4.7194 -4.4923
  1324G12c C02824378   4.951   1.678   4.081 -0.3372  0.7007  1.2629
  1324G12c C02924379   5.019   1.799   4.037 -0.8893  1.0215 -0.6103
  1324G12c H01024380   5.033   1.888   4.098 -2.3006  0.0586  1.1640
  1324G12c C02T24381   5.103   1.811   3.929 -0.1902  0.4980  0.2189
  1324G12c H01O24382   5.171   1.896   3.928 -0.4163  0.6905  0.8552
  1324G12c C02S24383   5.115   1.697   3.853 -0.9296  0.2325 -0.3146
  1324G12c O00J24384   5.217   1.689   3.768  0.3454  0.2630 -1.0195
  1324G12c H01P24385   5.229   1.619   3.705 -1.9306 -3.6432  2.6251
  1324G12c C02R24386   5.034   1.578   3.876  0.2223  0.8351  0.8477
  1324G12c O00I24387   5.042   1.481   3.789 -0.5114 -1.3628 -0.4621
  1324G12c C02Q24388   5.098   1.363   3.848 -1.7647 -0.6129  0.7569
  1324G12c H01N24389   5.134   1.315   3.757  0.2352  1.9647  0.1344
  1324G12c H01R24390   5.169   1.350   3.929  1.7420 -2.7325 -2.5034
  1324G12c H01Q24391   5.000   1.328   3.881 -1.5024  0.5947  2.9374
  1324G12c C02A24392   4.945   1.580   3.978  1.4158 -0.1035 -0.1159
  1324G12c H01124393   4.870   1.504   3.996  0.3990  1.6012  3.3077
  1324G12c C00C24394   4.816   1.646   4.664  0.1387  1.2979  0.4462
  1324G12c H01224395   4.801   1.542   4.639 -3.3217  1.7732  0.3942
  1324G12c C00B24396   4.811   1.689   4.804  1.2331 -0.8820  1.4876
  1324G12c C00A24397   4.776   1.616   4.925 -0.1897  1.4049  0.9488
  1324G12c C00924398   4.682   1.504   4.934  0.2208 -1.7047  0.9934
  1324G12c C00824399   4.613   1.438   4.833 -0.2206 -0.5600  0.9143
  1324G12c H01324400   4.653   1.467   4.737  6.8658  6.2070  5.3527
  1324G12c C00724401   4.491   1.376   4.876 -0.4539  1.6454  1.1420
  1324G12c H01424402   4.418   1.349   4.802  0.7089 -1.4223  1.0271
  1324G12c C00624403   4.450   1.363   5.005 -0.2422 -1.8504 -0.4246
  1324G12c C00524404   4.538   1.425   5.102  0.6479 -1.2735  1.1742
  1324G12c C00424405   4.491   1.462   5.226  0.3808  0.6404  1.2602
  1324G12c C00324406   4.571   1.551   5.312 -0.8207 -1.3734 -0.5739
  1324G12c C00224407   4.511   1.581   5.439 -1.8876 -0.6273 -1.2871
  1324G12c C00124408   4.556   1.673   5.541  0.5288 -0.2455  1.1189
  1324G12c C00M24409   4.577   1.803   5.500 -1.2298 -1.4259  2.8329
  1324G12c C00L24410   4.690   1.830   5.428  0.5380 -0.8164 -0.0808
  1324G12c C00R24411   4.715   1.958   5.360  1.0307  0.1299 -0.4877
  1324G12c C00Q24412   4.669   2.091   5.396 -1.1549 -1.0078  0.4389
  1324G12c C00V24413   4.734   2.201   5.313  1.7582  0.0555  1.0199
  1324G12c C00U24414   4.768   2.167   5.178  1.2219 -2.0359 -1.6622
  1324G12c C00T24415   4.786   2.038   5.136  2.9874 -0.7538 -0.4009
  1324G12c C01624416   4.844   1.998   5.017  1.6102  0.7376 -0.5518
  1324G12c C01524417   4.828   2.096   4.920  0.2169 -0.1404 -0.1340
  1324G12c C01024418   4.811   2.236   4.946 -1.2923  2.2947 -0.6606
  1324G12c C01124419   4.866   2.328   4.857 -1.7477  1.1766 -1.0186
  1324G12c H00524420   4.907   2.426   4.873  2.2303 -0.3222 -1.5451
  1324G12c C01224421   4.893   2.292   4.727 -0.4140 -1.4487 -0.9971
  1324G12c C01724422   4.897   2.416   4.623  0.3656  1.6262 -2.4365
  1324G12c O00224423   4.976   2.419   4.532  0.9649  0.3597  1.0540
  1324G12c H00424424   4.906   2.415   4.468 -1.8430  2.1333  3.9102
  1324G12c C01824425   4.786   2.486   4.610  0.2553 -1.4348  1.5354
  1324G12c O00124426   4.794   2.591   4.538 -0.0186  1.2905 -0.5519
  1324G12c H00324427   4.710   2.605   4.496  4.3672  0.3920-11.1542
  1324G12c C01924428   4.662   2.480   4.681 -0.4212 -1.4724  0.4879
  1324G12c H00224429   4.669   2.400   4.755  3.1726 -0.3143  1.4781
  1324G12c H00124430   4.669   2.576   4.732 -0.5380  0.5902 -3.2003
  1324G12c O00024431   4.535   2.445   4.599  0.8658  0.3343  1.1787
  1324G12c C01A24432   4.442   2.385   4.677  0.6748 -0.7151  0.5156
  1324G12c C02K24433   4.372   2.272   4.625  1.2764 -0.4734 -1.1447
  1324G12c O00G24434   4.430   2.208   4.518 -0.5862 -1.2184  0.2139
  1324G12c C02M24435   4.333   2.121   4.442 -0.1813  0.5373  0.2395
  1324G12c H01G24436   4.318   2.037   4.510  1.3801  0.6572  0.7489
  1324G12c H01F24437   4.384   2.061   4.367 -3.0315 -2.0263  0.2511
  1324G12c H01E24438   4.249   2.188   4.428 -0.5210  1.1636  4.5365
  1324G12c C02J24439   4.287   2.214   4.724  0.7184 -0.1732  1.7352
  1324G12c H01H24440   4.237   2.121   4.703  1.0461 -0.5480  2.5844
  1324G12c C02I24441   4.279   2.269   4.847 -0.0447  1.2122  1.1683
  1324G12c C02N24442   4.179   2.250   4.945  0.3114 -0.2561 -1.8427
  1324G12c H01M24443   4.111   2.324   4.984 -2.2690 -3.7251  0.6716
  1324G12c C02O24444   4.183   2.126   5.001 -1.2751  0.5009  1.1299
  1324G12c H01L24445   4.122   2.122   5.091  0.0553 -4.3573  1.9416
  1324G12c C02P24446   4.288   2.019   4.946 -0.1752 -0.1704  1.9774
  1324G12c H01K24447   4.390   2.051   4.924 -0.9005  0.2912 -0.9520
  1324G12c H01J24448   4.326   1.960   5.029  0.8689 -1.3120  0.7249
  1324G12c O00H24449   4.232   1.934   4.848  0.3044 -0.2516 -1.1844
  1324G12c H01I24450   4.167   1.886   4.896 -1.6369  4.3300  1.0773
  1324G12c C02H24451   4.328   2.398   4.869 -0.2088  2.0770  0.6646
  1324G12c H01C24452   4.333   2.401   4.976  1.1401 -3.8906  0.9226
  1324G12c C02L24453   4.416   2.446   4.789  0.2141  0.7637 -0.9454
  1324G12c H01D24454   4.471   2.538   4.801  0.1544  0.9107 -1.7861
  1324G12c C01324455   4.879   2.159   4.688  0.6277 -0.8318 -0.8898
  1324G12c H00024456   4.904   2.129   4.587  1.7456 -1.6202 -0.3820
  1324G12c C01424457   4.847   2.051   4.782  0.5567 -1.5239  0.1298
  1324G12c C00F24458   4.845   1.914   4.744 -0.6821 -0.9738 -0.6472
  1324G12c C00H24459   4.832   1.869   4.975  0.8560  0.9220 -0.7316
  1324G12c C00I24460   4.827   1.762   5.084  0.9490  0.7843  1.2426
  1324G12c C00J24461   4.794   1.824   5.214 -0.1356  0.5904 -1.8027
  1324G12c C00Z24462   4.782   2.267   5.081 -0.8759 -0.0608 -2.1250
  1324G12c C00Y24463   4.755   2.401   5.118 -0.8736  1.8707 -1.0312
  1324G12c H00624464   4.783   2.476   5.045 -0.1782 -0.8994 -3.6844
  1324G12c C00X24465   4.706   2.420   5.243 -0.1479  1.3620 -0.2212
  1324G12c O00324466   4.653   2.536   5.277 -0.6571 -2.5778 -0.4484
  1324G12c C01B24467   4.742   2.584   5.376  2.3763  0.9783  0.2690
  1324G12c H00924468   4.850   2.595   5.373  2.3894  2.6473  3.9627
  1324G12c H00824469   4.728   2.513   5.458 -1.6525  2.6766  1.1647
  1324G12c H00724470   4.708   2.677   5.424  1.4730  1.3504 -1.0516
  1324G12c C00W24471   4.685   2.325   5.335 -0.6818 -0.3784  1.3890
  1324G12c O00424472   4.612   2.351   5.442 -0.6397 -0.5015 -0.3522
  1324G12c C01C24473   4.533   2.262   5.523 -1.7174  0.8719  0.3491
  1324G12c H00A24474   4.554   2.306   5.620  4.0924 -0.5968 -0.0223
  1324G12c C00P24475   4.551   2.122   5.492 -0.3163 -1.9393 -1.7708
  1324G12c C00O24476   4.463   2.035   5.558  1.1793 -0.5113  1.3069
  1324G12c C01D24477   4.334   2.076   5.593 -0.9770  0.2233  0.2875
  1324G12c H00S24478   4.315   2.181   5.581 -2.0415 -0.3199 -3.4478
  1324G12c C01E24479   4.242   1.999   5.664  1.5315  0.0624  2.0480
  1324G12c O00824480   4.121   2.060   5.691  0.0942 -0.2547 -1.9894
  1324G12c C01V24481   4.098   2.190   5.722 -0.0293 -0.8516  0.2420
  1324G12c C01Z24482   4.140   2.227   5.868 -0.0082 -0.9566 -1.6001
  1324G12c H00R24483   4.237   2.186   5.897 -1.1051 -2.4741  0.0080
  1324G12c H00Q24484   4.150   2.336   5.872 -1.8630 -0.8493  1.0794
  1324G12c O00924485   4.058   2.175   5.972 -0.5057  0.0979 -1.0605
  1324G12c H00P24486   4.037   2.245   6.032 -1.2325  2.2531 -3.7013
  1324G12c C01W24487   4.000   2.246   5.650 -0.0614  0.5630 -1.0117
  1324G12c H00O24488   3.969   2.190   5.563 -0.2811 -0.6570 -0.1444
  1324G12c C01X24489   3.910   2.348   5.703  0.2838 -0.1055  0.2134
  1324G12c H00N24490   3.812   2.320   5.664  0.2153  4.5367 -3.3608
  1324G12c H00M24491   3.871   2.360   5.804 -0.4540 -4.6334  0.5446
  1324G12c C01Y24492   3.956   2.489   5.656 -0.4967  1.0129  0.8933
  1324G12c C02D24493   3.994   2.592   5.753 -1.5766  0.1782  0.4473
  1324G12c H01924494   4.000   2.592   5.861 -0.2647  0.2463  0.3881
  1324G12c C02C24495   4.025   2.736   5.706 -1.5838  2.1736  0.0228
  1324G12c H01A24496   4.063   2.825   5.755  4.8274 -0.1737 -0.2291
  1324G12c C02B24497   4.030   2.756   5.564  1.6704 -2.4128 -0.1749
  1324G12c O00E24498   4.058   2.875   5.502 -0.2801 -1.3256  0.1419
  1324G12c H01B24499   4.098   2.857   5.419 -6.9867 -4.3545 -2.8835
  1324G12c C02F24500   3.998   2.660   5.476 -0.8562 -0.5857 -0.1117
  1324G12c O00F24501   3.967   2.679   5.338 -0.6505 -0.7276 -0.8185
  1324G12c C02G24502   4.064   2.631   5.241  0.2292 -0.7061  0.5141
  1324G12c H01724503   4.066   2.522   5.237 -2.9081 -0.9686  3.8931
  1324G12c H01624504   4.162   2.652   5.283  0.5697  1.1170 -1.0990
  1324G12c H01524505   4.048   2.674   5.142  2.7434  5.4877  2.5742
  1324G12c C02E24506   3.944   2.537   5.525 -1.4914  0.4169 -1.9123
  1324G12c H01824507   3.895   2.453   5.479  0.7398 -0.7570 -2.1855
  1324G12c C01F24508   4.273   1.866   5.678 -0.7494  0.9550  0.6406
  1324G12c C01G24509   4.173   1.769   5.713 -1.0168  0.4635 -1.4786
  1324G12c H00L24510   4.074   1.809   5.731  0.1891  3.6447 -1.7008
  1324G12c C01H24511   4.198   1.646   5.648  0.9601 -0.2989  0.3074
  1324G12c H00B24512   4.103   1.621   5.603  1.4472  5.0244 -4.1929
  1324G12c C01I24513   4.322   1.605   5.582  0.5164 -0.6955 -1.3085
  1324G12c C01U24514   4.396   1.812   5.635 -0.1444  0.9761  1.3813
  1324G12c C00S24515   4.806   1.959   5.251  0.3234 -0.3775 -0.3968
  1324G12c C00K24516   4.730   1.748   5.316 -1.9976  1.0319  0.4472
  1324G12c C00N24517   4.478   1.896   5.554 -0.0162 -0.4061  0.0356
  1324G12c C00024518   4.445   1.676   5.643  0.2490  0.2541  1.2282
  1324G12c C01J24519   4.377   1.524   5.476  0.7376  0.5166 -1.4826
  1324G12c C01K24520   4.307   1.433   5.387  0.2793 -0.4463 -0.0257
  1324G12c C01P24521   4.213   1.328   5.429 -1.9004 -0.1805  0.4008
  1324G12c C01Q24522   4.214   1.282   5.558  2.2510  1.3509 -1.7602
  1324G12c H00G24523   4.239   1.331   5.651 -0.4559  2.4881 -1.5799
  1324G12c C01R24524   4.170   1.158   5.599  0.5106 -0.5569  2.2365
  1324G12c H00F24525   4.147   1.079   5.529 -7.2492  1.2275  2.3154
  1324G12c C01S24526   4.210   1.091   5.724  1.4105  1.2009  0.6952
  1324G12c H00E24527   4.135   1.086   5.803  3.4455 -2.1529  2.5437
  1324G12c H00D24528   4.215   0.985   5.698  0.4904  1.0604  1.0681
  1324G12c O00524529   4.345   1.104   5.752  1.7524 -0.3607  1.2256
  1324G12c H00C24530   4.364   1.115   5.843 -0.1257  4.9131  1.1119
  1324G12c C01O24531   4.164   1.248   5.334 -1.9629 -0.4305 -0.9793
  1324G12c H00H24532   4.106   1.167   5.374 -4.7382  2.1200  0.3529
  1324G12c C01N24533   4.200   1.237   5.202  1.3258  1.7924  0.0385
  1324G12c O00624534   4.131   1.157   5.107 -0.5610 -0.7875  0.8474
  1324G12c C01T24535   4.034   1.231   5.048 -0.9836  0.1166  0.2073
  1324G12c H00K24536   3.948   1.215   5.113 -1.6328  2.0557 -0.1360
  1324G12c H00J24537   4.041   1.240   4.939 -2.4857 -1.9508 -0.0989
  1324G12c H00I24538   4.037   1.340   5.050  4.9292  0.1366 -1.4184
  1324G12c C01M24539   4.306   1.319   5.168  1.0770 -0.5908  0.1833
  1324G12c C02024540   4.684   1.621   5.256 -2.3222 -0.9218 -0.0761
  1324G12c C02124541   4.741   1.555   5.150  0.6244 -1.5503  0.4335
  1324G12c C01L24542   4.366   1.410   5.257  0.4110  0.0856 -0.9024
  1324G12c O00724543   4.330   1.323   5.035  1.4862 -0.3795 -0.1921
  1324G12c C02224544   4.666   1.472   5.072 -0.2562 -0.7487 -1.5519
  1324G12c C02324545   4.821   1.635   5.056 -0.4596  0.4705  0.3333
  1324G12c C00G24546   4.841   1.819   4.840 -0.5015 -0.6639  0.4000
  1324G12c C00E24547   4.825   1.869   4.604 -0.0070  0.1994 -0.7973
  1324G12c O00A24548   4.813   1.958   4.496  0.0147 -0.1291 -0.5964
  1324G12c C02424549   4.686   2.037   4.498  1.7051 -1.0756 -1.7845
  1324G12c H00V24550   4.683   2.120   4.427  4.1507  1.2818  0.7458
  1324G12c H00U24551   4.669   2.057   4.603  0.7121 -0.6454 -2.0242
  1324G12c H00T24552   4.594   1.994   4.458  2.9720 -2.8979 -2.8273
  1334G12c C00D24553  10.304   8.893  11.722 -0.1777  0.8880 -0.7693
  1334G12c O00B24554  10.383   8.998  11.788 -0.6537 -0.3050  0.0314
  1334G12c C02524555  10.476   9.051  11.695 -0.7246  1.0054  1.3919
  1334G12c C02624556  10.575   8.948  11.644 -0.4839  0.1552  0.2907
  1334G12c H00Y24557  10.549   8.943  11.538 -1.1559 -3.9554  0.5688
  1334G12c H00X24558  10.578   8.851  11.694  1.1319  2.4467  4.9196
  1334G12c O00C24559  10.709   8.964  11.618 -0.6333  0.1817 -1.2692
  1334G12c H00W24560  10.736   9.052  11.637  0.4956  1.8733 -8.8741
  1334G12c C02724561  10.460   9.190  11.649  0.8393  1.0094 -0.0984
  1334G12c O00D24562  10.545   9.224  11.548 -1.0228 -0.8682 -0.0564
  1334G12c H00Z24563  10.566   9.315  11.560  1.8337 -1.4878 -0.0673
  1334G12c C02824564  10.353   9.265  11.706  0.8305 -0.2257  0.3983
  1334G12c C02924565  10.342   9.278  11.839 -0.6879  0.7412  0.3788
  1334G12c H01024566  10.438   9.252  11.881  2.4344  4.5112 -3.8936
  1334G12c C02T24567  10.222   9.339  11.889 -0.7421  1.8237 -0.3837
  1334G12c H01O24568  10.204   9.352  11.995  4.6551 -2.7302  1.3847
  1334G12c C02S24569  10.140   9.401  11.792 -0.4646  1.4189 -0.4401
  1334G12c O00J24570  10.044   9.491  11.801  0.2697 -2.1326  0.7446
  1334G12c H01P24571  10.032   9.496  11.707 -1.0127  3.3568  1.0283
  1334G12c C02R24572  10.143   9.365  11.650  1.1519  0.0903  1.1897
  1334G12c O00I24573  10.035   9.423  11.571 -1.4457 -1.6667  0.5637
  1334G12c C02Q24574  10.079   9.533  11.493 -0.4907  0.5982 -1.0914
  1334G12c H01N24575  10.143   9.509  11.407  1.2802  1.4989 -0.0604
  1334G12c H01R24576  10.145   9.605  11.540 -2.8718  2.5438 -0.6554
  1334G12c H01Q24577  10.001   9.607  11.478 -0.4812  1.7592  3.8651
  1334G12c C02A24578  10.244   9.284  11.613 -0.0418 -0.1273 -2.6959
  1334G12c H01124579  10.278   9.232  11.525 -0.4309 -1.1921 -2.2130
  1334G12c C00C24580  10.227   8.901  11.603 -0.3549 -0.4414 -0.3837
  1334G12c H01224581  10.223   8.998  11.557 -8.8976  0.5426  1.5097
  1334G12c C00B24582  10.193   8.790  11.520 -0.5113  1.6892  0.2525
  1334G12c C00A24583  10.133   8.793  11.390  1.5340 -1.7892 -0.1312
  1334G12c C00924584  10.063   8.898  11.315 -1.1688 -0.7463 -0.2907
  1334G12c C00824585  10.023   9.015  11.371 -0.4323 -0.4962 -1.4644
  1334G12c H01324586  10.058   9.036  11.471 -3.8435  3.3181 -0.9369
  1334G12c C00724587   9.941   9.108  11.307 -0.3481 -0.5731  0.3181
  1334G12c H01424588   9.927   9.207  11.347 -1.7906  0.5268 -2.7306
  1334G12c C00624589   9.848   9.041  11.209  0.1285 -1.2415 -0.4198
  1334G12c C00524590   9.887   8.909  11.168 -0.2793 -0.7843 -0.7443
  1334G12c C00424591   9.785   8.827  11.126  0.0657  1.5984  1.0222
  1334G12c C00324592   9.805   8.679  11.134  0.0715 -0.6580 -1.3304
  1334G12c C00224593   9.695   8.592  11.096  0.1391 -1.8176 -0.2200
  1334G12c C00124594   9.682   8.449  11.071  0.6821  1.7257  1.0469
  1334G12c C00M24595   9.730   8.352  11.165 -0.4021 -1.1716 -0.5028
  1334G12c C00L24596   9.836   8.369  11.264  0.8640 -0.5558  2.3259
  1334G12c C00R24597   9.872   8.286  11.368 -0.3064  0.9933  0.8519
  1334G12c C00Q24598   9.828   8.163  11.420 -0.6373 -0.6806  0.5186
  1334G12c C00V24599   9.886   8.123  11.534  0.1209 -1.9647 -1.4431
  1334G12c C00U24600   9.984   8.207  11.595  1.3642 -1.2519  0.2444
  1334G12c C00T24601  10.029   8.330  11.545 -0.6244 -0.5038  0.1702
  1334G12c C01624602  10.106   8.430  11.600 -1.4764 -0.1121 -1.1478
  1334G12c C01524603  10.134   8.430  11.729  1.4937 -1.7388  1.2809
  1334G12c C01024604  10.076   8.308  11.802  0.4078 -0.1908  0.1192
  1334G12c C01124605  10.122   8.292  11.934 -1.5423  0.3841 -0.5572
  1334G12c H00524606  10.131   8.194  11.977 -2.3763 -0.9236 -3.2871
  1334G12c C01224607  10.179   8.398  12.007  0.8775 -1.1020  0.6645
  1334G12c C01724608  10.236   8.378  12.129 -1.5143  1.6747  0.1841
  1334G12c O00224609  10.379   8.354  12.135  0.4630 -0.7165  0.2171
  1334G12c H00424610  10.418   8.324  12.216  3.0380  3.1992  0.5337
  1334G12c C01824611  10.143   8.345  12.233  1.4472 -0.7511 -0.3875
  1334G12c O00124612  10.166   8.289  12.365  0.2851 -1.3204 -0.2297
  1334G12c H00324613  10.098   8.329  12.418  1.7604  2.6185 -1.1379
  1334G12c C01924614   9.988   8.363  12.232 -0.1340 -0.3007  0.5654
  1334G12c H00224615   9.985   8.452  12.169 -2.8402  0.2309  1.3496
  1334G12c H00124616   9.946   8.276  12.183 -0.0567  1.3743 -2.5922
  1334G12c O00024617   9.957   8.416  12.378  0.4312 -0.4784  2.0469
  1334G12c C01A24618   9.835   8.498  12.410 -2.0335  0.0937 -0.1016
  1334G12c C02K24619   9.712   8.470  12.354  1.0373  0.8441 -1.7585
  1334G12c O00G24620   9.699   8.342  12.292  0.7000  0.4457  0.6004
  1334G12c C02M24621   9.585   8.300  12.214 -0.7405 -1.0698 -0.6077
  1334G12c H01G24622   9.521   8.377  12.171 -2.3582 -0.9914  1.8395
  1334G12c H01F24623   9.529   8.225  12.270  0.9192  0.3477  3.1372
  1334G12c H01E24624   9.612   8.257  12.118 -3.0261 -4.1207  0.0357
  1334G12c C02J24625   9.606   8.551  12.382  0.5780 -0.1501 -2.0427
  1334G12c H01H24626   9.500   8.533  12.375  0.7073 -0.7274 -2.5531
  1334G12c C02I24627   9.618   8.668  12.479  0.6695  0.4234  0.9320
  1334G12c C02N24628   9.509   8.749  12.512 -0.6949  1.6185 -0.8963
  1334G12c H01M24629   9.484   8.736  12.616  0.7361 -4.9568 -1.1188
  1334G12c C02O24630   9.428   8.802  12.426 -1.5668 -0.3412  1.1981
  1334G12c H01L24631   9.367   8.867  12.486 -2.3152 -3.8066  4.4383
  1334G12c C02P24632   9.441   8.807  12.271 -0.9736 -0.8833  1.3466
  1334G12c H01K24633   9.387   8.730  12.217 -3.8045 -0.7171  3.8321
  1334G12c H01J24634   9.354   8.867  12.244 -1.6387 -3.3503 -2.4334
  1334G12c O00H24635   9.551   8.887  12.225 -0.1383  1.4868  0.3102
  1334G12c H01I24636   9.624   8.855  12.277 -0.0244 -2.0248 -1.8233
  1334G12c C02H24637   9.728   8.665  12.548 -0.3418 -0.1552  1.0544
  1334G12c H01C24638   9.732   8.721  12.641 -1.7868 -1.3084  1.8270
  1334G12c C02L24639   9.846   8.594  12.520 -0.6993  0.0985 -1.7214
  1334G12c H01D24640   9.919   8.634  12.590 -5.1039  2.8577  1.5353
  1334G12c C01324641  10.206   8.519  11.947 -1.4655  1.6442 -0.0539
  1334G12c H00024642  10.241   8.588  12.022  4.6310 -1.0039 -0.1532
  1334G12c C01424643  10.185   8.539  11.800  1.2424  0.0612  1.4898
  1334G12c C00F24644  10.211   8.664  11.731 -1.2326  0.5751  2.4215
  1334G12c C00H24645  10.138   8.550  11.530  0.0307 -0.7871  0.0339
  1334G12c C00I24646  10.099   8.561  11.399 -0.3529  0.7537 -0.4707
  1334G12c C00J24647  10.028   8.454  11.344 -0.1833 -1.0131  1.9313
  1334G12c C00Z24648  10.020   8.201  11.735 -0.1595  0.9279  0.3066
  1334G12c C00Y24649   9.986   8.076  11.802 -0.0390  1.7145  1.7928
  1334G12c H00624650  10.027   8.023  11.887 -4.8383 -2.3922  1.7833
  1334G12c C00X24651   9.918   7.978  11.736  0.6515 -0.9453  1.4270
  1334G12c O00324652   9.874   7.864  11.799  0.6746 -0.5767  0.3497
  1334G12c C01B24653   9.866   7.870  11.947  1.3084  0.4324  0.0729
  1334G12c H00924654   9.917   7.944  12.009 -1.7421  3.2175 -0.5915
  1334G12c H00824655   9.863   7.778  12.004  3.0132 -1.8616 -3.3706
  1334G12c H00724656   9.768   7.911  11.970  0.9548  1.0703 -2.4406
  1334G12c C00W24657   9.858   8.008  11.614  0.4022 -0.7757 -0.2252
  1334G12c O00424658   9.770   7.922  11.570  1.9935  0.0089 -0.3415
  1334G12c C01C24659   9.680   8.001  11.491  1.6676  0.6382 -1.0363
  1334G12c H00A24660   9.587   8.016  11.544  3.0440  5.5242  0.2909
  1334G12c C00P24661   9.715   8.099  11.395  1.1618  0.2724 -0.1678
  1334G12c C00O24662   9.621   8.142  11.284 -0.6920 -0.4958  0.7948
  1334G12c C01D24663   9.487   8.089  11.289 -0.3293  0.7050  0.8526
  1334G12c H00S24664   9.460   8.021  11.369 -3.8294 -0.9210 -1.5933
  1334G12c C01E24665   9.377   8.153  11.224  0.0210 -0.2581  0.0355
  1334G12c O00824666   9.264   8.085  11.257 -1.0352 -0.7663 -0.6245
  1334G12c C01V24667   9.232   7.970  11.183 -0.6215 -0.3154  0.3367
  1334G12c C01Z24668   9.220   7.850  11.286 -1.2806  0.1280  0.2213
  1334G12c H00R24669   9.206   7.894  11.385 -1.6166 -0.6011  0.4965
  1334G12c H00Q24670   9.116   7.818  11.290  0.7389 -7.4119 -1.0950
  1334G12c O00924671   9.335   7.769  11.299  0.3454 -0.9252  0.7755
  1334G12c H00P24672   9.394   7.783  11.227  0.9851 -1.1707  1.2497
  1334G12c C01W24673   9.233   7.970  11.042 -0.0636 -0.6909 -0.6306
  1334G12c H00O24674   9.243   8.064  10.990 -1.3442 -1.5255 -2.4430
  1334G12c C01X24675   9.196   7.849  10.941  0.9844 -0.0410 -0.2341
  1334G12c H00N24676   9.217   7.765  11.007  0.8288 -0.2511 -0.4478
  1334G12c H00M24677   9.088   7.835  10.939  0.1991  5.1359 -2.8354
  1334G12c C01Y24678   9.271   7.815  10.806 -0.9760  1.2760 -1.0009
  1334G12c C02D24679   9.270   7.674  10.760 -2.5403 -2.9992 -2.1168
  1334G12c H01924680   9.210   7.593  10.798  0.0968 -3.3367  1.6158
  1334G12c C02C24681   9.375   7.604  10.678  0.5730 -1.6522  1.2501
  1334G12c H01A24682   9.361   7.504  10.640 -8.3571 -2.0265  4.2170
  1334G12c C02B24683   9.457   7.716  10.616 -0.5991  1.6105 -1.1612
  1334G12c O00E24684   9.534   7.676  10.516  0.6757  0.6176 -0.5484
  1334G12c H01B24685   9.617   7.719  10.530  1.0060 -1.1626  3.9139
  1334G12c C02F24686   9.441   7.849  10.635  1.7887  0.7567  0.5793
  1334G12c O00F24687   9.503   7.942  10.560  0.9348  0.9142 -0.8892
  1334G12c C02G24688   9.560   8.065  10.612  0.9603 -1.1401 -2.0734
  1334G12c H01724689   9.584   8.125  10.524  6.7891  3.3365  2.1608
  1334G12c H01624690   9.663   8.037  10.633 -0.6197 -3.5846  3.2444
  1334G12c H01524691   9.498   8.113  10.689 -6.5237 -2.9901 -6.4335
  1334G12c C02E24692   9.371   7.895  10.754  0.9455  0.4741  0.0478
  1334G12c H01824693   9.366   7.990  10.804  1.0706  0.1929  0.5907
  1334G12c C01F24694   9.398   8.254  11.137 -0.0258  0.3351  0.8359
  1334G12c C01G24695   9.306   8.364  11.118  0.0818 -1.5860 -1.2715
  1334G12c H00L24696   9.201   8.361  11.144 -0.6294 -1.2744 -3.9724
  1334G12c C01H24697   9.333   8.490  11.090 -2.0180 -1.3796  0.3500
  1334G12c H00B24698   9.292   8.580  11.132  5.7737  3.2755 -1.0415
  1334G12c C01I24699   9.467   8.527  11.048 -0.4952 -0.4923 -1.0957
  1334G12c C01U24700   9.522   8.302  11.103  0.1895 -1.2660  0.6202
  1334G12c C00S24701   9.990   8.343  11.414  2.2391 -0.9582  0.2864
  1334G12c C00K24702   9.923   8.484  11.258  1.5505  1.2109  0.4531
  1334G12c C00N24703   9.642   8.237  11.174 -0.9278 -0.4278  1.1046
  1334G12c C00024704   9.549   8.423  11.041 -0.1798  0.5106 -0.0091
  1334G12c C01J24705   9.563   8.643  11.065  1.6598  1.0376 -0.5706
  1334G12c C01K24706   9.526   8.779  11.083 -1.1801 -0.8054  0.5009
  1334G12c C01P24707   9.402   8.855  11.051 -0.6825  0.4351 -0.0160
  1334G12c C01Q24708   9.311   8.789  10.984 -0.7810  1.6756  1.1892
  1334G12c H00G24709   9.205   8.788  11.003 -0.6172 -0.2069  2.0423
  1334G12c C01R24710   9.329   8.753  10.858  0.6531  1.2002 -1.8542
  1334G12c H00F24711   9.244   8.714  10.804  0.5770  1.8584 -2.2025
  1334G12c C01S24712   9.454   8.743  10.781  0.6579 -1.3007  1.7083
  1334G12c H00E24713   9.534   8.793  10.836  0.7984 -0.1016  0.4540
  1334G12c H00D24714   9.499   8.649  10.749 -1.5953 -0.9386 -2.9562
  1334G12c O00524715   9.437   8.800  10.656  0.3186 -1.1380 -0.5080
  1334G12c H00C24716   9.359   8.853  10.666 -1.3494 -3.0432 -2.7221
  1334G12c C01O24717   9.391   8.998  11.073  0.4434  0.5240  0.7744
  1334G12c H00H24718   9.309   9.058  11.035  1.9115  0.4353 -2.7422
  1334G12c C01N24719   9.492   9.075  11.130 -0.8479 -1.8663 -0.3527
  1334G12c O00624720   9.487   9.208  11.148  0.2728  0.1910  1.4237
  1334G12c C01T24721   9.375   9.273  11.176  0.3681 -0.6131 -0.8573
  1334G12c H00K24722   9.307   9.206  11.124  0.7590 -0.4510 -1.5889
  1334G12c H00J24723   9.337   9.292  11.276  0.8992 -4.3166  0.1238
  1334G12c H00I24724   9.398   9.370  11.133  1.5402 -3.7427 -8.0781
  1334G12c C01M24725   9.625   9.015  11.143  0.7482 -1.5064  2.1586
  1334G12c C02024726   9.921   8.623  11.206  0.4032 -1.0781 -0.0134
  1334G12c C02124727  10.029   8.709  11.218 -0.7262 -0.1330  1.6579
  1334G12c C01L24728   9.645   8.869  11.112 -0.2677  0.4359 -0.0189
  1334G12c O00724729   9.726   9.093  11.191  0.7472 -0.7311 -0.2558
  1334G12c C02224730  10.007   8.845  11.195  1.8981  0.6270  0.0159
  1334G12c C02324731  10.105   8.677  11.325 -1.2978  0.8232  0.3038
  1334G12c C00G24732  10.193   8.660  11.591 -0.7533 -1.1421  0.1644
  1334G12c C00E24733  10.276   8.771  11.791 -0.2884  0.5895 -1.1153
  1334G12c O00A24734  10.334   8.787  11.921 -1.5939 -0.2097  0.3996
  1334G12c C02424735  10.458   8.717  11.930  0.8301  2.6623 -0.3408
  1334G12c H00V24736  10.419   8.631  11.984 -2.2846  3.1478 -1.6897
  1334G12c H00U24737  10.527   8.770  11.996  1.4620  0.3525  0.8906
  1334G12c H00T24738  10.486   8.669  11.836 -5.2280 -0.8705 -0.5732
  1344G12c C00D24739   2.593   0.497   5.433  0.2670 -0.9884 -0.1970
  1344G12c O00B24740   2.466   0.513   5.386 -0.0779 -0.1102  0.0649
  1344G12c C02524741   2.391   0.399   5.365  1.1211  0.9195  1.5175
  1344G12c C02624742   2.452   0.322   5.237  0.4350 -0.4606  0.9016
  1344G12c H00Y24743   2.556   0.294   5.248  0.1742 -1.2104  1.5188
  1344G12c H00X24744   2.436   0.397   5.159 -2.0862  0.8607  2.6141
  1344G12c O00C24745   2.372   0.222   5.186 -0.9242  0.3679  0.7188
  1344G12c H00W24746   2.357   0.151   5.246 -5.0583  2.7072  2.6960
  1344G12c C02724747   2.294   0.361   5.454  0.0854 -1.7266  0.1350
  1344G12c O00D24748   2.224   0.242   5.464 -0.9266 -0.9262  0.2226
  1344G12c H00Z24749   2.160   0.273   5.401  0.4374 -1.2639 -1.3796
  1344G12c C02824750   2.269   0.448   5.567  1.0294 -2.0269 -2.5222
  1344G12c C02924751   2.125   0.488   5.575 -0.3209 -0.6888 -0.9089
  1344G12c H01024752   2.048   0.476   5.499 -1.3422 -0.8203  0.1354
  1344G12c C02T24753   2.088   0.601   5.658 -0.5143  0.3505  1.1555
  1344G12c H01O24754   1.986   0.636   5.656 -0.8350 -0.5573 -2.6044
  1344G12c C02S24755   2.178   0.630   5.762 -0.5525  1.2726  0.0639
  1344G12c O00J24756   2.123   0.691   5.880 -1.7144 -1.7320  0.2856
  1344G12c H01P24757   2.177   0.655   5.948  0.5795  2.1654  0.6829
  1344G12c C02R24758   2.302   0.559   5.779 -0.0686 -1.1409  0.3127
  1344G12c O00I24759   2.355   0.571   5.907 -0.3781 -0.3895 -0.3535
  1344G12c C02Q24760   2.470   0.646   5.920  0.5645 -0.3125  1.1311
  1344G12c H01N24761   2.555   0.586   5.887  2.5611  2.5955  0.7360
  1344G12c H01R24762   2.482   0.657   6.028 -0.3461 -1.4486  1.3529
  1344G12c H01Q24763   2.426   0.734   5.873 -1.0906  1.1971  5.2878
  1344G12c C02A24764   2.355   0.474   5.678  0.0406 -1.4517 -1.5501
  1344G12c H01124765   2.462   0.466   5.668 -0.2108 -4.3888 -2.5168
  1344G12c C00C24766   2.649   0.373   5.487  0.0890  1.0080  0.1219
  1344G12c H01224767   2.583   0.292   5.516  5.1294 -2.0779  3.7313
  1344G12c C00B24768   2.785   0.362   5.525  0.7732 -1.3084  0.0332
  1344G12c C00A24769   2.847   0.248   5.568  0.1558 -1.0260 -0.9481
  1344G12c C00924770   2.783   0.156   5.668 -0.6079  0.4694  1.3452
  1344G12c C00824771   2.656   0.127   5.713 -0.0052 -0.1336 -0.2391
  1344G12c H01324772   2.559   0.160   5.677  0.4408  2.6264  0.9354
  1344G12c C00724773   2.655   0.104   5.859  1.4040  0.0620 -0.1244
  1344G12c H01424774   2.551   0.098   5.887  1.4360  0.3104  0.0407
  1344G12c C00624775   2.776   0.063   5.931 -0.4905 -0.3026  0.5594
  1344G12c C00524776   2.899   0.074   5.860 -0.0933  0.6350  2.0259
  1344G12c C00424777   3.024   0.051   5.902  0.5209 -1.4920 -0.6196
  1344G12c C00324778   3.143   0.105   5.835 -1.3301  0.2719 -1.3393
  1344G12c C00224779   3.277   0.103   5.909 -1.0337  0.5579 -0.4343
  1344G12c C00124780   3.415   0.154   5.869  1.1717 -0.4624  0.1155
  1344G12c C00M24781   3.443   0.270   5.800  1.4971  0.6787 -1.1088
  1344G12c C00L24782   3.376   0.316   5.702 -1.3106 -0.8691 -0.8784
  1344G12c C00R24783   3.391   0.449   5.645  0.1567  0.2415 -0.3667
  1344G12c C00Q24784   3.477   0.557   5.666  0.7413  0.0407  0.6914
  1344G12c C00V24785   3.440   0.675   5.584  0.3520 -0.0134 -2.0169
  1344G12c C00U24786   3.329   0.667   5.494 -0.1623 -1.0840 -3.0411
  1344G12c C00T24787   3.231   0.567   5.495 -0.0169 -0.7012  0.2189
  1344G12c C01624788   3.097   0.561   5.457 -0.5309 -0.8285 -1.6629
  1344G12c C01524789   3.059   0.668   5.388  0.5360 -0.7886  0.9970
  1344G12c C01024790   3.150   0.774   5.362 -1.9169 -0.2262  0.1452
  1344G12c C01124791   3.097   0.886   5.286 -0.0958 -0.1739  1.5642
  1344G12c H00524792   3.134   0.981   5.321 -0.3863 -0.2995  2.2328
  1344G12c C01224793   2.957   0.903   5.241  0.7845  1.2182 -0.4216
  1344G12c C01724794   2.910   1.017   5.160 -2.4188 -1.1255  0.1101
  1344G12c O00224795   2.804   0.992   5.069 -0.4829 -0.0095  0.1586
  1344G12c H00424796   2.820   0.957   4.983  3.0960 -1.7194  1.4179
  1344G12c C01824797   2.965   1.140   5.148 -0.2929 -0.0412  0.6096
  1344G12c O00124798   3.091   1.162   5.229  0.4480 -0.5395 -0.9427
  1344G12c H00324799   3.123   1.224   5.165 -2.5869  1.3590 -0.6999
  1344G12c C01924800   2.900   1.249   5.060  0.7156  0.6298 -0.1976
  1344G12c H00224801   2.791   1.255   5.055  0.7950  0.1201 -6.1905
  1344G12c H00124802   2.916   1.355   5.076  5.5567 -0.0722  0.1723
  1344G12c O00024803   2.942   1.240   4.910  0.4798 -0.8893  0.2111
  1344G12c C01A24804   3.067   1.317   4.907  0.0424  0.1284 -0.0554
  1344G12c C02K24805   3.189   1.251   4.928  0.7362 -0.3393 -0.7877
  1344G12c O00G24806   3.185   1.119   4.971  0.5436 -0.6697  0.2240
  1344G12c C02M24807   3.233   1.012   4.876  0.1417  0.9430 -2.4547
  1344G12c H01G24808   3.341   1.020   4.870  0.0959  3.6638 -0.7567
  1344G12c H01F24809   3.200   1.046   4.778 -6.0901 -2.4828 -1.8126
  1344G12c H01E24810   3.205   0.915   4.917 -3.2412  2.2736 -1.4280
  1344G12c C02J24811   3.296   1.342   4.943 -0.0317 -0.3366 -0.4122
  1344G12c H01H24812   3.401   1.314   4.939  1.0659  3.4953 -0.5912
  1344G12c C02I24813   3.291   1.477   4.897 -1.2044 -0.8211  0.5981
  1344G12c C02N24814   3.399   1.559   4.922  0.3791  1.0846 -0.8796
  1344G12c H01M24815   3.407   1.655   4.872 -4.2362  5.0681  5.2074
  1344G12c C02O24816   3.472   1.565   5.031  0.8096 -0.7082  1.0030
  1344G12c H01L24817   3.480   1.501   5.119  4.4955  3.5719  4.0431
  1344G12c C02P24818   3.567   1.679   5.073 -1.0421  0.8239 -0.1262
  1344G12c H01K24819   3.656   1.630   5.034 -0.3918  0.7638  1.4200
  1344G12c H01J24820   3.556   1.763   5.004 -3.7529 -1.2364 -2.2967
  1344G12c O00H24821   3.596   1.734   5.201  1.0431  0.4690  0.4664
  1344G12c H01I24822   3.687   1.708   5.205 -0.0287 -3.4061  1.4508
  1344G12c C02H24823   3.170   1.533   4.878 -0.1964  0.5098  0.6741
  1344G12c H01C24824   3.171   1.638   4.853  3.2794  0.8325  1.9725
  1344G12c C02L24825   3.060   1.444   4.864 -0.3989  2.5295 -0.8667
  1344G12c H01D24826   2.967   1.498   4.856 -0.0903  2.6045 -5.2424
  1344G12c C01324827   2.887   0.782   5.263 -0.8726  0.7457 -0.5204
  1344G12c H00024828   2.792   0.785   5.211 -0.8682  3.6938 -0.4760
  1344G12c C01424829   2.924   0.682   5.357 -1.7543  0.8012  1.2671
  1344G12c C00F24830   2.824   0.586   5.401 -0.6934 -1.3876  1.1026
  1344G12c C00H24831   3.006   0.458   5.483 -0.9255  0.9880  0.1807
  1344G12c C00I24832   3.065   0.340   5.531 -0.5453  0.7136  0.2359
  1344G12c C00J24833   3.195   0.365   5.589 -0.7209 -0.3378  0.4883
  1344G12c C00Z24834   3.276   0.778   5.424 -0.0645  0.5538 -0.0458
  1344G12c C00Y24835   3.352   0.904   5.454  0.3113 -0.4347 -0.9025
  1344G12c H00624836   3.299   0.996   5.430 -2.2862  0.6899  7.3616
  1344G12c C00X24837   3.478   0.915   5.535 -0.7077  0.1259 -0.8891
  1344G12c O00324838   3.537   1.040   5.507 -1.3591 -1.7772  0.8546
  1344G12c C01B24839   3.651   1.083   5.589  1.4177 -0.5194 -0.4472
  1344G12c H00924840   3.738   1.133   5.547  2.8884 -0.1090  2.9026
  1344G12c H00824841   3.609   1.168   5.643 -1.3102 -4.7935  4.6754
  1344G12c H00724842   3.695   1.050   5.683 -0.8825 -3.5607 -0.3598
  1344G12c C00W24843   3.523   0.802   5.592  1.5973  1.1768  1.7790
  1344G12c O00424844   3.629   0.821   5.676 -1.2143  0.6238  0.8017
  1344G12c C01C24845   3.663   0.707   5.754 -1.0899  0.3392 -0.3863
  1344G12c H00A24846   3.766   0.699   5.786  0.1166  6.9540 -1.8302
  1344G12c C00P24847   3.589   0.575   5.756 -0.3732 -0.6106  1.5688
  1344G12c C00O24848   3.613   0.478   5.855 -0.4760 -1.2871  0.1008
  1344G12c C01D24849   3.663   0.530   5.980 -4.0115 -0.5924 -0.1685
  1344G12c H00S24850   3.717   0.621   5.998  3.5107 -4.9037  1.2313
  1344G12c C01E24851   3.638   0.475   6.109 -0.6407  0.8684  0.9680
  1344G12c O00824852   3.629   0.569   6.213 -0.0451  1.2396 -0.6936
  1344G12c C01V24853   3.707   0.555   6.333  0.6604  0.5345 -0.6888
  1344G12c C01Z24854   3.854   0.553   6.324  2.1442  1.0333 -1.1150
  1344G12c H00R24855   3.882   0.455   6.362 -0.5435  1.3254  1.7748
  1344G12c H00Q24856   3.873   0.541   6.218 -5.3814 -0.5625 -2.5326
  1344G12c O00924857   3.913   0.659   6.377  0.0206  0.1818 -0.0141
  1344G12c H00P24858   3.862   0.738   6.369  0.7688  0.8952  1.9603
  1344G12c C01W24859   3.642   0.588   6.441 -0.7808 -0.6636  0.5593
  1344G12c H00O24860   3.534   0.581   6.436 -1.2975  2.6662  4.0894
  1344G12c C01X24861   3.701   0.625   6.562 -0.7085 -0.5358  0.3260
  1344G12c H00N24862   3.670   0.550   6.635  4.5342 -0.2146  3.2103
  1344G12c H00M24863   3.810   0.631   6.566 -0.6187  2.0752 -3.7720
  1344G12c C01Y24864   3.641   0.757   6.610  0.3393 -0.2810  0.6770
  1344G12c C02D24865   3.719   0.812   6.730  0.5619  1.8959  1.0816
  1344G12c H01924866   3.766   0.749   6.802  0.2151  0.3994  0.0193
  1344G12c C02C24867   3.716   0.968   6.751 -0.1598 -1.3346 -0.7567
  1344G12c H01A24868   3.809   0.979   6.805  3.6984 -0.5588 -7.0076
  1344G12c C02B24869   3.659   1.056   6.660  1.0946  0.2502  0.0218
  1344G12c O00E24870   3.692   1.187   6.675 -0.4890  0.5457  1.1404
  1344G12c H01B24871   3.612   1.225   6.642 -0.9233 -2.4098 -1.4059
  1344G12c C02F24872   3.579   0.988   6.568  0.8800 -1.2877 -0.7241
  1344G12c O00F24873   3.478   1.072   6.536  0.0713  0.5409 -0.6435
  1344G12c C02G24874   3.354   1.036   6.470  0.6547  0.1624  0.6703
  1344G12c H01724875   3.381   0.993   6.374 -1.6021 -1.9199  0.9050
  1344G12c H01624876   3.265   1.093   6.445 -5.1612 -6.1242  5.1825
  1344G12c H01524877   3.297   0.969   6.536  2.2762  2.7703  4.9593
  1344G12c C02E24878   3.588   0.851   6.521  0.7593 -0.1545 -1.9045
  1344G12c H01824879   3.542   0.830   6.426  0.7705 -0.8313 -1.7591
  1344G12c C01F24880   3.573   0.350   6.121 -1.0824  0.7798  0.1933
  1344G12c C01G24881   3.503   0.298   6.229  0.3633 -1.0876  0.4874
  1344G12c H00L24882   3.524   0.354   6.318  3.1659  3.7527 -2.9720
  1344G12c C01H24883   3.420   0.179   6.227  0.7425 -0.0122 -0.0403
  1344G12c H00B24884   3.362   0.167   6.317 -2.0024  0.5509 -1.7030
  1344G12c C01I24885   3.393   0.121   6.101 -0.5651 -0.1404  0.7092
  1344G12c C01U24886   3.550   0.289   5.999  0.0810  0.0821 -0.3249
  1344G12c C00S24887   3.281   0.462   5.555 -0.2620 -0.5546 -0.4486
  1344G12c C00K24888   3.244   0.265   5.676 -0.2486 -0.6296  0.6541
  1344G12c C00N24889   3.521   0.360   5.882 -0.5129 -0.4652 -0.5968
  1344G12c C00024890   3.473   0.175   5.991  0.1136 -0.0377  0.2015
  1344G12c C01J24891   3.276   0.050   6.046 -1.5871  1.2058  1.4877
  1344G12c C01K24892   3.155   0.005   6.112 -1.6295  0.5311 -0.0146
  1344G12c C01P24893   3.158  -0.051   6.244  1.0238  2.7347  1.7596
  1344G12c C01Q24894   3.273  -0.077   6.325 -0.3138 -0.0610  0.9000
  1344G12c H00G24895   3.349  -0.143   6.285  2.1181  0.9929  3.6489
  1344G12c C01R24896   3.275  -0.012   6.438  1.2125 -0.8488 -1.2881
  1344G12c H00F24897   3.224   0.081   6.458 -0.1108 -1.9284  0.4481
  1344G12c C01S24898   3.403  -0.022   6.518 -0.1328  1.5014 -0.6801
  1344G12c H00E24899   3.363  -0.085   6.597  1.1505  2.4087  0.7376
  1344G12c H00D24900   3.487  -0.035   6.449  3.9017  6.4097  2.9458
  1344G12c O00524901   3.428   0.084   6.599  0.1615  0.3030 -1.0185
  1344G12c H00C24902   3.520   0.079   6.621 -0.9090 -4.2547  3.0725
  1344G12c C01O24903   3.033  -0.097   6.304  1.6049  0.6336  0.4284
  1344G12c H00H24904   3.038  -0.119   6.409 -1.0400 -3.1253 -0.1309
  1344G12c C01N24905   2.912  -0.081   6.224 -0.5730  0.7952  0.2026
  1344G12c O00624906   2.799  -0.157   6.245  1.0648 -0.4827  0.8884
  1344G12c C01T24907   2.801  -0.260   6.344 -0.0548 -0.1265 -0.9616
  1344G12c H00K24908   2.856  -0.212   6.425 -0.9756 -9.4072  5.9930
  1344G12c H00J24909   2.848  -0.345   6.296 -3.0301  0.0480 -4.3594
  1344G12c H00I24910   2.701  -0.299   6.363  1.4081 -2.2170  2.9957
  1344G12c C01M24911   2.906  -0.040   6.101  0.0581 -2.4428 -0.8369
  1344G12c C02024912   3.140   0.178   5.721  0.0523  0.7340  0.0061
  1344G12c C02124913   3.018   0.146   5.654  0.3700  0.3702 -0.7599
  1344G12c C01L24914   3.035   0.002   6.038 -1.7117  1.6431  2.0244
  1344G12c O00724915   2.789  -0.010   6.040  1.5988  0.0767 -0.8297
  1344G12c C02224916   2.902   0.089   5.711  0.0120 -0.4888 -0.1894
  1344G12c C02324917   2.982   0.230   5.558  0.4931 -0.8423  2.1917
  1344G12c C00G24918   2.864   0.466   5.466 -0.1788 -0.0211 -0.9304
  1344G12c C00E24919   2.685   0.603   5.370 -0.1355 -0.7015 -0.7507
  1344G12c O00A24920   2.627   0.690   5.286  0.7846  0.3422  0.7688
  1344G12c C02424921   2.572   0.814   5.335  0.5846  0.5943  0.2970
  1344G12c H00V24922   2.585   0.838   5.440 -0.2970  1.6265  0.1780
  1344G12c H00U24923   2.471   0.777   5.352  2.0999 -2.7339  2.5792
  1344G12c H00T24924   2.582   0.902   5.272  4.8873  1.6597  2.2829
  1354G12c C00D24925   2.842  12.360   3.677 -0.4606  1.5953 -0.4891
  1354G12c O00B24926   2.973  12.334   3.711 -0.9407  0.6851  1.0583
  1354G12c C02524927   3.052  12.294   3.609 -1.6968  2.4714 -0.1530
  1354G12c C02624928   3.203  12.300   3.664  0.0476 -0.3543  0.0110
  1354G12c H00Y24929   3.292  12.245   3.634  1.2112 -1.1162  4.4862
  1354G12c H00X24930   3.218  12.301   3.772 -8.3409 -0.2842  1.5402
  1354G12c O00C24931   3.219  12.448   3.632  0.8339 -0.3978  0.3248
  1354G12c H00W24932   3.138  12.484   3.666  1.1481 -1.7247  2.5884
  1354G12c C02724933   3.028  12.238   3.491 -0.5996 -0.2470  0.0908
  1354G12c O00D24934   2.908  12.201   3.446  0.8018  0.0548 -0.4131
  1354G12c H00Z24935   2.914  12.179   3.355 -2.2701 -2.7614 -0.0304
  1354G12c C02824936   3.138  12.180   3.409 -1.0278  0.7813  0.2696
  1354G12c C02924937   3.259  12.241   3.368  1.0654 -0.2378  0.6069
  1354G12c H01024938   3.247  12.347   3.384 -6.2319 -1.4211  4.8988
  1354G12c C02T24939   3.344  12.183   3.262 -1.6000 -1.8465  1.5345
  1354G12c H01O24940   3.407  12.226   3.186  1.6541 -2.8044  3.5875
  1354G12c C02S24941   3.354  12.047   3.252  0.4870 -1.4099  0.2156
  1354G12c O00J24942   3.409  11.976   3.147  0.4496  0.1962 -0.6563
  1354G12c H01P24943   3.352  11.901   3.154 -3.0452  2.4632 -3.2748
  1354G12c C02R24944   3.248  11.982   3.327 -0.6851  0.2450 -0.7196
  1354G12c O00I24945   3.229  11.851   3.340 -0.3853  1.1104 -0.5172
  1354G12c C02Q24946   3.308  11.799   3.447  0.6857  1.2696  0.7611
  1354G12c H01N24947   3.412  11.812   3.416  0.3841 -2.1335 -2.0209
  1354G12c H01R24948   3.300  11.701   3.495 -0.9665 -4.3962 -9.5857
  1354G12c H01Q24949   3.285  11.874   3.522  5.1694  6.3665 -2.6108
  1354G12c C02A24950   3.146  12.042   3.400  0.3151 -0.3166 -0.0436
  1354G12c H01124951   3.075  11.979   3.451 -3.4953  4.5847  1.0956
  1354G12c C00C24952   2.744  12.270   3.703  0.3832 -1.1815 -1.1623
  1354G12c H01224953   2.765  12.164   3.709  0.0097 -1.5376 -5.1321
  1354G12c C00B24954   2.605  12.279   3.688  0.1941  1.9435 -0.5544
  1354G12c C00A24955   2.516  12.180   3.712 -0.1268  0.3547 -0.0634
  1354G12c C00924956   2.479  12.053   3.645 -1.9549  0.9475  0.0524
  1354G12c C00824957   2.551  11.969   3.578  0.3768 -1.2267 -0.2258
  1354G12c H01324958   2.656  11.955   3.558  0.4542 -3.6559  1.6399
  1354G12c C00724959   2.495  11.845   3.531 -0.2059  0.9053 -0.2240
  1354G12c H01424960   2.561  11.782   3.475  1.4089  0.1045  2.4748
  1354G12c C00624961   2.366  11.812   3.567 -0.1169 -0.0068  0.0248
  1354G12c C00524962   2.290  11.901   3.639 -0.2230 -1.5108  1.8380
  1354G12c C00424963   2.151  11.904   3.647  0.2641 -0.4713  0.9670
  1354G12c C00324964   2.078  12.020   3.694 -1.9494  0.8200  0.1522
  1354G12c C00224965   1.940  12.034   3.651 -1.2865  0.8144 -1.0467
  1354G12c C00124966   1.858  12.129   3.668 -0.9430 -1.8053  0.7831
  1354G12c C00M24967   1.871  12.279   3.643  1.5367 -0.0460  0.8151
  1354G12c C00L24968   1.990  12.343   3.699 -0.2788  0.4187  1.0575
  1354G12c C00R24969   2.024  12.472   3.662 -0.3509  1.3259  0.0015
  1354G12c C00Q24970   1.954  12.572   3.586  0.4260 -0.6668  0.6446
  1354G12c C00V24971   2.038  12.673   3.540 -1.7660  0.4519  0.9011
  1354G12c C00U24972   2.179  12.654   3.532  0.4010  0.0727  1.5648
  1354G12c C00T24973   2.238  12.554   3.594 -1.5214  0.4931 -1.3191
  1354G12c C01624974   2.378  12.514   3.597  0.1473 -1.1031  1.6195
  1354G12c C01524975   2.448  12.598   3.513 -0.4881 -0.6620  0.9095
  1354G12c C01024976   2.393  12.706   3.435 -0.6431  0.8012  0.4328
  1354G12c C01124977   2.481  12.769   3.335 -1.6014  0.1485 -0.3165
  1354G12c H00524978   2.442  12.817   3.246 -2.7360 -0.3346 -0.0921
  1354G12c C01224979   2.620  12.756   3.317 -0.4476 -0.2031  1.5547
  1354G12c C01724980   2.673  12.826   3.202 -0.5571  1.1946 -1.0252
  1354G12c O00224981   2.641  12.789   3.079 -0.0864 -0.4134  0.8785
  1354G12c H00424982   2.635  12.876   3.041 -0.5911 -0.2976  1.2282
  1354G12c C01824983   2.766  12.910   3.253 -1.1502 -1.1599  0.5375
  1354G12c O00124984   2.762  12.951   3.380  0.6775 -0.1003  0.1925
  1354G12c H00324985   2.681  12.936   3.427 -2.5637  7.4941 -2.2247
  1354G12c C01924986   2.855  13.006   3.186  0.6632 -0.7373  1.7713
  1354G12c H00224987   2.935  13.001   3.259  0.9405  1.4196  1.6334
  1354G12c H00124988   2.901  12.975   3.091  0.4360 -6.5946  3.3454
  1354G12c O00024989   2.788  13.119   3.186 -0.9561 -0.6961  0.0938
  1354G12c C01A24990   2.861  13.223   3.132  0.8343  0.4438 -1.2439
  1354G12c C02K24991   2.849  13.240   2.992 -0.4310 -0.9442 -1.3552
  1354G12c O00G24992   2.800  13.142   2.910 -0.4363  0.6396  0.4897
  1354G12c C02M24993   2.867  13.106   2.788 -2.3018 -1.7539 -1.2054
  1354G12c H01G24994   2.942  13.179   2.756 -0.3311 -2.3170  1.8520
  1354G12c H01F24995   2.788  13.124   2.716 -2.7041  2.2701  0.1260
  1354G12c H01E24996   2.919  13.011   2.799  1.5239  0.3198 -0.1843
  1354G12c C02J24997   2.905  13.366   2.936 -0.4488 -1.9269  1.0016
  1354G12c H01H24998   2.914  13.381   2.830  1.4973 -3.2246  0.9512
  1354G12c C02I24999   2.966  13.466   3.029 -1.4550 -0.6995  1.2920
  1354G12c C02N25000   3.037  13.582   2.974  0.5445  1.4086 -0.3877
  1354G12c H01M25001   3.136  13.571   3.015  2.5500  0.5437 -5.0711
  1354G12c C02O25002   2.975  13.652   2.873 -1.7082  0.7691  0.1843
  1354G12c H01L25003   2.899  13.601   2.816 -2.1419 -2.4267  3.4143
  1354G12c C02P25004   3.041  13.748   2.793  0.6622  2.1425  1.9896
  1354G12c H01K25005   3.072  13.850   2.815  1.4407  3.8487 -5.6207
  1354G12c H01J25006   3.147  13.728   2.785 -0.2730 -2.2084 -1.1702
  1354G12c O00H25007   2.973  13.762   2.663 -1.8300  1.1566 -0.3572
  1354G12c H01I25008   2.988  13.845   2.620  0.3027 -3.1316 -8.9884
  1354G12c C02H25009   2.988  13.436   3.175 -1.6764  3.0494  1.0665
  1354G12c H01C25010   3.012  13.524   3.233  3.8490  4.0225 -2.3782
  1354G12c C02L25011   2.918  13.311   3.212 -0.9257 -2.2835  0.9476
  1354G12c H01D25012   2.894  13.300   3.317 -4.1828  2.3275  0.8775
  1354G12c C01325013   2.664  12.677   3.421 -1.2335 -0.1186  0.9652
  1354G12c H00025014   2.761  12.637   3.398 -2.1097 -1.0970 -1.1930
  1354G12c C01425015   2.590  12.597   3.517  1.2522 -0.2419  1.1167
  1354G12c C00F25016   2.639  12.497   3.608  1.1271  0.3950 -3.2159
  1354G12c C00H25017   2.425  12.412   3.666  0.6198 -1.0070  0.5967
  1354G12c C00I25018   2.335  12.329   3.738  1.6125 -0.6381  2.2931
  1354G12c C00J25019   2.197  12.370   3.749  0.3688  0.2684  0.1243
  1354G12c C00Z25020   2.254  12.735   3.440  0.9687  0.4545  0.1731
  1354G12c C00Y25021   2.192  12.841   3.370  0.2263 -0.3669 -1.5159
  1354G12c H00625022   2.242  12.897   3.293  3.0121 -0.2959  0.2860
  1354G12c C00X25023   2.055  12.865   3.385  0.9881 -0.5993 -0.6652
  1354G12c O00325024   1.979  12.972   3.338 -0.6289  0.2125 -0.2033
  1354G12c C01B25025   2.047  13.074   3.266  1.1183 -0.7340  0.5816
  1354G12c H00925026   2.121  13.137   3.316 -2.9867  0.0118  6.1478
  1354G12c H00825027   1.999  13.143   3.198  4.8531 -2.0450 -3.6704
  1354G12c H00725028   2.101  13.026   3.184 -3.2750  1.5550 -3.8906
  1354G12c C00W25029   1.983  12.776   3.462 -0.9702 -1.4780 -0.5055
  1354G12c O00425030   1.835  12.815   3.477  0.1492  0.9106 -0.5075
  1354G12c C01C25031   1.774  12.705   3.524 -0.6199 -1.4209 -0.4679
  1354G12c H00A25032   1.683  12.742   3.568  0.9867  2.4533 -0.2342
  1354G12c C00P25033   1.827  12.575   3.549  1.1978  2.9202  1.2282
  1354G12c C00O25034   1.746  12.463   3.512  0.0243  0.3000 -0.8898
  1354G12c C01D25035   1.665  12.468   3.402 -1.4030 -1.0598  0.2510
  1354G12c H00S25036   1.644  12.563   3.356  1.7587  0.5949  1.9981
  1354G12c C01E25037   1.633  12.360   3.333  1.7132  0.9222  0.2302
  1354G12c O00825038   1.552  12.393   3.236 -1.5783  0.2753  1.6964
  1354G12c C01V25039   1.426  12.338   3.224 -1.3792 -1.1401  0.3484
  1354G12c C01Z25040   1.332  12.378   3.336  0.4087  2.7341 -0.5340
  1354G12c H00R25041   1.401  12.412   3.413 -2.0176  1.2892  2.4017
  1354G12c H00Q25042   1.279  12.473   3.340 -2.8961  0.9176  3.9243
  1354G12c O00925043   1.234  12.279   3.351  0.2358  0.5916  0.4463
  1354G12c H00P25044   1.225  12.206   3.410 -5.2795  1.2346  0.7077
  1354G12c C01W25045   1.365  12.314   3.103 -0.0385 -0.7032 -0.9577
  1354G12c H00O25046   1.272  12.261   3.088  0.4949 -2.3606  1.3717
  1354G12c C01X25047   1.433  12.290   2.970 -1.0847 -0.4332 -0.1748
  1354G12c H00N25048   1.534  12.264   3.004  1.3980  1.7548 -5.2301
  1354G12c H00M25049   1.397  12.192   2.937 -0.6986 -1.3682  2.0796
  1354G12c C01Y25050   1.439  12.419   2.877 -1.6526 -0.0968  0.6034
  1354G12c C02D25051   1.352  12.435   2.766  0.3464  0.0945 -0.6926
  1354G12c H01925052   1.316  12.356   2.702  0.6647 -2.4852  2.2026
  1354G12c C02C25053   1.329  12.569   2.721 -1.0400  0.6345  0.8278
  1354G12c H01A25054   1.290  12.575   2.621  1.8894  1.6597 -0.3195
  1354G12c C02B25055   1.407  12.683   2.768 -1.3241 -0.2764  0.7823
  1354G12c O00E25056   1.399  12.818   2.714 -1.2548 -0.7734  0.1099
  1354G12c H01B25057   1.314  12.812   2.755 -0.1500 -1.2780  2.4257
  1354G12c C02F25058   1.488  12.660   2.882  0.2785  0.6603 -0.1228
  1354G12c O00F25059   1.585  12.760   2.900  0.4940  0.9079  0.2309
  1354G12c C02G25060   1.712  12.710   2.902 -0.4224 -0.6691 -0.6213
  1354G12c H01725061   1.760  12.805   2.878 -1.9859  0.8335  1.9250
  1354G12c H01625062   1.725  12.650   2.813 -5.9627 -0.2304 -1.9309
  1354G12c H01525063   1.747  12.666   2.995 -2.8060  1.8066  1.5531
  1354G12c C02E25064   1.492  12.532   2.935  1.6797 -1.5773 -0.5818
  1354G12c H01825065   1.566  12.508   3.010  1.9673  6.7842  2.3827
  1354G12c C01F25066   1.647  12.229   3.382  0.2979  0.2992  1.3198
  1354G12c C01G25067   1.642  12.096   3.305 -1.1073  0.1761  0.9227
  1354G12c H00L25068   1.634  12.077   3.199 -1.9779  0.6106  0.9066
  1354G12c C01H25069   1.724  11.981   3.350  0.6232 -0.7923  1.5992
  1354G12c H00B25070   1.770  11.929   3.267 -1.5140  0.4482 -0.4168
  1354G12c C01I25071   1.792  11.997   3.475  0.4477 -1.3386  0.3944
  1354G12c C01U25072   1.691  12.212   3.517  0.1603  0.3076  0.6734
  1354G12c C00S25073   2.158  12.488   3.684  1.1811 -1.2384  0.5038
  1354G12c C00K25074   2.092  12.271   3.754  1.1698 -1.3750  0.3398
  1354G12c C00N25075   1.769  12.332   3.563  0.0446 -2.1859  0.5701
  1354G12c C00025076   1.755  12.095   3.565  0.5746  0.0698 -2.0217
  1354G12c C01J25077   1.891  11.938   3.552 -1.0799  0.5825 -0.6081
  1354G12c C01K25078   1.952  11.815   3.530 -0.4220  0.0352 -1.0489
  1354G12c C01P25079   1.885  11.700   3.474  0.9548 -0.5615  0.0780
  1354G12c C01Q25080   1.739  11.689   3.469  0.6278  0.5822 -1.8767
  1354G12c H00G25081   1.711  11.659   3.369  2.9562 -1.7962 -1.8608
  1354G12c C01R25082   1.665  11.722   3.582  0.2855 -1.1780 -0.3854
  1354G12c H00F25083   1.712  11.748   3.676  3.7903 -2.7080 -1.6401
  1354G12c C01S25084   1.525  11.780   3.585  0.6161  0.9412  0.4646
  1354G12c H00E25085   1.478  11.757   3.490  1.4660 -5.0408  1.2892
  1354G12c H00D25086   1.474  11.733   3.668  3.6114 -2.5245  0.4824
  1354G12c O00525087   1.520  11.909   3.613 -0.7001 -1.2867  0.9518
  1354G12c H00C25088   1.611  11.924   3.591  1.1096 -2.6597  6.6864
  1354G12c C01O25089   1.961  11.586   3.458 -0.8090 -1.3442  0.9721
  1354G12c H00H25090   1.927  11.514   3.385 -5.7964  0.3455  1.4414
  1354G12c C01N25091   2.093  11.574   3.506 -1.6949 -0.4346  0.4455
  1354G12c O00625092   2.167  11.475   3.466 -0.1992  0.4347  0.3327
  1354G12c C01T25093   2.224  11.394   3.558 -0.2101  1.3491 -2.7373
  1354G12c H00K25094   2.144  11.392   3.632  4.0422  0.5236  2.1196
  1354G12c H00J25095   2.319  11.446   3.561  0.8039 -0.4200 -3.2415
  1354G12c H00I25096   2.220  11.286   3.540 -0.2713  1.4330 -3.2218
  1354G12c C01M25097   2.159  11.693   3.560 -0.3402  0.8870 -0.4092
  1354G12c C02025098   2.145  12.134   3.760  0.3900 -0.5290 -0.0145
  1354G12c C02125099   2.286  12.113   3.765 -0.6742  0.5441  0.0993
  1354G12c C01L25100   2.072  11.805   3.579 -0.9528  0.8310  0.5136
  1354G12c O00725101   2.301  11.685   3.560 -2.3717 -1.1935 -0.5286
  1354G12c C02225102   2.351  12.022   3.677  1.4897 -0.1562  0.8046
  1354G12c C02325103   2.387  12.207   3.779  1.6034 -0.5289  0.6448
  1354G12c C00G25104   2.556  12.400   3.660  0.9097  0.6125  0.5810
  1354G12c C00E25105   2.785  12.485   3.613 -0.8949 -0.0729 -0.8868
  1354G12c O00A25106   2.863  12.593   3.587  1.5352 -0.1308 -0.4488
  1354G12c C02425107   2.836  12.686   3.704  0.3144  0.2675 -0.1392
  1354G12c H00V25108   2.873  12.616   3.778  2.5101 -4.0150 -4.9625
  1354G12c H00U25109   2.735  12.697   3.743 -0.1499  0.2792 -1.3069
  1354G12c H00T25110   2.883  12.784   3.694  2.5416 -0.9223 -1.9757
  1364G12c C00D25111  10.806   7.378   1.303 -0.4593 -0.5938  1.3878
  1364G12c O00B25112  10.946   7.369   1.325  1.7289 -0.6443  0.4953
  1364G12c C02525113  10.997   7.386   1.451 -0.4890  0.8393  1.2291
  1364G12c C02625114  10.913   7.412   1.585 -0.6082 -0.4270 -1.1080
  1364G12c H00Y25115  10.817   7.448   1.548 -0.6565  1.2707  0.6092
  1364G12c H00X25116  10.917   7.497   1.653  2.7353  1.6035 -3.7143
  1364G12c O00C25117  10.927   7.304   1.668  0.4517  0.1749  1.5141
  1364G12c H00W25118  10.889   7.233   1.618 -2.6695 -0.3370  4.4163
  1364G12c C02725119  11.139   7.402   1.444 -0.2297  1.3234  0.7152
  1364G12c O00D25120  11.212   7.389   1.326 -0.3593  1.3441  0.6458
  1364G12c H00Z25121  11.180   7.324   1.265  0.8586  1.0540  0.3038
  1364G12c C02825122  11.205   7.382   1.574 -0.4281  1.1298  0.5761
  1364G12c C02925123  11.279   7.485   1.640 -0.6585 -0.3932 -0.0794
  1364G12c H01025124  11.273   7.583   1.595  4.6013 -2.5240 -6.1543
  1364G12c C02T25125  11.358   7.456   1.763 -0.0374  0.3484  0.7910
  1364G12c H01O25126  11.405   7.548   1.795  4.8034 -0.0341 -4.4147
  1364G12c C02S25127  11.351   7.330   1.828 -0.6807  1.4970 -1.4772
  1364G12c O00J25128  11.394   7.288   1.954  1.0305 -1.0662  0.3739
  1364G12c H01P25129  11.324   7.231   1.981  0.7741 -0.9391 -0.0175
  1364G12c C02R25130  11.270   7.223   1.761 -0.6793 -0.7408  0.2281
  1364G12c O00I25131  11.258   7.101   1.822  0.9604 -1.1871 -0.0567
  1364G12c C02Q25132  11.153   7.113   1.919 -0.4007  1.0454 -0.4615
  1364G12c H01N25133  11.057   7.061   1.913  1.1827 -2.1852  0.6642
  1364G12c H01R25134  11.117   7.196   1.980 -0.9104 -0.1392  0.8791
  1364G12c H01Q25135  11.197   7.060   2.004 -0.0859  2.3980  0.2203
  1364G12c C02A25136  11.208   7.253   1.641 -2.3716 -0.0579  0.6612
  1364G12c H01125137  11.155   7.166   1.605 -0.3416 -0.1068 -2.4140
  1364G12c C00C25138  10.713   7.323   1.392  0.5678  0.0719  0.3479
  1364G12c H01225139  10.750   7.272   1.479 -1.7708  1.1245  2.0147
  1364G12c C00B25140  10.590   7.348   1.384  0.8906  1.6836 -0.4694
  1364G12c C00A25141  10.495   7.264   1.462  0.7104  0.6252  2.4614
  1364G12c C00925142  10.497   7.135   1.532  0.0666  1.6330  1.7307
  1364G12c C00825143  10.610   7.065   1.570  0.8044 -0.1425  1.1352
  1364G12c H01325144  10.701   7.117   1.595  1.6415 -1.8069  1.6310
  1364G12c C00725145  10.588   6.942   1.610 -0.3591 -0.2442 -0.2220
  1364G12c H01425146  10.681   6.930   1.662  2.5324 -1.0940 -5.2422
  1364G12c C00625147  10.471   6.867   1.575  1.1639  0.5986 -2.2506
  1364G12c C00525148  10.367   6.949   1.528 -1.8346  0.4683  1.8748
  1364G12c C00425149  10.247   6.897   1.482 -0.2873  0.2420 -0.1143
  1364G12c C00325150  10.155   6.978   1.424 -1.6903 -0.3691 -0.0585
  1364G12c C00225151  10.046   6.915   1.368  0.3940  0.9484  1.7887
  1364G12c C00125152   9.931   6.975   1.278  0.7434  0.5478  0.1910
  1364G12c C00M25153   9.942   7.067   1.186  0.3637  0.7268 -0.3130
  1364G12c C00L25154   9.995   7.208   1.213  0.9483 -0.1033  1.1720
  1364G12c C00R25155  10.048   7.296   1.116  0.6886 -0.5370  0.6223
  1364G12c C00Q25156  10.014   7.300   0.983  0.1620  1.2001 -0.7157
  1364G12c C00V25157  10.073   7.414   0.913  0.1528  1.1219  1.2520
  1364G12c C00U25158  10.184   7.484   0.965 -1.4082 -2.0141  1.5421
  1364G12c C00T25159  10.225   7.464   1.085  1.7056 -0.3834  1.9685
  1364G12c C01625160  10.351   7.494   1.140 -0.9335  0.2600 -1.4388
  1364G12c C01525161  10.428   7.571   1.068  0.1764  0.0703  0.6896
  1364G12c C01025162  10.382   7.624   0.949 -0.9807 -0.7172 -0.3274
  1364G12c C01125163  10.450   7.702   0.858 -0.6659 -0.0124 -1.9806
  1364G12c H00525164  10.427   7.739   0.760  0.0421  3.3422 -0.9565
  1364G12c C01225165  10.583   7.727   0.905 -1.5485 -1.1083 -1.2888
  1364G12c C01725166  10.663   7.827   0.826 -1.5042 -0.9420  0.8503
  1364G12c O00225167  10.702   7.951   0.888  0.0223  0.9874  0.7378
  1364G12c H00425168  10.779   7.973   0.837  1.7510  2.5709  3.8673
  1364G12c C01825169  10.714   7.786   0.699 -0.4635  0.3478  1.1592
  1364G12c O00125170  10.818   7.851   0.634  0.4634  0.5750 -1.0440
  1364G12c H00325171  10.862   7.769   0.620 -0.4074  0.5208 -3.7348
  1364G12c C01925172  10.696   7.646   0.643  1.6670  0.2448 -0.0491
  1364G12c H00225173  10.610   7.645   0.575 -3.8366  3.8948  6.2099
  1364G12c H00125174  10.650   7.571   0.708  4.0627 -1.8268 -0.6546
  1364G12c O00025175  10.818   7.597   0.603 -0.8994  1.3162 -0.9522
  1364G12c C01A25176  10.831   7.473   0.551  0.4363  0.0516 -1.4602
  1364G12c C02K25177  10.957   7.436   0.501 -0.0824  1.5420  0.1084
  1364G12c O00G25178  11.053   7.530   0.520 -0.5146  1.0192 -0.2410
  1364G12c C02M25179  11.185   7.508   0.462  0.6011  1.0335  0.6467
  1364G12c H01G25180  11.212   7.403   0.466 -1.9895  0.3866  6.5427
  1364G12c H01F25181  11.166   7.509   0.355  1.1261  2.2927  0.5558
  1364G12c H01E25182  11.265   7.581   0.475  0.4606  1.5334 -1.1024
  1364G12c C02J25183  10.973   7.304   0.439 -0.6304 -0.3849 -0.7648
  1364G12c H01H25184  11.048   7.294   0.362  3.0824  7.4616  1.2816
  1364G12c C02I25185  10.864   7.213   0.435  0.7235  1.5288  1.8495
  1364G12c C02N25186  10.844   7.083   0.373 -1.9539 -0.2693  0.3821
  1364G12c H01M25187  10.891   6.995   0.414  2.3014 -2.1711 -7.4845
  1364G12c C02O25188  10.767   7.071   0.264 -0.8646  0.9251 -0.1625
  1364G12c H01L25189  10.744   7.154   0.199 -7.7153 -3.6217 -4.1701
  1364G12c C02P25190  10.719   6.926   0.197 -0.6602  1.5245  0.3959
  1364G12c H01K25191  10.705   6.862   0.285  1.9239  1.6134  0.9204
  1364G12c H01J25192  10.621   6.955   0.162 -4.0151 -2.7100  5.4011
  1364G12c O00H25193  10.842   6.886   0.133 -1.6362  0.0049 -2.3330
  1364G12c H01I25194  10.903   6.914   0.199 -8.0947 -2.5634  5.6019
  1364G12c C02H25195  10.749   7.274   0.475  0.3380 -1.2847  1.3457
  1364G12c H01C25196  10.653   7.228   0.456 -1.3065  2.0949  1.0154
  1364G12c C02L25197  10.732   7.373   0.563 -1.7815  0.6357 -0.2694
  1364G12c H01D25198  10.647   7.373   0.630 -2.5843  3.7359 -1.1935
  1364G12c C01325199  10.639   7.671   1.016  0.9589  0.1170 -2.1135
  1364G12c H00025200  10.738   7.708   1.037  2.4333 -2.9371 -3.4857
  1364G12c C01425201  10.556   7.581   1.102  0.6264  2.0558  0.5996
  1364G12c C00F25202  10.615   7.521   1.216 -0.4373  0.2443  0.2435
  1364G12c C00H25203  10.396   7.433   1.260  1.3459  0.2855  0.0255
  1364G12c C00I25204  10.313   7.345   1.328  0.9319 -1.3425 -1.5058
  1364G12c C00J25205  10.191   7.306   1.271 -1.9075 -1.0179  1.3545
  1364G12c C00Z25206  10.255   7.582   0.904  0.7906  0.1253 -0.4403
  1364G12c C00Y25207  10.201   7.618   0.770 -0.5017 -1.6182  1.5964
  1364G12c H00625208  10.254   7.695   0.715  0.9146  0.5263  5.7594
  1364G12c C00X25209  10.092   7.553   0.727 -0.4712 -1.7719 -0.2410
  1364G12c O00325210  10.068   7.540   0.593  0.5175  0.7379 -0.4832
  1364G12c C01B25211  10.167   7.568   0.498  0.8459  0.5338  0.5587
  1364G12c H00925212  10.198   7.471   0.461 -7.0798 -2.1591  0.0656
  1364G12c H00825213  10.243   7.646   0.501  6.2675 -4.3823 -0.7736
  1364G12c H00725214  10.099   7.599   0.419  1.3401 -4.2967 -1.8963
  1364G12c C00W25215  10.024   7.448   0.797 -0.3480 -0.6857  0.3644
  1364G12c O00425216   9.942   7.377   0.716  1.3504 -0.0028 -0.8320
  1364G12c C01C25217   9.939   7.247   0.755  1.1151 -0.0703  1.5879
  1364G12c H00A25218   9.987   7.185   0.680 -3.4361 -2.2523  0.2667
  1364G12c C00P25219   9.931   7.205   0.894  1.1136 -0.6186 -0.9100
  1364G12c C00O25220   9.891   7.071   0.938  3.2405 -0.0810 -1.2179
  1364G12c C01D25221   9.877   6.963   0.843 -0.8716 -0.3599 -0.2430
  1364G12c H00S25222   9.890   6.999   0.742 -5.1528  2.8109  0.1825
  1364G12c C01E25223   9.879   6.818   0.864  0.5200 -0.8622  0.9995
  1364G12c O00825224   9.851   6.748   0.748 -0.7231 -0.4003 -1.1529
  1364G12c C01V25225   9.757   6.645   0.759  2.5472 -0.2602  0.4965
  1364G12c C01Z25226   9.603   6.657   0.786 -0.6029  1.3502 -0.9949
  1364G12c H00R25227   9.623   6.661   0.893  1.3483  3.5343 -1.4013
  1364G12c H00Q25228   9.539   6.739   0.756 -3.1784  1.6768  4.8028
  1364G12c O00925229   9.523   6.544   0.804  0.8923 -1.5259  0.0165
  1364G12c H00P25230   9.459   6.591   0.754  0.8732  0.3049  1.6930
  1364G12c C01W25231   9.818   6.526   0.718  0.8138  1.6674  2.4715
  1364G12c H00O25232   9.925   6.514   0.712  0.6996  1.3605  0.7631
  1364G12c C01X25233   9.746   6.409   0.654 -0.1446 -0.3626 -0.2641
  1364G12c H00N25234   9.641   6.392   0.678  0.2533 -3.6250 -0.5567
  1364G12c H00M25235   9.771   6.428   0.550 -5.0892  1.9273 -1.1676
  1364G12c C01Y25236   9.799   6.271   0.709  0.7196  0.6775 -0.3678
  1364G12c C02D25237   9.753   6.237   0.845  0.1859 -0.4199  1.9134
  1364G12c H01925238   9.718   6.320   0.906 -1.2891  3.6122 -3.9912
  1364G12c C02C25239   9.828   6.126   0.905  0.2556 -1.0473  0.8165
  1364G12c H01A25240   9.810   6.075   0.998  0.9914 -2.0608  0.4189
  1364G12c C02B25241   9.913   6.053   0.835  0.2354 -1.0843  1.0491
  1364G12c O00E25242   9.998   5.970   0.892 -1.1097  0.5733 -0.2329
  1364G12c H01B25243   9.951   5.924   0.959  0.1318 -3.3797 -1.9337
  1364G12c C02F25244   9.942   6.075   0.701 -0.1690  0.5295 -2.6032
  1364G12c O00F25245  10.002   5.979   0.617  0.9227 -0.8998  0.4462
  1364G12c C02G25246  10.127   6.035   0.566  0.1948 -1.5485 -0.2123
  1364G12c H01725247  10.190   5.986   0.491 -0.4085  1.5050 -2.8161
  1364G12c H01625248  10.193   6.052   0.651 -1.5996  0.3319  0.8545
  1364G12c H01525249  10.096   6.129   0.520 -0.1757 -1.6441 -0.1598
  1364G12c C02E25250   9.892   6.187   0.648  1.6410 -1.1819  0.6837
  1364G12c H01825251   9.907   6.199   0.542  2.4540  0.0584  0.9261
  1364G12c C01F25252   9.870   6.773   0.996  0.7057  0.5657  0.0796
  1364G12c C01G25253   9.870   6.642   1.049 -0.7752 -1.1904 -0.7341
  1364G12c H00L25254   9.847   6.560   0.984 -0.3082 -0.9353 -1.2284
  1364G12c C01H25255   9.873   6.627   1.195 -1.0322  0.5854 -0.8857
  1364G12c H00B25256   9.842   6.536   1.245  0.8959  0.2599 -0.2134
  1364G12c C01I25257   9.904   6.726   1.284 -0.6809 -1.1677 -1.6323
  1364G12c C01U25258   9.856   6.877   1.091 -1.2315 -0.1315  0.2706
  1364G12c C00S25259  10.141   7.379   1.168 -0.1232 -1.3203  1.8984
  1364G12c C00K25260  10.102   7.200   1.298 -0.6520 -0.5397  1.4196
  1364G12c C00N25261   9.885   7.011   1.066  1.3889  0.2089  0.3793
  1364G12c C00025262   9.859   6.861   1.234  0.3015 -0.1389  0.1126
  1364G12c C01J25263  10.026   6.761   1.371 -0.1455 -0.3035 -0.0340
  1364G12c C01K25264  10.112   6.681   1.445 -2.6149  0.2494 -0.1072
  1364G12c C01P25265  10.124   6.540   1.462  2.5650 -0.3261  0.6249
  1364G12c C01Q25266  10.011   6.460   1.429  0.4427  0.2184 -0.3504
  1364G12c H00G25267   9.919   6.479   1.483 -2.9602  3.1046 -6.6669
  1364G12c C01R25268  10.006   6.352   1.354  0.3577 -0.2223 -0.8290
  1364G12c H00F25269  10.106   6.313   1.337  1.5743  2.2449  0.3277
  1364G12c C01S25270   9.875   6.286   1.338 -0.4594  1.3814 -0.3626
  1364G12c H00E25271   9.853   6.233   1.431 -1.6293  3.3586  0.5240
  1364G12c H00D25272   9.819   6.379   1.347  3.0220  3.2319  3.6353
  1364G12c O00525273   9.842   6.215   1.222  0.0870  0.4534  0.0005
  1364G12c H00C25274   9.906   6.231   1.154 -1.1319 -4.0715 -2.4363
  1364G12c C01O25275  10.239   6.465   1.478 -1.0819  1.2044 -0.6047
  1364G12c H00H25276  10.237   6.358   1.462  1.7390  0.8021  1.3456
  1364G12c C01N25277  10.344   6.539   1.519  0.8577 -1.9119  1.1359
  1364G12c O00625278  10.464   6.490   1.564 -0.6726  0.2780  0.5161
  1364G12c C01T25279  10.517   6.355   1.556  0.0526  0.0279 -0.0331
  1364G12c H00K25280  10.524   6.299   1.463  2.4439  4.3247 -2.5729
  1364G12c H00J25281  10.622   6.335   1.579  0.4493 -0.2549 -2.0144
  1364G12c H00I25282  10.448   6.289   1.609 -6.4828  3.6394 -3.4775
  1364G12c C01M25283  10.346   6.680   1.512  0.7060 -1.3501 -1.1901
  1364G12c C02025284  10.175   7.114   1.401 -1.0887  0.0126 -1.0913
  1364G12c C02125285  10.287   7.161   1.475  1.1908 -0.5111 -0.4931
  1364G12c C01L25286  10.229   6.756   1.478  0.1708 -0.2801  1.2742
  1364G12c O00725287  10.451   6.739   1.578 -0.5406  0.2917  2.0527
  1364G12c C02225288  10.363   7.085   1.549  0.1648  0.5930  0.6619
  1364G12c C02325289  10.362   7.277   1.424 -0.7230  0.4943 -1.7741
  1364G12c C00G25290  10.528   7.444   1.293 -0.6424  0.1325  0.6744
  1364G12c C00E25291  10.757   7.474   1.204 -1.0975  0.0998  2.1830
  1364G12c O00A25292  10.839   7.495   1.092  0.2171  0.5099  0.4625
  1364G12c C02425293  10.799   7.378   1.025 -0.3504  1.2114 -0.5635
  1364G12c H00V25294  10.809   7.408   0.921  3.8920 -0.6451 -0.7956
  1364G12c H00U25295  10.712   7.314   1.018 -1.8678  3.5285 -4.6697
  1364G12c H00T25296  10.866   7.308   1.076  3.3969  5.4857  0.7461
  1374G12c C00D25297   1.939   1.886   1.276  0.0248 -0.5355  1.3438
  1374G12c O00B25298   1.892   1.978   1.190 -1.9221  0.7228  1.1076
  1374G12c C02525299   1.804   2.071   1.239 -0.2929 -2.0879  0.1203
  1374G12c C02625300   1.660   2.010   1.211  0.0937  1.0787  1.5247
  1374G12c H00Y25301   1.601   2.044   1.126  0.4579 -0.7128  0.5328
  1374G12c H00X25302   1.596   2.059   1.284 -0.4736 -2.9359  3.9065
  1374G12c O00C25303   1.645   1.866   1.204 -0.4126  0.8013 -0.4250
  1374G12c H00W25304   1.732   1.837   1.226 -1.2461  2.5900  6.7184
  1374G12c C02725305   1.837   2.192   1.307  1.4306 -0.0712 -0.6963
  1374G12c O00D25306   1.975   2.203   1.330 -0.2280  0.2380  0.8440
  1374G12c H00Z25307   2.017   2.201   1.245  0.1096  1.0996  0.9896
  1374G12c C02825308   1.747   2.308   1.342 -0.2272  1.1178 -0.5252
  1374G12c C02925309   1.785   2.393   1.454  1.4698 -0.4758 -0.5535
  1374G12c H01025310   1.888   2.375   1.481  1.5609 -1.3443 -1.4342
  1374G12c C02T25311   1.701   2.485   1.508 -0.6481 -0.5506  2.2373
  1374G12c H01O25312   1.702   2.555   1.591 -2.1124  0.8353  1.0933
  1374G12c C02S25313   1.588   2.532   1.431  1.1532 -0.5632  0.4292
  1374G12c O00J25314   1.505   2.616   1.493  0.2939  0.3059  0.5396
  1374G12c H01P25315   1.447   2.643   1.424  0.5413 -5.1027 -2.0548
  1374G12c C02R25316   1.540   2.445   1.325 -1.5202  0.9233  0.2548
  1374G12c O00I25317   1.427   2.471   1.270 -0.1832  0.4088 -0.7576
  1374G12c C02Q25318   1.382   2.401   1.159  0.4266 -0.2981  0.1120
  1374G12c H01N25319   1.285   2.426   1.117  0.9078  6.0097  2.2087
  1374G12c H01R25320   1.438   2.437   1.072 -4.8205  0.2744 -3.2634
  1374G12c H01Q25321   1.368   2.297   1.186 -3.1333  1.6904  6.8732
  1374G12c C02A25322   1.620   2.329   1.286  0.8551 -0.6412 -2.1259
  1374G12c H01125323   1.594   2.258   1.210  1.4530 -3.9332  0.6572
  1374G12c C00C25324   1.920   1.889   1.414 -0.3520 -1.4029  1.6205
  1374G12c H01225325   1.853   1.964   1.454 -0.7323 -0.5142 -0.5830
  1374G12c C00B25326   1.927   1.769   1.476  1.8142  1.6676 -0.2392
  1374G12c C00A25327   1.899   1.746   1.619  0.5474  0.4113 -1.4861
  1374G12c C00925328   1.892   1.845   1.716 -0.4721 -0.1250  0.4309
  1374G12c C00825329   1.918   1.981   1.741 -0.5546  0.0853  0.9725
  1374G12c H01325330   1.891   2.052   1.664  2.3690  0.7072  0.4931
  1374G12c C00725331   1.970   2.018   1.877 -0.7148  0.5264  0.3752
  1374G12c H01425332   1.965   2.126   1.885  0.7485  0.8390 -2.4412
  1374G12c C00625333   1.985   1.941   1.981  0.8502  1.3509 -2.2107
  1374G12c C00525334   1.948   1.803   1.962  0.8011  1.0619 -0.5286
  1374G12c C00425335   1.990   1.703   2.059  2.6823  1.5286 -0.5214
  1374G12c C00325336   2.019   1.577   2.016  0.7937  0.6024 -1.3265
  1374G12c C00225337   2.100   1.506   2.118  1.1943  0.0839  0.1085
  1374G12c C00125338   2.134   1.368   2.101  2.9588  0.2405 -0.2819
  1374G12c C00M25339   2.214   1.331   1.998 -0.5321  2.3612  0.3570
  1374G12c C00L25340   2.191   1.370   1.861 -1.7482  0.4143  0.4833
  1374G12c C00R25341   2.272   1.337   1.746 -0.4140 -0.3236 -0.0655
  1374G12c C00Q25342   2.419   1.315   1.743  0.3821 -2.5602  2.9173
  1374G12c C00V25343   2.467   1.342   1.604 -0.3459 -0.6268  0.8470
  1374G12c C00U25344   2.389   1.391   1.505  1.5410 -0.5326 -1.1016
  1374G12c C00T25345   2.262   1.427   1.534 -0.0952 -0.2572  1.2783
  1374G12c C01625346   2.182   1.504   1.444  0.2671 -0.6577 -0.8541
  1374G12c C01525347   2.234   1.525   1.312 -1.7734  0.8141  0.9639
  1374G12c C01025348   2.367   1.470   1.284  0.8075  0.1115 -1.9497
  1374G12c C01125349   2.362   1.415   1.161  0.9179 -1.2109  0.8080
  1374G12c H00525350   2.422   1.334   1.126  0.3704 -1.4220  0.3550
  1374G12c C01225351   2.285   1.452   1.052 -0.6965 -2.0696 -1.2707
  1374G12c C01725352   2.290   1.422   0.913 -2.8248 -0.1188  1.3496
  1374G12c O00225353   2.178   1.437   0.846  2.1720  0.3492  0.7316
  1374G12c H00425354   2.182   1.386   0.767  1.5155  0.9412  0.3213
  1374G12c C01825355   2.410   1.382   0.852  0.0374  1.8023 -0.9730
  1374G12c O00125356   2.537   1.371   0.925  1.4676 -0.2848 -0.3132
  1374G12c H00325357   2.505   1.382   1.013  2.3869  3.7945 -0.4270
  1374G12c C01925358   2.417   1.291   0.727 -1.1236  1.7920 -0.8591
  1374G12c H00225359   2.521   1.288   0.695 -0.1703 -2.2327  2.1658
  1374G12c H00125360   2.430   1.185   0.751  3.5428  1.5856 -3.5781
  1374G12c O00025361   2.306   1.290   0.645  0.1747 -0.3668  1.3155
  1374G12c C01A25362   2.305   1.210   0.519  0.3737  0.9305 -1.3542
  1374G12c C02K25363   2.171   1.176   0.467 -0.4141 -0.8484 -0.9651
  1374G12c O00G25364   2.048   1.210   0.535  1.1590  0.1484 -0.5165
  1374G12c C02M25365   1.976   1.334   0.498 -0.7204  0.6547 -1.1982
  1374G12c H01G25366   1.914   1.354   0.586 -2.1736  4.7801 -3.0513
  1374G12c H01F25367   2.069   1.391   0.501 -4.7462  7.9070 -2.0439
  1374G12c H01E25368   1.950   1.332   0.393 -1.9008 -6.0678 -0.9994
  1374G12c C02J25369   2.157   1.090   0.362 -1.3734 -2.0412  1.0734
  1374G12c H01H25370   2.054   1.064   0.344 -1.6889 -1.3941  1.9574
  1374G12c C02I25371   2.249   1.011   0.300 -0.1502 -0.5645 -1.2976
  1374G12c C02N25372   2.225   0.897   0.210  0.9644  0.2471  1.0122
  1374G12c H01M25373   2.220   0.915   0.104 -4.0910 -3.4563  0.4525
  1374G12c C02O25374   2.208   0.771   0.256  0.8060  0.3307 -0.5812
  1374G12c H01L25375   2.255   0.746   0.350  5.4497  7.6876 -0.5662
  1374G12c C02P25376   2.175   0.652   0.166 -0.5282  0.3207  1.1334
  1374G12c H01K25377   2.077   0.604   0.171 -0.9291  0.6219 -2.6256
  1374G12c H01J25378   2.162   0.684   0.063 -5.5522 -4.0552  0.1984
  1374G12c O00H25379   2.296   0.606   0.140 -0.6948  1.0727  0.0687
  1374G12c H01I25380   2.297   0.544   0.069  2.1378 -0.6509  1.5580
  1374G12c C02H25381   2.372   1.044   0.340  1.6928 -1.1022 -0.1646
  1374G12c H01C25382   2.457   0.984   0.313  1.7772  0.7641 -4.5636
  1374G12c C02L25383   2.402   1.138   0.446 -1.1141 -0.3520 -1.7896
  1374G12c H01D25384   2.495   1.134   0.500 -4.7936  1.5172  5.3913
  1374G12c C01325385   2.175   1.535   1.094  0.1999 -1.0629 -3.5529
  1374G12c H00025386   2.107   1.576   1.021 -4.1677 -5.0246 -1.9731
  1374G12c C01425387   2.147   1.571   1.224  0.4924 -0.6239  0.6130
  1374G12c C00F25388   2.049   1.666   1.271  0.5074 -0.3363  1.1199
  1374G12c C00H25389   2.063   1.554   1.491  0.6475 -1.9485  1.3667
  1374G12c C00I25390   2.010   1.540   1.613  0.9074  1.6988  0.0523
  1374G12c C00J25391   2.075   1.432   1.677  0.3019 -0.0660  0.2293
  1374G12c C00Z25392   2.446   1.409   1.379  0.9121 -0.2639 -1.1144
  1374G12c C00Y25393   2.570   1.368   1.355  1.4432  0.6885 -0.8347
  1374G12c H00625394   2.605   1.357   1.254 -0.3422 -1.7313 -1.2432
  1374G12c C00X25395   2.651   1.313   1.451 -0.9120  0.0010 -0.4999
  1374G12c O00325396   2.771   1.257   1.407 -0.4230 -0.8106  0.5562
  1374G12c C01B25397   2.762   1.113   1.382 -0.3919 -0.4694 -0.3227
  1374G12c H00925398   2.705   1.100   1.290  1.5526 -6.4742 -0.9074
  1374G12c H00825399   2.705   1.070   1.464 -0.2024 -1.8246 -0.8860
  1374G12c H00725400   2.821   1.027   1.350  3.5048  0.4790  3.7823
  1374G12c C00W25401   2.595   1.306   1.577 -0.2115 -1.4264 -1.3485
  1374G12c O00425402   2.689   1.279   1.682  0.2538 -1.4349 -0.1676
  1374G12c C01C25403   2.655   1.325   1.808  0.1179 -0.6353 -0.2056
  1374G12c H00A25404   2.717   1.399   1.855 -4.2213  1.9717  1.7899
  1374G12c C00P25405   2.508   1.302   1.850 -1.4884 -1.5382  0.8510
  1374G12c C00O25406   2.475   1.308   1.992  0.0431  1.1346  1.2095
  1374G12c C01D25407   2.583   1.288   2.085  1.1771  0.1621  1.1890
  1374G12c H00S25408   2.681   1.261   2.047  0.5305  1.6781 -1.7156
  1374G12c C01E25409   2.579   1.299   2.231 -0.5095 -1.1098  0.7983
  1374G12c O00825410   2.680   1.294   2.328  1.9748 -0.5991  1.0369
  1374G12c C01V25411   2.789   1.365   2.274  1.1693  1.8093  0.1198
  1374G12c C01Z25412   2.783   1.517   2.256 -1.0111  0.4962 -0.4202
  1374G12c H00R25413   2.825   1.513   2.156  2.2692 -0.7121  0.9000
  1374G12c H00Q25414   2.688   1.554   2.293 -1.5807  1.8357 -3.1116
  1374G12c O00925415   2.874   1.597   2.325  0.0025  0.7597  0.0324
  1374G12c H00P25416   2.934   1.533   2.358 -2.4957 -0.6955  1.9899
  1374G12c C01W25417   2.906   1.288   2.267  1.0243 -1.7487 -0.5788
  1374G12c H00O25418   2.906   1.187   2.305  2.6461 -4.4739 -7.2497
  1374G12c C01X25419   3.051   1.356   2.260  1.4112  0.2644  0.1419
  1374G12c H00N25420   3.066   1.459   2.229 -1.5528  0.7086  0.0649
  1374G12c H00M25421   3.114   1.345   2.349  2.6297  0.1828 -0.7191
  1374G12c C01Y25422   3.125   1.262   2.180 -1.5350  0.8001  0.2173
  1374G12c C02D25423   3.089   1.204   2.053 -0.6426 -0.2401 -0.0640
  1374G12c H01925424   2.993   1.233   2.012  0.7555  4.5051 -0.2961
  1374G12c C02C25425   3.174   1.089   2.020 -0.9078  0.3100 -1.3641
  1374G12c H01A25426   3.132   1.044   1.931  0.4808  0.0787 -1.9226
  1374G12c C02B25427   3.297   1.069   2.081  0.3887  2.2169 -1.1921
  1374G12c O00E25428   3.398   1.006   1.999  0.6847 -0.4418  0.8083
  1374G12c H01B25429   3.475   1.012   2.053 -1.5773  0.0447  4.1700
  1374G12c C02F25430   3.346   1.129   2.195  0.3354 -1.4052  0.0583
  1374G12c O00F25431   3.476   1.151   2.211  0.0377 -0.1430  1.3874
  1374G12c C02G25432   3.518   1.143   2.345 -0.6472  1.6924 -0.6635
  1374G12c H01725433   3.597   1.072   2.322  0.1843  3.5724 -3.8003
  1374G12c H01625434   3.567   1.240   2.340  3.6685 -0.3582  0.1563
  1374G12c H01525435   3.442   1.147   2.423  1.6427  1.7717  1.6278
  1374G12c C02E25436   3.263   1.240   2.228  1.3478 -0.5401  0.2791
  1374G12c H01825437   3.317   1.279   2.313  2.2404 -0.5267 -0.2883
  1374G12c C01F25438   2.449   1.316   2.274  0.5478 -0.9402  1.6960
  1374G12c C01G25439   2.436   1.408   2.386  0.3518  0.1408  0.9680
  1374G12c H00L25440   2.525   1.429   2.443  4.2532  2.9181 -5.4764
  1374G12c C01H25441   2.332   1.496   2.402  0.6815  0.1051  1.0484
  1374G12c H00B25442   2.318   1.561   2.487 -5.5435  1.7850 -0.9510
  1374G12c C01I25443   2.211   1.455   2.325  0.9546 -1.5770 -0.3805
  1374G12c C01U25444   2.332   1.301   2.191  0.9515  0.4865 -1.0180
  1374G12c C00S25445   2.201   1.381   1.636  0.3023 -1.1012  1.3885
  1374G12c C00K25446   2.080   1.441   1.828 -2.2774 -0.7308  2.0177
  1374G12c C00N25447   2.345   1.314   2.057  0.1161  0.0066  1.7122
  1374G12c C00025448   2.211   1.351   2.228 -0.7635 -0.1187  0.5210
  1374G12c C01J25449   2.126   1.541   2.255  0.2492  0.0425  0.1823
  1374G12c C01K25450   2.069   1.668   2.300  0.6555  0.6458 -0.8095
  1374G12c C01P25451   2.097   1.729   2.434  0.6015  1.4022  0.4211
  1374G12c C01Q25452   2.114   1.682   2.561 -0.0850  0.8271  1.7696
  1374G12c H00G25453   2.169   1.752   2.623  1.4491 -3.0711  5.0643
  1374G12c C01R25454   2.081   1.545   2.593  1.6563  0.1885  0.7088
  1374G12c H00F25455   2.040   1.498   2.504  2.6705  2.6738 -1.1172
  1374G12c C01S25456   2.103   1.474   2.721 -1.2535 -0.9041 -0.5923
  1374G12c H00E25457   2.045   1.509   2.807 -0.9679  4.0841 -2.2921
  1374G12c H00D25458   2.087   1.368   2.702  1.8498 -1.3699 -0.8575
  1374G12c O00525459   2.238   1.463   2.745 -1.3295 -0.9656  0.5167
  1374G12c H00C25460   2.288   1.459   2.665 -1.4687 -2.5573  0.4988
  1374G12c C01O25461   2.116   1.868   2.420  0.5001 -0.9548  1.9361
  1374G12c H00H25462   2.155   1.919   2.507  4.3495  1.6260 -1.1324
  1374G12c C01N25463   2.110   1.940   2.301  1.4363  0.5842 -0.6037
  1374G12c O00625464   2.162   2.066   2.283 -1.2682  0.2082 -0.4581
  1374G12c C01T25465   2.254   2.106   2.384  0.5177  2.7589 -1.0507
  1374G12c H00K25466   2.297   2.011   2.418 -3.1681  0.2458 -3.0352
  1374G12c H00J25467   2.328   2.185   2.371  5.6135 -1.9907 -3.0162
  1374G12c H00I25468   2.197   2.130   2.474  0.1137  2.2434 -1.1621
  1374G12c C01M25469   2.053   1.886   2.196 -0.6088  0.3348  1.0707
  1374G12c C02025470   1.986   1.534   1.880  0.0206  0.5937 -0.4438
  1374G12c C02125471   1.906   1.627   1.812 -0.1707  0.7682  0.5593
  1374G12c C01L25472   2.030   1.754   2.201 -0.4978 -0.0812  1.1366
  1374G12c O00725473   2.032   1.968   2.101 -1.0852 -2.1074 -0.2485
  1374G12c C02225474   1.887   1.764   1.839  1.0075 -0.8759  0.4853
  1374G12c C02325475   1.914   1.631   1.672 -0.9515  0.3672 -0.4466
  1374G12c C00G25476   2.024   1.663   1.416 -0.4127 -0.2145 -0.9864
  1374G12c C00E25477   2.010   1.787   1.205 -0.7400  1.0223 -0.4818
  1374G12c O00A25478   2.033   1.807   1.068  0.6363 -0.1304  0.2399
  1374G12c C02425479   2.137   1.897   1.031 -0.9121 -0.8550  1.3615
  1374G12c H00V25480   2.199   1.823   0.981  2.7110  1.5439  2.0934
  1374G12c H00U25481   2.209   1.954   1.089  0.1610  3.2313 -3.5790
  1374G12c H00T25482   2.097   1.978   0.970  1.0404  0.8808  2.3049
  1384G12c C00D25483   2.586   1.665  13.070 -0.3531 -0.7022  0.9829
  1384G12c O00B25484   2.685   1.579  13.121  0.4191 -0.4490 -1.1043
  1384G12c C02525485   2.706   1.558  13.267 -0.4263  0.7406  2.2959
  1384G12c C02625486   2.792   1.661  13.341  0.4696  0.6625  1.3180
  1384G12c H00Y25487   2.732   1.752  13.348 -1.4787 -0.3606 -1.2422
  1384G12c H00X25488   2.883   1.696  13.292 -1.5228  5.4371  0.6596
  1384G12c O00C25489   2.846   1.617  13.476  0.9002 -0.4350 -0.3043
  1384G12c H00W25490   2.938   1.632  13.461 -0.4365  5.0600 -4.1241
  1384G12c C02725491   2.646   1.459  13.320 -1.3399 -1.6347 -0.9879
  1384G12c O00D25492   2.586   1.378  13.228  0.0104 -1.2748  0.0849
  1384G12c H00Z25493   2.604   1.416  13.143 -0.3164 -1.9531 -0.2842
  1384G12c C02825494   2.647   1.416  13.466 -0.5677 -1.1399 -1.1528
  1384G12c C02925495   2.751   1.351  13.539  1.0505  0.8015 -0.7394
  1384G12c H01025496   2.826   1.324  13.466  2.7577  1.4153  0.7571
  1384G12c C02T25497   2.748   1.309  13.686  1.6315  0.3423  1.5648
  1384G12c H01O25498   2.838   1.250  13.697 -0.6691 -3.5909  0.3588
  1384G12c C02S25499   2.641   1.284  13.743  0.8021  0.4957 -1.1952
  1384G12c O00J25500   2.642   1.214  13.855 -0.3148 -0.6331 -1.5235
  1384G12c H01P25501   2.552   1.208  13.884  0.3823 -1.2339  0.6568
  1384G12c C02R25502   2.535   1.359  13.667 -0.9252  0.0695 -1.3887
  1384G12c O00I25503   2.429   1.365  13.741  0.1268  0.5007  0.6216
  1384G12c C02Q25504   2.457   1.422  13.865  0.1524 -0.8823 -0.9742
  1384G12c H01N25505   2.560   1.457  13.875 -0.7619  1.0276  2.1708
  1384G12c H01R25506   2.470   1.346  13.941 -0.8240  0.4372  0.5337
  1384G12c H01Q25507   2.399   1.510  13.894  4.5233  2.5128 -1.9044
  1384G12c C02A25508   2.534   1.426  13.535 -0.8242 -0.2898  0.7731
  1384G12c H01125509   2.444   1.468  13.492 -0.3779 -2.0035 -1.9666
  1384G12c C00C25510   2.455   1.704  13.138 -1.0698  1.7434  0.4400
  1384G12c H01225511   2.469   1.688  13.244 -1.7123 -3.1908 -0.1251
  1384G12c C00B25512   2.381   1.798  13.095  1.3965 -0.6914  0.8346
  1384G12c C00A25513   2.264   1.870  13.160 -2.0082 -0.8741 -0.4660
  1384G12c C00925514   2.201   1.846  13.284 -0.1871 -0.5888  0.1529
  1384G12c C00825515   2.185   1.725  13.356  0.1354  0.5329  1.0584
  1384G12c H01325516   2.271   1.660  13.352 -1.4285 -1.4391 -2.0191
  1384G12c C00725517   2.054   1.714  13.423 -0.4351  0.5134  0.9570
  1384G12c H01425518   2.028   1.628  13.483  2.5887 -1.6312 -0.7344
  1384G12c C00625519   1.953   1.806  13.408 -0.7660 -0.2256  0.1115
  1384G12c C00525520   1.978   1.927  13.335 -0.9627  0.7175  1.8696
  1384G12c C00425521   1.878   2.018  13.301 -1.6907 -0.2461  0.6632
  1384G12c C00325522   1.914   2.120  13.202 -0.6367  0.8361 -0.6326
  1384G12c C00225523   1.796   2.196  13.151  1.5482  0.2289  0.2344
  1384G12c C00125524   1.771   2.262  13.019  1.4141  2.4992 -0.3034
  1384G12c C00M25525   1.825   2.225  12.894  1.1425 -1.4645  1.9095
  1384G12c C00L25526   1.961   2.194  12.872 -1.2058 -1.4037 -0.9803
  1384G12c C00R25527   2.015   2.154  12.753 -1.2081  1.0685 -0.5658
  1384G12c C00Q25528   1.979   2.182  12.622 -1.8853 -0.0906 -2.1804
  1384G12c C00V25529   2.072   2.121  12.542 -0.3225  2.0179 -0.0003
  1384G12c C00U25530   2.201   2.055  12.575  0.3113  0.6459 -1.6763
  1384G12c C00T25531   2.235   2.061  12.705 -0.0688 -1.8733  0.8337
  1384G12c C01625532   2.323   1.972  12.757 -1.6803 -0.3913 -1.2613
  1384G12c C01525533   2.393   1.885  12.682  0.1980 -1.4971  0.8788
  1384G12c C01025534   2.370   1.890  12.543 -0.6165  0.3173 -1.4403
  1384G12c C01125535   2.434   1.796  12.466  1.0050  0.0721 -1.1237
  1384G12c H00525536   2.414   1.790  12.360  1.1774  2.8980 -1.3515
  1384G12c C01225537   2.532   1.703  12.501 -0.8934 -0.7538 -0.3390
  1384G12c C01725538   2.624   1.626  12.408 -1.6375 -0.4653  1.8363
  1384G12c O00225539   2.739   1.682  12.413 -0.6542 -1.2341 -2.0605
  1384G12c H00425540   2.719   1.770  12.443  5.0271 -0.4585  0.1095
  1384G12c C01825541   2.586   1.519  12.355  0.9895 -0.5118  0.4200
  1384G12c O00125542   2.444   1.502  12.363 -0.4606  0.3506 -0.0200
  1384G12c H00325543   2.419   1.412  12.347 -0.1399  0.0110  1.3004
  1384G12c C01925544   2.646   1.413  12.269 -1.3367  0.7161  0.9496
  1384G12c H00225545   2.571   1.336  12.251  0.1236 -0.1743 -1.5806
  1384G12c H00125546   2.680   1.474  12.185 -0.0048 -2.3169 -0.7849
  1384G12c O00025547   2.782   1.371  12.308  0.6875 -1.3015  0.1275
  1384G12c C01A25548   2.793   1.262  12.389 -0.1738  2.1147  0.3521
  1384G12c C02K25549   2.814   1.132  12.325 -0.6379 -0.0784  0.3697
  1384G12c O00G25550   2.781   1.111  12.189 -0.4288  0.0477 -0.6046
  1384G12c C02M25551   2.883   1.200  12.112  0.4812 -1.1047 -1.3488
  1384G12c H01G25552   2.856   1.147  12.020 -2.0449 -3.2060  0.5511
  1384G12c H01F25553   2.991   1.186  12.098  0.8253 -3.3797  2.8104
  1384G12c H01E25554   2.850   1.299  12.079  3.1946 -0.6383 -2.8682
  1384G12c C02J25555   2.818   1.037  12.435  0.2638 -1.1723  2.6296
  1384G12c H01H25556   2.797   0.933  12.415 -1.6176 -0.6134  1.5674
  1384G12c C02I25557   2.820   1.055  12.569 -1.3055 -0.3770  0.3297
  1384G12c C02N25558   2.833   0.936  12.655 -0.5081 -0.2931 -0.8154
  1384G12c H01M25559   2.797   0.835  12.637 -0.0608 -1.2134  3.0608
  1384G12c C02O25560   2.934   0.939  12.752  0.6516 -0.6325 -0.6658
  1384G12c H01L25561   2.982   1.019  12.807 -2.3225  0.4222  0.5318
  1384G12c C02P25562   2.983   0.810  12.785 -1.5565 -0.3391  0.4745
  1384G12c H01K25563   2.940   0.731  12.723 -4.7344 -0.2703  2.4609
  1384G12c H01J25564   3.091   0.802  12.789 -1.2737  3.6362  3.1696
  1384G12c O00H25565   2.961   0.777  12.924  0.3913 -1.3707 -0.4307
  1384G12c H01I25566   2.940   0.852  12.978 -1.7625  0.5130 -3.6653
  1384G12c C02H25567   2.822   1.188  12.621  0.1607 -0.8491  1.1671
  1384G12c H01C25568   2.786   1.194  12.723 -6.1837 -1.7658 -0.7650
  1384G12c C02L25569   2.828   1.295  12.522  0.6092 -1.6821  0.5908
  1384G12c H01D25570   2.840   1.397  12.556 -1.6936 -0.5772 -1.7740
  1384G12c C01325571   2.552   1.722  12.636  0.4022 -0.8620 -1.9537
  1384G12c H00025572   2.637   1.659  12.656  3.1552  4.0396  3.2630
  1384G12c C01425573   2.484   1.797  12.732  0.5304  0.3872 -0.9672
  1384G12c C00F25574   2.489   1.776  12.868  0.2886  0.5269 -0.7981
  1384G12c C00H25575   2.318   1.935  12.904  0.7067  0.1826 -0.8405
  1384G12c C00I25576   2.225   2.008  12.979  1.5241  1.1034  0.1939
  1384G12c C00J25577   2.154   2.099  12.913 -1.3370  1.2924 -0.5041
  1384G12c C00Z25578   2.274   1.978  12.493 -0.1933  1.1608  1.0405
  1384G12c C00Y25579   2.259   1.997  12.355 -0.3795 -1.4655  0.6727
  1384G12c H00625580   2.330   1.966  12.280 -1.1152  4.7985 -2.9914
  1384G12c C00X25581   2.145   2.065  12.293  0.2303 -2.4316 -0.6357
  1384G12c O00325582   2.141   2.080  12.160 -0.6845  0.0336  0.4925
  1384G12c C01B25583   2.092   2.201  12.080 -0.1114  0.5984 -0.1978
  1384G12c H00925584   2.078   2.197  11.971 -0.4940  0.7762 -0.1595
  1384G12c H00825585   2.196   2.230  12.088  2.1387 -6.2528 -0.8966
  1384G12c H00725586   2.022   2.251  12.147  2.0584  2.6090  0.6147
  1384G12c C00W25587   2.045   2.139  12.399 -0.0491 -0.8641  1.0395
  1384G12c O00425588   1.923   2.175  12.340 -0.6679 -0.5596  0.3479
  1384G12c C01C25589   1.844   2.255  12.428  0.0544 -2.4264 -2.0603
  1384G12c H00A25590   1.760   2.314  12.394 -0.9021 -1.6413  1.4159
  1384G12c C00P25591   1.848   2.232  12.571 -1.0956 -0.5106 -0.6614
  1384G12c C00O25592   1.720   2.254  12.653 -0.6984 -2.9520  1.4354
  1384G12c C01D25593   1.583   2.261  12.623 -0.4919 -0.3548  0.5961
  1384G12c H00S25594   1.561   2.291  12.521  0.6407  4.5038  1.6379
  1384G12c C01E25595   1.481   2.241  12.706  0.4052  0.9749 -1.4217
  1384G12c O00825596   1.365   2.187  12.648 -0.0974  1.0861 -0.2621
  1384G12c C01V25597   1.379   2.066  12.560 -0.6596  1.7051 -0.6678
  1384G12c C01Z25598   1.489   1.969  12.621  0.0448  0.8904  0.5223
  1384G12c H00R25599   1.501   1.894  12.543 -0.9051  6.1727 -5.0987
  1384G12c H00Q25600   1.591   2.008  12.615  0.6224 -1.0008 -4.8511
  1384G12c O00925601   1.422   1.899  12.734 -0.3024 -0.3489 -0.0173
  1384G12c H00P25602   1.336   1.935  12.750  0.2006  3.2608 -4.4308
  1384G12c C01W25603   1.320   2.073  12.447 -0.5059 -1.1857  0.5567
  1384G12c H00O25604   1.236   2.135  12.421  1.1056 -0.2715 -2.6246
  1384G12c C01X25605   1.316   1.965  12.325  0.5101  0.4177  1.7267
  1384G12c H00N25606   1.380   1.877  12.325 -3.0589 -2.5988 -5.5882
  1384G12c H00M25607   1.214   1.928  12.328  0.7125 -0.6866 -2.4284
  1384G12c C01Y25608   1.343   2.026  12.179  1.1287 -2.0154  0.1029
  1384G12c C02D25609   1.305   1.941  12.085 -1.4638  0.0727  0.7351
  1384G12c H01925610   1.272   1.842  12.112 -4.0816 -0.1333 -2.8533
  1384G12c C02C25611   1.357   1.992  11.956 -1.8755  1.2398  0.6704
  1384G12c H01A25612   1.329   1.920  11.880  3.5596  3.3898 -3.7108
  1384G12c C02B25613   1.440   2.105  11.936 -0.5333  0.8782  1.5963
  1384G12c O00E25614   1.461   2.161  11.816 -0.1760  1.0372  0.1504
  1384G12c H01B25615   1.423   2.246  11.802 -1.3978  0.8104  1.8683
  1384G12c C02F25616   1.485   2.172  12.053  1.1383  0.3487 -0.5235
  1384G12c O00F25617   1.590   2.253  12.023 -1.2224 -0.3753 -1.4534
  1384G12c C02G25618   1.722   2.201  12.081 -0.4349 -1.0840 -1.2014
  1384G12c H01725619   1.758   2.276  12.152  0.2900 -0.3297 -2.3537
  1384G12c H01625620   1.735   2.102  12.126  1.2901 -1.1624 -1.8396
  1384G12c H01525621   1.806   2.204  12.013  1.6766  4.9169  1.3386
  1384G12c C02E25622   1.432   2.133  12.169  0.3449 -0.4422 -0.2377
  1384G12c H01825623   1.413   2.182  12.264 -0.0113 -6.8664  3.2963
  1384G12c C01F25624   1.486   2.270  12.841 -1.1150 -0.9325 -1.5600
  1384G12c C01G25625   1.398   2.220  12.936  0.3139 -0.7528 -0.3559
  1384G12c H00L25626   1.310   2.174  12.893  1.0843 -1.2391 -1.4544
  1384G12c C01H25627   1.446   2.197  13.074  0.6101 -0.0342  0.3437
  1384G12c H00B25628   1.400   2.122  13.136  0.1995 -1.5851 -1.7715
  1384G12c C01I25629   1.566   2.236  13.119 -0.1733 -0.7063 -0.3124
  1384G12c C01U25630   1.616   2.306  12.885  0.0059  0.4481 -1.3194
  1384G12c C00S25631   2.155   2.137  12.785  1.0447  0.5406 -1.0546
  1384G12c C00K25632   2.043   2.150  12.979  0.5624 -0.8359 -0.9365
  1384G12c C00N25633   1.726   2.261  12.801 -2.7792 -1.2772 -0.7574
  1384G12c C00025634   1.643   2.304  13.020 -0.5495  2.5949 -0.0244
  1384G12c C01J25635   1.657   2.180  13.217 -1.1929 -0.2234  0.7288
  1384G12c C01K25636   1.630   2.073  13.310 -0.4272  0.8263  0.0212
  1384G12c C01P25637   1.507   2.041  13.362  0.5922 -0.1923 -1.1487
  1384G12c C01Q25638   1.403   2.143  13.402 -0.9844 -0.1770  1.0922
  1384G12c H00G25639   1.322   2.172  13.337 -0.4928 -3.9540 -1.3610
  1384G12c C01R25640   1.440   2.196  13.517  0.0586 -0.0742  0.1004
  1384G12c H00F25641   1.504   2.126  13.568 -2.2423 -1.9391  0.5031
  1384G12c C01S25642   1.369   2.311  13.601  0.4250 -0.3934  2.2439
  1384G12c H00E25643   1.431   2.399  13.611  1.5331 -1.0357  1.0959
  1384G12c H00D25644   1.293   2.378  13.561 -0.7382 -3.4348 -0.9065
  1384G12c O00525645   1.317   2.242  13.697  0.0443  0.8171 -1.4468
  1384G12c H00C25646   1.263   2.174  13.659 -2.0288  2.5635 -1.7313
  1384G12c C01O25647   1.473   1.921  13.427 -0.8395  0.0321  0.0203
  1384G12c H00H25648   1.374   1.923  13.469 -4.3599 -0.2537 -7.5285
  1384G12c C01N25649   1.593   1.843  13.450  0.7494  0.2178 -1.0864
  1384G12c O00625650   1.590   1.758  13.544  0.5034  0.1425 -0.1551
  1384G12c C01T25651   1.555   1.619  13.495 -0.6918  2.6121  1.1985
  1384G12c H00K25652   1.565   1.617  13.386  0.7531 -0.9424  1.3184
  1384G12c H00J25653   1.615   1.535  13.530  0.2400  0.7306 -4.4085
  1384G12c H00I25654   1.453   1.583  13.503  1.6071 -5.8826 -2.1663
  1384G12c C01M25655   1.725   1.873  13.406 -0.0768  0.0174  1.3869
  1384G12c C02025656   2.021   2.101  13.112 -0.8377 -0.4219  0.0011
  1384G12c C02125657   2.117   2.029  13.190  0.7652 -0.6740  1.1947
  1384G12c C01L25658   1.750   1.996  13.344  1.4128 -0.5632  0.1534
  1384G12c O00725659   1.831   1.788  13.455 -0.2374 -0.6883 -0.0051
  1384G12c C02225660   2.108   1.949  13.298  0.6182 -0.9009  1.9676
  1384G12c C02325661   2.227   1.986  13.123 -1.4127 -1.5342 -0.4694
  1384G12c C00G25662   2.403   1.841  12.956 -0.1065 -0.4349  0.3245
  1384G12c C00E25663   2.585   1.696  12.926 -0.9115  1.4894 -0.2985
  1384G12c O00A25664   2.712   1.665  12.874  0.0434 -2.0468 -1.0068
  1384G12c C02425665   2.822   1.759  12.911  0.3091 -1.0577  1.7947
  1384G12c H00V25666   2.783   1.855  12.946  6.8580  0.2356  6.7481
  1384G12c H00U25667   2.886   1.781  12.825 -2.9021 -3.2500 -1.2503
  1384G12c H00T25668   2.879   1.685  12.968  0.8592  3.1662  7.2484
  1394G12c C00D25669   6.299  10.111   5.018 -2.4334 -0.3935  1.3869
  1394G12c O00B25670   6.413  10.083   5.065 -0.8059  1.0259 -0.1011
  1394G12c C02525671   6.519  10.147   5.042  0.8903  0.5076 -1.8961
  1394G12c C02625672   6.549  10.298   5.067  0.3925  2.1246  0.6461
  1394G12c H00Y25673   6.524  10.282   5.172  3.9455  2.1918  1.5731
  1394G12c H00X25674   6.453  10.347   5.051 -5.2608 -8.4401 -2.5491
  1394G12c O00C25675   6.680  10.339   5.089 -0.2715 -1.8013 -0.4803
  1394G12c H00W25676   6.731  10.322   5.011 -1.0725 -1.8651 -0.9961
  1394G12c C02725677   6.617  10.063   4.978  2.2915  0.0922  0.3955
  1394G12c O00D25678   6.582   9.942   4.930  0.5905 -0.5890 -0.9064
  1394G12c H00Z25679   6.487   9.946   4.936  0.7683  5.4508  1.9756
  1394G12c C02825680   6.727  10.145   4.904  1.1228 -1.0651 -0.6501
  1394G12c C02925681   6.870  10.115   4.911  1.5109 -0.5041 -1.3142
  1394G12c H01025682   6.899  10.035   4.978  3.5089 -1.1382 -2.8740
  1394G12c C02T25683   6.968  10.212   4.871  0.2330 -0.1294  0.8836
  1394G12c H01O25684   7.074  10.203   4.887  1.0390  5.6481 -0.0970
  1394G12c C02S25685   6.929  10.331   4.798  0.6060 -0.2884 -0.5679
  1394G12c O00J25686   6.972  10.455   4.787 -0.9099  0.0480 -0.2683
  1394G12c H01P25687   7.063  10.435   4.771 -0.1165  3.0724  0.1495
  1394G12c C02R25688   6.796  10.349   4.767 -0.1664 -1.9090  0.5404
  1394G12c O00I25689   6.743  10.440   4.672  0.5909  0.1357 -0.3585
  1394G12c C02Q25690   6.674  10.556   4.742  1.1010  0.3274  0.4497
  1394G12c H01N25691   6.603  10.511   4.812  1.6395  5.0858  4.2847
  1394G12c H01R25692   6.741  10.609   4.809  1.7784  3.5695 -2.6775
  1394G12c H01Q25693   6.607  10.628   4.694 -3.1564 -5.6149 -3.3559
  1394G12c C02A25694   6.696  10.253   4.807 -0.9451 -1.0677  0.2492
  1394G12c H01125695   6.590  10.271   4.800 -0.4884  0.1749 -6.9101
  1394G12c C00C25696   6.190  10.070   5.111  1.1415 -0.0782  0.5577
  1394G12c H01225697   6.211  10.049   5.214  2.4000  2.9447  0.9859
  1394G12c C00B25698   6.048  10.064   5.084  0.8915  0.0868  0.6726
  1394G12c C00A25699   5.939  10.021   5.163 -0.4094 -0.4194  0.5857
  1394G12c C00925700   5.913   9.938   5.284  1.1500 -0.3931 -0.6938
  1394G12c C00825701   5.992   9.882   5.381  1.3903 -2.2321 -1.0684
  1394G12c H01325702   6.097   9.862   5.362  3.1990  0.1434  4.8962
  1394G12c C00725703   5.921   9.809   5.482  1.5691 -0.1269 -0.9112
  1394G12c H01425704   5.972   9.756   5.561  4.1939 -2.7398 -4.2035
  1394G12c C00625705   5.793   9.771   5.470  0.0647  0.6830  0.5882
  1394G12c C00525706   5.725   9.848   5.377  1.0673  1.2838  0.3725
  1394G12c C00425707   5.592   9.816   5.346  2.1366 -0.3340 -2.0473
  1394G12c C00325708   5.536   9.874   5.214  1.1410  0.6090  0.3051
  1394G12c C00225709   5.399   9.821   5.194 -0.8146 -0.3368 -0.1231
  1394G12c C00125710   5.318   9.865   5.088 -0.3739  0.1561 -1.2804
  1394G12c C00M25711   5.354   9.904   4.947  0.1692 -1.0701  1.3829
  1394G12c C00L25712   5.441  10.007   4.905  0.9735 -0.9415 -1.6580
  1394G12c C00R25713   5.498  10.046   4.787 -0.0680 -0.2878  1.8233
  1394G12c C00Q25714   5.476  10.000   4.650  0.1192 -0.2600  0.7389
  1394G12c C00V25715   5.561  10.052   4.550  0.0588 -1.6161 -0.5992
  1394G12c C00U25716   5.687  10.089   4.589 -2.0508 -0.2108  2.1511
  1394G12c C00T25717   5.730  10.104   4.724  0.6282  1.7676  0.9214
  1394G12c C01625718   5.853  10.112   4.770  0.9580  0.2092  1.9071
  1394G12c C01525719   5.949  10.123   4.668  1.7730 -0.3923  1.8447
  1394G12c C01025720   5.922  10.120   4.528  0.4948  0.3806 -1.1933
  1394G12c C01125721   6.027  10.155   4.443  2.0010 -1.8398  0.4869
  1394G12c H00525722   6.004  10.192   4.345  6.9973 -0.2397 -0.2259
  1394G12c C01225723   6.159  10.169   4.483 -0.4257 -0.3597  0.5173
  1394G12c C01725724   6.271  10.186   4.374 -1.9680 -1.0053 -0.6990
  1394G12c O00225725   6.376  10.262   4.404 -1.2958 -0.4305 -0.0772
  1394G12c H00425726   6.439  10.263   4.474 -2.2686  2.1329  0.8189
  1394G12c C01825727   6.271  10.147   4.241 -0.2140  0.7538  0.2729
  1394G12c O00125728   6.164  10.073   4.195  0.2052 -0.6959 -0.0138
  1394G12c H00325729   6.170  10.123   4.115 -0.4062  0.4187  0.6201
  1394G12c C01925730   6.356  10.158   4.124 -0.9842 -0.9312  0.3372
  1394G12c H00225731   6.456  10.191   4.154  0.1589 -2.9946 -1.0804
  1394G12c H00125732   6.351  10.049   4.127  0.7835 -1.0126  1.8086
  1394G12c O00025733   6.278  10.205   3.999  1.5982 -1.2138  0.9355
  1394G12c C01A25734   6.357  10.190   3.884 -0.0665 -1.4292  0.2200
  1394G12c C02K25735   6.390  10.297   3.803  0.4249 -0.8687 -0.5196
  1394G12c O00G25736   6.335  10.421   3.837 -0.0159 -0.9169  0.0815
  1394G12c C02M25737   6.352  10.481   3.970  0.4490 -0.2949  0.3745
  1394G12c H01G25738   6.255  10.523   3.997  1.4704  2.8993 -0.6280
  1394G12c H01F25739   6.381  10.400   4.036 -5.5791 -4.9386 -2.2110
  1394G12c H01E25740   6.401  10.578   3.958  0.2777 -0.4642 -2.0588
  1394G12c C02J25741   6.465  10.287   3.687  1.6370  0.7111 -0.8561
  1394G12c H01H25742   6.455  10.372   3.620  0.2234  2.8924  2.0154
  1394G12c C02I25743   6.526  10.168   3.667  0.3159 -0.0820  0.5861
  1394G12c C02N25744   6.617  10.184   3.572  0.9580  1.9387  1.7481
  1394G12c H01M25745   6.717  10.224   3.579  2.6188 -2.2507  3.8665
  1394G12c C02O25746   6.633  10.097   3.474 -1.6617 -0.3121 -0.7613
  1394G12c H01L25747   6.721  10.117   3.415  1.8148  1.3249  4.5570
  1394G12c C02P25748   6.517  10.019   3.401 -0.7066  0.4768  0.5046
  1394G12c H01K25749   6.473   9.966   3.486 -0.5888  3.2881  2.3953
  1394G12c H01J25750   6.549   9.950   3.323  0.2224  1.7570 -0.2689
  1394G12c O00H25751   6.419  10.103   3.354  0.5567  0.2423 -1.1556
  1394G12c H01I25752   6.371  10.130   3.431 -1.5803 -4.1786 -0.7607
  1394G12c C02H25753   6.470  10.050   3.735 -0.0299  1.1627  0.8716
  1394G12c H01C25754   6.501   9.949   3.710 -4.4483  0.4629 -2.4126
  1394G12c C02L25755   6.393  10.065   3.845 -2.1555  0.4583 -0.1667
  1394G12c H01D25756   6.342   9.978   3.883 -2.8711  1.0877  0.3467
  1394G12c C01325757   6.193  10.152   4.619  0.8762 -1.2897 -0.9864
  1394G12c H00025758   6.297  10.158   4.646 -0.6283  2.0469  4.9788
  1394G12c C01425759   6.079  10.141   4.712 -3.3196  0.6992  1.4495
  1394G12c C00F25760   6.116  10.141   4.850 -1.1711  0.0746 -0.8458
  1394G12c C00H25761   5.883  10.091   4.903  0.5097  0.0942  1.1776
  1394G12c C00I25762   5.782  10.089   4.996 -1.2667 -1.1299  1.7886
  1394G12c C00J25763   5.648  10.105   4.952 -0.0169 -1.1193 -0.5209
  1394G12c C00Z25764   5.794  10.100   4.489  0.7215 -1.3818  0.7945
  1394G12c C00Y25765   5.762  10.066   4.361  1.7264  1.1126  1.0203
  1394G12c H00625766   5.848  10.069   4.295  1.9739 -6.0580  0.6739
  1394G12c C00X25767   5.638  10.030   4.326 -0.3162 -0.7770  1.5300
  1394G12c O00325768   5.614  10.052   4.182 -0.6276  0.8461  0.3862
  1394G12c C01B25769   5.477  10.062   4.139  0.1638  1.6754  0.0480
  1394G12c H00925770   5.421  10.116   4.215 -0.5611 -0.5106  1.0847
  1394G12c H00825771   5.504  10.110   4.045 -3.6832  1.0773 -1.4631
  1394G12c H00725772   5.440   9.962   4.118  2.0642  0.7900  0.7881
  1394G12c C00W25773   5.538  10.014   4.418  0.4961 -0.1189  0.8985
  1394G12c O00425774   5.416   9.958   4.393  0.1572  0.0895  0.1545
  1394G12c C01C25775   5.402   9.846   4.480 -0.5159 -0.0472 -0.9342
  1394G12c H00A25776   5.455   9.753   4.461 -0.4861 -0.7717  2.3103
  1394G12c C00P25777   5.403   9.886   4.619  1.3494 -0.6906  2.2710
  1394G12c C00O25778   5.327   9.782   4.707  0.6213 -1.1654 -0.5989
  1394G12c C01D25779   5.274   9.663   4.660 -0.0367 -0.4580 -1.0447
  1394G12c H00S25780   5.297   9.630   4.560  1.7342 -4.3001  0.5537
  1394G12c C01E25781   5.227   9.563   4.741  0.4538 -0.1937  0.5523
  1394G12c O00825782   5.201   9.453   4.670  0.5016 -0.3861 -0.0494
  1394G12c C01V25783   5.142   9.346   4.736 -0.1197  0.8098  0.0303
  1394G12c C01Z25784   5.179   9.207   4.701 -0.5422  0.0187 -0.0106
  1394G12c H00R25785   5.210   9.194   4.598  0.2647 -5.4968  0.7366
  1394G12c H00Q25786   5.268   9.211   4.765 -0.4395  4.4919 -0.2613
  1394G12c O00925787   5.069   9.119   4.699 -0.8260 -0.0150 -1.2104
  1394G12c H00P25788   5.005   9.147   4.636  0.2302  5.5332 -0.1298
  1394G12c C01W25789   5.054   9.353   4.837 -0.0109 -0.8296 -0.1780
  1394G12c H00O25790   5.010   9.450   4.857  0.5843 -0.0612 -2.5186
  1394G12c C01X25791   4.987   9.254   4.930 -0.6667 -0.5940 -0.6925
  1394G12c H00N25792   5.046   9.168   4.961 -5.2859 -3.2187  1.1905
  1394G12c H00M25793   4.967   9.310   5.021 -0.2203 -5.0828  2.3261
  1394G12c C01Y25794   4.851   9.221   4.879 -1.3375 -0.2960 -0.6982
  1394G12c C02D25795   4.767   9.319   4.812 -1.4242  0.7102  1.2908
  1394G12c H01925796   4.777   9.426   4.804 -1.0574  1.3474  7.8881
  1394G12c C02C25797   4.660   9.319   4.742  0.7145  0.4610  1.6239
  1394G12c H01A25798   4.594   9.402   4.725  1.4769  1.3533  2.9326
  1394G12c C02B25799   4.596   9.185   4.720  1.1779 -0.6057 -0.5540
  1394G12c O00E25800   4.487   9.157   4.649 -0.1583  0.5212 -0.3556
  1394G12c H01B25801   4.491   9.069   4.615 -2.0166 -0.4335  1.7399
  1394G12c C02F25802   4.667   9.072   4.779  0.3404  1.5810  0.4060
  1394G12c O00F25803   4.605   8.942   4.768  1.7792 -0.9497 -0.3555
  1394G12c C02G25804   4.672   8.825   4.818  0.0002 -1.3163 -0.9436
  1394G12c H01725805   4.716   8.844   4.916 -2.7584  0.8661 -0.0378
  1394G12c H01625806   4.747   8.811   4.740 -0.7045 -0.3341 -1.8060
  1394G12c H01525807   4.611   8.735   4.828  2.7839 -3.8835 -5.4368
  1394G12c C02E25808   4.783   9.094   4.871  0.9163 -0.1996  0.2679
  1394G12c H01825809   4.849   9.025   4.921  5.5951  2.8344 -1.4642
  1394G12c C01F25810   5.225   9.582   4.893  1.5503  0.0650  0.9594
  1394G12c C01G25811   5.223   9.492   5.001  1.1908 -1.3423 -0.1798
  1394G12c H00L25812   5.214   9.389   4.967 -0.6969 -1.7427  1.4162
  1394G12c C01H25813   5.212   9.526   5.136 -0.4079 -0.5167 -0.3433
  1394G12c H00B25814   5.219   9.440   5.202  1.0227  1.2372  1.8600
  1394G12c C01I25815   5.241   9.654   5.175 -0.8143  0.0878  0.0541
  1394G12c C01U25816   5.214   9.718   4.927 -1.1727 -2.2272 -0.0904
  1394G12c C00S25817   5.623  10.114   4.817  1.5107  1.4566  0.5581
  1394G12c C00K25818   5.546  10.037   5.013  0.9415 -0.8956  1.1924
  1394G12c C00N25819   5.303   9.810   4.854 -1.7151 -0.5270 -0.3532
  1394G12c C00025820   5.224   9.751   5.069  1.2840 -0.3143 -0.8956
  1394G12c C01J25821   5.343   9.706   5.257 -0.2974 -1.1322 -0.0022
  1394G12c C01K25822   5.402   9.662   5.384  1.5352 -1.2672 -0.3886
  1394G12c C01P25823   5.368   9.554   5.469  0.7291  1.4972 -0.4443
  1394G12c C01Q25824   5.263   9.457   5.452  0.4959 -0.6379 -0.9677
  1394G12c H00G25825   5.294   9.354   5.444 -2.9056 -1.9490  1.4170
  1394G12c C01R25826   5.144   9.489   5.496  0.6496  1.7007 -1.0884
  1394G12c H00F25827   5.081   9.577   5.496 -8.9860 -4.3586 -5.3158
  1394G12c C01S25828   5.036   9.399   5.551 -0.4372  0.5171 -0.0600
  1394G12c H00E25829   5.079   9.337   5.630  6.9188  6.2230  0.8935
  1394G12c H00D25830   4.966   9.462   5.605  0.9021  2.7859 -0.9080
  1394G12c O00525831   4.982   9.313   5.448  0.0073 -0.6396 -1.1258
  1394G12c H00C25832   4.894   9.282   5.465  0.8508 -2.3505  0.1671
  1394G12c C01O25833   5.414   9.536   5.604  0.9188  0.8159  0.4908
  1394G12c H00H25834   5.396   9.472   5.690  1.0130 -4.5890 -3.2491
  1394G12c C01N25835   5.544   9.583   5.628  0.3031 -0.4061  0.5889
  1394G12c O00625836   5.616   9.556   5.737 -0.5403  0.7338  0.6707
  1394G12c C01T25837   5.664   9.427   5.775  0.4747 -0.4571 -0.0712
  1394G12c H00K25838   5.593   9.372   5.837 -6.4105  5.9409 -1.5789
  1394G12c H00J25839   5.757   9.440   5.831  1.8245  0.1695 -2.4038
  1394G12c H00I25840   5.657   9.370   5.683  4.8066 -2.2207  0.5887
  1394G12c C01M25841   5.600   9.666   5.523  0.8738 -0.7953 -0.0056
  1394G12c C02025842   5.582   9.982   5.139 -0.7670 -1.0791  1.1225
  1394G12c C02125843   5.708  10.010   5.200  1.1663  0.0783 -1.1952
  1394G12c C01L25844   5.523   9.722   5.421  0.3174 -1.7256  0.5273
  1394G12c O00725845   5.716   9.712   5.566  0.4122 -1.2034 -1.4767
  1394G12c C02225846   5.777   9.955   5.309 -1.7828 -1.8141  2.4393
  1394G12c C02325847   5.813  10.064   5.130  0.5505  0.6313 -1.7821
  1394G12c C00G25848   6.022  10.101   4.946  1.7078  0.2060  0.4242
  1394G12c C00E25849   6.264  10.155   4.892  0.6322  1.7316 -1.2870
  1394G12c O00A25850   6.343  10.256   4.842 -0.2810  0.5142  0.2243
  1394G12c C02425851   6.275  10.367   4.835  1.3650  1.0900 -1.4381
  1394G12c H00V25852   6.196  10.384   4.908 -0.8347 -1.3121 -3.1527
  1394G12c H00U25853   6.207  10.362   4.750 -4.0864 -6.8726  2.6693
  1394G12c H00T25854   6.354  10.440   4.817  2.9882  0.5543  2.7749
  1404G12c C00D25855   6.285   0.306  10.160  0.4487  1.0794  1.7180
  1404G12c O00B25856   6.379   0.403  10.180 -0.2284  1.0211  0.1715
  1404G12c C02525857   6.386   0.449  10.308 -0.2211  0.6105  0.9944
  1404G12c C02625858   6.269   0.554  10.335  1.3816 -0.0531 -0.7498
  1404G12c H00Y25859   6.169   0.512  10.351  2.5004 -2.4747  0.0873
  1404G12c H00X25860   6.286   0.620  10.250  1.1956  1.7830  0.6079
  1404G12c O00C25861   6.310   0.650  10.449 -0.1717 -1.5529 -0.4107
  1404G12c H00W25862   6.368   0.599  10.503 -0.9163  0.0515  1.9485
  1404G12c C02725863   6.496   0.416  10.394 -0.3508 -0.4014 -1.2131
  1404G12c O00D25864   6.578   0.307  10.369  0.4410 -0.7367 -0.2514
  1404G12c H00Z25865   6.655   0.341  10.325 -0.8248  4.4444  1.1725
  1404G12c C02825866   6.570   0.507  10.465 -0.0546 -0.9537 -0.2640
  1404G12c C02925867   6.613   0.498  10.602  1.5838  0.4404  0.6904
  1404G12c H01025868   6.576   0.424  10.671 -1.1607 -1.3135 -2.4783
  1404G12c C02T25869   6.699   0.606  10.651  0.4986 -1.1301  0.6732
  1404G12c H01O25870   6.671   0.614  10.755 -1.5719 -3.6623  0.3522
  1404G12c C02S25871   6.739   0.716  10.576 -1.1070 -2.2291 -0.3756
  1404G12c O00J25872   6.791   0.821  10.654 -0.2967 -0.2823  0.1070
  1404G12c H01P25873   6.843   0.881  10.603  3.4512 -1.3628  2.4783
  1404G12c C02R25874   6.710   0.709  10.441 -0.9338 -0.3054  0.3743
  1404G12c O00I25875   6.739   0.837  10.389  1.3502  1.1826 -1.0768
  1404G12c C02Q25876   6.733   0.875  10.250 -0.3850  0.4643  1.3928
  1404G12c H01N25877   6.802   0.820  10.186 -2.2521  0.9143 -1.0782
  1404G12c H01R25878   6.759   0.981  10.251-10.0406  3.4625 -3.6090
  1404G12c H01Q25879   6.656   0.835  10.184 -1.4877  6.4934 -1.2923
  1404G12c C02A25880   6.618   0.618  10.394  0.6236  0.6726  0.0003
  1404G12c H01125881   6.582   0.609  10.293  2.2873  2.2213 -0.7759
  1404G12c C00C25882   6.225   0.214  10.250  0.2880  0.8219 -0.6713
  1404G12c H01225883   6.288   0.195  10.336  6.8355 -4.7353 -6.0625
  1404G12c C00B25884   6.110   0.123  10.226 -0.6889 -2.2872 -0.8277
  1404G12c C00A25885   6.017   0.066  10.316  0.0619  0.1404  0.6006
  1404G12c C00925886   6.026   0.043  10.462 -1.6536  0.4450  0.5016
  1404G12c C00825887   6.120   0.079  10.564 -0.3122  0.7341  0.2614
  1404G12c H01325888   6.168   0.175  10.552  0.8137  0.3490  1.5390
  1404G12c C00725889   6.129  -0.015  10.679  0.7961  0.9793  0.1013
  1404G12c H01425890   6.207   0.020  10.745  2.2799  6.0380 -4.0331
  1404G12c C00625891   6.076  -0.140  10.674 -0.4993  2.4977 -0.9454
  1404G12c C00525892   5.989  -0.165  10.565 -0.0782  1.1996 -2.2218
  1404G12c C00425893   5.914  -0.286  10.560 -0.2827  1.5494  0.4531
  1404G12c C00325894   5.855  -0.323  10.439 -0.8337  1.0404  0.2562
  1404G12c C00225895   5.814  -0.463  10.430 -1.6001 -3.0772  0.5627
  1404G12c C00125896   5.729  -0.533  10.331  1.6281  0.7231 -0.3295
  1404G12c C00M25897   5.735  -0.519  10.186  1.5193 -1.5252 -1.2945
  1404G12c C00L25898   5.800  -0.413  10.117  1.1343  0.0390 -0.7342
  1404G12c C00R25899   5.841  -0.388   9.984 -1.7106 -0.2102  0.0063
  1404G12c C00Q25900   5.876  -0.479   9.883 -0.0168 -0.4218 -1.0288
  1404G12c C00V25901   5.943  -0.410   9.774  1.4146  0.6164 -0.6926
  1404G12c C00U25902   6.006  -0.287   9.785 -0.1340 -0.2682 -0.3811
  1404G12c C00T25903   5.970  -0.204   9.886  1.3324 -2.1717  0.4364
  1404G12c C01625904   6.028  -0.088   9.936 -0.3049  0.4472 -0.4304
  1404G12c C01525905   6.117  -0.031   9.836 -1.1674  0.7498  0.2627
  1404G12c C01025906   6.149  -0.106   9.715  0.0565  0.9301 -1.1998
  1404G12c C01125907   6.230  -0.048   9.615 -0.2627  0.2784 -0.8036
  1404G12c H00525908   6.231  -0.067   9.509  2.1345 -0.7542 -0.6304
  1404G12c C01225909   6.284   0.084   9.646 -0.3785  0.3268  1.0709
  1404G12c C01725910   6.384   0.152   9.535 -0.1405  0.4460 -2.4944
  1404G12c O00225911   6.329   0.257   9.477  1.8456 -0.2121 -0.4160
  1404G12c H00425912   6.344   0.346   9.505  0.4223  1.3997 -4.3418
  1404G12c C01825913   6.509   0.119   9.549 -0.4071  0.8610  0.2878
  1404G12c O00125914   6.565   0.024   9.644 -0.7616 -0.3241  1.3998
  1404G12c H00325915   6.654   0.040   9.669 -1.5760 -0.9159  4.9252
  1404G12c C01925916   6.609   0.202   9.483 -1.0768  1.1897 -0.4765
  1404G12c H00225917   6.639   0.163   9.386  2.5773 -5.0136  2.8190
  1404G12c H00125918   6.585   0.297   9.435  1.6033  1.6734 -0.9230
  1404G12c O00025919   6.732   0.206   9.546 -0.0202  0.9848 -0.5501
  1404G12c C01A25920   6.828   0.107   9.550 -0.5381  0.6431 -0.8424
  1404G12c C02K25921   6.906   0.071   9.667  0.9458  0.6460 -1.1319
  1404G12c O00G25922   6.871   0.127   9.794  0.9244  0.5272  1.1636
  1404G12c C02M25923   6.817   0.032   9.895 -1.1847  0.1828  1.6407
  1404G12c H01G25924   6.828  -0.068   9.853  0.7988 -0.1427  2.8965
  1404G12c H01F25925   6.712   0.046   9.922 -0.5641  4.8566  2.0489
  1404G12c H01E25926   6.894   0.037   9.971  3.5669  2.2112 -2.9892
  1404G12c C02J25927   7.012  -0.019   9.658  0.1460  0.2618 -0.5504
  1404G12c H01H25928   7.059  -0.071   9.741 -0.2860 -1.5493 -1.4041
  1404G12c C02I25929   7.048  -0.064   9.541 -1.4159  1.8449 -1.8544
  1404G12c C02N25930   7.175  -0.139   9.533 -0.0360 -0.1473 -3.3552
  1404G12c H01M25931   7.255  -0.099   9.594 -4.9136  0.9845  2.8177
  1404G12c C02O25932   7.212  -0.225   9.450  0.0189  0.7432 -0.5245
  1404G12c H01L25933   7.138  -0.266   9.383 -2.1424  0.6644  1.8122
  1404G12c C02P25934   7.350  -0.261   9.415  0.4134  0.2438 -0.3156
  1404G12c H01K25935   7.413  -0.172   9.417 -1.4053  1.7692 -4.3962
  1404G12c H01J25936   7.367  -0.337   9.491  4.5107  6.8291  5.8866
  1404G12c O00H25937   7.368  -0.267   9.267 -1.3988  0.4290  0.9006
  1404G12c H01I25938   7.329  -0.185   9.241 -0.3001  0.2398 -1.4940
  1404G12c C02H25939   6.965  -0.060   9.428 -0.4258  0.1746 -0.1803
  1404G12c H01C25940   6.958  -0.114   9.334  6.4154 -1.1431 -0.2041
  1404G12c C02L25941   6.865   0.037   9.432  1.0222  0.7628 -0.9634
  1404G12c H01D25942   6.792   0.048   9.354  1.5256  1.2591 -1.3735
  1404G12c C01325943   6.270   0.138   9.768  1.2591 -0.4139 -1.5393
  1404G12c H00025944   6.340   0.211   9.807  0.8677 -2.5639  3.6683
  1404G12c C01425945   6.188   0.091   9.870 -1.6969 -0.7025  1.4344
  1404G12c C00F25946   6.171   0.159  10.001  2.1753 -0.1918 -0.5876
  1404G12c C00H25947   6.007  -0.027  10.060 -0.8928 -0.1571  0.0842
  1404G12c C00I25948   5.902  -0.072  10.134 -1.9416 -0.3055 -1.6203
  1404G12c C00J25949   5.829  -0.186  10.092 -0.6144 -0.1770 -1.0748
  1404G12c C00Z25950   6.099  -0.226   9.694  0.1864  1.3102 -0.3975
  1404G12c C00Y25951   6.124  -0.324   9.571 -0.3324  0.7348  0.4085
  1404G12c H00625952   6.196  -0.280   9.504 -0.7640  2.5974  1.1317
  1404G12c C00X25953   6.049  -0.440   9.546  1.0375 -2.2884  0.8305
  1404G12c O00325954   6.040  -0.507   9.425  0.3096 -0.7108 -0.2629
  1404G12c C01B25955   6.123  -0.492   9.325 -0.1104  0.2108  2.2170
  1404G12c H00925956   6.219  -0.535   9.352 -0.5541 -0.0343  3.4079
  1404G12c H00825957   6.136  -0.393   9.281  3.4228 -2.1073 -2.4670
  1404G12c H00725958   6.059  -0.491   9.237  1.0276  2.3716  1.3602
  1404G12c C00W25959   5.966  -0.491   9.655 -1.4218  0.2957 -0.8988
  1404G12c O00425960   5.875  -0.588   9.648 -0.2275 -1.4326  0.2650
  1404G12c C01C25961   5.874  -0.683   9.753  1.9595 -1.0446 -0.2865
  1404G12c H00A25962   5.878  -0.784   9.714 -1.2394 -2.1451  2.0401
  1404G12c C00P25963   5.833  -0.621   9.876  0.0646  0.2385 -0.0959
  1404G12c C00O25964   5.791  -0.697   9.992 -0.4718 -0.3014  1.1754
  1404G12c C01D25965   5.805  -0.841   9.988 -0.1558 -0.2539 -0.0041
  1404G12c H00S25966   5.820  -0.907   9.904  0.1205 -1.1282  0.7259
  1404G12c C01E25967   5.849  -0.917  10.095 -0.5267  0.0681 -0.9612
  1404G12c O00825968   5.921  -1.039  10.100  0.8404 -0.4469 -0.7845
  1404G12c C01V25969   5.914  -1.151  10.021  1.0120 -0.9149 -0.4365
  1404G12c C01Z25970   6.054  -1.206  10.008 -0.1413 -0.4625  2.0486
  1404G12c H00R25971   6.039  -1.294  10.070 -2.6060  0.3800  2.7003
  1404G12c H00Q25972   6.093  -1.232   9.909  2.0359 -7.1763  4.3667
  1404G12c O00925973   6.155  -1.114  10.053 -0.3312  1.6904 -1.8871
  1404G12c H00P25974   6.196  -1.163   9.984 -3.9858 -4.8624  0.1731
  1404G12c C01W25975   5.801  -1.200   9.981  0.4269 -0.9819  0.1170
  1404G12c H00O25976   5.709  -1.146   9.998 -0.2891 -3.4841  5.0293
  1404G12c C01X25977   5.780  -1.349   9.938  1.6740  0.8225 -0.8422
  1404G12c H00N25978   5.887  -1.370   9.937  1.5942  0.0332  2.1910
  1404G12c H00M25979   5.732  -1.422  10.003  0.4208  3.8781  1.7457
  1404G12c C01Y25980   5.771  -1.340   9.780 -0.2598  2.0471 -0.1943
  1404G12c C02D25981   5.658  -1.303   9.693 -0.8272 -0.9106  1.1247
  1404G12c H01925982   5.588  -1.224   9.716 -0.2915  1.0021 -3.3962
  1404G12c C02C25983   5.670  -1.351   9.557 -0.4361  1.2932 -0.9415
  1404G12c H01A25984   5.588  -1.334   9.487  2.7236  4.2829 -4.1315
  1404G12c C02B25985   5.794  -1.394   9.494  0.5582 -0.6209  0.5739
  1404G12c O00E25986   5.802  -1.451   9.364 -0.4686 -0.4587 -0.9571
  1404G12c H01B25987   5.730  -1.444   9.303  2.4128  0.1309 -4.4933
  1404G12c C02F25988   5.907  -1.437   9.586  0.0168 -0.8605  1.6748
  1404G12c O00F25989   6.006  -1.479   9.513 -0.6041 -0.3312 -0.2547
  1404G12c C02G25990   6.036  -1.609   9.522  0.5358 -0.2987 -1.2645
  1404G12c H01725991   6.015  -1.669   9.610  2.2787 -7.0219 -5.0449
  1404G12c H01625992   5.983  -1.674   9.452 -4.6689 -2.1778  3.9706
  1404G12c H01525993   6.139  -1.641   9.514  0.0198 -3.3143  2.8367
  1404G12c C02E25994   5.877  -1.431   9.724  0.1307 -1.8378  1.5566
  1404G12c H01825995   5.951  -1.487   9.780  0.1524 -0.6062  2.7761
  1404G12c C01F25996   5.846  -0.849  10.226  2.8307 -0.6150 -0.1306
  1404G12c C01G25997   5.898  -0.900  10.354  0.3492 -0.2018 -0.3496
  1404G12c H00L25998   5.930  -1.000  10.378 -0.4873 -0.0665  1.4057
  1404G12c C01H25999   5.904  -0.810  10.470 -0.2810 -0.6424  1.0748
  1404G12c H00B26000   5.981  -0.841  10.538  4.6192  0.6135 -3.5399
  1404G12c C01I26001   5.842  -0.677  10.473 -1.0365  0.2482 -1.5728
  1404G12c C01U26002   5.768  -0.732  10.245  0.7499  0.2991 -1.0910
  1404G12c C00S26003   5.867  -0.251   9.967  0.0779  2.0440 -0.1842
  1404G12c C00K26004   5.824  -0.290  10.194 -1.5189  0.4671  1.5682
  1404G12c C00N26005   5.767  -0.657  10.133 -0.0845 -2.1997  0.8833
  1404G12c C00026006   5.741  -0.678  10.361 -0.2940 -1.0753  0.3022
  1404G12c C01J26007   5.850  -0.552  10.532 -0.9140 -0.3946 -1.3415
  1404G12c C01K26008   5.880  -0.504  10.664  1.0284  1.0613 -1.5679
  1404G12c C01P26009   5.870  -0.571  10.784 -0.1607  0.3720  0.0318
  1404G12c C01Q26010   5.827  -0.710  10.800 -0.3932  1.1164  1.9645
  1404G12c H00G26011   5.885  -0.777  10.738 -1.1598  1.2004  1.1598
  1404G12c C01R26012   5.710  -0.751  10.855 -1.7401 -1.5092 -1.0118
  1404G12c H00F26013   5.665  -0.662  10.896 -0.9014  0.3661 -4.0191
  1404G12c C01S26014   5.656  -0.884  10.903  1.9325  0.1923 -0.6655
  1404G12c H00E26015   5.732  -0.959  10.879  0.4228 -1.1183 -1.4772
  1404G12c H00D26016   5.647  -0.871  11.011  6.5491  1.8440 -0.3920
  1404G12c O00526017   5.527  -0.899  10.837  1.5707  0.0114  0.6168
  1404G12c H00C26018   5.533  -0.858  10.752  2.4752 -3.0160 -0.8746
  1404G12c C01O26019   5.966  -0.538  10.890 -1.4322  0.2874 -2.1397
  1404G12c H00H26020   5.963  -0.582  10.989  0.4044  5.5895  0.4445
  1404G12c C01N26021   6.027  -0.425  10.875  0.3436 -0.7624  1.7117
  1404G12c O00626022   6.093  -0.361  10.977 -1.0641 -0.3737  0.3779
  1404G12c C01T26023   6.027  -0.358  11.096 -2.0637 -0.6630  1.6615
  1404G12c H00K26024   6.010  -0.463  11.122  0.4857 -2.3064 -2.8173
  1404G12c H00J26025   5.941  -0.305  11.053  1.9865  2.8478 -2.6392
  1404G12c H00I26026   6.072  -0.293  11.171 -0.1816  2.2247 -1.8565
  1404G12c C01M26027   6.010  -0.336  10.769 -1.0832  0.2229  1.6571
  1404G12c C02026028   5.849  -0.229  10.328 -1.1127 -0.8303  0.1803
  1404G12c C02126029   5.878  -0.098  10.357  1.8225  0.0102 -1.0375
  1404G12c C01L26030   5.945  -0.380  10.657  2.2375 -0.5104  2.4644
  1404G12c O00726031   6.101  -0.229  10.770 -0.9936  0.8388  2.4186
  1404G12c C02226032   5.955  -0.075  10.469  0.5500 -1.0047  0.3454
  1404G12c C02326033   5.905  -0.005  10.262  0.7978 -0.5985  0.7661
  1404G12c C00G26034   6.086   0.090  10.093  0.5426 -0.1474  0.4638
  1404G12c C00E26035   6.246   0.271  10.026 -0.9321 -0.8021 -1.8317
  1404G12c O00A26036   6.257   0.382   9.952 -0.3251 -0.6125  0.0577
  1404G12c C02426037   6.147   0.417   9.884 -0.8262  0.3744  0.1640
  1404G12c H00V26038   6.122   0.514   9.842  3.3188 -0.3376 -4.3895
  1404G12c H00U26039   6.137   0.339   9.809  0.6273 -5.9544  5.9841
  1404G12c H00T26040   6.085   0.414   9.974 -0.8987 -1.8572  0.0769
  1414G12c C00D26041   3.804   9.031   1.953 -0.1127  1.2752  0.1079
  1414G12c O00B26042   3.909   8.937   1.930 -0.1371 -0.4378  0.1069
  1414G12c C02526043   4.040   8.941   1.990  0.6627 -0.1817 -1.1047
  1414G12c C02626044   4.103   9.077   1.998 -0.5022 -1.1170 -1.3320
  1414G12c H00Y26045   4.052   9.162   1.953  1.5827  1.3688  0.8625
  1414G12c H00X26046   4.208   9.071   1.970  0.6566  1.9390  1.9582
  1414G12c O00C26047   4.086   9.098   2.146  0.7356 -0.4193  1.1357
  1414G12c H00W26048   4.083   9.189   2.168 -7.3746 -1.2362  5.1068
  1414G12c C02726049   4.086   8.825   2.042  0.9116  0.3961 -0.8281
  1414G12c O00D26050   4.203   8.823   2.104  1.4119 -0.7356 -0.1903
  1414G12c H00Z26051   4.175   8.868   2.182  0.5182 -3.8241  1.3749
  1414G12c C02826052   4.025   8.697   2.012 -0.2481 -0.8087 -0.5863
  1414G12c C02926053   3.970   8.620   2.126 -0.6142  1.7607 -0.0339
  1414G12c H01026054   4.005   8.657   2.221 -0.2917 -0.5183  0.7599
  1414G12c C02T26055   3.923   8.495   2.082  0.0358 -0.0154  0.1812
  1414G12c H01O26056   3.909   8.438   2.173 -2.4033  1.2212  0.6260
  1414G12c C02S26057   3.894   8.461   1.949 -0.4211 -0.2474  0.5894
  1414G12c O00J26058   3.841   8.336   1.930  0.5972 -0.6002 -0.6536
  1414G12c H01P26059   3.869   8.347   1.841  0.3617 -3.1948 -1.0890
  1414G12c C02R26060   3.944   8.543   1.847  0.0807  0.4426 -0.6438
  1414G12c O00I26061   3.913   8.517   1.717  0.6981 -0.4922  0.2356
  1414G12c C02Q26062   4.023   8.511   1.630 -0.0453  1.0026  0.7010
  1414G12c H01N26063   4.090   8.456   1.696  7.1895  1.6445 -5.4141
  1414G12c H01R26064   4.073   8.596   1.584 -1.7361  0.7681 -1.6641
  1414G12c H01Q26065   4.028   8.423   1.565  6.9822  0.4250  1.6535
  1414G12c C02A26066   4.003   8.659   1.881 -0.2785 -0.0151 -1.2438
  1414G12c H01126067   4.033   8.719   1.797 -1.1382 -0.4038 -1.8344
  1414G12c C00C26068   3.775   9.068   2.092 -1.7004  0.9668 -0.2861
  1414G12c H01226069   3.856   9.036   2.155 -1.6359 -1.8484 -1.6942
  1414G12c C00B26070   3.649   9.118   2.131  0.6739  1.5371 -0.8701
  1414G12c C00A26071   3.617   9.120   2.270  1.3517 -0.4728  0.9715
  1414G12c C00926072   3.644   9.039   2.381  0.2220 -0.0852  0.8949
  1414G12c C00826073   3.726   8.929   2.399  0.2307  0.2686 -0.0592
  1414G12c H01326074   3.828   8.920   2.365 -1.6749  0.9387 -6.6732
  1414G12c C00726075   3.695   8.852   2.514  0.2358  0.4502 -0.5956
  1414G12c H01426076   3.773   8.800   2.567 -1.1571 -1.2558 -0.1673
  1414G12c C00626077   3.564   8.859   2.586  0.6632  0.6752  1.1324
  1414G12c C00526078   3.477   8.966   2.546 -0.5171  1.5056  0.4973
  1414G12c C00426079   3.350   8.977   2.605  0.4688 -1.8743 -0.4161
  1414G12c C00326080   3.261   9.072   2.549 -0.4718  0.8362  0.7316
  1414G12c C00226081   3.121   9.066   2.592  1.9580 -1.8873 -0.2790
  1414G12c C00126082   2.993   9.144   2.558  1.7457  0.1039 -0.0906
  1414G12c C00M26083   2.966   9.175   2.404 -0.1634 -0.6429 -0.5167
  1414G12c C00L26084   3.060   9.194   2.309 -0.8178 -0.3845 -1.8389
  1414G12c C00R26085   3.048   9.230   2.172 -0.8223 -0.3658  0.6432
  1414G12c C00Q26086   2.942   9.185   2.085 -0.6185 -0.4144  1.7144
  1414G12c C00V26087   2.967   9.208   1.948 -0.6009  1.5040  0.6320
  1414G12c C00U26088   3.103   9.208   1.895 -0.1141  0.7380 -0.8250
  1414G12c C00T26089   3.211   9.237   1.979 -2.6243  0.2119 -0.3699
  1414G12c C01626090   3.338   9.209   1.959  0.1937 -1.0783  0.9771
  1414G12c C01526091   3.381   9.202   1.828  0.3984  1.1241  0.4930
  1414G12c C01026092   3.273   9.204   1.740  0.0709  0.0458 -0.2410
  1414G12c C01126093   3.325   9.214   1.608  0.0999  0.8553  1.2917
  1414G12c H00526094   3.250   9.263   1.548  3.1421  1.5729 -2.0855
  1414G12c C01226095   3.461   9.184   1.543 -0.5811  0.0320 -0.9684
  1414G12c C01726096   3.479   9.215   1.405  0.7451  0.2131 -1.4799
  1414G12c O00226097   3.422   9.340   1.369 -1.2031 -2.1942  0.4143
  1414G12c H00426098   3.467   9.356   1.287  0.8227 -3.3580  1.2709
  1414G12c C01826099   3.562   9.165   1.309 -0.6839  1.8376  0.6369
  1414G12c O00126100   3.558   9.236   1.197  1.4810 -0.2635 -1.1469
  1414G12c H00326101   3.627   9.239   1.133  0.5682  2.3226 -2.0477
  1414G12c C01926102   3.665   9.046   1.348  1.0368  0.4544  0.5244
  1414G12c H00226103   3.654   9.040   1.456  2.2883  7.2750  1.2722
  1414G12c H00126104   3.667   8.942   1.316  5.0704  1.5336 -3.2275
  1414G12c O00026105   3.811   9.083   1.362 -0.3636 -1.1147 -0.1900
  1414G12c C01A26106   3.897   9.083   1.253 -0.0032  0.0195  0.6129
  1414G12c C02K26107   3.955   8.962   1.211 -0.1422  1.7146 -1.3445
  1414G12c O00G26108   3.949   8.861   1.309  0.2958 -0.3625 -0.6714
  1414G12c C02M26109   4.076   8.814   1.361  0.7825 -1.1286  1.5518
  1414G12c H01G26110   4.141   8.775   1.283 -0.6572  3.3072 -2.0972
  1414G12c H01F26111   4.050   8.735   1.432  1.2436  0.1189  3.1374
  1414G12c H01E26112   4.151   8.853   1.429  4.9033 -0.7420 -2.9428
  1414G12c C02J26113   4.035   8.944   1.095  1.0219  0.8298 -0.4474
  1414G12c H01H26114   4.048   8.838   1.077 -7.3946 -1.7910  5.5819
  1414G12c C02I26115   4.053   9.063   1.007 -0.5080 -1.2597  1.1254
  1414G12c C02N26116   4.102   9.040   0.872 -2.3188  1.0200 -1.4478
  1414G12c H01M26117   4.199   9.079   0.843 -1.8028  4.9949  4.6949
  1414G12c C02O26118   4.013   9.026   0.763  0.8453  2.1206  0.3261
  1414G12c H01L26119   4.065   9.039   0.670  0.6842 -3.4890 -0.7361
  1414G12c C02P26120   3.866   9.003   0.775 -1.4630  0.1349 -2.6802
  1414G12c H01K26121   3.820   9.100   0.762  0.0249  0.5490 -5.2421
  1414G12c H01J26122   3.847   8.939   0.689 -2.8592 -2.3043 -0.6110
  1414G12c O00H26123   3.834   8.929   0.889 -0.1041 -0.4178 -0.0404
  1414G12c H01I26124   3.801   8.978   0.963 -1.1990 -6.3336  3.7118
  1414G12c C02H26125   3.983   9.184   1.049  0.1926  0.7613 -0.3865
  1414G12c H01C26126   3.991   9.262   0.975  4.7059 -2.9602 -4.1140
  1414G12c C02L26127   3.908   9.195   1.166  0.0992  0.0451 -0.4720
  1414G12c H01D26128   3.830   9.269   1.178 -1.9945 -2.4327  1.8403
  1414G12c C01326129   3.555   9.180   1.650  0.0293  0.5562  0.4562
  1414G12c H00026130   3.654   9.167   1.607  0.5545  1.6321  1.2848
  1414G12c C01426131   3.508   9.164   1.788  0.1186  2.5967 -1.4851
  1414G12c C00F26132   3.594   9.122   1.893  0.3354  0.6555 -0.8447
  1414G12c C00H26133   3.432   9.220   2.058 -1.9919  1.5698  0.6318
  1414G12c C00I26134   3.391   9.215   2.197  1.0418 -1.4428  0.5507
  1414G12c C00J26135   3.263   9.230   2.217  0.4931  0.7281 -0.8541
  1414G12c C00Z26136   3.131   9.191   1.769 -1.0657 -1.2596  1.1828
  1414G12c C00Y26137   3.030   9.161   1.669 -0.9969  1.0543 -0.8733
  1414G12c H00626138   3.091   9.135   1.584 -1.7603  4.4008 -2.5406
  1414G12c C00X26139   2.886   9.140   1.718  0.5978  0.4751 -0.4036
  1414G12c O00326140   2.794   9.114   1.630 -0.1873 -2.0363  0.4681
  1414G12c C01B26141   2.672   9.189   1.592 -0.6657  0.3180  0.2795
  1414G12c H00926142   2.648   9.203   1.487 -0.1244 -2.0368 -0.1730
  1414G12c H00826143   2.617   9.263   1.651  2.8345  2.4926  0.9244
  1414G12c H00726144   2.610   9.106   1.627 -3.3893  1.4280 -1.7170
  1414G12c C00W26145   2.871   9.150   1.861 -0.1214 -1.4096  1.0394
  1414G12c O00426146   2.739   9.116   1.892 -0.4579 -0.1721  0.1466
  1414G12c C01C26147   2.720   9.141   2.025  0.3586 -1.1040  1.6686
  1414G12c H00A26148   2.630   9.125   2.084 -0.3550  2.5732  1.6837
  1414G12c C00P26149   2.827   9.131   2.118 -1.1630  1.1404  0.4231
  1414G12c C00O26150   2.799   9.060   2.238 -1.5125  1.6594 -0.3503
  1414G12c C01D26151   2.711   8.945   2.214  2.5876 -1.1945  0.3631
  1414G12c H00S26152   2.684   8.884   2.129  5.7958 -4.0608  1.3113
  1414G12c C01E26153   2.664   8.880   2.346 -2.3351  0.7629  0.8700
  1414G12c O00826154   2.570   8.791   2.361 -0.2386 -0.3685  0.2502
  1414G12c C01V26155   2.495   8.768   2.234 -0.7669  0.1015  0.1732
  1414G12c C01Z26156   2.383   8.890   2.194 -0.9783  1.1083  1.4314
  1414G12c H00R26157   2.288   8.871   2.244 -2.8257  1.6402 -1.7494
  1414G12c H00Q26158   2.436   8.985   2.199 -4.4366  3.5061 -3.6474
  1414G12c O00926159   2.399   8.885   2.059  0.2693  1.4954 -0.1753
  1414G12c H00P26160   2.364   8.798   2.048  4.2681 -0.6717  2.7936
  1414G12c C01W26161   2.502   8.638   2.166 -1.8643  0.1211 -1.0051
  1414G12c H00O26162   2.467   8.629   2.064  1.8691 -1.6475 -2.2043
  1414G12c C01X26163   2.622   8.569   2.195 -0.8016 -0.6245  0.4591
  1414G12c H00N26164   2.720   8.588   2.153 -1.4132 -0.6273 -0.9892
  1414G12c H00M26165   2.636   8.572   2.303  2.0039 -2.5866  0.2091
  1414G12c C01Y26166   2.604   8.412   2.206  1.5048 -1.4088 -0.8322
  1414G12c C02D26167   2.651   8.316   2.117  0.4987 -1.6426 -1.7810
  1414G12c H01926168   2.743   8.328   2.060  2.0574 -5.2926 -0.1492
  1414G12c C02C26169   2.596   8.191   2.118  0.0457 -1.5949 -0.9144
  1414G12c H01A26170   2.663   8.132   2.057  2.6148 -1.6745  1.8818
  1414G12c C02B26171   2.482   8.155   2.182 -0.0190  0.3152 -0.0800
  1414G12c O00E26172   2.439   8.034   2.158 -0.9055 -0.7255 -0.1835
  1414G12c H01B26173   2.494   8.006   2.087 -1.8840 -6.7764  1.1973
  1414G12c C02F26174   2.429   8.249   2.279 -0.6982 -0.6934  0.5596
  1414G12c O00F26175   2.332   8.247   2.371 -0.6341 -0.0121  0.3186
  1414G12c C02G26176   2.217   8.150   2.356  1.7302  0.8019  0.0131
  1414G12c H01726177   2.234   8.119   2.253  7.1126 -2.9216  1.7966
  1414G12c H01626178   2.118   8.195   2.368  1.3417  1.1404 -3.7386
  1414G12c H01526179   2.226   8.074   2.433  1.2742  0.7428  0.0105
  1414G12c C02E26180   2.504   8.376   2.292 -0.4931  0.0621  0.0980
  1414G12c H01826181   2.465   8.449   2.361 -2.1110 -2.9773  2.5572
  1414G12c C01F26182   2.725   8.911   2.473  0.9993 -0.0730 -0.2957
  1414G12c C01G26183   2.733   8.826   2.590  1.6625 -0.1967  1.5586
  1414G12c H00L26184   2.655   8.754   2.605 -2.6464  3.8932  0.1014
  1414G12c C01H26185   2.838   8.840   2.687 -0.1925 -0.3506  1.2011
  1414G12c H00B26186   2.864   8.748   2.738  1.6895  0.2635  1.3877
  1414G12c C01I26187   2.929   8.946   2.674 -2.2133 -0.9689  1.0451
  1414G12c C01U26188   2.803   9.024   2.489 -0.5043  0.3637  0.2535
  1414G12c C00S26189   3.175   9.239   2.124  0.6214  0.0833  0.2303
  1414G12c C00K26190   3.191   9.195   2.335 -1.0069 -1.0569  0.7967
  1414G12c C00N26191   2.849   9.100   2.365  0.2100  1.1987 -0.6206
  1414G12c C00026192   2.890   9.052   2.593 -0.5052 -0.9509  1.1826
  1414G12c C01J26193   3.078   8.954   2.674 -1.3016 -0.3128 -0.0090
  1414G12c C01K26194   3.172   8.857   2.737  1.2826  1.0648 -0.7714
  1414G12c C01P26195   3.140   8.794   2.854  1.7495  1.0870  2.3006
  1414G12c C01Q26196   3.025   8.816   2.934  2.3019 -1.9764  0.0412
  1414G12c H00G26197   2.992   8.905   2.985  1.3063 -1.1044 -2.0544
  1414G12c C01R26198   2.948   8.702   2.977  0.8987 -1.0112 -1.6348
  1414G12c H00F26199   2.987   8.601   2.976 -1.9349 -2.1869 -0.1755
  1414G12c C01S26200   2.834   8.736   3.069  0.9911 -0.0916  0.1217
  1414G12c H00E26201   2.844   8.832   3.120  2.7165  2.9267 -5.4287
  1414G12c H00D26202   2.845   8.645   3.128  4.7671  4.8782  8.0236
  1414G12c O00526203   2.714   8.721   2.996  0.7407  0.3042 -1.0584
  1414G12c H00C26204   2.646   8.660   3.020  2.4408  1.4382  8.6137
  1414G12c C01O26205   3.234   8.689   2.887 -0.6592  1.2450 -0.3941
  1414G12c H00H26206   3.192   8.619   2.958-10.4616  1.1494 -5.5005
  1414G12c C01N26207   3.354   8.654   2.811  1.3856  0.6753  0.7234
  1414G12c O00626208   3.426   8.552   2.864  0.0841  0.4713  0.4315
  1414G12c C01T26209   3.539   8.491   2.804  0.2481  0.1303 -0.2111
  1414G12c H00K26210   3.632   8.513   2.858 -1.3603  4.3671  1.0545
  1414G12c H00J26211   3.505   8.388   2.793  4.1321 -1.0826 -1.6850
  1414G12c H00I26212   3.535   8.521   2.700  0.0818  0.3759 -0.1329
  1414G12c C01M26213   3.405   8.763   2.736  0.8946  0.4443  0.8380
  1414G12c C02026214   3.297   9.159   2.436  1.0143 -1.6766 -0.8882
  1414G12c C02126215   3.445   9.156   2.419 -1.2238  1.3203  0.4490
  1414G12c C01L26216   3.305   8.864   2.695  1.7038 -0.3843  0.1174
  1414G12c O00726217   3.533   8.761   2.675  0.1055 -1.1594 -0.7612
  1414G12c C02226218   3.534   9.075   2.469 -1.1034  0.4749 -1.2931
  1414G12c C02326219   3.491   9.172   2.291  0.3133  0.3929  2.4171
  1414G12c C00G26220   3.566   9.165   2.025 -0.4672 -0.0521  0.4348
  1414G12c C00E26221   3.706   9.040   1.857 -0.1526 -1.2569 -0.4010
  1414G12c O00A26222   3.730   8.980   1.738 -1.1757 -0.8900 -0.3472
  1414G12c C02426223   3.771   8.852   1.723 -1.2679  2.3316  0.3631
  1414G12c H00V26224   3.880   8.847   1.728 -1.2271  2.7557 -0.0493
  1414G12c H00U26225   3.713   8.814   1.639  0.9375  4.7921 -2.4030
  1414G12c H00T26226   3.727   8.808   1.812 -3.8898  8.9913  2.6522
  1424G12c C00D26227  11.988   9.398   9.222 -2.2451  0.0929 -1.3442
  1424G12c O00B26228  12.095   9.504   9.205  0.0911 -0.5418 -0.4930
  1424G12c C02526229  12.146   9.506   9.090  1.9104  0.3777 -0.9453
  1424G12c C02626230  12.064   9.463   8.957  1.3626  0.3935  0.1409
  1424G12c H00Y26231  12.075   9.357   8.933  4.1320  1.6620 -5.0786
  1424G12c H00X26232  12.106   9.490   8.860 -3.1457 -4.3033 -3.3872
  1424G12c O00C26233  11.975   9.557   8.923  1.7397  1.0319  1.1505
  1424G12c H00W26234  11.959   9.624   8.987 -1.1309  1.9739 -0.4665
  1424G12c C02726235  12.270   9.555   9.060 -0.1366  0.0053  0.4866
  1424G12c O00D26236  12.303   9.613   9.177 -0.4022  0.5519  0.1717
  1424G12c H00Z26237  12.281   9.537   9.230 -4.9121 -2.8361 -5.7883
  1424G12c C02826238  12.323   9.581   8.930  0.2165  0.5087  0.1385
  1424G12c C02926239  12.353   9.714   8.902 -1.9237 -0.9680  0.5422
  1424G12c H01026240  12.358   9.800   8.967  0.8581  3.0112 -4.5861
  1424G12c C02T26241  12.384   9.758   8.773 -1.2035 -0.5225  0.7897
  1424G12c H01O26242  12.430   9.855   8.758  1.3020 -2.4477 -5.1496
  1424G12c C02S26243  12.426   9.655   8.690 -1.1478 -0.2438  0.4433
  1424G12c O00J26244  12.496   9.673   8.584 -0.7222  0.4551  2.0911
  1424G12c H01P26245  12.436   9.611   8.545 -4.0039  1.2080  5.6167
  1424G12c C02R26246  12.387   9.534   8.704 -1.4161  1.2139 -1.8641
  1424G12c O00I26247  12.413   9.446   8.596  1.2591 -0.2649 -0.7135
  1424G12c C02Q26248  12.306   9.360   8.587  0.0772  0.0135 -0.6935
  1424G12c H01N26249  12.275   9.289   8.664  5.4571 -5.0527 -2.8109
  1424G12c H01R26250  12.223   9.430   8.582  2.4777  2.7935 -7.4610
  1424G12c H01Q26251  12.295   9.332   8.483 -7.0160  4.1765 -1.3940
  1424G12c C02A26252  12.352   9.490   8.835  0.2864  0.9888  0.2037
  1424G12c H01126253  12.362   9.390   8.872 -5.5212  0.5489  1.0808
  1424G12c C00C26254  12.022   9.273   9.271 -0.1666  0.5014  0.9097
  1424G12c H01226255  12.125   9.241   9.271  0.0631  1.1631  2.6540
  1424G12c C00B26256  11.923   9.184   9.300  0.9719  0.9017  1.4467
  1424G12c C00A26257  11.935   9.073   9.390 -1.0954 -0.7445 -0.5729
  1424G12c C00926258  12.039   8.979   9.435  0.0683 -0.7803 -1.7832
  1424G12c C00826259  12.179   8.973   9.442  0.4423  0.6361 -0.6317
  1424G12c H01326260  12.231   9.065   9.418  2.8083 -0.2303  0.9319
  1424G12c C00726261  12.237   8.853   9.486  0.2615  0.7594  1.9839
  1424G12c H01426262  12.345   8.850   9.481  0.4278  4.3276  2.0261
  1424G12c C00626263  12.178   8.715   9.502  1.5293 -0.2902  2.0317
  1424G12c C00526264  12.036   8.726   9.496 -1.1768  0.2704  1.1053
  1424G12c C00426265  11.938   8.619   9.507 -0.0887  0.4775  0.0885
  1424G12c C00326266  11.803   8.627   9.480  0.3747  0.6210 -0.9016
  1424G12c C00226267  11.711   8.511   9.490  1.9977  0.8703 -0.6917
  1424G12c C00126268  11.584   8.469   9.448 -0.8593 -0.7461  0.3395
  1424G12c C00M26269  11.500   8.540   9.349 -0.5396 -1.0366  0.6478
  1424G12c C00L26270  11.510   8.681   9.338  0.0930  0.4729 -0.9531
  1424G12c C00R26271  11.466   8.759   9.230 -0.2322 -0.0367 -0.9870
  1424G12c C00Q26272  11.431   8.717   9.101 -0.8870  1.1751 -0.6464
  1424G12c C00V26273  11.427   8.824   8.997  0.3113 -1.1391 -1.2291
  1424G12c C00U26274  11.469   8.944   9.028  0.9587  0.0306 -0.5761
  1424G12c C00T26275  11.545   8.978   9.129 -2.5007 -0.0303  0.5327
  1424G12c C01626276  11.609   9.094   9.159 -0.7867  0.0628 -0.7220
  1424G12c C01526277  11.581   9.203   9.072 -1.3000 -1.9800 -1.5761
  1424G12c C01026278  11.485   9.193   8.976  0.2641 -0.4189  0.5031
  1424G12c C01126279  11.435   9.308   8.920 -0.5934 -1.1886 -0.4705
  1424G12c H00526280  11.339   9.305   8.872 -0.7437 -2.6721 -0.1058
  1424G12c C01226281  11.520   9.424   8.910  0.4341 -0.9143 -1.4671
  1424G12c C01726282  11.501   9.537   8.819 -1.6117  0.9223 -0.3288
  1424G12c O00226283  11.571   9.644   8.865 -0.9806 -1.3566 -0.2215
  1424G12c H00426284  11.592   9.700   8.792  0.8455  2.5150  3.0671
  1424G12c C01826285  11.413   9.544   8.714 -0.7581  0.8973  0.0259
  1424G12c O00126286  11.338   9.431   8.645 -0.4727 -0.5613 -1.6343
  1424G12c H00326287  11.377   9.345   8.652  2.1589  0.7755  1.0646
  1424G12c C01926288  11.350   9.674   8.648 -0.5213  0.4789 -1.9659
  1424G12c H00226289  11.324   9.642   8.547 -0.5659  2.4754 -2.6211
  1424G12c H00126290  11.248   9.669   8.685 -2.5916  0.8934 -7.1518
  1424G12c O00026291  11.429   9.783   8.677  2.6991  0.0109  0.4797
  1424G12c C01A26292  11.490   9.874   8.592 -1.5688 -0.5853  0.8749
  1424G12c C02K26293  11.574   9.816   8.496 -1.3262 -0.7518  0.3899
  1424G12c O00G26294  11.586   9.694   8.472  0.2040 -0.7701 -0.0623
  1424G12c C02M26295  11.669   9.640   8.570  0.3792 -0.0361  0.2671
  1424G12c H01G26296  11.717   9.688   8.656 -4.2035  4.5310  0.5248
  1424G12c H01F26297  11.746   9.624   8.495 -1.0361  2.4808 -1.8351
  1424G12c H01E26298  11.643   9.535   8.585  1.1988 -0.2455  0.2227
  1424G12c C02J26299  11.662   9.907   8.422 -0.2089 -1.0525 -1.0205
  1424G12c H01H26300  11.735   9.870   8.352 -3.0453 -2.1373 -3.4790
  1424G12c C02I26301  11.638  10.043   8.421 -0.7932 -0.5490 -0.5213
  1424G12c C02N26302  11.713  10.149   8.351 -1.2277  0.0322 -0.5151
  1424G12c H01M26303  11.714  10.253   8.380 -5.3345 -0.1610  0.6186
  1424G12c C02O26304  11.784  10.129   8.231 -0.7299 -0.1621  2.3611
  1424G12c H01L26305  11.778  10.028   8.193  4.5657  0.1137  0.3925
  1424G12c C02P26306  11.830  10.247   8.149 -1.9461 -0.4391 -1.0276
  1424G12c H01K26307  11.754  10.283   8.080  4.1176  2.1201 -6.9385
  1424G12c H01J26308  11.828  10.322   8.228 -4.6825  0.0919 -1.5661
  1424G12c O00H26309  11.952  10.248   8.067  0.3384 -0.7854 -0.5365
  1424G12c H01I26310  11.917  10.183   8.009  5.8593 -2.8996 -1.8826
  1424G12c C02H26311  11.547  10.099   8.512  1.9868  1.5421 -0.7634
  1424G12c H01C26312  11.502  10.195   8.532 -9.2386 -2.4642 -2.9029
  1424G12c C02L26313  11.480  10.015   8.598  1.1941 -0.8343  0.2348
  1424G12c H01D26314  11.423  10.058   8.679  5.6577 -5.2059  6.1784
  1424G12c C01326315  11.629   9.425   9.007 -0.9737  1.0810  1.6294
  1424G12c H00026316  11.694   9.506   8.977 -2.3050  0.6692 -2.8332
  1424G12c C01426317  11.667   9.310   9.083 -0.5806  0.7547  0.6645
  1424G12c C00F26318  11.762   9.318   9.181  0.0382  0.3468  0.8833
  1424G12c C00H26319  11.708   9.097   9.246 -0.5827  0.2445 -0.6017
  1424G12c C00I26320  11.706   9.001   9.347 -0.5871  0.6512 -0.4953
  1424G12c C00J26321  11.599   8.907   9.355 -1.0248  0.3847  0.8783
  1424G12c C00Z26322  11.427   9.060   8.944 -0.5019  1.1646 -0.7271
  1424G12c C00Y26323  11.328   9.037   8.842 -2.1528  0.6144 -0.2878
  1424G12c H00626324  11.285   9.124   8.794  0.4939  3.2949  1.9586
  1424G12c C00X26325  11.297   8.901   8.807 -0.5193  0.1112  0.4406
  1424G12c O00326326  11.201   8.879   8.725 -0.1938 -1.0296 -0.1345
  1424G12c C01B26327  11.258   8.871   8.600  0.9259 -0.3116 -2.4107
  1424G12c H00926328  11.244   8.967   8.551 -3.4444 -1.0778 -2.9156
  1424G12c H00826329  11.216   8.771   8.588  4.5303 -1.9907 -1.7209
  1424G12c H00726330  11.365   8.854   8.595  0.1263 -5.5827 -8.3747
  1424G12c C00W26331  11.348   8.799   8.886  0.7427  1.2049  0.4073
  1424G12c O00426332  11.298   8.670   8.849  0.8351 -0.3754 -0.6734
  1424G12c C01C26333  11.344   8.558   8.915  1.9654 -0.8181 -1.1929
  1424G12c H00A26334  11.281   8.471   8.906 -2.6704  1.6376  4.3600
  1424G12c C00P26335  11.391   8.589   9.055 -0.1801  0.9107  1.1873
  1424G12c C00O26336  11.399   8.458   9.121 -0.2123 -0.0491  1.4004
  1424G12c C01D26337  11.386   8.323   9.052  0.0590  0.8308 -0.7486
  1424G12c H00S26338  11.341   8.288   8.960 -3.3811  3.8022 -0.2863
  1424G12c C01E26339  11.487   8.227   9.079 -1.5317 -0.6281 -0.3646
  1424G12c O00826340  11.485   8.117   9.013  0.4390  0.5212 -0.0321
  1424G12c C01V26341  11.511   8.100   8.866  0.7175  0.1833 -1.6661
  1424G12c C01Z26342  11.421   7.994   8.804 -0.4207 -0.3255 -0.3241
  1424G12c H00R26343  11.458   7.905   8.753  0.5665 -2.8901  4.5342
  1424G12c H00Q26344  11.350   7.927   8.851  3.7807 -3.7021  1.5871
  1424G12c O00926345  11.327   8.050   8.718 -0.5116  0.0963 -0.9565
  1424G12c H00P26346  11.389   8.116   8.691  0.7611 -0.5917  0.1935
  1424G12c C01W26347  11.594   8.179   8.792 -1.5709  2.1503 -0.7468
  1424G12c H00O26348  11.633   8.257   8.855 -0.8468 -0.8322  2.6956
  1424G12c C01X26349  11.620   8.159   8.661 -0.9165 -0.7747  0.2260
  1424G12c H00N26350  11.717   8.197   8.626 -2.0051 -0.1636 -2.2189
  1424G12c H00M26351  11.629   8.053   8.637  4.8828 -1.8048  5.5107
  1424G12c C01Y26352  11.530   8.234   8.563  0.9565  0.0991  1.5377
  1424G12c C02D26353  11.478   8.371   8.610  0.2821  1.4937 -0.0718
  1424G12c H01926354  11.486   8.428   8.702 -0.8436  0.8930  0.4058
  1424G12c C02C26355  11.378   8.434   8.532 -1.2684  1.1662  0.1824
  1424G12c H01A26356  11.316   8.518   8.560 -0.2436  2.3822 -1.1539
  1424G12c C02B26357  11.320   8.361   8.419 -1.4555  1.8562  1.9646
  1424G12c O00E26358  11.201   8.400   8.385 -0.2565 -0.2938  0.4009
  1424G12c H01B26359  11.142   8.334   8.352  0.8041 -3.2213  4.0497
  1424G12c C02F26360  11.392   8.237   8.374 -1.1043 -0.3073  0.8832
  1424G12c O00F26361  11.322   8.179   8.275 -0.2719  0.1278 -0.0112
  1424G12c C02G26362  11.304   8.045   8.248  1.1535 -0.4587  0.0668
  1424G12c H01726363  11.323   7.973   8.327 -1.7834 -0.0433  1.2345
  1424G12c H01626364  11.364   8.044   8.157  4.2806  0.6554  2.0352
  1424G12c H01526365  11.197   8.049   8.226  0.3376  4.9475  3.9680
  1424G12c C02E26366  11.490   8.183   8.443 -1.3012 -0.3530 -0.6976
  1424G12c H01826367  11.540   8.093   8.411 -3.7724 -1.7719 -0.6472
  1424G12c C01F26368  11.564   8.234   9.191 -0.0031  2.6712 -0.4727
  1424G12c C01G26369  11.668   8.132   9.239  0.5261 -0.1169  0.0024
  1424G12c H00L26370  11.681   8.041   9.182 -4.4826  1.3884 -3.9119
  1424G12c C01H26371  11.764   8.191   9.329  0.9479  1.0287 -0.4387
  1424G12c H00B26372  11.868   8.162   9.336 -0.4979 -5.0677 -1.2283
  1424G12c C01I26373  11.722   8.301   9.415  0.9190 -1.2276  0.5423
  1424G12c C01U26374  11.527   8.328   9.277  0.0765  0.1154 -1.2998
  1424G12c C00S26375  11.519   8.890   9.245 -0.7047 -0.1878 -0.7519
  1424G12c C00K26376  11.618   8.765   9.397  0.9946 -0.3260 -1.4577
  1424G12c C00N26377  11.458   8.445   9.243 -0.2565 -0.2223 -2.4036
  1424G12c C00026378  11.592   8.330   9.405  1.5151  0.5128  1.1993
  1424G12c C01J26379  11.787   8.396   9.499  0.5232 -0.0437  0.3413
  1424G12c C01K26380  11.930   8.376   9.503 -0.6695 -0.7836  2.3840
  1424G12c C01P26381  12.003   8.261   9.550 -0.7031  0.4914 -0.5925
  1424G12c C01Q26382  11.941   8.152   9.607 -1.2177  1.2318  0.4952
  1424G12c H00G26383  11.887   8.137   9.700 -1.4508 -1.4547 -0.0196
  1424G12c C01R26384  11.963   8.025   9.566 -1.1293  0.4976 -0.4613
  1424G12c H00F26385  12.026   8.014   9.479  0.3971  3.2603  0.2296
  1424G12c C01S26386  11.945   7.883   9.634  0.2927  0.9071 -0.1099
  1424G12c H00E26387  11.859   7.838   9.584 -0.2518 -3.8331  4.6571
  1424G12c H00D26388  12.036   7.834   9.600  2.5161  5.0104 -0.4359
  1424G12c O00526389  11.970   7.824   9.766 -0.8845 -1.6225 -0.0679
  1424G12c H00C26390  11.891   7.847   9.812 -1.7991 -0.0872 -2.3359
  1424G12c C01O26391  12.157   8.259   9.548  1.3487  1.5320 -0.6851
  1424G12c H00H26392  12.211   8.171   9.580  5.8377  3.8199 -1.5473
  1424G12c C01N26393  12.215   8.384   9.523 -0.0318  0.4279 -0.4663
  1424G12c O00626394  12.350   8.380   9.544 -0.6193 -0.3820 -0.3397
  1424G12c C01T26395  12.432   8.437   9.430  0.0645 -0.8638 -1.6915
  1424G12c H00K26396  12.431   8.540   9.393 -0.3985 -1.4731 -3.4251
  1424G12c H00J26397  12.422   8.379   9.338  3.0803 -3.3065 -0.5468
  1424G12c H00I26398  12.535   8.418   9.460  2.4079  4.0726 -5.7920
  1424G12c C01M26399  12.143   8.501   9.544  0.8465 -0.9841 -0.6011
  1424G12c C02026400  11.752   8.752   9.463 -0.7031 -2.4436 -0.3704
  1424G12c C02126401  11.838   8.872   9.470  1.1495  0.2513 -0.0779
  1424G12c C01L26402  11.998   8.496   9.536  0.3818  0.3756 -0.3697
  1424G12c O00726403  12.225   8.603   9.539 -1.1047 -0.2017 -0.6650
  1424G12c C02226404  11.971   8.847   9.461 -0.7090 -1.2552  0.4928
  1424G12c C02326405  11.814   9.005   9.421 -0.2490  0.9525 -0.2899
  1424G12c C00G26406  11.788   9.204   9.263 -0.5294 -0.3801 -0.4400
  1424G12c C00E26407  11.848   9.427   9.177  1.7218  0.6611  1.4405
  1424G12c O00A26408  11.804   9.554   9.162 -1.0246  0.5331  1.0308
  1424G12c C02426409  11.808   9.607   9.300 -0.0364 -0.5636 -0.5006
  1424G12c H00V26410  11.888   9.681   9.295 -1.2185  0.9605  2.1852
  1424G12c H00U26411  11.792   9.542   9.387  3.1712 -1.8188 -0.7414
  1424G12c H00T26412  11.724   9.673   9.320 -0.0955  0.2185 -3.2080
  1434G12c C00D26413  13.417   2.753   7.818 -0.8421  0.4585 -1.7005
  1434G12c O00B26414  13.313   2.787   7.743 -1.1303  0.1498  0.1159
  1434G12c C02526415  13.229   2.678   7.724 -0.4412 -1.0400  0.8122
  1434G12c C02626416  13.115   2.682   7.835  1.3363 -0.1798  0.6793
  1434G12c H00Y26417  13.021   2.626   7.838  3.4952 -4.0958 -0.4767
  1434G12c H00X26418  13.136   2.772   7.892  7.4063 -0.9929  0.0942
  1434G12c O00C26419  13.180   2.611   7.932  1.0591  0.5052 -0.8928
  1434G12c H00W26420  13.215   2.682   7.983  4.1663 -0.2402 -1.9207
  1434G12c C02726421  13.241   2.589   7.627 -0.2545  2.0136  0.1855
  1434G12c O00D26422  13.339   2.601   7.534 -1.8347 -1.1748 -0.0394
  1434G12c H00Z26423  13.368   2.682   7.574 -3.2545 -1.0097  0.6903
  1434G12c C02826424  13.182   2.455   7.644 -0.7795  0.8371 -0.8632
  1434G12c C02926425  13.259   2.331   7.658 -0.0920  1.3767  1.1455
  1434G12c H01026426  13.367   2.332   7.668 -0.3152  2.8085  4.0697
  1434G12c C02T26427  13.196   2.207   7.659 -0.7907 -0.3203  0.3867
  1434G12c H01O26428  13.223   2.105   7.636 -2.3936 -1.0034  1.4442
  1434G12c C02S26429  13.056   2.207   7.675  0.9278  1.8924  0.9657
  1434G12c O00J26430  12.995   2.079   7.710 -1.0448  0.1416  0.3500
  1434G12c H01P26431  12.901   2.079   7.709 -1.1451 -1.0645 -5.1232
  1434G12c C02R26432  12.987   2.315   7.671 -0.0994 -0.4427  0.1116
  1434G12c O00I26433  12.851   2.326   7.690  0.7058 -0.4449 -1.2114
  1434G12c C02Q26434  12.777   2.448   7.737 -0.4215  2.0266 -2.4303
  1434G12c H01N26435  12.744   2.438   7.841  3.4007 -3.2542 -1.4864
  1434G12c H01R26436  12.700   2.479   7.667 -0.3606  2.3182 -2.3688
  1434G12c H01Q26437  12.842   2.535   7.746  5.2068 -1.7851 -3.5381
  1434G12c C02A26438  13.056   2.441   7.660 -0.9898 -0.2379  0.0154
  1434G12c H01126439  13.009   2.521   7.604  7.7516  3.6800 -2.5638
  1434G12c C00C26440  13.421   2.806   7.951 -0.4157 -1.7190 -1.7618
  1434G12c H01226441  13.338   2.828   8.016  0.6744  6.1801 -2.5920
  1434G12c C00B26442  13.529   2.845   8.019 -0.5584  0.5973 -0.3884
  1434G12c C00A26443  13.535   2.874   8.153  0.7713 -0.5585 -1.3516
  1434G12c C00926444  13.447   2.955   8.225 -0.4947 -0.8982 -0.5674
  1434G12c C00826445  13.325   3.018   8.188  2.1424  0.2470 -1.4100
  1434G12c H01326446  13.265   2.998   8.100  5.1855 -6.8060 -2.2944
  1434G12c C00726447  13.279   3.139   8.255  1.5264  0.7130  1.9659
  1434G12c H01426448  13.191   3.198   8.235  4.1427  4.3570  0.7709
  1434G12c C00626449  13.367   3.197   8.351 -0.4803 -0.1452 -0.4928
  1434G12c C00526450  13.483   3.122   8.384  0.4987 -1.8263 -0.4639
  1434G12c C00426451  13.583   3.185   8.465 -0.1072 -0.6483 -1.5521
  1434G12c C00326452  13.720   3.147   8.476 -0.8446 -0.4642 -0.0139
  1434G12c C00226453  13.816   3.241   8.537  1.5284  0.3784  1.0014
  1434G12c C00126454  13.957   3.252   8.544  0.9662  0.2223 -1.1418
  1434G12c C00M26455  14.049   3.212   8.442 -0.3288  3.3673  0.4307
  1434G12c C00L26456  14.022   3.120   8.330  1.4734 -0.5605 -1.1671
  1434G12c C00R26457  14.062   3.107   8.208  0.2072 -0.4546  0.0603
  1434G12c C00Q26458  14.180   3.161   8.140 -0.0028 -0.0331  0.0738
  1434G12c C00V26459  14.199   3.123   8.001 -0.1304  0.8119 -1.7785
  1434G12c C00U26460  14.094   3.044   7.930  1.9283  0.9329 -0.6800
  1434G12c C00T26461  13.993   3.003   8.009 -0.9596  0.6075 -1.3313
  1434G12c C01626462  13.896   2.919   7.951 -1.0991 -1.3912  1.7978
  1434G12c C01526463  13.899   2.884   7.815 -0.9149 -0.7953  0.3149
  1434G12c C01026464  14.004   2.945   7.733  2.9102 -1.7118 -0.8492
  1434G12c C01126465  14.011   2.886   7.604  0.1678  1.7207  0.0681
  1434G12c H00526466  14.090   2.924   7.541  0.1179  7.8242  3.3461
  1434G12c C01226467  13.943   2.764   7.579 -0.7537  1.4602  0.0516
  1434G12c C01726468  13.984   2.692   7.459  0.5981 -0.1299  0.9205
  1434G12c O00226469  14.008   2.766   7.348 -0.7032 -0.8772  0.2335
  1434G12c H00426470  13.995   2.680   7.309 -4.6568 -1.8058  3.2678
  1434G12c C01826471  13.970   2.564   7.427 -0.4282 -0.4052  1.6879
  1434G12c O00126472  13.980   2.502   7.305 -0.0226  0.7350  0.5923
  1434G12c H00326473  13.919   2.431   7.321 -1.7580  0.7666 -4.8464
  1434G12c C01926474  13.918   2.453   7.531 -1.3882  0.3623  0.4888
  1434G12c H00226475  13.933   2.471   7.637  6.7928 -2.6589  0.1654
  1434G12c H00126476  13.813   2.465   7.503 -0.5842 -0.8281 -3.3337
  1434G12c O00026477  13.981   2.334   7.512 -1.2482  1.7941  1.2573
  1434G12c C01A26478  13.944   2.237   7.608 -0.4166  0.2355 -0.9092
  1434G12c C02K26479  13.882   2.117   7.571 -0.2525 -0.2154  0.4392
  1434G12c O00G26480  13.858   2.105   7.449 -0.2697 -1.5368  1.9894
  1434G12c C02M26481  13.728   2.065   7.391 -0.9868 -0.9116 -0.0724
  1434G12c H01G26482  13.765   2.017   7.300 -2.0528 -5.0107  1.5627
  1434G12c H01F26483  13.680   1.972   7.419 -0.4484 -3.0261 -5.6097
  1434G12c H01E26484  13.645   2.135   7.377  1.1376  1.7073 -0.0318
  1434G12c C02J26485  13.838   2.018   7.665  0.7693 -2.1896 -1.8387
  1434G12c H01H26486  13.801   1.935   7.607  4.8296 -0.2727 -7.5318
  1434G12c C02I26487  13.879   2.019   7.802 -0.1838 -0.6286 -1.0728
  1434G12c C02N26488  13.908   1.894   7.870  1.0779  0.3488  1.2135
  1434G12c H01M26489  14.010   1.859   7.875  0.7715 -1.4740 -3.2238
  1434G12c C02O26490  13.829   1.821   7.965  1.4841 -0.2809  0.0886
  1434G12c H01L26491  13.732   1.865   7.979  1.5516  0.3531 -1.2875
  1434G12c C02P26492  13.882   1.703   8.045  0.6283 -1.4918  0.6978
  1434G12c H01K26493  13.883   1.607   7.993 -6.6948 -2.0969  1.2010
  1434G12c H01J26494  13.988   1.723   8.064 -0.8947  7.1997  2.1028
  1434G12c O00H26495  13.829   1.671   8.171  0.6420  0.1665  0.3370
  1434G12c H01I26496  13.825   1.743   8.232  1.3189 -3.7506  5.2756
  1434G12c C02H26497  13.930   2.138   7.841 -0.2821 -0.8805  0.3808
  1434G12c H01C26498  13.957   2.150   7.945 -4.2686  2.7798  1.1332
  1434G12c C02L26499  13.958   2.247   7.746  0.1062  0.9814  0.5912
  1434G12c H01D26500  13.999   2.342   7.778  3.2552 -0.4643  0.9868
  1434G12c C01326501  13.814   2.737   7.648  0.3560  0.5162  0.9434
  1434G12c H00026502  13.749   2.667   7.599  0.8221  1.7121 -1.4568
  1434G12c C01426503  13.796   2.789   7.767 -0.3710 -1.1316  2.1624
  1434G12c C00F26504  13.679   2.779   7.829 -1.1690  0.3938 -0.1583
  1434G12c C00H26505  13.781   2.891   8.028 -1.0726  0.1307  0.9701
  1434G12c C00I26506  13.783   2.891   8.159  0.8049 -0.7921  1.6052
  1434G12c C00J26507  13.898   2.972   8.211 -1.3195  0.5161  0.6361
  1434G12c C00Z26508  14.102   3.021   7.797 -0.5173  0.4512 -0.4041
  1434G12c C00Y26509  14.228   3.059   7.741  0.1732 -0.5151 -1.3503
  1434G12c H00626510  14.270   3.039   7.644  1.4723 -3.4829 -0.2244
  1434G12c C00X26511  14.329   3.127   7.813  0.3504  1.4237  0.2522
  1434G12c O00326512  14.447   3.163   7.750  1.5135 -0.1089  0.1091
  1434G12c C01B26513  14.507   3.063   7.649 -0.8859 -0.3647  1.2473
  1434G12c H00926514  14.500   2.954   7.657 -7.4866 -0.4420 -2.6736
  1434G12c H00826515  14.465   3.081   7.550 -0.0055 -0.8650  0.7749
  1434G12c H00726516  14.616   3.052   7.649 -1.0634 -2.2898 -0.5531
  1434G12c C00W26517  14.321   3.151   7.948  0.5213 -1.0348 -1.4581
  1434G12c O00426518  14.421   3.214   8.020 -1.0824  0.1997  0.4517
  1434G12c C01C26519  14.388   3.293   8.123  1.7690 -1.5315 -0.4428
  1434G12c H00A26520  14.466   3.306   8.196  1.6644 -0.2890 -0.5390
  1434G12c C00P26521  14.265   3.259   8.198  1.4338  0.2566 -0.2310
  1434G12c C00O26522  14.218   3.354   8.306 -1.8912  0.3652  0.9480
  1434G12c C01D26523  14.269   3.495   8.301 -0.2377  0.4095  2.2047
  1434G12c H00S26524  14.341   3.518   8.224  0.8343  0.2418  3.1279
  1434G12c C01E26525  14.194   3.604   8.383 -0.1796 -0.2149  0.5304
  1434G12c O00826526  14.179   3.740   8.336 -0.3093  1.0374 -0.5167
  1434G12c C01V26527  14.293   3.800   8.304  1.2854  0.1299  0.1554
  1434G12c C01Z26528  14.398   3.817   8.416  0.0667 -0.0044  1.7226
  1434G12c H00R26529  14.410   3.721   8.466  2.1254 -3.1901 -4.2724
  1434G12c H00Q26530  14.475   3.894   8.429 -0.4171  0.1207  3.9701
  1434G12c O00926531  14.308   3.870   8.485  0.9833  1.2535  1.0212
  1434G12c H00P26532  14.238   3.875   8.422  4.5262 -2.0172 -3.5506
  1434G12c C01W26533  14.295   3.846   8.185  1.6208 -0.7695 -1.2471
  1434G12c H00O26534  14.204   3.825   8.130  4.1324 -0.3727 -5.7413
  1434G12c C01X26535  14.373   3.954   8.116 -1.2770  1.0641  0.9274
  1434G12c H00N26536  14.298   4.032   8.108  0.8923  3.0676 -0.4641
  1434G12c H00M26537  14.462   4.003   8.155 -1.8917  7.3275 -4.6709
  1434G12c C01Y26538  14.413   3.939   7.971 -0.3026 -0.1076  0.7520
  1434G12c C02D26539  14.434   3.820   7.903  1.4965  1.5567  1.5453
  1434G12c H01926540  14.399   3.742   7.970 -0.9763  0.7242 -0.6110
  1434G12c C02C26541  14.472   3.828   7.767  0.2627  1.6953 -1.4258
  1434G12c H01A26542  14.522   3.741   7.727  1.2370  3.5135 -4.3520
  1434G12c C02B26543  14.509   3.945   7.710  0.7894 -0.2507 -0.4280
  1434G12c O00E26544  14.613   3.936   7.632  0.4051  0.8576  0.6136
  1434G12c H01B26545  14.615   4.022   7.593  4.6448 -0.9123 -3.5529
  1434G12c C02F26546  14.480   4.059   7.777 -0.4031 -0.7150 -0.9590
  1434G12c O00F26547  14.492   4.184   7.701  0.5909 -0.5268  0.3444
  1434G12c C02G26548  14.393   4.288   7.703  1.1613  1.4343 -0.6832
  1434G12c H01726549  14.364   4.328   7.801  2.7039 -0.1199  0.4284
  1434G12c H01626550  14.307   4.237   7.659  3.3412  0.2023 -3.6755
  1434G12c H01526551  14.417   4.359   7.624  2.0753  2.8178  0.7908
  1434G12c C02E26552  14.445   4.055   7.907 -1.8170 -0.3904  0.4759
  1434G12c H01826553  14.452   4.150   7.957  2.6506 -1.1964  1.6150
  1434G12c C01F26554  14.099   3.561   8.475  0.2046  0.3722 -0.4449
  1434G12c C01G26555  14.002   3.643   8.532  1.0880 -0.2059  0.9129
  1434G12c H00L26556  13.985   3.746   8.504  0.6467  1.2032  6.0034
  1434G12c C01H26557  13.896   3.593   8.617  1.1481  0.8290  0.5697
  1434G12c H00B26558  13.810   3.658   8.624 -0.8035 -1.9005  3.8117
  1434G12c C01I26559  13.882   3.449   8.620  0.6947  0.5596 -0.4099
  1434G12c C01U26560  14.078   3.424   8.499 -0.2967 -1.2798  0.3079
  1434G12c C00S26561  14.000   3.018   8.132  1.2788  0.6266 -1.8274
  1434G12c C00K26562  13.903   3.046   8.330 -0.7057 -1.0196 -0.2839
  1434G12c C00N26563  14.124   3.326   8.408  0.4980  1.0322 -1.1990
  1434G12c C00026564  14.007   3.374   8.596  0.3594 -0.5444  1.5702
  1434G12c C01J26565  13.771   3.359   8.596  0.4510 -1.7480 -0.0523
  1434G12c C01K26566  13.631   3.392   8.609 -0.4797 -0.4523 -0.6790
  1434G12c C01P26567  13.579   3.497   8.700 -0.5587  0.1629  0.6572
  1434G12c C01Q26568  13.676   3.571   8.790 -1.2024 -0.5555 -1.0776
  1434G12c H00G26569  13.745   3.509   8.846  4.2500  6.2067  0.3366
  1434G12c C01R26570  13.654   3.706   8.793  0.1658 -1.1901 -0.7769
  1434G12c H00F26571  13.582   3.738   8.719 -2.1952 -2.7799  0.7761
  1434G12c C01S26572  13.718   3.801   8.906  0.5166 -0.6689  0.6954
  1434G12c H00E26573  13.651   3.833   8.986  3.4137 -1.0947  3.4118
  1434G12c H00D26574  13.783   3.722   8.944  1.1520  0.1116  1.2375
  1434G12c O00526575  13.811   3.895   8.836 -0.0271 -0.5397  0.9902
  1434G12c H00C26576  13.779   3.983   8.825 -7.6562 -3.3718 -2.5093
  1434G12c C01O26577  13.443   3.528   8.680  0.7926  0.5053  1.6052
  1434G12c H00H26578  13.385   3.593   8.743  1.4426  2.4866  0.1779
  1434G12c C01N26579  13.365   3.459   8.587 -0.6648 -1.0721  1.5707
  1434G12c O00626580  13.233   3.494   8.554 -1.1618  0.4856 -0.0292
  1434G12c C01T26581  13.160   3.555   8.670 -0.4532 -0.3416  0.9438
  1434G12c H00K26582  13.199   3.508   8.760 -1.5886 -4.6549 -0.6846
  1434G12c H00J26583  13.059   3.519   8.654 -0.7467  2.7005 -5.6557
  1434G12c H00I26584  13.164   3.664   8.665  8.3190 -0.2584  1.1866
  1434G12c C01M26585  13.417   3.356   8.508  1.4037  0.7434  0.0504
  1434G12c C02026586  13.771   3.048   8.393 -2.4945  0.4074 -0.9914
  1434G12c C02126587  13.655   2.955   8.341 -1.0930 -1.2254 -0.2026
  1434G12c C01L26588  13.542   3.309   8.530 -0.4151 -0.3644  0.6804
  1434G12c O00726589  13.332   3.316   8.416 -0.8085  1.7129 -0.1971
  1434G12c C02226590  13.530   3.014   8.326 -0.6173 -1.6817  1.0787
  1434G12c C02326591  13.661   2.878   8.232  1.2222 -1.2776  0.6809
  1434G12c C00G26592  13.667   2.839   7.956 -0.4360  1.4666 -0.3350
  1434G12c C00E26593  13.547   2.761   7.765  1.0386  0.6445 -1.0863
  1434G12c O00A26594  13.548   2.802   7.636 -0.1847  1.4745  0.2797
  1434G12c C02426595  13.548   2.953   7.621  1.4463  0.0667  0.4402
  1434G12c H00V26596  13.467   2.998   7.564  0.7862  0.6038  1.7934
  1434G12c H00U26597  13.652   2.969   7.592  0.0672  0.6051 -4.7873
  1434G12c H00T26598  13.531   3.011   7.712 -5.0205  2.8877 -2.2348
  1444G12c C00D26599   6.485  10.198  11.985 -0.0197  0.9118  0.5230
  1444G12c O00B26600   6.362  10.128  11.983 -0.6751  0.6277  0.1241
  1444G12c C02526601   6.343  10.024  11.900 -0.7375  2.4028  0.5029
  1444G12c C02626602   6.203   9.951  11.953 -0.4901  0.0476 -1.2026
  1444G12c H00Y26603   6.146   9.889  11.883 -6.3211  3.7925 -0.0599
  1444G12c H00X26604   6.145  10.041  11.966 -4.8797 -2.2146 -3.9391
  1444G12c O00C26605   6.202   9.903  12.093  0.9827 -0.6328 -0.1397
  1444G12c H00W26606   6.243   9.820  12.072 -1.7304 -2.3657  1.0161
  1444G12c C02726607   6.402   9.985  11.783  0.7366 -1.3223 -0.3063
  1444G12c O00D26608   6.503  10.045  11.719 -0.6343 -0.4663  0.9058
  1444G12c H00Z26609   6.551  10.098  11.781  0.2127 -1.8246  1.4379
  1444G12c C02826610   6.339   9.898  11.692  0.6803  0.7721  1.9671
  1444G12c C02926611   6.216   9.946  11.635 -0.3062 -1.3191 -0.8477
  1444G12c H01026612   6.194  10.050  11.652  1.0514 -0.6016 -3.1439
  1444G12c C02T26613   6.131   9.870  11.562 -0.9029 -0.8151  0.4284
  1444G12c H01O26614   6.029   9.893  11.534  0.5277  2.1294 -2.5483
  1444G12c C02S26615   6.154   9.735  11.574  1.6346  2.7455 -0.3788
  1444G12c O00J26616   6.088   9.633  11.506  1.1682  1.9836  0.1080
  1444G12c H01P26617   6.141   9.558  11.527  2.9664  2.4818 -2.3655
  1444G12c C02R26618   6.287   9.691  11.589  1.0778  1.0520  0.9363
  1444G12c O00I26619   6.286   9.548  11.599 -1.0274 -0.5309  0.1292
  1444G12c C02Q26620   6.390   9.490  11.551  0.0147 -0.0124  1.8090
  1444G12c H01N26621   6.418   9.531  11.454 -1.2473 -4.2583 -0.5064
  1444G12c H01R26622   6.360   9.385  11.545 -0.6217  0.2482 -0.1843
  1444G12c H01Q26623   6.491   9.512  11.587  1.0748 -3.5592  1.2451
  1444G12c C02A26624   6.376   9.766  11.652  0.2635  0.8058  0.3713
  1444G12c H01126625   6.444   9.703  11.708 -1.2132 -3.0623 -1.9930
  1444G12c C00C26626   6.588  10.111  12.037 -0.0854  0.4849 -0.4450
  1444G12c H01226627   6.584  10.008  12.067  0.4096  0.5396 -0.1860
  1444G12c C00B26628   6.727  10.139  12.051  0.1430  0.2516 -1.4392
  1444G12c C00A26629   6.840  10.060  12.117 -1.8145  0.5690 -0.4836
  1444G12c C00926630   6.849   9.938  12.219 -1.1581 -0.4117 -0.4724
  1444G12c C00826631   6.747   9.855  12.276 -2.1934 -0.3340  1.9891
  1444G12c H01326632   6.650   9.829  12.235  0.0803  0.0670 -4.1368
  1444G12c C00726633   6.765   9.818  12.415  0.1612 -1.4880  0.0819
  1444G12c H01426634   6.671   9.792  12.462 -1.6322 -6.7412 -5.7321
  1444G12c C00626635   6.856   9.886  12.488 -0.2688  2.0222 -0.1315
  1444G12c C00526636   6.961   9.950  12.426  0.4711  0.6905 -0.5105
  1444G12c C00426637   7.066  10.009  12.491  0.6139 -1.1373 -0.3469
  1444G12c C00326638   7.168  10.077  12.425 -0.0148 -0.0803 -1.4639
  1444G12c C00226639   7.246  10.157  12.523  0.7702  0.3681  0.0400
  1444G12c C00126640   7.361  10.230  12.489  1.6228 -0.1235 -0.5285
  1444G12c C00M26641   7.360  10.353  12.413  0.8547  1.2225 -0.5644
  1444G12c C00L26642   7.278  10.368  12.299  0.1957  0.3067  0.2915
  1444G12c C00R26643   7.216  10.484  12.262 -1.3037 -0.6567 -0.1987
  1444G12c C00Q26644   7.241  10.613  12.282 -0.0916 -0.8615  1.0883
  1444G12c C00V26645   7.153  10.698  12.220 -1.3784 -0.8755  0.4379
  1444G12c C00U26646   7.048  10.665  12.144  0.8641 -1.4928 -1.3905
  1444G12c C00T26647   7.034  10.534  12.120  1.0420  0.9775 -1.8237
  1444G12c C01626648   6.905  10.477  12.069  0.4998  1.0556  0.2997
  1444G12c C01526649   6.828  10.566  12.009  0.0869  0.0900  0.6560
  1444G12c C01026650   6.835  10.706  12.020  0.5554  0.5083  0.2999
  1444G12c C01126651   6.750  10.802  11.963  0.6531 -0.0799 -0.5099
  1444G12c H00526652   6.751  10.910  11.967  2.4140 -0.1343  6.2958
  1444G12c C01226653   6.622  10.747  11.917 -1.9009  0.0083 -0.3173
  1444G12c C01726654   6.514  10.828  11.877 -0.5676 -1.5039 -0.4928
  1444G12c O00226655   6.429  10.787  11.772  1.2718  0.5495 -0.4951
  1444G12c H00426656   6.388  10.871  11.759 -5.3971 -0.3531  9.1351
  1444G12c C01826657   6.443  10.913  11.959 -0.1787 -1.0676 -0.4058
  1444G12c O00126658   6.486  10.915  12.091  1.1133  0.2226 -0.6990
  1444G12c H00326659   6.480  10.827  12.125 -6.0804 -1.9438 -6.3549
  1444G12c C01926660   6.350  11.017  11.935  0.4893 -1.5572  1.6404
  1444G12c H00226661   6.328  11.005  11.829  3.5194  6.6467 -0.2880
  1444G12c H00126662   6.262  11.004  11.998 -0.9198 -3.5540 -0.6334
  1444G12c O00026663   6.395  11.154  11.956 -0.1847  1.4498  1.2912
  1444G12c C01A26664   6.310  11.253  11.981  0.2634  1.1348 -0.4626
  1444G12c C02K26665   6.312  11.360  11.898  2.1754  0.2166  0.3092
  1444G12c O00G26666   6.395  11.380  11.799 -1.2981  0.4439  0.0707
  1444G12c C02M26667   6.528  11.452  11.783 -0.3129 -0.9642 -1.3638
  1444G12c H01G26668   6.583  11.442  11.689  1.3271  1.0010 -0.6743
  1444G12c H01F26669   6.515  11.559  11.802  3.6750 -0.7777  1.0537
  1444G12c H01E26670   6.590  11.424  11.869  4.0707  1.4590 -3.5550
  1444G12c C02J26671   6.230  11.465  11.911  0.1204 -1.3778 -1.7570
  1444G12c H01H26672   6.242  11.547  11.841 -0.7536  4.0013  3.9958
  1444G12c C02I26673   6.110  11.443  11.987  0.2403  2.0174 -0.3709
  1444G12c C02N26674   5.999  11.516  11.949  1.5474  0.1407  2.4116
  1444G12c H01M26675   6.011  11.605  11.889 -1.8328 -2.6553 -2.7644
  1444G12c C02O26676   5.875  11.464  11.937 -0.0003  0.8951  0.4985
  1444G12c H01L26677   5.861  11.365  11.979 -6.2944  2.4168  2.5179
  1444G12c C02P26678   5.749  11.532  11.905 -1.0379  1.8499  0.0613
  1444G12c H01K26679   5.707  11.529  12.006  5.3256 -4.4302  2.8920
  1444G12c H01J26680   5.762  11.639  11.920  2.7860  0.9621  4.2351
  1444G12c O00H26681   5.663  11.453  11.807 -0.1890 -1.5725  0.4795
  1444G12c H01I26682   5.604  11.515  11.766  0.4032 -2.0580 -1.1660
  1444G12c C02H26683   6.108  11.326  12.077  1.6347 -0.8746  1.3685
  1444G12c H01C26684   6.013  11.291  12.114  4.1942 -3.2049  6.0804
  1444G12c C02L26685   6.213  11.240  12.080  0.9165  0.0234  0.2560
  1444G12c H01D26686   6.238  11.162  12.150  3.7244 -1.1259 -1.9687
  1444G12c C01326687   6.620  10.601  11.913 -1.4577  1.0561  2.0547
  1444G12c H00026688   6.529  10.594  11.855  2.8371 -0.3693 -5.1451
  1444G12c C01426689   6.712  10.509  11.959  0.3378  0.9647  2.7671
  1444G12c C00F26690   6.671  10.373  11.966  0.4491  0.1382 -1.3376
  1444G12c C00H26691   6.882  10.335  12.063 -2.0951 -0.2854 -1.7796
  1444G12c C00I26692   6.993  10.249  12.105  0.5540 -1.2945 -0.5232
  1444G12c C00J26693   7.098  10.318  12.167  2.1404 -0.7379  1.4284
  1444G12c C00Z26694   6.959  10.745  12.081 -0.4163  1.4407 -0.4251
  1444G12c C00Y26695   6.992  10.886  12.082 -0.4038  1.3951  1.5357
  1444G12c H00626696   6.970  10.977  12.028  3.5717  0.1153 -2.6276
  1444G12c C00X26697   7.056  10.923  12.197  0.6451  0.6726  0.1881
  1444G12c O00326698   7.069  11.061  12.219 -1.0342  1.0310 -0.1114
  1444G12c C01B26699   7.023  11.074  12.353 -0.1571  1.3267 -0.7183
  1444G12c H00926700   7.111  11.108  12.408 -1.0274  2.1736  0.1777
  1444G12c H00826701   7.041  11.010  12.439 -0.3490  1.2121 -0.7641
  1444G12c H00726702   6.941  11.146  12.343 -3.3787 -2.0937  0.0552
  1444G12c C00W26703   7.151  10.843  12.251 -0.0036 -0.7376 -2.0486
  1444G12c O00426704   7.260  10.899  12.290  0.1542 -1.3018  0.7112
  1444G12c C01C26705   7.355  10.825  12.331 -1.4582  0.8486  0.3793
  1444G12c H00A26706   7.453  10.868  12.315 -2.5647  1.1827 -7.6338
  1444G12c C00P26707   7.327  10.685  12.362 -0.1524  0.0297 -0.9370
  1444G12c C00O26708   7.367  10.622  12.484  0.9486 -0.0295 -0.6161
  1444G12c C01D26709   7.426  10.702  12.588  0.2222 -0.0691  0.7804
  1444G12c H00S26710   7.421  10.810  12.585  2.5911  0.0727  0.9512
  1444G12c C01E26711   7.452  10.630  12.706 -0.1404 -1.4976 -1.1714
  1444G12c O00826712   7.461  10.699  12.821  0.8007  0.7949 -1.1822
  1444G12c C01V26713   7.402  10.828  12.812 -1.2231 -0.9656 -1.1046
  1444G12c C01Z26714   7.251  10.830  12.811  0.0461 -0.6036  0.7339
  1444G12c H00R26715   7.206  10.814  12.713 -0.1023 -1.1440  0.8931
  1444G12c H00Q26716   7.224  10.765  12.893 -4.0816  2.7855  2.2557
  1444G12c O00926717   7.206  10.953  12.835  1.1371  1.4692 -0.9237
  1444G12c H00P26718   7.127  10.928  12.882 -1.7379 -0.2104 -6.2434
  1444G12c C01W26719   7.466  10.947  12.801 -1.3800  0.2002 -2.0113
  1444G12c H00O26720   7.426  11.046  12.785 -4.3131  0.8203  6.6357
  1444G12c C01X26721   7.601  10.958  12.877 -0.6298 -0.4166 -0.6591
  1444G12c H00N26722   7.611  11.061  12.911 -3.0597  0.0564 -1.2849
  1444G12c H00M26723   7.571  10.915  12.972  3.0463  0.0769  0.8249
  1444G12c C01Y26724   7.711  10.877  12.826  0.0902 -0.8333  0.0795
  1444G12c C02D26725   7.736  10.872  12.692 -0.7037  1.5246 -1.1632
  1444G12c H01926726   7.654  10.912  12.634 -5.8798 -4.4855  1.4230
  1444G12c C02C26727   7.858  10.834  12.647  0.1609 -1.9986  0.1758
  1444G12c H01A26728   7.881  10.849  12.543  3.0316  1.9864  1.2813
  1444G12c C02B26729   7.953  10.790  12.737  0.7854  0.5594 -1.3099
  1444G12c O00E26730   8.078  10.796  12.677 -0.0932  1.4777 -0.3959
  1444G12c H01B26731   8.108  10.824  12.592  2.6355  1.6246  0.5705
  1444G12c C02F26732   7.922  10.761  12.870  0.8087  0.5712  0.5108
  1444G12c O00F26733   7.998  10.725  12.976  1.0029  1.1107  0.7905
  1444G12c C02G26734   8.111  10.637  12.960 -0.5120 -1.4841 -0.4612
  1444G12c H01726735   8.073  10.582  12.875 -1.8555 -3.4590  1.3510
  1444G12c H01626736   8.204  10.668  12.912 -0.7492  0.4747  0.2901
  1444G12c H01526737   8.142  10.564  13.035  2.8524  2.2379  2.0261
  1444G12c C02E26738   7.795  10.804  12.911  0.1613 -0.0015 -2.3493
  1444G12c H01826739   7.797  10.814  13.018  3.6870 -2.0701 -2.1386
  1444G12c C01F26740   7.419  10.497  12.727 -0.3777  0.2189 -0.1274
  1444G12c C01G26741   7.384  10.430  12.854 -0.8023 -0.5612 -1.1048
  1444G12c H00L26742   7.369  10.491  12.942  4.3290  2.6770 -2.2368
  1444G12c C01H26743   7.336  10.288  12.852  0.2473 -2.1013 -0.0349
  1444G12c H00B26744   7.265  10.250  12.925  1.2847  3.2405  4.1302
  1444G12c C01I26745   7.344  10.217  12.732 -1.1661  0.7600 -0.1141
  1444G12c C01U26746   7.428  10.406  12.616  2.6065  1.4171 -0.2881
  1444G12c C00S26747   7.141  10.446  12.152  1.8814 -2.0319 -0.8604
  1444G12c C00K26748   7.194  10.260  12.249 -0.2274 -1.8311  0.8137
  1444G12c C00N26749   7.385  10.473  12.500 -0.2501 -0.7368  1.0387
  1444G12c C00026750   7.415  10.263  12.617 -0.8850  2.0646 -0.0609
  1444G12c C01J26751   7.251  10.131  12.661  1.3635  0.5821  0.0550
  1444G12c C01K26752   7.198  10.004  12.703 -0.5878 -0.9926 -0.1006
  1444G12c C01P26753   7.238   9.922  12.810  0.5861 -1.6670 -2.5947
  1444G12c C01Q26754   7.362   9.937  12.865 -0.1733 -0.4475 -0.1641
  1444G12c H00G26755   7.421  10.019  12.827  0.9721 -3.7916 -6.0739
  1444G12c C01R26756   7.424   9.834  12.926 -0.7941 -0.6927 -1.0871
  1444G12c H00F26757   7.376   9.737  12.937  2.3180 -2.0583  1.0920
  1444G12c C01S26758   7.562   9.838  12.973  0.4097 -0.0873 -0.1051
  1444G12c H00E26759   7.591   9.733  12.978  5.6873  1.2008 -0.3791
  1444G12c H00D26760   7.628   9.901  12.912 -1.5583  0.7575 -1.3928
  1444G12c O00526761   7.573   9.893  13.109  0.6215  0.1840  0.1234
  1444G12c H00C26762   7.649   9.868  13.159  2.1679  6.2885  1.2133
  1444G12c C01O26763   7.134   9.837  12.858  0.2909 -0.3617  0.8221
  1444G12c H00H26764   7.145   9.763  12.936  1.1537  0.1319  1.1838
  1444G12c C01N26765   6.995   9.850  12.815  1.0466 -0.3961 -0.4157
  1444G12c O00626766   6.894   9.837  12.913 -0.6737 -0.9668 -1.5538
  1444G12c C01T26767   6.872   9.975  12.968 -0.0786  0.0807 -0.2810
  1444G12c H00K26768   6.810   9.962  13.057 -0.3821 -4.0705 -1.0244
  1444G12c H00J26769   6.813   9.998  12.879  0.7164  1.1143 -0.5501
  1444G12c H00I26770   6.936  10.057  13.003 -6.4116  6.5487 -2.5235
  1444G12c C01M26771   6.979   9.901  12.688  0.3067  1.0818  0.4857
  1444G12c C02026772   7.158  10.119  12.282 -1.7741  0.1684 -0.3424
  1444G12c C02126773   7.052  10.045  12.219 -0.8816 -0.3864  0.6994
  1444G12c C01L26774   7.078   9.976  12.622  0.1364  1.5897 -1.3998
  1444G12c O00726775   6.852   9.908  12.620  0.7853 -0.7938  0.2846
  1444G12c C02226776   6.983   9.953  12.284  0.3575 -0.7942  0.0551
  1444G12c C02326777   6.979  10.105  12.109  0.9362  1.5331 -1.3470
  1444G12c C00G26778   6.768  10.274  12.030 -0.3738 -0.1604 -1.3280
  1444G12c C00E26779   6.532  10.328  11.947 -0.4346 -1.9962  0.6001
  1444G12c O00A26780   6.426  10.404  11.908 -1.2750 -2.2972  0.5132
  1444G12c C02426781   6.336  10.369  11.800 -0.7523 -1.0529 -0.6081
  1444G12c H00V26782   6.303  10.266  11.817 -2.3615 -0.1674  1.8614
  1444G12c H00U26783   6.399  10.384  11.712  0.0110 -0.8955 -0.0418
  1444G12c H00T26784   6.249  10.433  11.789  2.0232  2.7442 -1.6151
  1454G12c C00D26785  11.020  12.490   8.007  0.0030 -0.6740 -0.3409
  1454G12c O00B26786  11.046  12.509   7.875  0.1435 -1.0158 -0.4829
  1454G12c C02526787  11.020  12.419   7.765  0.9149  0.5928  0.2028
  1454G12c C02626788  11.105  12.290   7.772  0.2032  2.2189 -1.0018
  1454G12c H00Y26789  11.079  12.209   7.703 -1.4761  0.7084  1.3603
  1454G12c H00X26790  11.072  12.255   7.869 -0.7074 -2.3658 -2.8491
  1454G12c O00C26791  11.224  12.345   7.764 -0.4716  1.1100 -0.8926
  1454G12c H00W26792  11.251  12.402   7.835  0.1413  3.3522 -2.8629
  1454G12c C02726793  10.921  12.457   7.688 -1.0476  0.4131 -0.1451
  1454G12c O00D26794  10.873  12.583   7.708 -0.8071 -0.0467 -1.0422
  1454G12c H00Z26795  10.905  12.586   7.797  2.1981 -2.8388 -1.9221
  1454G12c C02826796  10.889  12.367   7.570 -1.5081  1.6762 -0.4288
  1454G12c C02926797  10.859  12.220   7.598  1.0198  1.0900  0.1160
  1454G12c H01026798  10.860  12.218   7.706 -3.4813  3.2767  0.3308
  1454G12c C02T26799  10.810  12.136   7.491  2.2555 -2.6150 -0.7810
  1454G12c H01O26800  10.744  12.052   7.509 -4.2827  2.5657  1.6552
  1454G12c C02S26801  10.840  12.182   7.368 -0.3839 -0.0508  1.0778
  1454G12c O00J26802  10.784  12.105   7.266 -0.3773  1.0615 -1.5803
  1454G12c H01P26803  10.825  12.153   7.196  5.5379  0.7628  1.3826
  1454G12c C02R26804  10.902  12.298   7.332 -1.0587  0.3425 -0.3447
  1454G12c O00I26805  10.957  12.322   7.199  0.6807  1.2008 -1.0354
  1454G12c C02Q26806  11.050  12.202   7.171 -2.6204  0.3043  0.9815
  1454G12c H01N26807  11.149  12.240   7.198 -2.4973 -2.3824  4.6280
  1454G12c H01R26808  11.078  12.196   7.066  0.7671  1.1636  1.7581
  1454G12c H01Q26809  11.049  12.110   7.229 -0.3122 -0.7708 -0.6289
  1454G12c C02A26810  10.915  12.408   7.434  2.0122  0.8719 -0.0395
  1454G12c H01126811  10.954  12.509   7.423  4.6321 -0.3172 -2.4641
  1454G12c C00C26812  11.093  12.572   8.097 -0.3574 -0.4711  0.1791
  1454G12c H01226813  11.156  12.650   8.056 -3.7677  2.8810  1.0094
  1454G12c C00B26814  11.106  12.527   8.240 -0.2050 -0.9815  0.5992
  1454G12c C00A26815  11.163  12.611   8.349 -0.7465  1.5130 -1.8908
  1454G12c C00926816  11.312  12.628   8.347  0.5077  0.2362  1.4060
  1454G12c C00826817  11.402  12.662   8.242  1.0851 -1.0194 -0.0646
  1454G12c H01326818  11.375  12.652   8.138 -0.5111  2.1221 -0.0264
  1454G12c C00726819  11.551  12.685   8.285  1.4543 -0.3093  0.6209
  1454G12c H01426820  11.640  12.708   8.228  1.0580  1.2332  0.6096
  1454G12c C00626821  11.587  12.659   8.411 -2.3348  0.3490 -0.3808
  1454G12c C00526822  11.488  12.633   8.508 -0.0953  0.3466 -1.7834
  1454G12c C00426823  11.512  12.575   8.636  0.7193  3.2905 -1.6998
  1454G12c C00326824  11.406  12.538   8.727  0.7939  0.4572  1.9966
  1454G12c C00226825  11.444  12.476   8.847 -1.0008 -0.3533  0.2995
  1454G12c C00126826  11.356  12.418   8.957 -1.4938  2.2059  1.4193
  1454G12c C00M26827  11.270  12.311   8.903  0.8200 -0.9417 -0.3790
  1454G12c C00L26828  11.155  12.341   8.814 -2.6609  0.6957 -0.1888
  1454G12c C00R26829  11.051  12.248   8.790 -1.2445 -1.0249 -1.5735
  1454G12c C00Q26830  11.038  12.109   8.793 -1.4510  0.0738  0.4095
  1454G12c C00V26831  10.956  12.039   8.700  0.9807  2.1364 -1.4388
  1454G12c C00U26832  10.897  12.099   8.593  0.3374 -0.6270  1.3914
  1454G12c C00T26833  10.907  12.235   8.576  2.2324  0.1040  0.1031
  1454G12c C01626834  10.914  12.289   8.453  0.4384  0.6517  0.1695
  1454G12c C01526835  10.839  12.227   8.347  0.3741 -0.7974 -0.5829
  1454G12c C01026836  10.784  12.098   8.380  0.5518  1.7802  0.0230
  1454G12c C01126837  10.678  12.043   8.291 -0.2028 -0.5275 -0.1648
  1454G12c H00526838  10.613  11.961   8.318 -0.2258 -0.7213 -0.7927
  1454G12c C01226839  10.640  12.103   8.174  0.3301 -0.4738  1.4775
  1454G12c C01726840  10.550  12.037   8.073 -0.1269 -0.1591 -0.9749
  1454G12c O00226841  10.433  12.090   8.021  0.6566  1.1669  0.9700
  1454G12c H00426842  10.375  12.089   8.096  1.2673 -3.6134  1.5276
  1454G12c C01826843  10.605  11.943   7.999  0.5252 -0.1338  1.4287
  1454G12c O00126844  10.738  11.902   8.039 -0.2780  0.8226  0.3560
  1454G12c H00326845  10.752  11.809   8.040 -1.3888  0.6267 -0.8334
  1454G12c C01926846  10.551  11.848   7.899 -0.8947 -1.9355 -0.2556
  1454G12c H00226847  10.510  11.753   7.934  3.2292 -3.9667 -0.6064
  1454G12c H00126848  10.472  11.886   7.834 -2.8147  0.1821  3.1876
  1454G12c O00026849  10.643  11.786   7.816 -0.5941  0.4338  1.2694
  1454G12c C01A26850  10.690  11.659   7.821  1.5570  1.3468  0.8016
  1454G12c C02K26851  10.702  11.586   7.951  0.7679  0.4650 -1.0354
  1454G12c O00G26852  10.721  11.664   8.072 -0.0673 -0.3669 -0.5761
  1454G12c C02M26853  10.733  11.592   8.185  0.9953  0.3646 -0.2575
  1454G12c H01G26854  10.831  11.545   8.197 -2.4890 -6.9910  2.3794
  1454G12c H01F26855  10.744  11.679   8.250 -5.0364 -1.8312  4.1974
  1454G12c H01E26856  10.645  11.532   8.209  0.2342  0.6262 -2.3470
  1454G12c C02J26857  10.761  11.463   7.935  0.0709  1.1486 -1.1462
  1454G12c H01H26858  10.759  11.398   8.021 -0.3402 -1.3251 -2.9852
  1454G12c C02I26859  10.781  11.398   7.809 -0.4914  0.4523  0.1415
  1454G12c C02N26860  10.827  11.256   7.803 -0.5557  0.4176  1.4623
  1454G12c H01M26861  10.746  11.185   7.800 -0.3044 -0.2080  5.5920
  1454G12c C02O26862  10.951  11.216   7.825  0.3959  1.2415  0.1911
  1454G12c H01L26863  11.028  11.283   7.861 -1.1230 -0.0199  6.3684
  1454G12c C02P26864  11.006  11.083   7.796  1.1499 -0.0411 -0.3383
  1454G12c H01K26865  10.950  11.021   7.726  6.4666 -3.7481 -1.6103
  1454G12c H01J26866  11.102  11.077   7.746 -1.0036 -2.5773 -4.4122
  1454G12c O00H26867  10.965  10.998   7.896  0.5614  0.8897  1.1788
  1454G12c H01I26868  10.934  10.916   7.860 -0.0979  1.6524 -0.0150
  1454G12c C02H26869  10.792  11.473   7.708  0.4675 -0.0883  0.7917
  1454G12c H01C26870  10.836  11.433   7.619  0.5829 -1.4675  1.4560
  1454G12c C02L26871  10.743  11.608   7.697 -0.1715  1.4911 -1.9988
  1454G12c H01D26872  10.742  11.655   7.600 -1.3448 -0.0753 -2.7485
  1454G12c C01326873  10.730  12.207   8.144  0.7723  1.0648  1.3301
  1454G12c H00026874  10.733  12.225   8.037  5.6901 -1.0723  0.9497
  1454G12c C01426875  10.818  12.283   8.221 -0.5633 -1.0894 -0.2628
  1454G12c C00F26876  10.915  12.379   8.185  1.5867 -0.5848  1.5062
  1454G12c C00H26877  10.988  12.403   8.413 -0.1503 -0.0583  0.5336
  1454G12c C00I26878  11.048  12.478   8.510  1.0677  0.3351 -1.6011
  1454G12c C00J26879  11.066  12.410   8.634  1.2200  0.3297 -0.2535
  1454G12c C00Z26880  10.824  12.035   8.504 -1.0877  0.9972 -2.2577
  1454G12c C00Y26881  10.768  11.907   8.547  2.3963  1.2148 -0.4830
  1454G12c H00626882  10.679  11.869   8.499  3.8590 -1.2354 -1.3660
  1454G12c C00X26883  10.805  11.850   8.669 -0.7280  0.9527  0.1102
  1454G12c O00326884  10.760  11.722   8.690 -0.9497 -1.7511  2.0153
  1454G12c C01B26885  10.655  11.668   8.630 -1.4112 -0.0400  0.1654
  1454G12c H00926886  10.661  11.664   8.522 -5.6382 -0.9666 -0.1196
  1454G12c H00826887  10.654  11.580   8.695 -4.8691  2.3127  3.5240
  1454G12c H00726888  10.559  11.717   8.645  0.3338  3.2389  1.3833
  1454G12c C00W26889  10.902  11.908   8.743  0.5385  0.2399  1.5417
  1454G12c O00426890  10.953  11.851   8.851  0.2547 -0.6688 -1.6251
  1454G12c C01C26891  11.058  11.903   8.917  1.0137  1.3063 -1.5592
  1454G12c H00A26892  11.099  11.835   8.990 -2.9583  2.8456  2.3886
  1454G12c C00P26893  11.113  12.032   8.875  0.3896  0.1155  1.0844
  1454G12c C00O26894  11.248  12.063   8.926  0.1861 -1.7227  0.4743
  1454G12c C01D26895  11.330  11.957   8.982  1.7897  0.7514  1.9565
  1454G12c H00S26896  11.294  11.855   8.979  5.1663 -0.6651 -6.2061
  1454G12c C01E26897  11.463  11.987   9.004 -0.0489 -0.0339 -0.4400
  1454G12c O00826898  11.558  11.878   8.997  2.4958 -0.2518 -1.2514
  1454G12c C01V26899  11.509  11.760   8.954  0.5576  0.2385 -0.3670
  1454G12c C01Z26900  11.445  11.657   9.044  1.5900 -0.7337 -3.3542
  1454G12c H00R26901  11.391  11.713   9.120  5.8486 -0.7645 -0.1158
  1454G12c H00Q26902  11.370  11.580   9.027  0.8699 -0.9018  0.2272
  1454G12c O00926903  11.537  11.588   9.115  0.0271  1.0979  0.1773
  1454G12c H00P26904  11.617  11.630   9.087 -0.5111  2.3735  0.5047
  1454G12c C01W26905  11.532  11.712   8.836 -1.4284  1.3600  1.8513
  1454G12c H00O26906  11.594  11.754   8.758 -2.3587  4.9869  2.9719
  1454G12c C01X26907  11.453  11.602   8.772 -1.1265 -1.5316 -0.0474
  1454G12c H00N26908  11.552  11.563   8.750  0.8258  1.1659  3.4100
  1454G12c H00M26909  11.403  11.541   8.848 -3.2901 -1.5954 -1.4716
  1454G12c C01Y26910  11.352  11.660   8.689 -0.5775 -0.7943 -0.0373
  1454G12c C02D26911  11.210  11.666   8.723  0.2719 -0.2801 -0.6592
  1454G12c H01926912  11.167  11.651   8.820  3.5313 -1.6711  0.6449
  1454G12c C02C26913  11.119  11.684   8.629 -0.1724 -0.2380 -1.9601
  1454G12c H01A26914  11.014  11.700   8.647  0.4492 -1.1186  3.4766
  1454G12c C02B26915  11.160  11.736   8.500  1.2602 -0.9183 -1.5349
  1454G12c O00E26916  11.059  11.754   8.410 -0.4354  0.7279 -0.6629
  1454G12c H01B26917  11.119  11.806   8.358 -2.5957  7.2574  2.8046
  1454G12c C02F26918  11.300  11.726   8.472 -2.1993 -0.6533  0.0198
  1454G12c O00F26919  11.312  11.767   8.342 -0.6689 -1.6035  0.0563
  1454G12c C02G26920  11.423  11.843   8.304 -0.2065  0.8110 -0.9298
  1454G12c H01726921  11.503  11.769   8.306 -1.4554 -0.5972 -2.0128
  1454G12c H01626922  11.430  11.922   8.379  3.2100 -1.9891  1.8318
  1454G12c H01526923  11.431  11.893   8.207  4.7132  1.3874 -0.3409
  1454G12c C02E26924  11.379  11.690   8.561  0.3538 -0.8530  0.5188
  1454G12c H01826925  11.485  11.687   8.537 -0.0259 -5.0738 -1.2368
  1454G12c C01F26926  11.513  12.118   9.021  0.1181 -0.6948  0.0282
  1454G12c C01G26927  11.649  12.156   9.068 -0.7155  0.7194  0.9000
  1454G12c H00L26928  11.738  12.094   9.057 -2.7692 -1.6985 -3.4271
  1454G12c C01H26929  11.681  12.296   9.043  0.2905  2.4078 -0.7343
  1454G12c H00B26930  11.780  12.308   9.001  3.1200 -1.0424  4.4027
  1454G12c C01I26931  11.575  12.386   9.001 -0.6737 -0.0237 -0.1928
  1454G12c C01U26932  11.427  12.223   9.001  0.4748 -0.5189  0.4278
  1454G12c C00S26933  10.987  12.304   8.679  0.7764  0.5165  0.8495
  1454G12c C00K26934  11.161  12.451   8.726  0.6248  0.9985  0.9538
  1454G12c C00N26935  11.300  12.191   8.950 -1.0529  1.0230 -0.1288
  1454G12c C00026936  11.447  12.357   9.038 -0.2299 -1.6923  0.2829
  1454G12c C01J26937  11.581  12.497   8.885  3.0782 -2.3548 -0.6634
  1454G12c C01K26938  11.693  12.522   8.797 -0.1576 -0.9121 -1.8388
  1454G12c C01P26939  11.826  12.570   8.825 -0.2131  0.1900  0.2471
  1454G12c C01Q26940  11.865  12.586   8.966 -0.3879  0.2585  0.2256
  1454G12c H00G26941  11.794  12.637   9.029  0.3176 -2.4643  3.3368
  1454G12c C01R26942  11.981  12.543   9.015 -1.3714  1.2670 -2.2134
  1454G12c H00F26943  12.048  12.509   8.936  1.8364  0.9562  0.5190
  1454G12c C01S26944  12.010  12.538   9.173 -0.5622  0.5166  1.4930
  1454G12c H00E26945  12.046  12.640   9.164 -1.2267  0.9391  3.4639
  1454G12c H00D26946  11.903  12.519   9.188 -1.2701  5.1979  3.4629
  1454G12c O00526947  12.087  12.430   9.220 -1.4306  1.3233  0.1097
  1454G12c H00C26948  12.149  12.462   9.283  0.4654 -3.6721  1.0588
  1454G12c C01O26949  11.917  12.602   8.729  0.9440  0.8237 -0.6099
  1454G12c H00H26950  12.023  12.609   8.748  1.1507 -7.4382  3.2134
  1454G12c C01N26951  11.881  12.618   8.599 -0.4780 -0.9644  0.0394
  1454G12c O00626952  11.978  12.641   8.510 -0.7131 -0.9509  1.4752
  1454G12c C01T26953  12.049  12.520   8.472 -0.1877 -0.3368  0.6125
  1454G12c H00K26954  12.110  12.509   8.383 -3.6046 -0.5082 -1.7696
  1454G12c H00J26955  12.108  12.498   8.561  2.2577  3.2919 -0.0127
  1454G12c H00I26956  11.992  12.430   8.450  0.2859 -1.9328  5.3172
  1454G12c C01M26957  11.744  12.608   8.573  0.6697  0.1084 -0.9232
  1454G12c C02026958  11.273  12.531   8.666  0.7667 -1.1552  0.1053
  1454G12c C02126959  11.247  12.611   8.560 -0.8845  0.7156  0.2131
  1454G12c C01L26960  11.645  12.574   8.677  0.6953 -0.0320  0.6797
  1454G12c O00726961  11.718  12.646   8.446 -0.1421 -1.0038 -2.3423
  1454G12c C02226962  11.352  12.660   8.476 -0.7160 -1.2522 -0.0433
  1454G12c C02326963  11.117  12.589   8.485  0.2255 -1.1102  2.0230
  1454G12c C00G26964  11.002  12.442   8.277 -0.1820 -0.0907  1.4765
  1454G12c C00E26965  10.912  12.423   8.048  0.4884  0.7582 -1.2358
  1454G12c O00A26966  10.797  12.431   7.972 -1.2741 -0.4082  1.0220
  1454G12c C02426967  10.674  12.494   8.007 -2.6574  0.0347 -0.4734
  1454G12c H00V26968  10.604  12.497   7.924  2.4760  2.7410 -4.9867
  1454G12c H00U26969  10.701  12.595   8.036 -4.4588  0.8645 -1.6190
  1454G12c H00T26970  10.640  12.468   8.108 -1.0311 -1.2212 -0.2279
  1464G12c C00D26971   3.069   8.755  10.770 -0.7051  1.6968 -1.5086
  1464G12c O00B26972   2.993   8.760  10.893 -0.0554  0.0969 -0.0085
  1464G12c C02526973   2.857   8.735  10.875 -2.4171  0.0813  0.5653
  1464G12c C02626974   2.834   8.582  10.878 -0.1358 -1.3119  0.6825
  1464G12c H00Y26975   2.817   8.570  10.771-12.3353  4.0316  1.1629
  1464G12c H00X26976   2.756   8.551  10.948  2.8905  2.7754  6.2709
  1464G12c O00C26977   2.954   8.514  10.922 -0.6434 -0.6489 -0.1401
  1464G12c H00W26978   3.024   8.556  10.970  1.4041  4.8567 -6.9501
  1464G12c C02726979   2.776   8.828  10.850  0.0362 -1.5053  2.1897
  1464G12c O00D26980   2.810   8.960  10.835  0.3203 -0.3751  0.2993
  1464G12c H00Z26981   2.904   8.964  10.840  0.2416  3.7316 -0.1837
  1464G12c C02826982   2.647   8.798  10.835 -2.3955 -0.7366  0.6860
  1464G12c C02926983   2.567   8.788  10.947 -0.7059 -0.8796 -0.4032
  1464G12c H01026984   2.605   8.789  11.048 -3.3098  1.6704  0.6149
  1464G12c C02T26985   2.431   8.735  10.929 -0.6941  0.4600  0.6976
  1464G12c H01O26986   2.386   8.714  11.025  2.8174  0.3126  2.4002
  1464G12c C02S26987   2.393   8.717  10.799  1.9000 -0.1193 -0.0030
  1464G12c O00J26988   2.270   8.653  10.782 -0.1025  1.0436  0.4046
  1464G12c H01P26989   2.270   8.609  10.698  8.1222  0.5847  0.1765
  1464G12c C02R26990   2.471   8.734  10.685 -0.6278  0.1206 -1.4912
  1464G12c O00I26991   2.420   8.711  10.561 -0.2016 -1.2963  0.8118
  1464G12c C02Q26992   2.349   8.833  10.536  0.1156  1.7257  0.0494
  1464G12c H01N26993   2.429   8.882  10.480 -0.4477  1.1258 -1.3058
  1464G12c H01R26994   2.256   8.822  10.480  1.3613  2.5240 -2.2686
  1464G12c H01Q26995   2.341   8.906  10.616  0.0640 -5.8460  7.5938
  1464G12c C02A26996   2.599   8.765  10.707  2.9528 -0.7926 -2.1801
  1464G12c H01126997   2.649   8.723  10.621 -2.8772  2.4932 -7.5502
  1464G12c C00C26998   3.073   8.657  10.676  1.0740  0.4930  0.2959
  1464G12c H01226999   3.018   8.566  10.654  0.5798  0.7364  0.5210
  1464G12c C00B27000   3.182   8.635  10.603 -0.1326  0.7511 -1.2697
  1464G12c C00A27001   3.218   8.506  10.548  0.7125  2.1976 -0.4350
  1464G12c C00927002   3.257   8.389  10.627  0.9314 -1.5111 -1.7067
  1464G12c C00827003   3.232   8.380  10.769  0.5123  1.2424 -0.3131
  1464G12c H01327004   3.160   8.440  10.823 -1.3868 -2.9084  2.0233
  1464G12c C00727005   3.293   8.251  10.826  1.0250  0.2357  0.7178
  1464G12c H01427006   3.262   8.238  10.928 -4.3992  1.5428 -0.6090
  1464G12c C00627007   3.385   8.153  10.753 -1.3481  0.3188 -0.3631
  1464G12c C00527008   3.418   8.205  10.629  0.6394 -0.5049 -1.0108
  1464G12c C00427009   3.516   8.150  10.537  0.1018 -0.7604  1.0370
  1464G12c C00327010   3.559   8.219  10.421 -0.7110 -0.4008  0.0268
  1464G12c C00227011   3.698   8.168  10.373  1.2890  0.1193  1.2975
  1464G12c C00127012   3.792   8.230  10.278  0.0672 -0.9917  0.1649
  1464G12c C00M27013   3.825   8.373  10.289 -0.7286 -1.9461  0.7598
  1464G12c C00L27014   3.736   8.475  10.310 -0.2544 -0.4417 -0.2745
  1464G12c C00R27015   3.760   8.615  10.341  0.8349 -1.4511  0.5430
  1464G12c C00Q27016   3.885   8.684  10.359  0.8221  0.8053  1.7741
  1464G12c C00V27017   3.860   8.802  10.435 -0.7108 -0.2479  0.1306
  1464G12c C00U27018   3.731   8.852  10.467 -1.2751 -0.1336 -0.3620
  1464G12c C00T27019   3.617   8.779  10.459  0.2126  0.5591 -0.1844
  1464G12c C01627020   3.495   8.803  10.518 -0.1106  0.4089 -0.4051
  1464G12c C01527021   3.482   8.918  10.573  0.9155 -0.4045 -0.5498
  1464G12c C01027022   3.586   9.002  10.584 -1.3104  1.0419  0.0406
  1464G12c C01127023   3.565   9.137  10.631  1.5597 -2.5234 -0.2612
  1464G12c H00527024   3.641   9.213  10.648 -1.8986  0.2416  3.7236
  1464G12c C01227025   3.444   9.192  10.664 -1.0208  1.2854 -1.3960
  1464G12c C01727026   3.418   9.335  10.714 -0.0161 -0.6887  0.8032
  1464G12c O00227027   3.477   9.398  10.825 -0.1260  0.2234 -0.2225
  1464G12c H00427028   3.386   9.418  10.837  0.2589  4.5323 -3.2088
  1464G12c C01827029   3.303   9.402  10.682  1.2131  0.7445  0.5143
  1464G12c O00127030   3.250   9.490  10.789 -0.2556  0.9704  0.6573
  1464G12c H00327031   3.172   9.537  10.767 -0.6131  1.1807  2.2595
  1464G12c C01927032   3.208   9.384  10.562  0.4774  0.6766 -0.2491
  1464G12c H00227033   3.274   9.392  10.476  3.0414  4.1554  1.8886
  1464G12c H00127034   3.143   9.298  10.547  0.5295  1.2832 -4.2532
  1464G12c O00027035   3.111   9.500  10.528 -0.0474  0.2784  0.4228
  1464G12c C01A27036   3.155   9.618  10.524 -0.5606 -0.5157 -0.1005
  1464G12c C02K27037   3.059   9.724  10.513  0.4720 -0.0653  0.9555
  1464G12c O00G27038   2.916   9.710  10.515 -0.2409  0.5932 -1.0485
  1464G12c C02M27039   2.853   9.604  10.439 -0.2938  0.1397 -1.0913
  1464G12c H01G27040   2.746   9.606  10.418  0.0218  4.7278 -2.7642
  1464G12c H01F27041   2.865   9.506  10.487  2.1670  0.6365 -0.6081
  1464G12c H01E27042   2.882   9.595  10.335  1.2733  0.4699 -0.6945
  1464G12c C02J27043   3.106   9.854  10.531  0.7449 -0.6209 -0.5175
  1464G12c H01H27044   3.033   9.932  10.550  1.0781 -0.1473 -1.1719
  1464G12c C02I27045   3.234   9.894  10.545 -0.8637 -0.9282 -1.8101
  1464G12c C02N27046   3.264  10.029  10.573  0.7643  1.3798  0.6596
  1464G12c H01M27047   3.306  10.055  10.670 -3.0493 -2.7928  3.6137
  1464G12c C02O27048   3.255  10.116  10.466  1.6853 -0.7675 -1.4935
  1464G12c H01L27049   3.228  10.088  10.366  2.7761  7.5905 -4.5021
  1464G12c C02P27050   3.182  10.237  10.503 -0.9572  0.0207  0.0462
  1464G12c H01K27051   3.146  10.246  10.606 -1.8230 -0.3084 -0.2205
  1464G12c H01J27052   3.256  10.315  10.488  1.5441 -2.1062  0.9677
  1464G12c O00H27053   3.068  10.254  10.405  0.5049  1.1518 -0.6625
  1464G12c H01I27054   3.015  10.184  10.370  0.7388  1.0304 -0.7747
  1464G12c C02H27055   3.334   9.796  10.533  1.2361  1.1896 -0.7368
  1464G12c H01C27056   3.430   9.833  10.568 -0.6995  4.1196  1.7010
  1464G12c C02L27057   3.299   9.657  10.517  1.3721  0.0259 -0.9259
  1464G12c H01D27058   3.377   9.582  10.521  3.7000  2.4326 -0.0523
  1464G12c C01327059   3.342   9.090  10.683 -1.2939 -0.6372  0.7631
  1464G12c H00027060   3.242   9.130  10.697 -0.2951  1.5044  2.1266
  1464G12c C01427061   3.366   8.947  10.638 -1.6581 -1.4520 -0.0221
  1464G12c C00F27062   3.272   8.848  10.654 -0.2204 -1.0052 -0.9706
  1464G12c C00H27063   3.385   8.710  10.499  0.7259 -0.4244  0.0440
  1464G12c C00I27064   3.404   8.601  10.418 -0.0256  0.6403 -1.7882
  1464G12c C00J27065   3.527   8.589  10.354 -1.5267 -1.3024  0.7620
  1464G12c C00Z27066   3.712   8.960  10.547 -0.6331 -0.9663  1.2482
  1464G12c C00Y27067   3.828   9.012  10.604 -0.0812  0.1621  1.0440
  1464G12c H00627068   3.808   9.061  10.699  3.4283 -0.1470  2.0085
  1464G12c C00X27069   3.950   8.981  10.569 -1.1644  0.3549  0.9175
  1464G12c O00327070   4.067   9.036  10.594  0.1591  0.4744  1.1825
  1464G12c C01B27071   4.065   9.177  10.585  0.8998 -1.5868  1.4056
  1464G12c H00927072   4.167   9.212  10.573  0.3241 -0.8796 -1.7827
  1464G12c H00827073   4.017   9.198  10.489  1.6430  1.2181  1.6151
  1464G12c H00727074   4.041   9.207  10.687 -4.4707  4.7055 -1.2727
  1464G12c C00W27075   3.971   8.878  10.479 -2.2489  0.1983  1.0540
  1464G12c O00427076   4.089   8.868  10.415 -0.8424 -0.6569 -0.5709
  1464G12c C01C27077   4.116   8.734  10.396 -1.6539  0.7407 -0.0059
  1464G12c H00A27078   4.201   8.680  10.356 -5.5776 -2.5063 -4.5497
  1464G12c C00P27079   4.022   8.629  10.373 -0.2404 -1.7071  2.6124
  1464G12c C00O27080   4.053   8.485  10.380  0.3010  1.3083 -0.6026
  1464G12c C01D27081   4.189   8.449  10.417  0.8106  0.2682  1.4226
  1464G12c H00S27082   4.264   8.517  10.454  0.9707 -0.6627  2.8487
  1464G12c C01E27083   4.236   8.312  10.440 -0.1137  1.6811  1.5675
  1464G12c O00827084   4.370   8.288  10.455 -0.0052  0.1150 -0.5605
  1464G12c C01V27085   4.438   8.168  10.416 -0.5873 -0.1810 -0.6955
  1464G12c C01Z27086   4.513   8.109  10.527 -1.3779 -0.7827 -1.6311
  1464G12c H00R27087   4.607   8.162  10.542 -0.5681 -0.2466 -7.4704
  1464G12c H00Q27088   4.526   8.002  10.516  1.3552 -0.0683 -7.0519
  1464G12c O00927089   4.436   8.118  10.634 -1.9206  0.2693  0.4154
  1464G12c H00P27090   4.402   8.206  10.640 -2.8858 -0.2773  4.7129
  1464G12c C01W27091   4.437   8.125  10.282 -0.5052  0.7290 -1.4209
  1464G12c H00O27092   4.408   8.213  10.226 -1.4364 -0.6333 -3.1074
  1464G12c C01X27093   4.464   7.987  10.244 -0.4177 -1.7537  0.6499
  1464G12c H00N27094   4.475   7.930  10.336 -2.8113  1.8285  3.2700
  1464G12c H00M27095   4.392   7.914  10.207 -4.4249  1.9848  0.5992
  1464G12c C01Y27096   4.565   7.988  10.140 -1.1167 -0.0993 -0.9092
  1464G12c C02D27097   4.712   7.956  10.162  0.3793  1.1779 -0.6475
  1464G12c H01927098   4.754   7.914  10.252 -1.3245 -3.5801 -1.9316
  1464G12c C02C27099   4.806   7.960  10.065  0.4361 -0.5311 -0.4176
  1464G12c H01A27100   4.909   7.935  10.088  2.7186  2.5760 -6.2129
  1464G12c C02B27101   4.770   8.030   9.935  0.0935  0.0065  0.3109
  1464G12c O00E27102   4.861   8.086   9.847  0.3333  1.2147  0.7786
  1464G12c H01B27103   4.821   8.099   9.763 -3.8997 -2.4634  2.0330
  1464G12c C02F27104   4.628   8.043   9.908 -0.5379 -0.6766  0.9709
  1464G12c O00F27105   4.587   8.112   9.790 -0.9921 -1.6207 -0.9936
  1464G12c C02G27106   4.449   8.173   9.792  0.4944  0.7257  0.3186
  1464G12c H01727107   4.435   8.218   9.695 -2.1143  2.5462  1.4959
  1464G12c H01627108   4.418   8.218   9.887 -3.9909 -4.8646  1.8091
  1464G12c H01527109   4.372   8.096   9.786 -2.9072  4.0252 -0.1638
  1464G12c C02E27110   4.533   8.013  10.011 -0.2423  0.6661  0.4344
  1464G12c H01827111   4.427   8.026   9.996 -0.5505 -0.1758  1.8334
  1464G12c C01F27112   4.128   8.206  10.413 -1.2907  0.7438 -0.5404
  1464G12c C01G27113   4.130   8.078  10.457 -0.4695 -0.1103  0.2610
  1464G12c H00L27114   4.217   8.015  10.456  0.7246  1.4869  0.3931
  1464G12c C01H27115   4.000   8.003  10.469 -1.0939  1.6339 -2.4507
  1464G12c H00B27116   4.003   7.916  10.533  3.2906  5.4670  3.0962
  1464G12c C01I27117   3.884   8.038  10.408 -0.9784 -0.6577  0.3503
  1464G12c C01U27118   4.021   8.240  10.343 -1.0768 -0.2423  1.4417
  1464G12c C00S27119   3.635   8.683  10.356 -1.7605  1.1610  1.3123
  1464G12c C00K27120   3.601   8.450  10.336  1.5441  0.9584  0.1297
  1464G12c C00N27121   3.965   8.379  10.332 -0.7069 -0.0542  0.6882
  1464G12c C00027122   3.916   8.146  10.317  0.2391  0.1339 -0.1186
  1464G12c C01J27123   3.740   8.045  10.423  0.7361  0.8060  0.5893
  1464G12c C01K27124   3.675   7.945  10.499 -0.4386  0.1093 -1.7127
  1464G12c C01P27125   3.693   7.808  10.549 -0.5976 -0.3371  0.1299
  1464G12c C01Q27126   3.765   7.701  10.485 -0.2445 -0.9424 -0.4320
  1464G12c H00G27127   3.819   7.621  10.532 -3.7112 -2.9528  0.3258
  1464G12c C01R27128   3.803   7.711  10.351 -0.9674 -1.1106  0.3263
  1464G12c H00F27129   3.757   7.792  10.296 -2.2772 -0.6357  2.0844
  1464G12c C01S27130   3.899   7.624  10.262 -1.2171  0.7436 -1.5031
  1464G12c H00E27131   3.949   7.566  10.340 -5.6671 -0.0870  0.9043
  1464G12c H00D27132   3.983   7.686  10.232  2.3361 -1.0516  3.9397
  1464G12c O00527133   3.843   7.548  10.160 -0.1697  0.1946  0.8130
  1464G12c H00C27134   3.902   7.474  10.153 -4.1434 -2.7079 -6.3330
  1464G12c C01O27135   3.637   7.768  10.667 -1.0723 -1.4269  0.0146
  1464G12c H00H27136   3.642   7.663  10.692  1.9426 -1.8399 -2.1095
  1464G12c C01N27137   3.562   7.855  10.745  0.5314 -0.5905 -1.3882
  1464G12c O00627138   3.474   7.803  10.836  0.1404 -0.1484 -1.2876
  1464G12c C01T27139   3.512   7.675  10.917 -1.0882 -1.1313  0.6057
  1464G12c H00K27140   3.539   7.712  11.015  0.0356  0.5235 -0.3021
  1464G12c H00J27141   3.578   7.596  10.880  3.6825  4.5176 -3.9476
  1464G12c H00I27142   3.416   7.626  10.935  0.9043 -4.0811  3.5218
  1464G12c C01M27143   3.528   7.975  10.697 -1.0737 -0.5954 -1.2719
  1464G12c C02027144   3.509   8.352  10.385 -1.5379 -0.3302 -0.5421
  1464G12c C02127145   3.376   8.368  10.432  0.9891 -0.0904  0.4728
  1464G12c C01L27146   3.587   8.030  10.582  1.6340  1.3580 -1.4909
  1464G12c O00727147   3.461   8.044  10.801  0.7449 -0.1181  0.0555
  1464G12c C02227148   3.348   8.317  10.559  0.5999  0.0625  0.5740
  1464G12c C02327149   3.314   8.502  10.438 -0.7119  0.2723 -0.0298
  1464G12c C00G27150   3.276   8.740  10.576 -0.9535  0.1784 -2.0937
  1464G12c C00E27151   3.170   8.858  10.755 -0.0723  0.7535  0.1334
  1464G12c O00A27152   3.144   8.975  10.832  0.0828  0.7561 -0.1663
  1464G12c C02427153   3.221   8.952  10.947  1.5349 -0.4804  0.0411
  1464G12c H00V27154   3.283   9.040  10.967  0.9448 -1.1433  5.3816
  1464G12c H00U27155   3.255   8.850  10.931 -3.1274 -2.7527  3.5748
  1464G12c H00T27156   3.129   8.940  11.003  2.5064 -1.0697  1.5527
  1474G12c C00D27157   8.881   3.196   8.861  1.7816 -1.8698  0.0321
  1474G12c O00B27158   8.837   3.082   8.926 -1.9554 -0.5940 -0.3719
  1474G12c C02527159   8.757   3.011   8.844 -0.0380 -0.0034 -0.6785
  1474G12c C02627160   8.807   2.971   8.709 -0.4672 -1.1368  1.4642
  1474G12c H00Y27161   8.722   2.923   8.660 -1.0810  0.8603  0.4943
  1474G12c H00X27162   8.876   2.893   8.738  5.3245  4.0342  2.7375
  1474G12c O00C27163   8.861   3.059   8.614  0.5560  0.2002  0.2845
  1474G12c H00W27164   8.883   3.010   8.536  0.7554  3.8861 -2.1015
  1474G12c C02727165   8.646   2.979   8.907 -2.3678  1.4090 -0.0630
  1474G12c O00D27166   8.636   3.000   9.049 -0.3161 -1.2428  1.3511
  1474G12c H00Z27167   8.552   2.960   9.064 -0.0530 -2.1728  0.3961
  1474G12c C02827168   8.538   2.911   8.842 -0.9336  0.7842 -1.1500
  1474G12c C02927169   8.514   2.771   8.887  0.0870  0.3258  0.0801
  1474G12c H01027170   8.581   2.733   8.963  1.7202 -1.7404 -2.2681
  1474G12c C02T27171   8.384   2.719   8.849 -0.8829 -0.4539  0.5421
  1474G12c H01O27172   8.349   2.622   8.882  0.3448 -1.6899 -1.6704
  1474G12c C02S27173   8.291   2.782   8.773 -0.1874  0.0537  0.8224
  1474G12c O00J27174   8.176   2.732   8.741 -0.7232 -1.1777 -0.0194
  1474G12c H01P27175   8.120   2.791   8.692 -1.9067 -1.1705  1.3198
  1474G12c C02R27176   8.326   2.906   8.716 -2.0474  0.3568  2.2597
  1474G12c O00I27177   8.218   2.961   8.647 -0.5598 -0.1693 -0.4045
  1474G12c C02Q27178   8.216   2.927   8.510  0.8783 -0.2916  1.2725
  1474G12c H01N27179   8.273   2.840   8.479  1.2105 -1.4615  4.8929
  1474G12c H01R27180   8.120   2.942   8.460 -0.0313 -1.0581  2.7580
  1474G12c H01Q27181   8.250   3.017   8.459 -5.6833  3.4245  2.7818
  1474G12c C02A27182   8.452   2.968   8.754  0.9519 -0.9472 -1.7061
  1474G12c H01127183   8.461   3.069   8.719  0.1836 -0.2949 -0.0470
  1474G12c C00C27184   8.794   3.282   8.799  0.7605  0.6717  2.5584
  1474G12c H01227185   8.688   3.264   8.785  0.2822  3.8201  1.8207
  1474G12c C00B27186   8.846   3.386   8.708 -0.4789  1.1458  0.3940
  1474G12c C00A27187   8.782   3.457   8.598 -1.1759 -1.5711  0.0200
  1474G12c C00927188   8.705   3.395   8.476 -2.2674 -2.0516 -0.9751
  1474G12c C00827189   8.624   3.281   8.435  0.0337  0.7646  0.9858
  1474G12c H01327190   8.604   3.228   8.527  6.2833  2.4230  3.5647
  1474G12c C00727191   8.573   3.269   8.302 -0.4496  1.7808  0.3061
  1474G12c H01427192   8.503   3.192   8.273  2.3633 -0.5285 -0.4860
  1474G12c C00627193   8.602   3.366   8.201 -0.1296  1.3769  1.2664
  1474G12c C00527194   8.665   3.488   8.246  1.2116 -0.2135  0.5729
  1474G12c C00427195   8.718   3.581   8.155 -0.5304 -1.5612 -0.2784
  1474G12c C00327196   8.805   3.689   8.187 -0.0026 -0.7133 -0.9800
  1474G12c C00227197   8.873   3.766   8.093  0.2756  1.1236  1.8512
  1474G12c C00127198   8.963   3.859   8.083  0.3630 -1.1878  1.3230
  1474G12c C00M27199   9.081   3.865   8.161  0.6153 -0.8303 -0.3408
  1474G12c C00L27200   9.085   3.844   8.306 -1.5269  1.4503 -0.5459
  1474G12c C00R27201   9.209   3.798   8.368  1.2210 -0.5357 -0.0922
  1474G12c C00Q27202   9.349   3.773   8.325 -1.6012  0.7670 -0.4189
  1474G12c C00V27203   9.428   3.693   8.425 -0.6900 -0.2996 -2.0675
  1474G12c C00U27204   9.373   3.650   8.557  0.6034 -1.2396  0.4252
  1474G12c C00T27205   9.237   3.664   8.585 -0.7627  0.1688 -0.4237
  1474G12c C01627206   9.164   3.587   8.675 -0.6435  1.0331  1.2342
  1474G12c C01527207   9.239   3.526   8.765  2.5164  0.5301  1.2842
  1474G12c C01027208   9.386   3.538   8.765  1.0958 -1.3193 -0.7372
  1474G12c C01127209   9.448   3.518   8.890 -0.8436 -0.3831  1.6567
  1474G12c H00527210   9.556   3.517   8.895 -0.5250  6.2602  0.6669
  1474G12c C01227211   9.393   3.434   8.995  1.0514  0.1521  0.9652
  1474G12c C01727212   9.460   3.377   9.106  0.1374  0.2025 -1.4013
  1474G12c O00227213   9.478   3.245   9.125 -0.9633 -1.0272 -0.0013
  1474G12c H00427214   9.526   3.206   9.197  3.9387  2.0175 -1.3780
  1474G12c C01827215   9.522   3.471   9.183  1.9905 -0.6475 -0.8838
  1474G12c O00127216   9.506   3.604   9.172 -1.9194 -0.1837  0.0642
  1474G12c H00327217   9.461   3.594   9.089  1.7746  2.4098 -2.3928
  1474G12c C01927218   9.615   3.449   9.284 -0.8050  1.6555 -0.6684
  1474G12c H00227219   9.706   3.495   9.245 -1.9282  3.1038 -1.5967
  1474G12c H00127220   9.586   3.453   9.388 -2.2983 -4.5822 -0.6112
  1474G12c O00027221   9.714   3.353   9.270  0.9646  2.5057  0.0396
  1474G12c C01A27222   9.704   3.233   9.341  1.6341  0.2576 -0.0255
  1474G12c C02K27223   9.717   3.116   9.269 -0.6642 -0.5498 -1.2093
  1474G12c O00G27224   9.760   3.111   9.132  0.1192  0.9951  1.2162
  1474G12c C02M27225   9.897   3.130   9.138  0.1937  1.6239  1.6582
  1474G12c H01G27226   9.899   3.198   9.052  0.2687 -1.9300 -1.3012
  1474G12c H01F27227   9.964   3.050   9.104  1.8649  4.2778 -1.5944
  1474G12c H01E27228   9.958   3.184   9.210  1.2986 -3.1126  4.5252
  1474G12c C02J27229   9.625   3.025   9.316 -0.9168  0.5515 -1.1440
  1474G12c H01H27230   9.583   2.954   9.246 -3.6031  3.0218 -2.1178
  1474G12c C02I27231   9.573   3.016   9.441 -0.2426  1.6041  1.2920
  1474G12c C02N27232   9.499   2.903   9.472  3.1261 -0.2644 -0.2676
  1474G12c H01M27233   9.528   2.802   9.445  1.5744 -0.7543 -0.1746
  1474G12c C02O27234   9.415   2.909   9.582  0.1712  0.7204  0.4343
  1474G12c H01L27235   9.401   3.010   9.617 -3.0825  0.8203 -0.9108
  1474G12c C02P27236   9.324   2.804   9.631 -0.0881  0.4259 -1.0292
  1474G12c H01K27237   9.225   2.833   9.594 -0.9810  4.0574  3.7352
  1474G12c H01J27238   9.359   2.712   9.585 -5.3307 -0.1437 -4.3720
  1474G12c O00H27239   9.366   2.824   9.757  0.7901  0.4277  0.7830
  1474G12c H01I27240   9.417   2.903   9.756 -2.1275  2.4160  2.5502
  1474G12c C02H27241   9.626   3.109   9.535  0.7867  1.3879 -0.7619
  1474G12c H01C27242   9.591   3.107   9.637  0.4895  1.0844 -0.8678
  1474G12c C02L27243   9.695   3.232   9.486  1.2424  0.7870  1.3657
  1474G12c H01D27244   9.715   3.313   9.554  2.6745  0.0123  1.8898
  1474G12c C01327245   9.258   3.399   8.965  1.4929 -1.8050  0.9132
  1474G12c H00027246   9.202   3.353   9.045  0.9390 -6.1533 -1.8038
  1474G12c C01427247   9.178   3.421   8.844  0.0719  1.1529 -1.0889
  1474G12c C00F27248   9.049   3.378   8.825 -1.1665  1.8766 -0.1336
  1474G12c C00H27249   9.029   3.566   8.679 -1.8815 -0.0859  0.1021
  1474G12c C00I27250   8.951   3.648   8.586 -0.0331 -1.5217 -0.4480
  1474G12c C00J27251   9.023   3.757   8.509  0.5815 -0.0575 -1.1121
  1474G12c C00Z27252   9.458   3.587   8.654  0.0406 -0.8856  0.0946
  1474G12c C00Y27253   9.605   3.589   8.626 -1.2164  0.0340  2.2538
  1474G12c H00627254   9.640   3.563   8.725  1.0562 -4.7912  0.3440
  1474G12c C00X27255   9.656   3.620   8.502 -0.7461 -0.1620  0.0861
  1474G12c O00327256   9.781   3.622   8.482 -0.8202  1.7559  0.1823
  1474G12c C01B27257   9.808   3.521   8.385  2.7123  0.2151  0.8938
  1474G12c H00927258   9.777   3.556   8.287  4.2554  0.7607  0.5855
  1474G12c H00827259   9.773   3.423   8.416  2.6846 -0.1608 -0.3203
  1474G12c H00727260   9.916   3.509   8.371  1.9158 -1.5648 -5.0543
  1474G12c C00W27261   9.572   3.685   8.409 -0.8452  0.7959  2.1268
  1474G12c O00427262   9.638   3.743   8.306 -0.2793  0.4006 -1.2750
  1474G12c C01C27263   9.561   3.800   8.202  0.0486  0.3462  0.0262
  1474G12c H00A27264   9.580   3.752   8.107  3.5386 -2.2622  1.9306
  1474G12c C00P27265   9.417   3.813   8.203 -0.0529 -0.4604 -0.6346
  1474G12c C00O27266   9.339   3.847   8.092 -0.4954 -0.1643  0.6546
  1474G12c C01D27267   9.403   3.874   7.971  0.3917  0.7225  0.8182
  1474G12c H00S27268   9.505   3.901   7.995  1.1289 -3.6932  3.0140
  1474G12c C01E27269   9.348   3.858   7.844 -0.6603 -1.1508  0.0854
  1474G12c O00827270   9.419   3.831   7.743  0.4963 -1.7889  0.1401
  1474G12c C01V27271   9.534   3.759   7.742 -1.9225  1.1305  0.1026
  1474G12c C01Z27272   9.505   3.610   7.721 -0.0548 -0.7136  1.0616
  1474G12c H00R27273   9.576   3.550   7.777  0.4627 -0.4676  0.6721
  1474G12c H00Q27274   9.424   3.593   7.792  0.6097  4.1912  3.2293
  1474G12c O00927275   9.497   3.560   7.581  0.6141 -1.3429 -0.2425
  1474G12c H00P27276   9.418   3.514   7.557  0.1334 -0.6193 -0.0623
  1474G12c C01W27277   9.655   3.811   7.761 -0.5535 -0.4670 -0.4007
  1474G12c H00O27278   9.667   3.908   7.806 -2.3576 -1.1035  1.5280
  1474G12c C01X27279   9.780   3.712   7.738  0.8463 -0.6444  0.0811
  1474G12c H00N27280   9.801   3.680   7.840  1.7680  4.8471  1.7983
  1474G12c H00M27281   9.741   3.619   7.697 -2.8434 -0.3802  2.6958
  1474G12c C01Y27282   9.869   3.748   7.614  0.4083  0.3482 -0.9968
  1474G12c C02D27283  10.013   3.749   7.610  0.4040 -0.8743  0.2452
  1474G12c H01927284  10.068   3.789   7.694  4.9363 -1.0673 -2.4451
  1474G12c C02C27285  10.076   3.758   7.475  0.4490 -0.7400 -1.6615
  1474G12c H01A27286  10.184   3.760   7.473  0.5144  5.8974 -3.8607
  1474G12c C02B27287  10.002   3.749   7.361  0.8699 -1.5630  1.8733
  1474G12c O00E27288  10.069   3.740   7.249  0.1640 -0.0480 -1.2633
  1474G12c H01B27289  10.092   3.650   7.232  2.5681  0.3969 -0.6298
  1474G12c C02F27290   9.857   3.752   7.377 -0.0443 -0.8970 -0.2487
  1474G12c O00F27291   9.779   3.771   7.261 -0.3599 -0.4656  0.8919
  1474G12c C02G27292   9.733   3.656   7.166 -0.9459  0.8656  0.2946
  1474G12c H01727293   9.710   3.581   7.241  3.7299  1.0304  2.0495
  1474G12c H01627294   9.818   3.617   7.110 -0.3471  3.4098 -0.6736
  1474G12c H01527295   9.641   3.674   7.110 -1.2340  3.2103  1.4341
  1474G12c C02E27296   9.790   3.736   7.488  0.3005  2.0130 -0.8377
  1474G12c H01827297   9.682   3.729   7.483  0.4607  0.0601 -2.3494
  1474G12c C01F27298   9.211   3.832   7.828 -0.8395  0.3027 -1.0339
  1474G12c C01G27299   9.149   3.792   7.718  0.1880  0.5023  0.8083
  1474G12c H00L27300   9.231   3.761   7.655  1.5556 -0.2474  2.9316
  1474G12c C01H27301   9.000   3.753   7.738  1.2710  0.4252 -1.0600
  1474G12c H00B27302   8.976   3.655   7.699  2.8079 -1.0521  1.5335
  1474G12c C01I27303   8.934   3.793   7.863 -1.0404  0.8174 -0.0965
  1474G12c C01U27304   9.132   3.873   7.944 -0.3376 -1.8720 -1.5942
  1474G12c C00S27305   9.160   3.741   8.491 -0.4416 -0.9589  0.1732
  1474G12c C00K27306   8.976   3.797   8.377  0.4267 -0.4946 -1.3402
  1474G12c C00N27307   9.198   3.856   8.069  0.4393  0.2301 -0.0381
  1474G12c C00027308   9.007   3.888   7.953 -0.8408  0.0304  0.3664
  1474G12c C01J27309   8.840   3.733   7.954  0.1367  1.5774 -0.4393
  1474G12c C01K27310   8.738   3.641   7.913 -0.8128 -2.3014 -0.5859
  1474G12c C01P27311   8.693   3.633   7.783 -0.6693  1.0093  1.1030
  1474G12c C01Q27312   8.709   3.726   7.672  0.6766 -2.3895 -0.1188
  1474G12c H00G27313   8.774   3.721   7.586 -0.2598 -0.3659 -0.9722
  1474G12c C01R27314   8.605   3.791   7.643 -1.4910 -0.1149  1.9283
  1474G12c H00F27315   8.537   3.815   7.724  1.2504 -1.2286  4.7035
  1474G12c C01S27316   8.605   3.875   7.524 -0.0497 -0.0946  0.4644
  1474G12c H00E27317   8.501   3.908   7.524 -0.6138 -1.6245 -3.3461
  1474G12c H00D27318   8.658   3.966   7.553  3.7106 -1.1714 -2.5744
  1474G12c O00527319   8.591   3.793   7.415 -1.2499 -0.1458  0.9643
  1474G12c H00C27320   8.619   3.848   7.343  1.9355 -1.0656  1.4290
  1474G12c C01O27321   8.633   3.518   7.757 -0.6176 -1.2909 -0.3584
  1474G12c H00H27322   8.612   3.490   7.655  4.7973  2.7842 -2.7852
  1474G12c C01N27323   8.561   3.434   7.856 -1.3050  0.8533  1.2090
  1474G12c O00627324   8.538   3.305   7.806 -0.3256 -0.8467 -0.3555
  1474G12c C01T27325   8.578   3.259   7.674  0.1057  1.1402 -0.5571
  1474G12c H00K27326   8.476   3.250   7.637  1.5622  2.1689 -5.1209
  1474G12c H00J27327   8.632   3.318   7.600  0.3189 -3.5896 -4.5119
  1474G12c H00I27328   8.614   3.157   7.688 -0.4929  1.4384  3.9340
  1474G12c C01M27329   8.595   3.460   7.987  1.1058 -1.1252  0.5475
  1474G12c C02027330   8.862   3.717   8.319  1.1517  1.4800 -1.8215
  1474G12c C02127331   8.796   3.616   8.415  0.8503  1.4910 -2.4829
  1474G12c C01L27332   8.686   3.566   8.015  1.1404  0.1929  0.4201
  1474G12c O00727333   8.558   3.362   8.072 -1.2570 -0.4398 -0.3514
  1474G12c C02227334   8.708   3.505   8.380  0.3380 -1.3040  1.4740
  1474G12c C02327335   8.832   3.595   8.554  0.0953  0.5418  3.0925
  1474G12c C00G27336   8.972   3.446   8.742 -1.7653 -0.4283  0.0553
  1474G12c C00E27337   9.004   3.247   8.882 -0.7355  0.1241 -0.8621
  1474G12c O00A27338   9.095   3.168   8.957 -1.3680  1.7607  0.2231
  1474G12c C02427339   9.166   3.046   8.923 -0.1898 -1.7063  1.0166
  1474G12c H00V27340   9.107   2.957   8.905 -3.0260  0.0278  1.3382
  1474G12c H00U27341   9.231   3.020   9.006  1.2620 -3.9957 -0.7857
  1474G12c H00T27342   9.227   3.057   8.833  2.6883  5.2391  3.4990
  1484G12c C00D27343   1.664  11.023   2.224 -0.3599  0.8818 -0.1085
  1484G12c O00B27344   1.730  10.924   2.150  0.4445 -0.5463 -1.7904
  1484G12c C02527345   1.776  10.975   2.027  0.7670  1.2599 -1.0959
  1484G12c C02627346   1.705  10.915   1.902  1.0739  0.6396  0.5364
  1484G12c H00Y27347   1.630  10.841   1.928 -3.8621  4.9169 -0.5877
  1484G12c H00X27348   1.639  10.992   1.860 -0.7971 -1.8926 -1.2950
  1484G12c O00C27349   1.816  10.890   1.809  0.8143 -1.1451 -1.2024
  1484G12c H00W27350   1.818  10.796   1.805 -3.1670 -1.2408 -3.6472
  1484G12c C02727351   1.862  11.085   2.019  0.9334 -0.1312  1.8299
  1484G12c O00D27352   1.871  11.169   1.904 -1.3285 -0.6198 -0.7189
  1484G12c H00Z27353   1.945  11.226   1.918 -2.2508  0.7017 -1.1460
  1484G12c C02827354   1.980  11.104   2.111  0.2387  1.3846  0.2231
  1484G12c C02927355   2.002  11.188   2.220 -0.5368  2.1488 -1.1130
  1484G12c H01027356   1.923  11.246   2.263 -1.4077 -1.4577  2.4401
  1484G12c C02T27357   2.113  11.200   2.299  1.4477  0.5743 -1.1969
  1484G12c H01O27358   2.124  11.266   2.383  2.5972  0.7696 -1.4849
  1484G12c C02S27359   2.217  11.116   2.255 -1.4607 -0.7014  1.6957
  1484G12c O00J27360   2.340  11.088   2.334 -1.3215  0.3220 -0.1470
  1484G12c H01P27361   2.410  11.025   2.329 -3.5089 -2.2441  0.4346
  1484G12c C02R27362   2.200  11.013   2.155 -0.0867  1.6729  1.1479
  1484G12c O00I27363   2.310  10.957   2.081 -0.3729 -1.2120 -1.6506
  1484G12c C02Q27364   2.295  10.798   2.068 -0.6490 -1.5184  0.4843
  1484G12c H01N27365   2.228  10.772   2.151 -5.5525  2.4397 -1.9456
  1484G12c H01R27366   2.402  10.790   2.086 -0.1813  3.4926  0.5624
  1484G12c H01Q27367   2.257  10.757   1.975 -2.2771 -1.4449  1.0976
  1484G12c C02A27368   2.072  11.015   2.089  0.4490  0.0993 -0.9564
  1484G12c H01127369   2.018  10.925   2.064 -1.6491  1.1219 -0.2304
  1484G12c C00C27370   1.620  11.135   2.169  0.4908  0.7892 -1.5020
  1484G12c H01227371   1.603  11.152   2.064 -2.8599  2.1994 -0.7867
  1484G12c C00B27372   1.552  11.232   2.253 -1.4084 -0.6382  0.5333
  1484G12c C00A27373   1.466  11.342   2.205 -0.1393  1.6492 -2.4586
  1484G12c C00927374   1.478  11.407   2.083 -1.8090 -1.4615  1.5528
  1484G12c C00827375   1.552  11.389   1.967 -0.3679 -2.2676 -0.2800
  1484G12c H01327376   1.581  11.292   1.932  4.1388 -0.1586 -2.8447
  1484G12c C00727377   1.601  11.494   1.882 -0.3144  0.9880  1.9689
  1484G12c H01427378   1.674  11.473   1.805  0.3182  0.5698  2.6814
  1484G12c C00627379   1.558  11.633   1.911 -1.0162 -0.7435  0.5010
  1484G12c C00527380   1.506  11.650   2.039  0.9452  0.0051 -0.3606
  1484G12c C00427381   1.502  11.782   2.090  2.9990  0.7617 -0.9559
  1484G12c C00327382   1.455  11.785   2.222  0.0403 -1.0025 -1.1778
  1484G12c C00227383   1.495  11.921   2.270 -0.7312  0.6148 -0.5769
  1484G12c C00127384   1.494  11.966   2.403  0.5217  0.5027  1.9947
  1484G12c C00M27385   1.537  11.893   2.515  1.8597 -0.0009  0.7437
  1484G12c C00L27386   1.473  11.776   2.561 -0.1216 -0.8799 -1.2384
  1484G12c C00R27387   1.524  11.702   2.684 -1.0975  1.1286  0.5329
  1484G12c C00Q27388   1.637  11.740   2.762 -2.4040 -0.0905 -0.8370
  1484G12c C00V27389   1.695  11.625   2.834  0.0335  0.5104 -0.8003
  1484G12c C00U27390   1.666  11.485   2.803  1.3216 -1.6182 -0.3201
  1484G12c C00T27391   1.585  11.449   2.700  0.3669 -2.3389 -0.0546
  1484G12c C01627392   1.576  11.335   2.615 -0.2260  0.4438 -0.7353
  1484G12c C01527393   1.668  11.241   2.658  0.4323  0.9958  0.4908
  1484G12c C01027394   1.727  11.251   2.784 -1.4420 -0.1399  0.3380
  1484G12c C01127395   1.825  11.140   2.814  2.2133  0.4847 -1.4157
  1484G12c H00527396   1.891  11.139   2.899  7.2186 -0.2502 -5.0933
  1484G12c C01227397   1.863  11.053   2.728  0.8750  0.9104 -1.4211
  1484G12c C01727398   1.974  10.958   2.760  1.0643  1.3141 -0.8419
  1484G12c O00227399   1.951  10.825   2.719 -0.6830 -0.6143 -0.6599
  1484G12c H00427400   2.031  10.789   2.684 -0.0973 -2.4599  2.3885
  1484G12c C01827401   2.104  10.976   2.807  0.7779 -1.0225  0.3497
  1484G12c O00127402   2.144  11.108   2.803  0.1132  0.0113  1.5473
  1484G12c H00327403   2.176  11.108   2.892  0.0049 -3.5905  1.6743
  1484G12c C01927404   2.191  10.870   2.833 -0.1277  1.4691  0.5023
  1484G12c H00227405   2.165  10.765   2.848  1.8609  0.9645  0.5081
  1484G12c H00127406   2.232  10.849   2.734 -3.7258 -0.5774 -0.6921
  1484G12c O00027407   2.321  10.912   2.895 -0.3034  1.1679 -1.2445
  1484G12c C01A27408   2.455  10.854   2.893 -0.0780 -0.2424 -0.8741
  1484G12c C02K27409   2.559  10.943   2.922  0.7886 -0.8240  0.1828
  1484G12c O00G27410   2.523  11.069   2.972  2.0436 -0.4206  1.5561
  1484G12c C02M27411   2.575  11.180   2.900  0.2995 -1.1223 -0.2840
  1484G12c H01G27412   2.682  11.186   2.921 -0.8823  4.1501  5.9829
  1484G12c H01F27413   2.535  11.282   2.901  2.3843 -0.0644 -6.3255
  1484G12c H01E27414   2.537  11.134   2.810 -2.5242 -0.5611  0.5817
  1484G12c C02J27415   2.680  10.887   2.930  0.1468 -0.8423  0.4469
  1484G12c H01H27416   2.770  10.946   2.927  3.7894 -6.1589 -1.0510
  1484G12c C02I27417   2.711  10.758   2.901  0.6893 -0.1667 -0.2157
  1484G12c C02N27418   2.845  10.718   2.884 -0.2121  0.6096  0.3512
  1484G12c H01M27419   2.896  10.662   2.961  0.3301  4.4282  2.9055
  1484G12c C02O27420   2.921  10.785   2.795 -1.4418 -0.0504 -0.3706
  1484G12c H01L27421   2.867  10.834   2.715  2.0879  2.3544 -1.4011
  1484G12c C02P27422   3.077  10.780   2.779 -1.2645 -0.1141  0.1689
  1484G12c H01K27423   3.117  10.872   2.737  1.1251 -2.5175 -3.0549
  1484G12c H01J27424   3.111  10.762   2.881 -2.0619  1.0805  0.6648
  1484G12c O00H27425   3.125  10.684   2.695 -0.3935  0.6202  0.3999
  1484G12c H01I27426   3.200  10.732   2.661 -0.2972 -0.6758 -1.2689
  1484G12c C02H27427   2.606  10.662   2.877 -0.8264  0.3129 -0.5423
  1484G12c H01C27428   2.607  10.554   2.875 -0.4619  0.3318 -1.5045
  1484G12c C02L27429   2.479  10.710   2.869  0.8647  0.3680  0.2102
  1484G12c H01D27430   2.420  10.620   2.860  3.2161 -1.1537 -0.5012
  1484G12c C01327431   1.788  11.034   2.612 -0.3692  0.3403 -0.5081
  1484G12c H00027432   1.817  10.950   2.550  0.9119 -2.8474  4.1191
  1484G12c C01427433   1.684  11.122   2.578 -1.5714 -0.9855  0.4120
  1484G12c C00F27434   1.612  11.109   2.452  0.5576  0.8862 -0.7179
  1484G12c C00H27435   1.527  11.339   2.482 -0.1016 -0.6873  0.4573
  1484G12c C00I27436   1.466  11.450   2.430  1.4426 -0.0071 -1.2243
  1484G12c C00J27437   1.459  11.554   2.516  0.8611 -1.1292  0.0693
  1484G12c C00Z27438   1.742  11.382   2.847 -0.5417  0.6337  1.4975
  1484G12c C00Y27439   1.836  11.397   2.966 -0.0267 -0.2995 -0.3765
  1484G12c H00627440   1.875  11.323   3.033 -1.2578  0.5482  1.3187
  1484G12c C00X27441   1.850  11.546   2.999 -0.5997  0.3033 -1.7015
  1484G12c O00327442   1.936  11.583   3.104 -0.9327 -1.0158 -0.6489
  1484G12c C01B27443   2.064  11.593   3.073 -1.2895  0.7243 -0.3461
  1484G12c H00927444   2.144  11.648   3.124 -1.9500  4.1362 -2.8263
  1484G12c H00827445   2.048  11.655   2.985 -8.5047  7.6811  5.1703
  1484G12c H00727446   2.115  11.498   3.055 -1.5910 -1.5834  8.5084
  1484G12c C00W27447   1.780  11.647   2.941  1.9342 -1.5202  1.8569
  1484G12c O00427448   1.810  11.770   2.987  0.2935 -0.1113  0.0232
  1484G12c C01C27449   1.813  11.850   2.891 -0.1142  2.1283  0.0173
  1484G12c H00A27450   1.815  11.945   2.942  2.1508  0.1797  3.7394
  1484G12c C00P27451   1.732  11.848   2.779  0.0429 -2.4411 -0.1872
  1484G12c C00O27452   1.743  11.947   2.680  1.2283  0.0566 -0.0496
  1484G12c C01D27453   1.862  12.028   2.689 -1.0127  1.3926  0.1979
  1484G12c H00S27454   1.938  12.015   2.765  1.0175 -5.9813 -2.6871
  1484G12c C01E27455   1.895  12.132   2.601  0.0817  0.8562  0.2301
  1484G12c O00827456   2.014  12.199   2.612 -0.9010 -0.7655  1.1179
  1484G12c C01V27457   2.124  12.160   2.682 -0.1794  1.2745  0.8661
  1484G12c C01Z27458   2.102  12.178   2.828 -0.1648 -0.1410  0.0979
  1484G12c H00R27459   2.002  12.192   2.871  0.6317  2.7467  1.1766
  1484G12c H00Q27460   2.132  12.077   2.853 -4.8554 -1.3308  1.4886
  1484G12c O00927461   2.195  12.281   2.863  0.0715  1.3164  0.1633
  1484G12c H00P27462   2.242  12.280   2.946  7.7222  3.5551 -3.6659
  1484G12c C01W27463   2.249  12.150   2.632  0.0446 -0.3792  1.1319
  1484G12c H00O27464   2.323  12.131   2.708  2.6256  2.5499 -0.5439
  1484G12c C01X27465   2.304  12.168   2.491  0.1563  0.4012 -1.6749
  1484G12c H00N27466   2.210  12.141   2.443 -1.0722  0.5890  0.5696
  1484G12c H00M27467   2.311  12.273   2.519  4.8532 -1.6039  6.4350
  1484G12c C01Y27468   2.428  12.078   2.460 -0.7294 -0.5001 -1.2757
  1484G12c C02D27469   2.556  12.135   2.486  1.7672 -2.4032  0.1221
  1484G12c H01927470   2.562  12.236   2.451 -5.0174 -1.6200  0.4943
  1484G12c C02C27471   2.668  12.044   2.518 -0.1838 -0.2848 -0.0005
  1484G12c H01A27472   2.775  12.055   2.525  0.6340 -3.9242 -4.2817
  1484G12c C02B27473   2.635  11.909   2.525  1.5285  0.6424 -0.8861
  1484G12c O00E27474   2.740  11.822   2.568 -0.5931  1.1425 -0.0585
  1484G12c H01B27475   2.720  11.736   2.536  4.4981 -0.1503 -0.1204
  1484G12c C02F27476   2.507  11.848   2.488 -0.3822  1.2934 -0.7204
  1484G12c O00F27477   2.484  11.704   2.497 -0.2472 -0.2803 -1.0448
  1484G12c C02G27478   2.445  11.634   2.380 -2.3888 -1.3291 -0.4575
  1484G12c H01727479   2.365  11.690   2.334 -3.8216  1.6692  5.1634
  1484G12c H01627480   2.434  11.527   2.399  2.8627 -0.7712  8.7849
  1484G12c H01527481   2.536  11.643   2.320 -1.7895  5.3485  1.0963
  1484G12c C02E27482   2.407  11.938   2.461 -1.4116  0.5972 -0.7937
  1484G12c H01827483   2.313  11.885   2.456 -3.4546  3.3611  4.4450
  1484G12c C01F27484   1.803  12.145   2.486  0.7487  0.1967  0.9672
  1484G12c C01G27485   1.800  12.241   2.376  0.5257 -2.3005 -1.0175
  1484G12c H00L27486   1.880  12.313   2.367 -0.4781 -1.4176 -3.0420
  1484G12c C01H27487   1.727  12.210   2.253 -0.6536  0.7941 -0.3130
  1484G12c H00B27488   1.730  12.268   2.162  3.0265 -3.0543 -2.8727
  1484G12c C01I27489   1.631  12.111   2.278 -1.0725 -0.2929  0.9232
  1484G12c C01U27490   1.696  12.056   2.484  0.7458 -2.5460 -0.5350
  1484G12c C00S27491   1.503  11.560   2.652  0.7632 -0.1382  0.2925
  1484G12c C00K27492   1.432  11.685   2.456 -0.3066  0.3884  0.6745
  1484G12c C00N27493   1.656  11.951   2.570 -0.1182  1.3044 -1.3685
  1484G12c C00027494   1.587  12.076   2.393 -1.5212  1.4199 -0.7070
  1484G12c C01J27495   1.553  12.022   2.200 -0.9258  0.9756 -0.4436
  1484G12c C01K27496   1.560  12.031   2.061 -0.1904  0.7662 -1.7984
  1484G12c C01P27497   1.582  12.150   1.975  0.7732  0.0250 -0.6627
  1484G12c C01Q27498   1.544  12.274   2.003  0.8532 -0.6693 -0.1797
  1484G12c H00G27499   1.506  12.299   2.101 -7.4839  1.6830 -3.5477
  1484G12c C01R27500   1.515  12.369   1.909 -1.1641  1.5512 -1.8501
  1484G12c H00F27501   1.511  12.336   1.806  2.1223  2.0961 -2.2095
  1484G12c C01S27502   1.461  12.510   1.922 -0.2468 -0.4559  0.6289
  1484G12c H00E27503   1.520  12.568   1.851  6.6224 -1.9807  4.6358
  1484G12c H00D27504   1.499  12.576   2.000 -3.4207 -2.3255  3.8647
  1484G12c O00527505   1.336  12.530   1.868 -1.5517 -0.2267 -0.3436
  1484G12c H00C27506   1.319  12.553   1.778  0.6723 -2.2068 -1.3280
  1484G12c C01O27507   1.641  12.097   1.852 -0.6421  0.5822 -1.7702
  1484G12c H00H27508   1.676  12.178   1.789  6.6985 -2.3026 -1.8808
  1484G12c C01N27509   1.633  11.966   1.794 -0.5096 -0.1607  0.0466
  1484G12c O00627510   1.648  11.944   1.666 -0.1088 -0.0436  0.4075
  1484G12c C01T27511   1.782  11.940   1.608 -1.8421 -1.0868  1.1418
  1484G12c H00K27512   1.827  12.037   1.587 -5.3927  0.2345 -0.7404
  1484G12c H00J27513   1.860  11.907   1.677 -4.3761  4.0736  6.9201
  1484G12c H00I27514   1.800  11.871   1.525 -7.5609 -0.0879 -1.1351
  1484G12c C01M27515   1.598  11.858   1.876  0.2370 -0.9481 -0.0739
  1484G12c C02027516   1.408  11.675   2.309  1.2110  0.4795 -0.0519
  1484G12c C02127517   1.406  11.570   2.232 -0.9003  1.6247 -0.6247
  1484G12c C01L27518   1.545  11.889   2.010  0.0678  0.0285 -0.0121
  1484G12c O00727519   1.613  11.730   1.833  0.3341  0.1894  0.3865
  1484G12c C02227520   1.438  11.542   2.110 -1.2233  1.6074  1.4914
  1484G12c C02327521   1.430  11.442   2.298  0.2795  0.0716  0.4997
  1484G12c C00G27522   1.554  11.227   2.395 -0.4310 -0.3731  0.5740
  1484G12c C00E27523   1.648  10.996   2.366 -0.7950  1.3869 -1.1549
  1484G12c O00A27524   1.662  10.858   2.398 -0.5364 -0.3708 -0.7440
  1484G12c C02427525   1.553  10.786   2.470  0.8929  0.9454 -0.7417
  1484G12c H00V27526   1.481  10.864   2.494  4.0324  3.4245  0.9702
  1484G12c H00U27527   1.567  10.721   2.557  3.7679  3.6522  0.9157
  1484G12c H00T27528   1.508  10.739   2.382 -2.4897  3.8306 -0.6801
  1494G12c C00D27529  11.470   8.491   4.571 -1.7317  0.9295 -0.5662
  1494G12c O00B27530  11.461   8.456   4.701  0.5279 -0.1465 -0.7310
  1494G12c C02527531  11.350   8.506   4.744  0.4560 -0.9411 -1.6369
  1494G12c C02627532  11.226   8.402   4.756  0.8026 -1.6115  0.1868
  1494G12c H00Y27533  11.269   8.304   4.778 -0.2253 -2.7508 -2.6758
  1494G12c H00X27534  11.175   8.393   4.660 -2.8757  4.5964  1.2738
  1494G12c O00C27535  11.133   8.398   4.871  0.0190 -1.0294 -0.6110
  1494G12c H00W27536  11.143   8.460   4.941 -2.7079 -1.2383  0.0501
  1494G12c C02727537  11.354   8.628   4.808 -1.0345 -0.4318  1.1673
  1494G12c O00D27538  11.474   8.685   4.832 -0.0342  0.1721  1.3604
  1494G12c H00Z27539  11.518   8.654   4.755 -4.3170  4.9839 -3.4017
  1494G12c C02827540  11.237   8.697   4.832 -0.6297 -0.5604 -0.3070
  1494G12c C02927541  11.145   8.709   4.726 -2.2726 -1.4348 -2.2192
  1494G12c H01027542  11.199   8.664   4.644  4.7184 -0.0370  1.2141
  1494G12c C02T27543  11.047   8.809   4.714 -0.1410 -0.0817  0.6630
  1494G12c H01O27544  10.979   8.789   4.632  1.6096  0.3266 -0.9265
  1494G12c C02S27545  11.024   8.878   4.824  0.7160 -0.3431  1.0818
  1494G12c O00J27546  10.904   8.934   4.810 -0.9743  0.9262 -1.3441
  1494G12c H01P27547  10.889   8.963   4.899  4.2407  6.0911 -1.8742
  1494G12c C02R27548  11.089   8.877   4.948  0.2828 -0.6913 -0.0728
  1494G12c O00I27549  11.023   8.943   5.039 -0.5775 -0.5212 -0.0361
  1494G12c C02Q27550  10.981   8.862   5.159  0.8618  1.4963 -1.1500
  1494G12c H01N27551  10.974   8.757   5.132  6.7895 -0.8100  4.8933
  1494G12c H01R27552  11.060   8.851   5.234 -0.4102 -0.9620 -0.1275
  1494G12c H01Q27553  10.901   8.889   5.227  3.5779  0.1718  2.7293
  1494G12c C02A27554  11.205   8.781   4.942 -0.1076 -0.7165  1.1215
  1494G12c H01127555  11.247   8.736   5.031 -0.8601  4.2292  4.1851
  1494G12c C00C27556  11.551   8.610   4.547  0.4701 -1.2935 -1.2536
  1494G12c H01227557  11.616   8.656   4.620  2.9768 -4.8696 -1.0859
  1494G12c C00B27558  11.593   8.632   4.412  0.2651 -0.2002  0.3055
  1494G12c C00A27559  11.671   8.738   4.358 -0.4786  0.0292  1.1419
  1494G12c C00927560  11.686   8.864   4.426  0.2038  0.2745 -2.6691
  1494G12c C00827561  11.651   8.933   4.550  0.3006  1.2781  1.7246
  1494G12c H01327562  11.578   8.888   4.615 -1.2889  0.8429 -0.2901
  1494G12c C00727563  11.644   9.073   4.547  0.4606  1.0297  0.9697
  1494G12c H01427564  11.603   9.123   4.634 -1.0112 -1.3049  1.6625
  1494G12c C00627565  11.673   9.172   4.433  2.7556  1.4559  0.5857
  1494G12c C00527566  11.706   9.095   4.327 -0.5488 -0.6663  1.0617
  1494G12c C00427567  11.707   9.161   4.211 -0.1542 -0.3745  0.8964
  1494G12c C00327568  11.723   9.091   4.084 -1.4399  1.2658  0.3725
  1494G12c C00227569  11.671   9.172   3.971 -0.2319  0.1402  0.4401
  1494G12c C00127570  11.676   9.125   3.831  0.5536 -0.5542  1.9058
  1494G12c C00M27571  11.566   9.027   3.797  0.0602 -0.2936 -0.2191
  1494G12c C00L27572  11.570   8.911   3.835  0.1845 -1.6910  1.2357
  1494G12c C00R27573  11.468   8.806   3.823 -0.7557  1.8029  1.5295
  1494G12c C00Q27574  11.347   8.799   3.742  0.9602 -0.9454 -1.2069
  1494G12c C00V27575  11.266   8.686   3.750  0.9770  1.1715 -0.7232
  1494G12c C00U27576  11.283   8.610   3.861 -2.2707  0.3316  0.2239
  1494G12c C00T27577  11.376   8.631   3.959  0.0536  2.4649  2.4225
  1494G12c C01627578  11.406   8.569   4.083  2.0063 -0.2828 -0.0939
  1494G12c C01527579  11.332   8.470   4.111 -0.8040 -0.6137  0.0135
  1494G12c C01027580  11.230   8.424   4.014 -0.2275 -0.4557 -1.3691
  1494G12c C01127581  11.130   8.327   4.056  0.2258 -0.1416 -0.5585
  1494G12c H00527582  11.049   8.274   4.006  0.8326  0.2097 -1.9366
  1494G12c C01227583  11.126   8.298   4.192 -1.1772  1.2627 -1.1157
  1494G12c C01727584  11.012   8.245   4.247  0.9378  0.5284  0.1708
  1494G12c O00227585  10.925   8.316   4.306 -1.0584 -0.0620 -0.5275
  1494G12c H00427586  10.847   8.263   4.316  0.4212 -1.4939  6.0684
  1494G12c C01827587  10.983   8.114   4.211 -1.0482 -0.3661 -0.7763
  1494G12c O00127588  11.047   8.043   4.112  1.2043 -0.0018 -0.1510
  1494G12c H00327589  10.994   7.966   4.098  1.5429  0.3453 -3.8282
  1494G12c C01927590  10.839   8.044   4.238  0.0176 -2.2975  0.9237
  1494G12c H00227591  10.864   7.964   4.307  4.6649  0.0854  2.2339
  1494G12c H00127592  10.773   8.107   4.298 -1.1234  2.7604 -5.1114
  1494G12c O00027593  10.776   7.979   4.126 -1.7063  0.3463 -0.2728
  1494G12c C01A27594  10.642   8.023   4.107  0.8762 -1.5946 -1.0024
  1494G12c C02K27595  10.600   8.154   4.130  2.6938 -1.3124  1.6711
  1494G12c O00G27596  10.660   8.276   4.160 -0.4788 -0.4274 -0.8218
  1494G12c C02M27597  10.708   8.326   4.042 -0.1017  0.5497  0.2671
  1494G12c H01G27598  10.705   8.435   4.038  5.0915  0.7853 -0.3686
  1494G12c H01F27599  10.640   8.330   3.957 -1.8305 -0.5600  1.5622
  1494G12c H01E27600  10.814   8.325   4.018 -0.0961  0.8714  0.2779
  1494G12c C02J27601  10.448   8.171   4.137 -2.0675 -0.7700 -0.8354
  1494G12c H01H27602  10.424   8.274   4.156 -0.9972 -0.7145  0.2785
  1494G12c C02I27603  10.351   8.079   4.097  1.6873  0.8167  0.8535
  1494G12c C02N27604  10.209   8.102   4.089 -0.2717  1.2803  1.4246
  1494G12c H01M27605  10.157   8.195   4.067 -7.4386 -3.8001 -6.6414
  1494G12c C02O27606  10.122   8.000   4.086  1.4603 -0.1672  0.4575
  1494G12c H01L27607  10.170   7.913   4.129 -1.4062 -3.2473 -2.2392
  1494G12c C02P27608   9.984   8.011   4.035  1.0323  0.8049 -0.6389
  1494G12c H01K27609  10.000   8.002   3.927 -0.0929 -4.6072 -0.5066
  1494G12c H01J27610   9.957   7.912   4.072 -1.3800 -0.8628 -6.2328
  1494G12c O00H27611   9.911   8.119   4.086 -0.5938 -0.0694 -0.1177
  1494G12c H01I27612   9.854   8.130   4.011 -4.9070 -5.4392  2.0361
  1494G12c C02H27613  10.416   7.974   4.031  0.7780 -0.5797  1.3951
  1494G12c H01C27614  10.350   7.917   3.967  0.5288  4.7308 -3.5231
  1494G12c C02L27615  10.545   7.934   4.048  1.0371  2.2330  0.4260
  1494G12c H01D27616  10.571   7.830   4.031 -7.4622 -0.7922  3.1760
  1494G12c C01327617  11.227   8.321   4.283  1.2590 -0.0627 -0.2868
  1494G12c H00027618  11.192   8.347   4.382  2.6663  1.9110 -0.2614
  1494G12c C01427619  11.336   8.411   4.241  1.3113  0.9278  0.1871
  1494G12c C00F27620  11.420   8.466   4.335 -1.2748  0.2373 -1.0115
  1494G12c C00H27621  11.509   8.609   4.170 -0.7071  1.1418 -0.0912
  1494G12c C00I27622  11.603   8.700   4.127  0.5061 -0.1066 -0.0306
  1494G12c C00J27623  11.586   8.747   4.004  0.7094  0.7025  0.0567
  1494G12c C00Z27624  11.220   8.477   3.884 -0.1014 -1.2100 -0.1071
  1494G12c C00Y27625  11.120   8.452   3.772  1.0094 -1.2221 -1.5569
  1494G12c H00627626  11.051   8.382   3.818  1.3726 -1.0311 -0.7099
  1494G12c C00X27627  11.086   8.543   3.670  0.9872 -0.4010  1.7535
  1494G12c O00327628  11.012   8.490   3.558  0.0676 -1.9499  0.0781
  1494G12c C01B27629  11.092   8.471   3.437 -2.2623 -0.7778  0.4471
  1494G12c H00927630  11.101   8.570   3.391 -5.1843  3.1694  7.5494
  1494G12c H00827631  11.014   8.432   3.372 -3.1250 -3.4736  3.0097
  1494G12c H00727632  11.168   8.394   3.428 -4.5537 -2.9421 -1.2125
  1494G12c C00W27633  11.157   8.654   3.666  0.4873  0.5445  1.1540
  1494G12c O00427634  11.143   8.719   3.552  1.6894 -1.0466  0.4289
  1494G12c C01C27635  11.175   8.855   3.557 -0.9034  1.0747 -0.6374
  1494G12c H00A27636  11.133   8.902   3.469  0.4758 -0.7893 -2.3358
  1494G12c C00P27637  11.289   8.898   3.643 -0.2691 -0.8572 -1.1600
  1494G12c C00O27638  11.348   9.040   3.630 -0.4042  0.7025  0.2649
  1494G12c C01D27639  11.283   9.142   3.557  0.4803  0.2204 -0.3634
  1494G12c H00S27640  11.209   9.115   3.483 -0.5392  4.6834 -1.1042
  1494G12c C01E27641  11.301   9.287   3.584 -0.0789 -2.0395  0.4819
  1494G12c O00827642  11.205   9.382   3.533 -0.7214  0.2314  0.6828
  1494G12c C01V27643  11.077   9.336   3.507 -0.0325  2.3421 -0.0181
  1494G12c C01Z27644  11.037   9.353   3.369 -0.9906  0.9107  0.4155
  1494G12c H00R27645  10.929   9.349   3.355 -1.0685 -1.3949  1.4312
  1494G12c H00Q27646  11.091   9.438   3.328 -2.7144  2.3594  1.0409
  1494G12c O00927647  11.106   9.269   3.290  1.8370 -1.9967  0.5402
  1494G12c H00P27648  11.066   9.295   3.209 -2.0914  2.2419  3.5851
  1494G12c C01W27649  11.021   9.269   3.608  0.3004  0.0966 -0.0633
  1494G12c H00O27650  11.086   9.291   3.691 -0.8126 -1.3038  1.1863
  1494G12c C01X27651  10.900   9.211   3.630 -0.3628  0.4271 -0.8428
  1494G12c H00N27652  10.859   9.253   3.721  1.4965 -2.7369  1.5999
  1494G12c H00M27653  10.827   9.196   3.551  1.9331 -0.6937 -2.8090
  1494G12c C01Y27654  10.902   9.070   3.681 -0.5395 -1.0711 -0.0143
  1494G12c C02D27655  10.805   8.986   3.628  0.5561  2.1517 -2.8931
  1494G12c H01927656  10.752   8.993   3.533 -4.8597 -1.3437 -0.3527
  1494G12c C02C27657  10.803   8.861   3.696 -0.0966  0.0254  1.7721
  1494G12c H01A27658  10.728   8.784   3.683 -0.0312  0.7786 -5.2476
  1494G12c C02B27659  10.860   8.837   3.814 -0.9834  0.3554 -0.4203
  1494G12c O00E27660  10.876   8.705   3.871  1.5669  0.5902 -1.0580
  1494G12c H01B27661  10.963   8.696   3.906  0.8369  0.0692  0.6981
  1494G12c C02F27662  10.953   8.918   3.872  0.1500  1.3305  1.0765
  1494G12c O00F27663  11.016   8.891   3.994 -0.1222  0.5837  0.3385
  1494G12c C02G27664  11.133   8.942   4.033  0.1634  0.6075  1.7915
  1494G12c H01727665  11.180   9.040   4.024  0.2985  0.1259 -7.6849
  1494G12c H01627666  11.203   8.910   3.956 -0.8095  3.7226 -0.4642
  1494G12c H01527667  11.143   8.904   4.135  0.5674 -1.7094  0.9193
  1494G12c C02E27668  10.973   9.038   3.796 -0.7715 -1.2166 -0.5151
  1494G12c H01827669  11.000   9.114   3.868-10.5198 -2.1684  5.0180
  1494G12c C01F27670  11.418   9.318   3.667  1.1213 -0.1127 -0.6167
  1494G12c C01G27671  11.446   9.444   3.715  0.7633 -0.7578 -0.5571
  1494G12c H00L27672  11.370   9.520   3.715  1.4124  0.1629  5.6550
  1494G12c C01H27673  11.543   9.460   3.812  0.5009 -0.9536 -0.0366
  1494G12c H00B27674  11.540   9.546   3.877  1.2720  0.6580 -2.0630
  1494G12c C01I27675  11.630   9.347   3.847 -0.9252 -0.8625 -2.1974
  1494G12c C01U27676  11.513   9.220   3.699 -0.8144  0.6042 -1.2978
  1494G12c C00S27677  11.476   8.718   3.929  0.8099 -1.2019 -0.7769
  1494G12c C00K27678  11.633   8.871   3.956  0.9364 -0.8359  0.1802
  1494G12c C00N27679  11.458   9.086   3.711 -0.8716  0.4600  0.3167
  1494G12c C00027680  11.634   9.239   3.758 -1.4192  0.5112 -0.4476
  1494G12c C01J27681  11.693   9.310   3.978 -1.1428 -0.2813  0.1533
  1494G12c C01K27682  11.699   9.392   4.102  0.6585  0.7353  0.4193
  1494G12c C01P27683  11.735   9.522   4.117  1.6119 -1.6597  0.3263
  1494G12c C01Q27684  11.774   9.578   3.992 -0.8660 -1.0433  0.4409
  1494G12c H00G27685  11.863   9.533   3.952 -2.8767 -4.6131 -0.2387
  1494G12c C01R27686  11.731   9.700   3.955 -1.6957 -0.8762 -0.5840
  1494G12c H00F27687  11.668   9.754   4.025  2.2719  5.5280 -1.4794
  1494G12c C01S27688  11.755   9.767   3.811  2.5090 -0.4353  0.5959
  1494G12c H00E27689  11.683   9.849   3.799 -1.0626 -3.8891 -3.5795
  1494G12c H00D27690  11.727   9.693   3.736  4.4075  0.0939 -0.6775
  1494G12c O00527691  11.900   9.781   3.808 -0.2875 -0.3631 -1.4419
  1494G12c H00C27692  11.953   9.722   3.756  0.6436 -4.5889  3.9270
  1494G12c C01O27693  11.754   9.591   4.240 -1.3058 -1.4004  0.4821
  1494G12c H00H27694  11.808   9.678   4.273  1.7652 -3.4812  1.1167
  1494G12c C01N27695  11.735   9.512   4.358  2.1986  0.5166  1.4124
  1494G12c O00627696  11.734   9.572   4.481 -0.6009 -0.4097 -0.1238
  1494G12c C01T27697  11.630   9.654   4.483  1.3499 -1.0492 -0.2374
  1494G12c H00K27698  11.606   9.652   4.589 -4.5274 -1.6160 -1.4082
  1494G12c H00J27699  11.540   9.640   4.423  1.5499  0.0250 -0.8034
  1494G12c H00I27700  11.678   9.746   4.450  3.6741 -0.1383  5.1545
  1494G12c C01M27701  11.697   9.376   4.342 -0.7499 -0.6339 -0.1190
  1494G12c C02027702  11.708   8.949   4.066  0.2897  0.9923  0.7943
  1494G12c C02127703  11.734   8.885   4.198 -0.1461 -0.4775  0.6854
  1494G12c C01L27704  11.681   9.310   4.207  0.0568  0.5658  0.8461
  1494G12c O00727705  11.695   9.307   4.460  0.6478  0.9266  0.2327
  1494G12c C02227706  11.725   8.948   4.316  0.9155  0.0390  0.4938
  1494G12c C02327707  11.682   8.754   4.219  0.3788 -0.9404 -0.8853
  1494G12c C00G27708  11.515   8.563   4.310 -0.7498 -0.3240  0.2865
  1494G12c C00E27709  11.416   8.421   4.465  1.3526 -0.7245  0.4561
  1494G12c O00A27710  11.372   8.301   4.497  0.4192 -2.0089  0.2797
  1494G12c C02427711  11.450   8.200   4.475  0.1280 -0.9168  0.2003
  1494G12c H00V27712  11.529   8.229   4.405  1.0013 -3.4271  0.0885
  1494G12c H00U27713  11.395   8.115   4.436 -6.3650  3.9181 -2.1776
  1494G12c H00T27714  11.516   8.168   4.556  2.6359  7.2173  1.8814
  1504G12c C00D27715   5.495   3.558   9.539 -0.4507 -0.1880 -1.1117
  1504G12c O00B27716   5.619   3.533   9.477  1.1260  0.5318  0.7377
  1504G12c C02527717   5.645   3.407   9.443 -1.4981 -0.4917  0.5259
  1504G12c C02627718   5.786   3.349   9.517  1.0131  1.6393  0.4842
  1504G12c H00Y27719   5.844   3.441   9.528  2.8788  0.5761 -0.2123
  1504G12c H00X27720   5.847   3.276   9.464 -5.0577 -1.1254 -3.2617
  1504G12c O00C27721   5.735   3.294   9.640  0.5619 -0.7776 -1.5031
  1504G12c H00W27722   5.674   3.360   9.667  3.5498  0.8982  1.4996
  1504G12c C02727723   5.555   3.342   9.356 -0.8658  0.6928  0.9871
  1504G12c O00D27724   5.452   3.402   9.287  0.1557 -0.8957  0.6338
  1504G12c H00Z27725   5.491   3.371   9.207  2.8916 -0.2230  1.6381
  1504G12c C02827726   5.570   3.199   9.324  0.0954 -0.1150 -0.4268
  1504G12c C02927727   5.598   3.090   9.419 -1.9146 -0.3541  1.2280
  1504G12c H01027728   5.590   3.150   9.508 -4.1057  3.6860 -1.5473
  1504G12c C02T27729   5.634   2.950   9.398 -0.7631  0.1959 -0.2045
  1504G12c H01O27730   5.663   2.888   9.482  4.0726  0.5481 -1.4537
  1504G12c C02S27731   5.628   2.930   9.261  0.4876  0.4710  1.4219
  1504G12c O00J27732   5.640   2.805   9.208  1.2689 -0.6802  0.5115
  1504G12c H01P27733   5.602   2.794   9.123 -2.0623 -1.5168  2.0131
  1504G12c C02R27734   5.602   3.028   9.163 -0.0132  0.4145 -0.2914
  1504G12c O00I27735   5.628   2.981   9.025  0.6317  0.2828 -0.5710
  1504G12c C02Q27736   5.758   2.951   8.980 -1.0428 -0.5772  0.1105
  1504G12c H01N27737   5.831   3.032   8.986  1.4209 -2.3970 -3.6493
  1504G12c H01R27738   5.813   2.894   9.054 -4.6502 -2.8896  1.1655
  1504G12c H01Q27739   5.790   2.924   8.879  2.5061  1.2887  0.6557
  1504G12c C02A27740   5.585   3.159   9.197  0.4345 -0.8187 -1.4619
  1504G12c H01127741   5.563   3.217   9.109 -3.9678  1.9796  1.2941
  1504G12c C00C27742   5.452   3.483   9.638  1.6980 -2.9612  0.0784
  1504G12c H01227743   5.524   3.405   9.655  2.3293 -3.4725 -4.3746
  1504G12c C00B27744   5.334   3.496   9.698  0.9015  0.8449  1.7627
  1504G12c C00A27745   5.262   3.415   9.778  1.3942 -1.0441  0.0849
  1504G12c C00927746   5.291   3.278   9.822  0.1000  0.1726  2.3525
  1504G12c C00827747   5.363   3.173   9.774  0.8229 -0.7684 -0.7695
  1504G12c H01327748   5.421   3.177   9.683 -0.3470 -2.3852 -1.6105
  1504G12c C00727749   5.350   3.058   9.831 -0.7264 -0.1822 -1.2119
  1504G12c H01427750   5.410   2.976   9.793  3.6019  1.6284  1.2975
  1504G12c C00627751   5.251   3.020   9.931 -1.7707 -0.6400 -0.7597
  1504G12c C00527752   5.169   3.128   9.952 -0.4093  1.4733 -1.6851
  1504G12c C00427753   5.030   3.102   9.970 -2.0201 -0.3800  1.0329
  1504G12c C00327754   4.936   3.206   9.993 -0.9223 -0.7275 -0.7483
  1504G12c C00227755   4.796   3.161  10.030  0.7106  0.6698  0.9669
  1504G12c C00127756   4.683   3.243  10.046 -1.1510  1.4013 -2.1331
  1504G12c C00M27757   4.662   3.357   9.960  0.5619  0.1254 -1.0406
  1504G12c C00L27758   4.745   3.468   9.932  0.4787 -2.3112  1.2956
  1504G12c C00R27759   4.716   3.568   9.836  0.9057  0.3071 -0.5218
  1504G12c C00Q27760   4.604   3.599   9.746 -0.4231  0.9516  0.9613
  1504G12c C00V27761   4.646   3.668   9.621 -0.4043  0.6781  0.4293
  1504G12c C00U27762   4.788   3.714   9.590  0.0126  1.4617  1.5537
  1504G12c C00T27763   4.889   3.696   9.681 -0.0294 -1.6570  0.6917
  1504G12c C01627764   5.018   3.684   9.647 -0.1042  0.8445  0.4092
  1504G12c C01527765   5.044   3.757   9.526  0.4372 -1.3003  0.6903
  1504G12c C01027766   4.949   3.821   9.449 -1.7953 -1.3474 -1.8525
  1504G12c C01127767   4.980   3.887   9.326 -1.4320 -0.5914 -1.0853
  1504G12c H00527768   4.898   3.909   9.259  1.3647 -0.5459 -4.6487
  1504G12c C01227769   5.104   3.887   9.283 -0.4771 -0.1398 -0.0359
  1504G12c C01727770   5.120   3.911   9.137 -0.1545  1.0792  2.0181
  1504G12c O00227771   5.204   4.015   9.095 -2.2858 -0.4026  0.2893
  1504G12c H00427772   5.217   4.048   9.183 -3.9070  3.3412 -0.7755
  1504G12c C01827773   5.059   3.844   9.045  0.0320  0.1948  0.7899
  1504G12c O00127774   5.086   3.877   8.920  0.0177 -0.1917 -1.0495
  1504G12c H00327775   4.999   3.867   8.885 -0.6643  0.4705  0.3819
  1504G12c C01927776   4.958   3.730   9.044  1.3403 -0.4623  0.5809
  1504G12c H00227777   5.007   3.633   9.055  3.3449  0.5515  0.8071
  1504G12c H00127778   4.893   3.739   9.131  3.1631  7.3688  1.5173
  1504G12c O00027779   4.888   3.742   8.937  1.2373  0.8450  1.5653
  1504G12c C01A27780   4.770   3.685   8.925  0.0741 -0.1425 -0.3104
  1504G12c C02K27781   4.702   3.705   8.802  0.4936 -0.4008 -0.6422
  1504G12c O00G27782   4.769   3.751   8.691 -1.1361 -0.5611  0.6393
  1504G12c C02M27783   4.836   3.665   8.604 -0.0843 -1.1489 -0.1390
  1504G12c H01G27784   4.826   3.723   8.512 -1.2209 -2.3491 -0.7847
  1504G12c H01F27785   4.809   3.561   8.590 -2.7288  0.1768 -6.5026
  1504G12c H01E27786   4.943   3.670   8.620 -0.1477  2.7750 -0.3385
  1504G12c C02J27787   4.566   3.692   8.807 -0.0480 -0.5458  0.0634
  1504G12c H01H27788   4.514   3.731   8.721  2.5566 -2.9816 -2.7567
  1504G12c C02I27789   4.480   3.636   8.903  0.1612  0.0703 -1.9309
  1504G12c C02N27790   4.339   3.590   8.872 -1.8533 -0.9209 -0.1324
  1504G12c H01M27791   4.314   3.492   8.833 -0.0782  0.1201 -4.1280
  1504G12c C02O27792   4.231   3.657   8.893 -0.3162 -0.6642 -0.6124
  1504G12c H01L27793   4.230   3.765   8.904  1.0412 -0.2225 -4.1873
  1504G12c C02P27794   4.102   3.577   8.846  1.0579 -0.7365 -0.6734
  1504G12c H01K27795   4.034   3.647   8.798 -0.5858  0.1553  2.8063
  1504G12c H01J27796   4.096   3.490   8.781 -8.6623 -0.9747 -0.2814
  1504G12c O00H27797   4.033   3.527   8.970  1.1247  0.5751 -0.0398
  1504G12c H01I27798   4.049   3.601   9.026  4.5096 -2.0036  2.6656
  1504G12c C02H27799   4.561   3.596   9.006 -0.9057 -1.0774 -0.0091
  1504G12c H01C27800   4.535   3.532   9.089 -1.1008 -1.3066 -0.2447
  1504G12c C02L27801   4.702   3.615   9.035 -0.8962  0.9817  0.9677
  1504G12c H01D27802   4.746   3.592   9.132  1.4667  4.9117  0.9242
  1504G12c C01327803   5.201   3.851   9.374 -0.7348 -1.1008  1.8649
  1504G12c H00027804   5.277   3.802   9.315 -0.1054 -1.9278  3.3335
  1504G12c C01427805   5.178   3.783   9.504  1.0942  0.7415 -1.0391
  1504G12c C00F27806   5.289   3.689   9.552 -1.3984 -2.2738  0.6657
  1504G12c C00H27807   5.118   3.629   9.721 -0.8118  0.9335 -0.3819
  1504G12c C00I27808   5.077   3.541   9.838 -0.7891  1.2518 -0.6970
  1504G12c C00J27809   4.944   3.555   9.871  1.2238  1.5104  1.2271
  1504G12c C00Z27810   4.813   3.794   9.488  2.0823  0.6191 -0.1871
  1504G12c C00Y27811   4.697   3.857   9.411 -2.4814  0.1975  0.5601
  1504G12c H00627812   4.724   3.930   9.336  0.2888 -5.0926 -4.0575
  1504G12c C00X27813   4.569   3.816   9.429  1.5638  0.2849  0.0953
  1504G12c O00327814   4.485   3.884   9.355  0.7692 -0.6161 -0.0706
  1504G12c C01B27815   4.514   3.862   9.214  0.3852  0.6785  0.4066
  1504G12c H00927816   4.525   3.754   9.202 -1.6168  0.7721 -2.7804
  1504G12c H00827817   4.588   3.924   9.163 -1.9183  3.4871  0.3667
  1504G12c H00727818   4.413   3.889   9.186 -0.7346 -0.9308  2.7132
  1504G12c C00W27819   4.553   3.726   9.533 -1.5093  1.6891 -0.0306
  1504G12c O00427820   4.418   3.696   9.549 -0.6251  1.8518 -0.5250
  1504G12c C01C27821   4.377   3.613   9.646  1.2723  0.2271  0.8136
  1504G12c H00A27822   4.276   3.575   9.646  1.3595 -0.1573 -2.9312
  1504G12c C00P27823   4.480   3.542   9.735 -0.4617  1.2387 -0.7505
  1504G12c C00O27824   4.448   3.424   9.818 -0.4683  1.2812 -0.9603
  1504G12c C01D27825   4.338   3.358   9.775  1.4999  0.7822 -1.3835
  1504G12c H00S27826   4.293   3.395   9.683  0.0974  4.2238  0.5849
  1504G12c C01E27827   4.313   3.225   9.804 -0.9682 -2.0952  1.3302
  1504G12c O00827828   4.202   3.161   9.765 -0.2530  0.0709  0.7507
  1504G12c C01V27829   4.073   3.175   9.833  1.1799  1.0331  1.2972
  1504G12c C01Z27830   3.957   3.219   9.740  0.2634 -0.8717  0.4798
  1504G12c H00R27831   4.006   3.238   9.644 -4.0418  2.5052 -1.2212
  1504G12c H00Q27832   3.883   3.145   9.708 -1.4731 -0.2383  2.8744
  1504G12c O00927833   3.914   3.336   9.790 -0.9432  0.2330 -0.1012
  1504G12c H00P27834   3.970   3.412   9.784 -2.5283  1.2343 -5.6736
  1504G12c C01W27835   4.068   3.143   9.964  0.3417 -0.0464  0.2621
  1504G12c H00O27836   4.153   3.103  10.017 -0.1593 -3.9612 -1.6471
  1504G12c C01X27837   3.938   3.107  10.042 -0.4095  1.2616  0.1622
  1504G12c H00N27838   3.852   3.144   9.987  0.4930 -1.4046 -3.2678
  1504G12c H00M27839   3.930   3.000  10.063  5.3422  1.0488  2.2772
  1504G12c C01Y27840   3.942   3.163  10.187 -0.0594  1.1739 -1.3334
  1504G12c C02D27841   3.954   3.304  10.228  1.8967 -0.6619  2.2406
  1504G12c H01927842   3.931   3.371  10.146 -1.5918 -3.2978  0.8984
  1504G12c C02C27843   3.935   3.358  10.362  0.0026 -0.4253 -0.4325
  1504G12c H01A27844   3.938   3.464  10.378 -3.8689 -0.3343  0.2690
  1504G12c C02B27845   3.936   3.263  10.463 -0.1227  0.4288  2.3135
  1504G12c O00E27846   3.930   3.299  10.592  0.5238 -2.4452  0.0134
  1504G12c H01B27847   3.936   3.236  10.661 -1.7493 -1.4700  1.1635
  1504G12c C02F27848   3.957   3.121  10.439 -1.6797 -0.2018  0.4048
  1504G12c O00F27849   3.996   3.055  10.561 -1.0536  0.7296 -1.0277
  1504G12c C02G27850   3.920   2.946  10.602 -0.6432  0.4361 -1.7256
  1504G12c H01727851   3.912   2.893  10.508 -9.2490  4.7356 -3.9634
  1504G12c H01627852   3.828   2.961  10.659  1.5411 -0.7535  2.3550
  1504G12c H01527853   3.987   2.891  10.668 -2.0870  2.8188  1.9159
  1504G12c C02E27854   3.959   3.076  10.296 -0.2444  0.3092  0.4239
  1504G12c H01827855   3.932   2.974  10.274 -3.9305  1.2743  0.0105
  1504G12c C01F27856   4.404   3.139   9.865 -0.7445 -0.0158  0.5865
  1504G12c C01G27857   4.410   3.001   9.867 -0.6191  0.6953  0.7295
  1504G12c H00L27858   4.351   2.939   9.801 -0.1815  0.4760  0.5440
  1504G12c C01H27859   4.529   2.944   9.926  0.0332 -0.9093 -0.3886
  1504G12c H00B27860   4.565   2.846   9.899  4.1458  0.3144  0.3043
  1504G12c C01I27861   4.624   3.039   9.982 -1.3075  0.8404 -0.5362
  1504G12c C01U27862   4.487   3.216   9.940 -1.1368 -0.3805  0.2427
  1504G12c C00S27863   4.844   3.617   9.794  1.4901  0.6546 -0.7230
  1504G12c C00K27864   4.877   3.456   9.940  0.4953  0.8288  0.0411
  1504G12c C00N27865   4.535   3.343   9.899 -0.3211  0.8509 -0.6265
  1504G12c C00027866   4.582   3.156  10.018 -0.7625 -0.7433 -1.1675
  1504G12c C01J27867   4.765   3.026  10.003 -0.4355  0.6628  0.0585
  1504G12c C01K27868   4.855   2.914   9.994 -0.9806  0.2560  1.4653
  1504G12c C01P27869   4.844   2.776   9.985  0.2751  1.5787 -1.0935
  1504G12c C01Q27870   4.715   2.705  10.003 -0.6444 -0.4688  0.8930
  1504G12c H00G27871   4.665   2.672  10.092  2.7524  2.7204  4.1528
  1504G12c C01R27872   4.674   2.635   9.893  0.6537 -1.2755  1.8040
  1504G12c H00F27873   4.732   2.639   9.802  0.0476 -1.4360  1.4133
  1504G12c C01S27874   4.534   2.559   9.897  0.1660  0.9575 -0.9539
  1504G12c H00E27875   4.566   2.455   9.900 -3.8875 -0.3080  1.2037
  1504G12c H00D27876   4.468   2.584   9.980  3.2504 -0.7321  2.1691
  1504G12c O00527877   4.481   2.585   9.764  0.0649  0.2745 -0.2053
  1504G12c H00C27878   4.536   2.529   9.712 -3.5276 -7.7843  3.6247
  1504G12c C01O27879   4.950   2.696   9.981 -1.1688  0.9702 -1.3676
  1504G12c H00H27880   4.903   2.602   9.955  4.8789 -1.3126 -5.1645
  1504G12c C01N27881   5.068   2.733   9.993  0.8640 -0.5306  1.0032
  1504G12c O00627882   5.160   2.633   9.990 -0.5540 -0.2396 -1.8565
  1504G12c C01T27883   5.189   2.592   9.865  0.4449  0.8467 -1.0565
  1504G12c H00K27884   5.217   2.489   9.886  5.5664  0.6740 -7.3012
  1504G12c H00J27885   5.096   2.595   9.809  0.7749  2.2240 -1.5408
  1504G12c H00I27886   5.277   2.651   9.839 -0.3821  1.6664 -2.0299
  1504G12c C01M27887   5.091   2.869   9.974  0.2735  0.7795 -1.6833
  1504G12c C02027888   4.967   3.350   9.963 -1.2051 -1.2362 -0.2473
  1504G12c C02127889   5.107   3.361   9.949 -0.4737 -1.3377 -0.0020
  1504G12c C01L27890   4.987   2.972   9.988 -0.0326 -0.1683  1.6177
  1504G12c O00727891   5.224   2.891   9.936 -0.9811 -1.3180 -0.3147
  1504G12c C02227892   5.204   3.262   9.932 -0.3227  0.3761  0.2860
  1504G12c C02327893   5.179   3.466   9.878 -0.1822  1.5461  0.0945
  1504G12c C00G27894   5.250   3.604   9.650  1.0758  2.0089 -0.5797
  1504G12c C00E27895   5.417   3.670   9.487 -0.0750 -0.1947 -0.8793
  1504G12c O00A27896   5.468   3.763   9.403  0.2610  0.5254  1.0632
  1504G12c C02427897   5.525   3.894   9.461  1.3373  0.0459 -0.4953
  1504G12c H00V27898   5.632   3.881   9.480  0.3792 -4.2642  2.5596
  1504G12c H00U27899   5.457   3.941   9.532  4.4093  2.3462  1.0868
  1504G12c H00T27900   5.502   3.951   9.370 -4.1058  2.2366  2.0242
  1514G12c C00D27901   2.780   7.383   2.109  1.2533  1.1092  0.9933
  1514G12c O00B27902   2.871   7.301   2.046 -0.7606 -0.6674  0.3172
  1514G12c C02527903   2.859   7.159   2.001  0.0095  1.3521  0.3620
  1514G12c C02627904   2.830   7.155   1.858 -0.0068 -0.7119 -0.8473
  1514G12c H00Y27905   2.812   7.261   1.842 -0.5375 -0.8038 -0.8794
  1514G12c H00X27906   2.731   7.113   1.844 -0.8599  2.3912 -5.0149
  1514G12c O00C27907   2.920   7.075   1.787  0.8660  0.2489  0.3298
  1514G12c H00W27908   2.920   7.081   1.693  0.2913  4.6160  0.5206
  1514G12c C02727909   2.874   7.058   2.080 -0.9913 -0.7282  1.4718
  1514G12c O00D27910   2.923   7.075   2.206  0.2675 -0.9649  0.4204
  1514G12c H00Z27911   3.004   7.116   2.234  3.0614 -4.9360 -1.3266
  1514G12c C02827912   2.833   6.924   2.038  0.7782 -0.3166  0.7094
  1514G12c C02927913   2.711   6.905   1.978 -2.1403  0.0789  0.9124
  1514G12c H01027914   2.638   6.985   1.984 -1.3752  1.1412 -2.5084
  1514G12c C02T27915   2.662   6.766   1.970 -0.5868 -1.2699  0.5596
  1514G12c H01O27916   2.560   6.777   1.933  1.0551 -5.8669 -6.3282
  1514G12c C02S27917   2.754   6.667   2.014  1.9420  0.0763 -1.0032
  1514G12c O00J27918   2.706   6.541   2.034 -0.3013 -1.4036 -0.7459
  1514G12c H01P27919   2.777   6.504   2.085  0.3776  3.6301  2.3467
  1514G12c C02R27920   2.874   6.691   2.067 -0.0854  0.8573  0.5571
  1514G12c O00I27921   2.947   6.584   2.103  0.5406  0.8898 -0.6328
  1514G12c C02Q27922   3.094   6.570   2.150  1.2658  0.8224  1.4184
  1514G12c H01N27923   3.071   6.480   2.207  2.0374 -1.2762 -1.4629
  1514G12c H01R27924   3.134   6.620   2.238  3.7310 -6.4355  4.8464
  1514G12c H01Q27925   3.167   6.563   2.070 -3.2520 -4.5840 -2.6809
  1514G12c C02A27926   2.923   6.819   2.072  0.8889 -1.9859  0.2947
  1514G12c H01127927   3.017   6.845   2.117  2.6018 -2.2510 -2.9961
  1514G12c C00C27928   2.706   7.338   2.205  0.3654  0.8686  1.0830
  1514G12c H01227929   2.719   7.239   2.246  0.8897 -1.3090 -4.0027
  1514G12c C00B27930   2.617   7.432   2.269 -1.4842 -0.9982 -0.3790
  1514G12c C00A27931   2.576   7.421   2.406 -1.8083  0.6185 -1.0065
  1514G12c C00927932   2.526   7.280   2.454 -1.1419  0.4687 -0.4742
  1514G12c C00827933   2.560   7.148   2.433  2.2413 -1.1071 -1.3505
  1514G12c H01327934   2.635   7.100   2.371  1.7469  1.0971 -3.7164
  1514G12c C00727935   2.462   7.046   2.468 -0.0785 -0.2536  0.3514
  1514G12c H01427936   2.483   6.941   2.460 -4.8535 -1.3298  0.6230
  1514G12c C00627937   2.350   7.084   2.544  0.9489  1.5072 -0.4740
  1514G12c C00527938   2.317   7.215   2.581 -1.1661  0.4172 -0.9494
  1514G12c C00427939   2.183   7.257   2.597 -0.2929 -0.5757 -0.2346
  1514G12c C00327940   2.160   7.388   2.597  0.1186  0.2653 -0.0818
  1514G12c C00227941   2.012   7.431   2.632  0.8344 -0.2013 -0.6306
  1514G12c C00127942   1.947   7.553   2.636 -1.7138 -1.2483 -0.3619
  1514G12c C00M27943   1.951   7.662   2.525 -0.9622  0.7849  0.5840
  1514G12c C00L27944   2.077   7.697   2.458  2.3746 -1.5134  0.4947
  1514G12c C00R27945   2.093   7.763   2.334 -1.1126  2.5358  0.2346
  1514G12c C00Q27946   2.010   7.809   2.219  1.3976 -0.5357  0.6853
  1514G12c C00V27947   2.063   7.864   2.106 -0.4728  0.7776  1.0057
  1514G12c C00U27948   2.200   7.836   2.092 -0.1769  0.5844 -0.0753
  1514G12c C00T27949   2.283   7.765   2.185  1.3627 -0.4456  0.7876
  1514G12c C01627950   2.422   7.732   2.176 -0.0975 -1.1582 -0.4728
  1514G12c C01527951   2.459   7.735   2.049  0.8266 -1.0228  0.7105
  1514G12c C01027952   2.393   7.812   1.938 -1.1933 -0.3051  1.5007
  1514G12c C01127953   2.464   7.876   1.827 -0.0816 -1.7341  0.0262
  1514G12c H00527954   2.418   7.952   1.767  0.2664 -1.9409 -0.5110
  1514G12c C01227955   2.604   7.821   1.803 -0.0010  0.9619 -0.5126
  1514G12c C01727956   2.691   7.865   1.687 -0.5876  0.4772 -0.1869
  1514G12c O00227957   2.815   7.900   1.742  1.5025 -0.2587  0.0142
  1514G12c H00427958   2.886   7.901   1.680 -3.9392  7.4157 -7.2796
  1514G12c C01827959   2.620   7.871   1.574  0.3890  0.8352  0.8355
  1514G12c O00127960   2.488   7.826   1.562  0.1147 -0.5121  1.6145
  1514G12c H00327961   2.481   7.740   1.600 -0.3408 -0.5483  1.4516
  1514G12c C01927962   2.681   7.909   1.429 -0.5982 -0.9273 -1.2785
  1514G12c H00227963   2.605   7.952   1.364  3.5245 -0.3539 -6.0045
  1514G12c H00127964   2.783   7.949   1.423 -2.5423  4.3730 -1.4513
  1514G12c O00027965   2.706   7.782   1.373  0.2817 -0.4441  0.4151
  1514G12c C01A27966   2.745   7.777   1.242 -0.3803 -0.3729  0.5466
  1514G12c C02K27967   2.824   7.676   1.184  0.9488  1.1216 -0.3146
  1514G12c O00G27968   2.891   7.598   1.280 -0.1351  0.9001 -1.0697
  1514G12c C02M27969   2.832   7.473   1.288 -0.5465 -1.3472 -0.4902
  1514G12c H01G27970   2.826   7.405   1.203 -3.6986 -1.0338 -0.5901
  1514G12c H01F27971   2.883   7.409   1.360 -0.6949  3.5533  4.3358
  1514G12c H01E27972   2.741   7.474   1.348  3.2267 -4.7877  5.7091
  1514G12c C02J27973   2.876   7.681   1.053  0.5224  0.4689 -1.9395
  1514G12c H01H27974   2.950   7.608   1.024  1.8887  0.7784  0.6506
  1514G12c C02I27975   2.866   7.795   0.970  0.8101  0.9962 -2.0945
  1514G12c C02N27976   2.908   7.777   0.839  0.6981  0.7174 -0.1224
  1514G12c H01M27977   2.895   7.861   0.771  0.7007  2.0822  1.5175
  1514G12c C02O27978   2.963   7.664   0.787  0.6215 -0.7735  0.2372
  1514G12c H01L27979   2.960   7.564   0.828 -2.8355 -0.2624  1.4556
  1514G12c C02P27980   3.052   7.677   0.673  1.4471  1.4677 -1.9105
  1514G12c H01K27981   3.103   7.592   0.628  2.9837  1.6854 -0.6250
  1514G12c H01J27982   2.998   7.713   0.586 -1.0016  0.3385 -0.8989
  1514G12c O00H27983   3.129   7.789   0.676  0.1745 -1.2689 -0.7587
  1514G12c H01I27984   3.092   7.856   0.731 -3.7406  0.1472 -4.8456
  1514G12c C02H27985   2.778   7.896   1.033 -0.1158 -2.4854  2.1236
  1514G12c H01C27986   2.777   7.976   0.959 -0.5741 -7.7679 -4.0030
  1514G12c C02L27987   2.724   7.884   1.152 -0.6040  0.2307  0.4365
  1514G12c H01D27988   2.655   7.968   1.161 -3.0863 -1.9639  2.9267
  1514G12c C01327989   2.645   7.717   1.894 -1.1692  1.3228 -0.0643
  1514G12c H00027990   2.740   7.683   1.857  0.5253  1.8762  3.5286
  1514G12c C01427991   2.579   7.671   2.004 -0.0700  0.5080 -0.2222
  1514G12c C00F27992   2.634   7.570   2.087  0.5724  0.6859  1.8844
  1514G12c C00H27993   2.477   7.626   2.261 -0.7506  0.4446  1.1219
  1514G12c C00I27994   2.423   7.605   2.388  0.4343 -1.7497 -1.2087
  1514G12c C00J27995   2.300   7.677   2.401 -0.2128 -1.6322  0.9905
  1514G12c C00Z27996   2.260   7.867   1.965 -0.6340  1.6015 -0.6300
  1514G12c C00Y27997   2.182   7.878   1.847  0.3200  0.6096  0.5462
  1514G12c H00627998   2.217   7.838   1.753  2.1020 -2.4711  2.4262
  1514G12c C00X27999   2.037   7.913   1.853 -1.5353 -2.4166  0.1462
  1514G12c O00328000   1.969   7.934   1.741 -0.5516  1.3044  1.3398
  1514G12c C01B28001   1.871   7.827   1.690 -0.8723  0.2074 -1.2720
  1514G12c H00928002   1.815   7.813   1.783 -2.3076  2.9788 -1.6752
  1514G12c H00828003   1.920   7.736   1.654  1.2495 -3.0035  8.1034
  1514G12c H00728004   1.796   7.855   1.616 -2.6909  2.3210  1.2742
  1514G12c C00W28005   1.985   7.905   1.991 -0.2929 -0.5845 -0.2649
  1514G12c O00428006   1.839   7.903   2.007  0.4642  1.2311 -0.1516
  1514G12c C01C28007   1.794   7.883   2.129  0.0124 -0.0002  1.0053
  1514G12c H00A28008   1.715   7.956   2.134 -0.9494 -0.6911 -2.3656
  1514G12c C00P28009   1.872   7.823   2.234 -0.4009 -0.3790 -0.2938
  1514G12c C00O28010   1.788   7.760   2.334  0.5185  2.1152  0.4180
  1514G12c C01D28011   1.649   7.729   2.297 -2.2770  1.2894 -2.5466
  1514G12c H00S28012   1.598   7.756   2.205 -0.5786 -2.4056 -4.6502
  1514G12c C01E28013   1.591   7.597   2.336 -0.4125  0.4300  0.5028
  1514G12c O00828014   1.508   7.530   2.257  1.0491 -0.4112  0.7515
  1514G12c C01V28015   1.381   7.579   2.240  0.9522  0.3462 -0.3491
  1514G12c C01Z28016   1.274   7.546   2.347 -0.2204 -0.8179  1.3110
  1514G12c H00R28017   1.175   7.575   2.313  1.1610  3.3572  0.5288
  1514G12c H00Q28018   1.258   7.441   2.372 -0.8920 -0.0634  4.2252
  1514G12c O00928019   1.300   7.623   2.456 -1.2100  1.2166 -0.9848
  1514G12c H00P28020   1.365   7.565   2.494 -2.8816  1.5648  2.6882
  1514G12c C01W28021   1.349   7.681   2.159 -0.5718  2.2946 -0.2229
  1514G12c H00O28022   1.417   7.705   2.079 -1.2876 -2.6209 -2.5185
  1514G12c C01X28023   1.216   7.752   2.145  0.0612 -2.2427 -0.6564
  1514G12c H00N28024   1.182   7.808   2.058 -0.7443  6.5940  4.7882
  1514G12c H00M28025   1.120   7.708   2.171 -1.0770 -2.3916 -4.8192
  1514G12c C01Y28026   1.222   7.884   2.223 -1.2398  0.3613 -1.2694
  1514G12c C02D28027   1.313   7.924   2.330 -0.0459  0.6751  0.9765
  1514G12c H01928028   1.391   7.850   2.335  4.3332  4.1183 -7.2412
  1514G12c C02C28029   1.284   8.045   2.397 -0.1352  0.2115 -1.8386
  1514G12c H01A28030   1.350   8.068   2.480 -5.6562  8.3070  0.9140
  1514G12c C02B28031   1.209   8.152   2.337  2.3917 -0.6236 -0.9625
  1514G12c O00E28032   1.195   8.275   2.390 -0.0019 -0.0606  0.4091
  1514G12c H01B28033   1.126   8.332   2.358  1.4591  2.1325  0.9944
  1514G12c C02F28034   1.162   8.125   2.206  1.5926 -0.1891  1.1280
  1514G12c O00F28035   1.090   8.227   2.134 -1.7439  0.5077 -0.7792
  1514G12c C02G28036   1.178   8.302   2.033  0.5697 -0.2335 -0.4240
  1514G12c H01728037   1.113   8.345   1.957 -0.7766 -0.8564  0.3529
  1514G12c H01628038   1.237   8.377   2.086 -3.7742  1.6152  2.1031
  1514G12c H01528039   1.249   8.219   2.020 -0.5853 -0.9064 -2.6859
  1514G12c C02E28040   1.162   7.992   2.155  1.0400 -1.2985  1.3374
  1514G12c H01828041   1.136   7.999   2.051  0.8605  3.8756  1.6112
  1514G12c C01F28042   1.641   7.546   2.459  0.7540  0.2786  0.7443
  1514G12c C01G28043   1.596   7.415   2.486 -0.9407  0.7549 -0.1702
  1514G12c H00L28044   1.587   7.352   2.399 -2.0493  1.1921 -0.3675
  1514G12c C01H28045   1.674   7.329   2.564 -0.1464  0.9383  0.1692
  1514G12c H00B28046   1.622   7.236   2.581  6.4784 -2.8482  1.2619
  1514G12c C01I28047   1.787   7.374   2.631 -0.8789 -0.4212 -1.3992
  1514G12c C01U28048   1.743   7.600   2.533  1.1252  0.1968 -1.9465
  1514G12c C00S28049   2.221   7.743   2.307 -0.9033 -0.5552 -0.1479
  1514G12c C00K28050   2.199   7.620   2.485 -2.9563  0.4357 -0.4509
  1514G12c C00N28051   1.825   7.698   2.471  0.7094 -0.7974  0.0475
  1514G12c C00028052   1.814   7.515   2.630  0.0807 -0.2623  2.2367
  1514G12c C01J28053   1.921   7.327   2.654 -0.4008  0.8290 -1.1264
  1514G12c C01K28054   1.958   7.195   2.661  0.8219  0.1595 -0.2823
  1514G12c C01P28055   1.861   7.087   2.705  1.3575 -1.6307  0.4840
  1514G12c C01Q28056   1.735   7.113   2.761  0.2882  0.7162  0.9548
  1514G12c H00G28057   1.712   7.192   2.831 -3.0373  1.2842 -0.6878
  1514G12c C01R28058   1.639   7.036   2.738 -0.4501  0.1131  0.1984
  1514G12c H00F28059   1.543   7.045   2.787 -0.7378  1.6130 -0.6136
  1514G12c C01S28060   1.631   6.900   2.671 -1.7251  0.8120  0.7071
  1514G12c H00E28061   1.541   6.857   2.627  0.6413 -0.4060 -3.2190
  1514G12c H00D28062   1.701   6.913   2.589  3.4446 -7.1249  3.2428
  1514G12c O00528063   1.678   6.792   2.762 -0.6041  0.6521  0.8085
  1514G12c H00C28064   1.665   6.700   2.742  3.6466  0.7387 -3.1617
  1514G12c C01O28065   1.923   6.968   2.724 -1.3643  0.4587 -0.9600
  1514G12c H00H28066   1.866   6.913   2.797 -2.6334 -0.4278 -2.5535
  1514G12c C01N28067   2.055   6.925   2.673  1.0713 -0.0947  0.6070
  1514G12c O00628068   2.103   6.801   2.672  1.5732 -0.9837 -0.1221
  1514G12c C01T28069   1.995   6.697   2.679 -0.8837  1.7446 -0.0017
  1514G12c H00K28070   2.008   6.664   2.782 -2.8572 -2.1523 -0.9128
  1514G12c H00J28071   1.992   6.626   2.595  0.9960 -0.8882  2.0614
  1514G12c H00I28072   1.899   6.735   2.644  0.6116  0.7272 -5.8179
  1514G12c C01M28073   2.134   7.017   2.625  0.7388 -0.1803 -0.4806
  1514G12c C02028074   2.245   7.492   2.554 -1.3562 -0.4188  0.9156
  1514G12c C02128075   2.393   7.446   2.564 -0.6053 -0.2511 -1.3728
  1514G12c C01L28076   2.087   7.158   2.637  0.0287 -0.3232  0.0639
  1514G12c O00728077   2.249   6.977   2.555  0.0093  0.7563 -0.6566
  1514G12c C02228078   2.412   7.310   2.550 -2.0198 -0.2681  0.4973
  1514G12c C02328079   2.476   7.497   2.462 -1.3841 -2.2010  0.9516
  1514G12c C00G28080   2.583   7.553   2.211 -1.0764 -0.4103  0.9944
  1514G12c C00E28081   2.750   7.495   2.054 -0.9844 -2.1812 -1.3900
  1514G12c O00A28082   2.854   7.537   1.966 -0.5401  0.2948  0.2835
  1514G12c C02428083   2.960   7.624   2.002 -1.1673  0.5794  0.9321
  1514G12c H00V28084   2.932   7.726   2.025 -2.4531 -0.1828  2.9136
  1514G12c H00U28085   3.010   7.578   2.087  1.8063 -1.9581 -2.0159
  1514G12c H00T28086   3.040   7.604   1.930  0.9407 -1.3342  3.7117
  1524G12c C00D28087   0.093   3.672   3.129  0.5653  0.2096  1.3247
  1524G12c O00B28088   0.184   3.571   3.163  0.7730 -0.1881  0.8015
  1524G12c C02528089   0.315   3.576   3.129  0.5722 -0.2029  0.3810
  1524G12c C02628090   0.397   3.494   3.201 -0.5009 -0.6573  0.1553
  1524G12c H00Y28091   0.352   3.511   3.299  1.1856  7.6038 -0.1395
  1524G12c H00X28092   0.504   3.501   3.220 -0.3026 -0.0988 -1.1120
  1524G12c O00C28093   0.366   3.352   3.184 -0.3133 -0.0637 -1.7024
  1524G12c H00W28094   0.278   3.341   3.216  1.9115 -2.0050  4.5211
  1524G12c C02728095   0.373   3.677   3.052  1.1711 -1.1275 -0.5335
  1524G12c O00D28096   0.295   3.777   2.991  1.1336 -0.7961 -0.5242
  1524G12c H00Z28097   0.285   3.774   2.897 -1.0446  5.3140 -0.6715
  1524G12c C02828098   0.515   3.705   3.053 -0.1620 -1.9143 -0.2674
  1524G12c C02928099   0.585   3.823   3.101 -0.4278  0.4697  0.3783
  1524G12c H01028100   0.524   3.904   3.136 -0.0413 -2.0098  7.6360
  1524G12c C02T28101   0.713   3.817   3.091 -1.0013 -0.6905  0.2890
  1524G12c H01O28102   0.754   3.908   3.132 -0.7469  0.1370 -1.7629
  1524G12c C02S28103   0.795   3.732   3.024  0.4680  0.9974  0.6483
  1524G12c O00J28104   0.920   3.765   3.043 -1.1709  1.9101 -0.0206
  1524G12c H01P28105   0.971   3.701   3.091  1.8020  1.4886 -3.5053
  1524G12c C02R28106   0.734   3.602   2.992  0.6959  0.4964  0.6288
  1524G12c O00I28107   0.818   3.499   2.950 -0.2946 -1.3194 -0.1364
  1524G12c C02Q28108   0.780   3.373   2.996  0.9540  0.0009  1.5169
  1524G12c H01N28109   0.675   3.346   2.992 -0.0113  3.7325 -1.9132
  1524G12c H01R28110   0.835   3.341   3.085 -1.4406 -3.2869  1.8995
  1524G12c H01Q28111   0.831   3.300   2.933  0.8525  0.1949  1.2048
  1524G12c C02A28112   0.592   3.606   3.014 -0.8050  1.8196 -0.6036
  1524G12c H01128113   0.555   3.519   2.963 -2.5841  0.8481  2.2057
  1524G12c C00C28114   0.085   3.774   3.227  1.1953  0.9880  1.2357
  1524G12c H01228115   0.167   3.802   3.292  3.2411  0.7150 -1.1664
  1524G12c C00B28116  -0.018   3.862   3.211 -0.2792 -1.5777 -0.0908
  1524G12c C00A28117  -0.042   3.978   3.298 -0.6651 -0.8161 -1.1904
  1524G12c C00928118   0.008   4.032   3.433  1.4661  1.7998  0.5079
  1524G12c C00828119   0.069   3.968   3.552  0.7068  0.4048 -0.9936
  1524G12c H01328120   0.124   3.875   3.548  0.0018 -0.0461 -0.3990
  1524G12c C00728121   0.017   4.008   3.679 -1.4514 -0.0935 -0.9519
  1524G12c H01428122   0.045   3.957   3.770 -3.8412  3.0377  1.6791
  1524G12c C00628123  -0.088   4.114   3.682 -1.3348  0.0552 -0.7628
  1524G12c C00528124  -0.133   4.177   3.575  0.5797 -0.4115  1.0345
  1524G12c C00428125  -0.258   4.253   3.584 -0.9796 -0.8934 -0.2190
  1524G12c C00328126  -0.325   4.273   3.465  0.1386  1.9857  0.5096
  1524G12c C00228127  -0.460   4.332   3.480  0.5947  0.6380 -0.1649
  1524G12c C00128128  -0.532   4.407   3.388  0.1103 -2.6090 -0.3568
  1524G12c C00M28129  -0.589   4.310   3.297  1.8515  0.9251 -0.1848
  1524G12c C00L28130  -0.507   4.260   3.191 -0.9558  1.5908  0.2617
  1524G12c C00R28131  -0.560   4.163   3.095  0.6785  0.7116  0.5913
  1524G12c C00Q28132  -0.700   4.109   3.082  0.0620  0.5690  0.7646
  1524G12c C00V28133  -0.694   3.993   3.011  0.2713 -0.6336  1.5089
  1524G12c C00U28134  -0.576   3.909   2.982  0.1559 -1.7436 -1.3444
  1524G12c C00T28135  -0.453   3.956   3.017 -0.3302  0.5071  0.2213
  1524G12c C01628136  -0.348   3.877   3.041 -0.7983  0.4753  0.1945
  1524G12c C01528137  -0.335   3.757   2.949  0.3701 -1.0381 -1.0394
  1524G12c C01028138  -0.458   3.731   2.873  1.5879  0.0180 -0.6850
  1524G12c C01128139  -0.443   3.629   2.787 -0.1126  0.8921 -0.9873
  1524G12c H00528140  -0.528   3.577   2.744  3.8944 -1.1840 -6.9940
  1524G12c C01228141  -0.321   3.578   2.736  0.3171 -0.5367 -0.7678
  1524G12c C01728142  -0.323   3.507   2.617  0.1762 -0.5086 -0.3537
  1524G12c O00228143  -0.395   3.584   2.520 -0.0624 -0.5113 -0.4253
  1524G12c H00428144  -0.442   3.505   2.497  3.3701 -3.8968  3.3302
  1524G12c C01828145  -0.289   3.386   2.590  0.7460 -0.3621  0.9464
  1524G12c O00128146  -0.210   3.305   2.661 -0.4906 -1.1344  0.3702
  1524G12c H00328147  -0.143   3.350   2.711 -3.8723  1.6274  2.6671
  1524G12c C01928148  -0.336   3.331   2.448 -1.2251  1.5895  0.2891
  1524G12c H00228149  -0.282   3.403   2.386 -3.4161  5.7465  2.9475
  1524G12c H00128150  -0.302   3.240   2.399  1.6201 -0.9746  6.5348
  1524G12c O00028151  -0.471   3.359   2.420 -0.1037 -0.6366 -0.7144
  1524G12c C01A28152  -0.552   3.286   2.495  2.3939  1.1162 -0.9330
  1524G12c C02K28153  -0.684   3.359   2.517  0.0646 -0.3630 -0.0117
  1524G12c O00G28154  -0.712   3.485   2.441  0.7258 -0.8511  0.8649
  1524G12c C02M28155  -0.767   3.459   2.302  0.2707  0.1697  0.1428
  1524G12c H01G28156  -0.811   3.554   2.271 -0.1993  0.1259  0.6478
  1524G12c H01F28157  -0.872   3.437   2.322  0.9592 -1.8026  1.8490
  1524G12c H01E28158  -0.708   3.426   2.217 -1.3939  3.4194 -2.4031
  1524G12c C02J28159  -0.778   3.289   2.579  0.6054  1.9194  0.3741
  1524G12c H01H28160  -0.878   3.323   2.558  1.4428  3.1228 -1.7897
  1524G12c C02I28161  -0.761   3.154   2.631  0.7945 -1.1006  1.4000
  1524G12c C02N28162  -0.844   3.101   2.735  0.9457 -0.8606  1.1059
  1524G12c H01M28163  -0.852   2.996   2.759  1.7707 -1.1803  0.0005
  1524G12c C02O28164  -0.828   3.176   2.846  0.6770  0.4405  0.3357
  1524G12c H01L28165  -0.866   3.131   2.937  0.0038 -6.3068 -2.9173
  1524G12c C02P28166  -0.796   3.314   2.847  0.5481  0.5738  1.1866
  1524G12c H01K28167  -0.698   3.359   2.833 -0.2210  2.2578  1.1820
  1524G12c H01J28168  -0.885   3.357   2.803  1.3602  1.9702  0.8950
  1524G12c O00H28169  -0.843   3.360   2.976  0.3454 -0.8602  1.1080
  1524G12c H01I28170  -0.878   3.283   3.019  3.2277 -0.7142  3.8692
  1524G12c C02H28171  -0.631   3.091   2.609  0.8483 -0.9480  1.3892
  1524G12c H01C28172  -0.625   2.986   2.635 -1.1151 -3.0665 -5.4342
  1524G12c C02L28173  -0.522   3.157   2.540  0.4754  0.2667 -0.1891
  1524G12c H01D28174  -0.431   3.100   2.531  0.5619  0.4941 -0.7961
  1524G12c C01328175  -0.218   3.594   2.830  0.9674 -1.0737  0.4640
  1524G12c H00028176  -0.122   3.571   2.785 -0.4831  2.9371 -5.3137
  1524G12c C01428177  -0.224   3.692   2.927  1.3523  0.4823 -0.8275
  1524G12c C00F28178  -0.116   3.727   3.017 -1.2453  0.2037  0.6507
  1524G12c C00H28179  -0.231   3.931   3.089 -0.1494  0.7944 -0.8370
  1524G12c C00I28180  -0.226   4.057   3.143  1.1013 -0.2891  0.0254
  1524G12c C00J28181  -0.334   4.141   3.116 -0.8644 -2.4464  0.2355
  1524G12c C00Z28182  -0.580   3.799   2.901 -0.4512  0.8436  0.0770
  1524G12c C00Y28183  -0.710   3.733   2.873 -1.1673  0.1080 -0.1136
  1524G12c H00628184  -0.721   3.645   2.812  0.4324 -1.7161  2.1565
  1524G12c C00X28185  -0.823   3.811   2.895  0.7279 -0.9698 -0.0275
  1524G12c O00328186  -0.954   3.760   2.861 -0.9281 -0.2816 -1.1556
  1524G12c C01B28187  -1.063   3.845   2.799  1.8878  0.6218  2.7061
  1524G12c H00928188  -1.022   3.934   2.750  0.2758  0.1161  0.3475
  1524G12c H00828189  -1.108   3.791   2.715 -0.4763  1.9410  3.0905
  1524G12c H00728190  -1.135   3.884   2.870  3.6363 -2.7879  6.5908
  1524G12c C00W28191  -0.819   3.936   2.967 -1.0222 -0.0590  1.3827
  1524G12c O00428192  -0.928   3.992   2.994  0.6273 -0.7455  0.8533
  1524G12c C01C28193  -0.943   4.111   3.029  1.3962 -0.5583 -0.8226
  1524G12c H00A28194  -1.021   4.174   2.989  4.4693  3.7307 -0.4008
  1524G12c C00P28195  -0.833   4.170   3.106 -0.6672 -1.8434  0.6870
  1524G12c C00O28196  -0.848   4.254   3.219 -1.6922 -0.7684 -0.7589
  1524G12c C01D28197  -0.981   4.294   3.276 -1.0332 -0.5436  0.0591
  1524G12c H00S28198  -1.069   4.243   3.240 -3.4711 -0.3927  5.2946
  1524G12c C01E28199  -0.983   4.346   3.414  1.7512 -0.8699  0.3797
  1524G12c O00828200  -1.098   4.339   3.481 -0.6259  1.7414  0.3066
  1524G12c C01V28201  -1.188   4.440   3.419 -1.0912 -0.8187 -1.3115
  1524G12c C01Z28202  -1.145   4.584   3.369 -1.1890  1.9478 -0.0749
  1524G12c H00R28203  -1.095   4.601   3.274  0.2950  2.7699  0.8310
  1524G12c H00Q28204  -1.248   4.614   3.350 -2.1706 -2.3053 -1.9235
  1524G12c O00928205  -1.083   4.669   3.460 -1.0555  0.3700 -1.3614
  1524G12c H00P28206  -1.146   4.730   3.496 -1.9129 -0.7044 -1.0510
  1524G12c C01W28207  -1.311   4.393   3.441  0.5819 -1.1674 -0.0184
  1524G12c H00O28208  -1.331   4.293   3.478  4.6381 -2.5355 -1.2627
  1524G12c C01X28209  -1.437   4.457   3.427 -0.2878 -2.3335 -1.8082
  1524G12c H00N28210  -1.428   4.522   3.340  0.8165 -0.5383 -0.4036
  1524G12c H00M28211  -1.537   4.428   3.393 -0.5647  1.3146 -4.3509
  1524G12c C01Y28212  -1.474   4.526   3.569 -0.4173  0.9725 -0.0565
  1524G12c C02D28213  -1.499   4.653   3.581 -0.6972 -0.6663  0.4195
  1524G12c H01928214  -1.452   4.698   3.495 -4.5987 -0.8315 -1.8970
  1524G12c C02C28215  -1.588   4.695   3.684 -0.5135  0.8062  0.3917
  1524G12c H01A28216  -1.632   4.794   3.692  0.9325  1.3702  1.7385
  1524G12c C02B28217  -1.626   4.601   3.784  0.8521 -1.4086  0.3364
  1524G12c O00E28218  -1.697   4.613   3.887  0.8941 -1.4159 -0.4924
  1524G12c H01B28219  -1.688   4.546   3.952 -0.4293 -3.8736 -2.7449
  1524G12c C02F28220  -1.585   4.456   3.784 -0.8025 -0.6825  0.4099
  1524G12c O00F28221  -1.645   4.391   3.890  0.0551  0.9070 -0.5581
  1524G12c C02G28222  -1.582   4.309   3.981 -1.2163  0.0846  0.5779
  1524G12c H01728223  -1.617   4.236   4.054 -1.0831  0.4118  0.9693
  1524G12c H01628224  -1.549   4.386   4.050 -4.6057 -1.1117  3.7173
  1524G12c H01528225  -1.505   4.261   3.920 -1.1500 -2.6136  2.6840
  1524G12c C02E28226  -1.503   4.430   3.669 -0.4100  1.4684 -2.4458
  1524G12c H01828227  -1.472   4.327   3.664 -6.0228 -0.8150  3.1577
  1524G12c C01F28228  -0.866   4.397   3.480 -1.8433  0.6169  0.6369
  1524G12c C01G28229  -0.858   4.421   3.625 -1.6197 -0.1545  0.5264
  1524G12c H00L28230  -0.953   4.433   3.677 -2.3690  5.0506 -1.7626
  1524G12c C01H28231  -0.733   4.420   3.693  1.6628  0.5964  0.0733
  1524G12c H00B28232  -0.701   4.364   3.780 -5.6543 -4.9146 -0.3619
  1524G12c C01I28233  -0.625   4.451   3.598  0.5920  0.3826  0.0381
  1524G12c C01U28234  -0.764   4.415   3.394  0.7158 -0.6975 -0.2768
  1524G12c C00S28235  -0.442   4.090   3.053  1.4140 -0.9397  1.2144
  1524G12c C00K28236  -0.379   4.225   3.229 -0.1570  0.6748  0.8293
  1524G12c C00N28237  -0.739   4.327   3.286  1.1705  0.2501 -0.4989
  1524G12c C00028238  -0.650   4.456   3.457  2.5838 -0.5425  0.8376
  1524G12c C01J28239  -0.490   4.399   3.596  0.6018 -0.4425  0.7387
  1524G12c C01K28240  -0.418   4.382   3.716  0.2896 -0.6475  1.1506
  1524G12c C01P28241  -0.427   4.451   3.840  0.7298 -1.6698 -3.6860
  1524G12c C01Q28242  -0.503   4.567   3.857 -1.2265 -0.4358 -0.0991
  1524G12c H00G28243  -0.458   4.643   3.794  4.1940 -3.6457 -0.3892
  1524G12c C01R28244  -0.624   4.580   3.940 -0.8891  0.6069  0.6753
  1524G12c H00F28245  -0.655   4.502   4.008  5.9151  0.4357  4.0572
  1524G12c C01S28246  -0.704   4.717   3.956  2.3725  0.7864  1.3113
  1524G12c H00E28247  -0.620   4.786   3.951  1.3829  1.8023 -4.6554
  1524G12c H00D28248  -0.756   4.743   3.864 -2.5783 -4.8810  2.1901
  1524G12c O00528249  -0.799   4.752   4.058 -1.1520 -1.0423  0.1031
  1524G12c H00C28250  -0.758   4.818   4.112  8.3547 -1.3471 -5.6347
  1524G12c C01O28251  -0.346   4.417   3.956  0.0605  2.4417 -0.8980
  1524G12c H00H28252  -0.329   4.492   4.032 -5.3689  3.3466 -0.4065
  1524G12c C01N28253  -0.258   4.315   3.944 -0.7868  1.6074 -2.0277
  1524G12c O00628254  -0.144   4.279   4.029 -1.2979  0.8394  0.4183
  1524G12c C01T28255  -0.122   4.280   4.163  0.5695 -0.4351  2.3618
  1524G12c H00K28256  -0.204   4.255   4.229 -0.9883  1.2204  1.0850
  1524G12c H00J28257  -0.050   4.201   4.187  5.2759  2.4449 -1.3061
  1524G12c H00I28258  -0.076   4.372   4.197 -3.9222  2.0875  1.9056
  1524G12c C01M28259  -0.243   4.256   3.822  0.8829  1.2645  2.3679
  1524G12c C02028260  -0.281   4.241   3.331  0.3541  1.3052  0.9030
  1524G12c C02128261  -0.154   4.169   3.324  0.1124 -0.5512 -0.6687
  1524G12c C01L28262  -0.304   4.301   3.698  0.7998  0.4645  0.8833
  1524G12c O00728263  -0.135   4.157   3.805 -0.1093 -0.3827  0.7982
  1524G12c C02228264  -0.085   4.138   3.439 -1.4101 -0.4404  1.1076
  1524G12c C02328265  -0.127   4.064   3.245  0.0066 -1.2003 -0.5158
  1524G12c C00G28266  -0.124   3.845   3.106  1.6634  0.0318  1.2970
  1524G12c C00E28267  -0.008   3.645   3.033  0.7828 -0.8524  1.2372
  1524G12c O00A28268   0.024   3.549   2.941  0.3110  0.3455  0.2397
  1524G12c C02428269  -0.002   3.411   2.982  0.4295 -1.1916  1.1956
  1524G12c H00V28270  -0.110   3.405   2.987  0.4562 -2.5082  0.4479
  1524G12c H00U28271   0.043   3.340   3.052  2.3234  2.1916  3.5884
  1524G12c H00T28272  -0.008   3.378   2.878 -3.5113 -5.0420  2.5096
  1534G12c C00D28273   6.727   9.079  10.984 -1.1410 -0.3463  2.1079
  1534G12c O00B28274   6.803   9.178  10.946  1.1025 -0.9244 -0.8222
  1534G12c C02528275   6.766   9.226  10.828 -0.7819  0.4841  0.3508
  1534G12c C02628276   6.703   9.373  10.855 -2.4543  1.3695 -0.1182
  1534G12c H00Y28277   6.633   9.405  10.778 -1.9396 -1.3590 -1.8026
  1534G12c H00X28278   6.784   9.441  10.829 -1.5962  0.4823  0.1965
  1534G12c O00C28279   6.633   9.368  10.979  0.2290  0.0391 -0.4032
  1534G12c H00W28280   6.594   9.453  10.996  3.6387  1.0660  3.0321
  1534G12c C02728281   6.815   9.179  10.712  1.0533 -0.3594  0.8682
  1534G12c O00D28282   6.899   9.082  10.721 -0.0901  2.2580 -1.1932
  1534G12c H00Z28283   6.929   9.094  10.810  3.3703 -2.7086 -1.4232
  1534G12c C02828284   6.793   9.236  10.571  0.5980  2.8267  0.8404
  1534G12c C02928285   6.719   9.169  10.471 -0.1847 -0.0629  0.9069
  1534G12c H01028286   6.676   9.075  10.502  0.8709 -1.8774 -2.9312
  1534G12c C02T28287   6.672   9.241  10.357 -2.2057  2.8546  0.2402
  1534G12c H01O28288   6.592   9.203  10.296 -2.4836  2.7734  0.6525
  1534G12c C02S28289   6.744   9.354  10.322  0.3065  0.8074 -0.6046
  1534G12c O00J28290   6.720   9.391  10.198 -0.3594  0.2377  0.5622
  1534G12c H01P28291   6.785   9.454  10.169  1.2338 -2.4287 -1.9160
  1534G12c C02R28292   6.821   9.425  10.425 -0.2887  0.2329 -0.3139
  1534G12c O00I28293   6.831   9.559  10.413  2.1709  1.8168 -1.6781
  1534G12c C02Q28294   6.701   9.613  10.486 -0.1990  1.3394  1.3749
  1534G12c H01N28295   6.666   9.529  10.545  0.4338  0.7670  0.9354
  1534G12c H01R28296   6.618   9.644  10.422 -1.5430  0.4908  2.6831
  1534G12c H01Q28297   6.737   9.654  10.581 -6.3048  4.0178  2.7881
  1534G12c C02A28298   6.847   9.360  10.549  1.1729  0.7965  0.6590
  1534G12c H01128299   6.900   9.412  10.628 -0.9022  0.7557  2.1165
  1534G12c C00C28300   6.589   9.050  10.944 -0.1994 -0.0111 -0.3134
  1534G12c H01228301   6.558   9.103  10.854 -1.0189 -0.7174 -0.4478
  1534G12c C00B28302   6.512   8.941  10.992 -0.7702 -1.1240 -2.2186
  1534G12c C00A28303   6.379   8.884  10.943 -0.8515 -1.8290 -0.2555
  1534G12c C00928304   6.277   8.955  10.874  1.1158 -1.4573 -0.1454
  1534G12c C00828305   6.261   9.093  10.848  2.1464 -0.2331 -0.6422
  1534G12c H01328306   6.342   9.161  10.869  2.1287 -0.8647  1.5564
  1534G12c C00728307   6.143   9.158  10.876 -0.9386 -0.6069 -0.6413
  1534G12c H01428308   6.137   9.266  10.865  5.1912 -0.2178 -1.9758
  1534G12c C00628309   6.027   9.084  10.915  0.3043  0.3837  0.6536
  1534G12c C00528310   6.038   8.950  10.935 -0.1671 -1.1293  1.0608
  1534G12c C00428311   5.953   8.881  11.013 -0.2575  0.5254  0.1768
  1534G12c C00328312   5.976   8.744  11.061 -0.1167  0.1839  1.9223
  1534G12c C00228313   5.863   8.678  11.135  0.9704 -1.9340  2.3980
  1534G12c C00128314   5.861   8.550  11.187 -1.0461  1.2326 -1.8925
  1534G12c C00M28315   5.988   8.505  11.259 -1.1213 -1.5284 -0.5423
  1534G12c C00L28316   6.128   8.496  11.216 -1.0460  0.8112  0.0107
  1534G12c C00R28317   6.249   8.469  11.297  1.7571  0.8173 -1.1366
  1534G12c C00Q28318   6.253   8.436  11.437 -0.2028  1.7748  0.7772
  1534G12c C00V28319   6.386   8.443  11.489  0.6111  0.4355 -0.3536
  1534G12c C00U28320   6.493   8.504  11.425  1.0054 -0.9957 -1.0699
  1534G12c C00T28321   6.467   8.574  11.302  0.5708  0.4305 -0.9568
  1534G12c C01628322   6.541   8.668  11.244  0.3449  0.3519  1.3281
  1534G12c C01528323   6.672   8.681  11.285  1.6622  0.6207 -1.7961
  1534G12c C01028324   6.717   8.607  11.389 -0.3317  2.4168  0.8645
  1534G12c C01128325   6.866   8.584  11.410 -0.4694 -1.9535 -0.3410
  1534G12c H00528326   6.911   8.498  11.458  0.8846  0.6121  3.2328
  1534G12c C01228327   6.958   8.661  11.330  1.0034 -0.7516  0.8817
  1534G12c C01728328   7.112   8.646  11.360  0.4359 -0.0578  1.1027
  1534G12c O00228329   7.213   8.671  11.264  1.5205  1.0614  0.9474
  1534G12c H00428330   7.286   8.622  11.298  0.0263 -2.1231 -0.2657
  1534G12c C01828331   7.141   8.629  11.492  0.3578  1.1511  0.0492
  1534G12c O00128332   7.055   8.647  11.600 -0.8468  1.5005 -1.1589
  1534G12c H00328333   7.093   8.718  11.650 -3.3192  0.8730  1.7261
  1534G12c C01928334   7.279   8.666  11.549 -2.0654  1.6267  0.4017
  1534G12c H00228335   7.340   8.587  11.506  0.0341  0.9738  4.3328
  1534G12c H00128336   7.302   8.762  11.501  2.3844 -1.9573 -5.2958
  1534G12c O00028337   7.298   8.660  11.684  0.7349 -0.1991 -0.2584
  1534G12c C01A28338   7.416   8.611  11.726 -1.2168  0.4367 -1.8688
  1534G12c C02K28339   7.454   8.468  11.729 -0.5233  0.5862 -0.2666
  1534G12c O00G28340   7.367   8.372  11.688 -0.2475 -1.4061 -0.6304
  1534G12c C02M28341   7.264   8.350  11.785 -2.9588  0.8813  1.2052
  1534G12c H01G28342   7.267   8.364  11.893 -2.6311  1.2230  1.1559
  1534G12c H01F28343   7.212   8.255  11.773  3.2280 -2.7043  0.6167
  1534G12c H01E28344   7.185   8.411  11.740 -3.5511 -3.8772 -4.8996
  1534G12c C02J28345   7.577   8.440  11.776 -2.3000 -0.8704 -0.5170
  1534G12c H01H28346   7.619   8.341  11.769 -2.3026 -0.9474  0.4445
  1534G12c C02I28347   7.642   8.538  11.854 -1.5403  0.9417  0.6143
  1534G12c C02N28348   7.762   8.500  11.903 -1.3157 -1.4969 -0.7045
  1534G12c H01M28349   7.858   8.511  11.854  0.3746 -3.2310  2.0543
  1534G12c C02O28350   7.770   8.451  12.021  2.2662  1.0512  1.4384
  1534G12c H01L28351   7.666   8.433  12.043  3.2682 -6.5320  1.1401
  1534G12c C02P28352   7.894   8.407  12.091 -1.4178 -2.0074 -1.0415
  1534G12c H01K28353   7.886   8.306  12.133  4.0302 -1.7440  1.1113
  1534G12c H01J28354   7.974   8.406  12.018  4.2305  1.8781  4.5054
  1534G12c O00H28355   7.945   8.511  12.164 -0.4341  0.1102 -0.8020
  1534G12c H01I28356   7.879   8.579  12.161 -3.4316 -2.2486  4.4191
  1534G12c C02H28357   7.615   8.666  11.861 -0.3424 -1.2376 -0.1608
  1534G12c H01C28358   7.669   8.745  11.911 -3.7125 -1.5463  4.3257
  1534G12c C02L28359   7.495   8.699  11.796  0.2640 -1.6279  0.2361
  1534G12c H01D28360   7.445   8.794  11.783 -4.2250 -4.0278 -1.4632
  1534G12c C01328361   6.895   8.749  11.236 -0.4591  1.2413  0.6352
  1534G12c H00028362   6.963   8.801  11.170  0.5393 -0.7500  0.0750
  1534G12c C01428363   6.752   8.777  11.228 -2.2245 -0.3492 -0.6504
  1534G12c C00F28364   6.711   8.866  11.127  0.5118  0.0119 -1.4318
  1534G12c C00H28365   6.502   8.737  11.127  0.5035 -0.5952  0.8534
  1534G12c C00I28366   6.385   8.684  11.057 -1.7517 -0.9802  0.6281
  1534G12c C00J28367   6.313   8.566  11.111  0.9426  0.9298  0.2014
  1534G12c C00Z28368   6.634   8.519  11.470  0.2355  1.1438 -0.2206
  1534G12c C00Y28369   6.675   8.446  11.587  0.8291  0.4370 -0.1013
  1534G12c H00628370   6.777   8.454  11.620  0.5042  1.1188  0.7356
  1534G12c C00X28371   6.562   8.374  11.650  1.4398  0.4262 -1.3665
  1534G12c O00328372   6.591   8.277  11.734  1.2027 -0.6152 -0.9252
  1534G12c C01B28373   6.519   8.218  11.843 -0.0669 -0.7113  0.3790
  1534G12c H00928374   6.566   8.228  11.940 -2.4407  2.1773  1.3245
  1534G12c H00828375   6.442   8.291  11.868  1.3418  1.2537 -0.8533
  1534G12c H00728376   6.470   8.134  11.795  3.2062  0.8520 -6.4794
  1534G12c C00W28377   6.418   8.385  11.610 -0.9849  1.4457  0.6785
  1534G12c O00428378   6.313   8.348  11.689  0.8434 -0.2835 -1.1884
  1534G12c C01C28379   6.181   8.375  11.656 -1.2422  0.2520  0.0208
  1534G12c H00A28380   6.139   8.427  11.741 -0.4310  0.8323  0.0790
  1534G12c C00P28381   6.143   8.383  11.523  0.9268 -0.1527 -1.4443
  1534G12c C00O28382   6.007   8.415  11.500 -1.0554 -0.4103  0.6272
  1534G12c C01D28383   5.919   8.396  11.609 -0.7285 -1.0714  1.4413
  1534G12c H00S28384   5.946   8.344  11.700 -0.7687  0.8412  2.5505
  1534G12c C01E28385   5.786   8.444  11.623  1.1595 -0.4048  0.9407
  1534G12c O00828386   5.698   8.421  11.734  1.6516  1.4312  1.0297
  1534G12c C01V28387   5.752   8.407  11.851  0.4182  0.6581 -0.5064
  1534G12c C01Z28388   5.715   8.289  11.944  0.5699  0.4834  0.1945
  1534G12c H00R28389   5.750   8.281  12.048  4.5792  1.6082 -0.9552
  1534G12c H00Q28390   5.607   8.280  11.934  0.7170 -0.7809 -0.2828
  1534G12c O00928391   5.786   8.196  11.885 -0.2961  1.6238  0.7666
  1534G12c H00P28392   5.741   8.176  11.804  0.9360  1.6704  0.0480
  1534G12c C01W28393   5.847   8.484  11.906  1.1092  0.9073 -0.5986
  1534G12c H00O28394   5.878   8.578  11.861  8.6958  0.4489  2.8847
  1534G12c C01X28395   5.893   8.504  12.051 -0.3705 -0.7814  0.6204
  1534G12c H00N28396   5.860   8.600  12.089 -1.7536 -3.6287  7.2013
  1534G12c H00M28397   5.834   8.461  12.131 -6.8879  0.3480 -3.1999
  1534G12c C01Y28398   6.048   8.464  12.041 -1.0789  0.9185 -0.8042
  1534G12c C02D28399   6.140   8.544  12.106  0.1629  1.1171 -1.0286
  1534G12c H01928400   6.105   8.640  12.142 -1.9457  0.2999 -0.8379
  1534G12c C02C28401   6.270   8.489  12.151  0.6779 -2.1392  0.7786
  1534G12c H01A28402   6.342   8.537  12.215  0.2981  1.4104 -1.3297
  1534G12c C02B28403   6.279   8.344  12.164  0.9179 -0.4140 -0.1529
  1534G12c O00E28404   6.400   8.286  12.201  1.2755  0.5552  0.4321
  1534G12c H01B28405   6.435   8.304  12.115  1.8448 -1.9418  0.1133
  1534G12c C02F28406   6.169   8.261  12.110 -0.9515  1.3158 -1.3800
  1534G12c O00F28407   6.177   8.114  12.105  0.9674 -0.2158  0.6828
  1534G12c C02G28408   6.080   8.049  12.195 -1.5921 -1.0260 -0.3198
  1534G12c H01728409   6.107   7.944  12.187 -2.0204 -1.1927  0.3682
  1534G12c H01628410   5.991   8.057  12.132 -1.5730 -2.4627 -0.5457
  1534G12c H01528411   6.075   8.094  12.294  0.0698 -1.6629  0.0582
  1534G12c C02E28412   6.061   8.324  12.054 -0.8564 -1.1146  0.4140
  1534G12c H01828413   5.972   8.263  12.039 -1.0759 -2.5359  6.2595
  1534G12c C01F28414   5.734   8.515  11.514  0.0782  0.5652  0.7751
  1534G12c C01G28415   5.641   8.617  11.522  0.5327 -1.9735  0.3150
  1534G12c H00L28416   5.587   8.640  11.613  0.3550  0.3610 -0.3718
  1534G12c C01H28417   5.625   8.698  11.401 -0.9769  0.9917  0.0227
  1534G12c H00B28418   5.561   8.781  11.426  0.9870  3.0525 -1.6131
  1534G12c C01I28419   5.693   8.664  11.276  0.0167 -1.5731  1.1099
  1534G12c C01U28420   5.802   8.497  11.391 -0.2834 -0.0875 -0.2919
  1534G12c C00S28421   6.356   8.512  11.229  0.8112 -1.7330  1.2121
  1534G12c C00K28422   6.164   8.565  11.112 -1.8141 -1.0449  0.5428
  1534G12c C00N28423   5.939   8.467  11.390 -0.7002 -0.0743  0.8268
  1534G12c C00028424   5.749   8.537  11.266  0.8148  1.1802 -0.3743
  1534G12c C01J28425   5.741   8.742  11.157  0.7521  0.2529  0.3285
  1534G12c C01K28426   5.719   8.882  11.103  0.4350  0.1309 -0.5244
  1534G12c C01P28427   5.596   8.959  11.116 -0.9456 -0.0461 -0.0480
  1534G12c C01Q28428   5.478   8.905  11.183 -1.9008 -0.9228  0.0030
  1534G12c H00G28429   5.430   8.948  11.270 -8.5851 -4.4855 -1.6051
  1534G12c C01R28430   5.417   8.793  11.127 -0.1620 -0.1250 -0.6174
  1534G12c H00F28431   5.344   8.759  11.199  3.7260 -5.6540  0.9946
  1534G12c C01S28432   5.441   8.707  11.000  2.7324 -0.6537  0.0596
  1534G12c H00E28433   5.468   8.603  11.016 -7.3191 -3.5110  1.4720
  1534G12c H00D28434   5.339   8.728  10.970  0.2382 -5.6151  4.2650
  1534G12c O00528435   5.517   8.767  10.901 -1.2103 -0.9663  1.0796
  1534G12c H00C28436   5.584   8.793  10.962 -1.4084 -3.7908  2.5957
  1534G12c C01O28437   5.585   9.091  11.081 -0.1401  0.2039 -0.0390
  1534G12c H00H28438   5.491   9.144  11.089 -0.2186  0.1944 -0.8349
  1534G12c C01N28439   5.680   9.149  10.993  0.2227  0.1862 -0.3681
  1534G12c O00628440   5.683   9.284  10.970 -0.8149 -0.1146 -0.0153
  1534G12c C01T28441   5.745   9.349  10.863 -0.6802 -0.1065  1.6035
  1534G12c H00K28442   5.782   9.286  10.781  5.7872  5.1413  0.0191
  1534G12c H00J28443   5.848   9.369  10.894 -0.8482  6.6231 -1.2601
  1534G12c H00I28444   5.685   9.437  10.841 -2.8395 -1.0008  3.7376
  1534G12c C01M28445   5.805   9.075  10.988  2.5010  0.0467  0.1319
  1534G12c C02028446   6.111   8.695  11.054  0.9291  2.1167  0.3484
  1534G12c C02128447   6.192   8.761  10.962  0.0667  0.1222  0.2345
  1534G12c C01L28448   5.834   8.953  11.048  0.1721  0.4324 -0.9032
  1534G12c O00728449   5.899   9.134  10.907 -0.2677 -0.9021 -2.4361
  1534G12c C02228450   6.159   8.884  10.900  1.9208  2.2727 -0.5052
  1534G12c C02328451   6.322   8.773  10.988 -0.8536  1.1903  0.1417
  1534G12c C00G28452   6.565   8.860  11.094 -1.7153 -1.2143 -1.0859
  1534G12c C00E28453   6.794   8.977  11.077 -0.0748 -0.2501 -1.3364
  1534G12c O00A28454   6.928   9.006  11.124 -0.9071 -0.5358  0.7544
  1534G12c C02428455   6.926   9.111  11.217  1.4643  0.4226 -0.6916
  1534G12c H00V28456   6.902   9.194  11.151 -0.6927  0.1975 -0.2320
  1534G12c H00U28457   7.014   9.133  11.279  0.2346  4.6993 -0.2712
  1534G12c H00T28458   6.842   9.096  11.285  2.0358 -3.4857 -0.7599
  1544G12c C00D28459   5.062   0.475   5.668 -0.0645 -0.9897 -0.0339
  1544G12c O00B28460   4.964   0.580   5.677  0.9594 -0.9405 -1.0373
  1544G12c C02528461   4.843   0.560   5.615 -0.2480 -0.6939 -2.0548
  1544G12c C02628462   4.826   0.669   5.498  0.2883  0.7945 -0.4334
  1544G12c H00Y28463   4.724   0.674   5.459  1.9423  0.0506 -5.1433
  1544G12c H00X28464   4.904   0.653   5.424  1.1742 -0.0004  0.6643
  1544G12c O00C28465   4.871   0.789   5.560 -1.4809  0.1799  0.8108
  1544G12c H00W28466   4.963   0.775   5.576 -1.2911  3.1637  2.6772
  1544G12c C02728467   4.732   0.472   5.658 -0.1319  0.0859 -0.1003
  1544G12c O00D28468   4.751   0.395   5.760  0.0466 -1.6404  0.9969
  1544G12c H00Z28469   4.844   0.394   5.745 -0.1963 -0.0739 -0.8835
  1544G12c C02828470   4.605   0.456   5.588 -0.3741 -0.6959  1.9206
  1544G12c C02928471   4.528   0.577   5.576  1.7952 -0.7616 -2.1758
  1544G12c H01028472   4.534   0.684   5.589  3.0510 -0.5297 -4.3913
  1544G12c C02T28473   4.414   0.552   5.496  1.8598  1.0306  1.2559
  1544G12c H01O28474   4.350   0.637   5.481  1.0786  0.5398  1.7325
  1544G12c C02S28475   4.365   0.428   5.453 -1.3060 -0.7389  0.6902
  1544G12c O00J28476   4.236   0.409   5.407 -2.6963 -1.2654 -0.1366
  1544G12c H01P28477   4.226   0.477   5.341  2.3228 -6.5026 -7.0266
  1544G12c C02R28478   4.446   0.325   5.455  0.8545 -0.0950  1.9090
  1544G12c O00I28479   4.410   0.213   5.380 -0.4124 -0.0338  0.5035
  1544G12c C02Q28480   4.334   0.100   5.415 -0.5715 -0.5047  0.3275
  1544G12c H01N28481   4.288   0.037   5.339 -5.2727  2.5204  0.4680
  1544G12c H01R28482   4.254   0.143   5.476 -0.9979  0.4170 -0.8648
  1544G12c H01Q28483   4.399   0.023   5.457 -0.3813 -1.6823 -2.0374
  1544G12c C02A28484   4.547   0.329   5.560 -0.0057  0.5642 -0.2112
  1544G12c H01128485   4.590   0.248   5.617 -3.6637  0.6926  2.9872
  1544G12c C00C28486   5.111   0.436   5.550 -0.3564  0.5341 -0.5253
  1544G12c H01228487   5.087   0.501   5.466 -3.6028 -1.9931 -1.6621
  1544G12c C00B28488   5.209   0.329   5.547 -0.7910 -2.3772 -0.5001
  1544G12c C00A28489   5.286   0.292   5.427  1.0072 -0.8311  1.0784
  1544G12c C00928490   5.303   0.316   5.293  0.2965 -0.2536 -1.4989
  1544G12c C00828491   5.238   0.411   5.212  0.8045  1.2555  0.4296
  1544G12c H01328492   5.156   0.465   5.257 -0.1748 -2.9609  4.0505
  1544G12c C00728493   5.245   0.399   5.077 -0.0461 -0.9557 -0.4143
  1544G12c H01428494   5.208   0.470   5.004  5.3760  0.4104 -2.0523
  1544G12c C00628495   5.312   0.282   5.027  1.5771 -0.4442 -0.5895
  1544G12c C00528496   5.363   0.183   5.111  0.9480 -0.8708  1.5076
  1544G12c C00428497   5.379   0.046   5.073 -0.0986  1.0573  0.0609
  1544G12c C00328498   5.437  -0.036   5.172  1.0869 -0.1315 -1.8111
  1544G12c C00228499   5.442  -0.181   5.134 -0.6737  1.3484 -0.8370
  1544G12c C00128500   5.464  -0.307   5.207 -1.3454  0.8367 -1.2858
  1544G12c C00M28501   5.409  -0.329   5.322 -0.4877 -1.7596  0.2394
  1544G12c C00L28502   5.444  -0.250   5.424 -0.4337 -0.7040 -0.3439
  1544G12c C00R28503   5.392  -0.266   5.562  1.3087  1.2334 -1.3266
  1544G12c C00Q28504   5.328  -0.376   5.616 -0.3105  0.5580 -1.4890
  1544G12c C00V28505   5.282  -0.347   5.744  1.1518  1.2538  1.2594
  1544G12c C00U28506   5.249  -0.225   5.795  0.2123 -0.3043  0.7557
  1544G12c C00T28507   5.277  -0.123   5.714 -0.9618 -0.4263  0.2638
  1544G12c C01628508   5.258   0.012   5.738 -1.2134  0.2730  0.1882
  1544G12c C01528509   5.190   0.042   5.866 -0.3024 -1.1365 -0.6548
  1544G12c C01028510   5.151  -0.066   5.952 -0.8265  1.9191 -0.8084
  1544G12c C01128511   5.070  -0.031   6.062  0.7794  1.2137 -1.3592
  1544G12c H00528512   5.007  -0.100   6.117 -1.9965  3.6094 -1.4662
  1544G12c C01228513   5.067   0.106   6.109  1.3074  1.4251 -0.4880
  1544G12c C01728514   5.008   0.113   6.246  0.6213 -1.7435  0.0034
  1544G12c O00228515   5.069   0.074   6.371 -0.3024 -0.1501 -0.4354
  1544G12c H00428516   5.022   0.117   6.441 -3.3357 -1.7602 -1.3658
  1544G12c C01828517   4.923   0.210   6.264  0.1398  0.3747 -1.0510
  1544G12c O00128518   4.881   0.278   6.158  0.5008  0.1867  0.5756
  1544G12c H00328519   4.920   0.215   6.100  1.8948 -0.8438  2.5766
  1544G12c C01928520   4.861   0.272   6.392 -1.2040 -0.0459 -1.3583
  1544G12c H00228521   4.848   0.374   6.355  1.3037  1.0064  0.5407
  1544G12c H00128522   4.761   0.235   6.412  0.1174 -3.9070 -1.5555
  1544G12c O00028523   4.942   0.295   6.500 -0.7857  1.4418  0.1944
  1544G12c C01A28524   5.063   0.376   6.461 -1.6188 -1.0182 -0.1811
  1544G12c C02K28525   5.184   0.327   6.512  0.5430 -0.8301 -1.3738
  1544G12c O00G28526   5.181   0.222   6.593  0.0770  0.7049  0.7590
  1544G12c C02M28527   5.115   0.246   6.703  0.2475 -0.3084 -0.0293
  1544G12c H01G28528   5.102   0.177   6.787  0.0370  1.6130  1.5516
  1544G12c H01F28529   5.013   0.285   6.702  0.8814  1.4866  1.5314
  1544G12c H01E28530   5.189   0.321   6.730  6.9506 -5.0984 -3.4563
  1544G12c C02J28531   5.302   0.399   6.492 -1.1155 -0.0129  0.8938
  1544G12c H01H28532   5.375   0.335   6.539  2.0724 -3.5796 -7.7397
  1544G12c C02I28533   5.299   0.550   6.480 -0.6758  1.8258  0.5808
  1544G12c C02N28534   5.426   0.620   6.514  0.7116  0.3794  1.0237
  1544G12c H01M28535   5.458   0.716   6.476  7.1346 -1.3481  1.4075
  1544G12c C02O28536   5.515   0.555   6.599 -2.8929 -0.6360  0.1813
  1544G12c H01L28537   5.502   0.451   6.626  1.0325 -2.7384 -5.1637
  1544G12c C02P28538   5.673   0.604   6.614  0.9360 -0.5007  1.0358
  1544G12c H01K28539   5.692   0.574   6.717  3.1536 -0.3029  0.7059
  1544G12c H01J28540   5.733   0.572   6.530 -0.2851  1.0766 -0.4884
  1544G12c O00H28541   5.666   0.729   6.604  0.0453 -1.1599  0.6939
  1544G12c H01I28542   5.571   0.736   6.598 -0.1130 -3.0998  0.7544
  1544G12c C02H28543   5.169   0.594   6.472 -1.3874  0.1098 -0.2386
  1544G12c H01C28544   5.139   0.696   6.496 -0.8085 -0.4571  3.1364
  1544G12c C02L28545   5.057   0.515   6.444 -0.8794 -0.8156 -0.0610
  1544G12c H01D28546   4.967   0.564   6.408  0.4452  1.8823  0.1268
  1544G12c C01328547   5.117   0.209   6.026 -0.4425 -0.1376  1.4776
  1544G12c H00028548   5.130   0.311   6.058  3.2603  1.1017 -3.3122
  1544G12c C01428549   5.166   0.182   5.889 -0.9475 -0.0939 -0.1354
  1544G12c C00F28550   5.159   0.275   5.779  0.9574 -0.0019  0.3142
  1544G12c C00H28551   5.293   0.118   5.643 -0.5955  2.0769  2.2869
  1544G12c C00I28552   5.374   0.086   5.540 -0.4626 -0.7607  0.3841
  1544G12c C00J28553   5.426  -0.040   5.549 -0.2298  0.3940  0.0336
  1544G12c C00Z28554   5.185  -0.198   5.916  2.4745  0.0277 -1.2921
  1544G12c C00Y28555   5.178  -0.301   6.004  1.8993  0.5303  0.9680
  1544G12c H00628556   5.135  -0.292   6.103  0.2764  5.0363 -0.0377
  1544G12c C00X28557   5.191  -0.435   5.968 -0.5578 -0.3067  0.9267
  1544G12c O00328558   5.170  -0.542   6.044 -0.1372 -1.0909 -1.0988
  1544G12c C01B28559   5.035  -0.590   6.066 -0.0292 -0.8198  0.8745
  1544G12c H00928560   5.005  -0.667   5.995 -0.9594  2.1323 -2.0662
  1544G12c H00828561   4.959  -0.518   6.094  4.9494  4.8204  1.0078
  1544G12c H00728562   5.054  -0.649   6.156  4.2743  0.5231  0.9866
  1544G12c C00W28563   5.240  -0.454   5.832 -0.5928 -0.0146 -0.3076
  1544G12c O00428564   5.223  -0.584   5.787  2.0570 -1.9911 -2.2053
  1544G12c C01C28565   5.266  -0.612   5.670  0.4856 -0.7273  1.7414
  1544G12c H00A28566   5.289  -0.714   5.643  0.8256 -0.5228  1.2435
  1544G12c C00P28567   5.309  -0.513   5.574 -0.3084  0.3517  1.8726
  1544G12c C00O28568   5.320  -0.553   5.435 -0.3218 -2.5922  0.8339
  1544G12c C01D28569   5.228  -0.663   5.381  0.4079 -0.6002  1.2987
  1544G12c H00S28570   5.184  -0.716   5.464  2.2264 -3.0781  0.7542
  1544G12c C01E28571   5.169  -0.671   5.244  0.9783  0.3517  0.8101
  1544G12c O00828572   5.072  -0.751   5.219  0.3610  1.6404  1.4145
  1544G12c C01V28573   5.045  -0.896   5.267 -1.5668 -0.8864 -0.6706
  1544G12c C01Z28574   5.042  -0.927   5.416  2.0232 -0.2142  0.6624
  1544G12c H00R28575   4.982  -0.848   5.462 -0.0618 -4.9573  6.8584
  1544G12c H00Q28576   4.971  -1.010   5.418  0.6187  0.8467 -2.0856
  1544G12c O00928577   5.170  -0.991   5.454  0.1558 -0.4590 -0.5926
  1544G12c H00P28578   5.202  -0.943   5.529 -1.3861  0.2689 -0.3951
  1544G12c C01W28579   5.051  -0.991   5.173 -1.0242 -0.1564  1.1927
  1544G12c H00O28580   5.089  -1.089   5.200 -4.2640 -2.4161 -1.9764
  1544G12c C01X28581   5.081  -0.966   5.029 -0.4556  0.0169  3.1546
  1544G12c H00N28582   5.081  -0.859   5.012 -0.5963 -0.7364 -2.7200
  1544G12c H00M28583   5.181  -1.010   5.025 -1.8881 -3.3823  3.1899
  1544G12c C01Y28584   4.987  -1.009   4.907  0.2054 -0.0287 -0.0088
  1544G12c C02D28585   4.853  -1.031   4.951  1.2379  2.8850  0.7740
  1544G12c H01928586   4.836  -1.005   5.054 -1.5680 -0.5229  1.2648
  1544G12c C02C28587   4.768  -1.123   4.888 -0.8717 -1.3716  0.3397
  1544G12c H01A28588   4.666  -1.156   4.898 -4.3973  7.4380 -1.7845
  1544G12c C02B28589   4.823  -1.163   4.753 -0.1791  0.5281 -0.5398
  1544G12c O00E28590   4.761  -1.285   4.719 -0.1987 -0.8033  0.4570
  1544G12c H01B28591   4.803  -1.369   4.706 -8.7571 -5.0089 -4.3513
  1544G12c C02F28592   4.946  -1.136   4.696  0.9270  0.3480  1.0716
  1544G12c O00F28593   4.983  -1.190   4.569  0.5028 -0.3670 -0.8271
  1544G12c C02G28594   5.111  -1.217   4.524 -0.8980  0.4507  0.2091
  1544G12c H01728595   5.110  -1.258   4.423 -0.1680  4.2644 -1.4241
  1544G12c H01628596   5.146  -1.267   4.615  6.1672 -0.1204 -2.5474
  1544G12c H01528597   5.164  -1.123   4.509  1.3567 -1.6368 -6.2963
  1544G12c C02E28598   5.036  -1.057   4.779  0.4333 -1.4623 -0.0114
  1544G12c H01828599   5.135  -1.024   4.752  0.1204  5.0031  5.5047
  1544G12c C01F28600   5.247  -0.590   5.146 -0.9878  0.1185  0.2871
  1544G12c C01G28601   5.202  -0.559   5.012 -0.2261 -0.2524 -1.3042
  1544G12c H00L28602   5.103  -0.600   5.017 -0.9196  1.5657  6.9766
  1544G12c C01H28603   5.264  -0.438   4.956 -1.0852 -0.2367  0.0076
  1544G12c H00B28604   5.204  -0.368   4.899 -2.4284  2.9416  5.0148
  1544G12c C01I28605   5.373  -0.365   5.013 -1.7560  0.1636 -2.5667
  1544G12c C01U28606   5.360  -0.512   5.190 -0.7057 -1.4644 -0.0737
  1544G12c C00S28607   5.376  -0.147   5.626 -0.2868 -0.1931  0.2098
  1544G12c C00K28608   5.463  -0.103   5.415  0.0444  1.4404 -0.1647
  1544G12c C00N28609   5.358  -0.469   5.328  0.8555  1.0210 -0.3391
  1544G12c C00028610   5.449  -0.417   5.123  0.7853 -1.0390  2.5675
  1544G12c C01J28611   5.380  -0.223   5.006 -2.4108 -2.8984 -1.1541
  1544G12c C01K28612   5.350  -0.116   4.898  0.4107  1.1607  0.3432
  1544G12c C01P28613   5.338  -0.148   4.755  0.3374  0.6780 -0.5202
  1544G12c C01Q28614   5.361  -0.284   4.696  0.5715  0.5901 -1.4552
  1544G12c H00G28615   5.447  -0.346   4.717 -0.5051 -0.4700 -0.1374
  1544G12c C01R28616   5.290  -0.316   4.591 -0.4428  1.5095  1.1798
  1544G12c H00F28617   5.191  -0.292   4.556 -1.9715 -5.2192  0.2331
  1544G12c C01S28618   5.360  -0.390   4.497 -1.0513 -1.0628 -0.5591
  1544G12c H00E28619   5.352  -0.343   4.399 -1.5128 -0.4222 -0.2180
  1544G12c H00D28620   5.467  -0.399   4.515  0.4816  8.6802 -2.2280
  1544G12c O00528621   5.290  -0.493   4.486  1.2672  1.9527  0.6537
  1544G12c H00C28622   5.340  -0.549   4.543  1.1986  0.9982 -0.2202
  1544G12c C01O28623   5.336  -0.036   4.676 -0.1086  0.1836  0.0869
  1544G12c H00H28624   5.349  -0.057   4.571 -5.6703 -6.3179  0.3713
  1544G12c C01N28625   5.306   0.102   4.713 -0.6936  0.1671 -0.8434
  1544G12c O00628626   5.260   0.180   4.617 -0.3163 -1.2749 -0.8447
  1544G12c C01T28627   5.193   0.123   4.512 -0.8879 -0.1744 -0.6204
  1544G12c H00K28628   5.244   0.116   4.416  0.1144 -4.5626  0.1218
  1544G12c H00J28629   5.112   0.187   4.476  2.0275  1.6082 -4.2851
  1544G12c H00I28630   5.156   0.021   4.526 -1.9694  0.2711 -0.1656
  1544G12c C01M28631   5.326   0.125   4.853  0.0698 -0.8242  1.0412
  1544G12c C02028632   5.457   0.002   5.311  0.3191 -1.2854 -0.3982
  1544G12c C02128633   5.445   0.148   5.342  0.7626  1.9610 -0.3563
  1544G12c C01L28634   5.354   0.019   4.936 -2.4723  2.0507  0.3414
  1544G12c O00728635   5.288   0.257   4.897  0.1628 -1.1548  0.6243
  1544G12c C02228636   5.379   0.224   5.243 -2.7241  0.7598 -1.1727
  1544G12c C02328637   5.375   0.193   5.446 -0.2897  1.1890 -1.1082
  1544G12c C00G28638   5.226   0.245   5.665  0.8263  0.0806  0.7386
  1544G12c C00E28639   5.110   0.411   5.795 -2.0879 -0.7091  0.4589
  1544G12c O00A28640   5.068   0.465   5.921 -0.2378 -0.4223  1.9072
  1544G12c C02428641   5.106   0.596   5.937 -0.5047 -0.5636  1.4239
  1544G12c H00V28642   5.181   0.593   6.017 -1.7232  2.9358  2.7942
  1544G12c H00U28643   5.030   0.625   6.010 -4.1742  0.4957 -2.6111
  1544G12c H00T28644   5.141   0.664   5.859 -2.9731  0.3091  1.0299
  1554G12c C00D28645   4.973   8.745   5.357  1.6495 -1.2023  1.2735
  1554G12c O00B28646   5.009   8.705   5.225 -0.0212  0.1840 -1.4186
  1554G12c C02528647   5.126   8.755   5.198  1.3944 -1.2109 -1.6222
  1554G12c C02628648   5.128   8.899   5.193  1.2302 -0.6985  0.6466
  1554G12c H00Y28649   5.228   8.937   5.170 -1.4179  3.4203 -5.5251
  1554G12c H00X28650   5.091   8.938   5.288 -6.6031 -3.1161 -1.0287
  1554G12c O00C28651   5.041   8.929   5.095  0.4611 -0.2208  0.1181
  1554G12c H00W28652   4.987   8.851   5.095  0.8491 -0.4912 -0.0419
  1554G12c C02728653   5.245   8.686   5.226  0.0376 -0.8468  1.5468
  1554G12c O00D28654   5.222   8.546   5.236 -0.1600  0.5685  0.2608
  1554G12c H00Z28655   5.160   8.532   5.305 -3.9542 -2.5969 -3.5172
  1554G12c C02828656   5.384   8.742   5.229 -0.8938 -1.5193 -0.6859
  1554G12c C02928657   5.472   8.694   5.325 -1.0763  0.8369  0.4351
  1554G12c H01028658   5.468   8.624   5.408  3.5807  0.6990  0.6905
  1554G12c C02T28659   5.595   8.730   5.308 -2.6426  0.1056  0.5716
  1554G12c H01O28660   5.672   8.704   5.379  0.5203 -0.9163 -3.0762
  1554G12c C02S28661   5.653   8.840   5.236  0.5868  0.1303  0.1743
  1554G12c O00J28662   5.782   8.893   5.243 -0.6259 -0.2319  0.5857
  1554G12c H01P28663   5.851   8.907   5.180  0.6261  3.9966  2.6989
  1554G12c C02R28664   5.561   8.879   5.129  0.9762  1.8323 -0.2942
  1554G12c O00I28665   5.601   8.986   5.048  0.9829 -0.3359  0.6721
  1554G12c C02Q28666   5.530   8.988   4.915 -1.1307 -0.6428  2.7814
  1554G12c H01N28667   5.432   9.026   4.888  2.0611  4.6072 -2.8671
  1554G12c H01R28668   5.621   9.032   4.873 -0.4342 -1.4063  3.4673
  1554G12c H01Q28669   5.523   8.885   4.881 -1.7879 -0.3977  2.1606
  1554G12c C02A28670   5.430   8.827   5.127  1.4861  0.4799  0.6797
  1554G12c H01128671   5.374   8.836   5.035 -0.8041 -5.0047  1.3922
  1554G12c C00C28672   4.868   8.834   5.368  0.0895  0.3988 -0.5567
  1554G12c H01228673   4.796   8.815   5.290 -0.7575 -0.4421  0.4131
  1554G12c C00B28674   4.831   8.910   5.476 -1.8839  1.6444  0.3238
  1554G12c C00A28675   4.711   8.989   5.484 -0.0289 -0.1883 -0.9051
  1554G12c C00928676   4.653   9.076   5.384 -0.6110  1.3739  0.6201
  1554G12c C00828677   4.696   9.099   5.252 -0.6410 -1.3480 -0.2075
  1554G12c H01328678   4.768   9.021   5.233  0.5587 -0.6250  1.2613
  1554G12c C00728679   4.654   9.211   5.182 -1.2311 -0.4966 -0.2314
  1554G12c H01428680   4.689   9.233   5.082 -4.1652  2.5691 -0.6783
  1554G12c C00628681   4.561   9.300   5.258 -1.5815  0.3799  0.9728
  1554G12c C00528682   4.546   9.294   5.390 -0.5261 -0.5202  0.3085
  1554G12c C00428683   4.532   9.406   5.468 -0.3787  1.4339  1.1567
  1554G12c C00328684   4.550   9.401   5.610  0.6588  0.0399  0.3090
  1554G12c C00228685   4.545   9.524   5.685 -0.5802  0.1861 -0.2315
  1554G12c C00128686   4.561   9.568   5.828  0.7824  0.7950  2.5254
  1554G12c C00M28687   4.673   9.506   5.893 -0.6497 -1.5118 -1.8613
  1554G12c C00L28688   4.733   9.387   5.847 -0.8417  1.0837  1.4936
  1554G12c C00R28689   4.859   9.333   5.910 -0.8052 -0.3191  1.7045
  1554G12c C00Q28690   4.967   9.393   6.000  0.4893 -0.0076 -0.1267
  1554G12c C00V28691   5.075   9.317   6.015  1.7799  0.7055 -0.1571
  1554G12c C00U28692   5.084   9.189   5.951  0.8147 -1.3694  1.4802
  1554G12c C00T28693   4.987   9.133   5.868  1.1325 -0.8203 -0.3634
  1554G12c C01628694   5.004   9.037   5.776  1.2537  1.3216  0.5676
  1554G12c C01528695   5.114   8.969   5.775  0.8676 -0.3322 -0.8390
  1554G12c C01028696   5.212   9.010   5.858 -0.7364 -2.2825  0.9702
  1554G12c C01128697   5.342   8.985   5.819 -1.1843  0.3458  0.3834
  1554G12c H00528698   5.426   9.047   5.848 -2.5982  0.3375  4.8474
  1554G12c C01228699   5.376   8.918   5.704  0.1682  2.5625 -0.8519
  1554G12c C01728700   5.519   8.897   5.662  0.4981 -0.5124 -1.3250
  1554G12c O00228701   5.565   8.927   5.536 -1.5652  0.2551  1.2074
  1554G12c H00428702   5.591   8.876   5.460  2.3585  5.0076 -0.8700
  1554G12c C01828703   5.613   8.886   5.761 -0.2329  0.0558 -0.9231
  1554G12c O00128704   5.574   8.859   5.898  0.3878  1.6068 -0.4278
  1554G12c H00328705   5.653   8.866   5.950 -1.4117 -0.9197  2.8588
  1554G12c C01928706   5.736   8.836   5.702 -0.1763  2.1065 -0.1330
  1554G12c H00228707   5.749   8.737   5.744  4.3622  1.4922 -2.6200
  1554G12c H00128708   5.725   8.786   5.606 -9.3095  4.7670 -0.8650
  1554G12c O00028709   5.851   8.905   5.721  2.2322 -0.0170  0.8599
  1554G12c C01A28710   5.955   8.896   5.623 -0.3774  1.1979  0.8818
  1554G12c C02K28711   6.030   8.777   5.609 -1.9341  1.6645 -1.1568
  1554G12c O00G28712   6.016   8.673   5.688  0.4487 -1.0376 -0.6119
  1554G12c C02M28713   6.055   8.545   5.630  0.2739  1.1583  0.9570
  1554G12c H01G28714   6.101   8.522   5.534 -0.8790  0.7438  0.4999
  1554G12c H01F28715   5.991   8.457   5.628  1.7557  0.0606  0.8241
  1554G12c H01E28716   6.126   8.486   5.688 -3.8237 -0.6008  4.4375
  1554G12c C02J28717   6.156   8.797   5.534 -1.5139  0.1744 -1.7675
  1554G12c H01H28718   6.230   8.720   5.545 -3.9467 -2.7255 -4.4348
  1554G12c C02I28719   6.185   8.921   5.479 -1.2168 -0.5077  0.2677
  1554G12c C02N28720   6.304   8.916   5.400 -1.4582  1.0870  0.2306
  1554G12c H01M28721   6.396   8.931   5.455 -3.4638 -0.9338  4.3785
  1554G12c C02O28722   6.341   8.857   5.276  1.0002  1.0287 -3.6541
  1554G12c H01L28723   6.250   8.823   5.229 -0.2700 -3.7988  1.6774
  1554G12c C02P28724   6.477   8.836   5.220 -1.2296 -0.6002 -1.3913
  1554G12c H01K28725   6.469   8.859   5.114 -3.5701 -5.9117 -2.5291
  1554G12c H01J28726   6.549   8.898   5.274 -1.8786  1.8365 -3.2462
  1554G12c O00H28727   6.491   8.707   5.263 -0.3020 -0.1729 -0.2867
  1554G12c H01I28728   6.453   8.667   5.187 -1.6382 -5.7357  3.0098
  1554G12c C02H28729   6.104   9.028   5.491  1.3115 -1.2676 -0.7148
  1554G12c H01C28730   6.127   9.118   5.436  0.2801  0.7114  1.9918
  1554G12c C02L28731   5.996   9.023   5.570  0.8503 -1.2343 -1.9302
  1554G12c H01D28732   5.937   9.114   5.569  3.2005  0.3481 -0.4904
  1554G12c C01328733   5.280   8.863   5.634 -0.2906 -0.1711 -0.4614
  1554G12c H00028734   5.302   8.801   5.549  5.5254  1.8102 -0.6253
  1554G12c C01428735   5.142   8.893   5.652  1.0545 -0.4136 -1.4105
  1554G12c C00F28736   5.036   8.844   5.573 -0.3668 -0.7181  0.6887
  1554G12c C00H28737   4.898   9.003   5.691  0.1782 -2.5389  0.7285
  1554G12c C00I28738   4.764   9.064   5.696 -1.1999  2.1148 -0.3998
  1554G12c C00J28739   4.757   9.156   5.800  0.6118 -0.5076 -0.2641
  1554G12c C00Z28740   5.196   9.119   5.951 -0.2314  0.7309  0.0930
  1554G12c C00Y28741   5.299   9.167   6.045 -1.1406  0.5913 -0.4706
  1554G12c H00628742   5.404   9.145   6.056 -1.2267  0.9654  1.2523
  1554G12c C00X28743   5.291   9.281   6.118 -0.1778  0.6911  0.9623
  1554G12c O00328744   5.395   9.317   6.196 -1.3544  0.5396 -0.7591
  1554G12c C01B28745   5.418   9.220   6.307 -0.1818  1.0449  0.7477
  1554G12c H00928746   5.419   9.116   6.273  1.5798  2.7027 -4.7001
  1554G12c H00828747   5.375   9.216   6.407  2.2724  0.0150  1.7808
  1554G12c H00728748   5.508   9.273   6.337 -0.3174  6.0058 -6.4648
  1554G12c C00W28749   5.182   9.369   6.088 -0.2687  0.7776  0.6330
  1554G12c O00428750   5.198   9.491   6.149  0.2905  0.0995 -0.2404
  1554G12c C01C28751   5.070   9.565   6.142 -0.9106  0.7054  0.8239
  1554G12c H00A28752   5.025   9.593   6.236  2.3524  4.2751  1.4702
  1554G12c C00P28753   4.972   9.532   6.033 -0.2166 -0.4744 -0.3306
  1554G12c C00O28754   4.891   9.637   5.988 -0.4039  1.1664  1.7462
  1554G12c C01D28755   4.951   9.753   5.953  0.9345 -2.3318  0.2103
  1554G12c H00S28756   5.041   9.772   6.009  1.5799  3.0848 -2.3742
  1554G12c C01E28757   4.897   9.873   5.901  1.2460  1.2093  1.6501
  1554G12c O00828758   4.974   9.993   5.876 -0.1242  2.7157 -0.2929
  1554G12c C01V28759   4.984  10.091   5.970  2.1238  0.2114 -1.0891
  1554G12c C01Z28760   5.115  10.104   6.013  1.5295  0.5204 -1.6899
  1554G12c H00R28761   5.159  10.170   5.938  2.6577 -0.0390 -1.5247
  1554G12c H00Q28762   5.132  10.169   6.099 -0.0136 -0.2750 -0.7707
  1554G12c O00928763   5.162   9.980   6.050  0.6206 -1.0075  1.9052
  1554G12c H00P28764   5.207   9.937   5.979  0.8552  3.5728 -0.9614
  1554G12c C01W28765   4.874  10.167   6.000  0.9952 -0.7963  0.9209
  1554G12c H00O28766   4.783  10.152   5.944  5.4161 -2.0254 -6.5528
  1554G12c C01X28767   4.882  10.260   6.107  1.5406 -0.1419  0.9185
  1554G12c H00N28768   4.855  10.226   6.207 -0.2875 -3.2057 -0.5469
  1554G12c H00M28769   4.975  10.305   6.142 -0.7223  4.2302  1.7250
  1554G12c C01Y28770   4.794  10.371   6.060  1.3091 -0.2348 -0.1533
  1554G12c C02D28771   4.837  10.464   5.966 -0.0251 -0.6782  1.9028
  1554G12c H01928772   4.931  10.455   5.913 -3.1047 -0.0987 -4.0514
  1554G12c C02C28773   4.752  10.570   5.901 -0.3088 -0.7792 -1.9923
  1554G12c H01A28774   4.800  10.624   5.821  5.2408  0.6025  1.9850
  1554G12c C02B28775   4.608  10.564   5.929  1.4413  2.0915  0.4486
  1554G12c O00E28776   4.533  10.606   5.830  1.4760 -0.1281  2.0624
  1554G12c H01B28777   4.552  10.529   5.777 -0.7562 -1.6673  3.4119
  1554G12c C02F28778   4.551  10.472   6.022  0.5657  1.6217  0.1103
  1554G12c O00F28779   4.424  10.426   6.000  0.7261  1.4433  0.0686
  1554G12c C02G28780   4.370  10.320   6.092  1.7410 -1.8560 -0.4349
  1554G12c H01728781   4.426  10.227   6.076  1.6825 -2.0431  0.4418
  1554G12c H01628782   4.265  10.298   6.072  2.0332 -1.6587 -2.2707
  1554G12c H01528783   4.402  10.362   6.188  3.8694 -0.0287 -1.8968
  1554G12c C02E28784   4.659  10.384   6.083  0.4597 -0.7791  0.2778
  1554G12c H01828785   4.621  10.305   6.145  0.9472 -1.0408  0.2424
  1554G12c C01F28786   4.777   9.854   5.826  1.0278  0.4229 -0.0686
  1554G12c C01G28787   4.742   9.929   5.725  0.3928 -1.2665  2.8166
  1554G12c H00L28788   4.805  10.012   5.694 -4.0685  1.2388 -0.1828
  1554G12c C01H28789   4.619   9.895   5.647 -0.1357  3.1106 -0.5148
  1554G12c H00B28790   4.604   9.939   5.549 -2.6609  0.3914 -1.4076
  1554G12c C01I28791   4.565   9.758   5.678 -1.7856  2.6370 -1.6865
  1554G12c C01U28792   4.701   9.738   5.874  0.3021  0.1807 -0.6887
  1554G12c C00S28793   4.864   9.203   5.867 -0.9139 -0.4715 -1.2460
  1554G12c C00K28794   4.694   9.283   5.781  0.9305 -0.2885 -0.8179
  1554G12c C00N28795   4.749   9.620   5.948 -0.3286  1.0885  0.8079
  1554G12c C00028796   4.576   9.711   5.813 -0.3381 -2.0064 -0.5779
  1554G12c C01J28797   4.512   9.643   5.607 -1.9972 -0.0392  0.9633
  1554G12c C01K28798   4.494   9.652   5.456 -0.2069  0.2981  0.9618
  1554G12c C01P28799   4.458   9.769   5.365 -0.3021  0.1858  0.2618
  1554G12c C01Q28800   4.412   9.901   5.418 -0.4382  0.3106 -1.9224
  1554G12c H00G28801   4.492   9.969   5.395 -2.6150  3.6008 -0.1897
  1554G12c C01R28802   4.339   9.918   5.529 -1.4436  1.1210  1.0667
  1554G12c H00F28803   4.273   9.843   5.570 -1.1693  2.0078  3.1611
  1554G12c C01S28804   4.335  10.040   5.615  0.7085 -1.2244  0.0071
  1554G12c H00E28805   4.241  10.095   5.606  2.6132  1.8316 -2.5040
  1554G12c H00D28806   4.349  10.050   5.723  2.9312 -4.1147  0.0387
  1554G12c O00528807   4.446  10.114   5.587 -0.8079 -1.0913 -0.8196
  1554G12c H00C28808   4.439  10.195   5.634 -5.6177 -0.1107 -2.9823
  1554G12c C01O28809   4.468   9.763   5.217 -0.3026  0.1388  0.3162
  1554G12c H00H28810   4.417   9.825   5.145 -0.3643 -0.4546 -0.1625
  1554G12c C01N28811   4.514   9.629   5.167  1.3001 -1.1986 -0.1416
  1554G12c O00628812   4.538   9.597   5.032 -0.1115 -1.2231 -0.3771
  1554G12c C01T28813   4.473   9.673   4.935 -0.5171  1.3601 -0.8139
  1554G12c H00K28814   4.522   9.770   4.923  3.4389  0.0639  3.2890
  1554G12c H00J28815   4.367   9.657   4.955  0.6960  0.2460  5.8650
  1554G12c H00I28816   4.462   9.623   4.839  4.2667 -0.2515 -0.6436
  1554G12c C01M28817   4.532   9.521   5.241  0.0914 -0.3166 -2.5204
  1554G12c C02028818   4.595   9.273   5.671 -0.4707 -0.5260  1.1043
  1554G12c C02128819   4.566   9.144   5.599 -0.0382 -0.0801 -0.5629
  1554G12c C01L28820   4.527   9.527   5.393 -0.9926 -0.5121 -0.2654
  1554G12c O00728821   4.559   9.406   5.186  1.6868 -1.5255  0.6418
  1554G12c C02228822   4.564   9.162   5.452 -0.1728 -0.1010 -0.4717
  1554G12c C02328823   4.660   9.034   5.604 -0.9774 -2.0320 -2.1365
  1554G12c C00G28824   4.920   8.917   5.589 -1.6937  0.6627 -1.5498
  1554G12c C00E28825   5.052   8.737   5.473  0.0243 -0.5567 -1.5181
  1554G12c O00A28826   5.149   8.653   5.484 -0.0814  2.1198  1.5075
  1554G12c C02428827   5.089   8.527   5.476 -0.4633 -1.3597  0.2311
  1554G12c H00V28828   5.025   8.487   5.397 -0.0919  2.3233 -2.0395
  1554G12c H00U28829   5.048   8.508   5.575 -1.0192  0.4804  0.3760
  1554G12c H00T28830   5.173   8.458   5.483 -1.7203 -2.7573  1.8763
  1564G12c C00D28831   6.936   2.571  11.380 -0.8030 -1.5093  0.8487
  1564G12c O00B28832   6.837   2.656  11.371  0.7011 -0.2370  0.6300
  1564G12c C02528833   6.723   2.641  11.281 -0.6294 -1.3124 -0.4804
  1564G12c C02628834   6.692   2.789  11.263 -0.3293 -0.7398  0.7734
  1564G12c H00Y28835   6.705   2.811  11.369 -3.0574 -0.6780  1.1209
  1564G12c H00X28836   6.599   2.794  11.205  1.3345  4.3468 -1.8247
  1564G12c O00C28837   6.789   2.860  11.193  1.4384 -0.3046 -0.4680
  1564G12c H00W28838   6.842   2.904  11.259  2.1833 -0.1188 -1.1810
  1564G12c C02728839   6.662   2.532  11.243 -1.6473 -0.8848  0.1564
  1564G12c O00D28840   6.720   2.420  11.302 -0.5241 -0.6917 -0.0624
  1564G12c H00Z28841   6.806   2.409  11.265 -2.0254  0.1106 -3.9480
  1564G12c C02828842   6.537   2.513  11.176 -0.7535  0.4505  0.8543
  1564G12c C02928843   6.427   2.578  11.217 -0.4131  0.5769 -0.5639
  1564G12c H01028844   6.454   2.641  11.301  3.4321 -2.8210  0.9098
  1564G12c C02T28845   6.297   2.559  11.173  1.7719 -0.5774  2.4406
  1564G12c H01O28846   6.222   2.591  11.244 -0.9712 -0.3007 -0.4393
  1564G12c C02S28847   6.276   2.481  11.056 -1.5745 -0.3443  0.6377
  1564G12c O00J28848   6.166   2.443  10.990 -0.1592 -0.3408 -1.1191
  1564G12c H01P28849   6.185   2.363  10.944 -1.0745 -0.7017 -0.8844
  1564G12c C02R28850   6.389   2.415  11.001  1.2247  1.0790 -0.0637
  1564G12c O00I28851   6.364   2.323  10.905  0.5275 -0.4481 -0.5755
  1564G12c C02Q28852   6.459   2.281  10.817 -0.5596  1.9008  0.6870
  1564G12c H01N28853   6.500   2.360  10.755  5.0243 -0.3350  1.2244
  1564G12c H01R28854   6.400   2.219  10.749  1.6017  1.8569 -1.2128
  1564G12c H01Q28855   6.516   2.195  10.853  4.3512  6.3190  4.1859
  1564G12c C02A28856   6.525   2.430  11.056  0.3119 -1.5064  0.7017
  1564G12c H01128857   6.622   2.386  11.035 -0.0049 -2.8125  1.9042
  1564G12c C00C28858   7.027   2.541  11.274 -0.1347  0.1500  2.5608
  1564G12c H01228859   7.030   2.591  11.178  1.7107  1.1953  3.1399
  1564G12c C00B28860   7.150   2.474  11.271 -1.4796  0.0871 -0.5493
  1564G12c C00A28861   7.234   2.458  11.159  0.4674  2.2180  0.3551
  1564G12c C00928862   7.207   2.450  11.016  1.2330 -0.1498 -0.0293
  1564G12c C00828863   7.080   2.402  10.978 -0.0036  1.9227  1.8644
  1564G12c H01328864   7.004   2.455  11.033  0.6027  0.6990  3.9306
  1564G12c C00728865   7.067   2.319  10.855 -0.2150  0.2243  0.1366
  1564G12c H01428866   6.961   2.325  10.834 -1.3864 -6.1267  2.7732
  1564G12c C00628867   7.184   2.259  10.799 -0.3971 -0.0991  0.7543
  1564G12c C00528868   7.303   2.289  10.881 -1.2989 -0.1165  0.2182
  1564G12c C00428869   7.428   2.216  10.870  0.6833 -0.0707 -1.4014
  1564G12c C00328870   7.540   2.212  10.958  0.9864 -1.6816 -1.0724
  1564G12c C00228871   7.645   2.121  10.934  0.3601 -0.0851  0.0644
  1564G12c C00128872   7.750   2.075  11.024  0.5233 -2.3150  0.0089
  1564G12c C00M28873   7.722   2.045  11.152  0.0470  1.6481 -0.2595
  1564G12c C00L28874   7.606   2.099  11.219 -0.2844 -0.2957 -0.5842
  1564G12c C00R28875   7.595   2.077  11.364  0.2239 -0.9917 -0.6099
  1564G12c C00Q28876   7.622   1.966  11.442 -2.7273  0.2501 -0.8401
  1564G12c C00V28877   7.547   1.984  11.572 -1.1094  0.8779 -1.5044
  1564G12c C00U28878   7.448   2.082  11.591  0.7154 -0.0040 -1.4116
  1564G12c C00T28879   7.419   2.177  11.497  0.3906 -1.0336  1.3242
  1564G12c C01628880   7.320   2.272  11.499 -1.3535 -0.8582  1.4777
  1564G12c C01528881   7.240   2.267  11.623  0.9512  1.2473 -0.3759
  1564G12c C01028882   7.275   2.182  11.737  0.1550 -1.4605 -0.1950
  1564G12c C01128883   7.206   2.202  11.846  0.5159 -0.0651 -0.5508
  1564G12c H00528884   7.198   2.132  11.928 -1.6944  3.0341  1.9897
  1564G12c C01228885   7.093   2.287  11.856  0.7970  0.1025  1.2133
  1564G12c C01728886   7.001   2.300  11.970 -0.9890  0.8762  0.3127
  1564G12c O00228887   6.982   2.418  12.030  0.6731  0.8538 -0.2258
  1564G12c H00428888   7.025   2.456  11.954  4.9244 -2.4119  0.3668
  1564G12c C01828889   6.979   2.181  12.042  1.3653  0.5129 -0.3407
  1564G12c O00128890   7.013   2.051  11.996  0.3057 -0.1787  0.3325
  1564G12c H00328891   6.950   2.025  12.062 -0.2938  2.4918  0.8780
  1564G12c C01928892   6.892   2.188  12.170  0.2363  0.7920 -3.3341
  1564G12c H00228893   6.979   2.231  12.219 -5.5634  5.8200  3.6195
  1564G12c H00128894   6.827   2.275  12.160 -0.7759  1.0187  2.9202
  1564G12c O00028895   6.844   2.059  12.205  1.0517 -2.5319  1.1040
  1564G12c C01A28896   6.762   2.072  12.320 -1.9795  1.0286  0.1086
  1564G12c C02K28897   6.625   2.074  12.301  2.6497 -0.1800  1.2368
  1564G12c O00G28898   6.542   2.037  12.194  0.4029 -0.3649 -1.4080
  1564G12c C02M28899   6.451   2.130  12.125 -0.6981 -1.0456 -0.5837
  1564G12c H01G28900   6.409   2.091  12.032 -3.4331 -3.5175  1.6064
  1564G12c H01F28901   6.523   2.191  12.070  1.9003 -5.8248 -2.8015
  1564G12c H01E28902   6.385   2.193  12.184  1.1775  1.5385 -1.1550
  1564G12c C02J28903   6.560   2.094  12.419  0.9329 -0.2674  0.1332
  1564G12c H01H28904   6.452   2.090  12.421  0.4144  6.7885 -1.4156
  1564G12c C02I28905   6.608   2.076  12.552 -0.5705  1.4618 -0.8489
  1564G12c C02N28906   6.519   2.105  12.663  0.1882  1.5253  1.5062
  1564G12c H01M28907   6.442   2.037  12.694 -1.5166  1.3371 -2.7252
  1564G12c C02O28908   6.506   2.242  12.674 -0.9477  0.6004 -0.4319
  1564G12c H01L28909   6.426   2.269  12.743 -0.5192 -4.4436  2.2975
  1564G12c C02P28910   6.576   2.353  12.583 -0.0606  0.8045 -1.4202
  1564G12c H01K28911   6.664   2.401  12.626 -0.1750 -0.9110  0.8043
  1564G12c H01J28912   6.622   2.311  12.494 -0.8846  2.2774 -2.5644
  1564G12c O00H28913   6.466   2.441  12.549  0.1088  0.2966 -1.3814
  1564G12c H01I28914   6.415   2.393  12.486  0.8724 -1.0953 -0.9508
  1564G12c C02H28915   6.746   2.071  12.560 -0.4098  0.3919 -0.3008
  1564G12c H01C28916   6.787   2.093  12.658 -2.2258  0.8079  0.3732
  1564G12c C02L28917   6.827   2.052  12.445 -0.1574 -0.2978  0.3113
  1564G12c H01D28918   6.931   2.026  12.462 -0.8342 -3.4889 -0.1508
  1564G12c C01328919   7.078   2.394  11.761  0.9306  2.2887 -0.2533
  1564G12c H00028920   7.008   2.474  11.776 -1.3329 -0.5042  5.8926
  1564G12c C01428921   7.142   2.364  11.632  1.8770 -0.8183  1.9991
  1564G12c C00F28922   7.115   2.447  11.518  1.1819  1.4431  1.7875
  1564G12c C00H28923   7.310   2.367  11.416 -0.6969 -0.3529 -0.1045
  1564G12c C00I28924   7.403   2.367  11.305 -0.1864 -0.3564 -0.3352
  1564G12c C00J28925   7.523   2.284  11.317 -0.9723 -0.0459 -0.1807
  1564G12c C00Z28926   7.374   2.091  11.705  0.4228 -0.3050 -0.7333
  1564G12c C00Y28927   7.410   1.989  11.793  1.0765 -0.5225 -1.0925
  1564G12c H00628928   7.361   1.995  11.889 -1.7743  0.2000 -2.5314
  1564G12c C00X28929   7.471   1.854  11.749 -0.1799 -1.1157  0.4841
  1564G12c O00328930   7.465   1.749  11.835  0.8358 -0.0762  0.0383
  1564G12c C01B28931   7.340   1.701  11.855 -1.5674 -1.0276  1.0127
  1564G12c H00928932   7.317   1.603  11.813 -0.3113 -1.8285  2.1624
  1564G12c H00828933   7.317   1.694  11.961  0.3840 -0.3531  1.4896
  1564G12c H00728934   7.250   1.752  11.821 -1.7451  1.0449  4.4630
  1564G12c C00W28935   7.560   1.874  11.657 -1.8591  0.7029 -0.7980
  1564G12c O00428936   7.681   1.792  11.653 -0.3916 -1.6708  0.6578
  1564G12c C01C28937   7.741   1.792  11.536 -0.6859  1.7566  1.4225
  1564G12c H00A28938   7.838   1.744  11.542 -0.8643  0.8587 -1.9211
  1564G12c C00P28939   7.716   1.867  11.420 -1.0877  0.2897  1.7857
  1564G12c C00O28940   7.774   1.837  11.293 -1.1438  0.6359 -0.7368
  1564G12c C01D28941   7.813   1.704  11.279  0.4411 -1.9070  1.4772
  1564G12c H00S28942   7.814   1.642  11.368 -2.4122 -4.8940 -0.4699
  1564G12c C01E28943   7.838   1.636  11.159 -0.6379  0.5467 -0.0300
  1564G12c O00828944   7.804   1.500  11.146 -1.1883  0.9024 -0.1169
  1564G12c C01V28945   7.894   1.410  11.219 -1.0049 -0.6512 -0.2076
  1564G12c C01Z28946   7.820   1.332  11.329  1.8563 -1.0061  1.3358
  1564G12c H00R28947   7.774   1.248  11.276 -1.1580  2.1331 -1.2837
  1564G12c H00Q28948   7.735   1.387  11.369  3.6855  1.3788  2.0888
  1564G12c O00928949   7.885   1.258  11.431 -0.6687 -0.7853 -0.0417
  1564G12c H00P28950   7.885   1.186  11.371 -2.8558  1.1009 -2.4465
  1564G12c C01W28951   8.018   1.425  11.179 -0.0575 -0.3925 -0.8663
  1564G12c H00O28952   8.025   1.506  11.108  3.1285  1.9616  1.9662
  1564G12c C01X28953   8.142   1.381  11.249  0.9321  1.2349  1.2252
  1564G12c H00N28954   8.164   1.275  11.261 -2.9424  0.0465 -1.3901
  1564G12c H00M28955   8.224   1.421  11.189 -0.5636 -2.2341 -3.4286
  1564G12c C01Y28956   8.181   1.433  11.389  0.5783  0.4529  0.2500
  1564G12c C02D28957   8.275   1.539  11.384 -0.2094  0.4909 -0.2330
  1564G12c H01928958   8.345   1.558  11.305 -1.4902  2.7313 -0.8727
  1564G12c C02C28959   8.295   1.602  11.510 -0.6650 -1.2299  0.3112
  1564G12c H01A28960   8.379   1.669  11.511 -1.0620 -0.7109 -0.7760
  1564G12c C02B28961   8.234   1.552  11.624  0.1360  1.3476 -1.3392
  1564G12c O00E28962   8.261   1.613  11.741  0.9227  0.8749 -0.0927
  1564G12c H01B28963   8.214   1.546  11.788  2.6091 -0.3692 -0.1280
  1564G12c C02F28964   8.153   1.446  11.635 -0.3314 -0.5806  2.7078
  1564G12c O00F28965   8.072   1.427  11.749 -0.7856  0.1242 -0.3352
  1564G12c C02G28966   7.944   1.353  11.729 -0.3934 -0.6828  0.5648
  1564G12c H01728967   7.949   1.245  11.741  1.6967 -1.3145 -4.6225
  1564G12c H01628968   7.891   1.390  11.817  6.2974  1.1119  4.2038
  1564G12c H01528969   7.898   1.415  11.652  2.7714  2.5263  1.1004
  1564G12c C02E28970   8.137   1.371  11.511  0.2836 -0.0567  1.5256
  1564G12c H01828971   8.095   1.271  11.509 -7.2546  2.5383 -7.1151
  1564G12c C01F28972   7.820   1.732  11.041  0.2313  1.6344  0.4640
  1564G12c C01G28973   7.756   1.690  10.915 -0.2049 -0.0364  0.2921
  1564G12c H00L28974   7.719   1.588  10.914  1.2729 -0.5876 -1.4897
  1564G12c C01H28975   7.717   1.773  10.825  0.9727 -1.3700  0.9228
  1564G12c H00B28976   7.652   1.709  10.767  0.9243 -0.3618 -0.1780
  1564G12c C01I28977   7.745   1.922  10.833  0.3701  1.0730 -0.3659
  1564G12c C01U28978   7.863   1.874  11.056  0.3950  0.1884  0.1353
  1564G12c C00S28979   7.528   2.187  11.413 -0.3955  0.8732  0.7074
  1564G12c C00K28980   7.581   2.230  11.197 -0.7082  0.7922 -0.9343
  1564G12c C00N28981   7.791   1.916  11.174  1.0583  0.6856  1.9184
  1564G12c C00028982   7.826   1.967  10.954 -1.5200  0.5752  0.4145
  1564G12c C01J28983   7.634   2.032  10.825 -0.6698  0.5948  0.9204
  1564G12c C01K28984   7.535   2.037  10.728  0.2685 -0.4143  0.7268
  1564G12c C01P28985   7.537   1.982  10.590  0.9253 -0.8448 -1.5650
  1564G12c C01Q28986   7.646   1.886  10.570 -0.6350  0.6054  0.7106
  1564G12c H00G28987   7.736   1.937  10.600  2.4722 -1.3866 -4.5005
  1564G12c C01R28988   7.637   1.770  10.496 -0.5552 -0.4244 -0.0359
  1564G12c H00F28989   7.542   1.727  10.469  1.5528 -2.2720 -5.0758
  1564G12c C01S28990   7.734   1.672  10.461 -0.5257 -1.9415  0.7560
  1564G12c H00E28991   7.824   1.714  10.505 -1.7842  2.9468 -1.0627
  1564G12c H00D28992   7.710   1.566  10.451  1.5335 -2.9211  4.9399
  1564G12c O00528993   7.768   1.710  10.321 -0.1724 -0.7978  0.1546
  1564G12c H00C28994   7.728   1.654  10.256  2.4305 -2.7874  0.1549
  1564G12c C01O28995   7.424   1.968  10.510  1.0718 -0.4132 -0.1044
  1564G12c H00H28996   7.406   1.941  10.407 -2.9458 -1.5485  0.7970
  1564G12c C01N28997   7.304   2.041  10.572 -1.2885  0.0842  0.4497
  1564G12c O00628998   7.195   2.060  10.496 -0.7486  1.0251  1.6459
  1564G12c C01T28999   7.191   2.166  10.387  1.4439  0.3156 -0.1788
  1564G12c H00K29000   7.285   2.154  10.333  0.6733 -1.3760 -1.2066
  1564G12c H00J29001   7.124   2.148  10.303  6.1185  0.7738 -4.1904
  1564G12c H00I29002   7.177   2.251  10.454  4.2759 -1.3841  2.7233
  1564G12c C01M29003   7.308   2.108  10.685  0.8783  0.2946  0.2845
  1564G12c C02029004   7.539   2.294  11.084  1.2488  0.7651  1.1823
  1564G12c C02129005   7.440   2.404  11.072  0.1497 -0.2900  0.5128
  1564G12c C01L29006   7.426   2.134  10.761 -1.6375  0.3309  0.9795
  1564G12c O00729007   7.185   2.169  10.696 -0.6926  0.8778  0.4192
  1564G12c C02229008   7.327   2.396  10.968 -0.8810  0.7439 -0.5142
  1564G12c C02329009   7.366   2.445  11.190 -1.0690 -0.3440 -0.5675
  1564G12c C00G29010   7.195   2.442  11.406  0.1345 -1.6201  0.5685
  1564G12c C00E29011   6.981   2.518  11.503 -0.4043 -0.4112  1.7335
  1564G12c O00A29012   6.896   2.521  11.615  0.1216  0.2552  0.4623
  1564G12c C02429013   6.777   2.592  11.644 -1.4922  2.3060  0.2874
  1564G12c H00V29014   6.786   2.617  11.750  2.4742 -0.7855  0.7719
  1564G12c H00U29015   6.692   2.524  11.650  0.0145  0.5570  1.9844
  1564G12c H00T29016   6.757   2.668  11.568 -3.2390  4.9636  3.2609
  1574G12c C00D29017  10.831   8.606   0.798 -1.0648  0.6062 -0.6533
  1574G12c O00B29018  10.864   8.494   0.877  0.1947 -1.1827  0.7226
  1574G12c C02529019  10.991   8.497   0.930  0.7319 -0.0739  0.4275
  1574G12c C02629020  11.057   8.378   0.888  2.1423 -0.3857 -0.7750
  1574G12c H00Y29021  11.010   8.287   0.925 -1.2763  0.9014 -1.6822
  1574G12c H00X29022  11.162   8.392   0.911  2.2050 -0.6694 -0.8926
  1574G12c O00C29023  11.035   8.362   0.748  0.4987 -0.3439 -0.3487
  1574G12c H00W29024  10.950   8.372   0.708  3.1287 -1.4458 -6.9320
  1574G12c C02729025  11.036   8.576   1.036 -0.8222 -0.5003  1.1421
  1574G12c O00D29026  10.962   8.682   1.073  0.9643  0.7257  0.6092
  1574G12c H00Z29027  10.874   8.648   1.080  0.7585  0.7345 -1.5739
  1574G12c C02829028  11.169   8.565   1.081  0.6852  1.9029 -0.6908
  1574G12c C02929029  11.285   8.585   0.994 -1.4240  0.5476  0.5280
  1574G12c H01029030  11.252   8.637   0.906 -2.4990 -0.1207  0.5320
  1574G12c C02T29031  11.412   8.610   1.064 -1.1405 -0.1576 -0.1008
  1574G12c H01O29032  11.512   8.615   1.024  0.2227 -0.1208  3.2122
  1574G12c C02S29033  11.427   8.601   1.201 -1.0343 -0.4555 -1.2947
  1574G12c O00J29034  11.547   8.605   1.253 -0.2285 -1.0731  0.1733
  1574G12c H01P29035  11.545   8.586   1.345  1.0475 -1.1011  0.2016
  1574G12c C02R29036  11.322   8.575   1.287  0.0877  1.2248  0.0133
  1574G12c O00I29037  11.327   8.554   1.433  0.9310  0.6641 -0.4160
  1574G12c C02Q29038  11.408   8.630   1.504 -1.4636 -1.0749 -1.7155
  1574G12c H01N29039  11.461   8.723   1.485  0.2907 -2.0320 -1.6758
  1574G12c H01R29040  11.485   8.580   1.562  3.5538  3.3864 -4.0419
  1574G12c H01Q29041  11.333   8.642   1.582  2.5486  1.9671  1.9194
  1574G12c C02A29042  11.187   8.561   1.219  1.2017  1.3359  0.7247
  1574G12c H01129043  11.096   8.548   1.276  0.7350  4.3780  0.7856
  1574G12c C00C29044  10.926   8.638   0.694  0.0332  0.7425  0.2300
  1574G12c H01229045  11.000   8.562   0.671 -2.0283 -0.9820 -0.9167
  1574G12c C00B29046  10.935   8.758   0.633  0.9487 -0.2438 -0.3682
  1574G12c C00A29047  11.016   8.799   0.522  0.8085 -0.2550  0.8121
  1574G12c C00929048  11.162   8.766   0.487  0.7960  1.2213  0.0089
  1574G12c C00829049  11.256   8.666   0.517  0.4916 -1.1488 -0.7772
  1574G12c H01329050  11.235   8.577   0.574  3.5569  1.0817  4.1742
  1574G12c C00729051  11.391   8.702   0.485 -0.2894  1.2157 -0.3808
  1574G12c H01429052  11.464   8.647   0.543 -2.3528 -4.7217 -2.9694
  1574G12c C00629053  11.444   8.816   0.447 -0.0404  2.1732 -0.3702
  1574G12c C00529054  11.339   8.912   0.434 -0.5155 -1.2724 -0.3328
  1574G12c C00429055  11.381   9.045   0.419  0.1686  0.0144  0.3733
  1574G12c C00329056  11.273   9.151   0.423  0.1366  0.8273  1.1003
  1574G12c C00229057  11.325   9.292   0.417  0.2821 -0.3585 -0.5062
  1574G12c C00129058  11.271   9.426   0.393  0.1675  1.2469 -1.0379
  1574G12c C00M29059  11.135   9.460   0.411 -0.7479 -0.8136  2.0515
  1574G12c C00L29060  11.037   9.372   0.456  0.7306 -1.1784 -1.0790
  1574G12c C00R29061  10.903   9.399   0.527  0.4458  0.4286 -1.2399
  1574G12c C00Q29062  10.846   9.501   0.600  0.2404 -2.2391  0.4043
  1574G12c C00V29063  10.728   9.480   0.663 -0.5300  0.7389  0.5656
  1574G12c C00U29064  10.691   9.348   0.703  0.8767  1.1375  1.1596
  1574G12c C00T29065  10.760   9.233   0.641 -0.5516 -2.6793 -0.7063
  1574G12c C01629066  10.750   9.094   0.690  1.1146 -0.3650  0.5546
  1574G12c C01529067  10.655   9.064   0.798  0.6038 -0.3295 -0.7906
  1574G12c C01029068  10.589   9.169   0.851  1.6626 -0.9277  0.6532
  1574G12c C01129069  10.505   9.149   0.964 -0.8595  1.2129  1.6600
  1574G12c H00529070  10.455   9.233   1.011 -1.5147 -0.0235  3.2207
  1574G12c C01229071  10.472   9.018   0.985 -0.2778 -0.7710  0.4881
  1574G12c C01729072  10.357   8.967   1.056  0.6967  2.3417 -2.3123
  1574G12c O00229073  10.309   8.847   1.042 -1.5034 -1.3189  0.9318
  1574G12c H00429074  10.245   8.816   0.979  1.3202 -2.4297 -1.5188
  1574G12c C01829075  10.293   9.054   1.135  0.3816  0.9396  0.8578
  1574G12c O00129076  10.326   9.182   1.179 -0.8285 -0.2948 -0.7078
  1574G12c H00329077  10.251   9.188   1.237  0.7199  5.6825  1.0480
  1574G12c C01929078  10.145   9.022   1.173  0.0855 -1.1378  1.3674
  1574G12c H00229079  10.132   9.060   1.072  0.0900 -4.0082  0.2451
  1574G12c H00129080  10.142   8.916   1.197 -0.8008 -1.5381 -0.4185
  1574G12c O00029081  10.081   9.118   1.259 -0.4282 -0.8305  1.1261
  1574G12c C01A29082  10.102   9.104   1.391  0.5515  0.9203  0.2030
  1574G12c C02K29083  10.076   9.223   1.467 -0.0582 -0.3825 -1.4578
  1574G12c O00G29084  10.002   9.330   1.394 -0.7972 -1.6720  0.8001
  1574G12c C02M29085  10.051   9.472   1.403 -0.4981 -0.0317 -0.2709
  1574G12c H01G29086  10.158   9.457   1.396 -0.8371 -1.3809-10.5465
  1574G12c H01F29087  10.039   9.536   1.490  0.4777  3.0910 -2.3354
  1574G12c H01E29088  10.017   9.501   1.303 -0.1154 -1.7072 -0.9004
  1574G12c C02J29089  10.155   9.268   1.577 -0.2294  0.2318 -0.1011
  1574G12c H01H29090  10.162   9.353   1.642 -0.7388  0.3960 -0.2613
  1574G12c C02I29091  10.272   9.181   1.607 -0.3433  0.9790 -0.5090
  1574G12c C02N29092  10.383   9.181   1.701  0.0338  0.5539  0.3135
  1574G12c H01M29093  10.382   9.207   1.806 -1.9582  5.8192 -0.8913
  1574G12c C02O29094  10.503   9.131   1.680 -1.2841 -0.5533 -1.1963
  1574G12c H01L29095  10.521   9.131   1.574 -2.3847 -1.6479 -1.3909
  1574G12c C02P29096  10.631   9.085   1.772 -0.5140  1.5655  0.7348
  1574G12c H01K29097  10.699   9.166   1.797  2.0119 -1.2616  3.4365
  1574G12c H01J29098  10.610   9.057   1.875 -2.2053 -3.0366 -0.7376
  1574G12c O00H29099  10.710   9.010   1.669  0.9302 -0.0211 -0.2274
  1574G12c H01I29100  10.671   9.007   1.584  4.3519  2.7949 -2.0391
  1574G12c C02H29101  10.248   9.045   1.548  1.0683 -0.2907 -0.1645
  1574G12c H01C29102  10.282   8.951   1.589 -6.6628 -4.7219 -2.9838
  1574G12c C02L29103  10.174   9.002   1.451  0.1504  0.6795  1.0059
  1574G12c H01D29104  10.181   8.901   1.414 -0.0633  2.2744 -3.8027
  1574G12c C01329105  10.567   8.913   0.934 -1.7077  0.4281 -0.3650
  1574G12c H00029106  10.570   8.828   1.001  1.7832 -2.8826 -4.4166
  1574G12c C01429107  10.652   8.937   0.839  0.5372  0.8332  1.7095
  1574G12c C00F29108  10.742   8.830   0.783  1.1321 -0.7267  1.9881
  1574G12c C00H29109  10.830   8.992   0.628 -0.1174  0.7552 -0.5783
  1574G12c C00I29110  10.920   9.021   0.517 -0.9934 -0.3003 -0.9067
  1574G12c C00J29111  10.941   9.164   0.499  0.9794  2.6483 -0.2525
  1574G12c C00Z29112  10.593   9.305   0.803  0.5751 -1.2170 -0.5318
  1574G12c C00Y29113  10.510   9.417   0.846  0.9144 -0.5398 -0.5108
  1574G12c H00629114  10.415   9.414   0.899  1.6792  0.5338  0.9614
  1574G12c C00X29115  10.547   9.551   0.811  0.5865 -0.3174  0.9001
  1574G12c O00329116  10.465   9.646   0.856  0.0974 -0.5830  0.6112
  1574G12c C01B29117  10.379   9.695   0.752 -0.5640  1.6007 -0.4664
  1574G12c H00929118  10.341   9.797   0.755  4.2787  3.5019  2.4209
  1574G12c H00829119  10.302   9.619   0.746 -0.5008  0.8507  5.3311
  1574G12c H00729120  10.442   9.693   0.663 -2.8212 -0.4443 -2.0706
  1574G12c C00W29121  10.662   9.587   0.735 -1.7317  1.9023 -1.1585
  1574G12c O00429122  10.727   9.705   0.768  1.1640  0.7586  1.0376
  1574G12c C01C29123  10.812   9.729   0.663 -0.8324 -0.1653  0.4339
  1574G12c H00A29124  10.863   9.824   0.675  1.2116 -0.4314 -4.6444
  1574G12c C00P29125  10.910   9.628   0.630 -0.0328  1.9903  0.9094
  1574G12c C00O29126  11.050   9.638   0.588 -1.9611  0.0544 -0.8548
  1574G12c C01D29127  11.120   9.705   0.700  0.5048 -0.4119  0.0449
  1574G12c H00S29128  11.066   9.777   0.759  2.5968  0.7475  0.5586
  1574G12c C01E29129  11.258   9.700   0.720 -0.8500 -0.9006  1.2747
  1574G12c O00829130  11.299   9.777   0.841 -0.6018 -0.1606  0.2414
  1574G12c C01V29131  11.232   9.779   0.959 -0.5338 -0.2110  0.0214
  1574G12c C01Z29132  11.155   9.908   0.974  1.2157 -0.3153 -0.4165
  1574G12c H00R29133  11.161   9.962   1.068 -2.0734  4.7230 -2.8973
  1574G12c H00Q29134  11.178   9.969   0.887  0.6956 -2.1275 -1.8633
  1574G12c O00929135  11.016   9.894   0.976  0.3367 -0.2433 -1.4451
  1574G12c H00P29136  10.957   9.965   0.997  2.3698  0.2840  3.0579
  1574G12c C01W29137  11.224   9.680   1.046  1.4700  1.9528  0.3392
  1574G12c H00O29138  11.153   9.683   1.128  7.4779 -4.9416  6.4119
  1574G12c C01X29139  11.266   9.552   1.001  0.5352  0.5231  1.3433
  1574G12c H00N29140  11.181   9.530   0.936  2.7227 -0.8929 -1.1816
  1574G12c H00M29141  11.332   9.553   0.914 -3.3156  3.9796 -1.7382
  1574G12c C01Y29142  11.315   9.455   1.109 -0.5906  0.0049 -2.6407
  1574G12c C02D29143  11.363   9.487   1.238 -0.1560  0.5402 -1.3233
  1574G12c H01929144  11.338   9.583   1.279 -5.0499 -1.7925  1.7166
  1574G12c C02C29145  11.415   9.388   1.323  0.4009 -0.8112 -0.3350
  1574G12c H01A29146  11.422   9.415   1.428  1.7884 -5.7232  0.9916
  1574G12c C02B29147  11.419   9.249   1.280  0.3911 -0.5610 -0.0335
  1574G12c O00E29148  11.444   9.154   1.373  0.3623 -0.1143 -0.2509
  1574G12c H01B29149  11.462   9.068   1.339  4.5424 -1.1514  4.1159
  1574G12c C02F29150  11.402   9.229   1.139 -0.4105 -0.3499  0.7393
  1574G12c O00F29151  11.410   9.100   1.087  0.5945 -0.2223 -0.3399
  1574G12c C02G29152  11.504   9.084   0.990 -0.3457  0.2487  0.0884
  1574G12c H01729153  11.500   8.977   0.971 -3.6649  0.6756 -2.0298
  1574G12c H01629154  11.481   9.145   0.902 -3.1915  6.0695  4.5015
  1574G12c H01529155  11.605   9.076   1.029 -0.4554  3.8581  1.3681
  1574G12c C02E29156  11.349   9.330   1.042  0.1109  1.7990 -0.7919
  1574G12c H01829157  11.308   9.307   0.945 -5.2516 -2.6887  2.2922
  1574G12c C01F29158  11.336   9.655   0.622 -0.1664 -0.3475  0.1885
  1574G12c C01G29159  11.466   9.625   0.651  0.2217  1.9635  0.4883
  1574G12c H00L29160  11.489   9.660   0.750 -2.4123  2.6023  0.9340
  1574G12c C01H29161  11.536   9.517   0.587  0.7708 -1.1179  0.4603
  1574G12c H00B29162  11.608   9.459   0.642  2.7108 -0.9829 -1.8443
  1574G12c C01I29163  11.480   9.463   0.475 -0.0127 -0.0054 -0.7012
  1574G12c C01U29164  11.282   9.599   0.510  1.0118 -1.6400 -0.4763
  1574G12c C00S29165  10.867   9.264   0.565  0.9256 -0.7058 -0.1615
  1574G12c C00K29166  11.042   9.232   0.440 -1.2347  0.1303  0.2806
  1574G12c C00N29167  11.140   9.575   0.503 -0.7046  0.9454  0.5167
  1574G12c C00029168  11.360   9.523   0.421  0.2561 -0.5486 -0.2987
  1574G12c C01J29169  11.458   9.315   0.445 -0.1992 -0.3101  0.4678
  1574G12c C01K29170  11.565   9.208   0.445 -0.6276  1.0705  1.0681
  1574G12c C01P29171  11.718   9.240   0.462 -0.7650 -0.2572  1.0667
  1574G12c C01Q29172  11.766   9.373   0.446  0.1828 -0.8922 -0.9790
  1574G12c H00G29173  11.757   9.448   0.370 -0.4327 -4.1587 -4.2698
  1574G12c C01R29174  11.868   9.409   0.524  0.5591  2.3450 -0.3900
  1574G12c H00F29175  11.858   9.364   0.622 -3.6805 -1.3016 -2.3259
  1574G12c C01S29176  11.942   9.531   0.559  0.3244 -0.0915  1.3658
  1574G12c H00E29177  11.996   9.573   0.474  1.6638  1.0750  2.7901
  1574G12c H00D29178  11.873   9.596   0.614 -1.8520  1.5705 -3.0389
  1574G12c O00529179  12.047   9.482   0.660 -0.9639  0.3471  0.1293
  1574G12c H00C29180  12.118   9.538   0.632 -0.5322  1.2863  2.9219
  1574G12c C01O29181  11.807   9.132   0.445  0.6560 -1.9346  1.5923
  1574G12c H00H29182  11.914   9.147   0.445  0.3650  0.4779  4.3971
  1574G12c C01N29183  11.755   8.996   0.426 -1.5766  0.3932  0.9801
  1574G12c O00629184  11.849   8.906   0.397 -0.6035  0.7801  0.3308
  1574G12c C01T29185  11.881   8.809   0.499  1.3762 -0.9062 -0.3460
  1574G12c H00K29186  11.849   8.829   0.601 -0.3194 -0.4058 -0.9528
  1574G12c H00J29187  11.973   8.822   0.555 -0.6371 -2.7657  3.5772
  1574G12c H00I29188  11.857   8.708   0.468  1.5427 -0.5220 -1.7761
  1574G12c C01M29189  11.616   8.966   0.408 -0.1957 -1.1823  0.2937
  1574G12c C02029190  11.137   9.121   0.423  0.3800 -1.1800 -0.3530
  1574G12c C02129191  11.120   8.981   0.409  0.8196  0.3825  0.3011
  1574G12c C01L29192  11.525   9.081   0.428  1.5265  0.0362  0.6228
  1574G12c O00729193  11.570   8.835   0.405  0.2682 -0.1796 -0.7829
  1574G12c C02229194  11.206   8.884   0.425  1.0892 -1.3973  0.1586
  1574G12c C02329195  10.988   8.917   0.459  0.8646 -2.1246  0.5416
  1574G12c C00G29196  10.835   8.852   0.688  1.7187 -0.6501  0.0172
  1574G12c C00E29197  10.724   8.697   0.831 -0.0728  0.5045  0.7297
  1574G12c O00A29198  10.616   8.637   0.908 -0.0093  0.7574  0.5420
  1574G12c C02429199  10.537   8.559   0.801  2.1544 -3.4309 -0.0344
  1574G12c H00V29200  10.454   8.618   0.841  0.9186 -5.8404  1.0854
  1574G12c H00U29201  10.539   8.452   0.822  0.9394 -2.9157  3.0207
  1574G12c H00T29202  10.552   8.599   0.701  2.9945  5.3414  3.1366
  1584G12c C00D29203   6.290  11.283   1.973  3.0117  0.3391 -1.6474
  1584G12c O00B29204   6.307  11.159   1.888 -0.5678 -0.7791  0.2891
  1584G12c C02529205   6.243  11.137   1.764  1.9025 -0.0944  0.6437
  1584G12c C02629206   6.161  11.013   1.759 -0.0560  0.6586 -1.3516
  1584G12c H00Y29207   6.194  10.950   1.842 -1.4112  2.3734  0.5488
  1584G12c H00X29208   6.196  10.935   1.691 -2.7032 -0.3145 -1.6603
  1584G12c O00C29209   6.027  11.050   1.777  0.1585 -0.2553 -0.4138
  1584G12c H00W29210   5.990  11.130   1.744  3.2401  1.5237  0.2848
  1584G12c C02729211   6.253  11.229   1.668 -0.6485  0.2654 -2.2500
  1584G12c O00D29212   6.336  11.325   1.710  0.7577 -0.7164  0.4943
  1584G12c H00Z29213   6.405  11.301   1.770  5.8925  1.5627 -4.1787
  1584G12c C02829214   6.184  11.232   1.538  1.0849 -0.0532 -0.7004
  1584G12c C02929215   6.061  11.307   1.531  0.2909 -0.1611  1.2158
  1584G12c H01029216   6.071  11.405   1.576 -1.9256  0.1450  1.0800
  1584G12c C02T29217   5.999  11.303   1.412 -1.1557 -1.1409 -0.6998
  1584G12c H01O29218   5.905  11.351   1.389  0.0884 -0.4345 -4.8563
  1584G12c C02S29219   6.055  11.238   1.301 -1.4634  0.6953  2.2519
  1584G12c O00J29220   6.002  11.261   1.180  0.2255  0.9575  0.5047
  1584G12c H01P29221   6.068  11.212   1.132 -1.4643 -1.8563  0.9423
  1584G12c C02R29222   6.165  11.150   1.304  0.3595  0.0351 -1.8144
  1584G12c O00I29223   6.191  11.081   1.198 -1.0840 -0.2657 -0.8490
  1584G12c C02Q29224   6.223  10.941   1.216  0.8087  1.9961 -0.8818
  1584G12c H01N29225   6.323  10.900   1.204  0.8048  0.9982  2.3012
  1584G12c H01R29226   6.190  10.892   1.124  0.3171 -0.1706  0.4282
  1584G12c H01Q29227   6.188  10.861   1.280 -2.2345  1.2744 -3.3226
  1584G12c C02A29228   6.223  11.134   1.443 -0.7404 -0.6966 -0.6236
  1584G12c H01129229   6.312  11.077   1.465  0.4961  1.1032 -0.7680
  1584G12c C00C29230   6.158  11.331   1.985  1.4492 -1.3873 -1.7430
  1584G12c H01229231   6.088  11.282   1.920  2.7998 -2.4329 -2.4243
  1584G12c C00B29232   6.158  11.451   2.061 -0.2622  0.3728  0.8411
  1584G12c C00A29233   6.035  11.514   2.103  0.9648  0.7069  0.3868
  1584G12c C00929234   5.919  11.546   2.029  0.0229 -1.3640  0.0270
  1584G12c C00829235   5.895  11.553   1.887 -1.4342  0.0248 -0.3791
  1584G12c H01329236   5.957  11.492   1.824 -0.1787  1.4769 -0.5677
  1584G12c C00729237   5.797  11.648   1.845  0.8432 -1.0282 -0.3350
  1584G12c H01429238   5.761  11.658   1.743 -2.2625  2.6963  0.9765
  1584G12c C00629239   5.723  11.732   1.934 -0.3851  0.3225 -0.5423
  1584G12c C00529240   5.767  11.733   2.062 -0.3344  0.3818  0.6539
  1584G12c C00429241   5.742  11.850   2.144  0.8667 -0.5096 -0.1930
  1584G12c C00329242   5.800  11.854   2.264 -1.1015  0.1176 -1.1753
  1584G12c C00229243   5.769  11.975   2.332  0.3761 -1.5852  0.0038
  1584G12c C00129244   5.806  12.024   2.472 -1.4567 -0.2272  1.7407
  1584G12c C00M29245   5.951  12.035   2.499 -0.8153 -0.9570 -0.0413
  1584G12c C00L29246   6.041  11.938   2.466  1.4966  0.6612 -0.1201
  1584G12c C00R29247   6.187  11.944   2.458 -0.3367  1.1322  0.3919
  1584G12c C00Q29248   6.278  12.055   2.460 -0.5754  0.0935 -0.7348
  1584G12c C00V29249   6.414  12.002   2.452 -1.1836 -0.1798  2.1935
  1584G12c C00U29250   6.443  11.877   2.391  0.4813 -0.1203  0.4740
  1584G12c C00T29251   6.348  11.781   2.382  0.4138  2.5820  0.5065
  1584G12c C01629252   6.360  11.649   2.308  0.4664  0.4816 -0.8224
  1584G12c C01529253   6.478  11.627   2.265 -0.3502  0.4280 -0.3529
  1584G12c C01029254   6.591  11.704   2.330  0.4350 -1.1330  1.3762
  1584G12c C01129255   6.705  11.636   2.330  0.2935 -1.4015  1.1659
  1584G12c H00529256   6.788  11.678   2.385  2.9372 -2.0253 -2.2011
  1584G12c C01229257   6.733  11.506   2.256  0.9032 -0.7181  0.9948
  1584G12c C01729258   6.867  11.472   2.284  1.2901  1.2577 -1.0457
  1584G12c O00229259   6.959  11.490   2.192 -0.1542 -1.2912  1.7543
  1584G12c H00429260   7.029  11.451   2.241  5.4089  2.7776 -2.3683
  1584G12c C01829261   6.888  11.376   2.388 -0.2745  0.1066  1.1884
  1584G12c O00129262   6.801  11.339   2.492 -0.9662  0.3695  1.4394
  1584G12c H00329263   6.731  11.401   2.474  1.0985  3.1173  2.5629
  1584G12c C01929264   7.033  11.304   2.409  0.4980  0.1692 -1.0424
  1584G12c H00229265   7.069  11.282   2.509 -0.7449  1.3686 -0.3110
  1584G12c H00129266   7.034  11.203   2.369 -0.1334 -1.3198  2.5789
  1584G12c O00029267   7.147  11.386   2.352 -0.6093  1.0479 -0.6036
  1584G12c C01A29268   7.271  11.348   2.342  0.0588  0.0692  0.2487
  1584G12c C02K29269   7.310  11.263   2.241 -1.5039 -1.8320 -0.5816
  1584G12c O00G29270   7.221  11.236   2.145  0.0477 -0.3680  0.2856
  1584G12c C02M29271   7.267  11.210   2.005 -1.2377  0.5165 -0.0419
  1584G12c H01G29272   7.172  11.158   1.996  0.5216 -3.1276  1.5925
  1584G12c H01F29273   7.346  11.136   2.007 -4.5587 -3.4463 -4.3267
  1584G12c H01E29274   7.284  11.300   1.946  1.1760 -2.1934 -3.7033
  1584G12c C02J29275   7.451  11.238   2.235 -0.3851  0.8995  0.2426
  1584G12c H01H29276   7.495  11.179   2.156  1.8712 -6.4425  6.5162
  1584G12c C02I29277   7.522  11.252   2.356  0.6251 -0.2596  1.1489
  1584G12c C02N29278   7.654  11.205   2.394  0.3965  0.6968 -1.0096
  1584G12c H01M29279   7.681  11.156   2.487  1.2919  4.4476  0.7987
  1584G12c C02O29280   7.763  11.211   2.321  1.5173  0.1818 -0.9928
  1584G12c H01L29281   7.748  11.260   2.226 -4.8852 -1.8550 -1.2820
  1584G12c C02P29282   7.900  11.129   2.349 -1.8603 -1.1006  1.4543
  1584G12c H01K29283   7.980  11.176   2.291 -0.9578  0.0537  3.5616
  1584G12c H01J29284   7.924  11.113   2.454 -2.8682  0.3062  1.9157
  1584G12c O00H29285   7.855  10.990   2.325  0.6832  1.4693  0.1365
  1584G12c H01I29286   7.890  10.985   2.238  0.6598  0.3437  0.1822
  1584G12c C02H29287   7.458  11.317   2.463 -0.3234  1.1325  1.2928
  1584G12c H01C29288   7.511  11.349   2.552 -4.4596  1.0000  3.9215
  1584G12c C02L29289   7.343  11.376   2.457 -1.2034  0.3854 -0.8311
  1584G12c H01D29290   7.300  11.420   2.546 -0.8377  2.9197 -1.8533
  1584G12c C01329291   6.627  11.470   2.160 -0.4464  0.3633  0.6142
  1584G12c H00029292   6.661  11.395   2.091  3.0901  3.0796 -0.7804
  1584G12c C01429293   6.493  11.514   2.189  2.3242  1.1901 -0.1633
  1584G12c C00F29294   6.385  11.441   2.129  0.1060  0.5370  0.0285
  1584G12c C00H29295   6.250  11.596   2.237 -0.2885  0.1019  1.6097
  1584G12c C00I29296   6.120  11.636   2.278 -1.0913  1.1641 -0.6426
  1584G12c C00J29297   6.121  11.744   2.365 -0.1693 -0.1313  0.8748
  1584G12c C00Z29298   6.570  11.828   2.395  0.8556  1.7317 -1.0824
  1584G12c C00Y29299   6.682  11.906   2.436 -0.4472 -0.9823  0.9660
  1584G12c H00629300   6.771  11.857   2.400 -0.4385  2.2816 -3.8296
  1584G12c C00X29301   6.672  12.042   2.471  1.3282 -0.7284 -0.9427
  1584G12c O00329302   6.754  12.154   2.486  1.4883  1.0891  0.3647
  1584G12c C01B29303   6.867  12.146   2.540 -1.0840 -0.2691  0.5748
  1584G12c H00929304   6.959  12.121   2.487  0.7615 -3.1010  4.8171
  1584G12c H00829305   6.858  12.080   2.627 -1.5473 -5.8706 -3.4346
  1584G12c H00729306   6.884  12.245   2.582  2.3224 -1.3374  1.9084
  1584G12c C00W29307   6.526  12.087   2.475  0.4064  0.1230  0.9889
  1584G12c O00429308   6.512  12.221   2.498 -0.6866 -0.3829  0.0659
  1584G12c C01C29309   6.375  12.278   2.470  0.4536  0.2298  1.2369
  1584G12c H00A29310   6.369  12.373   2.418 -6.0344 -2.2624 -3.1763
  1584G12c C00P29311   6.256  12.197   2.457 -0.3858  2.3859  1.4663
  1584G12c C00O29312   6.121  12.245   2.456  0.8836  0.4636 -0.5763
  1584G12c C01D29313   6.120  12.382   2.492  2.4273 -0.4230  0.5115
  1584G12c H00S29314   6.210  12.429   2.528  2.0099  4.3865 -4.2103
  1584G12c C01E29315   5.998  12.453   2.491 -2.4688  0.6145 -0.0973
  1584G12c O00829316   5.995  12.583   2.487 -1.4349 -0.1997 -1.9732
  1584G12c C01V29317   6.012  12.638   2.622 -0.0184  3.0681  0.6928
  1584G12c C01Z29318   5.900  12.634   2.697 -2.1557  0.3879 -0.2724
  1584G12c H00R29319   5.856  12.534   2.703 -2.2719  0.2188 -3.1150
  1584G12c H00Q29320   5.912  12.696   2.786  6.0525  3.2644 -2.9612
  1584G12c O00929321   5.773  12.681   2.634  0.2968  0.9167  0.4709
  1584G12c H00P29322   5.742  12.631   2.560 -3.3803 -1.1350  3.2436
  1584G12c C01W29323   6.105  12.731   2.631  0.2940  1.4019 -0.3200
  1584G12c H00O29324   6.071  12.811   2.695  0.8536 -1.0920  3.2323
  1584G12c C01X29325   6.254  12.704   2.591  0.0382 -1.1457  1.1295
  1584G12c H00N29326   6.308  12.625   2.538  5.0860  2.3675  0.6021
  1584G12c H00M29327   6.303  12.698   2.689  0.9432  0.8967  0.8263
  1584G12c C01Y29328   6.282  12.826   2.500 -0.8280  0.4558  1.3158
  1584G12c C02D29329   6.404  12.892   2.522  0.5836 -0.2705 -0.5363
  1584G12c H01929330   6.450  12.856   2.612  4.2054  0.0435 -2.1653
  1584G12c C02C29331   6.487  12.950   2.427  0.2939 -0.8762 -0.7803
  1584G12c H01A29332   6.591  12.979   2.430 -1.4768  6.6004 -0.1997
  1584G12c C02B29333   6.420  12.970   2.311 -1.8316  0.5203  1.8611
  1584G12c O00E29334   6.481  13.060   2.226 -0.7112 -0.4551  1.2315
  1584G12c H01B29335   6.444  13.068   2.140 -5.5392  4.8900  3.4744
  1584G12c C02F29336   6.315  12.889   2.269 -0.3150  1.0287 -1.3527
  1584G12c O00F29337   6.276  12.922   2.142  0.0318  1.2571  0.2854
  1584G12c C02G29338   6.134  12.943   2.126  1.0608  0.1128 -0.3918
  1584G12c H01729339   6.060  12.867   2.148  0.9889  1.1137  3.1038
  1584G12c H01629340   6.088  13.031   2.172  3.0383 -0.4808  2.8946
  1584G12c H01529341   6.158  12.993   2.032  1.4914 -0.6489 -0.6874
  1584G12c C02E29342   6.252  12.818   2.363  0.0652 -0.3841  0.5536
  1584G12c H01829343   6.160  12.765   2.342 -1.4143  2.0293  0.6909
  1584G12c C01F29344   5.880  12.382   2.460  0.7292 -0.3583 -0.0348
  1584G12c C01G29345   5.779  12.441   2.377  0.0135  0.1826  2.0595
  1584G12c H00L29346   5.776  12.549   2.373 -4.0858  0.3024  5.8668
  1584G12c C01H29347   5.665  12.353   2.339 -0.5455 -1.4327  1.1709
  1584G12c H00B29348   5.602  12.395   2.263 -1.5502 -3.7892  0.6690
  1584G12c C01I29349   5.679  12.206   2.377  0.2118  2.3260  1.1813
  1584G12c C01U29350   5.874  12.242   2.475 -0.0896  0.4371 -0.3869
  1584G12c C00S29351   6.222  11.811   2.430 -1.6884  0.1591  0.1825
  1584G12c C00K29352   6.001  11.799   2.406  0.9426 -0.5097  1.9128
  1584G12c C00N29353   6.000  12.177   2.476  1.4149  1.2158  0.0910
  1584G12c C00029354   5.758  12.154   2.486  1.0317 -1.0206  0.2141
  1584G12c C01J29355   5.669  12.085   2.289  2.2511 -1.6549 -0.7437
  1584G12c C01K29356   5.617  12.083   2.162 -0.8864 -0.8280  1.8300
  1584G12c C01P29357   5.494  12.150   2.112  0.0409 -0.7975 -0.5222
  1584G12c C01Q29358   5.406  12.231   2.203  0.1190  0.7932  0.5468
  1584G12c H00G29359   5.351  12.187   2.285 -3.4967  0.1948 -2.0814
  1584G12c C01R29360   5.351  12.336   2.136  0.7288 -1.6435  0.1462
  1584G12c H00F29361   5.373  12.361   2.034  1.9648 -4.1816 -0.2547
  1584G12c C01S29362   5.268  12.442   2.220 -0.4460  0.5818  1.3693
  1584G12c H00E29363   5.198  12.408   2.296 -0.9171 -1.1069  0.2203
  1584G12c H00D29364   5.351  12.489   2.272  4.3183  2.4376 -7.0189
  1584G12c O00529365   5.223  12.557   2.140 -1.9432  1.9421 -0.6177
  1584G12c H00C29366   5.295  12.611   2.169 -0.2354 -0.9293  0.6973
  1584G12c C01O29367   5.487  12.141   1.972  0.4193 -0.6499 -0.4678
  1584G12c H00H29368   5.423  12.210   1.920 -2.7580 -2.3766  1.0102
  1584G12c C01N29369   5.565  12.058   1.897 -1.7830 -0.6762  0.1211
  1584G12c O00629370   5.568  12.041   1.756  1.1605  1.1011 -0.1345
  1584G12c C01T29371   5.527  12.157   1.659  0.3204 -0.8070 -1.0475
  1584G12c H00K29372   5.431  12.117   1.625 -0.0158  1.3874 -2.8046
  1584G12c H00J29373   5.505  12.245   1.720  3.4369 -0.3854 -0.4524
  1584G12c H00I29374   5.581  12.195   1.573  1.5454  5.2903  2.1353
  1584G12c C01M29375   5.647  11.958   1.955  0.4946 -0.6800  0.0667
  1584G12c C02029376   5.892  11.762   2.314  1.9419  0.9242 -0.1484
  1584G12c C02129377   5.885  11.638   2.250  2.0032 -1.4280  2.0916
  1584G12c C01L29378   5.658  11.960   2.098 -2.7373 -1.9835  0.6892
  1584G12c O00729379   5.650  11.839   1.881  0.4706 -0.3676 -1.0190
  1584G12c C02229380   5.827  11.628   2.123 -0.6181 -0.5090  1.2286
  1584G12c C02329381   6.012  11.574   2.233  0.3046 -1.2924  1.5698
  1584G12c C00G29382   6.262  11.501   2.137 -0.0804  0.4702 -1.4163
  1584G12c C00E29383   6.399  11.327   2.043  0.0879 -0.6470  0.5704
  1584G12c O00A29384   6.504  11.239   2.034  0.3376 -0.2405  0.8492
  1584G12c C02429385   6.519  11.154   2.145  0.3119 -0.5381  1.1234
  1584G12c H00V29386   6.462  11.061   2.152 -1.8600  0.4557 -2.0385
  1584G12c H00U29387   6.507  11.210   2.237  1.2464 -0.8243  1.4227
  1584G12c H00T29388   6.621  11.116   2.155  1.7007  3.8365  5.1453
  1594G12c C00D29389  11.571  11.590  10.406 -0.4606  0.1767  1.3239
  1594G12c O00B29390  11.652  11.490  10.359 -0.3705  0.3137 -1.3183
  1594G12c C02529391  11.784  11.518  10.311 -0.3725  0.6487 -0.5788
  1594G12c C02629392  11.877  11.612  10.384  0.2127  0.3777  0.4183
  1594G12c H00Y29393  11.852  11.711  10.423  3.7078  1.5510 -0.0958
  1594G12c H00X29394  11.964  11.613  10.318 -1.4821  2.9759 -1.8638
  1594G12c O00C29395  11.937  11.568  10.503 -0.1817 -1.2225  0.5842
  1594G12c H00W29396  12.025  11.567  10.470  0.5756 -1.0395  2.5250
  1594G12c C02729397  11.829  11.464  10.199 -2.0740 -0.7482  1.6455
  1594G12c O00D29398  11.953  11.485  10.142 -0.1951  0.1529  0.5143
  1594G12c H00Z29399  11.933  11.417  10.080 -0.4789 -0.9224  1.7813
  1594G12c C02829400  11.757  11.374  10.124 -0.8933 -2.1934  0.1207
  1594G12c C02929401  11.752  11.229  10.166 -1.5298 -0.9733 -0.4981
  1594G12c H01029402  11.788  11.172  10.249  0.8139  2.3972  0.9321
  1594G12c C02T29403  11.704  11.152  10.058 -1.2291 -0.1084  1.5040
  1594G12c H01O29404  11.703  11.045  10.073 -1.8048 -0.0441  1.9570
  1594G12c C02S29405  11.691  11.213   9.918 -0.2435  0.3360 -1.4319
  1594G12c O00J29406  11.675  11.122   9.822  0.4277  1.4654  0.6713
  1594G12c H01P29407  11.647  11.150   9.736  1.2772 -2.2817 -0.9050
  1594G12c C02R29408  11.689  11.349   9.895  0.2659 -0.1568  0.6675
  1594G12c O00I29409  11.651  11.364   9.761 -0.1741  0.7871 -0.9946
  1594G12c C02Q29410  11.571  11.445   9.690 -0.3700 -1.8096 -0.7094
  1594G12c H01N29411  11.595  11.539   9.640  0.8840 -1.7919 -0.1013
  1594G12c H01R29412  11.484  11.483   9.743  2.1263  3.1568  0.1996
  1594G12c H01Q29413  11.562  11.405   9.589  1.5260  6.3428 -4.5466
  1594G12c C02A29414  11.730  11.431   9.998  0.3713  1.3691 -1.0903
  1594G12c H01129415  11.779  11.526   9.983  0.9459  0.7968 -2.9116
  1594G12c C00C29416  11.607  11.653  10.526 -0.9837  1.3327 -0.9485
  1594G12c H01229417  11.686  11.609  10.584 -2.8942  1.1651  1.6217
  1594G12c C00B29418  11.518  11.768  10.578  1.9261  2.0389 -0.4572
  1594G12c C00A29419  11.545  11.859  10.694  1.0206 -0.8216  0.0156
  1594G12c C00929420  11.621  11.845  10.828 -0.2013  1.9072  0.8599
  1594G12c C00829421  11.712  11.772  10.904  0.9193  0.2443  0.6421
  1594G12c H01329422  11.776  11.698  10.858 -0.3384  1.3731 -3.0859
  1594G12c C00729423  11.711  11.764  11.041 -0.0775  0.5904  0.4973
  1594G12c H01429424  11.772  11.702  11.105 -3.4342  0.4409  3.7374
  1594G12c C00629425  11.627  11.862  11.121 -0.0596  0.9362 -1.9788
  1594G12c C00529426  11.547  11.948  11.049  0.9362  0.0807 -1.4065
  1594G12c C00429427  11.435  12.013  11.107  1.2422  0.5338 -0.5835
  1594G12c C00329428  11.352  12.101  11.028  0.4026 -0.8093 -0.1728
  1594G12c C00229429  11.256  12.180  11.100 -1.9420 -0.9829  0.3468
  1594G12c C00129430  11.178  12.302  11.054  1.7483  0.7394  0.5529
  1594G12c C00M29431  11.077  12.299  10.927 -0.5236  0.5626  1.4287
  1594G12c C00L29432  11.118  12.228  10.816 -0.2661  0.1274 -0.7757
  1594G12c C00R29433  11.036  12.186  10.705  0.1323 -1.1128 -0.2355
  1594G12c C00Q29434  10.902  12.164  10.690 -0.1816 -0.0744 -0.9126
  1594G12c C00V29435  10.866  12.094  10.573 -0.7085  1.1510 -0.5274
  1594G12c C00U29436  10.949  12.008  10.500 -0.1185  0.4119 -0.3977
  1594G12c C00T29437  11.084  12.004  10.535 -0.4104  0.3234 -0.5646
  1594G12c C01629438  11.183  11.904  10.492  0.6978 -0.4141 -0.5488
  1594G12c C01529439  11.151  11.840  10.386  0.7244 -1.0914  0.6675
  1594G12c C01029440  11.029  11.895  10.309 -0.3968  0.9628 -1.6462
  1594G12c C01129441  10.997  11.855  10.184  0.4316  0.4610  0.8772
  1594G12c H00529442  10.911  11.878  10.122 -3.9177 -1.8870  5.6179
  1594G12c C01229443  11.092  11.776  10.118 -0.4135 -0.3477  1.6874
  1594G12c C01729444  11.054  11.722   9.982 -1.2716  0.0243 -0.8184
  1594G12c O00229445  10.970  11.796   9.886 -0.2181 -0.2837 -0.4808
  1594G12c H00429446  10.993  11.774   9.797 -0.2141  0.2766 -0.6199
  1594G12c C01829447  11.059  11.590   9.962 -0.3515 -0.5743 -0.3224
  1594G12c O00129448  11.079  11.486  10.054  0.3765  0.4793 -0.0862
  1594G12c H00329449  11.124  11.522  10.128  2.3817  3.2278 -2.5570
  1594G12c C01929450  11.017  11.513   9.838 -0.0751  1.0707 -1.4391
  1594G12c H00229451  11.074  11.420   9.840 -0.2311  0.9790 -1.2292
  1594G12c H00129452  10.910  11.515   9.855  0.2441 -2.9393  1.6055
  1594G12c O00029453  11.043  11.582   9.724 -0.1937 -1.6034  1.5366
  1594G12c C01A29454  11.013  11.526   9.605  2.1724 -0.7546  0.6650
  1594G12c C02K29455  11.093  11.586   9.501 -0.2771  0.3101 -0.7781
  1594G12c O00G29456  11.191  11.684   9.515  0.2062 -0.7975  0.2941
  1594G12c C02M29457  11.319  11.686   9.466  0.6754  0.4622 -0.8045
  1594G12c H01G29458  11.334  11.584   9.432  1.5402  1.1930 -2.6986
  1594G12c H01F29459  11.368  11.709   9.561  1.9233  0.6685 -1.4874
  1594G12c H01E29460  11.357  11.765   9.401  0.8594  0.8041 -0.2837
  1594G12c C02J29461  11.038  11.558   9.375 -1.0917  2.0114  1.0165
  1594G12c H01H29462  11.087  11.606   9.292 -2.6034  1.9200  0.0463
  1594G12c C02I29463  10.935  11.455   9.353  0.3997 -1.2014  0.4153
  1594G12c C02N29464  10.879  11.467   9.229 -1.2283  0.5583  0.1272
  1594G12c H01M29465  10.909  11.529   9.146 -2.7931  4.8365  2.5699
  1594G12c C02O29466  10.760  11.407   9.196  0.6780  0.8259 -2.6267
  1594G12c H01L29467  10.699  11.392   9.283 -3.4966 -0.0541 -5.5657
  1594G12c C02P29468  10.710  11.438   9.050  2.6648 -0.8777 -2.1890
  1594G12c H01K29469  10.795  11.414   8.986  2.9029 -2.6457 -1.2269
  1594G12c H01J29470  10.620  11.392   9.008  3.4528 -3.5612 -1.0575
  1594G12c O00H29471  10.676  11.564   9.064 -0.8826  0.7402  0.7119
  1594G12c H01I29472  10.707  11.614   8.991 -1.0117  3.8962  2.7291
  1594G12c C02H29473  10.896  11.379   9.465  1.1948 -0.3582  0.0002
  1594G12c H01C29474  10.805  11.323   9.480 -1.7385  4.6133  2.0936
  1594G12c C02L29475  10.938  11.418   9.593 -0.8163  1.0126 -1.3026
  1594G12c H01D29476  10.887  11.376   9.678  0.1625 -0.4382 -1.4138
  1594G12c C01329477  11.216  11.741  10.184 -0.3545 -0.3890  0.0247
  1594G12c H00029478  11.292  11.712  10.113  6.8128  0.7867  6.4862
  1594G12c C01429479  11.239  11.769  10.316 -0.4588  0.9140  0.6231
  1594G12c C00F29480  11.363  11.742  10.380  0.2123  1.3180 -1.4292
  1594G12c C00H29481  11.318  11.904  10.548  0.9408  0.7369 -0.2818
  1594G12c C00I29482  11.352  12.000  10.644 -0.2018 -1.0581 -1.3372
  1594G12c C00J29483  11.244  12.088  10.675 -1.5911 -0.2253  0.2178
  1594G12c C00Z29484  10.925  11.959  10.388  1.0873  1.0999 -0.0637
  1594G12c C00Y29485  10.799  11.975  10.325 -1.4645 -0.1602 -1.5115
  1594G12c H00629486  10.756  11.906  10.253 -7.4360  0.9881  0.6408
  1594G12c C00X29487  10.706  12.064  10.388 -1.0477  0.4912  0.2869
  1594G12c O00329488  10.583  12.090  10.317  0.3617 -0.0310 -0.0621
  1594G12c C01B29489  10.608  12.079  10.168  1.8839  0.1547 -1.2414
  1594G12c H00929490  10.509  12.103  10.127 -0.4273  3.1412  5.4734
  1594G12c H00829491  10.690  12.149  10.155  6.2772 -4.8608 -2.5907
  1594G12c H00729492  10.636  11.977  10.142 -0.8918 -0.1885 -3.1903
  1594G12c C00W29493  10.729  12.123  10.516 -0.1096 -0.3803 -1.3216
  1594G12c O00429494  10.611  12.184  10.604  0.3905 -0.8098  1.3175
  1594G12c C01C29495  10.659  12.222  10.728  0.9631  0.7332  2.2160
  1594G12c H00A29496  10.611  12.313  10.758 -1.5063 -0.1805  1.1793
  1594G12c C00P29497  10.796  12.218  10.773 -0.3226  0.8527  0.4621
  1594G12c C00O29498  10.822  12.278  10.905  1.9250 -0.3403 -0.3289
  1594G12c C01D29499  10.706  12.283  10.994 -0.6839  1.8706  0.5680
  1594G12c H00S29500  10.611  12.233  10.985 -1.5169  3.7962 -2.1383
  1594G12c C01E29501  10.707  12.304  11.131 -0.0054 -0.4798 -0.7889
  1594G12c O00829502  10.574  12.311  11.183 -0.0975  0.0303 -0.2790
  1594G12c C01V29503  10.542  12.406  11.284 -0.1451  0.9481  0.4701
  1594G12c C01Z29504  10.410  12.421  11.324  0.7704 -0.7731 -1.0431
  1594G12c H00R29505  10.369  12.520  11.305  1.3927 -0.1905  0.5633
  1594G12c H00Q29506  10.343  12.362  11.262 -0.4969 -2.2437  1.6483
  1594G12c O00929507  10.412  12.393  11.456  2.0314  0.4514 -0.4843
  1594G12c H00P29508  10.505  12.407  11.465  1.5677  3.0424  0.8962
  1594G12c C01W29509  10.640  12.500  11.313  1.3494 -0.5979  0.7993
  1594G12c H00O29510  10.736  12.499  11.263  0.4147  6.9429 -1.8422
  1594G12c C01X29511  10.649  12.587  11.431  1.2663  0.4420 -2.0766
  1594G12c H00N29512  10.557  12.594  11.490  5.2134  1.1544  4.4406
  1594G12c H00M29513  10.714  12.534  11.500 -6.4798 -3.8257  2.7509
  1594G12c C01Y29514  10.696  12.715  11.397  0.8405 -0.4463  0.0290
  1594G12c C02D29515  10.602  12.818  11.373 -1.4065 -1.4988 -1.0124
  1594G12c H01929516  10.499  12.801  11.401 -1.7878 -4.2056 -3.7866
  1594G12c C02C29517  10.656  12.952  11.329  0.0920  0.9792  0.8187
  1594G12c H01A29518  10.608  13.035  11.381  4.8822  3.0534  2.2136
  1594G12c C02B29519  10.788  12.943  11.277  0.0712  1.2198 -0.9271
  1594G12c O00E29520  10.831  13.063  11.212  0.3605 -0.4831 -0.4527
  1594G12c H01B29521  10.819  13.148  11.250  3.8604  1.1048 -2.6550
  1594G12c C02F29522  10.880  12.840  11.319  1.4130  0.4726 -0.6358
  1594G12c O00F29523  10.998  12.843  11.244 -1.3022  0.2334 -1.3342
  1594G12c C02G29524  10.991  12.813  11.107  0.5265 -0.1570  0.7431
  1594G12c H01729525  11.085  12.813  11.052  1.3784 -3.5418  2.0810
  1594G12c H01629526  10.923  12.897  11.089  5.0856  3.4174 -0.7162
  1594G12c H01529527  10.941  12.717  11.092 -3.9115  1.9397  1.2460
  1594G12c C02E29528  10.832  12.724  11.398 -0.2051  0.1421 -0.1427
  1594G12c H01829529  10.886  12.663  11.469 -0.9655 -0.9090 -0.4656
  1594G12c C01F29530  10.843  12.300  11.195 -0.2202  1.3028  1.1317
  1594G12c C01G29531  10.875  12.229  11.314  3.3350 -0.5001  0.5118
  1594G12c H00L29532  10.826  12.196  11.405  7.0378 -1.4942  2.2347
  1594G12c C01H29533  11.005  12.179  11.350  0.5984 -0.9193  2.8755
  1594G12c H00B29534  11.014  12.100  11.423  2.0930 -1.5766  2.0075
  1594G12c C01I29535  11.105  12.208  11.253 -0.4427  1.1834  0.1970
  1594G12c C01U29536  10.952  12.336  11.110 -1.4298  0.4808  1.3302
  1594G12c C00S29537  11.124  12.107  10.618  1.7531  0.6820 -0.1668
  1594G12c C00K29538  11.242  12.146  10.804 -1.3974 -1.3966 -0.7523
  1594G12c C00N29539  10.953  12.312  10.971 -0.6001 -2.2972  0.8221
  1594G12c C00029540  11.085  12.308  11.161 -0.7975  0.0489 -1.3895
  1594G12c C01J29541  11.227  12.147  11.231 -1.1613  0.8764  0.9060
  1594G12c C01K29542  11.292  12.044  11.297 -1.6924 -1.1775 -0.5051
  1594G12c C01P29543  11.296  12.023  11.432  0.2435  0.2753 -0.7177
  1594G12c C01Q29544  11.243  12.123  11.525  1.4735 -0.1434 -0.9943
  1594G12c H00G29545  11.201  12.220  11.506 -5.3412 -3.3205 -4.1422
  1594G12c C01R29546  11.221  12.108  11.658  0.1047  1.4296  0.0324
  1594G12c H00F29547  11.236  12.015  11.710  1.4018  1.7645  0.2736
  1594G12c C01S29548  11.125  12.195  11.731  0.4434  1.5386  2.0054
  1594G12c H00E29549  11.135  12.302  11.719  1.6399  0.9618 -3.5057
  1594G12c H00D29550  11.023  12.165  11.705  2.0477  0.8743 -4.4483
  1594G12c O00529551  11.190  12.168  11.863  1.0106  0.5814 -0.6115
  1594G12c H00C29552  11.268  12.218  11.881  4.0779 -2.7298 -3.7850
  1594G12c C01O29553  11.390  11.944  11.504  0.4728 -1.3192  0.3553
  1594G12c H00H29554  11.407  11.944  11.611 -4.8992 -3.4869  1.3868
  1594G12c C01N29555  11.505  11.893  11.454  0.1728  0.5081  0.6136
  1594G12c O00629556  11.577  11.827  11.553 -0.7977 -0.0509 -0.2986
  1594G12c C01T29557  11.511  11.753  11.661  2.3422  0.2824 -1.2317
  1594G12c H00K29558  11.554  11.652  11.660 -2.1205 -1.8024 -4.2891
  1594G12c H00J29559  11.403  11.746  11.655  2.0530 -1.0832  3.8951
  1594G12c H00I29560  11.491  11.807  11.753 -0.3772 -3.9033  0.7955
  1594G12c C01M29561  11.522  11.926  11.318 -0.2475 -2.6078 -0.6518
  1594G12c C02029562  11.349  12.097  10.886  0.8688  0.1001 -0.9490
  1594G12c C02129563  11.464  12.032  10.837 -0.5424  1.4723  0.4003
  1594G12c C01L29564  11.417  11.990  11.237  0.9613 -2.1223 -1.3885
  1594G12c O00729565  11.612  11.854  11.254  0.6994  1.1502  0.3970
  1594G12c C02229566  11.555  11.953  10.901 -0.9272 -1.8385 -0.6164
  1594G12c C02329567  11.460  11.974  10.722 -1.6509  0.5995  1.2867
  1594G12c C00G29568  11.396  11.800  10.505 -0.1394 -1.5976  0.9378
  1594G12c C00E29569  11.466  11.650  10.324 -0.0632  1.2780  0.9387
  1594G12c O00A29570  11.440  11.607  10.201 -1.2775  1.0841  1.1874
  1594G12c C02429571  11.428  11.470  10.191  0.5156 -1.0841  0.5895
  1594G12c H00V29572  11.343  11.455  10.124  1.8500  0.6752 -1.5848
  1594G12c H00U29573  11.405  11.430  10.289  2.7457 -2.3874  0.6000
  1594G12c H00T29574  11.474  11.389  10.134  2.8947  1.6925 -1.5934
  1604G12c C00D29575   9.462   7.378   4.723  0.5326 -0.0226  0.7047
  1604G12c O00B29576   9.425   7.475   4.639 -0.0047 -0.8307 -0.0056
  1604G12c C02529577   9.374   7.451   4.516 -0.6381 -0.6439 -1.5575
  1604G12c C02629578   9.495   7.451   4.414 -0.7837 -0.8706  0.2800
  1604G12c H00Y29579   9.454   7.422   4.317 -2.8343  2.4702  0.0501
  1604G12c H00X29580   9.575   7.387   4.449 -1.1198  0.3411  3.4292
  1604G12c O00C29581   9.534   7.589   4.430 -1.9283  0.2245  1.1916
  1604G12c H00W29582   9.494   7.637   4.501 -0.9538  1.7092  0.7329
  1604G12c C02729583   9.249   7.435   4.483 -0.0990  0.3555 -0.5001
  1604G12c O00D29584   9.154   7.459   4.591  1.3112 -0.0728  1.9245
  1604G12c H00Z29585   9.088   7.517   4.555  3.2160  0.5760 -0.6682
  1604G12c C02829586   9.207   7.468   4.343 -1.3904  0.8293 -0.3274
  1604G12c C02929587   9.206   7.599   4.302 -1.6104  0.3268  1.7253
  1604G12c H01029588   9.190   7.676   4.376  1.2467  1.8368  0.8815
  1604G12c C02T29589   9.192   7.619   4.163 -0.6547  0.5123  0.3784
  1604G12c H01O29590   9.188   7.723   4.136 -1.5817  0.2858 -0.3960
  1604G12c C02S29591   9.204   7.506   4.071 -0.5665 -0.4475 -0.2229
  1604G12c O00J29592   9.186   7.541   3.944  0.4667  0.9403 -0.0192
  1604G12c H01P29593   9.198   7.475   3.877 -1.8216  2.7300 -2.2869
  1604G12c C02R29594   9.228   7.375   4.114  0.0779  0.4278  0.2113
  1604G12c O00I29595   9.239   7.291   4.011  1.8217 -0.4511 -0.3143
  1604G12c C02Q29596   9.219   7.153   4.037  0.1641  0.0660  1.6038
  1604G12c H01N29597   9.227   7.066   3.972 -4.8603  2.1440 -2.1092
  1604G12c H01R29598   9.114   7.142   4.066 -1.4072  5.6712 -1.2428
  1604G12c H01Q29599   9.296   7.126   4.109  3.9730  3.3067 -1.0379
  1604G12c C02A29600   9.224   7.351   4.253  0.0375  1.3623  1.6335
  1604G12c H01129601   9.214   7.251   4.291 -5.5960 -0.8258 -4.5307
  1604G12c C00C29602   9.529   7.263   4.688 -0.2639 -1.3219  0.1657
  1604G12c H01229603   9.505   7.236   4.587 -3.1294  2.8597 -0.3828
  1604G12c C00B29604   9.586   7.163   4.776 -1.2001  0.9626  2.2926
  1604G12c C00A29605   9.664   7.037   4.758 -1.4590  0.0703 -0.9772
  1604G12c C00929606   9.644   6.945   4.641 -0.8280 -0.3901 -0.6311
  1604G12c C00829607   9.532   6.934   4.545 -0.6034 -0.7078 -0.2460
  1604G12c H01329608   9.457   7.008   4.521 -4.9247 -4.5384  0.6939
  1604G12c C00729609   9.478   6.804   4.519  0.6118  0.2063  0.2962
  1604G12c H01429610   9.387   6.799   4.462  1.4974 -6.5568 -0.9412
  1604G12c C00629611   9.534   6.685   4.582 -0.4404 -1.0192  0.7508
  1604G12c C00529612   9.614   6.706   4.693  1.0104  1.6558  0.1890
  1604G12c C00429613   9.649   6.597   4.779 -0.1753  0.9444  0.4187
  1604G12c C00329614   9.727   6.622   4.900  2.6463 -1.0004  0.5480
  1604G12c C00229615   9.747   6.505   4.990  0.7687 -1.0594 -1.1984
  1604G12c C00129616   9.795   6.492   5.126  0.2039 -1.7183  0.1439
  1604G12c C00M29617   9.773   6.592   5.222 -0.3867 -0.1255  0.4131
  1604G12c C00L29618   9.801   6.726   5.203 -0.5630 -1.6233 -0.6152
  1604G12c C00R29619   9.738   6.817   5.287  0.6772 -1.6043  1.4369
  1604G12c C00Q29620   9.702   6.819   5.420 -0.9275 -0.0955  1.9503
  1604G12c C00V29621   9.643   6.944   5.454  0.9018 -0.7387  0.1927
  1604G12c C00U29622   9.609   7.056   5.372  0.7168  0.3136  0.6772
  1604G12c C00T29623   9.658   7.056   5.247 -0.5397  0.1552  0.9707
  1604G12c C01629624   9.630   7.150   5.157  0.0299 -0.9763  0.9039
  1604G12c C01529625   9.550   7.259   5.195 -0.2341  1.7586 -0.1365
  1604G12c C01029626   9.524   7.280   5.333 -0.4288  0.6955 -0.9737
  1604G12c C01129627   9.457   7.393   5.378  0.6648 -0.7387  0.0129
  1604G12c H00529628   9.431   7.404   5.482 -5.5721 -4.6594 -0.8374
  1604G12c C01229629   9.369   7.453   5.286 -0.2090  0.1037  0.7954
  1604G12c C01729630   9.287   7.563   5.324  0.8622 -2.0044 -0.2615
  1604G12c O00229631   9.155   7.534   5.360  1.4946  0.4329  0.0796
  1604G12c H00429632   9.111   7.614   5.335 -2.3703 -2.4159 -2.9523
  1604G12c C01829633   9.332   7.695   5.331  0.7744  1.3653 -0.5037
  1604G12c O00129634   9.255   7.800   5.367  0.1168 -0.7392  0.0193
  1604G12c H00329635   9.314   7.848   5.312 -0.9943  4.9795  3.3682
  1604G12c C01929636   9.466   7.751   5.294  0.3110  1.1161 -0.0859
  1604G12c H00229637   9.509   7.772   5.392  1.5575  2.6811 -0.9424
  1604G12c H00129638   9.541   7.674   5.276  0.1965  0.7781  0.8682
  1604G12c O00029639   9.451   7.871   5.220  0.7132 -0.7794  0.6534
  1604G12c C01A29640   9.569   7.934   5.187  0.1687 -1.0949 -1.9845
  1604G12c C02K29641   9.596   7.992   5.059  0.1998  3.2687 -0.8440
  1604G12c O00G29642   9.503   8.012   4.957 -1.2215  0.8135 -0.8899
  1604G12c C02M29643   9.374   8.073   5.039 -0.9261  0.1554 -0.9750
  1604G12c H01G29644   9.330   8.172   5.022  1.4524  1.8073  2.1358
  1604G12c H01F29645   9.379   8.110   5.141 -2.5017 -0.1532 -0.7712
  1604G12c H01E29646   9.305   7.989   5.053 -2.4219  2.0403  3.9473
  1604G12c C02J29647   9.723   8.063   5.026  1.7111 -1.7452 -1.4290
  1604G12c H01H29648   9.734   8.089   4.922  3.0964  2.7003 -0.3000
  1604G12c C02I29649   9.802   8.104   5.126 -0.5474  0.9957 -0.4112
  1604G12c C02N29650   9.917   8.170   5.077  0.1980 -0.8641 -0.2307
  1604G12c H01M29651  10.024   8.155   5.068  0.3439  1.5578 -3.3497
  1604G12c C02O29652   9.893   8.307   5.072  0.0959 -0.5949  1.3076
  1604G12c H01L29653   9.798   8.358   5.076  1.9007  2.7572  6.3285
  1604G12c C02P29654  10.017   8.404   5.058  0.7869 -0.4140  1.3736
  1604G12c H01K29655  10.103   8.337   5.053  2.1006  1.3604 -1.4205
  1604G12c H01J29656  10.024   8.481   4.981 -8.1394  0.0088  0.4983
  1604G12c O00H29657  10.046   8.462   5.179 -0.5633  0.4728  0.6517
  1604G12c H01I29658  10.119   8.515   5.150 -0.9966  0.5885 -0.2195
  1604G12c C02H29659   9.764   8.050   5.254 -2.1500  0.1691 -1.0359
  1604G12c H01C29660   9.805   8.092   5.345  3.8175  1.4569 -4.0280
  1604G12c C02L29661   9.662   7.966   5.291  0.9521  0.1392  1.6131
  1604G12c H01D29662   9.637   7.981   5.395  0.1538  1.5188  1.2385
  1604G12c C01329663   9.381   7.418   5.150 -1.3369 -0.1367 -0.7989
  1604G12c H00029664   9.322   7.484   5.087 -1.0487  0.0144 -0.9112
  1604G12c C01429665   9.476   7.327   5.098  0.1594 -0.5227 -0.0788
  1604G12c C00F29666   9.500   7.308   4.966 -1.7419 -0.4075 -0.2188
  1604G12c C00H29667   9.642   7.126   5.019  0.8078 -1.3639 -0.6887
  1604G12c C00I29668   9.719   7.009   4.996 -1.1251 -1.1081  0.2185
  1604G12c C00J29669   9.766   6.920   5.104 -0.0320 -0.3622  1.7284
  1604G12c C00Z29670   9.547   7.173   5.416  0.3035  1.2420  1.1974
  1604G12c C00Y29671   9.541   7.183   5.558  0.4474 -0.3213  0.3071
  1604G12c H00629672   9.512   7.268   5.619 -5.1051 -0.1891 -2.2037
  1604G12c C00X29673   9.569   7.073   5.643  0.6038 -0.3219 -0.8382
  1604G12c O00329674   9.568   7.100   5.785 -0.3784  0.7284  0.2111
  1604G12c C01B29675   9.435   7.097   5.839 -0.4780  0.9373  0.5325
  1604G12c H00929676   9.397   6.999   5.867 -3.0013  2.5683  3.1061
  1604G12c H00829677   9.411   7.162   5.923  1.1485 -4.2631  5.2943
  1604G12c H00729678   9.348   7.131   5.782  1.7000  3.6460 -1.3072
  1604G12c C00W29679   9.639   6.962   5.600 -0.9596  0.1956  0.6970
  1604G12c O00429680   9.668   6.855   5.686  0.4957 -0.1794  0.5532
  1604G12c C01C29681   9.628   6.734   5.633  0.4526 -1.1095 -2.5015
  1604G12c H00A29682   9.590   6.654   5.694 -1.6990 -0.0136 -2.3341
  1604G12c C00P29683   9.663   6.700   5.494  0.6071 -1.3960 -0.0430
  1604G12c C00O29684   9.648   6.571   5.443  0.4185 -0.8915  1.6004
  1604G12c C01D29685   9.558   6.481   5.507  0.7521 -0.5587  0.8466
  1604G12c H00S29686   9.502   6.533   5.583  7.2878  4.0464  3.0158
  1604G12c C01E29687   9.548   6.341   5.476 -0.6867 -0.3900 -0.9216
  1604G12c O00829688   9.484   6.250   5.556 -0.5484  1.1320 -1.8353
  1604G12c C01V29689   9.387   6.160   5.516 -0.6182 -0.9585  0.3951
  1604G12c C01Z29690   9.400   6.017   5.570  0.7170 -1.6352 -0.0568
  1604G12c H00R29691   9.325   5.946   5.536 -2.9562  1.7119  0.6637
  1604G12c H00Q29692   9.505   5.999   5.548  1.5301 -1.6722  3.6299
  1604G12c O00929693   9.418   5.987   5.708 -0.5753 -0.1034  1.1819
  1604G12c H00P29694   9.495   5.937   5.728 -6.3122 -8.7754  4.9899
  1604G12c C01W29695   9.280   6.213   5.462  0.7745 -0.5547 -0.3940
  1604G12c H00O29696   9.271   6.321   5.460 -5.3727 -0.8878 -5.2831
  1604G12c C01X29697   9.143   6.145   5.437 -1.2417 -1.2342 -2.3404
  1604G12c H00N29698   9.101   6.108   5.531  1.3535 -3.7279 -2.0831
  1604G12c H00M29699   9.083   6.235   5.445  2.9811  1.4371  3.8992
  1604G12c C01Y29700   9.129   6.077   5.291  0.3229 -0.4942  0.5805
  1604G12c C02D29701   9.189   6.140   5.174  0.5057  0.0532 -1.0690
  1604G12c H01929702   9.240   6.234   5.164  0.6353  0.2680  1.2086
  1604G12c C02C29703   9.169   6.076   5.057 -0.2084 -0.2685 -0.4076
  1604G12c H01A29704   9.184   6.137   4.968  3.3041  0.9205  0.9126
  1604G12c C02B29705   9.090   5.963   5.046  2.1119  0.9153  0.2882
  1604G12c O00E29706   9.059   5.918   4.924  0.1958 -0.4325  0.3971
  1604G12c H01B29707   9.020   5.836   4.952 -2.7933  1.9503  3.5439
  1604G12c C02F29708   9.033   5.903   5.164  0.8046  1.1171 -1.8632
  1604G12c O00F29709   8.995   5.766   5.168 -0.7735  0.8280  0.1174
  1604G12c C02G29710   8.960   5.694   5.279 -0.8787  0.8507 -1.1300
  1604G12c H01729711   9.024   5.661   5.360 -1.9242  1.7666  0.0953
  1604G12c H01629712   8.864   5.742   5.300 -1.4966  0.9053 -3.8778
  1604G12c H01529713   8.942   5.588   5.260 -1.4268  1.4571 -4.2724
  1604G12c C02E29714   9.035   5.972   5.270  0.8760 -0.3655 -0.2528
  1604G12c H01829715   8.981   5.929   5.353  2.3658 -1.6564  0.0677
  1604G12c C01F29716   9.586   6.310   5.344 -0.9987 -1.2526  0.6016
  1604G12c C01G29717   9.516   6.231   5.251 -0.8250  0.4513 -0.7156
  1604G12c H00L29718   9.441   6.155   5.267  1.3506 -2.1453 -2.3974
  1604G12c C01H29719   9.545   6.235   5.123  0.0578 -0.1902  0.4590
  1604G12c H00B29720   9.460   6.211   5.061  2.0966 -3.5001 -1.2151
  1604G12c C01I29721   9.654   6.311   5.083 -0.3190  0.6057  0.9933
  1604G12c C01U29722   9.706   6.384   5.288 -0.6285  0.6721  1.9678
  1604G12c C00S29723   9.710   6.932   5.218 -1.1374  0.3129 -1.6565
  1604G12c C00K29724   9.808   6.791   5.078  0.5196  0.5611 -0.5667
  1604G12c C00N29725   9.715   6.524   5.325  1.4695  1.8836  0.8881
  1604G12c C00029726   9.763   6.361   5.166 -0.9917 -1.4088 -0.1094
  1604G12c C01J29727   9.676   6.383   4.950 -0.0531 -0.4588 -0.8826
  1604G12c C01K29728   9.598   6.360   4.828  0.7114 -1.0571  0.8596
  1604G12c C01P29729   9.536   6.241   4.786 -0.1082  0.0408  0.0476
  1604G12c C01Q29730   9.586   6.118   4.831 -0.0169 -0.0914 -0.6007
  1604G12c H00G29731   9.617   6.102   4.933  3.9854  0.6409 -1.6027
  1604G12c C01R29732   9.575   6.011   4.760 -1.3836  0.2789 -2.1137
  1604G12c H00F29733   9.519   6.015   4.668 -1.0250 -0.4322 -2.3644
  1604G12c C01S29734   9.598   5.869   4.829  0.2839  0.2063 -0.3492
  1604G12c H00E29735   9.541   5.865   4.922 -0.7101  0.6381 -0.9319
  1604G12c H00D29736   9.538   5.813   4.758 -1.3298 -0.8882  1.8254
  1604G12c O00529737   9.739   5.853   4.853  1.7101 -0.1197 -0.0705
  1604G12c H00C29738   9.788   5.933   4.867 -2.3016  3.0543 -2.9828
  1604G12c C01O29739   9.441   6.248   4.682 -0.3668  0.2798  0.4943
  1604G12c H00H29740   9.391   6.158   4.652  0.3709 -0.0073  0.1167
  1604G12c C01N29741   9.454   6.356   4.594  1.8270  0.2663 -0.8240
  1604G12c O00629742   9.392   6.360   4.471 -0.0277  0.2940  0.1151
  1604G12c C01T29743   9.493   6.333   4.371  0.2893  0.3672 -0.3912
  1604G12c H00K29744   9.464   6.315   4.268  4.5554  8.8400 -3.4956
  1604G12c H00J29745   9.556   6.258   4.420  1.2451  0.8790 -0.8375
  1604G12c H00I29746   9.566   6.414   4.368 -0.4862  1.0046 -2.5863
  1604G12c C01M29747   9.485   6.484   4.640 -0.6778  0.8285 -1.1671
  1604G12c C02029748   9.762   6.749   4.943 -0.5812  0.4245 -0.0348
  1604G12c C02129749   9.765   6.842   4.832 -0.0321 -0.3639 -0.6521
  1604G12c C01L29750   9.580   6.477   4.754 -0.4478 -0.3513 -0.6943
  1604G12c O00729751   9.455   6.594   4.558  0.0924  1.0018 -0.6776
  1604G12c C02229752   9.685   6.821   4.715 -0.3308 -1.3866 -0.2006
  1604G12c C02329753   9.744   6.981   4.860 -0.6855  1.0660  0.4755
  1604G12c C00G29754   9.585   7.205   4.920  0.2859 -0.7074  0.3349
  1604G12c C00E29755   9.452   7.395   4.864 -1.1237 -0.0545  0.0850
  1604G12c O00A29756   9.424   7.535   4.895  0.8757  0.3999  1.9487
  1604G12c C02429757   9.286   7.587   4.870  0.1152  0.5638 -0.9066
  1604G12c H00V29758   9.290   7.678   4.809 -2.1423 -3.0237 -6.8368
  1604G12c H00U29759   9.236   7.515   4.806  6.7475 -2.2184 -3.4729
  1604G12c H00T29760   9.209   7.570   4.944  1.7629  6.0015  2.3283
  1614G12c C00D29761  11.234   2.860  11.217 -0.8844 -0.4754 -3.0171
  1614G12c O00B29762  11.120   2.906  11.284 -0.8062 -1.0567  0.5181
  1614G12c C02529763  11.096   2.889  11.425 -1.2983  0.0895 -1.0755
  1614G12c C02629764  10.989   2.781  11.444 -1.1749 -0.5678 -0.0971
  1614G12c H00Y29765  11.028   2.704  11.512 -1.0959  1.0585  1.7415
  1614G12c H00X29766  10.933   2.736  11.362  2.0967 -0.3355 -2.5675
  1614G12c O00C29767  10.894   2.812  11.530 -1.5739 -0.6332 -0.3164
  1614G12c H00W29768  10.936   2.870  11.592  2.0235 -3.9829  0.5883
  1614G12c C02729769  11.164   2.977  11.517 -0.7382  0.9145 -2.1112
  1614G12c O00D29770  11.226   3.090  11.474 -0.0787  0.0099 -0.6086
  1614G12c H00Z29771  11.279   3.144  11.531 -3.3926  1.9812  0.7482
  1614G12c C02829772  11.104   2.980  11.644 -0.0090  1.5084  0.6051
  1614G12c C02929773  11.160   2.893  11.740 -0.0133 -1.0092  0.0283
  1614G12c H01029774  11.203   2.795  11.723  3.1981  0.4168 -0.3484
  1614G12c C02T29775  11.130   2.898  11.866  0.4502 -0.5554 -1.4773
  1614G12c H01O29776  11.158   2.845  11.955  4.0481  3.8679  0.1904
  1614G12c C02S29777  11.013   2.979  11.895 -0.8839  0.0069 -1.7046
  1614G12c O00J29778  10.947   2.969  12.009  0.4051 -1.4062  0.5404
  1614G12c H01P29779  10.887   3.042  12.000  0.9126 -0.6433  2.9855
  1614G12c C02R29780  10.965   3.066  11.809 -0.0338  0.4628  2.3308
  1614G12c O00I29781  10.868   3.160  11.854 -0.8293 -0.4248  0.1073
  1614G12c C02Q29782  10.750   3.173  11.778  0.4054  1.3399  1.0190
  1614G12c H01N29783  10.664   3.204  11.838 -2.6570 -3.1080 -0.7796
  1614G12c H01R29784  10.719   3.095  11.709  1.5342  6.5399 -5.8087
  1614G12c H01Q29785  10.752   3.262  11.716 -4.0520  5.9018  6.7792
  1614G12c C02A29786  10.995   3.065  11.665  0.6084  0.4086 -1.0306
  1614G12c H01129787  10.945   3.133  11.597  1.8458 -2.3968 -4.9617
  1614G12c C00C29788  11.351   2.844  11.287 -0.1890  0.4923  0.0462
  1614G12c H01229789  11.360   2.899  11.380  3.3766  3.5604 -1.9512
  1614G12c C00B29790  11.467   2.784  11.251 -2.5307  1.7585  1.7469
  1614G12c C00A29791  11.594   2.759  11.314 -0.7091  0.7833  0.7966
  1614G12c C00929792  11.663   2.856  11.401  0.1154  1.6850 -2.0726
  1614G12c C00829793  11.641   2.997  11.407 -1.5413  1.4634  0.9467
  1614G12c H01329794  11.547   3.042  11.377 -2.7025  0.0932  2.4610
  1614G12c C00729795  11.743   3.077  11.438  0.3138  0.0275  0.2364
  1614G12c H01429796  11.718   3.176  11.473  0.9965  0.1918  0.2801
  1614G12c C00629797  11.891   3.031  11.444  0.2508 -1.5909 -0.6854
  1614G12c C00529798  11.899   2.898  11.407  1.1174 -2.0420  0.9825
  1614G12c C00429799  12.038   2.853  11.384  0.6401  0.6264 -2.9942
  1614G12c C00329800  12.052   2.727  11.321  1.9788  1.1753  0.6726
  1614G12c C00229801  12.182   2.653  11.288  0.7041 -0.6018  0.6164
  1614G12c C00129802  12.239   2.561  11.198  1.1021 -0.7168  0.6269
  1614G12c C00M29803  12.171   2.540  11.077  0.6787 -1.1274 -1.0490
  1614G12c C00L29804  12.032   2.507  11.067  0.1643 -2.3235 -0.9103
  1614G12c C00R29805  11.952   2.525  10.949 -0.5875 -0.7789  0.7464
  1614G12c C00Q29806  11.995   2.527  10.800  0.4437 -0.1929  1.1392
  1614G12c C00V29807  11.887   2.569  10.718 -1.7618  0.7440 -0.4116
  1614G12c C00U29808  11.756   2.603  10.754  0.0563 -0.7872  1.4024
  1614G12c C00T29809  11.715   2.588  10.885  0.1993  0.5353 -0.1470
  1614G12c C01629810  11.596   2.634  10.952  0.9509  1.4426 -0.3340
  1614G12c C01529811  11.506   2.687  10.852 -0.6237 -1.0383 -1.2731
  1614G12c C01029812  11.537   2.691  10.715 -1.2144  0.5556 -1.6518
  1614G12c C01129813  11.443   2.740  10.629  0.1528  0.0963  0.0928
  1614G12c H00529814  11.460   2.727  10.524  0.0211  0.9298 -0.0322
  1614G12c C01229815  11.322   2.795  10.660  0.3274  1.2618 -0.1957
  1614G12c C01729816  11.242   2.872  10.576  1.0878  0.5946 -0.8805
  1614G12c O00229817  11.156   2.971  10.637 -0.2218  1.2194 -0.4640
  1614G12c H00429818  11.180   3.057  10.604  2.6902 -0.7292 -3.7823
  1614G12c C01829819  11.214   2.852  10.445 -1.5012 -0.3450  0.7296
  1614G12c O00129820  11.244   2.740  10.373 -0.4259  0.7456  0.0724
  1614G12c H00329821  11.194   2.748  10.293 -1.3379 -2.1252  0.2868
  1614G12c C01929822  11.125   2.926  10.374  0.0517  0.0665 -1.3187
  1614G12c H00229823  11.068   2.863  10.306 -0.6968 -3.5621  2.4564
  1614G12c H00129824  11.040   2.956  10.435  5.5150  4.2050  5.0722
  1614G12c O00029825  11.184   3.018  10.281 -0.1881  0.1484  0.0191
  1614G12c C01A29826  11.149   3.155  10.274  0.0368 -0.4054  0.8076
  1614G12c C02K29827  11.195   3.239  10.171 -0.9202  0.6967 -0.2261
  1614G12c O00G29828  11.247   3.175  10.061  0.6977 -0.4495 -0.0952
  1614G12c C02M29829  11.375   3.141  10.094  0.2033  0.7276  2.0075
  1614G12c H01G29830  11.399   3.097   9.997 -3.5851 -0.0578  1.3457
  1614G12c H01F29831  11.394   3.059  10.164 -1.6508 -0.0673  1.6195
  1614G12c H01E29832  11.453   3.215  10.112  3.7995 -0.5600 -5.9308
  1614G12c C02J29833  11.211   3.378  10.191  1.6088 -0.5697 -0.4914
  1614G12c H01H29834  11.292   3.430  10.142  5.6450 -4.6870  1.3743
  1614G12c C02I29835  11.159   3.433  10.312 -0.5555 -0.9581  0.7356
  1614G12c C02N29836  11.152   3.562  10.341 -0.3104 -0.6277 -2.0421
  1614G12c H01M29837  11.064   3.625  10.341 -0.0265 -0.0081  3.0816
  1614G12c C02O29838  11.267   3.599  10.406 -0.3210 -0.3723 -0.7320
  1614G12c H01L29839  11.330   3.518  10.437 -4.3316 -4.1956 -2.0722
  1614G12c C02P29840  11.292   3.746  10.432 -0.6454  0.4223  0.0558
  1614G12c H01K29841  11.235   3.803  10.359  0.1775  5.9572  3.3979
  1614G12c H01J29842  11.274   3.763  10.539  1.3442 -0.2274  0.5159
  1614G12c O00H29843  11.422   3.767  10.380  0.3637 -0.8816 -1.6838
  1614G12c H01I29844  11.448   3.851  10.416  0.0980 -1.9520  1.0636
  1614G12c C02H29845  11.100   3.357  10.417 -0.1822 -0.3922 -1.8168
  1614G12c H01C29846  11.046   3.402  10.500 -1.8271 -0.0928 -3.0341
  1614G12c C02L29847  11.101   3.214  10.400  0.9025 -0.2439 -0.4000
  1614G12c H01D29848  11.080   3.164  10.494 -3.3315  4.6959  1.5705
  1614G12c C01329849  11.309   2.817  10.805 -0.1081  1.1821 -0.5096
  1614G12c H00029850  11.227   2.874  10.845 -0.2662  1.1090 -0.7246
  1614G12c C01429851  11.387   2.745  10.911  0.0612 -0.8287 -1.8044
  1614G12c C00F29852  11.353   2.744  11.044  2.1359  0.0502  0.2808
  1614G12c C00H29853  11.588   2.663  11.074  0.2010 -0.3433  0.5132
  1614G12c C00I29854  11.707   2.641  11.147 -0.3281 -0.0081  0.7291
  1614G12c C00J29855  11.810   2.560  11.102  0.4714  1.1019  1.7463
  1614G12c C00Z29856  11.648   2.646  10.666 -0.9715  0.8352 -1.1134
  1614G12c C00Y29857  11.698   2.641  10.538  0.6757  0.8495 -0.7714
  1614G12c H00629858  11.643   2.698  10.464  0.2321  3.8851  1.7943
  1614G12c C00X29859  11.824   2.601  10.495  0.2844  1.5685  0.2466
  1614G12c O00329860  11.851   2.673  10.380  2.1640  1.1193 -0.6303
  1614G12c C01B29861  11.929   2.783  10.389 -0.8827  0.4483 -0.5782
  1614G12c H00929862  11.882   2.869  10.436 -4.0231 -1.2234 -0.4955
  1614G12c H00829863  11.941   2.844  10.300 -0.1956  3.8988  1.7777
  1614G12c H00729864  12.026   2.789  10.439  0.8510 -3.1327 -3.2951
  1614G12c C00W29865  11.916   2.565  10.581 -0.6507  0.8445 -0.3715
  1614G12c O00429866  12.036   2.531  10.520 -0.0677 -0.0413  1.5681
  1614G12c C01C29867  12.145   2.523  10.606  0.6127 -2.4273  0.8529
  1614G12c H00A29868  12.239   2.519  10.554  1.9393  2.7736  2.5649
  1614G12c C00P29869  12.124   2.522  10.751 -1.5226 -0.1387  0.4005
  1614G12c C00O29870  12.242   2.564  10.824  0.0520  0.2884  0.1730
  1614G12c C01D29871  12.350   2.636  10.749  0.3436 -0.0312  0.9539
  1614G12c H00S29872  12.327   2.660  10.646  2.4518 -1.3726  0.1458
  1614G12c C01E29873  12.465   2.702  10.804  0.4487 -0.1901  3.4866
  1614G12c O00829874  12.528   2.797  10.727 -0.7081  0.4861 -0.0332
  1614G12c C01V29875  12.523   2.923  10.772 -0.6535 -2.0356 -0.8418
  1614G12c C01Z29876  12.655   2.999  10.751 -1.6755 -0.4966 -1.0663
  1614G12c H00R29877  12.621   3.103  10.745 -3.5720 -1.1321 -1.6205
  1614G12c H00Q29878  12.719   2.959  10.830  6.3121  2.7724 -5.2710
  1614G12c O00929879  12.684   2.975  10.619 -0.3044 -1.5069 -0.3340
  1614G12c H00P29880  12.641   2.902  10.576 -2.2805 -0.8389  0.4543
  1614G12c C01W29881  12.404   2.978  10.826 -0.3438 -0.8881 -0.8421
  1614G12c H00O29882  12.313   2.921  10.835 -3.0489  3.7275  3.9387
  1614G12c C01X29883  12.383   3.125  10.887  2.2472 -0.1358 -0.1844
  1614G12c H00N29884  12.360   3.093  10.989  6.6355  4.5781  2.5402
  1614G12c H00M29885  12.480   3.171  10.903 -0.6531  7.6706 -2.8107
  1614G12c C01Y29886  12.283   3.232  10.827 -0.1607 -1.2383 -1.6821
  1614G12c C02D29887  12.317   3.359  10.766 -1.2598 -1.1485 -1.1513
  1614G12c H01929888  12.423   3.382  10.763 -1.4484 -0.3427 -1.7528
  1614G12c C02C29889  12.226   3.419  10.697 -0.4499  0.9654 -0.5145
  1614G12c H01A29890  12.278   3.502  10.650  0.5844 -1.5018 -3.9163
  1614G12c C02B29891  12.095   3.406  10.712  1.6325  0.8309 -0.9695
  1614G12c O00E29892  12.014   3.489  10.635  0.5204 -1.5750 -1.3040
  1614G12c H01B29893  11.943   3.451  10.684  2.7230  0.9407  4.3475
  1614G12c C02F29894  12.048   3.289  10.774 -0.4995  0.2874  1.4347
  1614G12c O00F29895  11.911   3.260  10.771 -0.1911  0.7372 -0.0204
  1614G12c C02G29896  11.842   3.268  10.897 -0.7331 -0.9949 -0.8602
  1614G12c H01729897  11.829   3.188  10.970  3.7496 -1.5819 -0.5530
  1614G12c H01629898  11.739   3.288  10.868 -0.2877  0.5420 -1.4977
  1614G12c H01529899  11.893   3.355  10.939 -8.6303  3.5827  0.3264
  1614G12c C02E29900  12.138   3.210  10.834 -1.1469  0.9176  2.0734
  1614G12c H01829901  12.114   3.122  10.891  4.3064 -2.8403 -0.9747
  1614G12c C01F29902  12.465   2.701  10.950 -0.2935 -0.2541  0.3801
  1614G12c C01G29903  12.535   2.796  11.041 -0.2923 -0.5762  0.0477
  1614G12c H00L29904  12.602   2.877  11.015  3.0796 -3.2418  0.0692
  1614G12c C01H29905  12.475   2.830  11.170  0.3530 -1.1967 -0.0317
  1614G12c H00B29906  12.495   2.920  11.226  0.3061 -2.5437  2.2256
  1614G12c C01I29907  12.400   2.725  11.227  0.5653 -0.3580 -1.0092
  1614G12c C01U29908  12.377   2.621  11.028 -1.2916 -0.0624 -0.0878
  1614G12c C00S29909  11.809   2.511  10.982 -0.5289  0.3101  0.2371
  1614G12c C00K29910  11.941   2.559  11.169 -0.0024  0.2830  0.0168
  1614G12c C00N29911  12.255   2.586  10.970  1.7367  0.2212 -0.1773
  1614G12c C00029912  12.367   2.608  11.179 -0.5774  0.2020  1.1180
  1614G12c C01J29913  12.282   2.752  11.315 -0.0850 -0.3634 -1.5651
  1614G12c C01K29914  12.276   2.882  11.382  2.1736 -1.1516  0.1834
  1614G12c C01P29915  12.391   2.958  11.453  0.4821 -0.5897  1.1095
  1614G12c C01Q29916  12.507   2.873  11.445 -1.0332 -0.5946 -0.0880
  1614G12c H00G29917  12.488   2.768  11.436 -2.6699 -0.7042  3.6573
  1614G12c C01R29918  12.630   2.924  11.414 -0.9185  1.9308 -1.5324
  1614G12c H00F29919  12.636   3.027  11.382 -0.7738  2.3566 -0.1722
  1614G12c C01S29920  12.750   2.829  11.428 -1.3818  0.3982 -0.2334
  1614G12c H00E29921  12.729   2.722  11.436  4.3656 -0.7976  0.7309
  1614G12c H00D29922  12.778   2.840  11.324  2.3483  2.8776  0.9252
  1614G12c O00529923  12.842   2.902  11.495  0.6773  0.2682  1.1172
  1614G12c H00C29924  12.928   2.865  11.481  0.5645 -1.0076  3.4852
  1614G12c C01O29925  12.371   3.077  11.516  0.2845 -0.3069 -0.7852
  1614G12c H00H29926  12.451   3.135  11.558 -2.5163  1.1751  2.7227
  1614G12c C01N29927  12.234   3.129  11.529  2.3467  0.0953 -1.4854
  1614G12c O00629928  12.205   3.258  11.575  1.8273  0.1545  0.8093
  1614G12c C01T29929  12.192   3.263  11.706  1.2804  0.3404 -1.3671
  1614G12c H00K29930  12.085   3.243  11.699  2.2131 -5.1035 -2.2769
  1614G12c H00J29931  12.212   3.361  11.751 -3.3661  0.5760  0.4232
  1614G12c H00I29932  12.251   3.175  11.734 -0.3482 -0.5900 -0.8099
  1614G12c C01M29933  12.120   3.053  11.489  0.3996 -0.1251  1.1224
  1614G12c C02029934  11.936   2.651  11.286 -1.0004  0.1602  0.7119
  1614G12c C02129935  11.813   2.681  11.345 -0.0000  0.7947 -0.2308
  1614G12c C01L29936  12.143   2.929  11.413  0.4682 -1.0539 -0.5658
  1614G12c O00729937  11.989   3.109  11.489  0.7668 -1.2732  1.6317
  1614G12c C02229938  11.797   2.798  11.416 -1.2581 -0.7125  1.2587
  1614G12c C02329939  11.699   2.676  11.272  0.9089  1.1024 -0.1024
  1614G12c C00G29940  11.466   2.725  11.127  1.2543  1.1884  1.3726
  1614G12c C00E29941  11.233   2.804  11.093  0.9150  1.3407 -1.5126
  1614G12c O00A29942  11.112   2.787  11.033 -1.1592 -0.2479  0.2345
  1614G12c C02429943  11.039   2.680  11.079  1.2604 -0.1088  0.1816
  1614G12c H00V29944  11.107   2.610  11.128  0.6415  0.3979  1.8246
  1614G12c H00U29945  10.985   2.659  10.987  0.4153  0.5880  0.5050
  1614G12c H00T29946  10.985   2.741  11.153 -0.4798 -0.0009 -1.1542
  1624G12c C00D29947  11.091   5.273   4.235 -0.2985  0.6146  1.3677
  1624G12c O00B29948  11.127   5.134   4.269  0.4986 -0.8481 -0.2213
  1624G12c C02529949  11.256   5.114   4.264 -0.8644  0.7923 -0.5389
  1624G12c C02629950  11.327   5.125   4.126 -0.0173 -0.5582  1.6702
  1624G12c H00Y29951  11.427   5.158   4.152  2.1518 -3.5476 -2.3493
  1624G12c H00X29952  11.307   5.041   4.059 -2.2023 -0.2044  1.8449
  1624G12c O00C29953  11.286   5.243   4.075  0.3085 -0.2002  0.1323
  1624G12c H00W29954  11.295   5.294   3.996  1.9757  2.1790  1.7856
  1624G12c C02729955  11.308   5.118   4.391  0.2755  1.5746  0.1676
  1624G12c O00D29956  11.223   5.128   4.506 -0.3706  0.1183 -0.4459
  1624G12c H00Z29957  11.240   5.047   4.551 -1.9321  0.0221  0.0108
  1624G12c C02829958  11.448   5.101   4.417 -0.4241  2.0031  0.2888
  1624G12c C02929959  11.507   5.180   4.520  0.7079  1.1260  1.4015
  1624G12c H01029960  11.438   5.237   4.581 -1.2954  1.3295 -0.9787
  1624G12c C02T29961  11.642   5.179   4.550  1.1670 -1.0747  1.2944
  1624G12c H01O29962  11.691   5.250   4.614  4.6135  6.2688 -8.2113
  1624G12c C02S29963  11.722   5.078   4.494 -3.1317 -0.9289  1.8775
  1624G12c O00J29964  11.870   5.046   4.498  1.1445 -0.5411 -1.2637
  1624G12c H01P29965  11.888   4.960   4.464  6.3855 -0.3087  0.3622
  1624G12c C02R29966  11.661   4.997   4.386 -0.2245 -2.4854 -0.6679
  1624G12c O00I29967  11.738   4.884   4.340 -0.3433 -1.6935 -0.0119
  1624G12c C02Q29968  11.761   4.866   4.207  0.4803 -1.1526  2.0488
  1624G12c H01N29969  11.797   4.960   4.165  2.2292 -2.1009  1.3787
  1624G12c H01R29970  11.832   4.784   4.204 -0.2985 -1.8095  1.5957
  1624G12c H01Q29971  11.663   4.852   4.162  1.5086 -4.6315  0.7794
  1624G12c C02A29972  11.524   4.992   4.351 -0.0947 -0.6627 -0.7197
  1624G12c H01129973  11.496   4.910   4.287  3.6283  1.1529 -4.9236
  1624G12c C00C29974  11.104   5.369   4.342  0.0963 -1.2485  2.1352
  1624G12c H01229975  11.183   5.351   4.413 -0.1394 -2.5605  2.0846
  1624G12c C00B29976  11.063   5.498   4.325 -2.4778 -0.2575 -0.8589
  1624G12c C00A29977  11.101   5.627   4.400  1.8769  1.0820 -0.7586
  1624G12c C00929978  11.167   5.626   4.533  0.7128 -0.2429 -2.4185
  1624G12c C00829979  11.238   5.538   4.622 -0.1873 -1.0663  0.8469
  1624G12c H01329980  11.284   5.464   4.559  2.5172  3.6631 -3.1510
  1624G12c C00729981  11.196   5.534   4.763  0.2380 -1.3664 -1.9532
  1624G12c H01429982  11.221   5.444   4.817 -2.1732  1.1750  3.8339
  1624G12c C00629983  11.110   5.652   4.811 -0.6645 -0.3424  0.4938
  1624G12c C00529984  11.089   5.767   4.709  0.6952 -0.2519 -0.5392
  1624G12c C00429985  10.986   5.852   4.754  0.4353  1.5200 -0.0698
  1624G12c C00329986  10.924   5.922   4.650  1.2384 -2.2482 -0.5749
  1624G12c C00229987  10.848   6.033   4.696  0.0184 -1.4338  0.1928
  1624G12c C00129988  10.745   6.116   4.624 -2.4228 -0.4974 -1.5075
  1624G12c C00M29989  10.649   6.059   4.530 -2.0866 -0.2113 -0.4126
  1624G12c C00L29990  10.691   5.971   4.443  1.2068  0.1611 -0.6378
  1624G12c C00R29991  10.608   5.921   4.332  0.0938 -0.0051  1.2264
  1624G12c C00Q29992  10.464   5.895   4.325 -0.5482 -0.2055  1.5241
  1624G12c C00V29993  10.425   5.805   4.228 -0.9743  0.8482  1.7623
  1624G12c C00U29994  10.516   5.727   4.146 -1.8552  1.3652 -0.5635
  1624G12c C00T29995  10.658   5.727   4.176  0.2578  0.4243  0.3030
  1624G12c C01629996  10.756   5.641   4.149 -0.6941  0.1234 -0.0293
  1624G12c C01529997  10.725   5.538   4.066 -0.1666 -0.0730  3.2935
  1624G12c C01029998  10.592   5.525   4.020  0.3820 -1.4346  0.5136
  1624G12c C01129999  10.558   5.422   3.924  0.1297  0.2637 -1.4151
  1624G12c H00530000  10.460   5.391   3.890  1.0349 -0.9267 -3.0318
  1624G12c C01230001  10.659   5.348   3.879 -0.3236  0.2166 -0.4387
  1624G12c C01730002  10.623   5.248   3.778  0.9586 -0.3926  1.2484
  1624G12c O00230003  10.600   5.122   3.792  0.3094 -1.0164  1.3867
  1624G12c H00430004  10.656   5.076   3.731  0.9206 -0.0505  1.2049
  1624G12c C01830005  10.608   5.276   3.656  0.8282  1.7977 -2.9206
  1624G12c O00130006  10.612   5.161   3.565  0.3159  0.4780  0.6868
  1624G12c H00330007  10.652   5.198   3.488  2.9384 -3.4468  0.0357
  1624G12c C01930008  10.612   5.411   3.606 -1.8844 -1.0039  0.2176
  1624G12c H00230009  10.521   5.451   3.562 -1.6799  2.1166  2.4413
  1624G12c H00130010  10.622   5.487   3.684 -1.3741 -1.2516  0.3903
  1624G12c O00030011  10.734   5.442   3.534 -0.4775 -1.3062  0.6065
  1624G12c C01A30012  10.712   5.481   3.411  1.7219  0.1793 -0.1312
  1624G12c C02K30013  10.668   5.399   3.300  0.0990  0.2049 -1.2214
  1624G12c O00G30014  10.700   5.265   3.285 -1.5055 -0.3148 -0.1385
  1624G12c C02M30015  10.827   5.233   3.323  0.0627  1.6106 -0.7849
  1624G12c H01G30016  10.884   5.178   3.247  0.9940 -0.1255  1.1114
  1624G12c H01F30017  10.898   5.315   3.325  1.5591  0.3891 -2.0168
  1624G12c H01E30018  10.837   5.199   3.426  3.6386 -1.2753 -1.9621
  1624G12c C02J30019  10.626   5.464   3.178 -2.7943 -0.5984 -0.8385
  1624G12c H01H30020  10.600   5.390   3.104 -0.9675 -2.6823  0.5386
  1624G12c C02I30021  10.592   5.606   3.172 -0.0869  0.4987  1.9673
  1624G12c C02N30022  10.549   5.669   3.051 -1.0422  0.6777  1.3040
  1624G12c H01M30023  10.521   5.773   3.053  5.3777  2.6096  1.5225
  1624G12c C02O30024  10.515   5.580   2.944  1.1845  0.2171 -1.9082
  1624G12c H01L30025  10.551   5.479   2.935  2.6129 -0.6440  8.0207
  1624G12c C02P30026  10.386   5.599   2.858  1.7181 -0.1492  1.8036
  1624G12c H01K30027  10.333   5.689   2.826  0.8546 -2.6915 -4.7618
  1624G12c H01J30028  10.408   5.564   2.757  1.1960  4.3840  0.0032
  1624G12c O00H30029  10.299   5.497   2.886 -1.2838 -1.4053  0.3218
  1624G12c H01I30030  10.319   5.469   2.974  5.9942 -0.3006 -0.7120
  1624G12c C02H30031  10.646   5.686   3.278  0.0662  0.2118 -1.5437
  1624G12c H01C30032  10.615   5.789   3.289 -0.2226 -0.1309  1.0633
  1624G12c C02L30033  10.688   5.618   3.407  1.0764  0.9832 -0.6679
  1624G12c H01D30034  10.708   5.682   3.492  5.2535  0.7489 -1.3895
  1624G12c C01330035  10.785   5.365   3.927 -0.9816  1.1538  0.3304
  1624G12c H00030036  10.858   5.313   3.866 -1.1415 -1.2562  2.1321
  1624G12c C01430037  10.815   5.439   4.050 -1.5327  0.1945  1.6085
  1624G12c C00F30038  10.932   5.423   4.136  0.2180 -1.2596 -0.0941
  1624G12c C00H30039  10.880   5.650   4.218 -1.0220  1.3958 -0.6781
  1624G12c C00I30040  10.926   5.765   4.285 -0.6409  1.4754  1.5741
  1624G12c C00J30041  10.822   5.858   4.306 -2.1919  0.9863 -0.2563
  1624G12c C00Z30042  10.488   5.621   4.059  1.0833  1.8582 -1.1279
  1624G12c C00Y30043  10.347   5.619   4.015  1.3024 -0.7777 -1.4532
  1624G12c H00630044  10.316   5.574   3.921 -0.5458  0.3891 -1.4218
  1624G12c C00X30045  10.255   5.687   4.089 -0.2589 -0.1531 -1.1533
  1624G12c O00330046  10.138   5.646   4.029  1.3408 -1.1551  0.2216
  1624G12c C01B30047  10.029   5.727   4.042 -0.5796 -1.6122  0.9332
  1624G12c H00930048  10.008   5.745   4.147 -1.5304 -2.1803  0.8495
  1624G12c H00830049   9.930   5.733   3.996  0.5376  6.9964 -1.2734
  1624G12c H00730050  10.067   5.816   3.993 -1.1501 -3.9863 -4.1716
  1624G12c C00W30051  10.282   5.785   4.195 -1.0349  0.9590  0.0280
  1624G12c O00430052  10.191   5.851   4.268 -0.7729 -0.9803 -1.3404
  1624G12c C01C30053  10.220   5.910   4.385  0.3186  1.2312  0.5223
  1624G12c H00A30054  10.143   5.909   4.461  0.9788 -3.0642  1.2561
  1624G12c C00P30055  10.361   5.938   4.408  0.2002 -1.2611 -1.0139
  1624G12c C00O30056  10.385   6.001   4.537 -1.7104  0.1705 -0.4106
  1624G12c C01D30057  10.285   6.027   4.628  1.6914  0.5221  0.3837
  1624G12c H00S30058  10.177   6.021   4.626  1.8054 -4.4833  1.1193
  1624G12c C01E30059  10.298   6.063   4.767  0.3062 -0.5262 -0.3326
  1624G12c O00830060  10.217   6.039   4.874 -0.5883  0.7380  0.6047
  1624G12c C01V30061  10.114   6.139   4.889 -1.1025 -1.1423  0.2095
  1624G12c C01Z30062   9.980   6.074   4.958  1.1297  0.0570  1.0193
  1624G12c H00R30063   9.890   6.127   4.928  1.0339 -1.1237 -0.8662
  1624G12c H00Q30064   9.977   5.969   4.929 -7.2476  1.4351 -4.8060
  1624G12c O00930065   9.974   6.057   5.104 -0.1730  0.9877 -0.0654
  1624G12c H00P30066   9.901   6.111   5.129 -3.4318 -3.2160  0.0294
  1624G12c C01W30067  10.140   6.276   4.896 -0.3382 -0.3980  0.1783
  1624G12c H00O30068  10.056   6.341   4.914 -0.9663  0.5138 -5.0903
  1624G12c C01X30069  10.253   6.355   4.853  1.2093  0.3937 -0.0894
  1624G12c H00N30070  10.298   6.364   4.952 -3.1895  3.6367  1.8229
  1624G12c H00M30071  10.295   6.325   4.758  1.8900  0.0075  0.3287
  1624G12c C01Y30072  10.224   6.506   4.847  0.5942 -0.8694  0.1648
  1624G12c C02D30073  10.186   6.584   4.961  0.3637  0.2521  2.0115
  1624G12c H01930074  10.190   6.548   5.063  2.2032 -0.1503  1.8239
  1624G12c C02C30075  10.134   6.705   4.970 -0.3212  0.6337 -0.1287
  1624G12c H01A30076  10.119   6.744   5.070  3.1384 -0.8888  1.0503
  1624G12c C02B30077  10.110   6.763   4.856 -2.9917  0.8455 -0.0247
  1624G12c O00E30078  10.090   6.898   4.875 -0.0405 -0.2099 -0.2793
  1624G12c H01B30079  10.040   6.941   4.806  1.8420  2.0241 -0.3273
  1624G12c C02F30080  10.169   6.706   4.726  0.6078  0.3547 -0.4737
  1624G12c O00F30081  10.219   6.804   4.637 -0.7482 -0.4200  0.6802
  1624G12c C02G30082  10.352   6.841   4.676 -0.8839 -0.9444 -1.3088
  1624G12c H01730083  10.376   6.760   4.745  2.9399  1.4544  0.2851
  1624G12c H01630084  10.320   6.934   4.723  2.4488 -0.7282  0.6676
  1624G12c H01530085  10.423   6.851   4.594 -0.3053  0.9987 -0.5806
  1624G12c C02E30086  10.227   6.580   4.721  0.8394 -0.4590  0.0191
  1624G12c H01830087  10.270   6.531   4.635  0.8996 -2.2799  1.0593
  1624G12c C01F30088  10.428   6.085   4.814  0.5062 -0.9199  0.0736
  1624G12c C01G30089  10.476   6.045   4.947 -1.3801 -0.6762 -0.9125
  1624G12c H00L30090  10.412   6.004   5.024 -7.2005  3.9180 -2.9244
  1624G12c C01H30091  10.617   6.071   4.964  0.6104 -0.6578 -0.8488
  1624G12c H00B30092  10.650   6.039   5.062  2.5331 -1.2967 -1.6813
  1624G12c C01I30093  10.712   6.120   4.860  1.7192 -0.2113 -1.2433
  1624G12c C01U30094  10.525   6.116   4.715  0.2690  0.8342 -0.1022
  1624G12c C00S30095  10.697   5.845   4.256 -1.4671 -1.2074 -0.3379
  1624G12c C00K30096  10.821   5.913   4.436  1.1115  0.4689 -1.3049
  1624G12c C00N30097  10.515   6.054   4.598  2.3614  1.0522 -0.3399
  1624G12c C00030098  10.671   6.158   4.734  2.0206 -0.1060 -1.1441
  1624G12c C01J30099  10.847   6.077   4.833  0.6655  0.5288  0.3191
  1624G12c C01K30100  10.925   6.006   4.945  0.5268  1.9267  0.0579
  1624G12c C01P30101  10.923   6.022   5.089  0.6629 -0.2754 -0.2937
  1624G12c C01Q30102  10.851   6.124   5.163  1.0927 -0.4278 -0.9951
  1624G12c H00G30103  10.778   6.120   5.242  5.0705 -1.5279  2.8558
  1624G12c C01R30104  10.849   6.245   5.101 -0.8977 -0.1999  1.0157
  1624G12c H00F30105  10.882   6.257   5.000 -4.6910  0.7863 -0.1978
  1624G12c C01S30106  10.824   6.366   5.175  0.0873 -0.5954  1.0313
  1624G12c H00E30107  10.765   6.435   5.115  1.1115 -0.3881  0.2392
  1624G12c H00D30108  10.766   6.341   5.264 -2.4802 -1.5935 -0.8749
  1624G12c O00530109  10.930   6.452   5.226  0.2840  0.1362 -0.8242
  1624G12c H00C30110  10.936   6.532   5.177 -1.1170  2.2261  2.2633
  1624G12c C01O30111  11.022   5.948   5.162  0.3596  0.6585 -0.6462
  1624G12c H00H30112  11.051   5.936   5.266 -2.8362 -1.4284  0.1101
  1624G12c C01N30113  11.084   5.832   5.107 -0.5695  3.1419 -1.0995
  1624G12c O00630114  11.197   5.778   5.177 -1.3716  0.0167 -0.8873
  1624G12c C01T30115  11.193   5.637   5.195 -0.4296 -1.7817  0.3130
  1624G12c H00K30116  11.208   5.629   5.303 -3.3256  3.0193  1.1914
  1624G12c H00J30117  11.279   5.595   5.143  1.4978 -2.1455  3.6179
  1624G12c H00I30118  11.097   5.601   5.158 -0.4535  2.2463 -3.9921
  1624G12c C01M30119  11.040   5.793   4.979 -1.0518  0.4111  1.3216
  1624G12c C02030120  10.941   5.890   4.523  0.4368 -1.7258  2.2879
  1624G12c C02130121  11.061   5.829   4.477 -0.9741 -0.2132 -1.8533
  1624G12c C01L30122  10.978   5.883   4.895  0.4260 -1.4646 -0.4052
  1624G12c O00730123  11.102   5.672   4.945 -1.1364 -1.5352  0.1664
  1624G12c C02230124  11.127   5.749   4.573  0.3092 -2.3690  0.5491
  1624G12c C02330125  11.051   5.756   4.358  2.2253 -0.5190  1.6501
  1624G12c C00G30126  10.962   5.529   4.218  0.4376 -2.3166 -0.1321
  1624G12c C00E30127  10.988   5.298   4.142  0.2908 -0.5115 -0.7214
  1624G12c O00A30128  10.934   5.191   4.074 -0.5546  1.4112  0.9852
  1624G12c C02430129  10.871   5.086   4.137  1.3184  0.1082  0.9992
  1624G12c H00V30130  10.930   4.998   4.110  0.1738 -0.7743  1.2816
  1624G12c H00U30131  10.874   5.085   4.246 -2.9605 11.3244  1.8082
  1624G12c H00T30132  10.775   5.066   4.088  0.8417  1.0517  1.5434
  1634G12c C00D30133   2.935  11.156  11.448  1.2072 -1.4394  1.0775
  1634G12c O00B30134   2.871  11.030  11.449  0.6549 -0.3186 -0.8441
  1634G12c C02530135   2.906  10.930  11.352  0.1214 -1.2052 -0.4188
  1634G12c C02630136   3.047  10.882  11.374 -1.3527 -0.2673 -0.0748
  1634G12c H00Y30137   3.018  10.796  11.434 -2.6274  3.3587  4.8896
  1634G12c H00X30138   3.071  10.933  11.468  1.4139 -7.3960  3.4425
  1634G12c O00C30139   3.143  10.871  11.267  0.6243 -0.1418 -1.1034
  1634G12c H00W30140   3.148  10.946  11.210 -9.2426 -1.3178 -4.5127
  1634G12c C02730141   2.826  10.894  11.244  0.1491  0.8408 -0.0523
  1634G12c O00D30142   2.718  10.978  11.206 -1.3850  0.1493 -1.4084
  1634G12c H00Z30143   2.643  10.999  11.259  1.4040 -3.1138  4.1755
  1634G12c C02830144   2.861  10.795  11.149 -0.8555  0.8573 -0.9791
  1634G12c C02930145   2.934  10.666  11.173  0.1167 -1.2102 -0.2411
  1634G12c H01030146   2.930  10.647  11.279 -6.6315 -6.1378 -0.9952
  1634G12c C02T30147   3.008  10.587  11.082 -0.8429 -1.6300 -0.8999
  1634G12c H01O30148   3.083  10.514  11.107 -3.6602 -2.3298  6.8345
  1634G12c C02S30149   2.999  10.627  10.955 -0.4106  0.1344  2.2014
  1634G12c O00J30150   3.103  10.579  10.893 -0.1271 -1.7988  0.4680
  1634G12c H01P30151   3.103  10.634  10.817  0.7543  2.6204  3.4808
  1634G12c C02R30152   2.910  10.727  10.920 -0.7804  0.0859  1.1004
  1634G12c O00I30153   2.912  10.765  10.791  0.4718  1.4623 -0.3334
  1634G12c C02Q30154   3.008  10.868  10.771 -0.3663 -3.2836 -0.4550
  1634G12c H01N30155   2.987  10.972  10.796  0.7344 -3.4968  1.4046
  1634G12c H01R30156   3.100  10.858  10.828  0.8267  4.1607 -0.5205
  1634G12c H01Q30157   3.073  10.880  10.684 -0.5800  1.5935 -0.1107
  1634G12c C02A30158   2.832  10.811  11.013  1.0191  1.3130  0.6567
  1634G12c H01130159   2.759  10.878  10.970  1.7836  1.8997  0.2553
  1634G12c C00C30160   3.017  11.171  11.347 -0.1590 -0.1756 -0.4623
  1634G12c H01230161   3.056  11.111  11.266  1.1033 -1.7333  1.2467
  1634G12c C00B30162   3.051  11.308  11.321  0.2802 -0.8744 -0.1917
  1634G12c C00A30163   3.100  11.370  11.196  0.2648  1.2131 -0.9019
  1634G12c C00930164   3.152  11.293  11.090  0.7148  0.6729  0.9341
  1634G12c C00830165   3.142  11.162  11.043  0.7879  0.1055  1.0811
  1634G12c H01330166   3.055  11.097  11.040  3.0054 -3.1990  3.7231
  1634G12c C00730167   3.259  11.107  10.970  0.2355 -1.3239 -1.3744
  1634G12c H01430168   3.259  11.013  10.917 -1.1217 -0.8535 -2.2536
  1634G12c C00630169   3.368  11.193  10.928 -1.7313  0.5794  0.2638
  1634G12c C00530170   3.362  11.336  10.952  0.9083  1.5191 -0.1033
  1634G12c C00430171   3.479  11.411  10.945 -1.5098  0.4976  0.4107
  1634G12c C00330172   3.476  11.530  11.026  1.4386  0.3778 -0.7594
  1634G12c C00230173   3.603  11.604  11.030 -1.9087 -0.6015 -0.2810
  1634G12c C00130174   3.658  11.711  11.115  1.2387  0.0838 -1.3290
  1634G12c C00M30175   3.645  11.730  11.250  0.9406 -0.0148 -1.6872
  1634G12c C00L30176   3.529  11.674  11.310 -1.0997 -1.3918 -1.5276
  1634G12c C00R30177   3.502  11.705  11.452 -0.0143 -1.1199 -0.4415
  1634G12c C00Q30178   3.596  11.705  11.568  0.8837 -1.7153 -0.3218
  1634G12c C00V30179   3.527  11.661  11.694 -0.0891  0.6333  0.8495
  1634G12c C00U30180   3.394  11.615  11.698 -2.2831  1.9391 -0.9650
  1634G12c C00T30181   3.311  11.619  11.586  0.2087 -0.1413 -0.0729
  1634G12c C01630182   3.191  11.552  11.578  0.2083 -2.1702  0.0752
  1634G12c C01530183   3.134  11.511  11.686  0.7596  0.2069  0.7331
  1634G12c C01030184   3.193  11.543  11.807 -0.0548  0.1133  0.6497
  1634G12c C01130185   3.151  11.487  11.938  0.2514  1.1462 -1.1355
  1634G12c H00530186   3.192  11.505  12.036  0.8666  0.9836 -1.3613
  1634G12c C01230187   3.055  11.388  11.930 -1.0665  0.1695  0.6609
  1634G12c C01730188   3.015  11.335  12.054 -0.3020  0.6460 -1.4894
  1634G12c O00230189   2.997  11.194  12.078  0.8624 -1.1454 -0.2461
  1634G12c H00430190   3.066  11.148  12.033  6.5079  1.4687  4.9306
  1634G12c C01830191   2.914  11.401  12.111 -0.1938 -0.5430  0.8745
  1634G12c O00130192   2.846  11.326  12.213 -0.0245  0.0141  0.2706
  1634G12c H00330193   2.880  11.239  12.198 -6.1437 -2.2092 -2.2206
  1634G12c C01930194   2.872  11.548  12.073  0.8545 -0.1679  1.0927
  1634G12c H00230195   2.897  11.577  11.971  0.8106 -4.6286 -0.3138
  1634G12c H00130196   2.763  11.559  12.079  0.8588  3.1821 -2.5972
  1634G12c O00030197   2.952  11.646  12.120  0.3892  0.8694 -0.3805
  1634G12c C01A30198   2.946  11.673  12.258 -1.8417 -0.0596  1.6297
  1634G12c C02K30199   2.962  11.817  12.291 -1.8867  0.3877 -0.7431
  1634G12c O00G30200   2.909  11.906  12.207 -2.8893 -0.2470  0.6820
  1634G12c C02M30201   2.769  11.908  12.196  0.8605 -0.2977  0.2556
  1634G12c H01G30202   2.694  11.987  12.196  0.4090 -0.4262 -7.0103
  1634G12c H01F30203   2.752  11.861  12.100 -3.5736  0.0209  0.7823
  1634G12c H01E30204   2.721  11.841  12.267  0.8551  0.7291  1.2399
  1634G12c C02J30205   2.984  11.849  12.431 -0.0975 -0.3482 -1.4247
  1634G12c H01H30206   2.986  11.954  12.457 -0.6738 -1.5664  4.2046
  1634G12c C02I30207   3.050  11.762  12.529  0.1338 -1.1365 -0.9685
  1634G12c C02N30208   3.107  11.787  12.662 -0.2885  0.1708  0.0161
  1634G12c H01M30209   3.093  11.720  12.746  4.3139 -1.5758 -0.4822
  1634G12c C02O30210   3.175  11.892  12.694  0.2687  0.7033  1.6023
  1634G12c H01L30211   3.195  11.971  12.623 -1.0338  1.8365  2.4635
  1634G12c C02P30212   3.206  11.922  12.844  0.8023 -0.3724  0.6635
  1634G12c H01K30213   3.253  12.010  12.888 -0.4944  0.5358  0.2468
  1634G12c H01J30214   3.146  11.877  12.923  1.7692 -3.2095 -0.1296
  1634G12c O00H30215   3.321  11.866  12.832  0.1383  0.0002 -0.3538
  1634G12c H01I30216   3.307  11.773  12.831  0.1049 -0.0169  1.2770
  1634G12c C02H30217   3.038  11.622  12.494  0.2242 -0.4707  0.0310
  1634G12c H01C30218   3.080  11.548  12.561  0.6594  4.2173  5.3702
  1634G12c C02L30219   2.968  11.583  12.371  0.6320 -0.3105  0.4743
  1634G12c H01D30220   2.995  11.479  12.377 -7.0101 -2.5853  0.0230
  1634G12c C01330221   2.986  11.364  11.804  0.9801  0.6140 -1.1866
  1634G12c H00030222   2.901  11.299  11.811  1.6364 -0.2207 -0.8725
  1634G12c C01430223   3.039  11.410  11.678  0.0174 -0.3307  0.5950
  1634G12c C00F30224   3.001  11.352  11.562 -1.3203 -1.4257  1.6677
  1634G12c C00H30225   3.147  11.503  11.447  0.4145 -1.2411 -0.1022
  1634G12c C00I30226   3.199  11.548  11.323  0.8092  0.2185 -0.6807
  1634G12c C00J30227   3.307  11.640  11.337 -0.9611 -0.8254 -1.0420
  1634G12c C00Z30228   3.337  11.581  11.818  1.0385  0.5311 -0.1985
  1634G12c C00Y30229   3.408  11.618  11.948 -1.0877  0.9166  0.6020
  1634G12c H00630230   3.369  11.572  12.038  5.5148 -2.7103  1.9137
  1634G12c C00X30231   3.534  11.670  11.957  0.4948 -1.6535 -0.8549
  1634G12c O00330232   3.611  11.647  12.065 -0.6438  0.7405  1.1305
  1634G12c C01B30233   3.550  11.680  12.200 -0.2305 -0.7543 -1.6283
  1634G12c H00930234   3.558  11.620  12.291 -0.8676 -3.8767 -3.5770
  1634G12c H00830235   3.454  11.731  12.191 -3.4276 -4.6041  5.9079
  1634G12c H00730236   3.593  11.780  12.211  8.7487 -4.6537  5.3609
  1634G12c C00W30237   3.596  11.685  11.823  0.9254 -0.9594 -1.8721
  1634G12c O00430238   3.728  11.721  11.822 -0.0147  0.8281 -0.2855
  1634G12c C01C30239   3.811  11.700  11.714 -1.4390 -0.8236 -0.0721
  1634G12c H00A30240   3.902  11.649  11.739  2.9078  4.6601 -3.5843
  1634G12c C00P30241   3.741  11.704  11.577  1.9190 -0.3050  1.1099
  1634G12c C00O30242   3.818  11.698  11.447  0.6261  0.7422  1.3062
  1634G12c C01D30243   3.941  11.627  11.444 -0.6043 -0.5282  0.6169
  1634G12c H00S30244   3.975  11.604  11.543  0.5081 -1.0535  0.1279
  1634G12c C01E30245   4.029  11.574  11.341  0.1003  1.7433 -0.7060
  1634G12c O00830246   4.143  11.503  11.345  0.7004 -0.4559 -0.2969
  1634G12c C01V30247   4.270  11.542  11.290  0.5227 -0.9810 -1.4891
  1634G12c C01Z30248   4.342  11.421  11.255  0.4891 -0.8955 -1.0594
  1634G12c H00R30249   4.359  11.366  11.348 -4.0724  2.2176  1.8081
  1634G12c H00Q30250   4.262  11.365  11.206 -0.0753  0.6879 -1.9974
  1634G12c O00930251   4.438  11.431  11.164 -0.6018  0.1571 -0.1661
  1634G12c H00P30252   4.481  11.514  11.170  1.4954 -0.6836 -2.6452
  1634G12c C01W30253   4.323  11.661  11.280 -1.3031 -0.2728 -1.4807
  1634G12c H00O30254   4.429  11.651  11.266 -0.0209  5.4718  2.0678
  1634G12c C01X30255   4.276  11.789  11.352  0.2669 -0.6038  1.6168
  1634G12c H00N30256   4.327  11.875  11.310  0.8201 -1.6991 -0.0078
  1634G12c H00M30257   4.184  11.772  11.297  1.2472 -8.5467  1.7626
  1634G12c C01Y30258   4.249  11.808  11.498  0.9595 -1.0415 -1.0555
  1634G12c C02D30259   4.265  11.710  11.608 -1.0082  1.0232 -0.9485
  1634G12c H01930260   4.300  11.612  11.577 -1.4070 -0.8272  4.0237
  1634G12c C02C30261   4.229  11.736  11.738  0.0146  0.6857 -0.9106
  1634G12c H01A30262   4.236  11.685  11.832 -2.4508 -0.6051 -1.3835
  1634G12c C02B30263   4.171  11.861  11.769 -1.8878  0.4760  1.0618
  1634G12c O00E30264   4.135  11.895  11.885  0.6701 -1.0237  0.1406
  1634G12c H01B30265   4.102  11.983  11.874  3.7078  0.2440  0.8233
  1634G12c C02F30266   4.135  11.944  11.657  0.7865 -0.7548  1.1156
  1634G12c O00F30267   4.106  12.077  11.664  0.8472 -1.0882 -1.1016
  1634G12c C02G30268   3.980  12.104  11.705  0.7581 -0.9040 -1.6099
  1634G12c H01730269   3.982  12.186  11.777 -3.1019 -0.8318 -1.4793
  1634G12c H01630270   3.902  12.028  11.712  0.2321 -0.0563  4.1179
  1634G12c H01530271   3.946  12.156  11.615  0.6296 -2.8760 -2.7504
  1634G12c C02E30272   4.164  11.915  11.544  0.0017 -0.2499  1.0947
  1634G12c H01830273   4.123  11.982  11.470 -1.3063  0.1438  2.1519
  1634G12c C01F30274   3.989  11.613  11.209 -0.9503  1.1390  0.4853
  1634G12c C01G30275   4.043  11.567  11.071  0.2134 -1.0627  1.1064
  1634G12c H00L30276   4.139  11.521  11.051 -1.3430 -2.9679 -2.3334
  1634G12c C01H30277   3.949  11.571  10.962 -0.5755  0.6310 -0.1906
  1634G12c H00B30278   3.971  11.485  10.901  0.3565  3.8589 -4.6109
  1634G12c C01I30279   3.825  11.623  10.972 -2.4033 -1.6425 -0.7966
  1634G12c C01U30280   3.876  11.695  11.193 -0.2418  1.1667 -0.8167
  1634G12c C00S30281   3.366  11.666  11.465 -0.3565  0.3791 -0.5645
  1634G12c C00K30282   3.408  11.641  11.245  0.2415 -0.2252 -0.8407
  1634G12c C00N30283   3.781  11.712  11.298 -1.0742 -0.9931 -0.3950
  1634G12c C00030284   3.798  11.702  11.091 -0.1701  0.8476  0.4467
  1634G12c C01J30285   3.695  11.582  10.928 -0.1861 -0.0299  1.2349
  1634G12c C01K30286   3.680  11.474  10.822 -0.4832 -1.1777 -0.2079
  1634G12c C01P30287   3.774  11.424  10.722  3.0687 -0.5132 -1.6154
  1634G12c C01Q30288   3.886  11.508  10.686  0.7577 -0.1748  2.4851
  1634G12c H00G30289   3.872  11.615  10.681 -1.7998 -0.5215  1.6077
  1634G12c C01R30290   4.000  11.463  10.628  0.7906 -0.9678 -1.0253
  1634G12c H00F30291   4.025  11.359  10.619 -1.7026 -1.5165 -1.8501
  1634G12c C01S30292   4.127  11.533  10.575 -1.7764 -1.7214  1.2984
  1634G12c H00E30293   4.170  11.615  10.632 -0.5654  0.4478 -2.5462
  1634G12c H00D30294   4.203  11.460  10.549  1.8168  2.2667  0.1267
  1634G12c O00530295   4.095  11.599  10.456  0.0126 -0.4688 -0.3379
  1634G12c H00C30296   4.130  11.550  10.383 -5.5692 -1.1103 -2.8495
  1634G12c C01O30297   3.759  11.288  10.664 -0.1570  1.2466 -0.3921
  1634G12c H00H30298   3.824  11.241  10.592  5.4538  0.0251  5.0354
  1634G12c C01N30299   3.652  11.209  10.712  0.7937 -0.9497  0.3909
  1634G12c O00630300   3.648  11.077  10.670 -0.1361 -0.1321  0.3364
  1634G12c C01T30301   3.726  10.999  10.768 -0.4201  1.4276  1.9085
  1634G12c H00K30302   3.756  10.902  10.729 -2.6528  2.0932 -1.7143
  1634G12c H00J30303   3.642  10.976  10.833 -3.2993  3.7031 -0.8555
  1634G12c H00I30304   3.821  11.039  10.804  0.4991  0.9854  0.0529
  1634G12c C01M30305   3.557  11.250  10.790  0.2422 -0.9225 -2.0972
  1634G12c C02030306   3.372  11.554  11.120 -0.4309 -1.5670 -0.7920
  1634G12c C02130307   3.251  11.500  11.093  0.0194 -1.1542  0.2788
  1634G12c C01L30308   3.580  11.385  10.846 -0.7165  0.1149  0.0372
  1634G12c O00730309   3.440  11.165  10.815 -0.1557 -0.5299 -0.6681
  1634G12c C02230310   3.262  11.381  11.044 -2.5280  1.6350 -0.7592
  1634G12c C02330311   3.167  11.485  11.200  0.6648 -0.6066 -0.8112
  1634G12c C00G30312   3.058  11.395  11.440 -0.3684 -0.6556 -0.8240
  1634G12c C00E30313   2.905  11.254  11.540 -1.5644  0.7974 -0.8983
  1634G12c O00A30314   2.798  11.252  11.621 -0.8678 -0.0631 -0.3715
  1634G12c C02430315   2.670  11.228  11.568  0.6440  0.7463  0.5334
  1634G12c H00V30316   2.632  11.281  11.481  3.1780 -4.4083 -3.9529
  1634G12c H00U30317   2.604  11.250  11.652 -3.9049  2.9439 -3.3639
  1634G12c H00T30318   2.646  11.133  11.521  0.7809  0.7693  0.4186
  1644G12c C00D30319   9.059  11.805   8.285 -0.1714  0.0878  1.9646
  1644G12c O00B30320   8.942  11.865   8.317  2.4043 -0.3628  1.1529
  1644G12c C02530321   8.822  11.836   8.235 -0.6302  0.1783  0.8933
  1644G12c C02630322   8.769  11.935   8.140 -0.2528  0.6344  0.6125
  1644G12c H00Y30323   8.808  12.035   8.156  1.9305 -0.3013  1.3635
  1644G12c H00X30324   8.677  11.964   8.191  0.6584 -1.2410  3.4780
  1644G12c O00C30325   8.768  11.924   8.009 -0.5701  0.5282 -2.3572
  1644G12c H00W30326   8.767  11.829   8.011 -3.9811  0.5553 -1.2815
  1644G12c C02730327   8.729  11.728   8.258  0.3981  3.2617 -0.4645
  1644G12c O00D30328   8.610  11.702   8.189 -0.1795  0.2231 -1.0153
  1644G12c H00Z30329   8.555  11.634   8.223 -0.7095 -1.6051 -5.2427
  1644G12c C02830330   8.752  11.624   8.362  0.6762 -1.0259  0.7682
  1644G12c C02930331   8.824  11.504   8.335  0.5601  0.6213  0.2546
  1644G12c H01030332   8.856  11.486   8.234  4.4791 -2.5753  1.9503
  1644G12c C02T30333   8.883  11.425   8.430 -1.4682  0.2951 -0.2237
  1644G12c H01O30334   8.954  11.357   8.386  0.1456 -1.2070  4.3661
  1644G12c C02S30335   8.810  11.439   8.557 -0.4582  0.7594 -0.9348
  1644G12c O00J30336   8.793  11.321   8.624  0.3911 -1.8552 -1.3360
  1644G12c H01P30337   8.885  11.303   8.620  2.3885  5.8196  0.7733
  1644G12c C02R30338   8.721  11.556   8.601  0.1595 -0.8608 -1.0619
  1644G12c O00I30339   8.660  11.581   8.709  0.1127 -0.0306 -0.2915
  1644G12c C02Q30340   8.550  11.493   8.751  2.0280  0.5707 -1.6079
  1644G12c H01N30341   8.569  11.411   8.821 -4.7626 -3.6189 -4.0857
  1644G12c H01R30342   8.482  11.484   8.667 -0.9040  4.7932  0.1597
  1644G12c H01Q30343   8.477  11.555   8.802 -5.3468 -4.8829 -4.6167
  1644G12c C02A30344   8.690  11.636   8.487  1.4833  1.4982 -1.1148
  1644G12c H01130345   8.657  11.738   8.506  5.3404  3.5908 -4.6782
  1644G12c C00C30346   9.106  11.815   8.147  1.4493 -0.6267  0.3448
  1644G12c H01230347   9.059  11.896   8.093 -2.1590  1.4441  6.1081
  1644G12c C00B30348   9.221  11.753   8.096 -0.1900 -0.4370 -0.8389
  1644G12c C00A30349   9.281  11.786   7.968  0.1801  1.6265  0.5182
  1644G12c C00930350   9.196  11.755   7.854  0.3591  2.3222  2.3569
  1644G12c C00830351   9.073  11.768   7.810  0.6386 -0.9605  0.7855
  1644G12c H01330352   8.993  11.811   7.869 -1.2595 -1.3609 -1.4364
  1644G12c C00730353   9.049  11.755   7.666 -0.8896 -0.7534  0.9421
  1644G12c H01430354   8.951  11.760   7.622 -0.3894  3.4456  0.1351
  1644G12c C00630355   9.154  11.686   7.588 -0.5390  1.3314  0.4852
  1644G12c C00530356   9.277  11.688   7.648  0.5696 -0.4453  1.2869
  1644G12c C00430357   9.366  11.607   7.579 -1.3882  1.3872  2.7783
  1644G12c C00330358   9.488  11.594   7.640 -2.6680  0.0566 -0.3903
  1644G12c C00230359   9.579  11.508   7.557  0.5912 -3.3134 -0.7599
  1644G12c C00130360   9.722  11.467   7.591 -0.7412 -0.5280 -0.7029
  1644G12c C00M30361   9.761  11.407   7.727 -1.7303  1.0220  1.0162
  1644G12c C00L30362   9.704  11.465   7.844  0.6136  0.2611  1.1344
  1644G12c C00R30363   9.715  11.400   7.967 -0.2803 -0.3106 -0.2283
  1644G12c C00Q30364   9.754  11.270   8.027 -0.1311 -0.3632 -0.2866
  1644G12c C00V30365   9.719  11.231   8.168  1.6944 -0.2851  0.1459
  1644G12c C00U30366   9.619  11.313   8.230 -1.7857  0.2427 -1.2145
  1644G12c C00T30367   9.570  11.435   8.175  0.4595 -0.1476  0.2343
  1644G12c C01630368   9.488  11.525   8.234  0.7727 -1.3921  1.8483
  1644G12c C01530369   9.432  11.488   8.366  0.3508 -0.5813 -0.1234
  1644G12c C01030370   9.488  11.370   8.430  2.5062  0.8413 -0.3738
  1644G12c C01130371   9.447  11.366   8.562 -1.6193  1.3122 -2.4197
  1644G12c H00530372   9.478  11.296   8.637  0.1066  0.9508 -3.4553
  1644G12c C01230373   9.343  11.434   8.619  2.1296 -0.2821 -1.7451
  1644G12c C01730374   9.297  11.433   8.752  2.1422  1.4997 -1.0532
  1644G12c O00230375   9.369  11.499   8.853  1.1678 -0.6993 -0.3545
  1644G12c H00430376   9.335  11.431   8.909  2.8417 -2.8932 -1.9367
  1644G12c C01830377   9.212  11.333   8.793 -0.5425 -0.7190 -1.7159
  1644G12c O00130378   9.207  11.307   8.923 -1.2082  0.9288  0.5213
  1644G12c H00330379   9.158  11.227   8.935  4.2527 -2.4550  2.1931
  1644G12c C01930380   9.140  11.242   8.706 -1.5757 -0.1894 -0.2786
  1644G12c H00230381   9.071  11.299   8.644  6.7421  4.4472 -6.3064
  1644G12c H00130382   9.198  11.216   8.618 -0.0032 -6.0944  2.2500
  1644G12c O00030383   9.040  11.144   8.758 -0.1001 -0.0455 -0.3489
  1644G12c C01A30384   9.097  11.045   8.825  0.0500 -1.1458 -0.3291
  1644G12c C02K30385   8.996  10.945   8.869  0.4363 -0.0131 -0.7120
  1644G12c O00G30386   8.851  10.962   8.873  0.3290  0.4604 -0.7946
  1644G12c C02M30387   8.786  10.962   9.000  1.0754 -1.0421 -0.9590
  1644G12c H01G30388   8.841  10.952   9.093  3.2832  7.2649 -1.0377
  1644G12c H01F30389   8.706  11.036   9.009  2.2698  0.1079  0.2037
  1644G12c H01E30390   8.722  10.877   9.026  0.7481 -1.6546 -3.6040
  1644G12c C02J30391   9.039  10.827   8.916 -0.6610 -0.6722  0.0862
  1644G12c H01H30392   8.977  10.740   8.929 -0.3577 -0.6956  1.3595
  1644G12c C02I30393   9.172  10.809   8.956  0.1488 -1.2403 -0.3465
  1644G12c C02N30394   9.238  10.682   8.982  2.0120  1.1512  1.5053
  1644G12c H01M30395   9.330  10.632   8.957  1.9281  0.9337  1.6302
  1644G12c C02O30396   9.172  10.581   9.058 -0.6083  1.5806  0.8672
  1644G12c H01L30397   9.069  10.570   9.086 -2.6378  0.4942 -5.9997
  1644G12c C02P30398   9.237  10.443   9.076  0.6044 -1.3996 -0.1633
  1644G12c H01K30399   9.334  10.442   9.125  0.1471  1.1614  0.8889
  1644G12c H01J30400   9.228  10.390   9.170 -3.9049  3.3181  2.3101
  1644G12c O00H30401   9.163  10.335   9.001  1.6525  0.5725  0.0592
  1644G12c H01I30402   9.090  10.371   8.953  1.9403  4.0286  2.0790
  1644G12c C02H30403   9.265  10.901   8.921  0.2854  0.4805  0.9267
  1644G12c H01C30404   9.363  10.859   8.905 -2.5372 -5.9600 -1.0141
  1644G12c C02L30405   9.222  11.026   8.869  0.9268 -1.1091  1.1849
  1644G12c H01D30406   9.303  11.097   8.865  1.5772 -1.8796  0.4573
  1644G12c C01330407   9.290  11.534   8.536  0.0277 -1.1308 -0.4110
  1644G12c H00030408   9.229  11.607   8.589  2.8235  0.8478  0.1853
  1644G12c C01430409   9.347  11.577   8.418 -0.4037 -1.4742 -0.1255
  1644G12c C00F30410   9.274  11.665   8.336 -0.6224 -0.5801  0.1664
  1644G12c C00H30411   9.439  11.637   8.161 -0.2147 -1.0877  0.6178
  1644G12c C00I30412   9.497  11.686   8.050  1.2512 -0.0762 -0.2245
  1644G12c C00J30413   9.603  11.600   7.994 -0.7651 -1.8404  1.0450
  1644G12c C00Z30414   9.582  11.293   8.365 -0.0389 -0.0564 -0.8854
  1644G12c C00Y30415   9.660  11.190   8.435 -0.4873 -0.2144 -0.4913
  1644G12c H00630416   9.644  11.150   8.534 -5.2276 -1.0537 -1.4796
  1644G12c C00X30417   9.749  11.098   8.366 -0.1585 -0.9287  1.2441
  1644G12c O00330418   9.782  10.984   8.431  0.4668  0.7676  1.1430
  1644G12c C01B30419   9.719  10.865   8.370  1.7550 -1.0601 -0.4617
  1644G12c H00930420   9.621  10.867   8.324  0.8548-13.9372 -0.7005
  1644G12c H00830421   9.708  10.792   8.450  0.5787 -2.6320 -2.0517
  1644G12c H00730422   9.795  10.800   8.327  0.4104  0.1507 -4.9442
  1644G12c C00W30423   9.785  11.129   8.235 -0.0915  0.4950 -0.5408
  1644G12c O00430424   9.877  11.051   8.160  0.3522  0.8397  1.5562
  1644G12c C01C30425   9.863  11.068   8.012 -0.1412  0.0159  0.4765
  1644G12c H00A30426   9.938  11.017   7.954 -0.9207 -2.7778  1.8007
  1644G12c C00P30427   9.781  11.160   7.948 -1.4975  0.6954 -0.2011
  1644G12c C00O30428   9.781  11.149   7.800  0.6730  0.4854  1.6459
  1644G12c C01D30429   9.792  11.016   7.744  0.6361 -1.0537 -0.4992
  1644G12c H00S30430   9.819  10.934   7.808 -2.4762 -2.8940 -1.4478
  1644G12c C01E30431   9.776  10.990   7.605  0.4287  0.8500  0.0881
  1644G12c O00830432   9.797  10.853   7.554 -0.9331  0.5429  0.4974
  1644G12c C01V30433   9.886  10.837   7.439 -0.4426  0.0654  2.4697
  1644G12c C01Z30434   9.972  10.963   7.406  0.6509  1.4925  0.4591
  1644G12c H00R30435   9.981  11.019   7.499 -1.7852  4.5832 -1.0743
  1644G12c H00Q30436  10.073  10.937   7.374 -1.2629 -2.6969 -2.6397
  1644G12c O00930437   9.912  11.009   7.304  0.1363 -0.9161  0.8505
  1644G12c H00P30438   9.820  11.020   7.321 -0.3138 -4.0277  0.6826
  1644G12c C01W30439   9.872  10.722   7.379  1.0831 -0.8407 -1.2143
  1644G12c H00O30440   9.819  10.634   7.412 -4.1150  1.6101 -2.5078
  1644G12c C01X30441   9.941  10.676   7.248  0.4894 -0.3748  0.8773
  1644G12c H00N30442   9.865  10.637   7.180  3.3097  0.8825 -3.1543
  1644G12c H00M30443   9.973  10.760   7.187 -3.6138  1.1142  0.6312
  1644G12c C01Y30444  10.079  10.613   7.262  0.4585 -0.9895  0.1390
  1644G12c C02D30445  10.203  10.683   7.258  0.5618 -0.8945 -0.7373
  1644G12c H01930446  10.216  10.790   7.263  1.5598 -1.0753  1.2507
  1644G12c C02C30447  10.308  10.617   7.258  0.5408 -0.0519  0.3322
  1644G12c H01A30448  10.393  10.672   7.221 -1.5133  1.0387 -2.9832
  1644G12c C02B30449  10.316  10.468   7.272 -0.3897 -0.9951 -0.3352
  1644G12c O00E30450  10.433  10.393   7.270 -0.5458  0.9992  0.0156
  1644G12c H01B30451  10.395  10.311   7.243  3.4351  0.8636 -6.0715
  1644G12c C02F30452  10.200  10.393   7.272 -0.9005 -0.7961 -0.5946
  1644G12c O00F30453  10.181  10.256   7.277  0.0459 -0.5761 -1.0386
  1644G12c C02G30454  10.037  10.198   7.273  1.5909  1.0179  0.2961
  1644G12c H01730455   9.942  10.239   7.239  0.8972 -4.0402 -4.6809
  1644G12c H01630456  10.032  10.198   7.382  1.5895  9.2062  0.6134
  1644G12c H01530457  10.033  10.098   7.230  0.1093  0.9000  0.6784
  1644G12c C02E30458  10.086  10.468   7.273  0.5751 -1.4775  0.9375
  1644G12c H01830459   9.992  10.430   7.311  1.9860 -6.1542  0.0655
  1644G12c C01F30460   9.730  11.099   7.532  0.4536  0.5050 -0.1370
  1644G12c C01G30461   9.647  11.098   7.422 -0.3776 -1.1082  0.7293
  1644G12c H00L30462   9.621  10.995   7.409  1.0839 -1.4210  0.1781
  1644G12c C01H30463   9.571  11.207   7.372  1.2299  0.4932  0.2561
  1644G12c H00B30464   9.487  11.195   7.305  3.6480  1.0520 -3.0430
  1644G12c C01I30465   9.602  11.329   7.423 -1.7529 -1.9301  0.7553
  1644G12c C01U30466   9.767  11.230   7.564 -1.2804  0.4313  0.3261
  1644G12c C00S30467   9.646  11.480   8.055  0.6541  1.4023 -0.4108
  1644G12c C00K30468   9.614  11.569   7.849  0.2750  1.6772 -0.9790
  1644G12c C00N30469   9.792  11.259   7.701  0.1943 -0.4684 -0.9152
  1644G12c C00030470   9.738  11.352   7.495 -0.2779 -0.7726  0.9510
  1644G12c C01J30471   9.544  11.456   7.429  0.2928 -0.2966 -0.3170
  1644G12c C01K30472   9.425  11.463   7.355 -0.2724 -1.3213 -0.8385
  1644G12c C01P30473   9.391  11.419   7.231  0.6342 -0.3411 -0.2832
  1644G12c C01Q30474   9.494  11.383   7.138  0.1667 -0.0514 -0.0475
  1644G12c H00G30475   9.599  11.396   7.162  0.4317  3.6738 -2.8361
  1644G12c C01R30476   9.466  11.359   7.005  1.0521 -0.5159  0.2178
  1644G12c H00F30477   9.363  11.337   6.982 -0.1713 -4.9544  8.0067
  1644G12c C01S30478   9.545  11.384   6.882 -0.1049  0.2445  1.3249
  1644G12c H00E30479   9.502  11.329   6.798  2.1896 -0.3784  0.5236
  1644G12c H00D30480   9.504  11.483   6.859 -2.0067 -1.7972 -5.4654
  1644G12c O00530481   9.682  11.409   6.915 -1.0323 -1.3197  0.1651
  1644G12c H00C30482   9.675  11.467   6.989  7.4257 -0.2375  0.6130
  1644G12c C01O30483   9.250  11.425   7.210 -1.1050  0.0176 -1.4768
  1644G12c H00H30484   9.208  11.355   7.139  0.2655  0.7513 -3.0187
  1644G12c C01N30485   9.172  11.521   7.270  1.3317  0.4192  0.0358
  1644G12c O00630486   9.053  11.520   7.207 -0.7325 -0.0661  0.3238
  1644G12c C01T30487   8.986  11.661   7.197  0.3066 -0.5496  0.7887
  1644G12c H00K30488   9.041  11.752   7.174 -1.2270  0.3097  0.4429
  1644G12c H00J30489   8.948  11.657   7.299  6.9086  4.5247  3.8277
  1644G12c H00I30490   8.927  11.644   7.107 -0.5905 -5.3680  2.1090
  1644G12c C01M30491   9.226  11.599   7.384 -1.1592 -1.5533  2.5223
  1644G12c C02030492   9.515  11.637   7.781  0.0863  0.0224 -0.9630
  1644G12c C02130493   9.425  11.733   7.828 -0.9871  0.6397 -1.2897
  1644G12c C01L30494   9.345  11.559   7.437  0.5686 -1.4372 -0.2871
  1644G12c O00730495   9.139  11.665   7.461 -0.0241  0.8058  0.6838
  1644G12c C02230496   9.304  11.734   7.769  0.0901  1.5416  0.0929
  1644G12c C02330497   9.419  11.766   7.956  0.4550 -0.1012 -1.4226
  1644G12c C00G30498   9.310  11.696   8.203 -1.4651 -0.0499 -1.9061
  1644G12c C00E30499   9.139  11.722   8.382 -0.5046 -0.0122 -0.1531
  1644G12c O00A30500   9.066  11.696   8.495  1.0913  0.2828  0.3106
  1644G12c C02430501   9.033  11.807   8.592  0.2333  0.3555 -0.7878
  1644G12c H00V30502   8.987  11.752   8.674  1.9507 -0.3243 -0.2558
  1644G12c H00U30503   8.964  11.876   8.544 -3.0275 -3.6906 -2.2040
  1644G12c H00T30504   9.140  11.825   8.604  1.7075 -2.3566 -7.3490
  1654G12c C00D30505   5.221   7.084   5.843 -1.7588 -1.6686 -2.2630
  1654G12c O00B30506   5.265   7.194   5.931 -0.1597 -1.0146  1.2269
  1654G12c C02530507   5.198   7.214   6.046 -0.0217  0.0767  0.4464
  1654G12c C02630508   5.274   7.157   6.152 -1.2513  1.0596 -0.3698
  1654G12c H00Y30509   5.381   7.169   6.133 -0.0804  2.1818  5.6638
  1654G12c H00X30510   5.239   7.054   6.142 -8.5966  3.6574 -5.8968
  1654G12c O00C30511   5.287   7.226   6.274  1.0969 -0.7654  0.0352
  1654G12c H00W30512   5.216   7.243   6.333  1.1607  5.2770 -1.3456
  1654G12c C02730513   5.100   7.301   6.073  0.8033 -1.3512 -0.2517
  1654G12c O00D30514   5.051   7.344   6.202 -0.4089 -0.1595  0.8734
  1654G12c H00Z30515   4.957   7.345   6.196 -0.2539  0.8100 -4.2050
  1654G12c C02830516   5.029   7.368   5.968  0.4934  0.1386 -1.1403
  1654G12c C02930517   5.050   7.345   5.823  0.3245  1.1333 -0.9042
  1654G12c H01030518   5.108   7.277   5.763 -1.6412  1.7475 -3.5858
  1654G12c C02T30519   4.971   7.423   5.733 -1.5289 -0.6126 -1.3095
  1654G12c H01O30520   4.954   7.416   5.627 -0.2314  4.8747 -2.0544
  1654G12c C02S30521   4.866   7.494   5.782  0.5359  1.8890 -0.5820
  1654G12c O00J30522   4.811   7.587   5.704 -0.7569 -1.6972 -0.9496
  1654G12c H01P30523   4.732   7.627   5.736 -1.5956 -4.4373  0.4809
  1654G12c C02R30524   4.845   7.515   5.923  1.5797  1.6467 -0.0831
  1654G12c O00I30525   4.741   7.602   5.967  1.0737 -0.5152 -0.2793
  1654G12c C02Q30526   4.649   7.608   6.081 -0.5511 -0.8629 -0.7438
  1654G12c H01N30527   4.551   7.564   6.099 -1.4717  2.1125  2.0189
  1654G12c H01R30528   4.612   7.710   6.088 -1.4565 -1.0116 -2.9932
  1654G12c H01Q30529   4.708   7.605   6.173  1.7966  0.5947 -2.1637
  1654G12c C02A30530   4.917   7.451   6.008  0.0058  1.2228  0.9422
  1654G12c H01130531   4.899   7.474   6.111 -3.5619  5.6382 -0.5432
  1654G12c C00C30532   5.093   7.031   5.872 -0.3779 -0.6080 -1.2758
  1654G12c H01230533   5.012   7.062   5.936  1.1598  5.4300 -1.8877
  1654G12c C00B30534   5.069   6.897   5.841 -0.6280 -0.7350  0.7745
  1654G12c C00A30535   4.977   6.808   5.910 -0.5738  1.4383 -0.1038
  1654G12c C00930536   4.981   6.813   6.065 -1.1988 -0.6775 -0.3206
  1654G12c C00830537   4.979   6.894   6.174  0.7372 -0.0406  0.9657
  1654G12c H01330538   4.995   6.997   6.144  2.2458  0.0846  2.1932
  1654G12c C00730539   5.004   6.850   6.318  1.2243  0.4397 -0.8698
  1654G12c H01430540   5.016   6.911   6.406  5.8069 -2.9052  0.9703
  1654G12c C00630541   4.984   6.706   6.355 -0.6633 -0.6328 -2.2661
  1654G12c C00530542   4.975   6.622   6.243 -0.3758  0.6203 -2.3984
  1654G12c C00430543   5.016   6.485   6.237 -0.0045  3.0593  0.2070
  1654G12c C00330544   5.027   6.408   6.118  1.2001 -1.5378  0.6442
  1654G12c C00230545   5.039   6.279   6.137 -0.7740  0.2454 -0.0539
  1654G12c C00130546   5.047   6.166   6.056 -0.5606  0.8625  0.6356
  1654G12c C00M30547   5.112   6.163   5.912  1.1316  0.1031 -0.9432
  1654G12c C00L30548   5.090   6.264   5.827  0.0110 -0.0575  0.9933
  1654G12c C00R30549   5.166   6.298   5.713 -0.7319  0.0368  0.1332
  1654G12c C00Q30550   5.284   6.221   5.653 -0.9315  1.6588  0.0404
  1654G12c C00V30551   5.345   6.308   5.550  0.2717  0.6436  1.9654
  1654G12c C00U30552   5.309   6.443   5.523 -0.1392 -0.5307  0.7113
  1654G12c C00T30553   5.209   6.509   5.587  1.0946  0.1244 -0.4280
  1654G12c C01630554   5.189   6.646   5.583  1.8837 -1.0711 -0.3731
  1654G12c C01530555   5.275   6.724   5.509  0.0484  1.2438  1.0316
  1654G12c C01030556   5.365   6.660   5.430  0.0899  0.5502 -0.8762
  1654G12c C01130557   5.463   6.738   5.377  0.4618 -0.0256  1.2406
  1654G12c H00530558   5.535   6.712   5.301  2.4419  5.2220  1.1061
  1654G12c C01230559   5.458   6.882   5.369  0.7927 -0.3024  1.8799
  1654G12c C01730560   5.546   6.970   5.298  1.6444  0.8234 -0.3803
  1654G12c O00230561   5.668   6.956   5.353  0.4965  0.4395 -0.8765
  1654G12c H00430562   5.643   6.884   5.408 -0.3559  0.4607 -1.2353
  1654G12c C01830563   5.496   7.048   5.197  0.6960  1.3585 -0.5403
  1654G12c O00130564   5.350   7.064   5.179 -0.9752  0.7642  0.8226
  1654G12c H00330565   5.317   7.087   5.094  1.8982 -2.0790 -1.2030
  1654G12c C01930566   5.591   7.145   5.118  0.3960 -1.3411  1.4816
  1654G12c H00230567   5.696   7.117   5.125  1.2511  0.8657 -1.5149
  1654G12c H00130568   5.585   7.124   5.011 -4.5118  1.4265  1.0540
  1654G12c O00030569   5.577   7.274   5.183  0.0333 -0.3226 -0.3950
  1654G12c C01A30570   5.564   7.380   5.105 -0.0674 -0.5307  0.4667
  1654G12c C02K30571   5.657   7.451   5.022  0.1070  1.7706  0.3089
  1654G12c O00G30572   5.791   7.418   5.011  0.5443  1.3374  0.7372
  1654G12c C02M30573   5.827   7.271   4.985  0.0833 -0.4233 -1.9502
  1654G12c H01G30574   5.763   7.217   4.915 -1.8142 -2.8299  1.5332
  1654G12c H01F30575   5.879   7.223   5.067  2.7457  2.4993 -1.8144
  1654G12c H01E30576   5.914   7.281   4.920  3.2429 -2.6074  1.7114
  1654G12c C02J30577   5.617   7.554   4.939 -0.8160 -1.0833  0.4227
  1654G12c H01H30578   5.693   7.590   4.872 -2.2792  0.1883 -0.6032
  1654G12c C02I30579   5.485   7.592   4.942 -0.4819 -0.8724 -1.2553
  1654G12c C02N30580   5.424   7.690   4.845 -0.3865  0.7830 -1.0066
  1654G12c H01M30581   5.317   7.698   4.830 -0.0282 -1.7698 -6.0122
  1654G12c C02O30582   5.480   7.818   4.830 -0.3666  1.0618  0.1232
  1654G12c H01L30583   5.453   7.903   4.769 -3.0120 -0.6777 -1.2023
  1654G12c C02P30584   5.591   7.877   4.923  0.9817 -0.9443 -1.1704
  1654G12c H01K30585   5.677   7.810   4.927  2.0874  0.1221 -5.0280
  1654G12c H01J30586   5.652   7.960   4.887  4.5867 -0.4414  5.3562
  1654G12c O00H30587   5.545   7.896   5.058  0.9359  0.1896 -0.6446
  1654G12c H01I30588   5.595   7.968   5.094 -4.4488  2.7413  2.4661
  1654G12c C02H30589   5.402   7.544   5.039  1.0236 -1.7781 -0.0950
  1654G12c H01C30590   5.311   7.602   5.041  4.4230  4.3558 -4.3374
  1654G12c C02L30591   5.439   7.440   5.129 -1.3635 -0.3940 -0.2193
  1654G12c H01D30592   5.351   7.394   5.170  2.4242 -2.5343  6.3170
  1654G12c C01330593   5.369   6.944   5.460  0.7731  1.5396  0.5323
  1654G12c H00030594   5.365   7.052   5.462 -1.5387  1.5634  6.7713
  1654G12c C01430595   5.291   6.860   5.544 -0.6428  0.8022 -0.1002
  1654G12c C00F30596   5.248   6.916   5.668 -0.3708 -0.2068  0.5567
  1654G12c C00H30597   5.101   6.713   5.685  0.9240  0.2535  0.6824
  1654G12c C00I30598   5.022   6.627   5.761  1.2451  1.6336 -2.9370
  1654G12c C00J30599   5.043   6.477   5.759  0.8382  0.4759  0.3247
  1654G12c C00Z30600   5.380   6.521   5.429  0.1669  0.2534  0.3046
  1654G12c C00Y30601   5.461   6.439   5.344 -0.2634  1.4048  0.0487
  1654G12c H00630602   5.509   6.470   5.252  0.3061 -0.7854 -0.4189
  1654G12c C00X30603   5.500   6.306   5.361  0.7746  0.2946  0.9432
  1654G12c O00330604   5.549   6.231   5.247 -0.3378 -0.1904 -1.4879
  1654G12c C01B30605   5.680   6.238   5.226 -1.8900 -0.1870  0.6454
  1654G12c H00930606   5.740   6.329   5.232 -0.3923 -1.2706  3.0347
  1654G12c H00830607   5.695   6.179   5.136 -4.7231 -4.7835  3.0465
  1654G12c H00730608   5.746   6.172   5.282  1.5549  3.3138  0.9822
  1654G12c C00W30609   5.432   6.239   5.457  1.8452 -0.1852  0.8229
  1654G12c O00430610   5.484   6.108   5.476  0.5253  0.5482 -0.1282
  1654G12c C01C30611   5.432   6.032   5.573 -0.7431  0.3919  0.3696
  1654G12c H00A30612   5.464   5.930   5.589 -2.2829  0.0686  1.4455
  1654G12c C00P30613   5.341   6.090   5.680  0.3480  0.1488  0.5422
  1654G12c C00O30614   5.316   6.044   5.817  1.3262 -0.2890 -1.2075
  1654G12c C01D30615   5.408   5.960   5.869  0.2257  0.5709  1.9971
  1654G12c H00S30616   5.471   5.909   5.798 -3.4265  2.9831 -3.4276
  1654G12c C01E30617   5.407   5.919   5.999  0.1553  1.1617 -0.1991
  1654G12c O00830618   5.484   5.812   6.044  1.6028  0.4109  0.0346
  1654G12c C01V30619   5.535   5.718   5.954 -0.1595  0.9997  0.3801
  1654G12c C01Z30620   5.684   5.712   5.882  1.2056  1.7995  1.5572
  1654G12c H00R30621   5.700   5.794   5.812  0.6811  1.0242  0.5162
  1654G12c H00Q30622   5.749   5.732   5.967  2.7058  3.2439  0.0944
  1654G12c O00930623   5.732   5.599   5.803 -0.5432 -1.1755  0.3716
  1654G12c H00P30624   5.817   5.583   5.840  0.0180  1.0471  0.1188
  1654G12c C01W30625   5.448   5.639   5.896 -1.9498  0.0877  1.1379
  1654G12c H00O30626   5.440   5.571   5.813 -4.3433  3.3517 -1.4628
  1654G12c C01X30627   5.330   5.609   5.996  0.4537 -0.8933 -0.5204
  1654G12c H00N30628   5.372   5.510   6.011 -1.9712 -2.8172 -5.3285
  1654G12c H00M30629   5.318   5.655   6.095 -2.4931 -0.2807 -1.0993
  1654G12c C01Y30630   5.195   5.631   5.950  0.5581 -1.0600 -0.7614
  1654G12c C02D30631   5.084   5.637   6.042  0.7256  2.2175 -0.3946
  1654G12c H01930632   5.081   5.609   6.146 -2.4748 -1.0144 -1.2519
  1654G12c C02C30633   4.951   5.674   6.002 -2.2280 -0.3546 -1.3825
  1654G12c H01A30634   4.879   5.669   6.083  0.2831 -3.2377  0.7886
  1654G12c C02B30635   4.919   5.707   5.868  1.7384  1.2661 -0.6810
  1654G12c O00E30636   4.801   5.749   5.821 -0.0064 -0.6453 -1.1397
  1654G12c H01B30637   4.763   5.812   5.880  3.9698  5.0275 -4.1577
  1654G12c C02F30638   5.039   5.726   5.792  1.1846 -0.2416 -0.1670
  1654G12c O00F30639   5.001   5.785   5.672  0.8159 -1.3731  1.1475
  1654G12c C02G30640   5.057   5.916   5.635 -0.5107 -1.1922  1.5122
  1654G12c H01730641   5.061   6.000   5.704 -1.9924  3.3122 -3.5113
  1654G12c H01630642   5.029   5.948   5.534  6.2223  4.8556  1.1440
  1654G12c H01530643   5.151   5.878   5.597  0.1449 -1.2458  3.1645
  1654G12c C02E30644   5.166   5.708   5.835  0.0909 -0.2459  0.0934
  1654G12c H01830645   5.230   5.705   5.747 -0.6364  3.2200 -0.6138
  1654G12c C01F30646   5.310   5.964   6.091 -0.4542  0.3539  1.1341
  1654G12c C01G30647   5.301   5.921   6.227 -1.5158 -0.6423 -0.1571
  1654G12c H00L30648   5.376   5.870   6.286 -6.4675 -7.6674  0.8273
  1654G12c C01H30649   5.207   5.992   6.317  0.2177 -1.4080  0.3613
  1654G12c H00B30650   5.247   6.012   6.415 -5.4645 -0.7358  2.6946
  1654G12c C01I30651   5.127   6.084   6.248  1.3120 -0.4399  0.2340
  1654G12c C01U30652   5.203   6.026   6.040 -2.1057  1.0304 -1.1103
  1654G12c C00S30653   5.132   6.420   5.672  0.9597 -1.6409  0.3123
  1654G12c C00K30654   5.037   6.392   5.866  0.7661  0.9232  0.1470
  1654G12c C00N30655   5.213   6.068   5.914  0.3994 -1.2741 -0.3244
  1654G12c C00030656   5.095   6.068   6.121 -0.9367  1.1913 -0.7364
  1654G12c C01J30657   5.113   6.230   6.259 -0.9396  0.0617 -0.8516
  1654G12c C01K30658   5.172   6.315   6.355 -0.4290  0.5518 -1.4617
  1654G12c C01P30659   5.256   6.285   6.467  0.1593  0.3878 -0.9742
  1654G12c C01Q30660   5.386   6.220   6.459 -1.1316 -0.4813 -2.3488
  1654G12c H00G30661   5.454   6.179   6.532 -2.1589  6.1506  2.8196
  1654G12c C01R30662   5.434   6.243   6.336 -1.3779  0.7387 -0.1773
  1654G12c H00F30663   5.377   6.295   6.261 -2.1272 -1.0363 -0.8755
  1654G12c C01S30664   5.581   6.202   6.270 -0.6863  0.2158 -0.4932
  1654G12c H00E30665   5.535   6.134   6.199 -0.3579 -0.7421  0.2008
  1654G12c H00D30666   5.646   6.144   6.335  2.9923 -3.9465 -7.2644
  1654G12c O00530667   5.625   6.326   6.236  0.2902 -1.2353  0.4452
  1654G12c H00C30668   5.552   6.372   6.197  1.0971  2.0842  2.6925
  1654G12c C01O30669   5.227   6.366   6.588  0.6090  0.1704 -1.3925
  1654G12c H00H30670   5.270   6.344   6.684 -4.4572  5.0280  2.2826
  1654G12c C01N30671   5.148   6.478   6.598 -0.8840 -1.8340 -0.2957
  1654G12c O00630672   5.149   6.570   6.712 -0.4303  0.4119  1.3266
  1654G12c C01T30673   5.268   6.574   6.787 -0.9738  0.2308 -0.7079
  1654G12c H00K30674   5.301   6.484   6.839  1.8885  0.9350 -1.2180
  1654G12c H00J30675   5.244   6.651   6.860  2.9326 -0.2251  1.1900
  1654G12c H00I30676   5.361   6.580   6.730  0.5917 -0.9697  1.6279
  1654G12c C01M30677   5.095   6.524   6.476  0.3456 -0.5044  0.0593
  1654G12c C02030678   5.013   6.464   5.990  1.6738  0.0797 -1.0149
  1654G12c C02130679   4.966   6.600   5.996  0.3067 -0.4896  1.2865
  1654G12c C01L30680   5.101   6.441   6.356  0.6356  0.7671  0.6696
  1654G12c O00730681   5.030   6.649   6.475 -0.6510  0.1905 -0.2343
  1654G12c C02230682   4.945   6.673   6.112 -0.8085  0.2752  1.2904
  1654G12c C02330683   4.963   6.681   5.872  1.5913  0.2457  0.6947
  1654G12c C00G30684   5.133   6.851   5.721  0.5365  1.7341  1.2049
  1654G12c C00E30685   5.306   7.021   5.728  0.5301 -2.1839 -0.1058
  1654G12c O00A30686   5.435   7.074   5.718  0.8844 -1.2529 -0.2314
  1654G12c C02430687   5.442   7.216   5.644 -2.2959 -0.1131 -0.7001
  1654G12c H00V30688   5.464   7.306   5.701 -1.3962  1.7064 -3.7811
  1654G12c H00U30689   5.357   7.261   5.593  1.5566  1.3474 -6.2792
  1654G12c H00T30690   5.541   7.205   5.598  0.5600 -4.1706  5.7360
  1664G12c C00D30691   0.226   8.459  10.713  0.8595 -1.4178  1.0813
  1664G12c O00B30692   0.288   8.540  10.613 -1.5814 -0.6911  0.4514
  1664G12c C02530693   0.393   8.474  10.547 -1.0794 -0.6362 -0.7572
  1664G12c C02630694   0.528   8.501  10.635 -0.1619  0.1871  1.4785
  1664G12c H00Y30695   0.519   8.609  10.648 -1.2866  0.6537 -2.7345
  1664G12c H00X30696   0.618   8.510  10.574  1.0357  2.2954  3.4491
  1664G12c O00C30697   0.518   8.392  10.730  0.0014  0.9195 -0.3263
  1664G12c H00W30698   0.492   8.447  10.803 -4.9084  3.2118 -3.5454
  1664G12c C02730699   0.392   8.423  10.429  1.9281  1.7406 -0.8690
  1664G12c O00D30700   0.485   8.344  10.374  0.2398 -0.7643  0.6705
  1664G12c H00Z30701   0.465   8.350  10.282  2.2372  2.0815  0.3580
  1664G12c C02830702   0.300   8.458  10.339  1.0342  0.0512 -0.3985
  1664G12c C02930703   0.316   8.566  10.263  0.1415  0.9382  1.2498
  1664G12c H01030704   0.418   8.603  10.259  0.5731 -0.0322  2.8665
  1664G12c C02T30705   0.209   8.623  10.189 -0.0603 -0.1585  0.1555
  1664G12c H01O30706   0.250   8.688  10.113  2.4352 -0.6583  1.0156
  1664G12c C02S30707   0.080   8.589  10.203  0.3838 -1.1344 -0.7794
  1664G12c O00J30708   0.008   8.639  10.102 -0.3395  0.2092  0.9855
  1664G12c H01P30709  -0.086   8.638  10.108 -0.1843 -3.2614  3.9061
  1664G12c C02R30710   0.051   8.469  10.290  0.4829 -1.7290  1.6181
  1664G12c O00I30711  -0.075   8.408  10.295  0.2225  0.6813 -0.7257
  1664G12c C02Q30712  -0.111   8.354  10.162 -2.2636 -0.5492  0.1253
  1664G12c H01N30713  -0.155   8.255  10.147  4.4447 -4.0221  1.3167
  1664G12c H01R30714  -0.028   8.342  10.093 -0.8060  2.8924  1.1748
  1664G12c H01Q30715  -0.180   8.432  10.130  2.0326  4.7368  2.9351
  1664G12c C02A30716   0.166   8.424  10.352  2.2252 -0.3734 -0.6414
  1664G12c H01130717   0.118   8.351  10.415 -1.3652  0.2255 -2.5440
  1664G12c C00C30718   0.089   8.419  10.696 -1.4974 -0.5165  1.7032
  1664G12c H01230719   0.032   8.449  10.609 -0.1847 -0.4910  0.8402
  1664G12c C00B30720   0.010   8.385  10.798  1.1449  0.7481  0.0044
  1664G12c C00A30721  -0.127   8.341  10.794 -0.0404 -0.0575 -1.8714
  1664G12c C00930722  -0.229   8.383  10.708 -1.6799  1.7005 -0.3488
  1664G12c C00830723  -0.230   8.488  10.605 -0.1950  0.5666 -0.9874
  1664G12c H01330724  -0.128   8.519  10.590  0.5609 -2.7612 -3.2115
  1664G12c C00730725  -0.335   8.571  10.587  0.6474  0.6080  0.2595
  1664G12c H01430726  -0.350   8.638  10.504 -4.1436 -1.1905 -0.4420
  1664G12c C00630727  -0.450   8.556  10.662 -0.5373  1.2981  0.3126
  1664G12c C00530728  -0.448   8.463  10.772  0.1088 -1.0479 -0.2150
  1664G12c C00430729  -0.550   8.472  10.873 -1.1938  1.5108 -0.6135
  1664G12c C00330730  -0.525   8.409  11.004 -1.2256 -0.1714 -0.0293
  1664G12c C00230731  -0.609   8.443  11.112  1.9492  2.4416 -1.0702
  1664G12c C00130732  -0.622   8.397  11.247  0.4214  0.5144 -0.7507
  1664G12c C00M30733  -0.495   8.397  11.335 -1.0447 -1.5933 -0.2851
  1664G12c C00L30734  -0.388   8.340  11.304  1.7534  0.0381  0.9116
  1664G12c C00R30735  -0.267   8.370  11.353 -0.9658  1.1346 -0.4704
  1664G12c C00Q30736  -0.227   8.452  11.472 -1.6149  0.6300  0.2726
  1664G12c C00V30737  -0.084   8.451  11.489  0.0826  0.6888 -0.5534
  1664G12c C00U30738   0.010   8.407  11.400 -1.0057 -0.0583 -0.2049
  1664G12c C00T30739  -0.032   8.378  11.276 -1.0672 -1.5070 -0.3994
  1664G12c C01630740   0.044   8.397  11.172 -1.2960  0.0712 -0.9219
  1664G12c C01530741   0.180   8.405  11.192 -1.3099 -0.0875  0.7976
  1664G12c C01030742   0.236   8.411  11.326 -0.3400  0.3431  0.2165
  1664G12c C01130743   0.388   8.390  11.338 -1.8348 -1.1112  0.3013
  1664G12c H00530744   0.437   8.381  11.433  1.3257 -0.8086 -1.2399
  1664G12c C01230745   0.472   8.390  11.217  0.0279 -1.0450 -0.2431
  1664G12c C01730746   0.620   8.360  11.238  1.3949  0.5308 -1.2810
  1664G12c O00230747   0.663   8.407  11.361  0.2766  1.2133 -0.6967
  1664G12c H00430748   0.736   8.452  11.323 -0.2782  0.6006 -2.5533
  1664G12c C01830749   0.691   8.347  11.132  1.5330  0.7253  1.0528
  1664G12c O00130750   0.640   8.274  11.025 -0.2297  0.2812  1.2645
  1664G12c H00330751   0.551   8.247  11.044  0.0817 -2.4824 -0.7746
  1664G12c C01930752   0.844   8.340  11.142  0.7907  0.5285 -0.6783
  1664G12c H00230753   0.851   8.279  11.231 -1.1853 -0.5796 -1.2503
  1664G12c H00130754   0.906   8.284  11.072  0.4901 -2.6915  1.5291
  1664G12c O00030755   0.864   8.465  11.199 -0.7164 -0.3080 -1.3121
  1664G12c C01A30756   0.844   8.570  11.108  0.9556 -0.3608 -1.2274
  1664G12c C02K30757   0.841   8.683  11.176  0.8071 -1.4509  0.0169
  1664G12c O00G30758   0.890   8.679  11.313  1.1047 -0.7037  0.8972
  1664G12c C02M30759   0.860   8.759  11.405  0.4712 -1.2058  0.3503
  1664G12c H01G30760   0.754   8.740  11.418  0.9980 -4.4335  0.3340
  1664G12c H01F30761   0.936   8.716  11.470  5.7268  3.0941 -2.4594
  1664G12c H01E30762   0.905   8.859  11.410  3.2438 -2.4392  1.3196
  1664G12c C02J30763   0.784   8.797  11.111 -1.5362  1.2516 -1.3407
  1664G12c H01H30764   0.773   8.897  11.149  1.3950  0.9067  0.5355
  1664G12c C02I30765   0.747   8.816  10.983  1.3253  1.5390  1.4465
  1664G12c C02N30766   0.718   8.948  10.942 -0.1285  1.0880  1.3588
  1664G12c H01M30767   0.799   9.019  10.931  0.5209  0.2668  0.7649
  1664G12c C02O30768   0.588   8.993  10.941  1.1528  0.1745  0.4897
  1664G12c H01L30769   0.524   8.921  10.988 -0.3674 -3.5306 -6.4934
  1664G12c C02P30770   0.578   9.144  10.920 -0.9822 -0.3271 -0.3650
  1664G12c H01K30771   0.666   9.206  10.941  0.2893 -1.1247 -3.0998
  1664G12c H01J30772   0.560   9.161  10.814  0.0692  2.2251 -0.1990
  1664G12c O00H30773   0.496   9.212  11.014 -0.6882  1.7703 -1.6968
  1664G12c H01I30774   0.494   9.302  10.983 -1.0053  2.8538  1.3176
  1664G12c C02H30775   0.777   8.698  10.904 -0.1807  0.7710  1.3256
  1664G12c H01C30776   0.781   8.707  10.797  1.4541 -0.3488  1.2678
  1664G12c C02L30777   0.809   8.567  10.965 -1.6093 -0.0599  0.4126
  1664G12c H01D30778   0.817   8.480  10.902 -0.1089  4.3847 -6.0666
  1664G12c C01330779   0.399   8.420  11.091  1.5088 -2.4554 -0.5519
  1664G12c H00030780   0.468   8.413  11.008  5.4644  2.8906  1.9852
  1664G12c C01430781   0.257   8.408  11.078 -1.9572 -2.1726 -0.8394
  1664G12c C00F30782   0.201   8.412  10.945  0.3227  0.7012 -1.4675
  1664G12c C00H30783   0.002   8.343  11.045  1.1085 -0.1807  0.2126
  1664G12c C00I30784  -0.138   8.301  11.035  0.0305  0.2323  1.0739
  1664G12c C00J30785  -0.205   8.274  11.158 -1.6777 -0.1171 -1.8560
  1664G12c C00Z30786   0.154   8.419  11.424 -0.9343 -0.8389  0.9618
  1664G12c C00Y30787   0.206   8.494  11.551 -1.2032  0.2841  1.1874
  1664G12c H00630788   0.313   8.478  11.552 -1.1183 -0.7043 -4.7386
  1664G12c C00X30789   0.105   8.509  11.652 -0.7172 -0.0353 -0.1625
  1664G12c O00330790   0.120   8.505  11.791 -0.8630 -0.7208 -0.0335
  1664G12c C01B30791   0.263   8.527  11.835 -0.6301 -0.1508 -0.7483
  1664G12c H00930792   0.291   8.568  11.932  6.8704 -4.4511 -0.6698
  1664G12c H00830793   0.297   8.591  11.753  0.4386 -0.6679 -0.7263
  1664G12c H00730794   0.337   8.454  11.800 -5.1880 -6.0759  1.2699
  1664G12c C00W30795  -0.025   8.496  11.612 -1.1100 -0.8023  0.7981
  1664G12c O00430796  -0.105   8.543  11.714  1.5066 -0.4590  0.1936
  1664G12c C01C30797  -0.231   8.548  11.696  0.2114 -0.8816 -0.8244
  1664G12c H00A30798  -0.268   8.604  11.780  3.3738  1.8005 -1.1226
  1664G12c C00P30799  -0.305   8.520  11.572 -0.4683 -0.9561  0.5268
  1664G12c C00O30800  -0.435   8.567  11.534  0.8656 -0.1351  1.4758
  1664G12c C01D30801  -0.505   8.678  11.608 -0.7114  1.7389 -0.3310
  1664G12c H00S30802  -0.439   8.737  11.671  1.7693 -1.6306  0.3954
  1664G12c C01E30803  -0.631   8.737  11.587  0.8502  1.0495  0.5464
  1664G12c O00830804  -0.671   8.867  11.633 -0.6957 -0.4967  0.0129
  1664G12c C01V30805  -0.696   8.849  11.770 -0.2006 -1.2564  0.4626
  1664G12c C01Z30806  -0.570   8.861  11.861  0.4788  0.6040 -2.9642
  1664G12c H00R30807  -0.598   8.842  11.965  1.6043  5.8227 -1.5579
  1664G12c H00Q30808  -0.475   8.810  11.844  3.4728  4.7323  0.3713
  1664G12c O00930809  -0.542   8.998  11.874 -0.0033  0.4096 -2.0890
  1664G12c H00P30810  -0.609   9.043  11.825 -0.0622  3.4799  0.6031
  1664G12c C01W30811  -0.833   8.855  11.804  0.2392 -0.2822 -0.0867
  1664G12c H00O30812  -0.907   8.872  11.728 -1.0604  0.5797  1.3476
  1664G12c C01X30813  -0.887   8.793  11.924  0.4846 -0.6152  0.3421
  1664G12c H00N30814  -0.964   8.725  11.889 -7.9564  4.9128  6.3033
  1664G12c H00M30815  -0.822   8.711  11.954  1.2514 -2.2162 -5.0355
  1664G12c C01Y30816  -0.927   8.909  12.017  0.3378 -0.3821 -0.2069
  1664G12c C02D30817  -1.048   8.911  12.093  0.5324  0.1803 -1.2782
  1664G12c H01930818  -1.100   8.817  12.103  4.3162 -2.0731 -1.6904
  1664G12c C02C30819  -1.105   9.020  12.148  0.6202 -0.2982 -0.0029
  1664G12c H01A30820  -1.199   9.003  12.199 -0.5240  2.3765 -1.1561
  1664G12c C02B30821  -1.050   9.145  12.130  0.3082  0.5552  0.7828
  1664G12c O00E30822  -1.092   9.243  12.197  0.5817  1.3462 -1.2283
  1664G12c H01B30823  -1.014   9.295  12.211  0.2348  0.2128  7.7256
  1664G12c C02F30824  -0.927   9.169  12.051 -0.1721  0.7969 -1.1315
  1664G12c O00F30825  -0.879   9.292  12.016 -0.7530  1.0011 -0.2528
  1664G12c C02G30826  -0.775   9.341  12.084  0.9016 -0.6301 -0.7591
  1664G12c H01730827  -0.704   9.275  12.132 -2.4201 -0.7650  4.3795
  1664G12c H01630828  -0.704   9.373  12.008  8.9198 -0.7293  6.0902
  1664G12c H01530829  -0.775   9.430  12.147 -0.4118 -4.0242  4.3412
  1664G12c C02E30830  -0.889   9.046  11.980  0.6710  0.5231 -1.4122
  1664G12c H01830831  -0.804   9.043  11.914  4.3021 -4.8634  3.0055
  1664G12c C01F30832  -0.706   8.663  11.484 -1.9209  0.6030 -0.8241
  1664G12c C01G30833  -0.800   8.742  11.398 -1.5113 -0.2356  0.5867
  1664G12c H00L30834  -0.835   8.841  11.421  4.0876  2.6463 -2.4284
  1664G12c C01H30835  -0.820   8.711  11.262 -1.6370 -0.1513  1.7662
  1664G12c H00B30836  -0.866   8.797  11.216 -2.1555  0.8758  4.1219
  1664G12c C01I30837  -0.782   8.573  11.209  0.3377  1.5725  0.4847
  1664G12c C01U30838  -0.648   8.540  11.425  0.3905 -2.2745  0.5159
  1664G12c C00S30839  -0.155   8.323  11.282  1.1314  0.2217  1.6257
  1664G12c C00K30840  -0.350   8.311  11.161  0.0371  0.3190 -0.4125
  1664G12c C00N30841  -0.512   8.500  11.428  1.0764 -0.1017 -0.0182
  1664G12c C00030842  -0.719   8.488  11.310  1.1255 -0.7650 -0.4273
  1664G12c C01J30843  -0.719   8.537  11.077  0.2620 -0.5544  0.0223
  1664G12c C01K30844  -0.748   8.594  10.950  1.1787 -0.4082 -0.1299
  1664G12c C01P30845  -0.844   8.684  10.926  0.2367  0.3882  0.5215
  1664G12c C01Q30846  -0.980   8.683  10.988  0.3422 -0.0810 -0.8012
  1664G12c H00G30847  -0.998   8.714  11.089  1.5142  2.8374 -1.4461
  1664G12c C01R30848  -1.090   8.619  10.923  0.2399 -1.7107  1.8612
  1664G12c H00F30849  -1.068   8.573  10.828  2.5997  3.9503 -0.5588
  1664G12c C01S30850  -1.209   8.607  11.014  1.4954 -1.2638 -1.4030
  1664G12c H00E30851  -1.282   8.563  10.946  0.2404 -3.7252  1.4758
  1664G12c H00D30852  -1.183   8.559  11.108  7.3458 -4.9989 -4.6152
  1664G12c O00530853  -1.246   8.743  11.020 -0.9208  0.0479 -0.4142
  1664G12c H00C30854  -1.260   8.777  10.933  0.8071 -0.6894 -1.0219
  1664G12c C01O30855  -0.852   8.754  10.818  0.5264  0.7348 -0.5430
  1664G12c H00H30856  -0.940   8.810  10.789  1.4315  3.1819  1.2459
  1664G12c C01N30857  -0.756   8.731  10.716  0.0732  0.6703  0.3965
  1664G12c O00630858  -0.807   8.787  10.599  1.0388  0.9234 -0.0861
  1664G12c C01T30859  -0.747   8.769  10.465  0.5857 -1.4368  0.4366
  1664G12c H00K30860  -0.813   8.804  10.386  3.8002  8.8740  1.6338
  1664G12c H00J30861  -0.735   8.664  10.438 -2.1729 -1.7300  0.2393
  1664G12c H00I30862  -0.652   8.821  10.471 -0.0514 -0.1572 -0.3992
  1664G12c C01M30863  -0.652   8.637  10.733  1.6951  1.5917  0.4299
  1664G12c C02030864  -0.414   8.318  11.020  0.4070  0.0494  1.0402
  1664G12c C02130865  -0.332   8.298  10.894  0.4592  0.7100  1.0831
  1664G12c C01L30866  -0.651   8.557  10.856  0.1786  0.1322  0.2312
  1664G12c O00730867  -0.548   8.643  10.641  0.2682  0.0153  0.6091
  1664G12c C02230868  -0.361   8.359  10.771 -0.7762  0.1676  1.0462
  1664G12c C02330869  -0.191   8.279  10.899  0.9163  0.2280  0.8410
  1664G12c C00G30870   0.076   8.359  10.926  0.7516 -1.3201  0.1730
  1664G12c C00E30871   0.277   8.472  10.844 -1.1914 -1.6765 -0.9479
  1664G12c O00A30872   0.358   8.585  10.865  0.4750  0.1370 -0.4326
  1664G12c C02430873   0.274   8.695  10.916  0.8593 -0.9760  1.6338
  1664G12c H00V30874   0.269   8.799  10.885 -6.0827 -1.0869  1.5148
  1664G12c H00U30875   0.336   8.689  11.006  2.0958  3.5245  1.2060
  1664G12c H00T30876   0.169   8.667  10.924  0.3348 -4.8753 -9.7344
  1674G12c C00D30877  11.015   5.328  13.247 -0.1699 -0.8841 -0.6576
  1674G12c O00B30878  10.945   5.255  13.348  1.0907  1.2326  0.3825
  1674G12c C02530879  10.860   5.315  13.441  1.8194  1.5678 -0.0799
  1674G12c C02630880  10.732   5.338  13.389 -0.7072  0.7887 -2.6283
  1674G12c H00Y30881  10.757   5.382  13.293 -2.5047  4.1333 -1.6544
  1674G12c H00X30882  10.689   5.417  13.452  2.7668  4.1018 -4.2463
  1674G12c O00C30883  10.630   5.237  13.426 -1.2118  0.3617  0.5777
  1674G12c H00W30884  10.603   5.195  13.346  2.3821  4.7300 -3.2830
  1674G12c C02730885  10.891   5.304  13.571  1.1878  2.1094 -1.3828
  1674G12c O00D30886  10.995   5.243  13.626  0.4611  0.7109  1.9644
  1674G12c H00Z30887  11.057   5.295  13.578 -0.0036 -1.3164 -0.9318
  1674G12c C02830888  10.805   5.349  13.680 -2.0644 -0.9542 -0.0135
  1674G12c C02930889  10.774   5.490  13.677  0.2654  1.1210  1.1563
  1674G12c H01030890  10.781   5.557  13.593 -0.0096 -0.9401 -0.5546
  1674G12c C02T30891  10.693   5.549  13.772 -0.1895  0.6351 -1.3017
  1674G12c H01O30892  10.658   5.641  13.728 -4.5032 -0.4612 -0.3276
  1674G12c C02S30893  10.647   5.487  13.895  0.0806  0.6738  0.0285
  1674G12c O00J30894  10.552   5.555  13.963  0.1748  0.6166  0.4641
  1674G12c H01P30895  10.608   5.619  14.004  3.4911  0.7132 -3.7805
  1674G12c C02R30896  10.697   5.348  13.909 -0.1278 -0.8082 -0.0459
  1674G12c O00I30897  10.699   5.284  14.028 -0.6670  1.1432 -0.4014
  1674G12c C02Q30898  10.618   5.339  14.125 -0.3571 -0.3115  1.1998
  1674G12c H01N30899  10.649   5.332  14.229  0.5978 -0.5205  0.9084
  1674G12c H01R30900  10.516   5.325  14.090 -0.6808  3.4917  0.4330
  1674G12c H01Q30901  10.592   5.443  14.143  2.4294  0.6690 -0.1915
  1674G12c C02A30902  10.780   5.289  13.809  2.0898 -0.2514 -1.2767
  1674G12c H01130903  10.793   5.196  13.862 -3.0924  1.8017  4.0663
  1674G12c C00C30904  11.032   5.465  13.255  0.4554 -1.0921  0.1510
  1674G12c H01230905  10.977   5.523  13.328 -2.4080  4.3366 -5.8187
  1674G12c C00B30906  11.146   5.529  13.201  0.1653 -0.1961  0.5162
  1674G12c C00A30907  11.184   5.661  13.245 -0.4259  1.6243 -0.6867
  1674G12c C00930908  11.095   5.760  13.299  1.5922  1.7768 -0.2233
  1674G12c C00830909  10.969   5.764  13.366 -0.4747 -1.5155 -1.4186
  1674G12c H01330910  10.919   5.679  13.410 -0.7871 -0.0624  1.1394
  1674G12c C00730911  10.892   5.884  13.360  0.5164 -0.3663  0.1634
  1674G12c H01430912  10.793   5.858  13.396 -0.0242 -2.4308 -2.6770
  1674G12c C00630913  10.926   6.002  13.281  0.5195  0.1437  2.1583
  1674G12c C00530914  11.050   5.993  13.221  0.6026 -0.1349 -1.8086
  1674G12c C00430915  11.095   6.087  13.115 -0.5543 -0.2923 -1.5880
  1674G12c C00330916  11.195   6.056  13.026 -0.1218  0.2710  1.7210
  1674G12c C00230917  11.229   6.143  12.913 -1.1695 -0.1701  0.5660
  1674G12c C00130918  11.327   6.162  12.802  0.5955 -0.0566 -0.1472
  1674G12c C00M30919  11.382   6.058  12.725  0.9253 -1.4952  0.8481
  1674G12c C00L30920  11.373   5.923  12.771  1.0591  1.0095  0.2356
  1674G12c C00R30921  11.411   5.809  12.707  0.1614  0.1560  0.8931
  1674G12c C00Q30922  11.407   5.783  12.569  0.7124  1.7223 -1.1246
  1674G12c C00V30923  11.423   5.633  12.544  0.6421 -0.0182  0.9956
  1674G12c C00U30924  11.394   5.537  12.644  0.9470 -0.1048  0.2617
  1674G12c C00T30925  11.380   5.569  12.777  0.2113  0.0909 -0.1229
  1674G12c C01630926  11.338   5.481  12.880 -1.3991  0.5897  2.1640
  1674G12c C01530927  11.315   5.352  12.852  1.2596  0.3916 -0.4722
  1674G12c C01030928  11.332   5.319  12.715 -0.9670  0.0209  0.1108
  1674G12c C01130929  11.294   5.185  12.667 -0.8639  0.4576  0.2244
  1674G12c H00530930  11.277   5.154  12.565 -3.2850 -8.6459  2.9481
  1674G12c C01230931  11.268   5.087  12.761  1.0250 -1.5743  0.3804
  1674G12c C01730932  11.247   4.946  12.728 -2.0240 -0.4092 -0.7219
  1674G12c O00230933  11.118   4.904  12.742  0.5137  0.5243 -1.2098
  1674G12c H00430934  11.135   4.812  12.734  0.6689  0.4936 -0.4742
  1674G12c C01830935  11.345   4.864  12.691  0.2384  0.6721 -1.0343
  1674G12c O00130936  11.468   4.910  12.651 -1.1355 -1.7694 -0.8348
  1674G12c H00330937  11.525   4.835  12.651 -0.5568 -1.3369 -0.5164
  1674G12c C01930938  11.328   4.712  12.671 -0.3131 -0.1759 -0.1692
  1674G12c H00230939  11.242   4.716  12.605 -1.6210  7.0643  1.5575
  1674G12c H00130940  11.408   4.656  12.623 -6.9934 -5.4138 -6.3306
  1674G12c O00030941  11.304   4.634  12.790  0.2561 -0.6020  0.2531
  1674G12c C01A30942  11.410   4.556  12.837 -0.0242  0.3424  1.2257
  1674G12c C02K30943  11.554   4.575  12.826 -0.3510 -0.3015  1.1034
  1674G12c O00G30944  11.597   4.653  12.716  0.2617  0.2433  0.0432
  1674G12c C02M30945  11.742   4.633  12.681 -0.8116  1.7390  0.2907
  1674G12c H01G30946  11.792   4.537  12.697 -6.0359 -1.9708 -3.8883
  1674G12c H01F30947  11.729   4.634  12.573  4.1719 -5.1783 -0.7598
  1674G12c H01E30948  11.808   4.712  12.716 -1.8078  1.6046  2.5372
  1674G12c C02J30949  11.651   4.525  12.909 -1.3670  0.1343 -0.3824
  1674G12c H01H30950  11.758   4.525  12.891 -2.1552  1.4438 -6.4365
  1674G12c C02I30951  11.610   4.419  12.998 -0.7979  0.3013  0.4402
  1674G12c C02N30952  11.697   4.351  13.104  1.5193 -0.6677 -0.8331
  1674G12c H01M30953  11.687   4.245  13.091 -2.1105 -0.4355 -0.4106
  1674G12c C02O30954  11.792   4.423  13.176 -0.1324  1.5230  0.1521
  1674G12c H01L30955  11.799   4.525  13.141 -0.5070  5.0264  8.9462
  1674G12c C02P30956  11.887   4.369  13.279 -0.1951  0.1167  1.1510
  1674G12c H01K30957  11.865   4.308  13.367  2.3299 -0.2620  1.5512
  1674G12c H01J30958  11.945   4.299  13.219 -3.6908 -2.7863  0.9707
  1674G12c O00H30959  11.973   4.479  13.318 -0.3616 -0.4584 -0.0883
  1674G12c H01I30960  12.007   4.423  13.387 -2.8090 -4.7037 -2.1510
  1674G12c C02H30961  11.466   4.413  13.008 -0.8381  0.2499 -1.2280
  1674G12c H01C30962  11.422   4.351  13.085 -5.2215  0.8874 -3.0570
  1674G12c C02L30963  11.368   4.485  12.942  0.6048  0.0835  0.9235
  1674G12c H01D30964  11.266   4.491  12.976 -1.8394 -2.3346 -5.1328
  1674G12c C01330965  11.258   5.129  12.894  0.1702  2.0309  1.1207
  1674G12c H00030966  11.248   5.056  12.973  1.2578  1.4127  0.6959
  1674G12c C01430967  11.254   5.265  12.943 -1.6154  1.8114  1.1396
  1674G12c C00F30968  11.199   5.323  13.065  0.1169 -0.5768 -1.6762
  1674G12c C00H30969  11.303   5.534  13.012  0.2730 -2.0342  0.4767
  1674G12c C00I30970  11.324   5.669  13.033  0.2587  0.3191  0.2139
  1674G12c C00J30971  11.372   5.754  12.920  1.6848 -1.7931  0.4154
  1674G12c C00Z30972  11.374   5.410  12.612 -0.0774 -0.4970 -0.0659
  1674G12c C00Y30973  11.404   5.359  12.480 -1.6399 -0.3595  0.0837
  1674G12c H00630974  11.407   5.254  12.457 -2.9266  0.1131 -2.5521
  1674G12c C00X30975  11.420   5.457  12.386  0.9277 -0.3225 -2.1114
  1674G12c O00330976  11.436   5.415  12.254  1.6781  0.8901 -2.4080
  1674G12c C01B30977  11.340   5.326  12.184  0.2384 -0.0926  0.0785
  1674G12c H00930978  11.268   5.383  12.126 -0.4690 -4.0854 -3.1672
  1674G12c H00830979  11.333   5.237  12.246 -2.0716 -2.6682 -3.6883
  1674G12c H00730980  11.391   5.278  12.100 -6.1174 -3.2727 -2.2975
  1674G12c C00W30981  11.417   5.594  12.416  1.3164  0.7675 -1.6492
  1674G12c O00430982  11.401   5.667  12.300 -0.3509 -0.3853  1.2698
  1674G12c C01C30983  11.414   5.804  12.322 -1.4206 -0.0511  0.5337
  1674G12c H00A30984  11.458   5.860  12.241 -0.4676  0.0981  1.1482
  1674G12c C00P30985  11.379   5.858  12.454 -0.3865  1.4482  0.8331
  1674G12c C00O30986  11.351   6.001  12.476 -0.9666  1.2261 -1.3184
  1674G12c C01D30987  11.305   6.070  12.351 -0.2078  0.0293  0.2822
  1674G12c H00S30988  11.278   5.994  12.279  7.5180  0.7238 -3.9063
  1674G12c C01E30989  11.225   6.189  12.364 -0.6864  2.1716  0.8750
  1674G12c O00830990  11.147   6.213  12.241  0.5703 -0.2101 -0.6313
  1674G12c C01V30991  11.210   6.305  12.141  0.4036  0.2418  0.1589
  1674G12c C01Z30992  11.134   6.445  12.128 -0.4253 -0.5992 -0.5839
  1674G12c H00R30993  11.066   6.483  12.204 -0.2310  3.9001 -2.5261
  1674G12c H00Q30994  11.167   6.548  12.118 -3.4090  0.4112 -0.5762
  1674G12c O00930995  11.060   6.439  12.008  0.2174 -0.6947 -0.3415
  1674G12c H00P30996  11.100   6.363  11.970 -3.0004 -0.9482 -3.4428
  1674G12c C01W30997  11.328   6.271  12.084  0.7225  0.4147 -1.2195
  1674G12c H00O30998  11.373   6.178  12.116  1.6058  0.3143 -2.7092
  1674G12c C01X30999  11.407   6.384  12.021 -0.1161  0.1993 -0.7886
  1674G12c H00N31000  11.408   6.369  11.913  2.2331 -2.4387 -0.4378
  1674G12c H00M31001  11.357   6.480  12.037  1.5301  1.2332 -1.7068
  1674G12c C01Y31002  11.542   6.407  12.079  1.5855 -1.8927 -1.1353
  1674G12c C02D31003  11.623   6.512  12.017 -0.5425 -1.2342  0.4552
  1674G12c H01931004  11.581   6.537  11.921 -1.2842  1.2538  1.3937
  1674G12c C02C31005  11.730   6.580  12.082 -0.1295  0.8382  0.1773
  1674G12c H01A31006  11.779   6.665  12.039 -4.8611  3.7127  0.1538
  1674G12c C02B31007  11.760   6.532  12.212 -0.0885  0.1259  0.4080
  1674G12c O00E31008  11.887   6.573  12.254 -0.3632 -0.2440  0.2667
  1674G12c H01B31009  11.913   6.561  12.344  5.2538  3.0362 -0.6506
  1674G12c C02F31010  11.686   6.432  12.278  0.9669  0.9832  0.2674
  1674G12c O00F31011  11.734   6.427  12.411 -0.4480 -1.7559  0.6742
  1674G12c C02G31012  11.653   6.327  12.494 -1.1014 -1.0810  0.5056
  1674G12c H01731013  11.686   6.225  12.473  1.8540  0.2567 -1.6149
  1674G12c H01631014  11.551   6.343  12.461  0.8791 -3.9374 -8.1088
  1674G12c H01531015  11.662   6.295  12.598  0.8965 -0.9718  0.3948
  1674G12c C02E31016  11.564   6.361  12.221  2.0138 -0.0581 -0.0858
  1674G12c H01831017  11.531   6.264  12.253  0.7534  1.3445  3.0615
  1674G12c C01F31018  11.197   6.236  12.486  0.1069  1.1270  0.8606
  1674G12c C01G31019  11.087   6.322  12.519  0.2578  0.5208  1.5921
  1674G12c H00L31020  11.014   6.388  12.474 -1.2403 -1.9633  0.3382
  1674G12c C01H31021  11.070   6.350  12.653  0.7703  0.4191  1.2907
  1674G12c H00B31022  10.978   6.400  12.680 -0.2203  1.5826 -3.6556
  1674G12c C01I31023  11.151   6.300  12.750  0.4014  1.6172  0.1890
  1674G12c C01U31024  11.274   6.199  12.603  0.6992 -0.4600  0.7640
  1674G12c C00S31025  11.401   5.708  12.799  0.4946  0.7602 -1.6439
  1674G12c C00K31026  11.354   5.898  12.912  1.2458  0.7979  1.8567
  1674G12c C00N31027  11.351   6.084  12.591 -0.4552 -0.2082  0.6237
  1674G12c C00031028  11.270   6.252  12.720 -0.7378  0.6660  0.2600
  1674G12c C01J31029  11.151   6.257  12.889 -0.3647 -0.6346 -1.2670
  1674G12c C01K31030  11.026   6.292  12.967 -1.3817  1.2776 -0.0293
  1674G12c C01P31031  10.935   6.411  12.961  0.0539  0.1935 -1.4982
  1674G12c C01Q31032  10.995   6.526  12.912  2.5563 -0.0758  0.0150
  1674G12c H00G31033  10.945   6.610  12.866 -1.7423 -0.5728  3.4882
  1674G12c C01R31034  11.132   6.551  12.932  0.1194  0.6432  0.4635
  1674G12c H00F31035  11.185   6.609  12.858  0.1670  1.7372  1.3418
  1674G12c C01S31036  11.237   6.490  13.021 -1.1163  1.0551 -1.0267
  1674G12c H00E31037  11.309   6.416  12.984  0.7596  3.2255 -1.8250
  1674G12c H00D31038  11.328   6.548  13.039  3.4646 -6.2372  1.5821
  1674G12c O00531039  11.201   6.500  13.170 -2.3424  0.7325 -0.5827
  1674G12c H00C31040  11.131   6.440  13.192 -0.2139 -2.3216 -1.7006
  1674G12c C01O31041  10.815   6.400  13.036  0.7883 -0.7425 -0.7100
  1674G12c H00H31042  10.772   6.493  13.071  3.3141  2.4175 -5.4642
  1674G12c C01N31043  10.770   6.283  13.115  0.0651  0.0883 -0.7369
  1674G12c O00631044  10.665   6.295  13.218 -0.2018 -0.8014 -0.4870
  1674G12c C01T31045  10.550   6.241  13.185  1.2522 -1.1277 -0.4718
  1674G12c H00K31046  10.494   6.322  13.231  3.0114  2.3501 -4.1322
  1674G12c H00J31047  10.517   6.175  13.104  4.1735 -3.6217  0.2519
  1674G12c H00I31048  10.538   6.166  13.263 -3.6275  1.3827  1.4118
  1674G12c C01M31049  10.873   6.187  13.132 -0.3607  0.2580  0.6226
  1674G12c C02031050  11.283   5.947  13.036  0.4351  1.8029  1.1450
  1674G12c C02131051  11.253   5.872  13.155 -1.0426  1.9408 -0.7430
  1674G12c C01L31052  11.002   6.193  13.074  0.4016  1.0633  1.6400
  1674G12c O00731053  10.834   6.085  13.218  0.1016  0.8440 -0.3382
  1674G12c C02231054  11.142   5.893  13.249 -0.6474 -0.8906 -0.9110
  1674G12c C02331055  11.291   5.727  13.169 -0.6296  0.6576 -0.5597
  1674G12c C00G31056  11.221   5.462  13.101  0.4756 -2.1906 -0.1987
  1674G12c C00E31057  11.093   5.252  13.154 -0.7323 -1.7318 -1.2147
  1674G12c O00A31058  11.081   5.123  13.114 -0.8269 -0.9012  0.5230
  1674G12c C02431059  10.956   5.042  13.137 -0.0448 -0.5038 -0.7600
  1674G12c H00V31060  10.904   5.000  13.051 -4.0749  4.6566 -1.0642
  1674G12c H00U31061  10.903   5.075  13.226  0.0318 -0.6596 -0.6566
  1674G12c H00T31062  10.991   4.945  13.174  1.1785 -1.5066 -4.3504
  1684G12c C00D31063  12.285   2.160   6.631 -0.0357 -1.1204 -1.5622
  1684G12c O00B31064  12.383   2.144   6.725  0.1319  1.0186 -1.1490
  1684G12c C02531065  12.512   2.132   6.671 -1.4105 -0.0201 -0.9182
  1684G12c C02631066  12.537   1.984   6.633 -0.0165  0.4353 -0.3857
  1684G12c H00Y31067  12.567   1.936   6.726  3.5104  3.1597 -0.0312
  1684G12c H00X31068  12.620   1.929   6.588  0.3884  2.7532 -2.6412
  1684G12c O00C31069  12.413   1.915   6.590 -1.2294 -0.7933  1.4522
  1684G12c H00W31070  12.336   1.967   6.609  1.5346  1.8154  6.9429
  1684G12c C02731071  12.582   2.236   6.638 -0.9483 -2.3275  0.5036
  1684G12c O00D31072  12.702   2.227   6.571  1.7747  1.0581 -0.5639
  1684G12c H00Z31073  12.759   2.302   6.577  2.2535  0.7695 -1.3925
  1684G12c C02831074  12.575   2.356   6.724 -1.6052 -0.8257 -0.8737
  1684G12c C02931075  12.575   2.355   6.862 -2.3658 -0.2545  0.3475
  1684G12c H01031076  12.550   2.256   6.897  1.5630 -1.7523 -0.7758
  1684G12c C02T31077  12.596   2.485   6.932  1.5832 -0.4398 -0.9096
  1684G12c H01O31078  12.610   2.455   7.035 -2.4409 -3.5882 -1.1659
  1684G12c C02S31079  12.565   2.607   6.866 -1.0933  0.4167  0.0308
  1684G12c O00J31080  12.516   2.706   6.932  1.5014 -0.8411 -0.4929
  1684G12c H01P31081  12.531   2.793   6.898 -6.7178  0.8435 -0.9258
  1684G12c C02R31082  12.568   2.608   6.720 -0.7395 -1.8705 -0.5107
  1684G12c O00I31083  12.564   2.735   6.642  1.4890 -0.2443 -0.4490
  1684G12c C02Q31084  12.682   2.770   6.606 -1.9936  0.8557  0.7513
  1684G12c H01N31085  12.744   2.707   6.543 -3.4339 -0.0028  0.1705
  1684G12c H01R31086  12.723   2.815   6.696 -1.4794 -2.2830  2.1727
  1684G12c H01Q31087  12.673   2.843   6.526 -1.3761 -2.0876 -2.1145
  1684G12c C02A31088  12.599   2.482   6.659 -0.1443 -0.0965  0.8877
  1684G12c H01131089  12.652   2.510   6.569  4.4353  0.8122  3.7220
  1684G12c C00C31090  12.275   2.298   6.579 -0.2812 -0.3999  0.7857
  1684G12c H01231091  12.363   2.357   6.601  3.4644 -6.3570  3.1275
  1684G12c C00B31092  12.194   2.321   6.477  0.6817  2.4140  1.7468
  1684G12c C00A31093  12.191   2.455   6.413 -0.2221 -2.1519  0.1804
  1684G12c C00931094  12.192   2.580   6.471 -1.4311  1.1801  0.5286
  1684G12c C00831095  12.223   2.626   6.603 -0.9466 -0.5184  1.1832
  1684G12c H01331096  12.293   2.560   6.652  0.0008 -3.3856 -3.7020
  1684G12c C00731097  12.182   2.770   6.627  0.7088 -0.2160 -0.5179
  1684G12c H01431098  12.237   2.787   6.718  0.2543 -0.4163 -0.2045
  1684G12c C00631099  12.108   2.846   6.546 -0.7725 -0.8017  2.4904
  1684G12c C00531100  12.097   2.789   6.415  1.5106  0.8030  1.2710
  1684G12c C00431101  12.020   2.843   6.310 -0.3141 -3.3681  0.0291
  1684G12c C00331102  11.959   2.756   6.214 -0.8902 -0.2299 -0.0138
  1684G12c C00231103  11.868   2.817   6.115 -0.8618 -0.6631 -1.8823
  1684G12c C00131104  11.796   2.767   5.988 -0.9383  0.2630  0.5456
  1684G12c C00M31105  11.728   2.646   5.998 -0.9748  1.2986 -0.3504
  1684G12c C00L31106  11.782   2.545   6.086 -0.8712 -1.7996 -1.3388
  1684G12c C00R31107  11.702   2.429   6.129  0.0055 -0.2775  0.3817
  1684G12c C00Q31108  11.564   2.398   6.128 -1.0697  1.4577  0.7927
  1684G12c C00V31109  11.548   2.278   6.207  1.3956  0.1638 -0.2566
  1684G12c C00U31110  11.638   2.209   6.276 -1.4026  0.7901  0.8082
  1684G12c C00T31111  11.767   2.240   6.264 -0.4976 -0.1066  0.6615
  1684G12c C01631112  11.875   2.186   6.332 -0.8298 -0.1064 -2.0623
  1684G12c C01531113  11.855   2.065   6.395  0.6994 -0.8811  0.9245
  1684G12c C01031114  11.725   2.014   6.402 -1.1536  0.3583 -0.9053
  1684G12c C01131115  11.697   1.893   6.474  0.5111  0.1352  1.8617
  1684G12c H00531116  11.596   1.857   6.479  1.6903 -3.2116 11.8635
  1684G12c C01231117  11.807   1.846   6.557  0.0808 -1.1619  0.1291
  1684G12c C01731118  11.809   1.754   6.668  1.1589 -0.8113 -1.7427
  1684G12c O00231119  11.823   1.819   6.786  0.4378 -0.4090  0.4380
  1684G12c H00431120  11.806   1.746   6.843 -9.3086 -0.4267 -1.6456
  1684G12c C01831121  11.819   1.620   6.638 -0.0021 -1.2061  0.0526
  1684G12c O00131122  11.786   1.575   6.517  0.0455  0.3072 -0.4025
  1684G12c H00331123  11.729   1.500   6.512  2.7886 -1.6642 -3.4032
  1684G12c C01931124  11.826   1.516   6.751 -0.5491 -0.7404 -0.0284
  1684G12c H00231125  11.925   1.471   6.749 -0.4317 -0.5033  0.4873
  1684G12c H00131126  11.855   1.577   6.836 -0.9659 -4.7921  3.1814
  1684G12c O00031127  11.701   1.460   6.794  0.2649 -1.2823  0.8928
  1684G12c C01A31128  11.615   1.354   6.753  0.2197  0.2482  0.7085
  1684G12c C02K31129  11.636   1.271   6.630  1.1991 -0.1578  0.4167
  1684G12c O00G31130  11.759   1.217   6.595  0.2456 -1.8852  2.0546
  1684G12c C02M31131  11.880   1.208   6.669  0.8004  0.5961  0.0402
  1684G12c H01G31132  11.920   1.107   6.680 -3.3138 -0.8716  2.4503
  1684G12c H01F31133  11.866   1.266   6.761 -1.2866 -3.1119  2.1766
  1684G12c H01E31134  11.973   1.247   6.626  3.4548 -2.6572  2.5271
  1684G12c C02J31135  11.527   1.218   6.573  0.3643  1.1329  0.0239
  1684G12c H01H31136  11.534   1.170   6.476  2.6742 -3.0667  2.1354
  1684G12c C02I31137  11.422   1.224   6.650 -0.4178 -1.3616 -0.3763
  1684G12c C02N31138  11.295   1.186   6.600 -0.1100 -2.2604  0.6642
  1684G12c H01M31139  11.241   1.094   6.582 -1.8916 -0.5664 -3.5038
  1684G12c C02O31140  11.204   1.260   6.570 -0.6962  0.1782  1.5795
  1684G12c H01L31141  11.112   1.203   6.568  2.9535 -6.2850  2.6465
  1684G12c C02P31142  11.227   1.408   6.545 -0.4609 -0.7556 -0.5101
  1684G12c H01K31143  11.329   1.401   6.509 -1.3797  1.1445 -3.6785
  1684G12c H01J31144  11.170   1.450   6.462 -3.2800  1.7375  2.5220
  1684G12c O00H31145  11.221   1.439   6.677 -0.6124 -0.3969  0.6113
  1684G12c H01I31146  11.286   1.387   6.722 -1.1487 -0.5709  1.1903
  1684G12c C02H31147  11.414   1.280   6.789  0.3391 -0.8236  2.3328
  1684G12c H01C31148  11.327   1.243   6.841 -1.2698 -4.7258 -2.7213
  1684G12c C02L31149  11.507   1.360   6.836  1.8856 -0.3875 -0.1252
  1684G12c H01D31150  11.490   1.403   6.934 -4.4610  2.3282 -2.1131
  1684G12c C01331151  11.934   1.897   6.537 -0.4516 -0.6279 -1.0966
  1684G12c H00031152  12.006   1.833   6.586  3.0222 -0.3418 -5.4478
  1684G12c C01431153  11.954   2.027   6.469 -0.9525  2.2882 -0.2240
  1684G12c C00F31154  12.085   2.096   6.490  1.3819  0.0017 -1.0839
  1684G12c C00H31155  12.007   2.254   6.339  1.4505 -1.7254 -1.2896
  1684G12c C00I31156  12.025   2.364   6.254  1.7232  0.7056  0.1576
  1684G12c C00J31157  11.933   2.392   6.154 -1.1099  1.3570 -1.0726
  1684G12c C00Z31158  11.619   2.099   6.360  0.3034 -1.1859 -0.7529
  1684G12c C00Y31159  11.487   2.062   6.395 -0.5251  0.2067  1.4129
  1684G12c H00631160  11.466   1.995   6.476  1.2890 -0.7663  1.0970
  1684G12c C00X31161  11.389   2.130   6.315  0.3927  1.4874 -1.0427
  1684G12c O00331162  11.275   2.038   6.293  0.2710  0.1335 -0.4408
  1684G12c C01B31163  11.231   1.958   6.392 -0.0709 -1.0040  0.5500
  1684G12c H00931164  11.307   1.882   6.406 -0.6039 -1.3527  1.6400
  1684G12c H00831165  11.164   1.888   6.341 -3.3900 -0.1179  3.4555
  1684G12c H00731166  11.175   2.021   6.462 -3.5667 -3.8095  0.4270
  1684G12c C00W31167  11.413   2.224   6.216 -1.4740 -0.3929  0.0342
  1684G12c O00431168  11.310   2.275   6.135  0.7773 -1.4835  0.5720
  1684G12c C01C31169  11.342   2.373   6.039 -1.6628  0.6936  0.3181
  1684G12c H00A31170  11.258   2.399   5.976 -1.1912 -4.3833 -2.7209
  1684G12c C00P31171  11.458   2.453   6.059 -0.0275 -0.1723 -1.2141
  1684G12c C00O31172  11.473   2.583   6.014  0.4971 -0.3993  0.1053
  1684G12c C01D31173  11.356   2.654   5.995  2.4626 -1.1212  0.5538
  1684G12c H00S31174  11.265   2.619   5.946  4.6626  3.4005 -7.7116
  1684G12c C01E31175  11.344   2.798   5.979 -1.4022  0.4218  1.0896
  1684G12c O00831176  11.243   2.887   5.993  0.0930  0.1901  1.0090
  1684G12c C01V31177  11.122   2.837   6.038 -0.0348  1.0578  1.8056
  1684G12c C01Z31178  11.073   2.884   6.174  1.1377 -1.2114 -0.7755
  1684G12c H00R31179  11.075   2.993   6.172  3.1607 -1.1486  1.8684
  1684G12c H00Q31180  10.965   2.894   6.184  0.6464 -5.6157 -0.6721
  1684G12c O00931181  11.130   2.818   6.300  0.1385  0.2619  1.8053
  1684G12c H00P31182  11.221   2.843   6.308 -0.5092  2.8032  1.5357
  1684G12c C01W31183  11.044   2.757   5.960  0.3411 -0.7663 -0.1620
  1684G12c H00O31184  11.089   2.745   5.862  7.1683 -2.5295  2.8951
  1684G12c C01X31185  10.907   2.707   5.988 -0.5598  1.0000 -2.1116
  1684G12c H00N31186  10.846   2.771   6.052  0.3043  1.3459 -1.6251
  1684G12c H00M31187  10.845   2.702   5.898  1.0776 -3.5877 -3.1297
  1684G12c C01Y31188  10.937   2.565   6.041  0.2465  0.2076 -1.6004
  1684G12c C02D31189  10.980   2.545   6.175  0.2629  0.2326  0.2339
  1684G12c H01931190  10.986   2.622   6.250  2.3915  4.7936 -4.3179
  1684G12c C02C31191  11.018   2.418   6.214  1.4120 -2.4707 -1.9802
  1684G12c H01A31192  11.015   2.397   6.320  1.3700  0.4103 -1.3879
  1684G12c C02B31193  10.984   2.318   6.145  0.0830  1.7963 -0.7741
  1684G12c O00E31194  11.027   2.199   6.184  0.9015  0.4460 -0.6825
  1684G12c H01B31195  11.026   2.135   6.115 -3.7203  0.2560 -0.6336
  1684G12c C02F31196  10.963   2.323   6.012 -0.1019  0.3856  0.6818
  1684G12c O00F31197  10.979   2.222   5.924  1.6375  0.4014  0.0134
  1684G12c C02G31198  10.921   2.206   5.790 -0.6897  0.1678  0.0899
  1684G12c H01731199  10.977   2.128   5.739 -2.2334  0.4029 -2.0067
  1684G12c H01631200  10.845   2.129   5.802 -2.5027  0.1393 -8.5101
  1684G12c H01531201  10.927   2.261   5.696 -1.2490  2.8605  1.5545
  1684G12c C02E31202  10.940   2.457   5.957 -1.0115  0.3765  1.4981
  1684G12c H01831203  10.883   2.454   5.866  2.6757  0.7484 -0.9295
  1684G12c C01F31204  11.460   2.860   6.008  1.2623  1.2311 -0.3438
  1684G12c C01G31205  11.472   2.974   6.082  0.4206 -0.0883 -0.4733
  1684G12c H00L31206  11.382   3.028   6.106 -0.6850 -1.1247 -2.2212
  1684G12c C01H31207  11.602   3.018   6.113 -0.0191 -1.8457 -1.2310
  1684G12c H00B31208  11.621   3.103   6.177  4.9206 -3.4065 -0.4679
  1684G12c C01I31209  11.717   2.968   6.052 -0.2981  0.5196 -0.3134
  1684G12c C01U31210  11.574   2.798   5.940 -0.0714 -0.4709 -1.9988
  1684G12c C00S31211  11.808   2.343   6.161 -1.2311  0.5190 -0.1753
  1684G12c C00K31212  11.921   2.526   6.132 -1.4610 -0.6215  2.4503
  1684G12c C00N31213  11.583   2.669   5.985 -0.1149  1.8054  1.0057
  1684G12c C00031214  11.697   2.862   5.951  0.4344 -1.3918  1.4727
  1684G12c C01J31215  11.834   2.955   6.132 -1.6284 -0.1431 -0.2875
  1684G12c C01K31216  11.890   3.041   6.239  1.1465 -0.4505  0.5147
  1684G12c C01P31217  11.838   3.175   6.281  0.0275 -0.1472  1.1305
  1684G12c C01Q31218  11.806   3.281   6.169 -0.1408  0.9750 -1.4776
  1684G12c H00G31219  11.705   3.266   6.133 -0.2129  0.1649 -0.9351
  1684G12c C01R31220  11.886   3.393   6.137  1.2910  0.4461  1.1375
  1684G12c H00F31221  11.988   3.384   6.173  0.3994 -1.1298  3.4288
  1684G12c C01S31222  11.853   3.518   6.052  0.3948  0.0268  1.6319
  1684G12c H00E31223  11.757   3.567   6.071  1.0776  2.3992 -0.8131
  1684G12c H00D31224  11.934   3.590   6.057 -0.0231  0.6363 -0.0480
  1684G12c O00531225  11.847   3.489   5.916  0.0780  1.4281 -0.7898
  1684G12c H00C31226  11.789   3.415   5.912  3.2138 -1.7522  4.9275
  1684G12c C01O31227  11.871   3.221   6.408 -0.2680  0.2679  0.3002
  1684G12c H00H31228  11.828   3.316   6.437  5.5498  1.4738  6.4446
  1684G12c C01N31229  11.930   3.153   6.506 -0.0715 -0.1998  0.4706
  1684G12c O00631230  11.961   3.223   6.623  2.0705  1.3544  0.1001
  1684G12c C01T31231  12.004   3.349   6.614 -0.0214  0.2640 -1.9424
  1684G12c H00K31232  11.958   3.423   6.548  0.3355  2.2758 -0.0177
  1684G12c H00J31233  12.111   3.362   6.598 -0.2129  6.9771  0.5658
  1684G12c H00I31234  11.998   3.388   6.716 -3.6654  2.5984 -2.9319
  1684G12c C01M31235  11.997   3.038   6.470  2.0583  2.0173 -0.4051
  1684G12c C02031236  12.002   2.630   6.184 -1.1280  0.1936  1.1540
  1684G12c C02131237  12.122   2.600   6.251  1.7020  0.3781 -1.9563
  1684G12c C01L31238  11.979   2.970   6.331 -0.2715 -0.5719 -1.2630
  1684G12c O00731239  12.065   2.972   6.561 -0.8042  0.8993 -0.3580
  1684G12c C02231240  12.150   2.670   6.364 -1.1174 -0.1503 -0.4212
  1684G12c C02331241  12.132   2.456   6.281 -1.5376  0.0640  0.0141
  1684G12c C00G31242  12.099   2.233   6.435 -0.7449 -0.1470  0.2018
  1684G12c C00E31243  12.189   2.063   6.588 -1.1073  0.9174  1.5532
  1684G12c O00A31244  12.190   1.934   6.657 -0.9154  0.9029  1.3133
  1684G12c C02431245  12.179   1.931   6.798 -1.4043  1.3078  0.5435
  1684G12c H00V31246  12.095   1.977   6.850 -0.2391  5.9549 -1.4981
  1684G12c H00U31247  12.280   1.920   6.837 -0.2545 -2.4558 -3.1226
  1684G12c H00T31248  12.162   1.824   6.812  1.7520  0.8482  1.3392
  1694G12c C00D31249   8.458  12.655   5.700 -0.3171  1.5781  0.3370
  1694G12c O00B31250   8.403  12.600   5.820 -0.0263 -0.7973  0.9113
  1694G12c C02531251   8.271  12.626   5.855 -0.7872 -2.5262 -1.3301
  1694G12c C02631252   8.230  12.751   5.925 -0.3441 -0.7410 -0.2229
  1694G12c H00Y31253   8.137  12.745   5.982 -0.7739 -2.8844 -1.0907
  1694G12c H00X31254   8.205  12.806   5.834 -0.5119 -4.5575 -2.6306
  1694G12c O00C31255   8.354  12.785   5.990  1.1254 -1.1567 -1.2030
  1694G12c H00W31256   8.432  12.764   5.941  0.0782  1.5427 -4.2520
  1694G12c C02731257   8.177  12.534   5.820 -1.1511  0.2955  1.1649
  1694G12c O00D31258   8.051  12.553   5.849 -0.4277 -0.0702  0.7187
  1694G12c H00Z31259   8.002  12.533   5.927 -2.3192  2.1832  0.1790
  1694G12c C02831260   8.189  12.425   5.713 -1.2387  0.0051 -0.4860
  1694G12c C02931261   8.199  12.443   5.571 -0.9309 -0.3060 -0.7580
  1694G12c H01031262   8.202  12.537   5.518 -2.2652  0.0333 -0.2457
  1694G12c C02T31263   8.217  12.323   5.481 -0.1955 -0.8439 -0.1429
  1694G12c H01O31264   8.170  12.347   5.387  5.2418  2.4456 -2.2696
  1694G12c C02S31265   8.234  12.194   5.545 -0.2610 -0.3799  1.6131
  1694G12c O00J31266   8.253  12.098   5.463 -0.5580 -0.3395 -0.7305
  1694G12c H01P31267   8.225  12.024   5.515  1.1959  1.8380  3.4862
  1694G12c C02R31268   8.223  12.176   5.676  0.7456  0.5642  0.0973
  1694G12c O00I31269   8.203  12.034   5.715  0.9560  1.0826 -0.2659
  1694G12c C02Q31270   8.236  11.993   5.832  0.0430 -0.9984  1.1764
  1694G12c H01N31271   8.342  11.969   5.839  1.1235  2.5321 -1.5923
  1694G12c H01R31272   8.188  11.900   5.861  2.9298 -1.9321  3.0963
  1694G12c H01Q31273   8.214  12.075   5.901  3.9359  6.2856 -5.4409
  1694G12c C02A31274   8.218  12.296   5.762  2.2160  1.4098 -0.6594
  1694G12c H01131275   8.209  12.275   5.867 -6.2568  4.2805 -0.3983
  1694G12c C00C31276   8.403  12.760   5.625  0.5127  0.1792  0.8840
  1694G12c H01231277   8.313  12.807   5.662  0.4530 -2.3834  4.2549
  1694G12c C00B31278   8.461  12.787   5.498  1.0017  0.5583  0.2091
  1694G12c C00A31279   8.429  12.894   5.410  1.4605 -0.6074  0.3265
  1694G12c C00931280   8.305  12.968   5.397  0.3642 -0.8575 -1.1789
  1694G12c C00831281   8.164  12.946   5.432  0.7860  1.5362  0.4880
  1694G12c H01331282   8.143  12.869   5.505  5.7736  0.8068  1.2962
  1694G12c C00731283   8.060  13.007   5.366 -0.7975  1.0530 -0.7799
  1694G12c H01431284   7.954  13.007   5.386 -0.4327 -5.1000  2.0011
  1694G12c C00631285   8.105  13.073   5.254 -0.1378  1.6564  0.1202
  1694G12c C00531286   8.238  13.067   5.207  0.1192 -0.0827  0.6496
  1694G12c C00431287   8.273  13.109   5.088  0.5362 -1.0878  0.1252
  1694G12c C00331288   8.410  13.098   5.030  0.5635  0.7324  2.0593
  1694G12c C00231289   8.431  13.153   4.904 -0.3194  0.8562 -0.3220
  1694G12c C00131290   8.527  13.116   4.805  0.4993 -0.5214 -0.2765
  1694G12c C00M31291   8.601  12.990   4.789  0.7275  0.5121  0.5515
  1694G12c C00L31292   8.647  12.923   4.905 -0.2218  1.7992  0.3059
  1694G12c C00R31293   8.685  12.797   4.913 -1.5065 -0.1953 -0.4757
  1694G12c C00Q31294   8.684  12.697   4.807  0.7016  0.7381 -0.4093
  1694G12c C00V31295   8.692  12.567   4.866 -1.4866 -0.5509  0.0037
  1694G12c C00U31296   8.704  12.535   5.008 -0.3163  0.1815 -1.4269
  1694G12c C00T31297   8.705  12.631   5.111  0.2753 -2.5767  0.4355
  1694G12c C01631298   8.660  12.614   5.243  0.6779  1.0370  0.5140
  1694G12c C01531299   8.674  12.493   5.298  1.8900 -0.1276  0.6913
  1694G12c C01031300   8.721  12.383   5.206 -1.2261 -0.2697  0.7538
  1694G12c C01131301   8.754  12.259   5.270  1.0222  0.0513  1.8244
  1694G12c H00531302   8.812  12.191   5.211 -1.4953 -0.7929  0.2578
  1694G12c C01231303   8.764  12.261   5.418 -2.1121 -1.2580  1.8641
  1694G12c C01731304   8.767  12.140   5.467  0.3913  1.9832 -0.1223
  1694G12c O00231305   8.674  12.075   5.518  0.1347  1.1163  0.2446
  1694G12c H00431306   8.598  12.120   5.553 -3.0941 -1.4932 -2.9112
  1694G12c C01831307   8.881  12.066   5.436  1.1808  0.0029  0.1045
  1694G12c O00131308   8.992  12.115   5.370 -0.8844  1.4451 -0.6752
  1694G12c H00331309   9.052  12.179   5.404 -1.5649  3.5286 -3.2189
  1694G12c C01931310   8.888  11.911   5.474 -0.2897  0.2571  0.2103
  1694G12c H00231311   8.816  11.873   5.547  1.2350 -0.5963  1.2884
  1694G12c H00131312   8.870  11.868   5.376 -3.8978  0.7904  0.5573
  1694G12c O00031313   9.022  11.896   5.531 -0.3764  0.3844  1.2052
  1694G12c C01A31314   9.032  11.931   5.674 -1.0805  0.2490  0.1878
  1694G12c C02K31315   8.962  11.889   5.784 -3.1301  0.1363 -1.2457
  1694G12c O00G31316   8.874  11.787   5.748 -0.3851  0.9517  0.7754
  1694G12c C02M31317   8.849  11.672   5.842  0.5227  0.4686  0.2857
  1694G12c H01G31318   8.920  11.596   5.873  1.5331  2.6913  3.7008
  1694G12c H01F31319   8.743  11.647   5.829 -0.0969 -2.7697  8.6310
  1694G12c H01E31320   8.841  11.723   5.938 -4.4851 -1.1460  0.9025
  1694G12c C02J31321   9.013  11.934   5.912  0.2490 -0.0028 -0.5599
  1694G12c H01H31322   8.970  11.886   5.999 -1.3211 -0.2567 -1.4582
  1694G12c C02I31323   9.104  12.032   5.942 -0.3285 -0.0276  0.1187
  1694G12c C02N31324   9.127  12.086   6.069  0.6049 -0.1572  0.0416
  1694G12c H01M31325   9.126  12.032   6.162  2.1631  4.0857  2.6619
  1694G12c C02O31326   9.151  12.223   6.061 -0.8538  1.1233  0.3899
  1694G12c H01L31327   9.154  12.285   5.973  0.1945 -3.8740 -3.3291
  1694G12c C02P31328   9.148  12.300   6.186 -0.1813 -0.8596  1.6807
  1694G12c H01K31329   9.243  12.286   6.238  3.7142  2.0407 -4.0772
  1694G12c H01J31330   9.151  12.402   6.147 -2.4222 -3.0219 -4.6400
  1694G12c O00H31331   9.044  12.267   6.258 -0.1527  1.4800 -0.0499
  1694G12c H01I31332   8.968  12.313   6.225 -1.9480  0.2116  2.1882
  1694G12c C02H31333   9.192  12.055   5.828 -0.2611 -1.6785 -0.1856
  1694G12c H01C31334   9.288  12.104   5.818 -0.8355  0.0399  2.2028
  1694G12c C02L31335   9.136  12.020   5.694 -0.9076 -0.2909 -0.9173
  1694G12c H01D31336   9.203  12.053   5.616 -3.8335 -0.6686 -3.6811
  1694G12c C01331337   8.691  12.357   5.497  0.4443  0.4963 -0.5490
  1694G12c H00031338   8.688  12.352   5.605  4.2694  7.3743  0.1683
  1694G12c C01431339   8.645  12.477   5.433 -0.1526  0.2374 -2.2672
  1694G12c C00F31340   8.590  12.583   5.505 -0.4979 -0.6427  0.8591
  1694G12c C00H31341   8.616  12.723   5.315  0.0601 -0.7267 -0.6466
  1694G12c C00I31342   8.621  12.852   5.256 -2.0322  0.6915 -0.3167
  1694G12c C00J31343   8.685  12.874   5.138  0.3758  0.3986 -1.0799
  1694G12c C00Z31344   8.709  12.399   5.064  1.3955  1.0223  0.4792
  1694G12c C00Y31345   8.701  12.292   4.980  1.1529 -0.1284  0.7673
  1694G12c H00631346   8.704  12.194   5.026 -2.1786  1.2149  4.0456
  1694G12c C00X31347   8.695  12.314   4.830  1.0545  0.0053 -0.0059
  1694G12c O00331348   8.665  12.220   4.732 -0.8045 -1.9820 -0.2696
  1694G12c C01B31349   8.770  12.125   4.720 -0.1044  0.0029 -2.4545
  1694G12c H00931350   8.866  12.174   4.732 -1.9324  3.0586  1.1592
  1694G12c H00831351   8.778  12.063   4.809 -1.6062  3.8825  0.5603
  1694G12c H00731352   8.790  12.070   4.629 -3.2212 -2.4068 -1.7726
  1694G12c C00W31353   8.697  12.450   4.797  1.6276 -0.1019  2.0082
  1694G12c O00431354   8.681  12.446   4.661 -1.0955 -0.7386  1.0612
  1694G12c C01C31355   8.698  12.579   4.598  2.0495  0.2408 -0.0637
  1694G12c H00A31356   8.802  12.593   4.571  2.6774  1.3353  2.8024
  1694G12c C00P31357   8.673  12.696   4.665 -0.1382 -0.8202 -0.7888
  1694G12c C00O31358   8.645  12.822   4.599 -1.3243  1.3469 -1.3514
  1694G12c C01D31359   8.614  12.809   4.459 -1.0678 -0.5921  0.7663
  1694G12c H00S31360   8.624  12.713   4.411 -4.9643 -1.4082  1.4004
  1694G12c C01E31361   8.528  12.915   4.397 -0.8480  0.1401 -0.1966
  1694G12c O00831362   8.488  12.909   4.266  1.3791 -0.8834 -0.3046
  1694G12c C01V31363   8.490  12.798   4.200  0.3359  0.9937  0.3816
  1694G12c C01Z31364   8.554  12.820   4.051 -0.1141  0.5841  1.4688
  1694G12c H00R31365   8.600  12.919   4.065  5.2996 -2.1955  5.5337
  1694G12c H00Q31366   8.644  12.770   4.016 -4.2515 -4.1360 -3.1909
  1694G12c O00931367   8.450  12.805   3.970 -0.0420 -0.8813  0.2061
  1694G12c H00P31368   8.390  12.845   4.032 -1.7122 -0.8246 -1.3982
  1694G12c C01W31369   8.398  12.713   4.244  0.2069 -2.1916 -0.7995
  1694G12c H00O31370   8.332  12.707   4.329 -2.5589 -1.9459 -2.8625
  1694G12c C01X31371   8.348  12.583   4.186  1.6131  0.6692 -1.1446
  1694G12c H00N31372   8.249  12.576   4.230  0.6656 -4.2046 -3.6877
  1694G12c H00M31373   8.373  12.564   4.081 -0.4009 -2.2890 -1.1247
  1694G12c C01Y31374   8.439  12.489   4.273 -0.7299  1.0560 -0.9597
  1694G12c C02D31375   8.571  12.480   4.254  0.9731 -2.3005 -0.4623
  1694G12c H01931376   8.614  12.559   4.194 -2.6265 -0.4088 -0.7383
  1694G12c C02C31377   8.654  12.388   4.308  1.0217  2.2624 -0.3933
  1694G12c H01A31378   8.760  12.376   4.286 -0.4024 -0.8026 -6.9235
  1694G12c C02B31379   8.599  12.275   4.374  0.9225  1.8303 -1.1813
  1694G12c O00E31380   8.659  12.156   4.402 -0.3996 -1.4913  1.0447
  1694G12c H01B31381   8.703  12.116   4.328 -3.1529 -1.7010 -0.5506
  1694G12c C02F31382   8.465  12.273   4.393 -1.7945 -0.8688 -1.4682
  1694G12c O00F31383   8.398  12.165   4.404 -1.4545 -0.5018  0.8309
  1694G12c C02G31384   8.370  12.073   4.304 -1.4774  0.2638 -1.9469
  1694G12c H01731385   8.301  12.119   4.233 -4.4670 -0.3975  0.4105
  1694G12c H01631386   8.314  11.994   4.353 -6.4929  4.1346 -0.9671
  1694G12c H01531387   8.445  12.056   4.227 -0.3490 -2.6432 -0.2858
  1694G12c C02E31388   8.387  12.370   4.328 -0.3232 -0.4316  1.2260
  1694G12c H01831389   8.280  12.352   4.321  0.0312 -1.5297 -9.1084
  1694G12c C01F31390   8.469  13.032   4.468 -0.3587  1.3053  1.0287
  1694G12c C01G31391   8.345  13.088   4.442  1.2128 -0.5545  0.8033
  1694G12c H00L31392   8.277  13.054   4.365  0.2100 -1.3261  2.0343
  1694G12c C01H31393   8.291  13.146   4.564  0.4545 -0.2862  1.3298
  1694G12c H00B31394   8.187  13.117   4.571 -0.2939  2.3996  1.8652
  1694G12c C01I31395   8.355  13.178   4.679 -2.9513  1.0501 -1.4064
  1694G12c C01U31396   8.536  13.047   4.586  1.6717  0.3633  0.7982
  1694G12c C00S31397   8.715  12.760   5.062 -0.2588 -0.4075  0.9394
  1694G12c C00K31398   8.617  12.961   5.053  0.5967  0.8735  0.1495
  1694G12c C00N31399   8.613  12.954   4.663 -0.5622  0.7305 -0.9713
  1694G12c C00031400   8.496  13.159   4.677 -1.5385  0.0107  0.1968
  1694G12c C01J31401   8.323  13.190   4.821  0.8647 -0.4708  1.0458
  1694G12c C01K31402   8.190  13.215   4.877  0.4816 -1.1618  0.4847
  1694G12c C01P31403   8.090  13.304   4.816 -1.3812 -0.2586 -0.5917
  1694G12c C01Q31404   8.117  13.410   4.711 -0.6814  0.0369  0.2394
  1694G12c H00G31405   8.147  13.511   4.734 -0.3464 -0.5284  2.4175
  1694G12c C01R31406   8.085  13.390   4.577 -1.4185 -1.0264  0.9662
  1694G12c H00F31407   8.031  13.297   4.567  3.1707 -3.3451 -6.0466
  1694G12c C01S31408   8.125  13.490   4.474 -0.2472  0.1305  0.2301
  1694G12c H00E31409   8.202  13.441   4.415  3.1822  2.2141  2.8476
  1694G12c H00D31410   8.145  13.591   4.510 -5.8956  2.8654 -3.4207
  1694G12c O00531411   8.001  13.479   4.391  1.4357 -1.0042  0.4363
  1694G12c H00C31412   8.002  13.501   4.299 -3.5106 -2.6742 -0.1602
  1694G12c C01O31413   7.967  13.309   4.876 -1.0313  0.8943  1.1683
  1694G12c H00H31414   7.894  13.351   4.809  3.8999  7.0670 -0.9444
  1694G12c C01N31415   7.938  13.223   4.988  0.5707  0.1550 -0.0603
  1694G12c O00631416   7.800  13.224   5.038 -3.1257 -0.2197 -1.0271
  1694G12c C01T31417   7.727  13.225   4.926  1.9807  0.1276  0.8020
  1694G12c H00K31418   7.756  13.135   4.872  1.0330 -0.6436  1.5562
  1694G12c H00J31419   7.718  13.318   4.871 -0.7898 -1.9205 -2.3232
  1694G12c H00I31420   7.633  13.210   4.979 -1.1411  0.4941 -4.3859
  1694G12c C01M31421   8.045  13.168   5.061  0.8240  2.0998  2.3462
  1694G12c C02031422   8.508  13.042   5.107  1.6019 -0.7075  1.2178
  1694G12c C02131423   8.479  13.040   5.239 -0.4486 -0.2123  0.0193
  1694G12c C01L31424   8.175  13.157   5.009 -0.3074 -0.1011 -0.8738
  1694G12c O00731425   8.023  13.142   5.186  0.2421  0.0575 -0.6677
  1694G12c C02231426   8.343  13.039   5.283  0.1500 -0.4181 -1.2294
  1694G12c C02331427   8.528  12.939   5.329  0.7520  0.2042 -0.1441
  1694G12c C00G31428   8.558  12.701   5.442 -1.8808  0.3628 -0.4180
  1694G12c C00E31429   8.564  12.576   5.646 -0.1606  2.3353 -1.3326
  1694G12c O00A31430   8.620  12.489   5.733  1.3525  0.2525  0.1278
  1694G12c C02431431   8.755  12.515   5.771  1.2293  0.4536  0.5195
  1694G12c H00V31432   8.789  12.420   5.814  5.0222  1.3076 -0.4267
  1694G12c H00U31433   8.835  12.564   5.715 -0.0959  2.0855  0.0259
  1694G12c H00T31434   8.767  12.581   5.857 -1.5169 -1.8748  2.8053
  1704G12c C00D31435   0.032   4.200   8.391  1.0560 -0.3148  0.6365
  1704G12c O00B31436   0.117   4.200   8.292  1.5070 -2.2756 -0.3148
  1704G12c C02531437   0.159   4.096   8.212 -0.6657 -0.6816 -2.0138
  1704G12c C02631438   0.089   4.087   8.070  1.2267 -0.6926 -1.2159
  1704G12c H00Y31439   0.166   4.107   7.995  2.4404 -1.5032 -0.2165
  1704G12c H00X31440   0.033   4.179   8.056 -1.1397 -1.8568  0.3972
  1704G12c O00C31441   0.002   3.964   8.067 -1.1110  1.7067  1.4440
  1704G12c H00W31442   0.080   3.914   8.048 -2.7034  0.0268 -0.8254
  1704G12c C02731443   0.252   4.011   8.256 -1.4871 -0.7686  2.6623
  1704G12c O00D31444   0.318   4.038   8.364 -1.3613  0.1045  1.2295
  1704G12c H00Z31445   0.249   4.045   8.428 -6.7318  6.9992 -4.5624
  1704G12c C02831446   0.310   3.910   8.166  0.3967  1.8236  1.3627
  1704G12c C02931447   0.348   3.781   8.233 -0.6676 -1.6744  1.1155
  1704G12c H01031448   0.300   3.721   8.309 -6.3625 -1.0172 -1.6655
  1704G12c C02T31449   0.423   3.699   8.143 -1.4689  1.7229 -0.5899
  1704G12c H01O31450   0.464   3.604   8.174  6.1985  2.7431 -6.1900
  1704G12c C02S31451   0.480   3.742   8.019  0.8038  0.5909  0.0043
  1704G12c O00J31452   0.526   3.643   7.935 -0.4213 -0.3106 -0.6070
  1704G12c H01P31453   0.522   3.710   7.869  2.4561 -1.5731 -2.1243
  1704G12c C02R31454   0.473   3.873   7.970 -0.6513 -0.6446 -1.4429
  1704G12c O00I31455   0.537   3.905   7.844 -0.3461  0.2612  1.8937
  1704G12c C02Q31456   0.523   4.032   7.811  1.6696  0.3538  1.9728
  1704G12c H01N31457   0.599   4.088   7.866  1.3702  2.9848 -0.1673
  1704G12c H01R31458   0.425   4.079   7.822  1.1651 -0.2125  0.1214
  1704G12c H01Q31459   0.517   4.005   7.706  1.2194 -0.1340  2.1224
  1704G12c C02A31460   0.409   3.954   8.059  1.6088 -0.3627  0.3129
  1704G12c H01131461   0.401   4.059   8.034  5.4025 -0.1479 -0.3148
  1704G12c C00C31462  -0.100   4.138   8.396 -0.9838  0.1936  0.1568
  1704G12c H01231463  -0.143   4.144   8.297  2.7678  4.5954 -1.4012
  1704G12c C00B31464  -0.179   4.140   8.514  0.9473 -1.9237 -0.2990
  1704G12c C00A31465  -0.312   4.095   8.519 -1.1197  0.2680  0.9388
  1704G12c C00931466  -0.412   4.139   8.420  0.0562 -0.1600 -0.4383
  1704G12c C00831467  -0.404   4.220   8.294 -1.5735 -1.6371 -0.2345
  1704G12c H01331468  -0.323   4.255   8.232 -6.1146 -3.5255 -7.8142
  1704G12c C00731469  -0.533   4.281   8.254  0.4539 -0.6734  0.7806
  1704G12c H01431470  -0.525   4.355   8.176 -3.6022 -1.6530 -0.6735
  1704G12c C00631471  -0.645   4.266   8.338  1.7132  1.4708 -0.0790
  1704G12c C00531472  -0.641   4.192   8.449  0.6762  0.2269 -0.9443
  1704G12c C00431473  -0.725   4.217   8.565  0.4111 -0.1848  0.0655
  1704G12c C00331474  -0.694   4.181   8.705  0.0377 -0.5091  0.8374
  1704G12c C00231475  -0.799   4.220   8.808  0.0118 -1.2859 -0.2612
  1704G12c C00131476  -0.803   4.213   8.956  0.5339 -0.5700  0.9493
  1704G12c C00M31477  -0.675   4.257   9.038  0.4820  0.2905 -0.4561
  1704G12c C00L31478  -0.558   4.187   9.018 -0.9277 -0.0858  0.5278
  1704G12c C00R31479  -0.430   4.238   9.075  1.8582 -0.0105 -0.3565
  1704G12c C00Q31480  -0.402   4.335   9.179  1.1142 -0.4703 -0.1448
  1704G12c C00V31481  -0.269   4.354   9.197 -1.0337  0.2729  0.6927
  1704G12c C00U31482  -0.171   4.317   9.095 -1.1142 -0.6867  1.3390
  1704G12c C00T31483  -0.207   4.256   8.979 -0.9084 -1.0836  0.7345
  1704G12c C01631484  -0.123   4.229   8.874  0.5238  1.8187 -0.2219
  1704G12c C01531485   0.006   4.277   8.867 -1.5897  0.2456 -1.0657
  1704G12c C01031486   0.056   4.338   8.991  0.3823  0.3692  2.4706
  1704G12c C01131487   0.199   4.326   9.002 -0.3823  0.1027 -0.9036
  1704G12c H00531488   0.252   4.356   9.091 -1.2284  2.4978 -1.1664
  1704G12c C01231489   0.279   4.316   8.887  1.2313 -0.0748 -1.0940
  1704G12c C01731490   0.418   4.286   8.913 -0.6819 -0.0459 -1.3407
  1704G12c O00231491   0.480   4.370   9.013 -0.7879  1.3263  0.6674
  1704G12c H00431492   0.523   4.418   8.943 -1.8027 -4.0980 -4.0483
  1704G12c C01831493   0.497   4.221   8.822  0.7171 -0.7176 -1.0501
  1704G12c O00131494   0.440   4.154   8.717 -0.2478 -0.5379 -0.2600
  1704G12c H00331495   0.508   4.141   8.652 -4.3739 -7.2039 -3.9540
  1704G12c C01931496   0.654   4.217   8.827 -0.6135  0.2486  0.3858
  1704G12c H00231497   0.682   4.208   8.932 -2.0260 -3.1436  0.5503
  1704G12c H00131498   0.658   4.123   8.771 -8.9438  1.7449 -3.3560
  1704G12c O00031499   0.672   4.337   8.764 -0.7426 -0.7990  0.2200
  1704G12c C01A31500   0.776   4.414   8.776 -0.5131  1.8365 -1.4344
  1704G12c C02K31501   0.907   4.356   8.777 -1.2419  1.5174 -0.4291
  1704G12c O00G31502   0.920   4.213   8.758 -0.2950 -0.3678  0.0935
  1704G12c C02M31503   1.048   4.141   8.776  0.6915 -0.8924  0.7381
  1704G12c H01G31504   1.142   4.185   8.741 -0.9412  5.3515  3.3411
  1704G12c H01F31505   1.043   4.033   8.769  0.8865 -0.9612  1.5423
  1704G12c H01E31506   1.104   4.171   8.865  0.9089 -0.9863  0.6336
  1704G12c C02J31507   1.024   4.446   8.799  0.7473 -0.4952  2.0113
  1704G12c H01H31508   1.122   4.410   8.772 -0.7647 -2.9044 -0.4998
  1704G12c C02I31509   1.011   4.564   8.857  1.7612  0.5867  0.1296
  1704G12c C02N31510   1.126   4.640   8.909  0.4454 -0.0777  0.6242
  1704G12c H01M31511   1.136   4.690   9.004 -0.3136 -1.6997  1.5624
  1704G12c C02O31512   1.229   4.644   8.838 -0.7848  0.9530  0.7181
  1704G12c H01L31513   1.249   4.558   8.776 -3.3581 -4.0276  6.3043
  1704G12c C02P31514   1.354   4.720   8.883 -0.6314  1.1800  0.2640
  1704G12c H01K31515   1.412   4.803   8.842  0.9545  0.6824  1.4519
  1704G12c H01J31516   1.332   4.769   8.978 -4.0366  2.9973 -1.3630
  1704G12c O00H31517   1.446   4.605   8.898  0.2199 -0.6168 -0.2674
  1704G12c H01I31518   1.377   4.542   8.915 -2.2528  1.6023 -1.6320
  1704G12c C02H31519   0.870   4.619   8.865 -0.2757 -0.5698  0.9745
  1704G12c H01C31520   0.865   4.727   8.875 -2.4389 -0.8462  3.2599
  1704G12c C02L31521   0.760   4.539   8.827  1.6415 -1.6530  1.1963
  1704G12c H01D31522   0.657   4.571   8.820  1.7543  0.7662  7.2163
  1704G12c C01331523   0.207   4.294   8.773  0.4762 -0.0050 -0.7881
  1704G12c H00031524   0.279   4.292   8.692 -3.9794  2.2500 -5.0967
  1704G12c C01431525   0.079   4.268   8.751  0.2380 -0.4267  0.3085
  1704G12c C00F31526   0.023   4.223   8.631  1.2371 -0.9589 -0.2956
  1704G12c C00H31527  -0.177   4.168   8.759 -3.0149  1.6418  0.0138
  1704G12c C00I31528  -0.312   4.113   8.758  1.4554  1.0641 -0.0286
  1704G12c C00J31529  -0.388   4.142   8.878  0.1356  0.5192  0.9005
  1704G12c C00Z31530  -0.037   4.363   9.094  0.7714  1.1085  1.0937
  1704G12c C00Y31531   0.008   4.406   9.218 -1.0575  0.4920 -1.7986
  1704G12c H00631532   0.114   4.412   9.241 -1.9259  2.0110  2.1098
  1704G12c C00X31533  -0.080   4.449   9.311  0.2152 -0.6585 -0.8934
  1704G12c O00331534  -0.030   4.562   9.386 -0.8702  1.1634 -1.5414
  1704G12c C01B31535   0.036   4.677   9.320 -0.8628  0.4749  0.2391
  1704G12c H00931536  -0.016   4.748   9.255  2.5552  4.5244  1.6547
  1704G12c H00831537   0.130   4.634   9.286 -1.5157 -0.8325  0.0488
  1704G12c H00731538   0.080   4.744   9.395 -1.4108  1.5949 -0.4270
  1704G12c C00W31539  -0.223   4.439   9.298 -1.1731 -0.2600 -0.8278
  1704G12c O00431540  -0.304   4.493   9.407 -0.9195 -0.4915  0.2770
  1704G12c C01C31541  -0.434   4.467   9.374 -1.7370  1.0415  1.4852
  1704G12c H00A31542  -0.475   4.417   9.461  1.6231 -1.6696  1.6102
  1704G12c C00P31543  -0.488   4.419   9.253  1.2686  0.3638 -0.6810
  1704G12c C00O31544  -0.618   4.436   9.223  0.2713  1.1954  1.5659
  1704G12c C01D31545  -0.671   4.560   9.281 -0.0581  0.2666 -1.1553
  1704G12c H00S31546  -0.618   4.613   9.359  1.0057 -0.8905 -1.0715
  1704G12c C01E31547  -0.784   4.616   9.225  0.0420  1.3146  1.0438
  1704G12c O00831548  -0.863   4.724   9.257 -0.9046  0.3772 -1.8790
  1704G12c C01V31549  -0.819   4.802   9.363  0.5073 -0.6869  0.2906
  1704G12c C01Z31550  -0.687   4.856   9.313 -0.8246  0.3763 -2.1098
  1704G12c H00R31551  -0.711   4.899   9.216 -0.9050  0.5848 -1.9970
  1704G12c H00Q31552  -0.682   4.932   9.392  5.5418 -2.0354  0.0540
  1704G12c O00931553  -0.547   4.822   9.320  1.8238 -1.5423 -0.4917
  1704G12c H00P31554  -0.538   4.761   9.249  1.5159  4.7018 -6.3828
  1704G12c C01W31555  -0.867   4.772   9.488 -0.1902 -1.6177  0.6228
  1704G12c H00O31556  -0.796   4.806   9.562 -0.9444  3.0706 -0.5986
  1704G12c C01X31557  -0.995   4.701   9.531 -0.4586 -0.8062 -1.5187
  1704G12c H00N31558  -0.985   4.626   9.451  3.1114 -1.8270 -0.2330
  1704G12c H00M31559  -0.992   4.606   9.585 -3.8333  2.7559  5.4283
  1704G12c C01Y31560  -1.112   4.778   9.538  0.5050  1.0352 -0.5087
  1704G12c C02D31561  -1.226   4.756   9.456  1.3654 -1.1726 -1.3614
  1704G12c H01931562  -1.249   4.681   9.382 -0.7596  0.1614 -2.1036
  1704G12c C02C31563  -1.338   4.841   9.477 -0.3806 -1.1545  1.2933
  1704G12c H01A31564  -1.424   4.816   9.417  0.7037 -1.5264 -0.1502
  1704G12c C02B31565  -1.340   4.962   9.558 -0.3178  0.4938  0.5053
  1704G12c O00E31566  -1.444   5.058   9.541  0.2138  0.2604  0.2325
  1704G12c H01B31567  -1.419   5.132   9.595  1.8296 -1.8502  2.4430
  1704G12c C02F31568  -1.224   4.976   9.631 -1.3709 -0.9937 -0.1250
  1704G12c O00F31569  -1.231   5.074   9.735  0.2956  1.8011  0.7978
  1704G12c C02G31570  -1.289   5.045   9.871 -0.6937 -0.8868 -0.6403
  1704G12c H01731571  -1.227   4.979   9.931 -2.5755  0.2713  2.7343
  1704G12c H01631572  -1.391   5.007   9.872 -2.5165  3.5971  1.0868
  1704G12c H01531573  -1.284   5.142   9.922 -0.3683 -2.0377  1.6073
  1704G12c C02E31574  -1.119   4.881   9.632 -0.3617 -0.6784 -0.1775
  1704G12c H01831575  -1.041   4.879   9.706  3.3993 -1.2027 -3.9869
  1704G12c C01F31576  -0.831   4.554   9.099 -1.5939  1.5208  1.4435
  1704G12c C01G31577  -0.902   4.610   8.993 -3.0797  0.1768 -0.5982
  1704G12c H00L31578  -0.907   4.716   9.012 -3.9886  0.3776 -1.8727
  1704G12c C01H31579  -0.956   4.537   8.886 -0.7287  0.0546  1.5402
  1704G12c H00B31580  -0.985   4.581   8.792  1.8525  2.7174  1.8901
  1704G12c C01I31581  -0.950   4.394   8.884 -0.3564 -0.0377  1.9093
  1704G12c C01U31582  -0.831   4.405   9.091 -0.4792  2.0734  0.8982
  1704G12c C00S31583  -0.325   4.176   8.993 -0.2993  0.7854  0.1838
  1704G12c C00K31584  -0.525   4.128   8.880 -0.4823 -1.0425  0.4145
  1704G12c C00N31585  -0.699   4.357   9.130 -0.5318 -0.1861 -1.3578
  1704G12c C00031586  -0.901   4.313   8.993 -0.1158 -1.2511  0.6088
  1704G12c C01J31587  -0.871   4.348   8.771  0.6152 -0.4750 -0.5965
  1704G12c C01K31588  -0.916   4.373   8.648  1.1814  0.0243  2.0126
  1704G12c C01P31589  -1.053   4.431   8.603  0.3975 -2.4148 -1.1425
  1704G12c C01Q31590  -1.169   4.442   8.686 -0.1049 -0.3129  1.7921
  1704G12c H00G31591  -1.233   4.358   8.708 -3.7819  1.1534 -2.6247
  1704G12c C01R31592  -1.216   4.572   8.684 -1.0940 -0.0338  0.8754
  1704G12c H00F31593  -1.157   4.645   8.631  1.3349 -1.6750  1.2345
  1704G12c C01S31594  -1.368   4.607   8.700  1.4491  0.9832  0.1982
  1704G12c H00E31595  -1.422   4.594   8.606 -2.1303  4.4040  1.6606
  1704G12c H00D31596  -1.430   4.562   8.778 -5.7675  5.7110 -2.3487
  1704G12c O00531597  -1.353   4.732   8.737  2.3438  0.9435 -0.1185
  1704G12c H00C31598  -1.387   4.785   8.666  2.9270 -0.1839 -1.2520
  1704G12c C01O31599  -1.076   4.436   8.471  0.1735 -0.9441  2.8953
  1704G12c H00H31600  -1.177   4.462   8.444  2.3217  0.9105 -4.4479
  1704G12c C01N31601  -0.969   4.423   8.379  1.4659  0.4264 -0.0511
  1704G12c O00631602  -0.971   4.515   8.274  0.0640  1.4354 -0.8690
  1704G12c C01T31603  -1.061   4.457   8.179 -1.2238  0.8242 -0.6865
  1704G12c H00K31604  -1.085   4.351   8.173 -0.6367  0.7157 -1.2345
  1704G12c H00J31605  -0.971   4.467   8.118  0.6095  0.2663  1.8473
  1704G12c H00I31606  -1.139   4.533   8.167 -2.5139  1.3694  8.1875
  1704G12c C01M31607  -0.850   4.360   8.416 -0.2093 -0.6024 -1.0778
  1704G12c C02031608  -0.574   4.121   8.741  0.2550  1.0964  0.4689
  1704G12c C02131609  -0.506   4.093   8.625  0.6154  1.4022  0.3967
  1704G12c C01L31610  -0.836   4.309   8.545  1.2594 -0.0917  1.6492
  1704G12c O00731611  -0.759   4.341   8.314 -0.3262 -1.1398 -1.1252
  1704G12c C02231612  -0.536   4.109   8.481 -0.9813  1.7590 -1.0695
  1704G12c C02331613  -0.373   4.077   8.636 -0.1955  0.6385 -1.7713
  1704G12c C00G31614  -0.104   4.173   8.633 -0.7093  0.8300  1.6532
  1704G12c C00E31615   0.083   4.248   8.511 -2.6975 -1.0434  0.0132
  1704G12c O00A31616   0.209   4.317   8.503  0.6413  0.9848  0.5632
  1704G12c C02431617   0.231   4.447   8.430  2.4272 -0.0521 -1.6809
  1704G12c H00V31618   0.178   4.511   8.501 -3.0453  0.3203 -5.7602
  1704G12c H00U31619   0.337   4.468   8.414  2.3442 -0.3312 -2.6162
  1704G12c H00T31620   0.206   4.444   8.324  1.7323  7.5054 -2.0203
  1714G12c C00D31621   6.900   4.601   8.216  0.4083 -0.4558  0.8545
  1714G12c O00B31622   6.967   4.542   8.315 -0.4889 -0.7458  0.2530
  1714G12c C02531623   6.937   4.420   8.365 -0.2114  0.5785  1.6816
  1714G12c C02631624   6.810   4.431   8.455 -0.0355  1.2220  0.5606
  1714G12c H00Y31625   6.751   4.345   8.423 -1.0381  1.2489  2.3033
  1714G12c H00X31626   6.759   4.527   8.446 -1.8137  0.4852  2.3442
  1714G12c O00C31627   6.860   4.430   8.577 -1.3270 -0.8005  0.2440
  1714G12c H00W31628   6.907   4.349   8.587  1.6770  0.4203 -3.0665
  1714G12c C02731629   6.980   4.318   8.280 -1.3643  1.0821 -1.1341
  1714G12c O00D31630   7.088   4.357   8.201  0.2830 -0.2839 -0.2023
  1714G12c H00Z31631   7.114   4.435   8.246  4.2131 -2.0067  0.7711
  1714G12c C02831632   6.927   4.189   8.302 -1.2649 -0.0035 -0.1267
  1714G12c C02931633   6.793   4.141   8.323 -1.5261  1.1807 -0.6496
  1714G12c H01031634   6.724   4.167   8.244 -3.7528 -2.3401  0.0227
  1714G12c C02T31635   6.761   4.014   8.363 -1.1805  0.4413 -0.1672
  1714G12c H01O31636   6.668   3.960   8.371 -2.3318  2.4093  0.1192
  1714G12c C02S31637   6.856   3.916   8.384 -0.5516 -0.9135  0.6710
  1714G12c O00J31638   6.813   3.793   8.398  1.2514 -2.0464 -0.2874
  1714G12c H01P31639   6.870   3.734   8.351 -3.7430 -2.3625 -6.7687
  1714G12c C02R31640   6.996   3.949   8.365  0.6936 -1.3273 -1.1864
  1714G12c O00I31641   7.103   3.867   8.338  0.3720  0.2600 -0.0498
  1714G12c C02Q31642   7.128   3.769   8.448  1.2452 -1.1471  1.0255
  1714G12c H01N31643   7.049   3.744   8.518 -0.0662  3.9942  1.5611
  1714G12c H01R31644   7.211   3.793   8.514  6.0698  5.5929 -6.5418
  1714G12c H01Q31645   7.153   3.674   8.400  0.5337  2.0887 -6.3880
  1714G12c C02A31646   7.020   4.079   8.324 -0.8067 -0.5907  0.3023
  1714G12c H01131647   7.120   4.110   8.351 -0.0915 -0.3073 -2.4849
  1714G12c C00C31648   6.789   4.551   8.150  0.1545  1.9275 -1.2166
  1714G12c H01231649   6.771   4.445   8.163 -2.9165  2.1479 -3.1573
  1714G12c C00B31650   6.717   4.640   8.063 -0.3305  0.1067 -0.2360
  1714G12c C00A31651   6.612   4.592   7.976  2.0878 -1.2873 -0.3340
  1714G12c C00931652   6.585   4.459   7.943  0.6580  0.7019  0.9646
  1714G12c C00831653   6.618   4.329   7.978 -0.7540  1.8413 -1.0247
  1714G12c H01331654   6.652   4.338   8.080 -0.2710  0.7586 -1.0800
  1714G12c C00731655   6.621   4.238   7.878  1.5193  0.3626 -0.4539
  1714G12c H01431656   6.636   4.134   7.902 -0.6552 -0.3472 -2.0468
  1714G12c C00631657   6.574   4.264   7.744  0.0956  0.9952  1.1441
  1714G12c C00531658   6.504   4.380   7.747  2.0208 -0.9151  1.0260
  1714G12c C00431659   6.479   4.429   7.612 -0.2239 -1.7372 -0.3145
  1714G12c C00331660   6.445   4.562   7.589  1.1751 -0.2318  1.3566
  1714G12c C00231661   6.416   4.598   7.450  1.7955  0.6915  0.4580
  1714G12c C00131662   6.393   4.732   7.393  0.2822  1.8569  0.8775
  1714G12c C00M31663   6.434   4.857   7.433  0.8787 -2.1666  1.4242
  1714G12c C00L31664   6.468   4.903   7.546 -0.1314 -1.4073 -0.6740
  1714G12c C00R31665   6.547   5.014   7.591 -0.4888 -2.2214 -0.3372
  1714G12c C00Q31666   6.633   5.098   7.503 -0.5103  1.1260 -0.0042
  1714G12c C00V31667   6.718   5.171   7.580 -0.4797 -0.4792  0.1984
  1714G12c C00U31668   6.763   5.135   7.716  0.2222  1.0710  0.4136
  1714G12c C00T31669   6.695   5.048   7.790 -2.6515 -0.9566 -1.3210
  1714G12c C01631670   6.740   4.984   7.907  2.5043 -0.0965  0.9323
  1714G12c C01531671   6.861   5.018   7.949  0.9497 -0.7383 -0.1148
  1714G12c C01031672   6.924   5.133   7.890  0.2958  1.2391  0.3429
  1714G12c C01131673   7.032   5.176   7.963  0.2178 -0.5102  0.0504
  1714G12c H00531674   7.101   5.253   7.930 -1.7635  0.1572 -2.6615
  1714G12c C01231675   7.104   5.106   8.067 -1.1221 -1.0544 -0.4930
  1714G12c C01731676   7.214   5.169   8.159  0.3017  0.5925  0.9318
  1714G12c O00231677   7.307   5.254   8.083 -0.4441  1.5112 -0.4264
  1714G12c H00431678   7.388   5.222   8.118 -2.0037 -1.2793  0.8641
  1714G12c C01831679   7.229   5.155   8.297  0.5222  0.1390 -1.1707
  1714G12c O00131680   7.119   5.109   8.379  0.4884  0.1926  1.7804
  1714G12c H00331681   7.157   5.079   8.460  2.8057 -1.6154  0.0821
  1714G12c C01931682   7.336   5.226   8.387  1.2414 -0.2428  0.1543
  1714G12c H00231683   7.277   5.296   8.446 -0.5891 -0.6157 -1.1898
  1714G12c H00131684   7.381   5.303   8.324 -3.0416  0.7294 -1.8946
  1714G12c O00031685   7.402   5.125   8.455  1.5577 -0.1919 -1.4632
  1714G12c C01A31686   7.491   5.150   8.558  0.4790  1.2095 -1.3767
  1714G12c C02K31687   7.527   5.036   8.627 -0.3995  2.7916  1.4120
  1714G12c O00G31688   7.487   4.906   8.571  1.1783 -0.5103 -1.5638
  1714G12c C02M31689   7.343   4.867   8.548 -0.1526 -0.0278 -0.7975
  1714G12c H01G31690   7.352   4.769   8.501 -2.0810 -1.9842  2.7069
  1714G12c H01F31691   7.285   4.905   8.464 -4.2673 -0.2881  1.7782
  1714G12c H01E31692   7.258   4.867   8.617 -2.7317 -2.3578 -3.8553
  1714G12c C02J31693   7.618   5.040   8.720 -0.7453  0.7713 -0.4991
  1714G12c H01H31694   7.664   4.945   8.739  0.1222  1.4871  1.0381
  1714G12c C02I31695   7.650   5.158   8.788  0.1787  1.0026  1.3133
  1714G12c C02N31696   7.710   5.171   8.932  0.3869 -1.2507  0.0756
  1714G12c H01M31697   7.644   5.221   9.002 -1.8731 -1.8816 -1.5248
  1714G12c C02O31698   7.835   5.118   8.965 -0.0237 -0.4460  1.5407
  1714G12c H01L31699   7.872   5.127   9.065 -2.5857  1.4466  2.3746
  1714G12c C02P31700   7.933   5.043   8.892 -0.4577 -2.2016 -0.2581
  1714G12c H01K31701   7.894   5.030   8.791 -2.9190  2.6855 -0.0806
  1714G12c H01J31702   8.037   5.076   8.886 -1.7132  1.5007 -3.5931
  1714G12c O00H31703   7.950   4.910   8.947 -0.8024 -0.3967 -0.8100
  1714G12c H01I31704   7.993   4.913   9.031  0.6185 -0.8522 -1.5065
  1714G12c C02H31705   7.593   5.271   8.727  0.7686 -0.7075 -1.9756
  1714G12c H01C31706   7.605   5.372   8.764 -0.1798 -1.9563  2.0164
  1714G12c C02L31707   7.522   5.269   8.611 -0.3733  0.3663 -0.7634
  1714G12c H01D31708   7.459   5.353   8.583  1.8986  1.8662 -1.5295
  1714G12c C01331709   7.033   4.989   8.111 -0.0354 -0.9544 -0.8804
  1714G12c H00031710   7.097   4.960   8.192 -5.1716 -7.3403  1.3367
  1714G12c C01431711   6.896   4.959   8.070 -1.3412 -1.4409 -1.0716
  1714G12c C00F31712   6.844   4.830   8.123 -0.7351 -0.1960 -0.4259
  1714G12c C00H31713   6.676   4.852   7.950 -0.8726 -0.3515 -0.3110
  1714G12c C00I31714   6.557   4.808   7.888 -1.3349  0.4059  1.2182
  1714G12c C00J31715   6.510   4.878   7.772  0.3838  0.9813 -1.2816
  1714G12c C00Z31716   6.876   5.190   7.776  3.1110  0.9673  0.0269
  1714G12c C00Y31717   6.933   5.297   7.706 -0.4096  0.3392 -0.4307
  1714G12c H00631718   6.993   5.361   7.769 -1.1276  0.4913  0.0983
  1714G12c C00X31719   6.911   5.346   7.579  0.8641 -0.6319  0.5392
  1714G12c O00331720   6.997   5.436   7.511 -0.7286 -1.5293 -0.0699
  1714G12c C01B31721   7.101   5.334   7.483 -0.7514 -0.0213  0.6501
  1714G12c H00931722   7.182   5.380   7.426 -3.3986  0.7011 -2.7125
  1714G12c H00831723   7.086   5.252   7.413  5.4343 -4.4883  4.1098
  1714G12c H00731724   7.129   5.297   7.582  2.9915 -1.6240 -0.9088
  1714G12c C00W31725   6.808   5.267   7.516 -0.7585  0.3821  0.9757
  1714G12c O00431726   6.782   5.295   7.380 -0.4527  0.1436  0.7265
  1714G12c C01C31727   6.686   5.227   7.300 -0.6236 -0.6776 -0.2585
  1714G12c H00A31728   6.690   5.226   7.192 -3.7536 -2.9632 -0.4410
  1714G12c C00P31729   6.626   5.109   7.363  0.5121  0.7366  0.0221
  1714G12c C00O31730   6.569   5.017   7.275 -0.8096 -1.2528  0.1834
  1714G12c C01D31731   6.619   5.008   7.141 -1.9994  0.1976  1.9004
  1714G12c H00S31732   6.692   5.072   7.094 -0.6522 -1.6837  1.3772
  1714G12c C01E31733   6.600   4.887   7.053 -2.3305 -1.1059 -0.6314
  1714G12c O00831734   6.689   4.855   6.953  0.5522 -0.9200  1.9782
  1714G12c C01V31735   6.820   4.883   6.969 -1.1356 -0.2529 -1.1532
  1714G12c C01Z31736   6.853   5.004   6.882 -0.4294 -0.5378  0.3944
  1714G12c H00R31737   6.806   5.102   6.886 -0.6662 -0.5122 -2.1370
  1714G12c H00Q31738   6.940   5.035   6.939 -0.2336 -0.9271  0.3131
  1714G12c O00931739   6.875   4.939   6.764 -0.4280 -2.1014 -1.2536
  1714G12c H00P31740   6.913   4.859   6.798  0.4516 -2.2284 -2.5216
  1714G12c C01W31741   6.888   4.807   7.039 -0.8805 -1.8204  0.0775
  1714G12c H00O31742   6.866   4.768   7.137  4.8958 -0.4530  2.1540
  1714G12c C01X31743   7.047   4.784   7.056 -0.1370 -1.8123 -0.2701
  1714G12c H00N31744   7.063   4.678   7.041 -2.7001 -2.5182  1.5776
  1714G12c H00M31745   7.057   4.808   6.950  4.4312  5.7320  1.4660
  1714G12c C01Y31746   7.122   4.824   7.185  0.1898 -1.3028 -0.5918
  1714G12c C02D31747   7.176   4.948   7.216  0.2204 -0.7331 -1.1669
  1714G12c H01931748   7.209   5.002   7.128 -3.3761 -2.1259 -3.5098
  1714G12c C02C31749   7.238   4.993   7.335 -0.2858  0.8657 -0.0576
  1714G12c H01A31750   7.332   5.046   7.333 -0.9826  2.2913  2.6456
  1714G12c C02B31751   7.253   4.891   7.435 -1.0101  0.9117  0.5207
  1714G12c O00E31752   7.349   4.898   7.534 -0.7950  0.5730  0.1531
  1714G12c H01B31753   7.295   4.861   7.602 -2.6848  3.1023  0.0880
  1714G12c C02F31754   7.165   4.781   7.436 -1.3820 -0.2453  0.6206
  1714G12c O00F31755   7.138   4.710   7.541 -0.0022  0.6627 -1.0729
  1714G12c C02G31756   7.010   4.620   7.540 -1.3410 -0.0446 -0.7162
  1714G12c H01731757   7.026   4.562   7.449 -4.8455 -3.7370  0.9019
  1714G12c H01631758   6.921   4.679   7.560 -5.3113 -4.9779 -2.8198
  1714G12c H01531759   7.027   4.538   7.609 -3.5854  3.5436  4.4665
  1714G12c C02E31760   7.121   4.754   7.304  1.0033 -0.9340 -0.0930
  1714G12c H01831761   7.075   4.656   7.298  6.7137 -4.0548  3.0676
  1714G12c C01F31762   6.510   4.795   7.085 -1.0216  0.2760  1.1754
  1714G12c C01G31763   6.508   4.678   7.006  2.1655  0.3714 -1.8381
  1714G12c H00L31764   6.587   4.646   6.939  5.5691  2.3359  1.0293
  1714G12c C01H31765   6.457   4.560   7.075  1.2859 -1.5028  0.3768
  1714G12c H00B31766   6.453   4.467   7.022 -0.0288 -3.8122  4.3077
  1714G12c C01I31767   6.407   4.579   7.217 -2.2622  0.2693  0.0713
  1714G12c C01U31768   6.448   4.816   7.207 -2.6717  0.5874 -0.3722
  1714G12c C00S31769   6.587   4.998   7.730 -0.0715  2.8255  0.0836
  1714G12c C00K31770   6.456   4.803   7.659  0.7267 -0.0172 -1.1846
  1714G12c C00N31771   6.496   4.918   7.316  0.5941 -1.0770  0.3820
  1714G12c C00031772   6.387   4.707   7.257  1.1946 -0.1572 -0.6295
  1714G12c C01J31773   6.410   4.505   7.345 -1.3996  0.4690 -2.3307
  1714G12c C01K31774   6.421   4.374   7.376  0.6183 -1.4890  2.3649
  1714G12c C01P31775   6.407   4.266   7.277 -2.3610 -0.1418 -1.1163
  1714G12c C01Q31776   6.306   4.245   7.169  0.4720 -0.5559  0.6964
  1714G12c H00G31777   6.320   4.172   7.091  0.7337 -0.9230  1.0799
  1714G12c C01R31778   6.182   4.301   7.167 -0.1532  0.0973  0.9308
  1714G12c H00F31779   6.174   4.392   7.224 -4.0114  1.9673 -2.3431
  1714G12c C01S31780   6.072   4.235   7.079  2.6822 -0.0199 -0.6971
  1714G12c H00E31781   6.013   4.307   7.023  1.5140  2.0573  3.0278
  1714G12c H00D31782   6.083   4.160   7.001 -6.8174 -1.1445 -1.4761
  1714G12c O00531783   6.003   4.149   7.176  0.5755 -1.8693  0.1763
  1714G12c H00C31784   5.996   4.060   7.145 -4.8891 -2.5220  2.6800
  1714G12c C01O31785   6.435   4.137   7.318 -0.0767  0.0026 -0.5334
  1714G12c H00H31786   6.403   4.068   7.242 -2.8123  1.6906 -0.9774
  1714G12c C01N31787   6.548   4.115   7.412  0.1179 -0.7902 -0.2221
  1714G12c O00631788   6.599   3.987   7.426  2.2901  1.1968 -0.3551
  1714G12c C01T31789   6.554   3.903   7.531  0.1981 -0.3006 -0.9559
  1714G12c H00K31790   6.446   3.905   7.520 -0.4961 -1.0129  4.3298
  1714G12c H00J31791   6.572   3.935   7.634  7.1311 -1.2636 -1.6219
  1714G12c H00I31792   6.599   3.811   7.494 -0.0054 -1.5553  1.7451
  1714G12c C01M31793   6.528   4.220   7.513  1.4603 -0.8392  1.7581
  1714G12c C02031794   6.439   4.655   7.694  1.5716 -0.9007 -0.7098
  1714G12c C02131795   6.449   4.593   7.820 -0.3437  0.0168 -0.0048
  1714G12c C01L31796   6.482   4.347   7.499 -1.9793 -1.7709  0.0693
  1714G12c O00731797   6.573   4.180   7.639 -1.2350  1.2284  1.9993
  1714G12c C02231798   6.487   4.471   7.845  0.9866  0.1662  0.9625
  1714G12c C02331799   6.535   4.669   7.904  1.1646  0.2967  0.2445
  1714G12c C00G31800   6.749   4.767   8.044 -0.0449 -1.2519 -0.7007
  1714G12c C00E31801   6.917   4.736   8.203  1.7079 -0.2495  0.0259
  1714G12c O00A31802   6.977   4.794   8.318  0.0070 -0.3048 -0.4649
  1714G12c C02431803   6.881   4.850   8.403  0.9562 -1.5678 -0.3771
  1714G12c H00V31804   6.893   4.840   8.511  7.3074 -0.7610 -0.8234
  1714G12c H00U31805   6.876   4.959   8.402  0.1168 -1.5707  1.1162
  1714G12c H00T31806   6.784   4.808   8.375  1.7536 -1.8085 -2.8489
  1724G12c C00D31807   3.761   4.749   9.405 -1.4957 -0.3643 -0.0192
  1724G12c O00B31808   3.639   4.736   9.457 -0.9470 -0.7800 -1.3967
  1724G12c C02531809   3.598   4.749   9.588 -1.2425 -0.1655 -1.0792
  1724G12c C02631810   3.477   4.837   9.629  0.8942  0.3359  1.0561
  1724G12c H00Y31811   3.433   4.824   9.728 -3.6677 -0.5897 -0.9342
  1724G12c H00X31812   3.387   4.823   9.569  2.4618 -1.8243 -0.9155
  1724G12c O00C31813   3.550   4.935   9.584  0.5717 -1.2481 -0.0907
  1724G12c H00W31814   3.603   4.952   9.660  1.8104  2.0990 -1.6059
  1724G12c C02731815   3.654   4.655   9.655  0.6668  0.4372 -0.3925
  1724G12c O00D31816   3.749   4.566   9.630 -0.6230  0.0458  0.2464
  1724G12c H00Z31817   3.749   4.521   9.546 -4.2323 -0.5468  0.4641
  1724G12c C02831818   3.584   4.634   9.781  0.1086  0.8185  0.4249
  1724G12c C02931819   3.474   4.530   9.789  0.5662  0.2212  1.0395
  1724G12c H01031820   3.453   4.450   9.720  0.8352  1.6799 -0.7957
  1724G12c C02T31821   3.388   4.509   9.897 -1.7390  1.9010 -1.1464
  1724G12c H01O31822   3.329   4.420   9.918 -3.5255  3.5602  1.0751
  1724G12c C02S31823   3.415   4.561  10.021  0.7857 -0.9873 -1.6300
  1724G12c O00J31824   3.345   4.501  10.124  0.0177  0.6549  0.6207
  1724G12c H01P31825   3.343   4.542  10.209 -0.2550 -3.6386  2.8266
  1724G12c C02R31826   3.516   4.648  10.022 -0.1696 -0.3072 -0.6921
  1724G12c O00I31827   3.541   4.716  10.137 -0.7563 -2.2202  0.0775
  1724G12c C02Q31828   3.669   4.719  10.175 -0.9600  1.2280  0.3570
  1724G12c H01N31829   3.669   4.734  10.283 -0.4497  3.6469  0.0308
  1724G12c H01R31830   3.700   4.813  10.131 -1.3034 -0.5186 -3.8700
  1724G12c H01Q31831   3.732   4.636  10.144  1.8061  3.0011  1.0352
  1724G12c C02A31832   3.589   4.701   9.906 -0.3716 -0.8216 -0.4564
  1724G12c H01131833   3.649   4.789   9.919 -0.3412 -0.4286 -2.9528
  1724G12c C00C31834   3.881   4.769   9.480 -0.6659  0.4161 -1.2897
  1724G12c H01231835   3.883   4.750   9.586  0.3007 -1.2517 -1.5708
  1724G12c C00B31836   4.005   4.760   9.427 -0.1196  0.2096  0.9381
  1724G12c C00A31837   4.135   4.706   9.490 -0.1385  0.5302  0.0949
  1724G12c C00931838   4.193   4.706   9.627 -0.2625  1.2770 -0.9149
  1724G12c C00831839   4.161   4.731   9.764  0.0331  1.2534 -0.2060
  1724G12c H01331840   4.056   4.739   9.788 -0.3631  6.0010 -2.9263
  1724G12c C00731841   4.255   4.715   9.863 -1.3498 -0.5381  0.8787
  1724G12c H01431842   4.234   4.740   9.966 -1.6038 -3.0214  1.4669
  1724G12c C00631843   4.391   4.697   9.828 -0.0491 -0.7675  2.3020
  1724G12c C00531844   4.417   4.668   9.691 -1.9824  0.1532 -2.2180
  1724G12c C00431845   4.553   4.660   9.652  1.4264 -0.4471  0.5470
  1724G12c C00331846   4.564   4.651   9.509  0.9914 -0.1627  1.3956
  1724G12c C00231847   4.701   4.680   9.469  0.1609 -0.5418  1.9077
  1724G12c C00131848   4.777   4.688   9.344  1.3019 -2.8190  0.4082
  1724G12c C00M31849   4.713   4.736   9.213  1.4827 -0.1272 -1.0076
  1724G12c C00L31850   4.569   4.720   9.179  1.8596  1.2081  0.4855
  1724G12c C00R31851   4.494   4.774   9.071  0.6291 -1.4121  0.1063
  1724G12c C00Q31852   4.528   4.875   8.971 -0.9652  0.7808  1.9397
  1724G12c C00V31853   4.415   4.903   8.892  0.1300  0.0445 -0.1267
  1724G12c C00U31854   4.287   4.867   8.920 -2.0583 -2.0003  0.3630
  1724G12c C00T31855   4.259   4.797   9.031 -1.1154 -0.5534 -1.4621
  1724G12c C01631856   4.138   4.783   9.083  0.2074  0.4410 -0.4601
  1724G12c C01531857   4.032   4.840   9.018 -0.5897 -0.5560  0.4125
  1724G12c C01031858   4.053   4.902   8.893 -0.5481 -2.4372 -0.0377
  1724G12c C01131859   3.924   4.937   8.831  1.5223  0.3732  1.6464
  1724G12c H00531860   3.942   4.980   8.734  3.3406 -0.7849  1.4361
  1724G12c C01231861   3.802   4.949   8.905  0.5019 -0.0135 -0.6985
  1724G12c C01731862   3.698   5.032   8.853  0.5505 -0.4535 -0.7661
  1724G12c O00231863   3.720   5.165   8.863  1.2009  0.9006 -0.1027
  1724G12c H00431864   3.735   5.186   8.772 -6.3626 -5.6919 -3.4634
  1724G12c C01831865   3.590   4.973   8.811  0.2464  0.8627 -0.0960
  1724G12c O00131866   3.570   4.839   8.826 -0.2732 -0.0451 -0.3527
  1724G12c H00331867   3.650   4.789   8.832 -2.8741 -4.4140  0.1111
  1724G12c C01931868   3.476   5.055   8.758 -0.3747 -1.7627  0.0599
  1724G12c H00231869   3.391   5.030   8.822 -4.1860  1.8205 -3.3598
  1724G12c H00131870   3.458   5.158   8.787 -3.6679 -0.9926 -4.2349
  1724G12c O00031871   3.453   5.067   8.613  0.1690 -0.3438  0.7424
  1724G12c C01A31872   3.524   5.190   8.580  1.6342  0.7512 -0.8744
  1724G12c C02K31873   3.455   5.302   8.533 -0.4874 -0.9391 -0.6907
  1724G12c O00G31874   3.315   5.316   8.536 -0.8954 -0.2052  0.4379
  1724G12c C02M31875   3.218   5.208   8.523  1.6369 -1.4749 -1.3522
  1724G12c H01G31876   3.137   5.225   8.453  0.9769 -2.4365 -0.8374
  1724G12c H01F31877   3.203   5.172   8.625 -0.3211 -3.8857 -2.4492
  1724G12c H01E31878   3.270   5.127   8.471 -2.4829 -5.2283  0.0520
  1724G12c C02J31879   3.532   5.416   8.487  0.2473  0.1234  0.2750
  1724G12c H01H31880   3.488   5.506   8.448  9.2398  5.4381  1.0328
  1724G12c C02I31881   3.664   5.411   8.484 -0.3060 -0.5557  0.5970
  1724G12c C02N31882   3.735   5.525   8.435  0.5408 -1.6435 -0.1744
  1724G12c H01M31883   3.678   5.604   8.388  2.8056 -0.1024 -0.4221
  1724G12c C02O31884   3.863   5.515   8.401 -1.2367  0.7824  0.3619
  1724G12c H01L31885   3.927   5.428   8.399 -3.0015 -0.6020  1.9736
  1724G12c C02P31886   3.942   5.618   8.329 -0.0332 -1.7379 -0.4710
  1724G12c H01K31887   3.992   5.594   8.235 -0.8834  0.1444 -1.4183
  1724G12c H01J31888   3.874   5.683   8.274  1.2743 -4.8072 -6.2139
  1724G12c O00H31889   4.008   5.686   8.432 -0.1818 -1.6081 -1.0767
  1724G12c H01I31890   3.983   5.658   8.519 -3.0188 -0.4966 -1.4770
  1724G12c C02H31891   3.732   5.300   8.541  0.1648  0.6827  0.3906
  1724G12c H01C31892   3.840   5.291   8.538  0.0156 -1.5784  0.5363
  1724G12c C02L31893   3.658   5.194   8.561  1.5018 -1.0118 -0.8363
  1724G12c H01D31894   3.685   5.090   8.565  1.0410 -1.3589 -4.7937
  1724G12c C01331895   3.775   4.889   9.023  1.2898  0.4761 -0.3696
  1724G12c H00031896   3.686   4.903   9.082 -0.8933  1.2231 -3.7310
  1724G12c C01431897   3.895   4.838   9.077 -2.3228 -0.6178 -0.9705
  1724G12c C00F31898   3.890   4.789   9.215 -0.4255  0.5125 -0.2751
  1724G12c C00H31899   4.116   4.733   9.211  1.5951 -0.6862 -1.6851
  1724G12c C00I31900   4.228   4.677   9.273  0.3838  0.2503 -1.4374
  1724G12c C00J31901   4.353   4.678   9.208 -1.3173 -0.0378  0.2721
  1724G12c C00Z31902   4.187   4.911   8.838  0.0077 -0.6159 -1.5197
  1724G12c C00Y31903   4.198   4.993   8.725  1.2050  0.1212 -0.8370
  1724G12c H00631904   4.127   5.026   8.651  2.2389  1.2396 -1.3449
  1724G12c C00X31905   4.324   5.034   8.688  0.8843  0.8627  0.7833
  1724G12c O00331906   4.374   5.099   8.573  0.1632  1.1550 -0.3618
  1724G12c C01B31907   4.291   5.193   8.491  0.0867 -1.4006 -1.2591
  1724G12c H00931908   4.196   5.143   8.468  0.0455 -1.7423 -0.3500
  1724G12c H00831909   4.343   5.204   8.395 -0.9650  0.2807 -1.6496
  1724G12c H00731910   4.276   5.295   8.525 -4.2223 -1.6234 -2.2352
  1724G12c C00W31911   4.425   4.967   8.778 -0.1471  0.5942 -0.6854
  1724G12c O00431912   4.552   4.999   8.735 -0.7599  0.9699 -0.6902
  1724G12c C01C31913   4.637   5.023   8.831  1.7001  0.3010 -0.6019
  1724G12c H00A31914   4.689   5.117   8.830  3.0770 -0.4521 -1.1123
  1724G12c C00P31915   4.656   4.929   8.957 -0.8321  1.1962  0.3286
  1724G12c C00O31916   4.753   4.941   9.065 -0.5060 -0.7467 -0.8312
  1724G12c C01D31917   4.808   5.081   9.080 -0.3933 -0.4503  0.2587
  1724G12c H00S31918   4.799   5.143   8.992 -0.8783  0.2044  0.7704
  1724G12c C01E31919   4.861   5.122   9.207 -0.8802 -0.7557 -0.9435
  1724G12c O00831920   4.923   5.243   9.222 -0.2702 -1.4541 -0.9784
  1724G12c C01V31921   5.048   5.256   9.163 -0.1457  0.3762  0.9522
  1724G12c C01Z31922   5.175   5.186   9.222  2.0425  0.0109  0.0251
  1724G12c H00R31923   5.118   5.125   9.293 -0.8825 -0.2228 -2.3931
  1724G12c H00Q31924   5.200   5.089   9.179 -0.6119  0.3234 -2.3723
  1724G12c O00931925   5.267   5.297   9.257  0.1815 -0.6013 -0.3529
  1724G12c H00P31926   5.353   5.262   9.240 -0.0186 -0.4303 -1.8674
  1724G12c C01W31927   5.047   5.357   9.070 -0.6514 -1.5214  0.5313
  1724G12c H00O31928   5.139   5.369   9.015  1.3301 -1.7665  3.6726
  1724G12c C01X31929   4.917   5.439   9.035 -0.2509 -0.2906 -1.2736
  1724G12c H00N31930   4.847   5.451   9.118  0.6280 -3.2899 -0.0104
  1724G12c H00M31931   4.954   5.540   9.018 -0.1443 -0.4735 -2.1612
  1724G12c C01Y31932   4.856   5.426   8.892  0.6870  1.0015 -1.6134
  1724G12c C02D31933   4.873   5.318   8.802 -0.2674 -1.8876  0.0218
  1724G12c H01931934   4.927   5.225   8.810  0.0233 -2.2649 -4.8447
  1724G12c C02C31935   4.844   5.345   8.662  0.5606  0.5763  1.8103
  1724G12c H01A31936   4.830   5.263   8.594 -0.5485  1.6020  0.7964
  1724G12c C02B31937   4.808   5.481   8.618 -0.0409 -0.9678 -2.9378
  1724G12c O00E31938   4.761   5.512   8.487 -0.8835 -0.0862  0.6836
  1724G12c H01B31939   4.796   5.559   8.413 -4.9161 -2.4652 -3.0125
  1724G12c C02F31940   4.776   5.580   8.708 -1.1802  0.2566 -0.7265
  1724G12c O00F31941   4.723   5.701   8.669  0.6875 -0.6892  0.4799
  1724G12c C02G31942   4.780   5.817   8.728  0.7105 -0.4440 -0.5778
  1724G12c H01731943   4.828   5.881   8.653  1.3461  1.3626  1.3119
  1724G12c H01631944   4.846   5.819   8.814 -5.4017 -5.2804  4.6471
  1724G12c H01531945   4.675   5.844   8.742  1.1653  2.6785 -2.5257
  1724G12c C02E31946   4.797   5.540   8.844  1.2352 -1.9916  0.0634
  1724G12c H01831947   4.782   5.620   8.915 -1.1810 -2.1393 -0.2258
  1724G12c C01F31948   4.888   5.023   9.298 -0.1088 -0.9672  0.2756
  1724G12c C01G31949   4.922   5.051   9.435 -1.4419 -1.8627 -0.0820
  1724G12c H00L31950   4.925   5.148   9.483  1.3508 -1.7605 -0.3977
  1724G12c C01H31951   4.891   4.962   9.543  0.7962  0.7896 -0.6351
  1724G12c H00B31952   4.867   4.995   9.644 -0.5125 -2.1165  0.0517
  1724G12c C01I31953   4.869   4.818   9.510  0.7675 -0.9600  0.7512
  1724G12c C01U31954   4.866   4.877   9.279 -0.3736 -0.7971  0.5812
  1724G12c C00S31955   4.369   4.736   9.091 -1.1125  1.4802  0.9081
  1724G12c C00K31956   4.478   4.668   9.269 -2.1117 -0.0067 -0.2868
  1724G12c C00N31957   4.769   4.857   9.175  0.4968 -0.4989  0.2237
  1724G12c C00031958   4.875   4.782   9.373  0.4620 -0.9644  0.3065
  1724G12c C01J31959   4.792   4.729   9.567  1.4892 -0.4808 -0.6879
  1724G12c C01K31960   4.776   4.721   9.712 -0.0365  1.4680 -1.2293
  1724G12c C01P31961   4.874   4.752   9.803  1.1327 -1.3749  0.0044
  1724G12c C01Q31962   5.014   4.741   9.750  0.3428 -1.1848 -0.7942
  1724G12c H00G31963   5.071   4.668   9.695  1.3918 -1.4302  0.5935
  1724G12c C01R31964   5.102   4.852   9.754  0.4193 -0.4581 -0.6096
  1724G12c H00F31965   5.087   4.936   9.819  1.6854 -1.6679  1.2962
  1724G12c C01S31966   5.237   4.860   9.717  0.0971  1.4540  0.4535
  1724G12c H00E31967   5.308   4.897   9.791  4.2583 -1.0220 -2.0425
  1724G12c H00D31968   5.283   4.762   9.712 -2.0505  0.2972  2.4914
  1724G12c O00531969   5.261   4.888   9.577 -0.0340 -0.7558 -0.9746
  1724G12c H00C31970   5.215   4.971   9.577  3.9943  1.6579  0.6472
  1724G12c C01O31971   4.850   4.729   9.940  0.0107 -0.5480 -0.1546
  1724G12c H00H31972   4.917   4.715  10.023  2.9415  0.8518 -2.1939
  1724G12c C01N31973   4.717   4.697   9.988 -0.3642 -1.3442  0.8700
  1724G12c O00631974   4.702   4.680  10.126 -0.6125 -1.2906  0.5206
  1724G12c C01T31975   4.715   4.818  10.166  0.3994 -0.2479 -0.3462
  1724G12c H00K31976   4.806   4.870  10.138  0.5688 -1.6783 -2.6321
  1724G12c H00J31977   4.711   4.819  10.275  4.6632  2.7152 -0.0983
  1724G12c H00I31978   4.625   4.874  10.140 -1.2272 -2.5603  0.0959
  1724G12c C01M31979   4.608   4.700   9.887  1.5062 -0.2566  0.9009
  1724G12c C02031980   4.463   4.633   9.408  0.8160  1.6094  0.9712
  1724G12c C02131981   4.334   4.601   9.471  0.8186  0.4285  0.4679
  1724G12c C01L31982   4.646   4.686   9.747  0.2585 -0.3895 -0.3278
  1724G12c O00731983   4.487   4.698   9.927 -0.9593  1.1890  0.4746
  1724G12c C02231984   4.317   4.649   9.598 -0.8146  1.3074 -0.2064
  1724G12c C02331985   4.219   4.640   9.404  1.0603 -0.5588 -0.0134
  1724G12c C00G31986   3.997   4.767   9.285 -0.3866 -0.0939  0.5043
  1724G12c C00E31987   3.779   4.733   9.269  1.3076 -0.1771 -0.0968
  1724G12c O00A31988   3.663   4.723   9.199 -1.2107 -0.0249 -0.0969
  1724G12c C02431989   3.556   4.627   9.237  0.1212  0.7154  0.2513
  1724G12c H00V31990   3.501   4.618   9.143  0.6356  1.5905 -0.1356
  1724G12c H00U31991   3.477   4.663   9.304  1.7788  0.4170  2.4462
  1724G12c H00T31992   3.586   4.524   9.257 -0.5758 -0.0071 -2.2429
  1734G12c C00D31993  10.955  11.186   1.858 -1.7111 -1.5049 -0.7919
  1734G12c O00B31994  10.982  11.114   1.967 -0.4892  0.7677 -0.5963
  1734G12c C02531995  11.100  11.093   2.049 -0.4118 -1.5427  0.7526
  1734G12c C02631996  11.146  10.951   2.030 -0.4562 -0.7590  0.4117
  1734G12c H00Y31997  11.114  10.952   1.926 -2.2680  0.8100  0.9650
  1734G12c H00X31998  11.078  10.906   2.102 -2.1820  3.3801  1.5236
  1734G12c O00C31999  11.289  10.924   2.040 -0.2783  0.2432  0.1250
  1734G12c H00W32000  11.290  10.833   2.015  3.8005 -0.1363  1.2467
  1734G12c C02732001  11.132  11.183   2.159  1.1897  0.9393 -1.0383
  1734G12c O00D32002  11.074  11.311   2.193  1.5082 -2.0383  0.1661
  1734G12c H00Z32003  10.999  11.261   2.221 -2.9743  3.4442 -1.2767
  1734G12c C02832004  11.242  11.149   2.247 -0.0311  0.5301 -0.5011
  1734G12c C02932005  11.360  11.212   2.230 -1.2417 -0.5262  0.0192
  1734G12c H01032006  11.382  11.289   2.158 -0.2156 -3.7287 -3.2424
  1734G12c C02T32007  11.467  11.148   2.296 -1.1084 -0.1959  0.5332
  1734G12c H01O32008  11.574  11.163   2.288 -0.9202 -2.7346 -3.4292
  1734G12c C02S32009  11.453  11.052   2.397  1.4971  0.7726 -0.4397
  1734G12c O00J32010  11.549  10.987   2.463  0.3458  0.1691  1.2178
  1734G12c H01P32011  11.552  10.892   2.468  0.3665  0.2969  5.4183
  1734G12c C02R32012  11.324  10.996   2.426 -0.4878  1.5918  0.6228
  1734G12c O00I32013  11.308  10.881   2.507 -0.4792 -0.1727 -0.8855
  1734G12c C02Q32014  11.334  10.771   2.449  1.3040  1.0091  1.1187
  1734G12c H01N32015  11.352  10.678   2.502 -1.1084  3.9109  7.5798
  1734G12c H01R32016  11.426  10.780   2.392 -0.5350  3.7232 -1.6061
  1734G12c H01Q32017  11.234  10.740   2.419  2.1329 -1.9596  1.3289
  1734G12c C02A32018  11.215  11.044   2.349 -0.2607 -0.1939 -1.9252
  1734G12c H01132019  11.148  10.962   2.327 -0.0569 -0.7382 -0.5583
  1734G12c C00C32020  11.014  11.306   1.842  0.0980  0.7943  1.5323
  1734G12c H01232021  11.078  11.326   1.927  1.8903  0.9690  0.1630
  1734G12c C00B32022  11.010  11.392   1.730 -0.0561  0.7240  0.4901
  1734G12c C00A32023  11.061  11.529   1.720  0.4801  0.8943  1.2658
  1734G12c C00932024  11.126  11.630   1.818 -1.5984  0.2059  2.6336
  1734G12c C00832025  11.110  11.642   1.952  1.9151 -0.4963 -0.7970
  1734G12c H01332026  11.088  11.549   2.002  4.0098 -2.7337 -3.8650
  1734G12c C00732027  11.078  11.767   2.014  0.0767 -0.4183 -1.5201
  1734G12c H01432028  11.010  11.766   2.098 -0.6441  0.7461 -2.0776
  1734G12c C00632029  11.048  11.883   1.931 -1.1497  1.3514 -0.0236
  1734G12c C00532030  11.088  11.871   1.793 -0.2765 -1.3451  1.1941
  1734G12c C00432031  11.031  11.971   1.709 -0.0024 -0.8310  0.7935
  1734G12c C00332032  11.012  11.946   1.568  1.6007 -0.7007 -0.2761
  1734G12c C00232033  10.948  12.053   1.489 -0.3404  0.6368  0.1192
  1734G12c C00132034  10.893  12.069   1.372  0.5299 -0.1658 -0.2209
  1734G12c C00M32035  10.820  11.968   1.304 -0.8636  0.3622 -1.1888
  1734G12c C00L32036  10.840  11.831   1.325 -0.1815 -0.8853  0.9997
  1734G12c C00R32037  10.746  11.730   1.283  0.9811 -0.2513  0.2406
  1734G12c C00Q32038  10.627  11.719   1.210  0.2275  1.5713 -0.4269
  1734G12c C00V32039  10.560  11.597   1.211  0.1993  0.3061  0.5136
  1734G12c C00U32040  10.623  11.488   1.272 -0.3437  0.9685 -0.6645
  1734G12c C00T32041  10.740  11.492   1.343  0.2867 -0.0411 -0.2368
  1734G12c C01632042  10.774  11.402   1.437 -1.5131 -0.3675 -1.3123
  1734G12c C01532043  10.728  11.277   1.449 -1.6237  2.3016 -0.0923
  1734G12c C01032044  10.617  11.252   1.368 -0.2508 -1.1585  1.8496
  1734G12c C01132045  10.536  11.131   1.381  1.6587 -0.7705  0.1136
  1734G12c H00532046  10.444  11.113   1.328  0.4908 -1.1295  2.2197
  1734G12c C01232047  10.611  11.020   1.440  1.0161  1.7160  0.5888
  1734G12c C01732048  10.585  10.874   1.419  0.0661 -3.5925  0.4620
  1734G12c O00232049  10.570  10.783   1.510 -0.9078  1.1775  0.1477
  1734G12c H00432050  10.611  10.701   1.488  2.3879  2.7022  0.3425
  1734G12c C01832051  10.605  10.837   1.282 -1.3266 -1.1280 -0.9178
  1734G12c O00132052  10.630  10.914   1.170  0.3375 -0.8521 -0.9293
  1734G12c H00332053  10.648  10.838   1.117  1.3624 -6.6611  6.8706
  1734G12c C01932054  10.589  10.685   1.245  0.1357  1.5344  0.1905
  1734G12c H00232055  10.507  10.648   1.306  4.8488 -2.2946  4.7683
  1734G12c H00132056  10.544  10.680   1.146  0.1128  0.9076  0.2305
  1734G12c O00032057  10.678  10.595   1.295  0.0371 -1.3659 -0.8051
  1734G12c C01A32058  10.792  10.634   1.254  1.1731 -0.0400 -1.5014
  1734G12c C02K32059  10.879  10.668   1.350  0.6024 -1.1425  0.6367
  1734G12c O00G32060  10.866  10.706   1.481  1.0847  0.3058  1.4316
  1734G12c C02M32061  10.863  10.594   1.580 -0.4195 -0.2028 -1.2643
  1734G12c H01G32062  10.953  10.537   1.604 -2.5052 -2.7412  0.6370
  1734G12c H01F32063  10.779  10.525   1.573 -2.1902  1.2219  3.7008
  1734G12c H01E32064  10.853  10.648   1.674  2.5157  0.8657 -1.4954
  1734G12c C02J32065  11.004  10.674   1.294  0.1781  1.4881  0.9301
  1734G12c H01H32066  11.080  10.693   1.369  2.4255  0.1256 -0.9249
  1734G12c C02I32067  11.056  10.647   1.168  0.6714 -0.1170  0.6308
  1734G12c C02N32068  11.199  10.657   1.145  0.4622  0.3658  0.7934
  1734G12c H01M32069  11.260  10.713   1.076 -1.0477  1.7258  0.5464
  1734G12c C02O32070  11.273  10.595   1.226 -1.4858  0.1689  1.6030
  1734G12c H01L32071  11.251  10.615   1.330  0.7145  4.9053  1.3099
  1734G12c C02P32072  11.409  10.549   1.205 -1.0900  0.0141 -0.3021
  1734G12c H01K32073  11.396  10.459   1.264  0.6071  1.7688  2.8500
  1734G12c H01J32074  11.441  10.514   1.106 -0.6878  1.5890 -0.7519
  1734G12c O00H32075  11.495  10.648   1.255 -0.4977  0.3934 -0.3488
  1734G12c H01I32076  11.556  10.609   1.316 -4.8329 -5.2475  0.8688
  1734G12c C02H32077  10.957  10.620   1.075  0.9366 -2.3552  1.1664
  1734G12c H01C32078  10.984  10.635   0.972  6.9766  1.2371  2.9945
  1734G12c C02L32079  10.825  10.623   1.120  0.5336 -0.8001  1.7051
  1734G12c H01D32080  10.757  10.596   1.041  4.6720 -3.2007 -1.2186
  1734G12c C01332081  10.746  11.047   1.494  1.7801  1.3413  0.0747
  1734G12c H00032082  10.794  10.955   1.525  3.8211  1.6402 -1.9889
  1734G12c C01432083  10.764  11.184   1.524  2.3225  0.1138 -0.6678
  1734G12c C00F32084  10.844  11.231   1.636 -0.1090 -0.3128  1.1519
  1734G12c C00H32085  10.896  11.436   1.517 -0.0950 -0.3781 -0.8150
  1734G12c C00I32086  10.974  11.551   1.494 -0.8603 -1.5803  0.2775
  1734G12c C00J32087  10.910  11.631   1.402 -0.3554 -0.0188  0.1166
  1734G12c C00Z32088  10.550  11.362   1.293 -1.2368  0.6682 -2.0752
  1734G12c C00Y32089  10.429  11.347   1.220 -0.2935  1.4025  0.6942
  1734G12c H00632090  10.368  11.258   1.220  4.3275 -2.1884 -6.4994
  1734G12c C00X32091  10.375  11.464   1.170  0.4397  1.5995 -0.2582
  1734G12c O00332092  10.250  11.476   1.109  0.3510  1.1901  0.6370
  1734G12c C01B32093  10.135  11.383   1.115 -0.3315  0.3603 -0.4484
  1734G12c H00932094  10.085  11.411   1.209  2.3141  4.4891 -0.1306
  1734G12c H00832095  10.063  11.424   1.044 -1.3346  4.9431  2.9065
  1734G12c H00732096  10.150  11.281   1.081  2.1968  0.5476  0.0075
  1734G12c C00W32097  10.434  11.582   1.159  1.6193 -0.0626  0.6268
  1734G12c O00432098  10.370  11.678   1.092 -0.6109  0.7761  1.8313
  1734G12c C01C32099  10.451  11.796   1.072 -1.4256  0.7934 -0.7234
  1734G12c H00A32100  10.457  11.866   0.990 -1.3186 -0.7492 -2.0668
  1734G12c C00P32101  10.552  11.818   1.149 -0.4842  1.2054 -1.2473
  1734G12c C00O32102  10.573  11.952   1.194 -0.4650  0.3153 -0.2294
  1734G12c C01D32103  10.457  12.045   1.181 -0.3202  2.1549  0.2073
  1734G12c H00S32104  10.363  12.023   1.132  2.5069  0.5972 -4.9718
  1734G12c C01E32105  10.449  12.162   1.258 -0.0730  0.1831  0.1489
  1734G12c O00832106  10.324  12.241   1.252 -1.8586 -0.9100 -0.0189
  1734G12c C01V32107  10.334  12.379   1.249 -0.1193 -2.2693  0.2711
  1734G12c C01Z32108  10.220  12.431   1.347 -0.1666  1.7642 -0.7539
  1734G12c H00R32109  10.175  12.526   1.377 -3.5719  0.1924 -0.6880
  1734G12c H00Q32110  10.126  12.387   1.315  1.1241 -4.5669  3.2030
  1734G12c O00932111  10.261  12.353   1.458 -0.4708 -0.0300 -0.4117
  1734G12c H00P32112  10.345  12.309   1.454 -1.7698 -2.6775 -0.0032
  1734G12c C01W32113  10.432  12.447   1.181 -0.6546  0.1143 -1.4073
  1734G12c H00O32114  10.480  12.394   1.099 -0.4186  0.6474 -1.6167
  1734G12c C01X32115  10.459  12.602   1.194 -0.0911 -0.1143  2.1519
  1734G12c H00N32116  10.518  12.613   1.102 -3.6639 -2.9177 -0.6298
  1734G12c H00M32117  10.375  12.636   1.134  1.8774 -3.0148 -2.5698
  1734G12c C01Y32118  10.496  12.650   1.333 -0.6838 -0.9337 -0.8702
  1734G12c C02D32119  10.616  12.640   1.373 -0.4783 -0.5545 -1.2419
  1734G12c H01932120  10.667  12.564   1.315  1.8729 -2.2358  2.8104
  1734G12c C02C32121  10.668  12.693   1.490  0.3846  0.1666 -0.2303
  1734G12c H01A32122  10.771  12.683   1.523 -1.8310 -0.7780  7.6281
  1734G12c C02B32123  10.573  12.730   1.589  0.3033 -0.9971 -0.6296
  1734G12c O00E32124  10.591  12.748   1.712 -0.3270 -0.3474 -0.2080
  1734G12c H01B32125  10.533  12.821   1.730  2.7229  2.9825 -2.9880
  1734G12c C02F32126  10.440  12.764   1.555 -0.2866  0.7329 -0.6671
  1734G12c O00F32127  10.354  12.812   1.648  0.1161 -0.2560  0.3178
  1734G12c C02G32128  10.229  12.739   1.651  1.0268  0.0479  1.1941
  1734G12c H01732129  10.195  12.753   1.548  4.0441  5.6713  0.7407
  1734G12c H01632130  10.151  12.781   1.715  3.3727 -0.0991  4.2589
  1734G12c H01532131  10.251  12.635   1.673 -2.6223 -1.4877 -1.9206
  1734G12c C02E32132  10.413  12.735   1.407  1.0737  0.0410 -0.0990
  1734G12c H01832133  10.322  12.779   1.370 -0.8612  1.0373  5.3953
  1734G12c C01F32134  10.557  12.204   1.330 -1.5401  1.5123  2.5471
  1734G12c C01G32135  10.565  12.309   1.430 -0.6720 -0.4388  1.2500
  1734G12c H00L32136  10.489  12.384   1.413 -0.8723 -0.2064  3.0762
  1734G12c C01H32137  10.673  12.317   1.522  0.7323 -0.1106  1.7079
  1734G12c H00B32138  10.652  12.340   1.626  0.0572 -2.4404  2.1030
  1734G12c C01I32139  10.781  12.231   1.492  0.1235 -0.3647  0.6225
  1734G12c C01U32140  10.682  12.141   1.299  1.2699  0.6067  1.9779
  1734G12c C00S32141  10.781  11.617   1.366  0.3043 -1.0819 -1.2995
  1734G12c C00K32142  10.935  11.778   1.422 -0.1110 -0.6267  1.4844
  1734G12c C00N32143  10.684  12.007   1.260 -0.4932  0.2774 -1.3773
  1734G12c C00032144  10.796  12.168   1.373  2.5391  2.0466  0.0959
  1734G12c C01J32145  10.897  12.177   1.560 -0.5950 -1.8686  0.0414
  1734G12c C01K32146  10.934  12.216   1.689 -0.4593  0.0554 -0.8023
  1734G12c C01P32147  10.907  12.347   1.743 -0.8169  0.1905  0.2736
  1734G12c C01Q32148  10.940  12.448   1.652 -1.3822  0.3093  0.3375
  1734G12c H00G32149  10.976  12.443   1.551 -1.8347  1.6289  0.1080
  1734G12c C01R32150  10.935  12.579   1.690 -0.2431 -1.7847 -0.7205
  1734G12c H00F32151  10.873  12.612   1.772  0.5334 -2.8501  0.3188
  1734G12c C01S32152  11.015  12.684   1.610  0.0535  0.6369  0.8248
  1734G12c H00E32153  11.119  12.688   1.645  3.2094 -3.3623 -6.9855
  1734G12c H00D32154  11.051  12.654   1.512 -1.9884 -5.4061  1.7045
  1734G12c O00532155  10.989  12.818   1.650 -0.2397 -0.8012  0.8017
  1734G12c H00C32156  10.897  12.840   1.644  0.0550  3.2593  6.9919
  1734G12c C01O32157  10.949  12.364   1.873 -2.0655 -1.5836 -0.3916
  1734G12c H00H32158  10.935  12.456   1.928  1.1983  3.6785 -7.4057
  1734G12c C01N32159  10.987  12.255   1.964  0.6327 -0.2598  1.5413
  1734G12c O00632160  11.015  12.255   2.112 -1.2035  0.9685 -1.3512
  1734G12c C01T32161  11.163  12.239   2.143  0.0688 -1.0130  0.2704
  1734G12c H00K32162  11.176  12.198   2.243  1.1043 -4.9754 -1.3946
  1734G12c H00J32163  11.198  12.336   2.177  1.6478 -2.1778  2.0632
  1734G12c H00I32164  11.199  12.168   2.068  2.8090  1.7702 -1.1522
  1734G12c C01M32165  10.981  12.118   1.915 -1.1295  0.7320 -0.1681
  1734G12c C02032166  11.022  11.808   1.523  0.4201 -0.9685  0.5012
  1734G12c C02132167  11.102  11.724   1.603 -0.8962 -1.4555 -0.1833
  1734G12c C01L32168  10.988  12.101   1.766 -0.1296 -0.4426 -0.0398
  1734G12c O00732169  11.012  12.007   1.991 -0.5089 -0.6728 -0.6732
  1734G12c C02232170  11.145  11.755   1.740  0.1183 -1.4647 -1.0718
  1734G12c C02332171  11.075  11.584   1.591  0.1166  0.4963 -0.4278
  1734G12c C00G32172  10.924  11.348   1.627  0.9609  0.0648  0.2682
  1734G12c C00E32173  10.855  11.146   1.753  0.8694  1.4624  0.0496
  1734G12c O00A32174  10.784  11.021   1.759 -0.2105  0.0694  0.9001
  1734G12c C02432175  10.805  10.932   1.863  0.2668 -1.4411  2.3057
  1734G12c H00V32176  10.771  10.830   1.843  3.0017 -1.2317 -4.6643
  1734G12c H00U32177  10.913  10.920   1.858  0.6257  2.1656 -0.7666
  1734G12c H00T32178  10.789  10.988   1.955 -2.4589 -3.4134  3.0997
  1744G12c C00D32179   3.154  10.694   9.454 -1.3054  0.1392  0.5716
  1744G12c O00B32180   3.094  10.615   9.541  0.1642  0.0529  0.5133
  1744G12c C02532181   3.049  10.499   9.486  1.3749  0.0295 -1.5211
  1744G12c C02632182   2.895  10.486   9.532 -0.7763 -0.3410  0.4124
  1744G12c H00Y32183   2.921  10.456   9.634  3.9187 -7.0693 -2.3364
  1744G12c H00X32184   2.850  10.388   9.512  6.2684 -3.9692  0.4695
  1744G12c O00C32185   2.847  10.606   9.501 -0.3005  0.5814  0.8117
  1744G12c H00W32186   2.918  10.668   9.506  0.3958  0.5947 -5.3751
  1744G12c C02732187   3.113  10.390   9.425  0.3926  0.3555 -0.0391
  1744G12c O00D32188   3.254  10.417   9.418  1.4275  0.7214  0.2127
  1744G12c H00Z32189   3.292  10.369   9.346 -2.8696  1.9824 -3.1344
  1744G12c C02832190   3.039  10.281   9.359 -0.6122  0.5942  0.3520
  1744G12c C02932191   3.089  10.155   9.386  2.0445  1.8061  0.3443
  1744G12c H01032192   3.181  10.151   9.442  1.8997  3.9006  0.7373
  1744G12c C02T32193   3.030  10.037   9.352  1.4748  0.8083  1.0368
  1744G12c H01O32194   3.090   9.949   9.374  2.1139  1.0274  0.1842
  1744G12c C02S32195   2.898  10.038   9.312  1.2359 -0.9056  1.0422
  1744G12c O00J32196   2.832   9.943   9.250  0.9237 -0.4673 -0.1542
  1744G12c H01P32197   2.743   9.957   9.220  1.4496 -4.3837 -4.0509
  1744G12c C02R32198   2.842  10.163   9.277  2.1447  0.2816 -0.2816
  1744G12c O00I32199   2.726  10.189   9.222  0.1083 -0.6108 -0.4932
  1744G12c C02Q32200   2.640  10.196   9.339  0.8524  0.3903 -1.1898
  1744G12c H01N32201   2.622  10.302   9.352  3.1404  0.3018  4.0655
  1744G12c H01R32202   2.539  10.158   9.324  0.8688 -0.5249  0.8848
  1744G12c H01Q32203   2.684  10.162   9.433  0.8868  0.3636 -1.2146
  1744G12c C02A32204   2.923  10.277   9.295 -1.4757  0.0149  0.4875
  1744G12c H01132205   2.868  10.367   9.273 -2.5696  0.5627  4.9941
  1744G12c C00C32206   3.100  10.720   9.334 -0.1280  0.0500  1.0450
  1744G12c H01232207   3.003  10.688   9.300 -2.6295  4.5108  3.5644
  1744G12c C00B32208   3.167  10.802   9.242  2.3883  1.6370  2.0413
  1744G12c C00A32209   3.108  10.833   9.113  1.0518 -0.9462 -1.5741
  1744G12c C00932210   3.017  10.756   9.031 -0.6225  0.1896 -0.4935
  1744G12c C00832211   2.966  10.614   9.053 -0.4523 -0.6535 -0.6863
  1744G12c H01332212   2.945  10.561   9.145 -0.5278  3.4190  1.7395
  1744G12c C00732213   2.961  10.520   8.961 -1.2786 -1.6623 -0.5490
  1744G12c H01432214   2.901  10.432   8.976 -3.9622 -0.0904 -1.6020
  1744G12c C00632215   3.015  10.545   8.834  0.5186 -1.8755 -0.2279
  1744G12c C00532216   3.087  10.668   8.819 -0.4230  0.9138 -0.9299
  1744G12c C00432217   3.157  10.699   8.701  0.1979 -0.0784 -2.1888
  1744G12c C00332218   3.239  10.820   8.703  1.1256  1.3995 -0.1178
  1744G12c C00232219   3.300  10.861   8.573  1.3139  0.6364  1.4480
  1744G12c C00132220   3.393  10.960   8.534 -0.5532 -0.8283 -0.2824
  1744G12c C00M32221   3.494  11.016   8.628 -1.0647 -1.0691  0.2266
  1744G12c C00L32222   3.478  11.041   8.761 -0.5380  0.4272 -1.3012
  1744G12c C00R32223   3.576  11.069   8.855  0.1473  0.9827 -1.0110
  1744G12c C00Q32224   3.724  11.075   8.859 -0.0862  2.6964  0.6620
  1744G12c C00V32225   3.782  11.086   8.993 -0.5049  0.1548  0.9247
  1744G12c C00U32226   3.707  11.067   9.111  0.7151 -0.3198  0.8594
  1744G12c C00T32227   3.564  11.077   9.104 -1.0845  0.6414 -1.0214
  1744G12c C01632228   3.488  11.017   9.209  0.1414 -1.0493 -0.7785
  1744G12c C01532229   3.554  10.965   9.319  0.6850  2.5213  0.5575
  1744G12c C01032230   3.689  10.977   9.331  1.0960 -0.8006  0.6775
  1744G12c C01132231   3.759  10.941   9.434 -0.0453 -0.3869 -1.2003
  1744G12c H00532232   3.865  10.952   9.455  0.1016  0.9664 -2.5431
  1744G12c C01232233   3.693  10.866   9.543  0.8395 -0.2252  0.2294
  1744G12c C01732234   3.767  10.860   9.666 -0.4189 -1.0582  0.5253
  1744G12c O00232235   3.773  10.747   9.744  1.0841 -0.2923 -1.3493
  1744G12c H00432236   3.838  10.777   9.806 -0.3746  4.8598 -2.0995
  1744G12c C01832237   3.790  10.972   9.727 -0.8273  0.6341  0.5779
  1744G12c O00132238   3.791  11.101   9.671  1.1509  1.7993 -0.9191
  1744G12c H00332239   3.705  11.139   9.686 -0.3954 -2.5846  2.2746
  1744G12c C01932240   3.806  10.974   9.878 -0.1971 -0.7725 -1.5851
  1744G12c H00232241   3.845  11.072   9.908 -4.2047  0.0575  1.1883
  1744G12c H00132242   3.728  10.924   9.935  1.3674 -0.4048  0.9315
  1744G12c O00032243   3.914  10.874   9.922  1.1948 -0.3876  1.0941
  1744G12c C01A32244   4.040  10.914   9.927 -0.6868  0.3296  0.6469
  1744G12c C02K32245   4.077  11.016  10.024  0.4220  0.6738 -0.5005
  1744G12c O00G32246   3.985  11.066  10.092 -0.0768  0.7014 -0.5945
  1744G12c C02M32247   3.972  10.996  10.222  0.3236  0.8722  1.3409
  1744G12c H01G32248   4.031  11.009  10.313 -3.0675 -0.7032  3.8952
  1744G12c H01F32249   3.927  10.898  10.207  0.0780  1.9601 -7.1483
  1744G12c H01E32250   3.893  11.065  10.251 -0.4529  2.3602 -3.8560
  1744G12c C02J32251   4.210  11.067  10.041  0.0951 -0.7199  0.5694
  1744G12c H01H32252   4.231  11.158  10.095 -1.6661 -1.1869  2.1291
  1744G12c C02I32253   4.317  10.997   9.977  1.7508 -0.4494  0.4228
  1744G12c C02N32254   4.454  11.028  10.006 -0.9823  1.3757  0.7151
  1744G12c H01M32255   4.490  10.986  10.099 -3.5553 -0.1051  1.0892
  1744G12c C02O32256   4.513  11.142   9.964  0.1124 -0.8090  1.0090
  1744G12c H01L32257   4.491  11.201   9.877 -1.3253  2.9831  3.8065
  1744G12c C02P32258   4.644  11.198  10.039 -1.3881 -2.2430  2.6274
  1744G12c H01K32259   4.629  11.271  10.119 -1.8097  4.2207 -2.9459
  1744G12c H01J32260   4.730  11.136  10.065 -1.0506 -1.5289  3.2672
  1744G12c O00H32261   4.720  11.278   9.950 -0.0213 -1.3572  0.6156
  1744G12c H01I32262   4.745  11.361   9.988  1.4742  1.2036 -5.3164
  1744G12c C02H32263   4.287  10.893   9.901 -0.0539 -0.7098  0.4166
  1744G12c H01C32264   4.360  10.816   9.878  2.1324  2.4824 -4.1128
  1744G12c C02L32265   4.149  10.863   9.851 -1.4009  0.6877  0.9768
  1744G12c H01D32266   4.128  10.791   9.773  1.9142  2.0001 -1.2629
  1744G12c C01332267   3.548  10.854   9.534 -0.8215  1.7158 -0.3944
  1744G12c H00032268   3.501  10.837   9.630  1.6997  2.1758  0.9808
  1744G12c C01432269   3.481  10.904   9.426  0.3430  0.3482 -1.4670
  1744G12c C00F32270   3.344  10.870   9.401  1.4616 -2.0578  1.0680
  1744G12c C00H32271   3.353  10.973   9.194  1.4367 -1.3462 -2.0642
  1744G12c C00I32272   3.287  10.996   9.067  0.1915 -1.4155  0.1962
  1744G12c C00J32273   3.373  11.057   8.954 -0.3768 -1.2703  0.5259
  1744G12c C00Z32274   3.769  11.037   9.232 -0.2582 -0.4090  0.2352
  1744G12c C00Y32275   3.914  11.069   9.230 -0.1052  1.4396  0.8198
  1744G12c H00632276   3.952  11.037   9.326  0.2864 -4.5523 -1.0807
  1744G12c C00X32277   4.004  11.089   9.115 -1.5824 -0.3390 -0.3374
  1744G12c O00332278   4.142  11.101   9.152  0.7926 -1.7351 -0.6149
  1744G12c C01B32279   4.207  11.221   9.099  0.3970 -0.4170 -0.2953
  1744G12c H00932280   4.309  11.258   9.095  1.1724 -2.5879 -3.0284
  1744G12c H00832281   4.138  11.304   9.107  1.9773  0.5901  4.5382
  1744G12c H00732282   4.220  11.209   8.991  2.6135 -6.4388  0.4235
  1744G12c C00W32283   3.929  11.105   8.997  2.3851 -0.3484 -0.5768
  1744G12c O00432284   3.995  11.140   8.877  0.2181 -0.8045 -0.5648
  1744G12c C01C32285   3.950  11.101   8.760 -1.0213 -1.3364  1.1072
  1744G12c H00A32286   4.006  11.123   8.671 -2.8683  2.7816  0.8621
  1744G12c C00P32287   3.810  11.042   8.737 -0.5129 -0.3461  0.6594
  1744G12c C00O32288   3.759  10.984   8.613 -0.0880  0.7232 -0.7303
  1744G12c C01D32289   3.871  10.927   8.537  1.3287  0.1560 -0.3647
  1744G12c H00S32290   3.970  10.945   8.576 -0.2753  2.2005  3.0341
  1744G12c C01E32291   3.851  10.842   8.426  1.7458  0.6073 -0.2933
  1744G12c O00832292   3.930  10.792   8.337 -0.5020  1.6700 -0.7268
  1744G12c C01V32293   4.053  10.758   8.387 -0.4574  0.3158 -1.5910
  1744G12c C01Z32294   4.049  10.626   8.457 -0.0401 -1.2016 -0.4454
  1744G12c H00R32295   3.971  10.554   8.436 -1.9606  1.7026 -3.6390
  1744G12c H00Q32296   4.136  10.570   8.421  4.2208  7.4150 -5.1925
  1744G12c O00932297   4.075  10.669   8.602 -0.9225 -0.6594  0.8044
  1744G12c H00P32298   4.017  10.726   8.649  1.3888  2.2200  0.2815
  1744G12c C01W32299   4.162  10.844   8.379 -1.2321 -0.8338  0.1977
  1744G12c H00O32300   4.148  10.932   8.318 -2.6755  4.3730  7.3605
  1744G12c C01X32301   4.301  10.816   8.438  0.2288  1.0893 -0.5690
  1744G12c H00N32302   4.396  10.853   8.400 -1.3894  1.7595 -4.2143
  1744G12c H00M32303   4.252  10.821   8.535  2.7266 -6.2676  1.3785
  1744G12c C01Y32304   4.340  10.671   8.397 -2.0151 -0.7248  0.3156
  1744G12c C02D32305   4.316  10.606   8.272  0.3627  1.2130  0.5518
  1744G12c H01932306   4.231  10.625   8.208 -0.2346  3.1524  1.8745
  1744G12c C02C32307   4.402  10.505   8.227  1.4428 -1.3927 -0.0778
  1744G12c H01A32308   4.386  10.450   8.135  3.5161  0.1414 -1.3980
  1744G12c C02B32309   4.456  10.429   8.323 -0.8674  0.6008  0.3203
  1744G12c O00E32310   4.438  10.288   8.310  0.8082 -0.1069  0.0313
  1744G12c H01B32311   4.479  10.274   8.395  2.8543  3.3103 -0.3014
  1744G12c C02F32312   4.505  10.489   8.436 -0.6120  0.0191  0.0723
  1744G12c O00F32313   4.604  10.421   8.510  0.8418  0.0163  0.2940
  1744G12c C02G32314   4.564  10.347   8.629 -0.1305 -1.2891  1.0432
  1744G12c H01732315   4.596  10.420   8.704  1.3720 -4.9654  4.1380
  1744G12c H01632316   4.569  10.245   8.665 -1.2349 -2.1853 -1.1936
  1744G12c H01532317   4.455  10.341   8.626 -0.4131 -1.5698  6.6834
  1744G12c C02E32318   4.433  10.596   8.490  1.2083  0.8276  0.0754
  1744G12c H01832319   4.456  10.638   8.587 -2.7077  2.8115  0.2783
  1744G12c C01F32320   3.709  10.830   8.394  0.7646 -0.4841 -0.5700
  1744G12c C01G32321   3.665  10.723   8.323  1.0375  0.2812  1.2011
  1744G12c H00L32322   3.721  10.651   8.265 -3.1563 -0.0980 -2.6698
  1744G12c C01H32323   3.515  10.671   8.347  0.1385 -2.2867 -0.2181
  1744G12c H00B32324   3.474  10.573   8.325 -5.3668  0.0061 -0.9059
  1744G12c C01I32325   3.440  10.770   8.398  1.0403 -1.1497 -0.7319
  1744G12c C01U32326   3.615  10.924   8.440 -0.1269 -0.8383 -1.4536
  1744G12c C00S32327   3.513  11.073   8.975  0.3602  0.5781 -0.1826
  1744G12c C00K32328   3.369  10.998   8.831 -0.0613 -0.6587  0.4928
  1744G12c C00N32329   3.625  10.990   8.565 -0.0984 -0.2721  0.3451
  1744G12c C00032330   3.467  10.911   8.413 -0.1709 -1.1632  0.6926
  1744G12c C01J32331   3.329  10.752   8.487 -2.3351 -2.0545  0.5522
  1744G12c C01K32332   3.219  10.651   8.478  1.5237  0.0060 -1.5807
  1744G12c C01P32333   3.185  10.561   8.362 -0.1446  0.8818 -2.2106
  1744G12c C01Q32334   3.236  10.614   8.232 -1.0263 -0.1325 -1.3324
  1744G12c H00G32335   3.269  10.716   8.223  4.6894 -1.1611  4.1669
  1744G12c C01R32336   3.236  10.535   8.122 -0.2520 -0.1697  0.3948
  1744G12c H00F32337   3.204  10.433   8.138 -0.2676 -0.3745 -0.8429
  1744G12c C01S32338   3.240  10.576   7.987 -1.2163 -0.1426 -0.3884
  1744G12c H00E32339   3.140  10.566   7.944 -1.5675  1.3911  0.0317
  1744G12c H00D32340   3.267  10.682   7.986 -1.5518 -0.0332  1.2444
  1744G12c O00532341   3.360  10.513   7.909  0.0866  0.5531 -1.2137
  1744G12c H00C32342   3.402  10.588   7.870 -0.4002 -0.4439 -3.7385
  1744G12c C01O32343   3.123  10.431   8.369 -0.7384 -1.2159 -0.7511
  1744G12c H00H32344   3.124  10.360   8.288  4.1809 -6.3731  3.4496
  1744G12c C01N32345   3.067  10.407   8.502 -0.4282 -1.3377  1.9359
  1744G12c O00632346   2.998  10.286   8.520 -0.8385 -0.4718 -0.0186
  1744G12c C01T32347   2.965  10.195   8.415  1.6271 -0.5388 -0.3919
  1744G12c H00K32348   2.982  10.212   8.309  2.5135  1.9498  0.1166
  1744G12c H00J32349   2.888  10.121   8.437  2.5161 -0.9625  1.3873
  1744G12c H00I32350   3.043  10.119   8.416  3.3700  1.1364 -2.4340
  1744G12c C01M32351   3.102  10.487   8.611 -1.1132  0.4615  0.4093
  1744G12c C02032352   3.239  10.927   8.802  0.4866 -0.7560 -0.6108
  1744G12c C02132353   3.136  10.922   8.901  0.7370  0.7344  0.6781
  1744G12c C01L32354   3.163  10.614   8.588  0.1553 -0.9390  1.3459
  1744G12c O00732355   3.038  10.453   8.730  0.1848  0.7965  0.3966
  1744G12c C02232356   3.097  10.776   8.912  0.0010 -0.6538  0.3457
  1744G12c C02332357   3.158  10.939   9.036 -0.9496 -0.1880  0.6641
  1744G12c C00G32358   3.281  10.892   9.280 -0.7098 -0.5764 -0.2721
  1744G12c C00E32359   3.258  10.793   9.503 -1.0082  0.5346  1.2392
  1744G12c O00A32360   3.296  10.770   9.634 -0.1560  0.5630  0.1049
  1744G12c C02432361   3.278  10.877   9.717 -0.1719  0.7765 -0.8849
  1744G12c H00V32362   3.356  10.843   9.785 -3.3343 -2.7467  1.1970
  1744G12c H00U32363   3.173  10.846   9.718  0.9824 -3.5387  2.5552
  1744G12c H00T32364   3.329  10.969   9.689 -0.4010  1.0788 -0.3424
  1754G12c C00D32365   6.993   0.639  11.570 -0.5668 -1.3155  0.3693
  1754G12c O00B32366   7.074   0.661  11.453  0.6542 -0.9294 -0.4512
  1754G12c C02532367   7.167   0.745  11.472 -2.2770 -1.6702  0.4537
  1754G12c C02632368   7.305   0.682  11.417  0.5291 -0.7488  0.2837
  1754G12c H00Y32369   7.364   0.721  11.500  2.6420  0.1252 -1.5757
  1754G12c H00X32370   7.329   0.700  11.312 -4.4794  1.5122 -0.6679
  1754G12c O00C32371   7.298   0.540  11.456  0.1253 -0.0444  0.5559
  1754G12c H00W32372   7.290   0.488  11.377  0.4930 -3.8343  2.9192
  1754G12c C02732373   7.138   0.880  11.512 -0.4948  0.6391 -0.8194
  1754G12c O00D32374   7.006   0.929  11.510 -2.1788  1.5926 -0.1199
  1754G12c H00Z32375   6.984   0.837  11.513  3.2266  0.1839  1.7103
  1754G12c C02832376   7.233   0.972  11.515  2.4105  0.3992  0.7012
  1754G12c C02932377   7.267   1.036  11.630  0.4960  0.1027 -0.6004
  1754G12c H01032378   7.209   1.032  11.721  0.4083 -4.6457 -0.7087
  1754G12c C02T32379   7.355   1.144  11.625 -2.3449  0.0091 -0.0649
  1754G12c H01O32380   7.375   1.203  11.713 -1.1141 -6.2596  4.1925
  1754G12c C02S32381   7.415   1.185  11.503 -1.9381 -0.2851 -0.0935
  1754G12c O00J32382   7.495   1.301  11.482  0.8666 -0.5651  0.4723
  1754G12c H01P32383   7.524   1.300  11.392 -2.2289 -4.3842 -0.6334
  1754G12c C02R32384   7.394   1.110  11.389 -1.0806 -1.3221  0.5908
  1754G12c O00I32385   7.457   1.153  11.278  2.2805 -0.0436  0.5158
  1754G12c C02Q32386   7.499   1.079  11.154 -0.9071  0.4621 -1.3023
  1754G12c H01N32387   7.428   1.018  11.097  1.7247  1.6781 -6.1535
  1754G12c H01R32388   7.600   1.037  11.153 -2.6534 -4.4568 -7.3172
  1754G12c H01Q32389   7.498   1.167  11.090  3.7928  0.8605 -0.9633
  1754G12c C02A32390   7.294   1.005  11.393 -0.6730 -0.3357 -1.8262
  1754G12c H01132391   7.282   0.976  11.290  1.2592 -3.5448 -1.2423
  1754G12c C00C32392   7.059   0.646  11.705  0.7057 -1.1829 -0.6097
  1754G12c H01232393   7.164   0.665  11.716  0.7317 -2.7112  2.1601
  1754G12c C00B32394   6.984   0.709  11.805  1.7863  0.8502  1.1572
  1754G12c C00A32395   7.013   0.818  11.894 -1.1805  0.1059 -1.8081
  1754G12c C00932396   7.136   0.833  11.975 -0.5423 -0.8629  1.1788
  1754G12c C00832397   7.249   0.750  11.986 -0.1938 -0.9918  1.3743
  1754G12c H01332398   7.283   0.691  11.902 -1.4535  2.6562 -1.7962
  1754G12c C00732399   7.315   0.747  12.115  0.3719 -0.2538  1.5281
  1754G12c H01432400   7.398   0.678  12.109  2.6303  2.5544 -1.6059
  1754G12c C00632401   7.242   0.794  12.227 -0.1419  1.0674 -2.4648
  1754G12c C00532402   7.127   0.878  12.208  0.3307  0.5032 -1.2576
  1754G12c C00432403   7.056   0.893  12.328  0.4610  1.4102  1.6734
  1754G12c C00332404   6.927   0.956  12.311 -1.9593 -1.0560  0.9419
  1754G12c C00232405   6.856   0.963  12.434  1.8349 -0.5506  1.2250
  1754G12c C00132406   6.726   1.011  12.463  0.4236 -0.4453  1.9089
  1754G12c C00M32407   6.588   0.973  12.413 -0.3270  0.3966 -1.1720
  1754G12c C00L32408   6.610   0.909  12.276 -0.9326  0.2101 -0.4995
  1754G12c C00R32409   6.521   0.826  12.221 -0.2373 -0.4715  1.7443
  1754G12c C00Q32410   6.408   0.742  12.268  1.2249 -0.3913  0.1205
  1754G12c C00V32411   6.354   0.663  12.164  1.3666 -0.0198 -0.3142
  1754G12c C00U32412   6.412   0.615  12.045 -1.5885 -1.2420  0.4004
  1754G12c C00T32413   6.531   0.667  12.017 -1.1562  0.0686 -0.2400
  1754G12c C01632414   6.629   0.629  11.916  0.3215  0.1297  1.0811
  1754G12c C01532415   6.563   0.558  11.812 -0.4672  0.8495 -1.1455
  1754G12c C01032416   6.434   0.524  11.818  0.5727  1.4696 -0.2708
  1754G12c C01132417   6.382   0.465  11.701  0.0205 -0.0610  0.6670
  1754G12c H00532418   6.279   0.437  11.686  0.9835 -2.7510 -1.3637
  1754G12c C01232419   6.431   0.492  11.571  0.0605  1.5981 -1.2047
  1754G12c C01732420   6.363   0.449  11.453  0.8519 -0.1807  0.1245
  1754G12c O00232421   6.442   0.414  11.338 -0.1473  1.2924 -0.5860
  1754G12c H00432422   6.384   0.356  11.290  1.7565 -3.0089  2.0521
  1754G12c C01832423   6.234   0.481  11.414  0.6666  3.0537  1.5095
  1754G12c O00132424   6.137   0.524  11.505 -1.3675  0.3929  1.6989
  1754G12c H00332425   6.138   0.613  11.537 -3.9605  1.8087 -1.9755
  1754G12c C01932426   6.175   0.459  11.276  1.0174 -0.3365  0.2595
  1754G12c H00232427   6.226   0.389  11.210  1.0288 -2.0203  2.0041
  1754G12c H00132428   6.071   0.431  11.293  2.0527 -7.1968 -3.0681
  1754G12c O00032429   6.157   0.591  11.227  1.3625  0.0241 -0.5989
  1754G12c C01A32430   6.256   0.637  11.145  0.8753  0.5582  1.2793
  1754G12c C02K32431   6.327   0.576  11.033  1.6540  0.2996  0.6670
  1754G12c O00G32432   6.272   0.460  10.971 -0.3768 -1.6043 -0.7564
  1754G12c C02M32433   6.128   0.483  10.928 -0.1710  0.3514 -0.0337
  1754G12c H01G32434   6.059   0.513  11.007 -6.7800 -4.5622 -3.4517
  1754G12c H01F32435   6.115   0.559  10.851  1.5686 -2.7243 -3.4761
  1754G12c H01E32436   6.076   0.393  10.897  1.6470 -0.8600  0.3378
  1754G12c C02J32437   6.424   0.652  10.980  0.3025 -0.6046  1.1853
  1754G12c H01H32438   6.484   0.617  10.897  0.0058  1.7796 -0.0643
  1754G12c C02I32439   6.473   0.781  11.025  0.3906  0.1262 -0.5609
  1754G12c C02N32440   6.542   0.867  10.942  0.9144  0.2931  0.2491
  1754G12c H01M32441   6.631   0.899  10.994  1.0976 -2.2912  1.6224
  1754G12c C02O32442   6.510   0.909  10.824  1.4070 -0.5380  1.5886
  1754G12c H01L32443   6.569   0.982  10.770  1.0754  2.2538  4.8321
  1754G12c C02P32444   6.374   0.887  10.751 -0.4106  0.0204  1.5991
  1754G12c H01K32445   6.394   0.831  10.660  1.0274 -0.6104  2.2826
  1754G12c H01J32446   6.293   0.835  10.802 -0.3842 -3.1574 -1.4812
  1754G12c O00H32447   6.312   1.003  10.683  0.1878 -1.2403 -0.4368
  1754G12c H01I32448   6.372   1.074  10.701 -1.9387 -0.3628  3.7496
  1754G12c C02H32449   6.420   0.830  11.145  1.3896 -0.7361 -1.4979
  1754G12c H01C32450   6.427   0.930  11.184 -3.6289  3.1468 -9.4229
  1754G12c C02L32451   6.296   0.770  11.189  0.8037 -0.4494  1.0346
  1754G12c H01D32452   6.255   0.815  11.277 -1.1356 -5.5674  2.9525
  1754G12c C01332453   6.568   0.540  11.575  1.7548 -0.0930  1.6535
  1754G12c H00032454   6.601   0.536  11.472  1.9486 -5.5876  1.8309
  1754G12c C01432455   6.634   0.580  11.694  0.2411 -2.1571  0.6814
  1754G12c C00F32456   6.784   0.629  11.680 -1.1876  0.4530  0.9721
  1754G12c C00H32457   6.766   0.690  11.903 -0.2259 -0.4359  1.2387
  1754G12c C00I32458   6.798   0.806  11.983  1.7302  0.2415 -0.6977
  1754G12c C00J32459   6.708   0.813  12.085  0.2384 -0.5538  0.6192
  1754G12c C00Z32460   6.360   0.543  11.943 -0.9925  2.0561 -1.1528
  1754G12c C00Y32461   6.226   0.497  11.953 -0.6008  0.6092  0.4519
  1754G12c H00632462   6.180   0.444  11.871  2.5918  1.9889 -2.3922
  1754G12c C00X32463   6.166   0.524  12.078  2.2030  0.7676 -2.3075
  1754G12c O00332464   6.047   0.467  12.113  0.0358  0.9767 -0.6907
  1754G12c C01B32465   5.992   0.351  12.048  0.6752  0.2973 -0.3765
  1754G12c H00932466   5.921   0.388  11.973  1.5074 -3.3128 -3.1159
  1754G12c H00832467   5.967   0.278  12.125  7.5881 -2.6119 -0.5399
  1754G12c H00732468   6.019   0.327  11.945 -2.0525  2.5954 -1.7293
  1754G12c C00W32469   6.228   0.611  12.178 -0.0839  0.9064 -0.2294
  1754G12c O00432470   6.173   0.603  12.304  0.1366 -0.0054  0.3739
  1754G12c C01C32471   6.230   0.685  12.397  0.3056  0.5695  0.8764
  1754G12c H00A32472   6.180   0.763  12.452 -3.3967  1.2269 -3.1820
  1754G12c C00P32473   6.362   0.729  12.399  0.7805  1.4117  0.0833
  1754G12c C00O32474   6.428   0.781  12.507 -0.1732 -0.4085 -0.2539
  1754G12c C01D32475   6.388   0.732  12.630 -1.3513 -0.3338  0.3083
  1754G12c H00S32476   6.295   0.695  12.671  1.2819 -2.0191  5.2491
  1754G12c C01E32477   6.473   0.729  12.730  0.7524  1.2290 -1.8812
  1754G12c O00832478   6.438   0.701  12.864 -0.1853  1.6320  0.8380
  1754G12c C01V32479   6.359   0.796  12.939  0.6908 -0.0932 -0.2534
  1754G12c C01Z32480   6.315   0.734  13.065 -1.2403  0.5744 -0.4905
  1754G12c H00R32481   6.307   0.820  13.131 -0.2406  0.5353 -0.3046
  1754G12c H00Q32482   6.210   0.713  13.050 -1.5365 -1.9877  4.2913
  1754G12c O00932483   6.406   0.638  13.115 -1.6566  1.2224  0.3818
  1754G12c H00P32484   6.487   0.671  13.081  0.9261 -1.2325  3.7317
  1754G12c C01W32485   6.319   0.924  12.906  0.8774  1.9285  1.7676
  1754G12c H00O32486   6.341   0.988  12.822  5.3903  0.5403  1.7320
  1754G12c C01X32487   6.219   1.018  12.979 -0.6797 -1.0225  0.1349
  1754G12c H00N32488   6.171   1.056  12.890 -0.2230 -0.5781  0.0713
  1754G12c H00M32489   6.162   0.949  13.040 -1.7769  1.8399  2.4970
  1754G12c C01Y32490   6.289   1.109  13.081  0.3474 -1.5559  0.1589
  1754G12c C02D32491   6.259   1.108  13.211 -1.1671 -0.6870  1.1552
  1754G12c H01932492   6.164   1.068  13.243 -1.5105  2.0615  3.7848
  1754G12c C02C32493   6.345   1.191  13.302 -1.1845  1.2972  0.0840
  1754G12c H01A32494   6.321   1.186  13.408 -2.4166  0.7970 -0.2099
  1754G12c C02B32495   6.473   1.246  13.257  0.5893  0.8411  0.8319
  1754G12c O00E32496   6.550   1.332  13.319  1.8659  1.0269 -0.6731
  1754G12c H01B32497   6.612   1.375  13.264  4.3363 -4.8880 -2.9501
  1754G12c C02F32498   6.513   1.224  13.123  0.7285  1.1213 -0.3835
  1754G12c O00F32499   6.631   1.259  13.060 -0.3372  1.5791 -2.1790
  1754G12c C02G32500   6.717   1.142  12.999  1.1253 -1.3691  1.4087
  1754G12c H01732501   6.658   1.084  12.928  7.2575 -4.7128 -1.3805
  1754G12c H01632502   6.733   1.080  13.087  1.3516 -2.2233  0.7719
  1754G12c H01532503   6.822   1.144  12.968  2.1462 -3.3382  4.4972
  1754G12c C02E32504   6.421   1.148  13.046  1.4024  0.9103  1.5582
  1754G12c H01832505   6.453   1.138  12.943  3.7725  4.8738  1.8227
  1754G12c C01F32506   6.590   0.803  12.715 -0.0825 -1.2104 -2.9127
  1754G12c C01G32507   6.704   0.781  12.788  0.4756 -0.7060  0.2639
  1754G12c H00L32508   6.723   0.705  12.862 -0.3755 -2.4723 -1.2878
  1754G12c C01H32509   6.804   0.868  12.775  0.5234 -1.8998  0.5916
  1754G12c H00B32510   6.873   0.788  12.751 -3.1885 -5.4738  1.3248
  1754G12c C01I32511   6.816   0.959  12.668 -0.4726  0.7324  0.1660
  1754G12c C01U32512   6.592   0.918  12.633 -0.0749 -3.2515  0.9233
  1754G12c C00S32513   6.584   0.768  12.107 -0.0313 -2.7621  0.3920
  1754G12c C00K32514   6.732   0.893  12.202 -0.3238  2.1525  1.1386
  1754G12c C00N32515   6.525   0.890  12.513  0.3881  1.1385  0.0880
  1754G12c C00032516   6.704   1.010  12.612 -1.8311 -0.0824 -0.2451
  1754G12c C01J32517   6.923   0.960  12.556  0.4348 -0.4827 -2.3033
  1754G12c C01K32518   7.064   0.908  12.581  2.2193 -1.2547 -0.5232
  1754G12c C01P32519   7.135   0.871  12.704 -1.3177  0.0653 -0.2704
  1754G12c C01Q32520   7.091   0.910  12.829  0.7002  0.6090  0.2817
  1754G12c H00G32521   7.088   1.015  12.851 -2.2601  0.4567  0.8592
  1754G12c C01R32522   7.101   0.832  12.929  1.6363  1.4194  0.1332
  1754G12c H00F32523   7.100   0.727  12.905 -1.5372  1.5676 -0.6255
  1754G12c C01S32524   7.093   0.861  13.072  0.7770 -0.5520 -0.7308
  1754G12c H00E32525   7.170   0.856  13.149 -2.4211 -3.4224  2.4249
  1754G12c H00D32526   7.072   0.967  13.066 -3.6760 -1.4269 -2.2547
  1754G12c O00532527   6.977   0.809  13.147 -0.3732 -0.1787  1.0928
  1754G12c H00C32528   6.908   0.805  13.083 -1.6280  0.6754  2.3900
  1754G12c C01O32529   7.271   0.835  12.688 -0.7112  0.3172  0.9509
  1754G12c H00H32530   7.360   0.848  12.748  2.4349 -1.5766 -3.0134
  1754G12c C01N32531   7.332   0.792  12.567 -1.0529 -0.4385 -1.3088
  1754G12c O00632532   7.457   0.729  12.544  1.1955 -0.2038 -1.5399
  1754G12c C01T32533   7.541   0.686  12.676  0.0243 -1.1462 -0.0588
  1754G12c H00K32534   7.467   0.673  12.755 -0.5111  4.5084  0.5311
  1754G12c H00J32535   7.610   0.762  12.713 -4.4695  4.7828 -3.0739
  1754G12c H00I32536   7.614   0.605  12.679 -0.2326 -1.3608  0.3722
  1754G12c C01M32537   7.233   0.795  12.455 -0.5802 -1.2744  0.2810
  1754G12c C02032538   6.866   0.954  12.197 -0.5540 -0.1751  1.5502
  1754G12c C02132539   6.950   0.937  12.087  0.3911 -0.0033  0.7183
  1754G12c C01L32540   7.119   0.864  12.449 -0.7594  0.3189 -1.7812
  1754G12c O00732541   7.298   0.746  12.347  1.4526  0.5661  0.5341
  1754G12c C02232542   7.087   0.934  12.086  0.4509  0.3650  0.7779
  1754G12c C02332543   6.909   0.892  11.960  0.2174 -1.0905 -0.4872
  1754G12c C00G32544   6.848   0.674  11.795 -0.5416  0.4609  0.4626
  1754G12c C00E32545   6.864   0.618  11.563  0.1865  0.1088 -0.9406
  1754G12c O00A32546   6.818   0.559  11.471 -1.2472 -1.7970 -1.0094
  1754G12c C02432547   6.803   0.649  11.356  0.6029 -1.3959  0.2468
  1754G12c H00V32548   6.880   0.664  11.281 -2.4472 -0.0217 -2.7319
  1754G12c H00U32549   6.763   0.748  11.378 -2.1025 -2.2018 -0.8510
  1754G12c H00T32550   6.717   0.632  11.291  3.0135 -0.8506 -3.1861
  1764G12c C00D32551   3.766  10.438   0.284 -0.5258 -0.2305 -1.2675
  1764G12c O00B32552   3.881  10.355   0.266 -1.8979 -0.3990 -0.0417
  1764G12c C02532553   3.919  10.323   0.142 -0.6142 -0.5519 -0.7522
  1764G12c C02632554   4.053  10.396   0.092  0.4626 -0.8586  1.3646
  1764G12c H00Y32555   4.054  10.396  -0.017  6.8629 -0.6546  1.2257
  1764G12c H00X32556   4.137  10.342   0.137 -0.3971  0.1649  4.3113
  1764G12c O00C32557   4.071  10.533   0.153 -0.0376  1.0271 -0.8287
  1764G12c H00W32558   3.988  10.578   0.146  0.3332  1.2240 -5.1741
  1764G12c C02732559   3.847  10.233   0.061 -1.3213 -1.3723  0.3814
  1764G12c O00D32560   3.741  10.194   0.121 -0.2957 -0.2784  0.4021
  1764G12c H00Z32561   3.766  10.244   0.198  0.4515  3.9317 -2.4214
  1764G12c C02832562   3.882  10.190  -0.060 -0.2176  0.9775  0.3362
  1764G12c C02932563   3.775  10.193  -0.160  0.1012  0.5469 -0.5849
  1764G12c H01032564   3.687  10.255  -0.145  0.7657  0.5699  3.7658
  1764G12c C02T32565   3.788  10.135  -0.281  0.5792  0.6152 -0.8654
  1764G12c H01O32566   3.699  10.122  -0.341 -3.2334 -0.8898  4.8096
  1764G12c C02S32567   3.914  10.086  -0.314 -0.2847 -0.3634  0.8255
  1764G12c O00J32568   3.936  10.058  -0.448  0.8983 -0.7596  0.5790
  1764G12c H01P32569   3.898  10.132  -0.493 -3.7006 -1.0066  3.7189
  1764G12c C02R32570   4.025  10.117  -0.237  1.0274  1.5259 -0.3405
  1764G12c O00I32571   4.153  10.097  -0.279  0.2668 -1.9162 -0.1749
  1764G12c C02Q32572   4.244  10.023  -0.197  1.4126 -1.1043  0.8045
  1764G12c H01N32573   4.240   9.915  -0.208 -0.5384 -0.8035 -2.1859
  1764G12c H01R32574   4.333  10.041  -0.256  3.3544 -0.1151  3.9462
  1764G12c H01Q32575   4.276  10.045  -0.095  8.3567  1.5395 -1.7026
  1764G12c C02A32576   4.017  10.165  -0.104 -0.9412 -0.5843 -0.9250
  1764G12c H01132577   4.118  10.184  -0.071 -0.8811 -5.4153  2.2181
  1764G12c C00C32578   3.734  10.532   0.193  0.6189 -0.7822 -0.6491
  1764G12c H01232579   3.795  10.550   0.105 -3.1498 -0.7530 -3.3631
  1764G12c C00B32580   3.600  10.573   0.176  0.3587  0.6086 -1.6841
  1764G12c C00A32581   3.548  10.661   0.081 -0.4254 -0.1146 -0.2593
  1764G12c C00932582   3.621  10.768   0.002 -0.0798 -1.5511 -1.0405
  1764G12c C00832583   3.753  10.824  -0.024 -2.0686 -0.7039 -1.0536
  1764G12c H01332584   3.838  10.762  -0.001 -3.0716 -0.1331  4.8898
  1764G12c C00732585   3.754  10.956  -0.085 -0.5746  0.3564 -0.4587
  1764G12c H01432586   3.857  10.975  -0.111 -0.9270 -2.3233 -4.2754
  1764G12c C00632587   3.648  11.033  -0.134  0.4010  1.5717 -0.8298
  1764G12c C00532588   3.529  10.979  -0.109  1.1211 -0.3026  1.1113
  1764G12c C00432589   3.409  11.063  -0.101 -0.2681  0.5058 -0.7616
  1764G12c C00332590   3.290  11.028  -0.044 -0.5467 -1.0301 -0.4417
  1764G12c C00232591   3.184  11.126  -0.035  0.2222  0.5618 -0.5856
  1764G12c C00132592   3.056  11.124   0.018 -0.8631  0.4356  1.4585
  1764G12c C00M32593   3.006  11.040   0.138 -0.7262 -0.7576 -0.3803
  1764G12c C00L32594   3.051  10.915   0.164 -1.7980  2.1819  0.4819
  1764G12c C00R32595   3.030  10.838   0.280 -1.3743  0.4083 -1.7066
  1764G12c C00Q32596   2.980  10.869   0.412  0.1733 -0.9877 -0.7704
  1764G12c C00V32597   2.994  10.770   0.507 -1.1894 -0.8283 -0.2057
  1764G12c C00U32598   3.079  10.667   0.497 -2.0326 -0.0709  0.4070
  1764G12c C00T32599   3.150  10.643   0.379  0.3404 -1.4792 -0.0231
  1764G12c C01632600   3.276  10.580   0.384  0.6128 -0.5232  1.2089
  1764G12c C01532601   3.316  10.500   0.488 -0.3109  1.0652  2.4196
  1764G12c C01032602   3.229  10.492   0.597  1.7075  0.6503  0.3425
  1764G12c C01132603   3.276  10.414   0.716  0.6811  0.7928 -0.6506
  1764G12c H00532604   3.216  10.419   0.806 -1.6447 -3.4096 -1.8526
  1764G12c C01232605   3.410  10.363   0.729 -0.7715 -0.5398 -0.3345
  1764G12c C01732606   3.454  10.328   0.849 -0.5971 -0.6580 -0.2563
  1764G12c O00232607   3.542  10.417   0.910 -1.2877  0.8367  0.3072
  1764G12c H00432608   3.593  10.466   0.847  3.6821 -2.6285  1.2656
  1764G12c C01832609   3.415  10.241   0.929  0.4604 -0.2823  1.2331
  1764G12c O00132610   3.337  10.137   0.889  1.4469 -0.6482 -0.3022
  1764G12c H00332611   3.302  10.099   0.968  1.9597 -1.2563 -0.3608
  1764G12c C01932612   3.457  10.235   1.078  1.7637  0.5865  1.6226
  1764G12c H00232613   3.565  10.251   1.075  2.0929 -0.8643  4.0631
  1764G12c H00132614   3.416  10.308   1.147 -3.9854  1.0937 -2.0345
  1764G12c O00032615   3.418  10.097   1.125  0.9501  0.0185  0.8444
  1764G12c C01A32616   3.536  10.019   1.140 -3.1528 -0.2420  2.0020
  1764G12c C02K32617   3.590   9.927   1.043  0.6510  0.5390 -0.6496
  1764G12c O00G32618   3.545   9.893   0.921 -0.3208  0.6694  0.7272
  1764G12c C02M32619   3.417   9.835   0.931  1.1516 -0.2215 -1.9102
  1764G12c H01G32620   3.338   9.910   0.937 -0.4284 -2.0242  1.1479
  1764G12c H01F32621   3.395   9.771   1.016 -1.7447  4.2693  0.9736
  1764G12c H01E32622   3.407   9.745   0.870 -0.9783 -4.5602  4.3485
  1764G12c C02J32623   3.722   9.896   1.053 -1.0919  0.8027  0.3987
  1764G12c H01H32624   3.767   9.854   0.964 -5.8196 -0.1143 -1.7366
  1764G12c C02I32625   3.782   9.889   1.177  0.0202 -0.6806 -1.8894
  1764G12c C02N32626   3.925   9.851   1.172  0.0637 -0.3269  1.1773
  1764G12c H01M32627   3.967   9.812   1.081  0.5846 -4.1264  2.9401
  1764G12c C02O32628   3.988   9.834   1.297  0.9221  0.7496  0.0993
  1764G12c H01L32629   3.963   9.889   1.386  0.2067 -2.3796  1.8995
  1764G12c C02P32630   4.133   9.770   1.299  0.7521 -0.8241  1.1129
  1764G12c H01K32631   4.178   9.868   1.285 -4.2958  1.1652 -2.4671
  1764G12c H01J32632   4.164   9.745   1.401 -7.2596  4.6334  5.4411
  1764G12c O00H32633   4.157   9.669   1.202  0.0513  0.0931  0.5609
  1764G12c H01I32634   4.248   9.679   1.177 -0.4657 -4.0167 -3.6909
  1764G12c C02H32635   3.718   9.944   1.287  1.2271 -1.0165 -1.4725
  1764G12c H01C32636   3.757   9.943   1.387  3.7957  0.8311 -2.3904
  1764G12c C02L32637   3.594  10.001   1.268  0.8466  0.6412  0.2247
  1764G12c H01D32638   3.551  10.027   1.364  3.6567 -2.5315  2.4672
  1764G12c C01332639   3.489  10.366   0.615 -0.9303  0.2001  0.3074
  1764G12c H00032640   3.583  10.314   0.620 -2.7523 -3.2122  0.4185
  1764G12c C01432641   3.444  10.439   0.494 -1.7550 -1.0434 -0.0820
  1764G12c C00F32642   3.547  10.481   0.405  2.3745  1.5634  0.2514
  1764G12c C00H32643   3.370  10.607   0.285 -0.4545 -0.8579  0.4776
  1764G12c C00I32644   3.323  10.673   0.171  0.3517 -0.4535 -0.4967
  1764G12c C00J32645   3.211  10.748   0.191 -0.3654  0.1068  0.6708
  1764G12c C00Z32646   3.096  10.567   0.600 -0.2845  2.0372  0.9477
  1764G12c C00Y32647   3.022  10.568   0.729 -1.4004 -0.0978 -1.1213
  1764G12c H00632648   3.020  10.492   0.806  1.8169 -1.6619 -2.4637
  1764G12c C00X32649   2.948  10.687   0.748 -0.4737  1.9133  1.9159
  1764G12c O00332650   2.869  10.683   0.873  0.7213  0.3541 -1.2190
  1764G12c C01B32651   2.951  10.748   0.976 -0.1471  0.6990  0.6436
  1764G12c H00932652   2.930  10.696   1.070 -2.7890 -6.1766 -3.3772
  1764G12c H00832653   2.904  10.841   0.943  2.6941  0.1820 -5.5742
  1764G12c H00732654   3.050  10.749   0.932 -0.0342 -0.4519  0.8500
  1764G12c C00W32655   2.924  10.782   0.636  0.2978 -0.2864  1.4826
  1764G12c O00432656   2.818  10.862   0.647 -1.1342  0.6179 -0.8815
  1764G12c C01C32657   2.816  10.974   0.566  1.1810  1.4677  1.1231
  1764G12c H00A32658   2.764  11.063   0.600 -4.8011 -2.3490  2.7041
  1764G12c C00P32659   2.900  10.988   0.446 -0.3432 -0.1057 -3.9693
  1764G12c C00O32660   2.936  11.115   0.372  0.0729 -2.0522 -0.6881
  1764G12c C01D32661   2.884  11.229   0.429 -0.0345  0.2364  0.8497
  1764G12c H00S32662   2.866  11.230   0.535 -1.6017 -5.6257  0.8417
  1764G12c C01E32663   2.904  11.357   0.354  0.6474 -0.5621  0.9015
  1764G12c O00832664   2.872  11.467   0.423  0.7674  1.5737  0.4469
  1764G12c C01V32665   2.742  11.517   0.412 -0.9417  0.4597  0.9445
  1764G12c C01Z32666   2.632  11.410   0.459  0.5263  0.4776  0.2392
  1764G12c H00R32667   2.688  11.353   0.533  6.1714  0.6002 -3.6081
  1764G12c H00Q32668   2.559  11.432   0.537 -0.7625  0.9316 -1.0736
  1764G12c O00932669   2.578  11.350   0.345 -1.0281  0.8179 -1.0254
  1764G12c H00P32670   2.513  11.414   0.322 -2.2797 -0.0933 -0.1774
  1764G12c C01W32671   2.720  11.644   0.389 -1.8886 -1.4123 -0.4394
  1764G12c H00O32672   2.804  11.695   0.344 -3.0179  1.7085  0.8258
  1764G12c C01X32673   2.582  11.704   0.385 -0.1461  1.0033 -0.7321
  1764G12c H00N32674   2.584  11.721   0.278  4.0004  2.8826 -0.4603
  1764G12c H00M32675   2.523  11.614   0.398  1.2368 -0.2553 -2.8935
  1764G12c C01Y32676   2.553  11.829   0.476 -1.0597 -1.6043  0.0871
  1764G12c C02D32677   2.524  11.843   0.625 -0.7188 -0.8388 -0.1936
  1764G12c H01932678   2.553  11.757   0.684 -0.0855 -1.0941 -0.8686
  1764G12c C02C32679   2.492  11.953   0.692  2.1791 -1.5376  1.1152
  1764G12c H01A32680   2.472  11.955   0.798  3.5768 -0.4695  1.3752
  1764G12c C02B32681   2.454  12.062   0.618 -0.3464 -1.3421 -1.9472
  1764G12c O00E32682   2.402  12.177   0.678 -0.4487 -0.1512 -0.4721
  1764G12c H01B32683   2.414  12.228   0.600 -4.2135 -0.6996 -1.4993
  1764G12c C02F32684   2.466  12.062   0.474  0.9310 -0.0307 -0.8233
  1764G12c O00F32685   2.420  12.168   0.400  0.5537 -0.2520  0.1980
  1764G12c C02G32686   2.486  12.215   0.290 -0.3018  1.9739 -0.3264
  1764G12c H01732687   2.443  12.147   0.217 -1.0411 -3.3004  4.5861
  1764G12c H01632688   2.592  12.191   0.298 -0.0982  2.8277 -0.4474
  1764G12c H01532689   2.452  12.318   0.292 -3.3467  1.0289 -0.8387
  1764G12c C02E32690   2.518  11.945   0.404  0.8974  0.9151  0.8209
  1764G12c H01832691   2.508  11.960   0.297 -0.6501  1.3307  1.0105
  1764G12c C01F32692   2.956  11.375   0.223 -0.0356 -2.7853 -0.6141
  1764G12c C01G32693   3.028  11.493   0.157 -2.3464  1.5554 -0.7948
  1764G12c H00L32694   3.039  11.576   0.226  0.6021 -2.6035  4.0830
  1764G12c C01H32695   3.116  11.475   0.044  2.1234 -0.3885 -0.5337
  1764G12c H00B32696   3.200  11.527   0.001  4.0113 -0.7288  2.6523
  1764G12c C01I32697   3.115  11.357  -0.028 -1.1079  1.3152 -0.1064
  1764G12c C01U32698   2.971  11.262   0.151 -1.0058  0.0263  0.5536
  1764G12c C00S32699   3.132  10.735   0.285 -0.0193  1.1701 -0.0172
  1764G12c C00K32700   3.169  10.861   0.107 -0.0845  2.4629  0.6600
  1764G12c C00N32701   2.973  11.138   0.233 -0.5820 -1.0531 -1.0481
  1764G12c C00032702   3.019  11.257   0.017  0.3115 -0.0193 -0.5885
  1764G12c C01J32703   3.208  11.263  -0.074 -1.2785  0.5647  0.2029
  1764G12c C01K32704   3.316  11.302  -0.158  0.1274  0.1183 -0.8972
  1764G12c C01P32705   3.360  11.431  -0.212 -1.6448 -0.0663  0.7365
  1764G12c C01Q32706   3.269  11.525  -0.259 -1.5555  0.5857  1.5175
  1764G12c H00G32707   3.221  11.580  -0.179  3.3455  4.0171  2.3213
  1764G12c C01R32708   3.247  11.573  -0.380  1.0961 -1.6779 -0.4409
  1764G12c H00F32709   3.274  11.503  -0.457 -4.2112 -3.0744 -1.2062
  1764G12c C01S32710   3.158  11.700  -0.393 -0.5928  1.4116 -1.2761
  1764G12c H00E32711   3.058  11.706  -0.350 -1.4935  7.2314 -3.7663
  1764G12c H00D32712   3.211  11.788  -0.356 -2.5832  2.8844 -1.9183
  1764G12c O00532713   3.140  11.667  -0.532 -0.6461 -0.7236 -0.8328
  1764G12c H00C32714   3.116  11.576  -0.538 -0.1494 -0.7385 -3.2526
  1764G12c C01O32715   3.499  11.460  -0.237 -0.4087 -0.4199 -1.5538
  1764G12c H00H32716   3.527  11.564  -0.245  0.5193 -0.4762  0.6338
  1764G12c C01N32717   3.591  11.374  -0.199 -0.7153  0.9778  0.8070
  1764G12c O00632718   3.713  11.441  -0.186 -0.1288 -1.3271 -1.1319
  1764G12c C01T32719   3.729  11.525  -0.066 -0.5946  0.6569  0.6272
  1764G12c H00K32720   3.738  11.510   0.042  0.8977 -0.8653  0.3183
  1764G12c H00J32721   3.642  11.587  -0.047  2.8002  4.6534  4.1465
  1764G12c H00I32722   3.785  11.606  -0.113 -2.8245  3.5584  2.7452
  1764G12c C01M32723   3.562  11.243  -0.169 -0.2747 -0.2790 -1.0392
  1764G12c C02032724   3.270  10.903   0.027 -0.6955 -0.0336 -0.0921
  1764G12c C02132725   3.391  10.830   0.008 -1.6277 -0.1530  0.1426
  1764G12c C01L32726   3.417  11.196  -0.147 -1.5492 -0.7582  1.7233
  1764G12c O00732727   3.660  11.169  -0.139 -0.7333 -0.8400  0.5491
  1764G12c C02232728   3.517  10.850  -0.041  1.8106 -1.0190  0.3891
  1764G12c C02332729   3.420  10.706   0.074  1.0532 -0.5619  0.0700
  1764G12c C00G32730   3.504  10.551   0.282  1.3397 -1.6985 -0.9116
  1764G12c C00E32731   3.675  10.427   0.403 -1.6823  1.2174 -0.5728
  1764G12c O00A32732   3.733  10.391   0.514  0.0973  0.1534 -0.5760
  1764G12c C02432733   3.886  10.381   0.528  0.5985 -0.7068 -1.4023
  1764G12c H00V32734   3.931  10.479   0.510 -1.5465  1.4096  3.7187
  1764G12c H00U32735   3.929  10.293   0.480  1.1853 -2.0257  1.4789
  1764G12c H00T32736   3.916  10.390   0.632 -1.3451 -4.2757 -0.4507
  1774G12c C00D32737   3.771   7.183   5.937  0.6341  0.6270  1.4853
  1774G12c O00B32738   3.699   7.243   5.842 -0.1568  1.0502 -0.8485
  1774G12c C02532739   3.592   7.185   5.761  0.4147  0.7420 -0.2028
  1774G12c C02632740   3.465   7.261   5.814  0.7968  1.0892  0.8962
  1774G12c H00Y32741   3.383   7.228   5.749  4.2437 -0.0357 -3.1184
  1774G12c H00X32742   3.455   7.365   5.845  3.5237  1.4811  0.5877
  1774G12c O00C32743   3.464   7.206   5.945 -0.7445 -0.0740  2.5849
  1774G12c H00W32744   3.463   7.281   6.002 -1.3329  1.7224  0.3087
  1774G12c C02732745   3.620   7.109   5.664  0.1672  0.2194  0.1833
  1774G12c O00D32746   3.743   7.070   5.627  0.1872 -1.1877 -0.3747
  1774G12c H00Z32747   3.738   7.057   5.534  0.7515 -4.0510 -0.0499
  1774G12c C02832748   3.518   7.121   5.555  2.7751  1.1039  0.5186
  1774G12c C02932749   3.390   7.067   5.542 -2.9296  0.2587 -0.7355
  1774G12c H01032750   3.336   7.013   5.618 -1.3855  0.5824  0.6224
  1774G12c C02T32751   3.310   7.078   5.422 -0.2055  0.3434 -0.3576
  1774G12c H01O32752   3.203   7.064   5.408 -0.0865  1.3757 -2.4559
  1774G12c C02S32753   3.364   7.136   5.305 -0.3628 -0.1620 -0.0258
  1774G12c O00J32754   3.289   7.146   5.192 -1.5106 -0.9094  0.7930
  1774G12c H01P32755   3.200   7.117   5.185 -1.1412 -1.7419 -0.6896
  1774G12c C02R32756   3.505   7.195   5.310 -0.4677 -0.7620  0.5964
  1774G12c O00I32757   3.567   7.280   5.223 -0.4207 -0.2918  0.1485
  1774G12c C02Q32758   3.487   7.398   5.195 -1.9095 -0.5844 -0.8896
  1774G12c H01N32759   3.452   7.377   5.094 -3.3255 -3.9660  0.2000
  1774G12c H01R32760   3.380   7.413   5.206 -1.9907  0.6509 -3.1776
  1774G12c H01Q32761   3.550   7.485   5.211 -4.0738  0.5224  1.9315
  1774G12c C02A32762   3.565   7.190   5.439  2.2900 -1.0659  0.2355
  1774G12c H01132763   3.644   7.258   5.468 -1.2210  2.3797  2.2127
  1774G12c C00C32764   3.755   7.048   5.949 -1.1050  0.4374 -0.0050
  1774G12c H01232765   3.694   6.972   5.902 -2.1431  0.3781  1.4079
  1774G12c C00B32766   3.860   6.977   6.023  0.3838  0.0330  0.9852
  1774G12c C00A32767   3.896   6.835   6.024  1.1567 -0.6483 -0.6804
  1774G12c C00932768   3.809   6.712   6.019 -0.0160 -1.0052  0.8628
  1774G12c C00832769   3.674   6.690   5.997 -0.2006 -0.3004  0.5363
  1774G12c H01332770   3.634   6.781   5.956  0.3357 -2.2977 -4.8302
  1774G12c C00732771   3.609   6.577   6.047 -1.7482  0.1262  0.8851
  1774G12c H01432772   3.509   6.541   6.026 -2.1342  1.3897  0.5635
  1774G12c C00632773   3.693   6.475   6.099  0.1153  0.4041 -1.1345
  1774G12c C00532774   3.830   6.505   6.123  0.2837  0.0613 -0.8316
  1774G12c C00432775   3.908   6.426   6.217  1.0502 -0.1841 -0.7934
  1774G12c C00332776   4.045   6.463   6.247  0.7033 -1.4591  1.1492
  1774G12c C00232777   4.136   6.366   6.317  0.5667 -0.1749 -0.4149
  1774G12c C00132778   4.242   6.401   6.405  1.3725  1.4429 -1.4204
  1774G12c C00M32779   4.285   6.528   6.467  0.4650 -0.2102  1.8066
  1774G12c C00L32780   4.291   6.646   6.382  0.3951  0.9419  0.2285
  1774G12c C00R32781   4.311   6.780   6.440 -0.1318 -0.7739 -0.1582
  1774G12c C00Q32782   4.311   6.829   6.567 -1.9523 -0.2902  0.5739
  1774G12c C00V32783   4.322   6.970   6.564 -1.2255  0.8111 -0.8822
  1774G12c C00U32784   4.263   7.044   6.461 -0.8277 -0.3056  1.5667
  1774G12c C00T32785   4.226   6.994   6.349  0.1479 -1.8844 -0.8790
  1774G12c C01632786   4.145   7.063   6.268 -1.1297  1.5725 -0.7351
  1774G12c C01532787   4.131   7.193   6.263 -0.0602  0.6090 -0.9739
  1774G12c C01032788   4.191   7.259   6.376 -0.4512 -2.1736 -1.4193
  1774G12c C01132789   4.185   7.396   6.373 -1.6156 -1.9321  1.0405
  1774G12c H00532790   4.230   7.454   6.452 -4.2670 -4.3218  4.4321
  1774G12c C01232791   4.114   7.469   6.277  0.2115 -0.0002  0.6249
  1774G12c C01732792   4.097   7.616   6.306 -1.6074  0.0969 -0.3428
  1774G12c O00232793   4.175   7.668   6.405  0.1113  0.9658  1.3824
  1774G12c H00432794   4.184   7.760   6.385 -1.6229  1.2670  1.8854
  1774G12c C01832795   3.998   7.704   6.258  1.3126 -0.8669  0.1573
  1774G12c O00132796   3.891   7.663   6.212  0.9430  1.7623 -0.0598
  1774G12c H00332797   3.885   7.569   6.207 -0.2625  1.8836 -0.9702
  1774G12c C01932798   4.015   7.847   6.317 -0.7282  0.9994  0.4245
  1774G12c H00232799   3.947   7.924   6.279 -1.2005  0.6423  0.5450
  1774G12c H00132800   3.991   7.837   6.422  1.4955  1.7060  1.0218
  1774G12c O00032801   4.144   7.887   6.314 -0.9540  1.5523  0.7637
  1774G12c C01A32802   4.192   7.942   6.190  0.4766  1.1910 -1.0508
  1774G12c C02K32803   4.141   8.051   6.137 -1.8032 -0.1180 -1.1210
  1774G12c O00G32804   4.023   8.121   6.209 -2.1486 -0.3035  0.5967
  1774G12c C02M32805   3.994   8.263   6.183 -1.3510  1.0294 -0.9650
  1774G12c H01G32806   4.094   8.290   6.148 -2.4138  0.3848 -4.7289
  1774G12c H01F32807   3.915   8.306   6.245 -2.5201  0.7360 -2.2393
  1774G12c H01E32808   3.936   8.240   6.094  4.5788 -0.5647 -4.7222
  1774G12c C02J32809   4.214   8.124   6.035  0.8756 -0.1818  0.7694
  1774G12c H01H32810   4.177   8.225   6.025 -3.0182 -1.1245  4.3594
  1774G12c C02I32811   4.323   8.062   5.968 -1.6256  1.3157 -0.2561
  1774G12c C02N32812   4.382   8.112   5.834 -1.6279 -0.0411 -0.7128
  1774G12c H01M32813   4.321   8.102   5.746 -0.4096 -9.1785 -0.9702
  1774G12c C02O32814   4.514   8.157   5.846 -2.1455 -1.5537  0.2348
  1774G12c H01L32815   4.550   8.168   5.947  6.9035  6.7851 -3.1662
  1774G12c C02P32816   4.578   8.209   5.718  2.9640  1.4910 -0.6043
  1774G12c H01K32817   4.584   8.116   5.661 -1.3604  1.2640 -0.8330
  1774G12c H01J32818   4.512   8.273   5.660  0.8341  4.2170  4.5266
  1774G12c O00H32819   4.702   8.277   5.743  1.6117 -0.3031 -0.2967
  1774G12c H01I32820   4.681   8.361   5.782  3.8899 -0.8650  2.2419
  1774G12c C02H32821   4.337   7.930   6.013  0.2718 -0.4536  0.9989
  1774G12c H01C32822   4.412   7.859   5.981 -1.3115 -1.8180  0.2497
  1774G12c C02L32823   4.303   7.891   6.133  1.2753 -1.1883 -0.3121
  1774G12c H01D32824   4.367   7.816   6.178  0.9882 -2.5644 -2.1673
  1774G12c C01332825   4.013   7.382   6.211 -0.6017  0.4641 -0.9061
  1774G12c H00032826   3.927   7.440   6.183 -2.2625  0.6702  4.0639
  1774G12c C01432827   4.041   7.253   6.183 -0.2294  1.6411 -0.5801
  1774G12c C00F32828   3.964   7.180   6.092  1.4087  0.8530 -0.2131
  1774G12c C00H32829   4.079   6.988   6.165  1.1321  1.5163 -0.9699
  1774G12c C00I32830   4.104   6.845   6.159 -1.6114  0.7301 -0.0087
  1774G12c C00J32831   4.217   6.803   6.227 -0.7152  0.2167 -0.1045
  1774G12c C00Z32832   4.258   7.183   6.470 -0.3100 -0.5886 -1.6362
  1774G12c C00Y32833   4.311   7.258   6.585 -1.3757  0.9248  2.0395
  1774G12c H00632834   4.288   7.359   6.614  4.3546  3.5440 -1.7153
  1774G12c C00X32835   4.338   7.184   6.703 -1.8671 -1.0547  0.2017
  1774G12c O00332836   4.401   7.248   6.811 -1.1979 -0.6928  0.4870
  1774G12c C01B32837   4.383   7.382   6.865  0.9655  0.7125 -0.5319
  1774G12c H00932838   4.409   7.365   6.969  1.2971 12.0826  1.8870
  1774G12c H00832839   4.426   7.456   6.797  0.4054 -0.2567 -1.9760
  1774G12c H00732840   4.276   7.368   6.853  0.4360 -7.7839  8.2412
  1774G12c C00W32841   4.358   7.042   6.687 -0.5774  1.2078  0.2796
  1774G12c O00432842   4.382   6.968   6.798 -0.1129  0.8751  1.7960
  1774G12c C01C32843   4.334   6.849   6.814  0.6411 -1.1140  0.7624
  1774G12c H00A32844   4.278   6.812   6.899 -2.8328  0.8085 -0.5620
  1774G12c C00P32845   4.312   6.760   6.695 -1.0007  0.7152  1.7586
  1774G12c C00O32846   4.289   6.619   6.719  1.2824 -0.4354  0.1447
  1774G12c C01D32847   4.271   6.553   6.848 -0.3109 -0.5242  0.2178
  1774G12c H00S32848   4.282   6.613   6.937  1.5239  2.9650 -2.2544
  1774G12c C01E32849   4.215   6.417   6.869  0.9154  0.9915 -0.1452
  1774G12c O00832850   4.196   6.363   6.986  0.4628  0.6823  0.2357
  1774G12c C01V32851   4.290   6.395   7.100 -0.6770  0.3720  0.5684
  1774G12c C01Z32852   4.235   6.502   7.182  0.9338  0.1350  0.3363
  1774G12c H00R32853   4.299   6.559   7.250  1.0912 -0.1379  0.4172
  1774G12c H00Q32854   4.170   6.572   7.129 -0.5972 -0.5580  1.2649
  1774G12c O00932855   4.145   6.424   7.262 -0.5663  0.1282  0.4912
  1774G12c H00P32856   4.084   6.382   7.203 -0.7472 -1.0794  1.5231
  1774G12c C01W32857   4.404   6.335   7.120  1.1344 -1.4014  0.7789
  1774G12c H00O32858   4.447   6.250   7.069  1.5368  0.1790 -1.6510
  1774G12c C01X32859   4.517   6.361   7.223  0.8360  0.1127  0.9319
  1774G12c H00N32860   4.486   6.440   7.291 -0.8853 -1.1734  1.6774
  1774G12c H00M32861   4.577   6.370   7.132 -2.9700 -3.0931 -2.0882
  1774G12c C01Y32862   4.558   6.227   7.313  0.3817 -0.3663  0.4497
  1774G12c C02D32863   4.531   6.223   7.453 -3.4707 -1.3551 -0.0628
  1774G12c H01932864   4.498   6.301   7.520 -0.2293 -1.2994  1.5890
  1774G12c C02C32865   4.564   6.116   7.529  0.8274  1.7375 -0.3131
  1774G12c H01A32866   4.515   6.081   7.619  3.4192 -0.6299  0.2452
  1774G12c C02B32867   4.622   6.012   7.457  0.9892 -0.4520  0.5298
  1774G12c O00E32868   4.659   5.911   7.538 -0.4306  1.1202  0.3188
  1774G12c H01B32869   4.669   5.841   7.476  7.0523 -1.4260  3.8317
  1774G12c C02F32870   4.634   6.001   7.318  1.3546 -0.4113 -0.3148
  1774G12c O00F32871   4.691   5.888   7.283  1.9958  1.3330  0.8163
  1774G12c C02G32872   4.780   5.895   7.175  0.7068  1.8245 -0.6703
  1774G12c H01732873   4.830   5.991   7.164  3.7667  0.2574 -0.7837
  1774G12c H01632874   4.738   5.881   7.076  0.9955  7.0737 -1.6724
  1774G12c H01532875   4.836   5.816   7.224 -0.1851  1.9630  0.6192
  1774G12c C02E32876   4.594   6.104   7.244 -1.0945 -1.0782  0.5125
  1774G12c H01832877   4.622   6.114   7.140 -2.9753 -0.3751  0.0358
  1774G12c C01F32878   4.186   6.340   6.757 -0.0340 -0.1604 -0.1854
  1774G12c C01G32879   4.087   6.231   6.745  0.3259 -0.9121 -0.0248
  1774G12c H00L32880   4.063   6.168   6.830 -3.0815 -0.3933 -0.5452
  1774G12c C01H32881   4.026   6.201   6.614  0.0695  0.4684 -0.2811
  1774G12c H00B32882   3.944   6.134   6.592  0.6400 -0.4318  0.3316
  1774G12c C01I32883   4.105   6.226   6.509 -1.5168 -0.3771  0.6339
  1774G12c C01U32884   4.258   6.387   6.637  0.4280  1.0265  0.0140
  1774G12c C00S32885   4.273   6.870   6.340  0.3944  2.6121  1.0027
  1774G12c C00K32886   4.216   6.663   6.250  1.0038 -0.7736 -0.8690
  1774G12c C00N32887   4.272   6.526   6.611  0.0273  2.0554  0.6133
  1774G12c C00032888   4.224   6.320   6.516  2.0264 -0.8909 -0.1323
  1774G12c C01J32889   4.073   6.261   6.374  1.1136  0.1600  0.9980
  1774G12c C01K32890   3.943   6.205   6.327  0.9066  0.2746  1.3234
  1774G12c C01P32891   3.888   6.071   6.335  0.7425  1.0819  0.6244
  1774G12c C01Q32892   3.933   5.948   6.423  0.6131 -0.1396  0.8079
  1774G12c H00G32893   3.868   5.865   6.446 -4.5886  2.3733 -3.6221
  1774G12c C01R32894   4.056   5.914   6.445 -1.2900 -0.1147 -0.9180
  1774G12c H00F32895   4.076   5.820   6.496 -0.0008  1.9946  2.6304
  1774G12c C01S32896   4.201   5.930   6.370 -0.2035  0.0736 -1.3472
  1774G12c H00E32897   4.250   6.015   6.418  1.6919 -2.9222  2.3895
  1774G12c H00D32898   4.282   5.867   6.409  2.2528  2.1452 -2.9974
  1774G12c O00532899   4.181   5.928   6.236  0.4265 -0.5953  0.1556
  1774G12c H00C32900   4.105   5.979   6.214  1.6618  1.8484  1.4186
  1774G12c C01O32901   3.773   6.035   6.248 -0.7337  0.4196  2.9417
  1774G12c H00H32902   3.738   5.936   6.227  1.4802  0.3373 -0.8566
  1774G12c C01N32903   3.706   6.122   6.203  0.2953  0.0124 -1.5834
  1774G12c O00632904   3.575   6.106   6.169  0.7093 -0.8621  0.2882
  1774G12c C01T32905   3.563   6.103   6.024  0.0447 -1.5079 -0.1576
  1774G12c H00K32906   3.540   6.204   5.989  0.2765  0.8469  5.8954
  1774G12c H00J32907   3.485   6.031   6.002  2.2526 -3.1191 -3.2044
  1774G12c H00I32908   3.646   6.072   5.960 -0.0757 -1.2650 -0.4340
  1774G12c C01M32909   3.746   6.250   6.192 -0.9914 -0.4642  0.4599
  1774G12c C02032910   4.105   6.578   6.183 -0.4501  0.0565  0.3049
  1774G12c C02132911   4.028   6.638   6.073  1.3394 -0.5446 -0.2924
  1774G12c C01L32912   3.870   6.300   6.252  2.8544  0.5106  0.9876
  1774G12c O00732913   3.656   6.347   6.143 -0.6614 -0.1602 -0.4924
  1774G12c C02232914   3.893   6.613   6.068 -0.1743  0.0274  0.6467
  1774G12c C02332915   4.022   6.775   6.068 -0.5559 -0.2800 -1.6787
  1774G12c C00G32916   3.971   7.040   6.082 -0.1148 -0.4982 -0.4876
  1774G12c C00E32917   3.858   7.251   6.021  0.8650  0.1093  1.6324
  1774G12c O00A32918   3.886   7.382   5.972 -0.1739  0.5334  1.4413
  1774G12c C02432919   3.773   7.480   5.946  0.4694 -1.7962 -0.1971
  1774G12c H00V32920   3.700   7.492   6.026  1.2593 -0.4565  0.3332
  1774G12c H00U32921   3.715   7.488   5.854 -2.0199 -0.7766  1.4285
  1774G12c H00T32922   3.835   7.569   5.953  3.1809 -3.6138 -0.0986
  1784G12c C00D32923   0.296   3.998   6.754  0.0475 -1.1660 -0.2573
  1784G12c O00B32924   0.373   3.959   6.855 -0.0193  0.2760  0.6009
  1784G12c C02532925   0.313   3.875   6.949 -0.1479 -0.3156  0.2811
  1784G12c C02632926   0.283   3.960   7.072  1.5803 -0.6047  0.8363
  1784G12c H00Y32927   0.212   4.032   7.030 -2.2206 -4.3475  0.4327
  1784G12c H00X32928   0.366   4.024   7.104 -0.9488  1.5399  3.4733
  1784G12c O00C32929   0.234   3.915   7.197 -2.9000 -0.2102  0.8465
  1784G12c H00W32930   0.141   3.899   7.203 -3.5381  1.4377 -3.0788
  1784G12c C02732931   0.321   3.742   6.925 -1.0898  1.6569 -0.5591
  1784G12c O00D32932   0.402   3.689   6.822 -1.5064  1.2028  0.4557
  1784G12c H00Z32933   0.338   3.684   6.753 -5.3139  2.7344  3.6908
  1784G12c C02832934   0.252   3.635   7.013 -0.5652  1.5475 -0.0497
  1784G12c C02932935   0.142   3.566   6.972  0.0467  0.5005 -1.7152
  1784G12c H01032936   0.093   3.622   6.894  2.4252  0.3102 -3.4101
  1784G12c C02T32937   0.092   3.449   7.020 -0.9628 -0.5476  0.4588
  1784G12c H01O32938   0.008   3.399   6.973 -3.6660  6.1385 -2.5945
  1784G12c C02S32939   0.158   3.392   7.131  0.2625  1.2196  0.8402
  1784G12c O00J32940   0.111   3.264   7.177 -0.6300  0.0702 -0.8450
  1784G12c H01P32941   0.154   3.236   7.256 -3.5074  0.4201  0.9209
  1784G12c C02R32942   0.289   3.440   7.156 -0.1379  0.8026 -0.0970
  1784G12c O00I32943   0.377   3.371   7.241  1.2704  0.6209 -0.9267
  1784G12c C02Q32944   0.395   3.440   7.367  1.8194 -0.8732 -1.7748
  1784G12c H01N32945   0.502   3.422   7.362  3.1635  6.0888 -4.3221
  1784G12c H01R32946   0.427   3.541   7.390  2.3778 -2.2807  4.3244
  1784G12c H01Q32947   0.358   3.377   7.447 -2.1960  1.2184 -1.8539
  1784G12c C02A32948   0.329   3.568   7.108 -0.8254  0.9978 -0.6356
  1784G12c H01132949   0.430   3.607   7.105 -1.6536  3.3179 -6.6658
  1784G12c C00C32950   0.153   3.995   6.747 -0.5253 -0.7823  0.3800
  1784G12c H01232951   0.086   3.942   6.812  1.3427 -1.7668  1.5661
  1784G12c C00B32952   0.066   4.084   6.672 -0.7851  1.4356 -0.9895
  1784G12c C00A32953  -0.082   4.089   6.664  0.1759  0.2388 -0.1253
  1784G12c C00932954  -0.193   4.014   6.706  0.1239  0.4666  0.3436
  1784G12c C00832955  -0.212   3.878   6.765 -1.3755 -0.2608  1.0584
  1784G12c H01332956  -0.143   3.813   6.817  1.5960  2.7364  1.0638
  1784G12c C00732957  -0.349   3.840   6.750  0.8706  1.2026  1.0351
  1784G12c H01432958  -0.379   3.746   6.793 -4.1097 -1.2038 -6.6934
  1784G12c C00632959  -0.449   3.910   6.670  0.8170 -0.5349  0.2830
  1784G12c C00532960  -0.420   4.037   6.623  0.8444 -0.5840 -1.4694
  1784G12c C00432961  -0.495   4.095   6.528 -0.8511 -0.1512 -0.3135
  1784G12c C00332962  -0.459   4.222   6.474 -0.1926 -1.4762  0.4337
  1784G12c C00232963  -0.523   4.266   6.360  0.4691  0.8549 -1.4717
  1784G12c C00132964  -0.521   4.392   6.274 -0.6983  0.1628 -0.3575
  1784G12c C00M32965  -0.395   4.430   6.209 -0.3684 -1.1883 -1.4339
  1784G12c C00L32966  -0.282   4.450   6.291  2.3126  1.9549  1.1459
  1784G12c C00R32967  -0.146   4.490   6.245  0.4260  0.2442 -1.6095
  1784G12c C00Q32968  -0.103   4.493   6.115 -0.1856  0.0356 -0.0559
  1784G12c C00V32969   0.049   4.510   6.105 -0.3420 -0.5315 -1.0526
  1784G12c C00U32970   0.135   4.451   6.197  0.5086  2.2209 -0.6661
  1784G12c C00T32971   0.080   4.402   6.315  1.3489  0.9086 -0.3019
  1784G12c C01632972   0.143   4.313   6.396 -0.0435 -1.1380 -0.2701
  1784G12c C01532973   0.277   4.286   6.371  1.1911 -0.9115  0.8267
  1784G12c C01032974   0.351   4.364   6.274  0.4039 -0.0119 -0.5715
  1784G12c C01132975   0.486   4.400   6.296 -0.3481 -0.5263  0.2225
  1784G12c H00532976   0.502   4.498   6.254 -1.2729 -0.8145 -0.8368
  1784G12c C01232977   0.559   4.336   6.401  0.8863 -2.9877  1.9430
  1784G12c C01732978   0.706   4.391   6.425 -0.3181 -0.3486 -0.0880
  1784G12c O00232979   0.774   4.287   6.484 -0.3496 -1.4612  1.1493
  1784G12c H00432980   0.855   4.325   6.512 -0.2080  0.1325 -1.2828
  1784G12c C01832981   0.781   4.506   6.374 -0.7464 -1.1457 -0.1802
  1784G12c O00132982   0.716   4.615   6.314  1.0333  0.7276  0.6119
  1784G12c H00332983   0.778   4.686   6.325 -1.3452  2.6334  2.2147
  1784G12c C01932984   0.932   4.526   6.372 -1.4104 -0.5995 -0.9928
  1784G12c H00232985   0.975   4.441   6.318  4.7013  2.8342 -2.0430
  1784G12c H00132986   0.994   4.602   6.324  5.0606 -3.7351  1.7688
  1784G12c O00032987   0.989   4.519   6.496 -1.2096 -1.1119 -0.7891
  1784G12c C01A32988   1.022   4.637   6.563 -0.0304 -1.5708  0.2550
  1784G12c C02K32989   1.166   4.682   6.545  0.9468  0.3177 -0.3956
  1784G12c O00G32990   1.233   4.581   6.458  0.3443 -0.1717  0.0487
  1784G12c C02M32991   1.376   4.560   6.448 -0.6454  0.3793  1.0773
  1784G12c H01G32992   1.422   4.656   6.471  2.8105 -0.2087 -2.7427
  1784G12c H01F32993   1.386   4.513   6.350 -1.3626  1.7993  0.3117
  1784G12c H01E32994   1.414   4.501   6.531  0.3954 -8.2613 -4.8170
  1784G12c C02J32995   1.231   4.801   6.601  0.1956 -1.8400  0.6527
  1784G12c H01H32996   1.322   4.846   6.565 -1.0096 -1.1574 -1.6239
  1784G12c C02I32997   1.143   4.880   6.684 -0.3285 -0.7303  1.0046
  1784G12c C02N32998   1.191   4.998   6.740 -0.3935  0.3544  0.6133
  1784G12c H01M32999   1.178   5.092   6.688  2.3522 -0.3701 -1.4944
  1784G12c C02O33000   1.211   5.004   6.876  1.7226 -0.8424  0.3953
  1784G12c H01L33001   1.194   5.099   6.926  0.7332 -3.0676  4.5503
  1784G12c C02P33002   1.253   4.896   6.973 -1.2955  0.5350  0.5318
  1784G12c H01K33003   1.201   4.892   7.069 -0.4573  0.9033  1.0062
  1784G12c H01J33004   1.263   4.800   6.923  3.3589  3.7829 -5.3966
  1784G12c O00H33005   1.388   4.911   6.974  0.7116 -2.1801  0.4917
  1784G12c H01I33006   1.434   4.888   6.895  5.4857 -2.6584  3.2240
  1784G12c C02H33007   1.015   4.852   6.690  0.1967 -1.1982 -2.0708
  1784G12c H01C33008   0.929   4.892   6.740 -1.6180 -8.9290  1.7405
  1784G12c C02L33009   0.946   4.738   6.635  0.7887 -0.0132 -0.4112
  1784G12c H01D33010   0.838   4.746   6.635  0.6322 -0.2404 -6.0671
  1784G12c C01333011   0.496   4.228   6.461  1.3479 -2.1537  0.4127
  1784G12c H00033012   0.565   4.183   6.531  1.1258  2.7425  4.1262
  1784G12c C01433013   0.348   4.211   6.469 -0.2660 -0.0937  0.5653
  1784G12c C00F33014   0.276   4.127   6.555 -0.8052  0.5942 -0.9271
  1784G12c C00H33015   0.080   4.252   6.495  2.0102  2.0711  0.2633
  1784G12c C00I33016  -0.059   4.279   6.516  0.2692  1.6235  0.0997
  1784G12c C00J33017  -0.125   4.368   6.426 -0.8397  0.2408 -0.6821
  1784G12c C00Z33018   0.276   4.427   6.179 -2.2506 -0.9601 -0.5579
  1784G12c C00Y33019   0.322   4.475   6.059 -1.5604  1.4851  0.8435
  1784G12c H00633020   0.426   4.451   6.041 -0.6294  5.0913  1.0085
  1784G12c C00X33021   0.251   4.543   5.960 -2.4281  0.0318 -0.0787
  1784G12c O00333022   0.282   4.556   5.835  0.7252  0.5042  1.3956
  1784G12c C01B33023   0.388   4.471   5.774 -1.3763  0.9509  1.4672
  1784G12c H00933024   0.352   4.460   5.672  0.8280  3.6962  0.3342
  1784G12c H00833025   0.407   4.374   5.820 -5.4900 -2.8053 -4.0078
  1784G12c H00733026   0.470   4.543   5.775  0.3594 -0.8114 -2.9982
  1784G12c C00W33027   0.108   4.536   5.971  0.6272  0.4244  0.3489
  1784G12c O00433028   0.022   4.578   5.870  0.4180 -0.1095  0.0036
  1784G12c C01C33029  -0.104   4.523   5.863  0.2629 -0.3743  0.5681
  1784G12c H00A33030  -0.117   4.439   5.796  3.7818 -2.5013  2.3818
  1784G12c C00P33031  -0.174   4.499   5.980  0.4718  1.0380 -1.4091
  1784G12c C00O33032  -0.324   4.473   5.968 -0.0822 -1.5403  2.9368
  1784G12c C01D33033  -0.400   4.466   5.841  0.6488 -0.6230 -0.8661
  1784G12c H00S33034  -0.363   4.488   5.742 -0.6208 -2.8224 -1.8675
  1784G12c C01E33035  -0.511   4.384   5.820  0.9941  0.1698 -0.1324
  1784G12c O00833036  -0.522   4.365   5.689  2.1082  0.0223  1.3422
  1784G12c C01V33037  -0.649   4.317   5.647  0.6678 -1.2551 -1.0692
  1784G12c C01Z33038  -0.769   4.397   5.691  1.0125  1.2106  0.8294
  1784G12c H00R33039  -0.870   4.357   5.701  3.0065 -6.7074 -4.9832
  1784G12c H00Q33040  -0.764   4.389   5.800 -0.2089 -0.5574  0.7892
  1784G12c O00933041  -0.751   4.535   5.655 -1.5291 -0.7434 -0.3328
  1784G12c H00P33042  -0.795   4.542   5.571  0.3931 -3.1968 -1.6051
  1784G12c C01W33043  -0.643   4.203   5.592  0.6553 -0.5111 -0.0871
  1784G12c H00O33044  -0.548   4.150   5.588  0.2807 -1.1743 -0.4419
  1784G12c C01X33045  -0.741   4.110   5.545  0.0998  1.0952 -2.4598
  1784G12c H00N33046  -0.708   4.018   5.594 -2.1192  0.2484 -2.5176
  1784G12c H00M33047  -0.827   4.136   5.606  3.3259 -0.0208  2.8869
  1784G12c C01Y33048  -0.792   4.100   5.403 -0.7064 -0.8141 -1.3452
  1784G12c C02D33049  -0.930   4.078   5.384 -0.3284 -0.7682 -1.6979
  1784G12c H01933050  -1.005   4.057   5.458 -1.3717  3.4498 -1.4405
  1784G12c C02C33051  -0.956   4.060   5.244  0.7533 -0.3874 -0.5135
  1784G12c H01A33052  -1.062   4.046   5.224  1.6387 -5.9543 -1.9670
  1784G12c C02B33053  -0.853   4.072   5.138  1.7636  0.4763  0.1765
  1784G12c O00E33054  -0.871   4.045   5.007  0.0709 -0.7741 -0.2531
  1784G12c H01B33055  -0.803   4.059   4.943  0.0050  0.7445 -0.0090
  1784G12c C02F33056  -0.720   4.074   5.183  0.2827  1.1859  0.9280
  1784G12c O00F33057  -0.629   4.091   5.080 -0.1372  0.9017  0.2100
  1784G12c C02G33058  -0.524   3.998   5.059 -0.3590 -0.9265  0.0548
  1784G12c H01733059  -0.524   3.891   5.074  2.8692 -1.4151 -2.7110
  1784G12c H01633060  -0.495   3.978   4.956 -1.0410  0.6720 -0.4735
  1784G12c H01533061  -0.447   4.037   5.126  2.0261 -0.5919 -2.7750
  1784G12c C02E33062  -0.696   4.108   5.312 -0.7161 -1.0111 -1.1725
  1784G12c H01833063  -0.609   4.131   5.370 -4.5512  2.1563  3.7608
  1784G12c C01F33064  -0.585   4.341   5.931  2.5302  0.1360  0.6886
  1784G12c C01G33065  -0.659   4.221   5.933  0.6788 -1.4098  1.2139
  1784G12c H00L33066  -0.670   4.145   5.857 -3.0415  0.9739 -0.7745
  1784G12c C01H33067  -0.688   4.163   6.053 -0.3896 -0.9333 -0.8387
  1784G12c H00B33068  -0.724   4.062   6.035  3.5872 -3.2976  3.2344
  1784G12c C01I33069  -0.654   4.216   6.168  1.1287 -0.1553 -0.3223
  1784G12c C01U33070  -0.541   4.385   6.048 -0.9622 -0.4203 -1.4068
  1784G12c C00S33071  -0.051   4.431   6.328  0.6812  0.9605  1.6502
  1784G12c C00K33072  -0.262   4.378   6.413 -0.2890  1.5127 -0.1039
  1784G12c C00N33073  -0.406   4.444   6.073  0.4249 -1.0915  1.4628
  1784G12c C00033074  -0.601   4.345   6.170  2.3032  1.1031 -1.8558
  1784G12c C01J33075  -0.622   4.174   6.302 -1.1591  1.1476  0.9358
  1784G12c C01K33076  -0.644   4.031   6.343 -0.2855  0.0415  0.7691
  1784G12c C01P33077  -0.734   3.936   6.295  0.5734  0.1898  1.6980
  1784G12c C01Q33078  -0.842   3.965   6.212  1.2023 -1.4296  1.3456
  1784G12c H00G33079  -0.895   4.057   6.230  0.5788 -1.8938  1.9176
  1784G12c C01R33080  -0.883   3.888   6.113  0.5069  0.3827  1.5898
  1784G12c H00F33081  -0.846   3.786   6.120 -0.9654 -0.1909  1.1932
  1784G12c C01S33082  -1.019   3.895   6.025 -1.9808 -1.1907  2.1005
  1784G12c H00E33083  -1.021   4.003   6.010 -0.9113 -1.0808  2.7008
  1784G12c H00D33084  -1.000   3.868   5.921 -0.7479 -0.1451  2.0255
  1784G12c O00533085  -1.123   3.838   6.095  1.5205 -0.2174 -0.2022
  1784G12c H00C33086  -1.097   3.748   6.103  0.9418 -0.2356  1.5753
  1784G12c C01O33087  -0.742   3.804   6.356 -0.2331  0.4399  0.4165
  1784G12c H00H33088  -0.770   3.723   6.290 -2.7312  2.9904 -1.7802
  1784G12c C01N33089  -0.676   3.786   6.462 -1.2544 -0.1004  1.5558
  1784G12c O00633090  -0.703   3.671   6.538  0.4995  2.0362 -0.0103
  1784G12c C01T33091  -0.767   3.539   6.481  0.1377  0.5261 -0.0783
  1784G12c H00K33092  -0.738   3.510   6.380 -3.7254 -0.2327 -1.0609
  1784G12c H00J33093  -0.863   3.590   6.473 -4.3663 -6.9955  1.5284
  1784G12c H00I33094  -0.762   3.448   6.540 -4.3077 -0.4623 -1.0129
  1784G12c C01M33095  -0.607   3.894   6.516  0.3380  1.2295  1.1853
  1784G12c C02033096  -0.337   4.292   6.513  0.8236  2.3724 -1.4291
  1784G12c C02133097  -0.267   4.220   6.630 -0.5887 -0.7735 -1.1936
  1784G12c C01L33098  -0.593   4.017   6.464  0.3137  1.5796  0.2046
  1784G12c O00733099  -0.553   3.864   6.632 -0.6381  0.7849 -0.0358
  1784G12c C02233100  -0.309   4.097   6.667  0.3737  1.0398  0.7721
  1784G12c C02333101  -0.124   4.212   6.623  0.1947  1.1131 -1.4986
  1784G12c C00G33102   0.145   4.168   6.584  2.4351  0.6212 -0.7147
  1784G12c C00E33103   0.346   4.035   6.640 -0.3981  1.0391 -0.1535
  1784G12c O00A33104   0.490   4.024   6.651  0.3052  0.5953  0.7881
  1784G12c C02433105   0.527   3.922   6.561 -0.3543 -1.8409  1.1658
  1784G12c H00V33106   0.549   3.832   6.619 -4.5704 -0.8785  4.5232
  1784G12c H00U33107   0.635   3.925   6.550 -0.4052  1.5080  1.1585
  1784G12c H00T33108   0.498   3.901   6.458  4.5617  7.0652 -2.5721
  1794G12c C00D33109   0.028  11.145   9.410  0.7527  1.9783  0.2410
  1794G12c O00B33110   0.107  11.039   9.405  0.6814 -0.3021 -0.9604
  1794G12c C02533111   0.164  10.985   9.524  0.5157  0.8880 -0.3094
  1794G12c C02633112   0.063  10.922   9.642 -0.8332 -1.1042 -0.7072
  1794G12c H00Y33113   0.096  10.819   9.632 -5.2283 -2.9725  2.4138
  1794G12c H00X33114  -0.024  10.897   9.581  1.4716  2.6561 -6.0550
  1794G12c O00C33115   0.064  10.952   9.785  0.6675  1.2076  0.4740
  1794G12c H00W33116   0.141  10.923   9.832 -1.0551  2.2559  4.1361
  1794G12c C02733117   0.296  11.010   9.530  0.5856 -0.9412  1.1911
  1794G12c O00D33118   0.348  11.096   9.431  1.0467 -0.2503 -0.3530
  1794G12c H00Z33119   0.269  11.092   9.381  0.9145  0.3980 -0.2083
  1794G12c C02833120   0.384  10.942   9.629 -1.0967 -1.1679  0.3806
  1794G12c C02933121   0.373  10.795   9.653  1.1949  0.7569 -0.4619
  1794G12c H01033122   0.293  10.729   9.625 -2.4581  3.6997  2.5791
  1794G12c C02T33123   0.475  10.740   9.711 -1.6659  0.3264 -1.2367
  1794G12c H01O33124   0.464  10.634   9.728  2.2165 -0.7948 -4.8085
  1794G12c C02S33125   0.586  10.798   9.747 -0.9038 -0.9304  0.6048
  1794G12c O00J33126   0.677  10.718   9.822 -0.4225  0.2428  0.9859
  1794G12c H01P33127   0.729  10.779   9.873 -3.4820  0.1100  4.4328
  1794G12c C02R33128   0.611  10.938   9.735 -0.6450  1.0515 -0.6669
  1794G12c O00I33129   0.728  11.009   9.790  1.4277 -0.4504  2.0222
  1794G12c C02Q33130   0.833  10.931   9.740 -0.2132  0.0175  0.1926
  1794G12c H01N33131   0.909  11.005   9.764 -1.1951  0.9332  0.4989
  1794G12c H01R33132   0.835  10.917   9.632  5.3139  3.3374 -0.2769
  1794G12c H01Q33133   0.891  10.867   9.806 -2.0087 -4.7368 -2.5897
  1794G12c C02A33134   0.507  10.996   9.691  0.7817  2.8820 -0.0555
  1794G12c H01133135   0.496  11.103   9.677  0.5294  3.0193  1.1438
  1794G12c C00C33136   0.079  11.263   9.469  0.4578  1.0436  0.5305
  1794G12c H01233137   0.151  11.277   9.548  5.2657 -5.2219 -2.3079
  1794G12c C00B33138   0.038  11.383   9.409  0.4243  0.6516 -0.7856
  1794G12c C00A33139   0.095  11.507   9.411 -0.8188  0.4955 -1.5056
  1794G12c C00933140   0.204  11.540   9.501 -1.2003  1.1495 -0.4683
  1794G12c C00833141   0.279  11.464   9.598 -1.1358 -1.0135  1.3008
  1794G12c H01333142   0.303  11.362   9.570  0.9714 -1.1576  3.4972
  1794G12c C00733143   0.348  11.537   9.699  0.6533 -1.5144 -1.8782
  1794G12c H01433144   0.417  11.498   9.773 -1.8016 -0.8128  0.9099
  1794G12c C00633145   0.320  11.678   9.721  0.1034 -0.9144  1.0856
  1794G12c C00533146   0.238  11.735   9.628 -0.1556 -0.3672  0.1354
  1794G12c C00433147   0.186  11.857   9.664  0.9259  0.6435 -0.6653
  1794G12c C00333148   0.095  11.917   9.566  0.7581  0.0077 -0.5575
  1794G12c C00233149   0.057  12.052   9.572  1.5007  0.0481  1.3344
  1794G12c C00133150  -0.033  12.124   9.498  0.4244  0.4664  0.5114
  1794G12c C00M33151  -0.164  12.067   9.450 -1.6003  0.8023 -0.2399
  1794G12c C00L33152  -0.190  11.935   9.456 -2.2522  1.5134 -1.8444
  1794G12c C00R33153  -0.320  11.875   9.390 -0.1284 -0.9218 -1.6846
  1794G12c C00Q33154  -0.457  11.904   9.389  1.0947  0.6241 -1.1816
  1794G12c C00V33155  -0.541  11.794   9.342 -2.0881 -0.0661 -1.3911
  1794G12c C00U33156  -0.486  11.663   9.329  1.2639  0.2470 -0.9769
  1794G12c C00T33157  -0.347  11.640   9.342  0.4707  1.7640  1.4216
  1794G12c C01633158  -0.276  11.517   9.313  0.0030  0.3855 -0.1142
  1794G12c C01533159  -0.359  11.415   9.297  0.8625  0.7233  1.7233
  1794G12c C01033160  -0.502  11.427   9.285 -1.6107  0.1280  1.7461
  1794G12c C01133161  -0.579  11.314   9.261 -0.9844  0.3329  0.2160
  1794G12c H00533162  -0.684  11.332   9.245 -1.9404 -4.0787  0.7037
  1794G12c C01233163  -0.537  11.178   9.270 -0.5548 -0.2864 -1.4449
  1794G12c C01733164  -0.607  11.062   9.266 -2.4376  0.0144  1.0646
  1794G12c O00233165  -0.556  10.975   9.180  0.7077 -0.2729 -0.7663
  1794G12c H00433166  -0.595  10.891   9.162  0.8750 -1.3136  3.3000
  1794G12c C01833167  -0.686  11.000   9.362  0.8189 -2.1919  1.4854
  1794G12c O00133168  -0.710  10.865   9.354  0.1873  0.3229  2.2460
  1794G12c H00333169  -0.738  10.858   9.444 -3.0478  1.0555  1.3754
  1794G12c C01933170  -0.683  11.044   9.501  1.7481 -1.4897  0.4884
  1794G12c H00233171  -0.585  11.033   9.547  1.5690 -0.8990  1.0199
  1794G12c H00133172  -0.715  11.148   9.513  1.4639 -1.9941  4.5974
  1794G12c O00033173  -0.801  10.996   9.578 -0.0485 -0.1357  0.3459
  1794G12c C01A33174  -0.804  11.006   9.714 -0.0389 -2.1139 -0.7826
  1794G12c C02K33175  -0.855  11.096   9.811  0.2014 -0.9292  1.3371
  1794G12c O00G33176  -0.946  11.193   9.777  0.3133 -2.7030 -0.4638
  1794G12c C02M33177  -1.020  11.222   9.893 -0.9133  0.4965  0.8020
  1794G12c H01G33178  -0.995  11.298   9.967  1.7615  2.1735 -1.6856
  1794G12c H01F33179  -1.070  11.137   9.938 -0.9668  0.5088  0.7635
  1794G12c H01E33180  -1.107  11.248   9.833 -1.6282 -3.3677  0.0592
  1794G12c C02J33181  -0.797  11.094   9.934  0.1706  0.1227 -0.2803
  1794G12c H01H33182  -0.828  11.171  10.002 -1.2938  3.0606 -4.0999
  1794G12c C02I33183  -0.711  10.998   9.967  2.6114 -1.7105 -0.1753
  1794G12c C02N33184  -0.661  11.012  10.111 -0.7867 -1.8146  1.3366
  1794G12c H01M33185  -0.606  11.100  10.139 -3.4006  1.4744 -3.2730
  1794G12c C02O33186  -0.672  10.939  10.215 -2.1068 -1.1663  0.7264
  1794G12c H01L33187  -0.636  10.970  10.312  4.1550  1.3931 -2.1275
  1794G12c C02P33188  -0.705  10.796  10.225  0.0790 -0.2668  0.9834
  1794G12c H01K33189  -0.701  10.731  10.138  5.2905  0.0234  0.8611
  1794G12c H01J33190  -0.641  10.750  10.299 -3.5304  0.6413  4.8861
  1794G12c O00H33191  -0.843  10.763  10.285  0.4949 -0.9036  0.6301
  1794G12c H01I33192  -0.868  10.754  10.194  3.6156  5.5395 -1.1733
  1794G12c C02H33193  -0.644  10.917   9.875  0.0492 -1.1344 -1.0097
  1794G12c H01C33194  -0.573  10.842   9.905 -2.1755 -1.9681  2.5080
  1794G12c C02L33195  -0.697  10.926   9.750  0.6165 -0.4688  0.7116
  1794G12c H01D33196  -0.644  10.871   9.674 -0.7768  4.1901 -3.9805
  1794G12c C01333197  -0.399  11.168   9.315 -2.3176 -1.6505 -1.3977
  1794G12c H00033198  -0.361  11.067   9.307  1.0899 -1.0665  4.6560
  1794G12c C01433199  -0.305  11.287   9.312  0.7015 -0.2695  0.8704
  1794G12c C00F33200  -0.163  11.268   9.345  0.5066  1.4204  0.6772
  1794G12c C00H33201  -0.139  11.507   9.325  0.4329  0.4981  0.9424
  1794G12c C00I33202  -0.076  11.629   9.319  0.1220  0.1919 -1.6293
  1794G12c C00J33203  -0.147  11.753   9.339 -0.3377 -0.9486  0.4676
  1794G12c C00Z33204  -0.564  11.559   9.285  0.4183  1.3675 -0.3727
  1794G12c C00Y33205  -0.705  11.573   9.272  2.3956  0.2183 -0.3468
  1794G12c H00633206  -0.784  11.510   9.236 -0.4780  4.3739 -1.6203
  1794G12c C00X33207  -0.750  11.697   9.331 -1.9476 -1.0919 -0.4462
  1794G12c O00333208  -0.872  11.685   9.388  0.1576 -1.8640 -1.2306
  1794G12c C01B33209  -0.877  11.647   9.529 -0.2778 -0.9504  2.4141
  1794G12c H00933210  -0.955  11.708   9.574  2.2968  4.2969  0.2084
  1794G12c H00833211  -0.884  11.538   9.520  5.2570 -2.0503  7.7579
  1794G12c H00733212  -0.788  11.678   9.584 -2.0701  2.3294  3.5608
  1794G12c C00W33213  -0.673  11.803   9.351 -1.0716 -1.0493  0.4391
  1794G12c O00433214  -0.719  11.932   9.392  0.4121 -0.2776  1.5125
  1794G12c C01C33215  -0.646  12.039   9.453 -0.7059 -0.4197 -2.4903
  1794G12c H00A33216  -0.693  12.114   9.515  8.2030  2.6471  1.3908
  1794G12c C00P33217  -0.498  12.031   9.452 -0.8173  0.6171 -0.6026
  1794G12c C00O33218  -0.421  12.137   9.510 -2.8431  0.1593 -0.6265
  1794G12c C01D33219  -0.482  12.230   9.595  1.9950 -1.0509  1.0577
  1794G12c H00S33220  -0.583  12.269   9.599  2.8508  1.1089  1.9723
  1794G12c C01E33221  -0.398  12.296   9.693 -0.2476 -0.7270 -1.0922
  1794G12c O00833222  -0.444  12.364   9.790 -1.4172  0.8028 -0.5424
  1794G12c C01V33223  -0.494  12.310   9.908 -0.1580  1.7762 -0.0466
  1794G12c C01Z33224  -0.411  12.230  10.022 -0.1109 -0.9278 -0.1492
  1794G12c H00R33225  -0.451  12.140  10.067 -1.1999 -0.3706  0.0371
  1794G12c H00Q33226  -0.322  12.204   9.965 -1.5201  2.2295 -4.0214
  1794G12c O00933227  -0.349  12.340  10.071 -0.3231  0.0519  0.2272
  1794G12c H00P33228  -0.425  12.395  10.083  1.0561  1.3639  3.5541
  1794G12c C01W33229  -0.620  12.327   9.897  0.2395 -0.4931  0.3545
  1794G12c H00O33230  -0.679  12.367   9.815  4.9380  3.5033 -1.2892
  1794G12c C01X33231  -0.705  12.259  10.003 -0.0285  1.0069 -0.9096
  1794G12c H00N33232  -0.663  12.244  10.102 -7.3570  8.6931  3.9880
  1794G12c H00M33233  -0.792  12.325  10.006 -2.7877 -2.2175 -4.4350
  1794G12c C01Y33234  -0.775  12.106   9.988 -0.9661 -0.0011  0.6203
  1794G12c C02D33235  -0.726  12.035   9.883  0.5511  0.8442 -0.4235
  1794G12c H01933236  -0.632  12.054   9.833  2.4302 -0.6967  2.3874
  1794G12c C02C33237  -0.806  11.938   9.826 -0.3286  0.4549 -1.3252
  1794G12c H01A33238  -0.785  11.873   9.742 -2.1852  5.9767 -6.3403
  1794G12c C02B33239  -0.930  11.898   9.883 -0.0889  1.0981 -0.5236
  1794G12c O00E33240  -1.007  11.813   9.816  0.1657  0.1828  0.3843
  1794G12c H01B33241  -1.074  11.808   9.882 -0.6494 -4.2771 -0.6043
  1794G12c C02F33242  -0.988  11.970   9.987  0.3954 -1.8366  0.2545
  1794G12c O00F33243  -1.117  11.948  10.041 -1.1008  0.8067  1.2483
  1794G12c C02G33244  -1.227  11.972   9.945  1.0202  0.8861  0.6494
  1794G12c H01733245  -1.213  11.973   9.837 -2.9682  3.4757  0.0534
  1794G12c H01633246  -1.330  11.938   9.958  1.5805 -1.9262 -1.8888
  1794G12c H01533247  -1.244  12.067   9.996 -1.7713  0.8847 -0.1645
  1794G12c C02E33248  -0.909  12.078  10.027  1.2086 -0.9898 -1.7012
  1794G12c H01833249  -0.955  12.143  10.101 -2.2295 -7.3927  2.2974
  1794G12c C01F33250  -0.255  12.297   9.687  0.2227 -0.6736  1.1269
  1794G12c C01G33251  -0.171  12.334   9.793  0.5309  0.2305 -0.6747
  1794G12c H00L33252  -0.221  12.380   9.877 -1.8130 -5.8962  1.5599
  1794G12c C01H33253  -0.033  12.304   9.788 -0.9698  0.2969  0.9911
  1794G12c H00B33254   0.016  12.292   9.883  2.8649  2.9617 -0.5693
  1794G12c C01I33255   0.027  12.249   9.682 -2.3810 -0.1307  0.5607
  1794G12c C01U33256  -0.196  12.251   9.573  0.7849 -0.5867 -0.7245
  1794G12c C00S33257  -0.273  11.757   9.328 -1.4022 -0.7996  0.5243
  1794G12c C00K33258  -0.091  11.851   9.402 -1.3527 -0.4747  0.5490
  1794G12c C00N33259  -0.268  12.143   9.516 -1.0947 -0.9381 -0.0106
  1794G12c C00033260  -0.049  12.249   9.561  0.2553 -0.8762  0.3043
  1794G12c C01J33261   0.109  12.129   9.688 -0.5970  0.5137  0.5663
  1794G12c C01K33262   0.184  12.068   9.798  1.1022 -1.6489  2.1227
  1794G12c C01P33263   0.247  12.128   9.911 -0.2325 -1.5133 -0.9742
  1794G12c C01Q33264   0.251  12.275   9.933 -0.1569 -0.8947  0.9715
  1794G12c H00G33265   0.263  12.332   9.842 -1.3429 -4.1532 -1.3554
  1794G12c C01R33266   0.195  12.338  10.050  0.7764  0.7537  0.5399
  1794G12c H00F33267   0.119  12.298  10.115 -0.3867 -3.0977 -2.9278
  1794G12c C01S33268   0.188  12.483  10.059 -1.4501 -0.4142  1.7873
  1794G12c H00E33269   0.083  12.502  10.037  0.5003  4.0625 -5.3102
  1794G12c H00D33270   0.242  12.522   9.973  1.6756 -1.5957  3.1733
  1794G12c O00533271   0.258  12.529  10.181 -0.7384  0.4608 -1.4288
  1794G12c H00C33272   0.326  12.589  10.155  0.9926 -0.3054  1.0791
  1794G12c C01O33273   0.328  12.053   9.988 -0.9953  1.5080  0.0600
  1794G12c H00H33274   0.356  12.102  10.080  0.5041  3.1583 -1.2697
  1794G12c C01N33275   0.338  11.924  10.003  1.2397  0.6440 -0.5104
  1794G12c O00633276   0.388  11.878  10.117  1.0123  0.4049 -0.0192
  1794G12c C01T33277   0.337  11.753  10.178 -0.2197 -0.7161 -0.0508
  1794G12c H00K33278   0.267  11.689  10.124  0.6563 -2.4659  0.8210
  1794G12c H00J33279   0.281  11.766  10.271 -4.7863 -1.6041 -2.5106
  1794G12c H00I33280   0.410  11.694  10.233 -4.1837 -3.2024  2.8438
  1794G12c C01M33281   0.282  11.858   9.887 -0.1856 -0.7183 -0.1311
  1794G12c C02033282   0.051  11.836   9.449  0.5560 -0.0900  0.8104
  1794G12c C02133283   0.121  11.729   9.408 -0.6974  1.0098  0.3583
  1794G12c C01L33284   0.211  11.923   9.780 -0.1263 -1.1644 -1.1179
  1794G12c O00733285   0.321  11.732   9.843  1.3569 -0.1478  0.7643
  1794G12c C02233286   0.214  11.680   9.496  0.6511 -0.4015  0.3874
  1794G12c C02333287   0.055  11.620   9.350 -0.0891 -0.6383  0.2691
  1794G12c C00G33288  -0.082  11.383   9.350  0.7876 -0.0246  0.5428
  1794G12c C00E33289  -0.112  11.134   9.368  0.7412  0.0846  0.5193
  1794G12c O00A33290  -0.171  11.009   9.311 -0.6960 -0.5271 -0.1641
  1794G12c C02433291  -0.113  10.976   9.187 -0.3610  0.5067 -0.0929
  1794G12c H00V33292  -0.035  10.900   9.186 -4.0277 -3.6369  4.6244
  1794G12c H00U33293  -0.182  10.914   9.130  1.1860 -7.6446  5.9902
  1794G12c H00T33294  -0.089  11.069   9.137 -0.6640  2.3622  3.0465
  1804G12c C00D33295   1.535   9.147   4.074  0.1451  0.1875  1.5438
  1804G12c O00B33296   1.462   9.260   4.060 -1.0941 -0.1156  0.7778
  1804G12c C02533297   1.523   9.390   4.075  0.2996  1.5934  1.7789
  1804G12c C02633298   1.542   9.481   3.940 -0.0564  0.3468  1.7930
  1804G12c H00Y33299   1.547   9.421   3.850  1.0881  1.5709  1.0209
  1804G12c H00X33300   1.453   9.540   3.917  0.8950 -0.4556 -4.9760
  1804G12c O00C33301   1.665   9.563   3.911 -0.6082 -0.0312 -1.1332
  1804G12c H00W33302   1.706   9.583   3.828 -2.1675 -2.3161 -2.5339
  1804G12c C02733303   1.572   9.407   4.196 -1.3088  1.0414 -1.0817
  1804G12c O00D33304   1.556   9.320   4.314 -0.3020  0.3459  0.3743
  1804G12c H00Z33305   1.482   9.281   4.269  1.1573  0.5657 -2.3232
  1804G12c C02833306   1.668   9.512   4.229  1.3075 -1.0264 -0.6914
  1804G12c C02933307   1.800   9.520   4.160 -0.1477 -0.2632  0.5986
  1804G12c H01033308   1.845   9.423   4.176  0.7010 -0.4217 -2.4822
  1804G12c C02T33309   1.875   9.637   4.150 -0.9772 -0.2080 -1.2161
  1804G12c H01O33310   1.978   9.652   4.121 -0.8492  6.4911  1.7737
  1804G12c C02S33311   1.833   9.750   4.210  0.8454 -0.4252  0.4892
  1804G12c O00J33312   1.924   9.855   4.210  0.1894 -0.6989  0.4485
  1804G12c H01P33313   2.006   9.881   4.247  0.6332  0.1543 -1.0863
  1804G12c C02R33314   1.697   9.737   4.269  1.3020 -0.1055  0.4615
  1804G12c O00I33315   1.648   9.855   4.328  1.5555  0.5021  1.2324
  1804G12c C02Q33316   1.577   9.951   4.245 -0.3333 -0.3413 -0.2227
  1804G12c H01N33317   1.645  10.014   4.189 -1.7206  0.0642 -1.4844
  1804G12c H01R33318   1.505  10.013   4.299  1.9016  3.1031 -1.0814
  1804G12c H01Q33319   1.506   9.893   4.185 -1.9167  2.1596 -0.8541
  1804G12c C02A33320   1.632   9.626   4.292 -1.4107  0.4165 -0.0853
  1804G12c H01133321   1.547   9.611   4.357  0.3545 -5.7978  1.1283
  1804G12c C00C33322   1.670   9.147   4.069  0.5003  2.0121  0.1806
  1804G12c H01233323   1.740   9.228   4.050  2.7120 -0.5696 -3.2899
  1804G12c C00B33324   1.740   9.030   4.097  0.8455 -0.3404 -1.5596
  1804G12c C00A33325   1.880   9.003   4.081 -0.8277 -1.5587  0.2048
  1804G12c C00933326   1.975   9.098   4.013 -0.5932  0.1516  0.7481
  1804G12c C00833327   1.954   9.184   3.899 -0.2976  1.9187  0.5095
  1804G12c H01333328   1.864   9.240   3.918 -0.8198 -0.0481  4.2526
  1804G12c C00733329   2.041   9.186   3.793  1.5382  0.8042 -0.1784
  1804G12c H01433330   2.042   9.275   3.732  1.4430  1.1859  0.3782
  1804G12c C00633331   2.121   9.070   3.775 -0.7721  0.8546 -1.0069
  1804G12c C00533332   2.140   8.980   3.887 -1.8925  0.7331  0.2530
  1804G12c C00433333   2.233   8.866   3.890  0.5548  0.6710 -0.5292
  1804G12c C00333334   2.225   8.770   3.994  1.3121 -0.1601 -0.1381
  1804G12c C00233335   2.300   8.656   3.987  1.3500  1.3878  0.2298
  1804G12c C00133336   2.313   8.527   4.056  1.2954  0.7173  0.5711
  1804G12c C00M33337   2.202   8.453   4.109 -0.4403  0.1918 -1.6001
  1804G12c C00L33338   2.100   8.515   4.182 -1.0481 -1.5874  0.9268
  1804G12c C00R33339   1.970   8.459   4.206  0.7390 -0.2684  0.3945
  1804G12c C00Q33340   1.891   8.345   4.161 -1.3895  0.8102  0.5395
  1804G12c C00V33341   1.754   8.350   4.160  1.0920 -0.6952 -1.1416
  1804G12c C00U33342   1.675   8.461   4.206  1.1171  0.2372 -0.9713
  1804G12c C00T33343   1.740   8.565   4.268 -0.4706 -0.6146 -1.1196
  1804G12c C01633344   1.684   8.691   4.260  1.3892 -0.2202  0.2823
  1804G12c C01533345   1.545   8.702   4.265  0.5359 -0.4874  0.2349
  1804G12c C01033346   1.474   8.584   4.244 -0.4598 -0.8192  1.0632
  1804G12c C01133347   1.328   8.585   4.289  0.7678 -0.8041  0.2532
  1804G12c H00533348   1.281   8.501   4.338 -0.9204  1.2028  2.2042
  1804G12c C01233349   1.251   8.709   4.312 -1.4068  0.5191 -2.1670
  1804G12c C01733350   1.098   8.721   4.316  0.7977 -0.5834 -0.1380
  1804G12c O00233351   1.038   8.676   4.192  0.4183 -0.4629 -0.2317
  1804G12c H00433352   0.949   8.685   4.224 -0.4640 -4.9389 -1.0309
  1804G12c C01833353   1.052   8.757   4.426 -0.5022 -1.0832 -0.6397
  1804G12c O00133354   1.139   8.813   4.531 -0.9001 -1.1767  0.2520
  1804G12c H00333355   1.223   8.843   4.500 -1.9450 -0.5944 -2.0917
  1804G12c C01933356   0.918   8.760   4.461  0.7676 -0.1432 -0.3095
  1804G12c H00233357   0.875   8.675   4.514  1.3846  0.9881  2.0946
  1804G12c H00133358   0.913   8.839   4.536 -2.1679 -3.5250  3.3145
  1804G12c O00033359   0.819   8.794   4.373 -0.2205  0.0314 -1.4301
  1804G12c C01A33360   0.685   8.793   4.419 -1.5406 -0.8228  1.5426
  1804G12c C02K33361   0.581   8.779   4.331  1.4131 -0.2359  0.6993
  1804G12c O00G33362   0.607   8.694   4.220 -0.1171  0.7101  1.3084
  1804G12c C02M33363   0.492   8.647   4.163  0.2799  0.3505  1.7506
  1804G12c H01G33364   0.430   8.733   4.137  1.8140  1.6502  2.2927
  1804G12c H01F33365   0.419   8.585   4.216  5.1098 -3.7412  4.0675
  1804G12c H01E33366   0.509   8.649   4.056 -3.0944  4.9549  1.1478
  1804G12c C02J33367   0.447   8.807   4.396 -0.0046 -0.1755  1.5897
  1804G12c H01H33368   0.364   8.787   4.330  1.8554  3.0165 -1.9266
  1804G12c C02I33369   0.427   8.825   4.538  0.7117  0.0736 -0.6523
  1804G12c C02N33370   0.313   8.819   4.601 -0.7673 -1.4361  0.2094
  1804G12c H01M33371   0.226   8.865   4.556  3.3303  6.3825 -0.6981
  1804G12c C02O33372   0.279   8.769   4.715 -1.5930  0.3992  0.7151
  1804G12c H01L33373   0.358   8.696   4.722  0.0077  2.0023 -0.1398
  1804G12c C02P33374   0.136   8.788   4.748  0.3801  0.5751  1.3353
  1804G12c H01K33375   0.073   8.877   4.739 -1.6421 -0.5574  3.7788
  1804G12c H01J33376   0.090   8.715   4.681  5.8666  3.2341 -6.0630
  1804G12c O00H33377   0.086   8.752   4.881  0.7619 -0.9109  0.4660
  1804G12c H01I33378   0.129   8.826   4.922  1.6618  0.5813 -2.9941
  1804G12c C02H33379   0.544   8.857   4.601 -0.0293 -0.5747  0.8185
  1804G12c H01C33380   0.551   8.889   4.704  1.3942  0.9385  0.2618
  1804G12c C02L33381   0.673   8.852   4.545 -0.1685 -0.2654 -0.8358
  1804G12c H01D33382   0.752   8.888   4.610 -1.8705 -0.8873  1.6693
  1804G12c C01333383   1.333   8.831   4.280  0.2741  0.6575  0.7223
  1804G12c H00033384   1.272   8.921   4.285 -0.7701  0.1592 -1.8489
  1804G12c C01433385   1.476   8.821   4.245  0.6732  0.4472  0.8710
  1804G12c C00F33386   1.533   8.933   4.182  0.0931  0.6481 -3.2555
  1804G12c C00H33387   1.742   8.804   4.220 -0.2723 -1.4294  1.1522
  1804G12c C00I33388   1.879   8.805   4.216  1.9396  0.9039 -0.2853
  1804G12c C00J33389   1.948   8.683   4.236  0.3846 -2.4201  0.2997
  1804G12c C00Z33390   1.538   8.469   4.192 -2.0920  0.8661 -0.8038
  1804G12c C00Y33391   1.462   8.361   4.120 -0.6574 -0.2630  0.6430
  1804G12c H00633392   1.360   8.393   4.104 -0.6521  0.4089  1.8372
  1804G12c C00X33393   1.537   8.245   4.108  0.7978  0.3191 -0.0158
  1804G12c O00333394   1.473   8.132   4.066  0.6244  1.1642  1.3470
  1804G12c C01B33395   1.447   8.036   4.160 -0.0155  2.2357  1.5253
  1804G12c H00933396   1.354   7.980   4.153  2.1028 -1.2855 -0.0270
  1804G12c H00833397   1.464   8.073   4.261 -2.2837  6.5323  0.4367
  1804G12c H00733398   1.530   7.965   4.157 -4.1216 -2.8189 -1.3401
  1804G12c C00W33399   1.679   8.231   4.128 -0.1743 -0.1254  0.7127
  1804G12c O00433400   1.750   8.109   4.084 -0.2696 -1.2204  0.0364
  1804G12c C01C33401   1.880   8.106   4.100  0.0746 -1.2149  1.2399
  1804G12c H00A33402   1.924   8.070   4.191 -0.2329  8.1412  5.6631
  1804G12c C00P33403   1.952   8.235   4.094  0.4900  0.2332  0.7945
  1804G12c C00O33404   2.075   8.232   4.023 -1.7389  0.9121 -0.7912
  1804G12c C01D33405   2.100   8.110   3.943 -1.2400  0.1783  1.5305
  1804G12c H00S33406   2.053   8.018   3.911  1.3745 -0.4598 -0.6920
  1804G12c C01E33407   2.218   8.104   3.858  1.0723  0.0819  1.0528
  1804G12c O00833408   2.253   8.010   3.776  0.4927 -0.6631 -1.4622
  1804G12c C01V33409   2.153   7.974   3.685 -1.6805  1.6256  0.4087
  1804G12c C01Z33410   2.159   8.037   3.558  1.4807 -0.0278 -1.5063
  1804G12c H00R33411   2.057   8.055   3.523 -1.3958 -2.1744  5.0577
  1804G12c H00Q33412   2.229   7.987   3.491  0.4250 -3.7963  0.1167
  1804G12c O00933413   2.197   8.173   3.565 -0.2047 -0.1435  0.1076
  1804G12c H00P33414   2.128   8.214   3.616  1.5961  2.7403  0.3575
  1804G12c C01W33415   2.066   7.865   3.711  1.0678 -0.4179  0.2120
  1804G12c H00O33416   2.073   7.825   3.811 -3.1265  6.4150  3.6244
  1804G12c C01X33417   1.953   7.804   3.631  1.3960 -0.5924 -0.9664
  1804G12c H00N33418   1.882   7.763   3.703  1.6494 -3.7367 -2.4124
  1804G12c H00M33419   1.890   7.879   3.584 -1.4294  2.5677  7.1126
  1804G12c C01Y33420   1.980   7.670   3.554  0.6784 -0.7426 -0.0527
  1804G12c C02D33421   2.080   7.673   3.455  0.7174  0.0192 -0.2511
  1804G12c H01933422   2.127   7.764   3.420 -1.9545  0.1208 -3.7663
  1804G12c C02C33423   2.089   7.547   3.373 -1.9025  0.1959  0.3484
  1804G12c H01A33424   2.134   7.541   3.275 -0.6397  1.0062  0.8719
  1804G12c C02B33425   2.039   7.420   3.425  1.1393  0.0467 -0.3776
  1804G12c O00E33426   2.052   7.294   3.363 -0.2483  0.4632  0.7787
  1804G12c H01B33427   1.992   7.226   3.389 -3.6649  0.6312 -5.7559
  1804G12c C02F33428   1.979   7.419   3.545  1.2751  0.9461 -0.4452
  1804G12c O00F33429   1.944   7.294   3.595  1.8766  0.3256 -0.1384
  1804G12c C02G33430   1.928   7.270   3.728 -0.2557 -0.0401  0.2484
  1804G12c H01733431   1.855   7.191   3.713 -6.7909  4.0931  6.4536
  1804G12c H01633432   1.875   7.351   3.779 -3.6114  0.1685 -3.3344
  1804G12c H01533433   2.017   7.231   3.777  3.1123  3.3084 -2.8966
  1804G12c C02E33434   1.942   7.551   3.610  2.3231  1.4346 -0.9279
  1804G12c H01833435   1.893   7.560   3.707 -1.6954  0.0290 -2.7179
  1804G12c C01F33436   2.307   8.224   3.854 -0.1138 -1.5272 -0.0622
  1804G12c C01G33437   2.389   8.268   3.760  0.7796  1.7774  1.0528
  1804G12c H00L33438   2.431   8.192   3.695 -4.5608  3.0593 -4.3157
  1804G12c C01H33439   2.416   8.400   3.741 -0.4620 -2.1640 -0.4712
  1804G12c H00B33440   2.444   8.405   3.637 -1.7556 -2.8371 -0.8498
  1804G12c C01I33441   2.413   8.501   3.848  0.0313  1.3293  0.1030
  1804G12c C01U33442   2.292   8.321   3.953  0.1862 -0.4723 -0.2693
  1804G12c C00S33443   1.880   8.571   4.253 -0.5005 -1.0468 -0.1133
  1804G12c C00K33444   2.064   8.661   4.171 -2.4243  0.5634 -1.4756
  1804G12c C00N33445   2.173   8.334   4.039  0.7833 -0.3049  1.0132
  1804G12c C00033446   2.386   8.437   3.971 -0.9201  0.4368 -1.7849
  1804G12c C01J33447   2.375   8.645   3.860 -1.0866  0.5691 -0.6074
  1804G12c C01K33448   2.379   8.738   3.744 -1.6236  1.2381 -2.1267
  1804G12c C01P33449   2.444   8.737   3.614 -0.4307  0.5957 -0.0572
  1804G12c C01Q33450   2.510   8.632   3.557 -0.2415  2.7728  0.4183
  1804G12c H00G33451   2.597   8.590   3.606  0.5026  5.8309  1.8104
  1804G12c C01R33452   2.485   8.581   3.436 -1.9282  0.1435  0.3141
  1804G12c H00F33453   2.419   8.609   3.356 -4.2028 -7.0307 -0.6363
  1804G12c C01S33454   2.547   8.453   3.364 -0.3536 -0.5030 -0.2904
  1804G12c H00E33455   2.635   8.405   3.408 -3.9385 -6.3716  0.9587
  1804G12c H00D33456   2.564   8.446   3.257 -3.4755  1.1959 -0.9608
  1804G12c O00533457   2.436   8.361   3.388  1.0463  1.2149  1.6455
  1804G12c H00C33458   2.392   8.382   3.470 -0.9322 -4.4225  2.2118
  1804G12c C01O33459   2.473   8.862   3.548  1.4421 -0.3137  0.2390
  1804G12c H00H33460   2.543   8.846   3.467  0.8184 -1.5231 -0.0714
  1804G12c C01N33461   2.400   8.971   3.577 -0.4934  0.4650  1.8743
  1804G12c O00633462   2.406   9.090   3.502 -1.2201  0.5819 -0.7682
  1804G12c C01T33463   2.458   9.218   3.542  0.2310 -0.2346 -1.0797
  1804G12c H00K33464   2.390   9.273   3.607  2.1221  2.9247 -1.6294
  1804G12c H00J33465   2.551   9.230   3.599  0.6422 -5.0621 -0.5252
  1804G12c H00I33466   2.497   9.254   3.446  2.9838  4.0174  1.4311
  1804G12c C01M33467   2.306   8.966   3.688 -0.8009 -0.7737  1.7857
  1804G12c C02033468   2.117   8.771   4.088 -0.1421  1.4469 -1.5009
  1804G12c C02133469   2.073   8.903   4.115 -0.1729  0.5893  0.8160
  1804G12c C01L33470   2.313   8.856   3.770  0.7445  0.8871  0.9674
  1804G12c O00733471   2.198   9.045   3.675 -1.0441 -0.3715  1.8218
  1804G12c C02233472   2.086   8.998   4.012 -1.3261  1.1468  0.4623
  1804G12c C02333473   1.950   8.919   4.159 -0.6815 -0.6538 -0.0921
  1804G12c C00G33474   1.675   8.927   4.164  1.1426 -2.1342  0.2949
  1804G12c C00E33475   1.466   9.055   4.150 -0.0477  1.0847  1.0362
  1804G12c O00A33476   1.328   9.093   4.150  1.6862 -0.0476 -0.3631
  1804G12c C02433477   1.257   9.025   4.038 -0.7630 -0.6039 -0.1266
  1804G12c H00V33478   1.266   9.080   3.944  0.4886 -3.8779 -1.9937
  1804G12c H00U33479   1.318   8.952   3.986  4.0890  1.6503  2.1200
  1804G12c H00T33480   1.149   9.029   4.051 -0.9952  6.3710 -2.2566
  1814G12c C00D33481  13.213   0.877   4.194  0.6988  0.2530 -0.7606
  1814G12c O00B33482  13.323   0.844   4.267 -2.0026 -1.3158 -0.4734
  1814G12c C02533483  13.304   0.767   4.373 -0.3627 -0.3932 -0.4003
  1814G12c C02633484  13.353   0.816   4.508 -1.2997  0.0552 -0.1553
  1814G12c H00Y33485  13.458   0.789   4.522 -1.9031  0.4786  6.8115
  1814G12c H00X33486  13.322   0.774   4.603  5.1555 -4.1535  0.4088
  1814G12c O00C33487  13.394   0.954   4.512  0.9402  0.3053 -0.6406
  1814G12c H00W33488  13.409   0.993   4.427  3.8502 -1.4854 -1.0034
  1814G12c C02733489  13.236   0.648   4.352  0.1190 -0.9089 -0.7421
  1814G12c O00D33490  13.228   0.595   4.226 -0.9240  2.6104 -0.1929
  1814G12c H00Z33491  13.248   0.511   4.262 -2.7898  2.2797  0.1493
  1814G12c C02833492  13.228   0.566   4.463 -1.8782 -1.0820 -1.3367
  1814G12c C02933493  13.111   0.564   4.540 -0.7854 -0.3635  0.2153
  1814G12c H01033494  13.037   0.624   4.489  1.2671  1.7104 -0.4867
  1814G12c C02T33495  13.139   0.489   4.668  1.8101  0.6191  0.6460
  1814G12c H01O33496  13.068   0.508   4.746  1.6444 -2.3457  1.2377
  1814G12c C02S33497  13.263   0.448   4.715 -1.2067 -1.1532 -0.1784
  1814G12c O00J33498  13.303   0.426   4.853 -0.9445 -0.9570  0.2366
  1814G12c H01P33499  13.394   0.404   4.862 -0.5897  1.5594  3.2442
  1814G12c C02R33500  13.354   0.421   4.620 -0.8761 -0.1862  0.0598
  1814G12c O00I33501  13.466   0.350   4.673 -0.9093 -0.7112 -0.1061
  1814G12c C02Q33502  13.527   0.246   4.590 -1.7607  0.4367  0.4148
  1814G12c H01N33503  13.469   0.162   4.550 -0.0554 -0.0018 -1.1956
  1814G12c H01R33504  13.626   0.230   4.632 -1.7243 -5.4375 -1.3672
  1814G12c H01Q33505  13.557   0.321   4.516 -3.1512  1.5560  0.9540
  1814G12c C02A33506  13.339   0.480   4.493 -1.8060 -0.1192  2.0457
  1814G12c H01133507  13.436   0.486   4.445 -1.4522  3.6015  3.0680
  1814G12c C00C33508  13.102   0.933   4.260  0.1384 -0.0886  0.1174
  1814G12c H01233509  13.118   0.975   4.358  0.5496  0.0947 -0.0237
  1814G12c C00B33510  12.988   0.974   4.190  0.6957 -0.3709  0.1206
  1814G12c C00A33511  12.864   1.032   4.246  0.2720 -0.7703  0.5806
  1814G12c C00933512  12.824   1.027   4.383 -0.8608  0.7155 -0.7693
  1814G12c C00833513  12.873   0.964   4.495  1.1929  0.3279  1.2173
  1814G12c H01333514  12.978   0.949   4.476  2.0731  5.9057  1.0187
  1814G12c C00733515  12.785   0.942   4.609  1.1156 -0.5812 -0.1712
  1814G12c H01433516  12.833   0.910   4.700 -1.0010  6.8372  3.9573
  1814G12c C00633517  12.640   0.968   4.596  0.3449  0.3780  0.0228
  1814G12c C00533518  12.598   1.008   4.469 -1.0714  2.3236  1.7082
  1814G12c C00433519  12.467   1.018   4.427 -0.3646 -0.9276 -1.4467
  1814G12c C00333520  12.440   1.065   4.294  0.5671 -0.3650  0.3460
  1814G12c C00233521  12.300   1.063   4.252 -0.7591 -0.5478 -0.8138
  1814G12c C00133522  12.233   1.074   4.121  0.6457  0.0282 -0.1329
  1814G12c C00M33523  12.283   1.005   4.005 -0.4153 -1.9799  0.6234
  1814G12c C00L33524  12.423   0.980   3.995  0.8156 -0.5939 -1.8881
  1814G12c C00R33525  12.478   0.934   3.865 -0.4408 -0.4881 -1.3558
  1814G12c C00Q33526  12.430   0.843   3.770  2.3494 -0.7892 -0.8152
  1814G12c C00V33527  12.542   0.788   3.691  0.7560  1.6999 -0.0811
  1814G12c C00U33528  12.681   0.803   3.712  0.0437  1.0444  0.0465
  1814G12c C00T33529  12.711   0.894   3.816  0.7735 -0.7146 -0.3603
  1814G12c C01633530  12.839   0.910   3.863  0.0814 -0.1445 -0.5671
  1814G12c C01533531  12.939   0.838   3.805  0.9527 -1.2973 -0.4049
  1814G12c C01033532  12.913   0.770   3.689  0.1521  0.2277 -1.6010
  1814G12c C01133533  13.005   0.685   3.618 -0.6056 -0.8440  0.1047
  1814G12c H00533534  12.977   0.640   3.524 -0.5238 -0.6747 -0.0010
  1814G12c C01233535  13.129   0.643   3.690  0.8775  0.0839  1.6782
  1814G12c C01733536  13.202   0.535   3.639  0.7216 -0.0356 -2.1763
  1814G12c O00233537  13.133   0.443   3.575  0.3540 -0.9133 -0.2302
  1814G12c H00433538  13.195   0.372   3.582  0.9647 -0.5390 -1.5751
  1814G12c C01833539  13.322   0.523   3.673  0.2173  0.0859 -0.5506
  1814G12c O00133540  13.399   0.622   3.723 -0.1326 -1.1590 -0.9740
  1814G12c H00333541  13.366   0.711   3.720  0.8386 -0.8318 -3.0579
  1814G12c C01933542  13.405   0.396   3.657 -2.3969 -1.6000  1.7922
  1814G12c H00233543  13.513   0.400   3.665 -2.2269 -4.0571  1.2828
  1814G12c H00133544  13.369   0.359   3.753 -0.3420 -4.0169  1.6936
  1814G12c O00033545  13.352   0.300   3.560  0.3160  0.0571  1.3826
  1814G12c C01A33546  13.412   0.264   3.442  1.1631  0.3935  0.6082
  1814G12c C02K33547  13.532   0.298   3.375  0.8583  1.1196  1.7596
  1814G12c O00G33548  13.601   0.411   3.394  1.6048  0.6835  0.1314
  1814G12c C02M33549  13.532   0.524   3.352  0.4508  1.1815  0.0280
  1814G12c H01G33550  13.440   0.533   3.411 -2.0994 -2.1125 -3.2120
  1814G12c H01F33551  13.592   0.613   3.368 -3.3434  5.1733 -5.8651
  1814G12c H01E33552  13.475   0.542   3.261 -2.9768 -3.1102  1.1130
  1814G12c C02J33553  13.589   0.210   3.266  0.0243 -0.5296 -0.2267
  1814G12c H01H33554  13.682   0.249   3.227 -1.7689 -0.8250 -5.1289
  1814G12c C02I33555  13.523   0.104   3.201 -0.1309 -1.1430  0.7357
  1814G12c C02N33556  13.557   0.053   3.078  1.0142  1.2860  1.1247
  1814G12c H01M33557  13.522  -0.049   3.085 -1.3649  1.5263 -4.5113
  1814G12c C02O33558  13.635   0.117   3.005  0.9062 -0.7564  0.4235
  1814G12c H01L33559  13.625   0.223   3.027  1.5992 -1.1767  2.8442
  1814G12c C02P33560  13.682   0.042   2.869 -1.0603 -0.4700 -0.5930
  1814G12c H01K33561  13.668  -0.064   2.847  4.2842 -1.3091 -0.7567
  1814G12c H01J33562  13.630   0.076   2.779 -2.2178 -0.1156  0.2041
  1814G12c O00H33563  13.817   0.066   2.867 -0.3206 -0.7408  1.0480
  1814G12c H01I33564  13.848  -0.005   2.813 -5.6883  0.1009 -3.6050
  1814G12c C02H33565  13.399   0.078   3.268 -0.3756  0.4303  0.4140
  1814G12c H01C33566  13.375  -0.021   3.233  2.2346  0.8608 -2.8707
  1814G12c C02L33567  13.345   0.149   3.381 -1.2165  1.6378  0.1897
  1814G12c H01D33568  13.252   0.105   3.414 -0.7679  2.6292  2.8707
  1814G12c C01333569  13.144   0.710   3.809 -0.0417 -0.0876 -1.5422
  1814G12c H00033570  13.222   0.668   3.872 -2.2964  0.9364  2.0602
  1814G12c C01433571  13.064   0.825   3.867 -2.6168  0.0746  0.1877
  1814G12c C00F33572  13.092   0.894   3.991 -0.2029  0.5110 -1.2063
  1814G12c C00H33573  12.858   0.982   3.982  1.0480 -0.4770  0.0124
  1814G12c C00I33574  12.746   1.046   4.039 -0.1922 -1.6506 -0.3136
  1814G12c C00J33575  12.629   1.066   3.973 -1.2034  0.8035 -1.6193
  1814G12c C00Z33576  12.784   0.753   3.634  1.4189  1.4370  1.9762
  1814G12c C00Y33577  12.732   0.698   3.506  0.5791  0.3966  1.4266
  1814G12c H00633578  12.790   0.643   3.432 -3.9838 -7.6985  3.2397
  1814G12c C00X33579  12.588   0.675   3.488  0.4345 -0.4486 -0.3942
  1814G12c O00333580  12.535   0.650   3.363 -1.6307  0.2482  0.4372
  1814G12c C01B33581  12.610   0.708   3.253  0.5588  1.2599 -0.0381
  1814G12c H00933582  12.629   0.810   3.285  0.1416  2.7480 -4.2443
  1814G12c H00833583  12.707   0.665   3.230 -0.3360  0.6105 -2.7415
  1814G12c H00733584  12.543   0.714   3.168 -3.7946 -3.4063  2.7632
  1814G12c C00W33585  12.500   0.708   3.582  0.6697 -1.1502 -0.0335
  1814G12c O00433586  12.368   0.711   3.535  0.7721 -0.2162  0.6374
  1814G12c C01C33587  12.286   0.703   3.642  0.1081 -2.3517  0.3006
  1814G12c H00A33588  12.214   0.630   3.675  1.5706 -3.1386  1.8741
  1814G12c C00P33589  12.304   0.780   3.762 -0.5147  0.2582  0.4935
  1814G12c C00O33590  12.206   0.789   3.866 -1.1338  0.3044 -0.0480
  1814G12c C01D33591  12.094   0.704   3.867 -1.2189 -1.1109  0.7032
  1814G12c H00S33592  12.065   0.655   3.776 -4.4667  1.4054  0.2840
  1814G12c C01E33593  12.039   0.682   3.990  0.8782  2.4883  0.9029
  1814G12c O00833594  11.963   0.568   3.995  0.5428  0.0078  0.6658
  1814G12c C01V33595  12.038   0.452   3.978  0.3706 -0.2716 -0.8388
  1814G12c C01Z33596  12.190   0.452   4.010  1.0261  0.8339 -0.2922
  1814G12c H00R33597  12.218   0.463   4.115 -0.0074  1.1316 -0.0344
  1814G12c H00Q33598  12.208   0.345   4.001 -8.1353 -1.0357 -2.3724
  1814G12c O00933599  12.281   0.523   3.924  0.6488 -0.5865  1.0586
  1814G12c H00P33600  12.270   0.613   3.951  2.6809 -0.3770  1.2388
  1814G12c C01W33601  11.981   0.356   3.910 -0.2019 -0.2693 -0.0527
  1814G12c H00O33602  12.026   0.258   3.908  6.0933  2.3851 -4.4016
  1814G12c C01X33603  11.852   0.386   3.827  0.9648 -1.4064 -0.7517
  1814G12c H00N33604  11.847   0.441   3.733 -6.8709 -7.8026 -4.7169
  1814G12c H00M33605  11.849   0.290   3.777  2.8632  0.1089 -3.8949
  1814G12c C01Y33606  11.720   0.385   3.899 -0.5869  0.8452 -2.0895
  1814G12c C02D33607  11.727   0.346   4.040 -0.7929  0.2312  0.0652
  1814G12c H01933608  11.816   0.362   4.099 -4.1657  4.7778  4.3479
  1814G12c C02C33609  11.607   0.336   4.103  1.6962  0.5701  0.4469
  1814G12c H01A33610  11.609   0.330   4.211  4.5591 -1.4389  0.3402
  1814G12c C02B33611  11.488   0.337   4.033  1.5855  0.5304 -1.2998
  1814G12c O00E33612  11.367   0.329   4.083 -0.2100  2.1206 -0.0912
  1814G12c H01B33613  11.338   0.241   4.104  8.0374 -0.3570  2.7026
  1814G12c C02F33614  11.482   0.372   3.900  0.6182 -0.2081 -1.0494
  1814G12c O00F33615  11.365   0.383   3.837  0.2153  0.2227 -1.3900
  1814G12c C02G33616  11.330   0.504   3.781  1.6686  2.7802  0.0461
  1814G12c H01733617  11.394   0.569   3.840 -2.7448  1.2007  7.1228
  1814G12c H01633618  11.244   0.552   3.827 -0.4148 -1.2964  0.6831
  1814G12c H01533619  11.347   0.516   3.674 -0.9878  2.5160 -0.4475
  1814G12c C02E33620  11.594   0.397   3.827 -0.4761  0.4732  1.8930
  1814G12c H01833621  11.559   0.449   3.739 -0.3971  0.9983  2.1719
  1814G12c C01F33622  12.044   0.777   4.088 -0.0608 -0.3884  1.1102
  1814G12c C01G33623  12.011   0.746   4.232 -0.8213  0.1528 -0.7919
  1814G12c H00L33624  11.954   0.654   4.233 -6.6404  3.5547  2.0985
  1814G12c C01H33625  12.059   0.842   4.328 -1.6307  0.1945 -0.6220
  1814G12c H00B33626  12.046   0.822   4.434 -3.8348 -2.0748 -1.2917
  1814G12c C01I33627  12.110   0.963   4.282  0.7149 -0.6196 -0.0567
  1814G12c C01U33628  12.094   0.900   4.059  0.8478 -0.3777 -0.2481
  1814G12c C00S33629  12.612   0.972   3.870 -0.5049  0.0879  1.6587
  1814G12c C00K33630  12.514   1.064   4.058 -1.0827  2.9195  0.2849
  1814G12c C00N33631  12.197   0.903   3.961 -0.4054  0.5008 -0.1516
  1814G12c C00033632  12.113   1.005   4.148 -0.2218  0.3082  1.1908
  1814G12c C01J33633  12.210   1.025   4.350 -0.7641  0.6964 -1.3718
  1814G12c C01K33634  12.239   1.025   4.497 -0.1938 -1.0391 -0.4384
  1814G12c C01P33635  12.158   1.019   4.612  1.1750 -0.1232 -1.5011
  1814G12c C01Q33636  12.029   1.068   4.583 -1.0438  1.3854  2.6069
  1814G12c H00G33637  11.971   1.021   4.505  2.7601  1.7741 -0.6316
  1814G12c C01R33638  11.947   1.127   4.678 -0.8431  0.8612 -0.1126
  1814G12c H00F33639  11.999   1.147   4.771 -1.9827 -5.1024  2.0091
  1814G12c C01S33640  11.792   1.160   4.641 -0.4764 -1.4405  0.8234
  1814G12c H00E33641  11.766   1.179   4.745  2.9243 -2.6542  1.9557
  1814G12c H00D33642  11.793   1.254   4.585 -5.3338 -1.7105  0.0788
  1814G12c O00533643  11.706   1.077   4.575  1.1730  0.6697  0.1424
  1814G12c H00C33644  11.696   0.988   4.603 -1.7057 -0.4361 -3.8995
  1814G12c C01O33645  12.188   0.980   4.742  1.2641  1.3963 -1.2681
  1814G12c H00H33646  12.121   0.937   4.815  0.5659  2.9709 -0.9665
  1814G12c C01N33647  12.322   0.963   4.776  0.1365 -1.3991 -0.6254
  1814G12c O00633648  12.366   0.927   4.898  0.8883  0.0215  0.9941
  1814G12c C01T33649  12.297   0.986   5.011 -0.5295 -0.1984  1.2499
  1814G12c H00K33650  12.347   0.978   5.107 -0.7640 -1.2797  1.2834
  1814G12c H00J33651  12.193   0.954   5.004 -0.3102 -0.2704 -5.6178
  1814G12c H00I33652  12.287   1.093   4.992 -2.6835 -0.7398 -0.9056
  1814G12c C01M33653  12.416   0.972   4.663 -0.8410  1.3977 -0.5911
  1814G12c C02033654  12.535   1.095   4.199  1.0549 -0.7286 -0.4462
  1814G12c C02133655  12.656   1.130   4.246 -0.3154 -0.0812 -0.5498
  1814G12c C01L33656  12.377   1.001   4.532  0.0990 -1.0731  0.5034
  1814G12c O00733657  12.559   0.945   4.699  1.2042  0.4058  0.7065
  1814G12c C02233658  12.685   1.064   4.366 -1.5099 -1.0489 -1.4492
  1814G12c C02333659  12.775   1.099   4.159  0.9898  0.8748 -0.0604
  1814G12c C00G33660  12.982   0.968   4.048  0.0658  1.3462 -0.1051
  1814G12c C00E33661  13.226   0.881   4.056  3.2486  1.0572  1.7480
  1814G12c O00A33662  13.335   0.871   3.997  1.6543 -0.1067 -0.0485
  1814G12c C02433663  13.455   0.950   4.026 -0.2541  1.2318  0.1035
  1814G12c H00V33664  13.443   1.050   4.068 -2.0598 -0.5203  4.0609
  1814G12c H00U33665  13.529   0.884   4.071 -3.2970 -2.1693  0.4090
  1814G12c H00T33666  13.501   0.988   3.935  4.5687 -1.0541  1.4274
  1824G12c C00D33667   0.932   7.398   4.272  0.2235  0.2716  1.1426
  1824G12c O00B33668   1.016   7.323   4.338 -0.6614 -1.4195  0.7944
  1824G12c C02533669   1.105   7.359   4.440 -0.4367  0.0156 -1.3804
  1824G12c C02633670   1.191   7.461   4.397  0.9743 -0.9132 -1.4176
  1824G12c H00Y33671   1.270   7.480   4.471 -1.1625 -2.7947  1.4791
  1824G12c H00X33672   1.160   7.527   4.316 -1.5381 -1.0821 -0.6369
  1824G12c O00C33673   1.281   7.400   4.303  0.3317  1.4413 -1.2342
  1824G12c H00W33674   1.257   7.309   4.291 -0.1213  1.2364  1.0291
  1824G12c C02733675   1.074   7.304   4.560  0.3896 -0.2416 -0.3135
  1824G12c O00D33676   0.995   7.187   4.542 -0.3501 -0.5861  0.4930
  1824G12c H00Z33677   0.939   7.182   4.466  1.7977 -8.2615 -1.0474
  1824G12c C02833678   1.154   7.342   4.682 -0.6424  0.6844  0.7074
  1824G12c C02933679   1.167   7.239   4.779  0.0770  0.9140 -0.2554
  1824G12c H01033680   1.120   7.146   4.749 -3.3716  2.7331 -0.7017
  1824G12c C02T33681   1.246   7.244   4.907 -0.1411 -0.4626  0.1160
  1824G12c H01O33682   1.252   7.162   4.977 -5.2890 -2.9615 -2.0977
  1824G12c C02S33683   1.320   7.358   4.917 -0.4108 -0.2639  1.1614
  1824G12c O00J33684   1.417   7.369   5.010  0.7070 -0.7505 -1.1158
  1824G12c H01P33685   1.456   7.451   4.986 -1.9969  1.4611  1.7099
  1824G12c C02R33686   1.307   7.474   4.831  1.4754  1.4928 -0.1513
  1824G12c O00I33687   1.387   7.585   4.864 -1.5925  0.4004 -1.2411
  1824G12c C02Q33688   1.459   7.657   4.766 -0.4152  0.9085 -1.1405
  1824G12c H01N33689   1.406   7.664   4.671  0.5754  2.3123 -1.6066
  1824G12c H01R33690   1.554   7.604   4.770 -2.7901 -3.5732 -0.4089
  1824G12c H01Q33691   1.480   7.756   4.805 -0.1029 -1.0460  4.1711
  1824G12c C02A33692   1.221   7.463   4.712  0.3285 -1.5334  0.1938
  1824G12c H01133693   1.203   7.556   4.661  4.0301 -1.6933 -1.5715
  1824G12c C00C33694   0.856   7.495   4.351 -1.8276 -0.3541 -0.1413
  1824G12c H01233695   0.915   7.539   4.430  0.3360 -1.1032 -1.3031
  1824G12c C00B33696   0.755   7.575   4.283 -0.2778 -1.1668  1.4166
  1824G12c C00A33697   0.698   7.699   4.308  0.3993 -1.1317  0.4605
  1824G12c C00933698   0.652   7.754   4.433  1.4052  0.0396 -1.5021
  1824G12c C00833699   0.653   7.693   4.562 -1.9779 -0.7444 -0.1445
  1824G12c H01333700   0.729   7.619   4.578  1.8214  1.4481 -6.1429
  1824G12c C00733701   0.558   7.733   4.645 -3.0921  1.0281  1.3765
  1824G12c H01433702   0.543   7.666   4.729 -4.0306 -3.7811 -2.3605
  1824G12c C00633703   0.482   7.854   4.644  0.9479 -1.6685  0.2151
  1824G12c C00533704   0.466   7.893   4.511 -1.0007 -1.9236 -2.0737
  1824G12c C00433705   0.358   7.964   4.474 -0.4585 -0.2711  0.1258
  1824G12c C00333706   0.340   7.980   4.338  1.7869 -1.3818 -1.3621
  1824G12c C00233707   0.209   8.020   4.294  1.6500  0.0709  0.5769
  1824G12c C00133708   0.163   8.061   4.169  0.4312 -2.6644  0.4353
  1824G12c C00M33709   0.153   7.968   4.064 -1.5340  0.9408  1.1992
  1824G12c C00L33710   0.271   7.905   4.013  1.6493 -0.0797  1.0799
  1824G12c C00R33711   0.272   7.793   3.922  0.1723  1.7549  1.2834
  1824G12c C00Q33712   0.172   7.701   3.884  0.2965  1.5190 -1.0272
  1824G12c C00V33713   0.221   7.596   3.808 -0.9893  0.4254 -0.9116
  1824G12c C00U33714   0.339   7.539   3.829 -1.0315  0.9667  0.6199
  1824G12c C00T33715   0.428   7.593   3.910  0.4065 -1.3805 -0.0935
  1824G12c C01633716   0.543   7.536   3.968  1.9492 -0.0097 -0.5728
  1824G12c C01533717   0.571   7.405   3.949  1.4422 -0.9581  0.5441
  1824G12c C01033718   0.480   7.337   3.868 -0.9317  0.7006 -1.2958
  1824G12c C01133719   0.486   7.190   3.862 -1.0536  0.0081 -0.6413
  1824G12c H00533720   0.406   7.132   3.818  1.1022  0.7456 -5.8730
  1824G12c C01233721   0.583   7.125   3.918  0.3897  0.5715 -0.6447
  1824G12c C01733722   0.560   6.982   3.936 -1.7645 -0.3703  0.4238
  1824G12c O00233723   0.436   6.924   3.913  0.3215  1.1189 -1.6555
  1824G12c H00433724   0.389   6.920   3.994  2.3952  3.4855 -0.2621
  1824G12c C01833725   0.665   6.887   3.956 -2.6571 -0.0210 -0.4850
  1824G12c O00133726   0.798   6.932   3.967 -1.0846 -0.0755  0.3998
  1824G12c H00333727   0.823   6.843   3.989 -0.6366  0.4311  1.9373
  1824G12c C01933728   0.673   6.744   4.017 -2.1927 -0.9858 -0.1688
  1824G12c H00233729   0.661   6.762   4.124  0.7112  1.5831 -0.1827
  1824G12c H00133730   0.605   6.671   3.973  0.2438 -3.0554 -0.6421
  1824G12c O00033731   0.822   6.698   4.009  0.5931 -1.1476  0.6264
  1824G12c C01A33732   0.885   6.616   4.106  0.1669  2.3311  0.4555
  1824G12c C02K33733   0.946   6.675   4.221 -1.2126  0.6971  1.1245
  1824G12c O00G33734   0.914   6.806   4.231  0.1522  2.1054  0.5004
  1824G12c C02M33735   0.994   6.881   4.312  0.0866  1.4962 -1.6394
  1824G12c H01G33736   1.097   6.862   4.344  0.2843  2.8567 -1.4187
  1824G12c H01F33737   0.941   6.887   4.407  2.4534 -2.7320  0.0783
  1824G12c H01E33738   1.002   6.976   4.258 -4.8605  3.1441  0.2312
  1824G12c C02J33739   0.991   6.591   4.328 -0.9350  0.1623  0.1320
  1824G12c H01H33740   1.034   6.646   4.411  0.6434  1.5702 -1.5791
  1824G12c C02I33741   0.996   6.446   4.297 -0.5117 -0.8723  0.0550
  1824G12c C02N33742   1.039   6.362   4.397  0.1599  0.6377  0.1427
  1824G12c H01M33743   1.033   6.254   4.389 -0.2911  0.7581 -1.1924
  1824G12c C02O33744   1.074   6.411   4.517 -1.6567 -2.3072  0.3094
  1824G12c H01L33745   1.096   6.516   4.529  7.7376 -3.9372  1.3815
  1824G12c C02P33746   1.040   6.330   4.638 -0.3304  0.2133 -0.2420
  1824G12c H01K33747   0.976   6.242   4.630  1.7198 -1.0679 -4.2206
  1824G12c H01J33748   1.103   6.303   4.722  3.3387  4.8341 -1.3257
  1824G12c O00H33749   0.962   6.415   4.718  0.3713  1.3230 -0.9547
  1824G12c H01I33750   1.021   6.433   4.790  0.0147  1.0414 -0.5873
  1824G12c C02H33751   0.953   6.400   4.179  0.1666  0.5582 -0.4540
  1824G12c H01C33752   0.930   6.298   4.155 -1.8810  1.9974 -5.2368
  1824G12c C02L33753   0.888   6.483   4.086  1.3741 -0.5289  0.1137
  1824G12c H01D33754   0.845   6.448   3.992  1.7184  1.2082 -0.6981
  1824G12c C01333755   0.684   7.208   3.980  0.5093  0.4849 -0.8584
  1824G12c H00033756   0.769   7.175   4.038 -2.5420 -4.8967  0.8725
  1824G12c C01433757   0.685   7.347   3.994  0.4393 -1.2392  0.1567
  1824G12c C00F33758   0.757   7.404   4.097  0.2694  0.3727  0.8770
  1824G12c C00H33759   0.626   7.606   4.060 -1.2404 -0.7319  2.1251
  1824G12c C00I33760   0.598   7.743   4.080  0.3911 -1.6228  0.9336
  1824G12c C00J33761   0.476   7.792   4.031 -1.3545 -0.1156 -1.7148
  1824G12c C00Z33762   0.366   7.405   3.804  0.4404  0.5754  0.5500
  1824G12c C00Y33763   0.277   7.327   3.720  0.6611  0.4935 -1.0539
  1824G12c H00633764   0.283   7.219   3.714  4.7508  0.7228 -2.8125
  1824G12c C00X33765   0.152   7.382   3.680 -0.7626 -1.2662  0.4444
  1824G12c O00333766   0.055   7.310   3.606 -0.4719  0.2591 -1.2830
  1824G12c C01B33767   0.081   7.314   3.469 -0.3666  1.8078 -0.8842
  1824G12c H00933768   0.038   7.413   3.453  5.4367  4.4295 -1.4312
  1824G12c H00833769   0.016   7.242   3.420 -0.3255  1.0943  0.0808
  1824G12c H00733770   0.173   7.270   3.431  1.6874  3.7570  1.5953
  1824G12c C00W33771   0.124   7.499   3.747  0.2434 -0.1784  0.2129
  1824G12c O00433772  -0.002   7.544   3.752  0.3554  0.4511  0.7512
  1824G12c C01C33773  -0.055   7.622   3.836 -0.2419  1.2377 -1.1299
  1824G12c H00A33774  -0.130   7.573   3.897  3.3618  0.6193  3.1285
  1824G12c C00P33775   0.015   7.716   3.908  1.5110  0.0700 -1.1453
  1824G12c C00O33776  -0.058   7.808   4.001 -0.4428  1.4682  1.0136
  1824G12c C01D33777  -0.200   7.807   4.009  0.3882  0.4608  0.0059
  1824G12c H00S33778  -0.275   7.745   3.962  2.2587 -3.1905  1.6020
  1824G12c C01E33779  -0.270   7.924   4.080  1.5156 -0.8773  0.1032
  1824G12c O00833780  -0.415   7.908   4.084  0.8825  1.2592 -0.5413
  1824G12c C01V33781  -0.467   8.007   3.990 -0.7837 -0.2343 -0.1668
  1824G12c C01Z33782  -0.435   7.988   3.843  0.5552 -0.8358 -1.1069
  1824G12c H00R33783  -0.360   8.036   3.781 -2.0070 -0.6347 -4.1626
  1824G12c H00Q33784  -0.416   7.881   3.849  0.0312 -0.8174  2.2734
  1824G12c O00933785  -0.547   7.972   3.757 -1.1582  0.5289 -0.9012
  1824G12c H00P33786  -0.582   8.054   3.725 -2.7169  1.5030  3.0040
  1824G12c C01W33787  -0.549   8.098   4.026  0.9882  0.4856  0.6760
  1824G12c H00O33788  -0.570   8.102   4.132  5.2447  1.5961  1.5727
  1824G12c C01X33789  -0.643   8.165   3.930 -1.0808 -0.6595  0.0872
  1824G12c H00N33790  -0.684   8.112   3.844 -0.5669 -5.4897  2.5805
  1824G12c H00M33791  -0.742   8.155   3.975 -2.7392 -1.6672 -3.6092
  1824G12c C01Y33792  -0.614   8.321   3.948  0.4530 -1.6107  0.6426
  1824G12c C02D33793  -0.692   8.390   4.038  0.2110  0.7686  1.5013
  1824G12c H01933794  -0.779   8.348   4.087 -3.7282  4.9319 -1.4474
  1824G12c C02C33795  -0.688   8.533   4.066 -0.2492  0.3982 -0.3350
  1824G12c H01A33796  -0.736   8.574   4.154  1.2456 -4.6744  3.1138
  1824G12c C02B33797  -0.588   8.607   4.005  0.9845  0.3932  0.2357
  1824G12c O00E33798  -0.577   8.740   4.016  0.3348 -0.7051  0.4832
  1824G12c H01B33799  -0.513   8.790   3.967  2.2853  1.4204  4.9224
  1824G12c C02F33800  -0.480   8.536   3.934  0.5199 -2.0453 -2.1824
  1824G12c O00F33801  -0.409   8.595   3.830 -0.7740 -0.6152 -0.0029
  1824G12c C02G33802  -0.274   8.543   3.834 -1.0400 -0.1630  0.9247
  1824G12c H01733803  -0.235   8.554   3.935 -0.8475  5.2808  0.3788
  1824G12c H01633804  -0.186   8.573   3.777 -0.7702  1.6658  2.2711
  1824G12c H01533805  -0.259   8.438   3.858  4.4696  0.6594  1.6162
  1824G12c C02E33806  -0.491   8.391   3.922 -1.1274  0.1380  1.1873
  1824G12c H01833807  -0.420   8.319   3.883  0.6551 -0.0501  4.6525
  1824G12c C01F33808  -0.196   8.022   4.149 -0.2289  0.1279 -0.3177
  1824G12c C01G33809  -0.244   8.091   4.266 -1.2044 -1.8128  0.0101
  1824G12c H00L33810  -0.341   8.073   4.310  1.0189 -5.3154  3.8408
  1824G12c C01H33811  -0.143   8.112   4.375  0.3473  0.2548 -1.3257
  1824G12c H00B33812  -0.185   8.094   4.473  1.3822  2.5959 -0.4224
  1824G12c C01I33813  -0.008   8.101   4.325 -0.3966  0.8807 -0.4371
  1824G12c C01U33814  -0.065   8.027   4.124  0.3526  0.1929  0.4375
  1824G12c C00S33815   0.406   7.726   3.937 -0.5721  1.4662  0.0295
  1824G12c C00K33816   0.385   7.891   4.090  1.9636  0.0613  0.4094
  1824G12c C00N33817   0.012   7.919   4.054  0.5538  1.0958  1.4546
  1824G12c C00033818   0.030   8.099   4.180 -1.0594 -0.5691 -1.3985
  1824G12c C01J33819   0.122   8.075   4.388 -1.6197 -0.4010  0.1001
  1824G12c C01K33820   0.160   8.094   4.541 -0.0882  0.1277  2.0224
  1824G12c C01P33821   0.127   8.187   4.644  2.1180  0.0505 -0.2514
  1824G12c C01Q33822   0.055   8.307   4.612  0.4556  0.9734  0.6807
  1824G12c H00G33823  -0.050   8.320   4.590 -0.0655 -0.4289  2.2451
  1824G12c C01R33824   0.130   8.420   4.599  0.5698  0.7761 -0.5500
  1824G12c H00F33825   0.081   8.515   4.586 -0.2721  0.5256  0.6383
  1824G12c C01S33826   0.266   8.440   4.613 -0.3744  0.7873 -0.7450
  1824G12c H00E33827   0.320   8.368   4.550 -1.4266 -0.7705  0.1095
  1824G12c H00D33828   0.298   8.509   4.535  1.2263  1.6293  0.6094
  1824G12c O00533829   0.330   8.434   4.750 -0.2130  2.1482  0.6800
  1824G12c H00C33830   0.389   8.360   4.757 -8.8199 -5.8272 -1.2788
  1824G12c C01O33831   0.170   8.169   4.775 -0.0313  1.1773  1.2974
  1824G12c H00H33832   0.127   8.196   4.870  2.2585  2.5750  1.9887
  1824G12c C01N33833   0.287   8.088   4.808  0.3361  0.0894 -1.0633
  1824G12c O00633834   0.308   8.082   4.943 -0.9991  3.7538  0.9558
  1824G12c C01T33835   0.407   8.154   5.005 -0.0974 -0.9170  0.6399
  1824G12c H00K33836   0.485   8.170   4.931 -1.6101  5.1596  0.0735
  1824G12c H00J33837   0.447   8.078   5.072  5.3873 -1.2651 -2.7334
  1824G12c H00I33838   0.360   8.230   5.068  1.8028  1.7739 -1.0932
  1824G12c C01M33839   0.320   7.997   4.694  0.8049  1.6209 -0.2447
  1824G12c C02033840   0.430   7.921   4.233  0.8184  1.3269  0.3927
  1824G12c C02133841   0.554   7.874   4.279 -0.0890  0.9793 -1.7494
  1824G12c C01L33842   0.268   8.019   4.566 -0.1158  0.7374  2.7245
  1824G12c O00733843   0.381   7.883   4.728 -0.4763  1.4099  0.4777
  1824G12c C02233844   0.577   7.876   4.412 -0.0651  0.0363 -1.1435
  1824G12c C02333845   0.646   7.792   4.208 -1.1562 -1.1764 -0.8788
  1824G12c C00G33846   0.718   7.534   4.146  0.8259 -0.4136 -0.4530
  1824G12c C00E33847   0.879   7.356   4.150 -1.9817  0.2479  0.8699
  1824G12c O00A33848   0.951   7.267   4.066  0.4117  0.5268 -0.1866
  1824G12c C02433849   1.023   7.344   3.978 -0.2203 -0.8966  0.5712
  1824G12c H00V33850   1.114   7.372   4.032  0.9356  2.8902 -3.0477
  1824G12c H00U33851   1.023   7.440   3.925 -0.5443 -2.8208 -3.0606
  1824G12c H00T33852   1.028   7.287   3.885 -2.8141  0.7572 -0.6443
  1834G12c C00D33853   0.398   2.481   3.949  1.4188 -0.1303 -0.2797
  1834G12c O00B33854   0.319   2.583   4.022 -0.8957 -1.0442 -1.3768
  1834G12c C02533855   0.183   2.552   4.016  0.0930 -0.2349  0.3364
  1834G12c C02633856   0.103   2.579   3.884  0.1888  1.5711 -0.0646
  1834G12c H00Y33857   0.066   2.480   3.856  0.8997  1.6998 -1.4785
  1834G12c H00X33858   0.152   2.586   3.787 -3.2306  3.4985 -1.7279
  1834G12c O00C33859   0.062   2.708   3.908 -0.5683  0.0588  0.6765
  1834G12c H00W33860  -0.007   2.704   3.973  2.8099  1.3178  4.5950
  1834G12c C02733861   0.122   2.511   4.131  0.6379  1.0368  1.2682
  1834G12c O00D33862   0.189   2.545   4.241  1.0670 -1.1584 -1.1417
  1834G12c H00Z33863   0.178   2.639   4.238 -4.9159 -1.6980 -0.5924
  1834G12c C02833864  -0.013   2.480   4.153 -0.2404 -0.7824  1.4195
  1834G12c C02933865  -0.115   2.441   4.052 -0.1386 -0.0318 -0.2243
  1834G12c H01033866  -0.084   2.376   3.971 -1.1429 -5.8209  3.6988
  1834G12c C02T33867  -0.254   2.472   4.066 -1.8095 -0.3474  0.8249
  1834G12c H01O33868  -0.331   2.449   3.994  0.4593  3.2365 -3.0204
  1834G12c C02S33869  -0.297   2.531   4.184 -1.0161  1.0604  1.4250
  1834G12c O00J33870  -0.417   2.568   4.252 -1.0293 -0.0941  1.6233
  1834G12c H01P33871  -0.426   2.495   4.312 -0.3857  2.5412  5.1569
  1834G12c C02R33872  -0.208   2.524   4.297  0.6427  0.1169 -0.8353
  1834G12c O00I33873  -0.239   2.555   4.422 -0.2434 -0.4430  1.2500
  1834G12c C02Q33874  -0.197   2.431   4.488  2.2897  0.5896  0.3983
  1834G12c H01N33875  -0.221   2.346   4.424  0.9278 -1.2427  3.2480
  1834G12c H01R33876  -0.088   2.440   4.494  2.0539  1.2149  4.7926
  1834G12c H01Q33877  -0.238   2.436   4.588  1.6443 -3.5582  0.4522
  1834G12c C02A33878  -0.071   2.540   4.268  0.4354 -0.2752 -0.3741
  1834G12c H01133879  -0.006   2.595   4.336  4.9633 -7.7954  2.0332
  1834G12c C00C33880   0.353   2.342   3.963 -0.5629 -0.5728  1.1815
  1834G12c H01233881   0.255   2.329   4.006 -0.9921 -1.5675 -0.0920
  1834G12c C00B33882   0.437   2.236   3.920 -2.2398 -1.3215  0.7894
  1834G12c C00A33883   0.411   2.104   3.911  0.0726 -0.0930  0.3680
  1834G12c C00933884   0.326   2.030   4.006  1.7136  0.0970  0.1491
  1834G12c C00833885   0.221   2.047   4.105 -1.5195  0.7702 -1.6502
  1834G12c H01333886   0.202   2.152   4.120 -2.2676  0.4685 -0.3986
  1834G12c C00733887   0.192   1.932   4.209 -0.0393  0.8914  1.6561
  1834G12c H01433888   0.116   1.945   4.285 -3.0844 -1.6031 -0.8608
  1834G12c C00633889   0.266   1.814   4.202  0.3107  0.1326  1.3438
  1834G12c C00533890   0.370   1.804   4.103  1.9267 -0.0492  0.6467
  1834G12c C00433891   0.482   1.712   4.109  1.1544  0.6943  0.4488
  1834G12c C00333892   0.583   1.719   4.012 -0.0009  0.3612 -0.4889
  1834G12c C00233893   0.678   1.603   4.025  0.7932 -0.1232 -0.3047
  1834G12c C00133894   0.783   1.562   3.935  0.0957  0.1643  0.2799
  1834G12c C00M33895   0.891   1.650   3.890 -0.6026 -0.6999 -2.3483
  1834G12c C00L33896   0.847   1.777   3.843 -1.8996  0.4320 -1.1901
  1834G12c C00R33897   0.928   1.895   3.820 -1.6589  0.3930 -1.6116
  1834G12c C00Q33898   1.073   1.899   3.828 -1.0567  2.0739 -1.6926
  1834G12c C00V33899   1.119   2.029   3.803  0.0347 -0.3493 -0.2187
  1834G12c C00U33900   1.036   2.146   3.767 -1.3250 -2.3118 -1.8319
  1834G12c C00T33901   0.897   2.130   3.759 -0.2779  1.6810  0.5606
  1834G12c C01633902   0.800   2.214   3.786  0.4149 -0.6570  0.7559
  1834G12c C01533903   0.839   2.350   3.795  0.4176 -0.8512  0.4603
  1834G12c C01033904   0.977   2.379   3.785  1.1557  0.7570 -1.3217
  1834G12c C01133905   1.009   2.512   3.773 -1.2923  0.8588  0.8739
  1834G12c H00533906   1.106   2.551   3.747 -0.9912 -0.2190  0.3488
  1834G12c C01233907   0.928   2.615   3.769  1.5125  1.0565  0.7880
  1834G12c C01733908   0.964   2.748   3.721 -0.1483 -2.3940  0.5083
  1834G12c O00233909   1.095   2.796   3.772 -0.0251 -0.0208 -0.0871
  1834G12c H00433910   1.152   2.727   3.741 -1.3753  1.5985 -6.9261
  1834G12c C01833911   0.893   2.798   3.617  1.7826  0.7988 -0.0777
  1834G12c O00133912   0.770   2.766   3.550 -1.4987  0.7726 -1.0818
  1834G12c H00333913   0.717   2.843   3.542 -2.6399 -0.3090 -4.5034
  1834G12c C01933914   0.947   2.918   3.543  1.4681 -0.7434 -0.2584
  1834G12c H00233915   1.052   2.938   3.564  1.5034 -1.9693  0.7908
  1834G12c H00133916   0.920   2.906   3.438 -1.8095  3.5780 -0.0555
  1834G12c O00033917   0.849   3.020   3.574 -0.2264  1.0420  2.3097
  1834G12c C01A33918   0.869   3.148   3.515 -0.8942  0.3417 -0.3279
  1834G12c C02K33919   0.756   3.247   3.512 -0.1041 -0.7983  0.9258
  1834G12c O00G33920   0.637   3.209   3.562 -0.2092  0.6786 -0.3771
  1834G12c C02M33921   0.587   3.248   3.683 -0.1576  0.9855 -0.1899
  1834G12c H01G33922   0.614   3.170   3.755 -2.2967  0.1066 -0.3117
  1834G12c H01F33923   0.487   3.284   3.662  1.1669  5.0728  0.0629
  1834G12c H01E33924   0.633   3.329   3.738  1.6265  1.8926 -2.8835
  1834G12c C02J33925   0.768   3.371   3.454  0.9816  0.3386 -1.4120
  1834G12c H01H33926   0.700   3.455   3.443  0.6358 -0.4018 -6.0919
  1834G12c C02I33927   0.892   3.419   3.419  0.3053 -0.2209  0.7867
  1834G12c C02N33928   0.946   3.545   3.387  1.2792 -0.9792  1.3696
  1834G12c H01M33929   0.985   3.575   3.291 -2.5210 -2.0499 -0.5881
  1834G12c C02O33930   0.949   3.636   3.472  0.7975  0.4777  0.5033
  1834G12c H01L33931   0.987   3.733   3.443  0.9553  0.2502 -0.0617
  1834G12c C02P33932   0.918   3.611   3.623  1.7342 -0.1743 -0.2208
  1834G12c H01K33933   0.921   3.510   3.663 -2.6896  0.5983  2.3878
  1834G12c H01J33934   0.981   3.671   3.688 -2.8598 -3.6402  8.3148
  1834G12c O00H33935   0.778   3.654   3.621  0.4174  1.1547 -0.1759
  1834G12c H01I33936   0.734   3.638   3.539  3.8583 -0.0604 -1.8535
  1834G12c C02H33937   0.992   3.319   3.400 -0.9257 -0.5558 -1.0548
  1834G12c H01C33938   1.072   3.341   3.331  0.3244  2.6554  1.3372
  1834G12c C02L33939   0.992   3.197   3.471  1.5414  1.7512  0.5218
  1834G12c H01D33940   1.068   3.122   3.454 -3.3732 -3.4894  0.1277
  1834G12c C01333941   0.794   2.584   3.797 -0.5269  1.7097  0.1760
  1834G12c H00033942   0.741   2.678   3.801  0.2630  2.1615  0.0278
  1834G12c C01433943   0.741   2.452   3.820 -0.5276 -0.8657  0.1477
  1834G12c C00F33944   0.609   2.412   3.848  1.1283 -1.0975  0.7172
  1834G12c C00H33945   0.656   2.187   3.804  0.8596  0.4417  0.1209
  1834G12c C00I33946   0.615   2.047   3.791 -0.7623 -0.4862  0.7651
  1834G12c C00J33947   0.726   1.957   3.769 -0.8182  2.1678 -0.6890
  1834G12c C00Z33948   1.085   2.281   3.776 -0.8799 -0.8828 -0.5180
  1834G12c C00Y33949   1.220   2.307   3.790  0.1556 -2.2182 -0.2758
  1834G12c H00633950   1.266   2.404   3.802  1.4315 -3.3323  5.2438
  1834G12c C00X33951   1.310   2.199   3.799 -1.0568 -1.9339 -0.1098
  1834G12c O00333952   1.449   2.222   3.790  0.8582  0.7383  1.0934
  1834G12c C01B33953   1.494   2.306   3.904 -0.2489 -0.8243  0.0951
  1834G12c H00933954   1.437   2.394   3.933 -1.1551 -2.0004  1.9977
  1834G12c H00833955   1.519   2.251   3.995  3.1344  4.2633  2.4721
  1834G12c H00733956   1.602   2.306   3.887  0.8761 -0.9638  6.0717
  1834G12c C00W33957   1.255   2.061   3.804  1.8827  0.7181  1.0649
  1834G12c O00433958   1.335   1.951   3.787 -1.2114  0.3087  0.2663
  1834G12c C01C33959   1.309   1.849   3.862  0.0002  0.2181 -0.2237
  1834G12c H00A33960   1.392   1.788   3.894  1.0409  2.5194  1.6443
  1834G12c C00P33961   1.171   1.803   3.882  0.5512 -1.8265  0.2791
  1834G12c C00O33962   1.140   1.692   3.963  1.1383 -0.3364 -1.5285
  1834G12c C01D33963   1.241   1.604   4.031  0.0719 -1.3032 -0.7121
  1834G12c H00S33964   1.341   1.591   3.992 -1.8148 -1.9035 -5.7789
  1834G12c C01E33965   1.205   1.494   4.112 -0.0554 -0.3029 -1.9464
  1834G12c O00833966   1.302   1.420   4.163 -0.9981  0.4195  0.3246
  1834G12c C01V33967   1.351   1.308   4.084 -0.5246  0.4418  1.6043
  1834G12c C01Z33968   1.455   1.208   4.160 -0.5104  1.9569 -1.7208
  1834G12c H00R33969   1.520   1.179   4.077 -1.3245  1.7717 -2.3100
  1834G12c H00Q33970   1.505   1.265   4.237  0.9519 -0.2020 -1.0213
  1834G12c O00933971   1.361   1.092   4.184  0.2902 -0.0500 -0.7572
  1834G12c H00P33972   1.318   1.063   4.263 -1.2107 -1.0421 -1.9356
  1834G12c C01W33973   1.314   1.256   3.963  0.1038 -0.1102 -1.2830
  1834G12c H00O33974   1.250   1.313   3.896 -0.0384 -0.9033 -1.8264
  1834G12c C01X33975   1.337   1.110   3.910 -0.0640 -1.6922 -0.0037
  1834G12c H00N33976   1.346   1.023   3.976  0.8770 -1.9674 -0.4849
  1834G12c H00M33977   1.268   1.097   3.826 -2.2632  5.2711  0.4231
  1834G12c C01Y33978   1.490   1.117   3.855  1.8148 -0.7109  0.4420
  1834G12c C02D33979   1.512   1.226   3.763  0.2576  1.0747  0.1069
  1834G12c H01933980   1.455   1.307   3.721 -0.7975 -1.4064 -3.4880
  1834G12c C02C33981   1.632   1.241   3.701  0.5586 -1.2410  0.5654
  1834G12c H01A33982   1.643   1.297   3.609  5.8089  0.6491  2.2037
  1834G12c C02B33983   1.709   1.129   3.685 -1.3224 -0.7788  0.4652
  1834G12c O00E33984   1.838   1.139   3.615  1.3044 -0.5952  0.7230
  1834G12c H01B33985   1.920   1.129   3.661  4.6490  5.0469 -3.3759
  1834G12c C02F33986   1.688   1.024   3.788 -1.7668 -0.9741  0.7053
  1834G12c O00F33987   1.779   0.929   3.788 -0.2176  0.8020  2.4084
  1834G12c C02G33988   1.776   0.850   3.890  0.1650  0.1658  0.8198
  1834G12c H01733989   1.875   0.809   3.913 -1.2885 -3.5125  0.8709
  1834G12c H01633990   1.690   0.784   3.883 -3.0859  3.8093  3.8479
  1834G12c H01533991   1.761   0.900   3.986 -4.3231  1.8966 -0.6664
  1834G12c C02E33992   1.577   1.012   3.875  0.5888  0.7731  0.8980
  1834G12c H01833993   1.572   0.929   3.944  0.9267 -1.4553 -1.6762
  1834G12c C01F33994   1.077   1.457   4.124 -0.3715  1.2507 -1.4602
  1834G12c C01G33995   1.032   1.361   4.216 -0.9601  0.5756  0.2338
  1834G12c H00L33996   1.097   1.321   4.293 -2.3520  0.9837  1.6350
  1834G12c C01H33997   0.889   1.356   4.220 -0.1735  1.3677 -1.6080
  1834G12c H00B33998   0.868   1.258   4.260 -0.9961  1.7709 -1.0378
  1834G12c C01I33999   0.790   1.411   4.125  1.3360 -0.9090  0.0498
  1834G12c C01U34000   0.990   1.508   4.034  0.3590  0.9591  0.5843
  1834G12c C00S34001   0.854   2.002   3.771  0.3307  0.1281  1.0845
  1834G12c C00K34002   0.719   1.827   3.818  1.1713  0.8183 -0.5899
  1834G12c C00N34003   1.018   1.634   3.968  1.0127  0.9653  0.0983
  1834G12c C00034004   0.859   1.456   4.008 -0.8180 -0.8055 -0.4208
  1834G12c C01J34005   0.681   1.520   4.142  0.3143 -1.9147 -2.6008
  1834G12c C01K34006   0.567   1.520   4.247 -0.5332  0.5750 -0.3042
  1834G12c C01P34007   0.538   1.439   4.368  0.7689 -1.3353  1.2232
  1834G12c C01Q34008   0.642   1.379   4.455 -0.0627 -0.4403  0.3737
  1834G12c H00G34009   0.662   1.447   4.536 -0.7871 -0.5572  0.6589
  1834G12c C01R34010   0.665   1.237   4.437  1.4594 -0.9776  0.0822
  1834G12c H00F34011   0.638   1.192   4.343 -2.7020  0.4498  0.4890
  1834G12c C01S34012   0.767   1.151   4.524  0.3082 -1.9488 -1.4427
  1834G12c H00E34013   0.743   1.045   4.518 -7.8069 -0.6575  1.1353
  1834G12c H00D34014   0.860   1.185   4.479  3.7161 -1.4749  5.2601
  1834G12c O00534015   0.762   1.191   4.659 -0.8948  0.7474  1.3640
  1834G12c H00C34016   0.780   1.283   4.673 -0.7393  0.7147  1.3795
  1834G12c C01O34017   0.409   1.422   4.422  1.3253 -1.4152 -0.3712
  1834G12c H00H34018   0.400   1.342   4.494  1.5984 -0.0630  1.2123
  1834G12c C01N34019   0.330   1.535   4.419  0.2457 -0.3676  0.9263
  1834G12c O00634020   0.209   1.548   4.494 -0.1869  0.7039  0.2714
  1834G12c C01T34021   0.160   1.417   4.557 -2.3173 -0.8879  1.1319
  1834G12c H00K34022   0.172   1.335   4.487  1.0165  3.9639 -4.5121
  1834G12c H00J34023   0.212   1.406   4.653 -2.3864  2.0382  1.5512
  1834G12c H00I34024   0.053   1.422   4.578 -2.7107  5.0687 -1.1520
  1834G12c C01M34025   0.357   1.621   4.308 -0.2016 -0.2891  0.7257
  1834G12c C02034026   0.584   1.801   3.894  1.0287 -0.4142 -0.3023
  1834G12c C02134027   0.478   1.888   3.898  0.8916  0.2694  1.7538
  1834G12c C01L34028   0.468   1.603   4.207 -1.4088 -0.8057 -0.8094
  1834G12c O00734029   0.265   1.724   4.306 -1.7639 -0.3561  0.1709
  1834G12c C02234030   0.380   1.901   3.993  1.7914  0.7309 -0.3722
  1834G12c C02334031   0.492   2.014   3.835  0.4219  0.4331  0.9550
  1834G12c C00G34032   0.572   2.274   3.862 -1.1911 -0.8772 -0.8062
  1834G12c C00E34033   0.530   2.516   3.901 -0.2162 -1.5701 -0.6539
  1834G12c O00A34034   0.568   2.648   3.915  0.0182 -0.2640 -0.2047
  1834G12c C02434035   0.614   2.694   4.045 -1.4573  0.2096  2.4466
  1834G12c H00V34036   0.691   2.645   4.105  1.0145 -1.6335 -1.9596
  1834G12c H00U34037   0.526   2.684   4.108  0.0983 -1.2812  4.4610
  1834G12c H00T34038   0.659   2.792   4.063 -1.7296  1.4344 -2.8904
  1844G12c C00D34039   3.512  12.100   5.431  0.0467 -0.5827  0.0184
  1844G12c O00B34040   3.645  12.097   5.471 -2.4168 -1.6648 -0.7152
  1844G12c C02534041   3.711  12.194   5.564 -0.3566  0.6684  0.7568
  1844G12c C02634042   3.648  12.334   5.586 -0.2549 -0.1276 -0.2517
  1844G12c H00Y34043   3.584  12.379   5.510  0.9148 -1.8592 -2.3115
  1844G12c H00X34044   3.717  12.417   5.568 -8.7261  8.6634  3.0908
  1844G12c O00C34045   3.560  12.346   5.687  0.2006 -0.3923  0.5486
  1844G12c H00W34046   3.625  12.391   5.739 -1.2386  2.8342 -0.3167
  1844G12c C02734047   3.847  12.185   5.619  0.9640  2.3051  1.0995
  1844G12c O00D34048   3.885  12.057   5.650 -1.2992 -0.3202 -0.0536
  1844G12c H00Z34049   3.811  11.999   5.663  1.0297 -3.5730 -0.5018
  1844G12c C02834050   3.880  12.286   5.702  0.1138  1.2808  0.4848
  1844G12c C02934051   3.964  12.392   5.674 -1.6895 -0.8518 -0.3028
  1844G12c H01034052   3.999  12.411   5.574  1.2740 -0.6697  0.7263
  1844G12c C02T34053   4.035  12.455   5.789 -0.6340 -0.3756  1.2093
  1844G12c H01O34054   4.125  12.507   5.758  0.1068 -4.6104 -4.5914
  1844G12c C02S34055   4.017  12.419   5.911  0.7840  1.2272  0.6494
  1844G12c O00J34056   4.082  12.488   5.991  1.4450  0.0619 -0.5013
  1844G12c H01P34057   4.062  12.580   5.982  1.8190  0.0088 -1.9825
  1844G12c C02R34058   3.938  12.304   5.944  0.4490  2.1534  2.0453
  1844G12c O00I34059   3.939  12.262   6.067  0.4617  0.8002  0.0455
  1844G12c C02Q34060   3.810  12.293   6.132 -0.0134 -0.1812  0.0822
  1844G12c H01N34061   3.726  12.240   6.087  0.3482  1.7053 -2.9295
  1844G12c H01R34062   3.822  12.396   6.098 -0.0268 -0.3162 -0.3371
  1844G12c H01Q34063   3.793  12.275   6.238  0.2600 -0.9227  0.0029
  1844G12c C02A34064   3.859  12.240   5.849  0.9963  0.6666 -0.6920
  1844G12c H01134065   3.808  12.151   5.882 -2.7424  4.3536  4.1706
  1844G12c C00C34066   3.428  11.998   5.497 -0.1043 -2.3606 -0.1276
  1844G12c H01234067   3.451  11.899   5.536 -5.2487 -2.3478  3.4193
  1844G12c C00B34068   3.299  12.032   5.502  0.9402  0.9037 -2.4933
  1844G12c C00A34069   3.178  11.962   5.550  1.7960 -0.9226 -1.6056
  1844G12c C00934070   3.128  11.833   5.512 -0.0212  0.2553 -0.2229
  1844G12c C00834071   3.171  11.714   5.468  0.1335  0.0025  0.3667
  1844G12c H01334072   3.277  11.721   5.449  0.9026 -2.9249  3.1096
  1844G12c C00734073   3.086  11.595   5.482  0.6909 -0.2652  2.7814
  1844G12c H01434074   3.110  11.490   5.474 -1.8713 -1.2375  6.6003
  1844G12c C00634075   2.947  11.609   5.515 -0.3240 -1.6997  2.1915
  1844G12c C00534076   2.904  11.734   5.539 -1.5227  0.2209  1.0241
  1844G12c C00434077   2.773  11.762   5.570 -1.4797 -1.4013 -0.8429
  1844G12c C00334078   2.742  11.888   5.614 -1.1417  0.0248  0.6755
  1844G12c C00234079   2.608  11.915   5.631 -0.3435 -0.9215  0.1101
  1844G12c C00134080   2.538  12.041   5.661 -2.0241  0.4238  1.1473
  1844G12c C00M34081   2.572  12.160   5.595 -1.7763 -0.5801  0.0534
  1844G12c C00L34082   2.687  12.227   5.631  1.3142 -0.4086 -0.3330
  1844G12c C00R34083   2.750  12.341   5.549  2.2071 -0.2452  1.1492
  1844G12c C00Q34084   2.688  12.445   5.471 -0.5106 -0.5698 -0.3591
  1844G12c C00V34085   2.781  12.538   5.410 -1.9846  0.8275  1.1254
  1844G12c C00U34086   2.915  12.508   5.390  0.3044 -1.7802 -0.8963
  1844G12c C00T34087   2.971  12.386   5.436  1.5485  0.1958 -0.7915
  1844G12c C01634088   3.105  12.349   5.435 -0.7674 -0.2889 -0.8960
  1844G12c C01534089   3.181  12.417   5.339  0.0759  2.2185 -0.9976
  1844G12c C01034090   3.139  12.546   5.286 -0.2773  0.6747  0.2274
  1844G12c C01134091   3.221  12.594   5.185 -1.4141  0.8250  0.5809
  1844G12c H00534092   3.190  12.682   5.130  2.7674  2.7176  1.0733
  1844G12c C01234093   3.330  12.526   5.135  0.1613 -0.2229 -0.7179
  1844G12c C01734094   3.396  12.572   5.002 -0.3726  0.5883 -1.2623
  1844G12c O00234095   3.438  12.476   4.930  0.8977  0.4087 -1.4366
  1844G12c H00434096   3.487  12.506   4.855 -2.4254  1.2218 -3.3644
  1844G12c C01834097   3.419  12.702   4.982  0.0228 -0.3819 -0.1132
  1844G12c O00134098   3.383  12.794   5.068 -0.9128 -0.0635  0.4569
  1844G12c H00334099   3.335  12.789   5.149 -0.3905  2.3341  0.9741
  1844G12c C01934100   3.513  12.755   4.867 -1.2186 -0.4961  1.4569
  1844G12c H00234101   3.430  12.785   4.803 -0.0671  2.6438  1.3372
  1844G12c H00134102   3.565  12.851   4.865 -6.6694  2.6462  0.0462
  1844G12c O00034103   3.575  12.637   4.799 -0.5508 -1.5913  0.9336
  1844G12c C01A34104   3.708  12.589   4.831  0.4634 -0.6883 -0.3361
  1844G12c C02K34105   3.753  12.501   4.726 -0.5909  1.2695  0.1114
  1844G12c O00G34106   3.664  12.456   4.624  0.1754 -0.2859  0.7444
  1844G12c C02M34107   3.640  12.313   4.627  0.7102 -1.5152 -1.1079
  1844G12c H01G34108   3.653  12.296   4.734  3.0026 -1.5617 -1.3774
  1844G12c H01F34109   3.561  12.296   4.554 -3.5854  4.0907  1.8652
  1844G12c H01E34110   3.690  12.228   4.581 -1.1607 -0.7090 -4.7779
  1844G12c C02J34111   3.905  12.473   4.704 -1.1464  1.1155  1.9739
  1844G12c H01H34112   3.934  12.405   4.625 -0.4048  2.6582  0.8935
  1844G12c C02I34113   3.990  12.516   4.799 -0.1548 -0.2925 -0.4622
  1844G12c C02N34114   4.129  12.494   4.801  0.3788 -0.6373  0.9904
  1844G12c H01M34115   4.194  12.529   4.880  5.6518 -1.5646 -2.6495
  1844G12c C02O34116   4.196  12.402   4.719  0.3883 -0.1953  0.2120
  1844G12c H01L34117   4.149  12.334   4.649 -1.2806 -1.2376  2.2973
  1844G12c C02P34118   4.344  12.424   4.718 -1.8932  0.0892 -0.4616
  1844G12c H01K34119   4.377  12.517   4.672  2.0553 -1.5730 -1.1634
  1844G12c H01J34120   4.344  12.418   4.827  5.6227  1.2442 -0.1763
  1844G12c O00H34121   4.416  12.306   4.668 -0.2630 -1.3408 -0.1771
  1844G12c H01I34122   4.462  12.301   4.585 -3.9801  3.8205 -2.8222
  1844G12c C02H34123   3.933  12.605   4.901  0.4113 -0.7037 -1.4960
  1844G12c H01C34124   4.000  12.663   4.963 -1.3760  4.7397 -4.3868
  1844G12c C02L34125   3.803  12.634   4.922 -1.3035  0.5097 -0.1934
  1844G12c H01D34126   3.762  12.716   4.978  1.9076  4.9844 -4.0509
  1844G12c C01334127   3.385  12.415   5.194 -1.8201  1.8098 -1.1568
  1844G12c H00034128   3.491  12.397   5.186 -2.7016 -3.3317 -3.7182
  1844G12c C01434129   3.298  12.351   5.285 -0.2461 -0.1728  0.6368
  1844G12c C00F34130   3.343  12.225   5.347  0.8134 -1.4598 -1.7236
  1844G12c C00H34131   3.144  12.227   5.486  1.1667 -0.3595 -0.5172
  1844G12c C00I34132   3.054  12.152   5.569 -0.7144 -1.2713  1.0045
  1844G12c C00J34133   2.927  12.204   5.594  1.0471 -0.0727 -0.6052
  1844G12c C00Z34134   3.013  12.599   5.330 -0.2111  0.9619  0.8211
  1844G12c C00Y34135   2.960  12.713   5.280  0.0225  0.7618 -1.3432
  1844G12c H00634136   3.045  12.759   5.232  1.8976 -2.0904 -0.8830
  1844G12c C00X34137   2.823  12.719   5.255  0.5908 -0.6657 -1.6316
  1844G12c O00334138   2.753  12.801   5.172  0.8798  0.3812 -0.9578
  1844G12c C01B34139   2.803  12.925   5.153 -0.8559 -0.1806 -0.0077
  1844G12c H00934140   2.825  12.948   5.049 -9.0959  2.9384 -1.3858
  1844G12c H00834141   2.867  12.943   5.240  1.6204 -4.2474 -0.8303
  1844G12c H00734142   2.730  13.001   5.179 -0.7061 -0.6524  1.9120
  1844G12c C00W34143   2.734  12.649   5.330 -0.3754  0.4495  0.6940
  1844G12c O00434144   2.595  12.670   5.326 -1.8558 -0.9261  0.8411
  1844G12c C01C34145   2.511  12.566   5.350  0.3423 -0.6716  0.6113
  1844G12c H00A34146   2.458  12.535   5.261  2.7891 -2.5474 -0.2516
  1844G12c C00P34147   2.549  12.448   5.425 -0.1353  0.4512  1.3539
  1844G12c C00O34148   2.452  12.346   5.443  0.1700  0.5710 -0.9279
  1844G12c C01D34149   2.314  12.369   5.413 -1.1003 -0.1091 -1.1752
  1844G12c H00S34150   2.274  12.461   5.374 -1.0243  0.3370 -0.2250
  1844G12c C01E34151   2.221  12.254   5.407  0.5347 -1.1297 -1.6221
  1844G12c O00834152   2.126  12.299   5.311  0.0283  0.2459  0.1926
  1844G12c C01V34153   2.001  12.269   5.356 -0.6709  1.3180 -1.9902
  1844G12c C01Z34154   1.935  12.145   5.280  0.5646 -0.7676  0.0919
  1844G12c H00R34155   1.908  12.189   5.183  0.1013 -4.4183 -1.5137
  1844G12c H00Q34156   1.990  12.061   5.239 -2.3649 -4.7137  3.8027
  1844G12c O00934157   1.832  12.095   5.361 -0.5175  1.3981  0.7279
  1844G12c H00P34158   1.877  12.052   5.432  0.4102 -1.6701 -1.6418
  1844G12c C01W34159   1.919  12.355   5.412 -0.6646  1.8205 -0.2442
  1844G12c H00O34160   1.815  12.330   5.430 -0.3411  2.5352  3.1038
  1844G12c C01X34161   1.943  12.490   5.484  0.7786  0.0434  1.0717
  1844G12c H00N34162   1.876  12.472   5.568 -0.7675  1.9408  0.2827
  1844G12c H00M34163   2.043  12.500   5.524  0.3467  3.4978  1.4566
  1844G12c C01Y34164   1.932  12.619   5.414 -1.7184 -0.4456 -0.0536
  1844G12c C02D34165   1.878  12.727   5.493 -1.6373  0.5962  0.4762
  1844G12c H01934166   1.839  12.714   5.593 -0.2798 -5.8996  0.3549
  1844G12c C02C34167   1.831  12.852   5.431 -0.5486 -0.4444 -1.8959
  1844G12c H01A34168   1.793  12.932   5.493  3.8861 -2.5563  4.0561
  1844G12c C02B34169   1.860  12.869   5.289 -3.0037 -0.5420 -1.2321
  1844G12c O00E34170   1.854  12.985   5.233  1.6444  0.3950  0.7292
  1844G12c H01B34171   1.885  12.994   5.144 -5.1590 -0.2188 -1.9894
  1844G12c C02F34172   1.957  12.787   5.216  1.2491  1.8463 -0.9391
  1844G12c O00F34173   1.972  12.811   5.074 -0.3416 -0.7331  1.9495
  1844G12c C02G34174   2.006  12.691   4.992  0.0814 -1.1427 -1.1455
  1844G12c H01734175   1.949  12.599   4.986 -1.9122  0.1134 -1.7403
  1844G12c H01634176   2.103  12.641   4.995 -0.3554 -1.8682  1.6743
  1844G12c H01534177   2.006  12.738   4.893  2.4372 -1.8813 -1.5371
  1844G12c C02E34178   1.991  12.658   5.285  0.0659  0.8241 -0.6323
  1844G12c H01834179   1.995  12.580   5.210  0.4278 -1.4192  1.6346
  1844G12c C01F34180   2.248  12.122   5.469  1.0627 -0.5469 -1.4894
  1844G12c C01G34181   2.196  11.984   5.448  0.0647  0.2277 -0.1475
  1844G12c H00L34182   2.115  11.950   5.385 -2.9391 -1.4856  4.4029
  1844G12c C01H34183   2.273  11.871   5.502  0.1912  0.3083 -0.3459
  1844G12c H00B34184   2.252  11.773   5.461 -3.9753  2.2434 -3.1821
  1844G12c C01I34185   2.387  11.896   5.576  1.0522 -0.6840 -1.3809
  1844G12c C01U34186   2.353  12.148   5.566  0.6593  0.3071  0.4373
  1844G12c C00S34187   2.880  12.319   5.527 -0.1731 -0.3983  1.2887
  1844G12c C00K34188   2.807  12.146   5.637  0.6016 -0.0919  0.9405
  1844G12c C00N34189   2.455  12.239   5.543 -0.2997  1.7227  0.9751
  1844G12c C00034190   2.405  12.026   5.624 -0.3034  0.7611 -0.5370
  1844G12c C01J34191   2.506  11.826   5.579 -0.4442 -0.1170 -0.9659
  1844G12c C01K34192   2.546  11.684   5.560  1.2949 -0.1518 -2.1598
  1844G12c C01P34193   2.460  11.568   5.588 -0.2357  1.5837  0.8627
  1844G12c C01Q34194   2.327  11.586   5.637  1.4447  0.6375  0.4253
  1844G12c H00G34195   2.339  11.650   5.724  1.0122  0.9444  0.2623
  1844G12c C01R34196   2.212  11.542   5.590 -0.5418 -0.3248 -1.4726
  1844G12c H00F34197   2.126  11.596   5.627 -0.9065 -0.5378 -2.0103
  1844G12c C01S34198   2.181  11.449   5.473 -0.4227 -0.4105 -0.3320
  1844G12c H00E34199   2.255  11.375   5.443  3.6163  3.3718 -0.1865
  1844G12c H00D34200   2.100  11.382   5.503  0.0476  1.9238  7.2271
  1844G12c O00534201   2.122  11.520   5.363 -1.7998 -1.1065 -0.6955
  1844G12c H00C34202   2.038  11.504   5.323 -0.7241  4.7224 -6.0279
  1844G12c C01O34203   2.510  11.445   5.536  0.2172 -0.0936 -0.2732
  1844G12c H00H34204   2.452  11.360   5.505 -0.1862  2.2044 -6.6130
  1844G12c C01N34205   2.643  11.431   5.521  0.5444  0.9129  0.0070
  1844G12c O00634206   2.699  11.301   5.509  0.2707 -0.6269 -0.6173
  1844G12c C01T34207   2.621  11.192   5.574  0.4046 -0.8074 -0.8425
  1844G12c H00K34208   2.527  11.158   5.531  1.4571 -5.6013  0.3500
  1844G12c H00J34209   2.679  11.104   5.605  2.5303  2.1222  4.1385
  1844G12c H00I34210   2.603  11.240   5.670  0.2702  0.1102 -1.3223
  1844G12c C01M34211   2.730  11.538   5.524 -1.6002  0.1543 -1.2237
  1844G12c C02034212   2.839  12.001   5.636  1.7627  0.2076 -1.0821
  1844G12c C02134213   2.974  11.949   5.632  0.8646  0.7349  0.2520
  1844G12c C01L34214   2.681  11.669   5.562  0.6430 -1.6424  2.1788
  1844G12c O00734215   2.869  11.494   5.535  0.6652 -2.5538  0.2964
  1844G12c C02234216   2.992  11.843   5.561  0.3823  1.2118  0.7248
  1844G12c C02334217   3.089  12.034   5.621 -0.2669  0.4585  2.3599
  1844G12c C00G34218   3.263  12.160   5.449 -1.0422  0.6209  1.2857
  1844G12c C00E34219   3.468  12.178   5.324 -1.7605  0.7812 -0.3844
  1844G12c O00A34220   3.574  12.219   5.244  0.6024  0.4649 -0.1503
  1844G12c C02434221   3.605  12.132   5.140  1.1742  0.2366 -0.2607
  1844G12c H00V34222   3.552  12.124   5.045  6.1787 -4.7824 -2.9628
  1844G12c H00U34223   3.594  12.033   5.185  1.4888 -0.7746 -2.3413
  1844G12c H00T34224   3.706  12.137   5.099  2.5864-10.0936  0.6348
  1854G12c C00D34225   7.081   7.338   8.728 -0.2923 -0.1353  0.4325
  1854G12c O00B34226   6.971   7.282   8.662 -1.0125 -0.2951 -2.1684
  1854G12c C02534227   6.850   7.248   8.724  0.5745 -0.9714 -0.2519
  1854G12c C02634228   6.834   7.097   8.777  0.7559 -1.4413 -0.5548
  1854G12c H00Y34229   6.728   7.099   8.805  1.7119 -0.0845  3.3622
  1854G12c H00X34230   6.882   7.100   8.875 -5.7252 -3.0049  2.9922
  1854G12c O00C34231   6.855   7.015   8.684  0.7103 -0.6626 -1.8989
  1854G12c H00W34232   6.835   6.940   8.737  2.8761 -1.6434 -2.4171
  1854G12c C02734233   6.749   7.344   8.749 -2.4189  1.5495  0.2670
  1854G12c O00D34234   6.648   7.322   8.851 -0.8835 -1.5272  0.5843
  1854G12c H00Z34235   6.694   7.247   8.884 -1.5103 -1.7285  1.0281
  1854G12c C02834236   6.782   7.478   8.684 -2.1333 -0.5460  0.6766
  1854G12c C02934237   6.771   7.519   8.552  1.1645 -2.0067 -0.7503
  1854G12c H01034238   6.722   7.459   8.477  4.0537 -2.2886 -2.4960
  1854G12c C02T34239   6.818   7.655   8.515 -1.5492  0.7656 -0.5142
  1854G12c H01O34240   6.835   7.690   8.415 -0.7849  5.3238  1.0696
  1854G12c C02S34241   6.883   7.739   8.613  1.6089  0.3047  0.9445
  1854G12c O00J34242   6.941   7.854   8.566  0.0487 -0.0552 -0.3504
  1854G12c H01P34243   6.979   7.903   8.637 -8.3327  3.5402  2.3621
  1854G12c C02R34244   6.916   7.699   8.736  0.4852  0.6390  1.4845
  1854G12c O00I34245   6.987   7.786   8.823  0.2550 -0.1590 -0.7996
  1854G12c C02Q34246   6.905   7.867   8.911  2.7880 -1.8901 -1.1000
  1854G12c H01N34247   6.845   7.926   8.841  4.9343  1.3920 -0.3049
  1854G12c H01R34248   6.980   7.925   8.964 -0.9144  1.7980  0.4492
  1854G12c H01Q34249   6.839   7.815   8.981  1.2022 -0.5427 -1.5557
  1854G12c C02A34250   6.853   7.570   8.762 -0.2603 -1.2140 -0.8212
  1854G12c H01134251   6.881   7.509   8.847  2.0222 -2.9528 -2.7393
  1854G12c C00C34252   7.082   7.309   8.866  1.5543 -0.9334 -1.4063
  1854G12c H01234253   6.996   7.256   8.905  0.3822  3.9231  3.1985
  1854G12c C00B34254   7.141   7.402   8.955 -1.9101 -0.2662 -0.4372
  1854G12c C00A34255   7.127   7.370   9.104  0.0461 -0.4887 -0.2021
  1854G12c C00934256   6.999   7.376   9.190 -0.1738  0.4755 -1.1066
  1854G12c C00834257   6.861   7.354   9.166 -1.1490 -0.0109  0.2956
  1854G12c H01334258   6.838   7.302   9.074 -1.0431  1.7005 -0.7334
  1854G12c C00734259   6.760   7.429   9.233  0.5609  0.1606 -0.6072
  1854G12c H01434260   6.656   7.428   9.202 -0.2539 -0.1132  1.9511
  1854G12c C00634261   6.794   7.511   9.353  0.2011 -2.1770  1.4844
  1854G12c C00534262   6.933   7.524   9.377  0.4535  0.2399 -0.2782
  1854G12c C00434263   6.985   7.613   9.470 -0.1369  1.2015  0.5444
  1854G12c C00334264   7.121   7.659   9.464 -1.2198  0.4840 -0.3275
  1854G12c C00234265   7.166   7.749   9.565  0.5569 -1.1962 -1.8513
  1854G12c C00134266   7.277   7.838   9.583 -0.8471 -0.2628 -1.0777
  1854G12c C00M34267   7.335   7.901   9.476  0.3812  1.0236  0.5919
  1854G12c C00L34268   7.388   7.826   9.368 -0.0724 -0.4356 -0.5455
  1854G12c C00R34269   7.413   7.900   9.239  0.6091  0.6632  0.1847
  1854G12c C00Q34270   7.428   8.034   9.189 -0.7690  0.7755 -0.6702
  1854G12c C00V34271   7.458   8.042   9.048 -0.9929  2.8198  0.7032
  1854G12c C00U34272   7.437   7.926   8.966 -0.8319 -1.7074  0.3191
  1854G12c C00T34273   7.382   7.815   9.001 -2.3760  1.0756 -1.2593
  1854G12c C01634274   7.350   7.702   8.931 -0.4382 -0.9613  0.0240
  1854G12c C01534275   7.339   7.729   8.794 -0.5861  0.1821 -2.2118
  1854G12c C01034276   7.393   7.842   8.733 -0.1213  0.6267  0.2851
  1854G12c C01134277   7.391   7.857   8.588  0.7618 -1.4288  0.2351
  1854G12c H00534278   7.431   7.934   8.524 -2.1964  2.1714  2.4697
  1854G12c C01234279   7.377   7.744   8.505  0.7606 -1.3077 -0.2406
  1854G12c C01734280   7.412   7.739   8.361 -1.2381 -1.4717  0.6977
  1854G12c O00234281   7.481   7.624   8.309  2.2811 -0.0082  0.1945
  1854G12c H00434282   7.566   7.634   8.269  3.4158 -0.5765  2.3702
  1854G12c C01834283   7.354   7.826   8.281  0.9678 -0.5524 -0.7279
  1854G12c O00134284   7.286   7.939   8.340  0.0019  0.3179 -0.2066
  1854G12c H00334285   7.236   7.993   8.280  3.1101 -0.9131 -4.1622
  1854G12c C01934286   7.332   7.816   8.143  0.7750  0.1526  1.1571
  1854G12c H00234287   7.234   7.771   8.157  1.3288 -0.5148  3.0336
  1854G12c H00134288   7.317   7.909   8.088 -7.1342  0.1579  2.8444
  1854G12c O00034289   7.440   7.771   8.062 -0.5376  0.5280  0.2492
  1854G12c C01A34290   7.434   7.787   7.916 -0.9736  1.1758 -1.0226
  1854G12c C02K34291   7.489   7.898   7.853 -0.1187 -0.5564  0.3318
  1854G12c O00G34292   7.547   8.013   7.922 -0.9097  1.8619 -0.8802
  1854G12c C02M34293   7.666   7.976   7.991  1.5689 -1.0119  1.8695
  1854G12c H01G34294   7.735   7.900   7.957  3.7698  2.1408 -1.0557
  1854G12c H01F34295   7.723   8.069   7.984 -0.5005  0.1372 -0.4850
  1854G12c H01E34296   7.670   7.960   8.099 -0.8617 -0.7591  2.0216
  1854G12c C02J34297   7.487   7.917   7.713 -0.6800 -1.4821  0.5926
  1854G12c H01H34298   7.562   7.988   7.682 -2.4327 -1.5015 -4.0788
  1854G12c C02I34299   7.396   7.846   7.642 -0.0875  0.4660 -0.0536
  1854G12c C02N34300   7.392   7.898   7.504  0.7407 -1.0014 -0.5816
  1854G12c H01M34301   7.390   8.004   7.484  0.0208 -0.8887  0.0529
  1854G12c C02O34302   7.385   7.814   7.405  0.2971 -0.5969  1.7034
  1854G12c H01L34303   7.395   7.706   7.402  1.4379 -0.4898 -2.7149
  1854G12c C02P34304   7.355   7.851   7.242 -0.0805  0.0021 -0.9154
  1854G12c H01K34305   7.425   7.920   7.196 -4.3687  1.9486 -4.9586
  1854G12c H01J34306   7.362   7.763   7.177  4.1239  2.4331 -3.9812
  1854G12c O00H34307   7.208   7.866   7.215 -1.2256  2.3545 -1.0648
  1854G12c H01I34308   7.165   7.784   7.234  3.4641 -0.7073 -2.5615
  1854G12c C02H34309   7.338   7.723   7.698 -0.7300 -0.2487 -1.9780
  1854G12c H01C34310   7.284   7.658   7.631 -1.4446 -3.2229  1.2940
  1854G12c C02L34311   7.375   7.689   7.832  1.8259 -0.5597  0.4136
  1854G12c H01D34312   7.326   7.602   7.872  1.6627  0.8721  3.4525
  1854G12c C01334313   7.347   7.625   8.571  0.3453  1.7024  1.6318
  1854G12c H00034314   7.357   7.528   8.524  5.1778  3.3336 -1.0994
  1854G12c C01434315   7.306   7.622   8.706 -0.3797 -1.1518 -1.1029
  1854G12c C00F34316   7.247   7.498   8.755  0.5930 -0.2915 -0.0416
  1854G12c C00H34317   7.305   7.583   8.979 -0.0802  0.1411 -0.5976
  1854G12c C00I34318   7.300   7.564   9.116  2.1289 -0.1028  0.0518
  1854G12c C00J34319   7.350   7.672   9.188  0.3141 -0.7918  1.1522
  1854G12c C00Z34320   7.444   7.938   8.827 -0.4967  0.2882 -2.0972
  1854G12c C00Y34321   7.464   8.067   8.766 -0.2351 -0.8888 -1.5832
  1854G12c H00634322   7.504   8.063   8.666  3.0137  6.0250 -0.8313
  1854G12c C00X34323   7.466   8.190   8.856 -0.1491 -0.6194  0.2259
  1854G12c O00334324   7.508   8.298   8.792 -0.3871  0.9548 -1.7955
  1854G12c C01B34325   7.614   8.398   8.814  0.2179  0.7212 -0.2976
  1854G12c H00934326   7.585   8.460   8.898  1.1833 -3.7416  3.5378
  1854G12c H00834327   7.661   8.442   8.726 -1.5993 -0.3709 -1.8456
  1854G12c H00734328   7.702   8.344   8.849 -2.3829 -3.1828  0.5084
  1854G12c C00W34329   7.468   8.168   8.988 -0.1824  0.4059 -0.1547
  1854G12c O00434330   7.501   8.282   9.058 -0.7824 -3.5023 -2.1722
  1854G12c C01C34331   7.490   8.266   9.201 -0.2601  1.3748 -0.8323
  1854G12c H00A34332   7.563   8.336   9.237 -0.9567  0.3532  2.7263
  1854G12c C00P34333   7.426   8.155   9.261 -0.9544 -0.1299  0.6671
  1854G12c C00O34334   7.368   8.154   9.396  0.4566  0.1216 -0.3054
  1854G12c C01D34335   7.312   8.279   9.441  1.0454  0.9982  1.4196
  1854G12c H00S34336   7.334   8.379   9.407  4.5380  1.0992  3.6123
  1854G12c C01E34337   7.217   8.291   9.546 -0.5759  0.1065 -1.1529
  1854G12c O00834338   7.158   8.405   9.563  0.5962  0.5956 -0.3193
  1854G12c C01V34339   7.233   8.480   9.648 -1.7708 -0.3459 -2.1344
  1854G12c C01Z34340   7.295   8.444   9.780  0.4682  0.0253  0.3752
  1854G12c H00R34341   7.288   8.544   9.823 -2.6937 -0.2438  0.5925
  1854G12c H00Q34342   7.243   8.389   9.857  0.5846  0.8064  1.0202
  1854G12c O00934343   7.436   8.427   9.791 -0.6700  0.1810 -0.3546
  1854G12c H00P34344   7.478   8.364   9.848  3.3616 -3.3476 -6.6888
  1854G12c C01W34345   7.251   8.615   9.601 -1.0577  0.0925  0.3580
  1854G12c H00O34346   7.340   8.664   9.638 -0.9246  0.6983 -0.7382
  1854G12c C01X34347   7.175   8.685   9.497  1.2400  0.0235 -0.2603
  1854G12c H00N34348   7.216   8.717   9.401  0.3672 -0.6664 -0.8708
  1854G12c H00M34349   7.158   8.600   9.431 -3.0509  3.6743 -4.2151
  1854G12c C01Y34350   7.066   8.774   9.529  0.4904 -2.2851  0.1761
  1854G12c C02D34351   7.082   8.885   9.612  0.0114 -2.1229  1.4886
  1854G12c H01934352   7.175   8.921   9.653 -0.0457  0.5248 -0.5580
  1854G12c C02C34353   6.976   8.967   9.659  0.0744  0.0313 -0.7046
  1854G12c H01A34354   6.988   9.032   9.744 -6.8040 -3.6032  3.4833
  1854G12c C02B34355   6.864   8.939   9.593  2.5938 -0.2520  0.2471
  1854G12c O00E34356   6.764   9.036   9.593  0.7696  1.7890 -0.2722
  1854G12c H01B34357   6.684   9.021   9.547  2.3216 -1.5814 -2.0484
  1854G12c C02F34358   6.833   8.828   9.505  0.2600 -0.2737  0.2170
  1854G12c O00F34359   6.723   8.838   9.423  1.0487  0.7077  0.2469
  1854G12c C02G34360   6.603   8.773   9.462  0.1594  0.3047 -1.5013
  1854G12c H01734361   6.585   8.668   9.436  6.2931 -1.8112  1.9056
  1854G12c H01634362   6.575   8.797   9.564 -3.6750 -5.0137 -1.0665
  1854G12c H01534363   6.529   8.839   9.417  4.0614  2.2786 -5.4130
  1854G12c C02E34364   6.939   8.750   9.478  0.6473 -0.3399  0.1284
  1854G12c H01834365   6.933   8.681   9.395  0.8984 -2.0198  1.4739
  1854G12c C01F34366   7.171   8.171   9.607 -0.5645 -1.3725  0.7503
  1854G12c C01G34367   7.041   8.148   9.652  0.6265  0.2398 -0.1937
  1854G12c H00L34368   6.970   8.229   9.655 -2.4260 -2.3098 -0.6236
  1854G12c C01H34369   6.985   8.028   9.709 -0.2037 -0.3217  0.5435
  1854G12c H00B34370   6.887   7.995   9.741 -2.1576  4.1223 -0.4908
  1854G12c C01I34371   7.088   7.925   9.689  0.7935 -0.2598  0.7254
  1854G12c C01U34372   7.248   8.065   9.589 -0.6839 -0.8075 -0.2729
  1854G12c C00S34373   7.391   7.797   9.140  1.0575 -0.5943 -0.0006
  1854G12c C00K34374   7.324   7.698   9.326  0.3393  0.0537  0.3583
  1854G12c C00N34375   7.313   8.049   9.463  0.0512  1.5187  1.2514
  1854G12c C00034376   7.231   7.944   9.656  0.2505 -0.3604 -0.6959
  1854G12c C01J34377   7.061   7.793   9.649  1.2121 -0.9651  1.7082
  1854G12c C01K34378   6.939   7.726   9.679  0.1390  2.0480  0.9418
  1854G12c C01P34379   6.860   7.724   9.810  1.2847 -1.4279  0.3665
  1854G12c C01Q34380   6.908   7.784   9.934 -1.1514 -2.1087  1.7160
  1854G12c H00G34381   6.992   7.851   9.939 -0.8225 -2.6186  3.3499
  1854G12c C01R34382   6.830   7.768  10.050 -0.7125  1.3653 -1.1813
  1854G12c H00F34383   6.738   7.713  10.067  0.0570 -0.7053 -3.3692
  1854G12c C01S34384   6.875   7.760  10.198  1.1507  0.2011  1.8996
  1854G12c H00E34385   6.849   7.836  10.272 -2.0526 -0.3024  1.3766
  1854G12c H00D34386   6.844   7.662  10.235 -1.5190  0.4660  0.4935
  1854G12c O00534387   7.019   7.714  10.207  0.6393 -0.5365  0.6548
  1854G12c H00C34388   7.069   7.747  10.134  2.7019 -9.0829 -2.4168
  1854G12c C01O34389   6.737   7.656   9.796 -0.4466  0.0455 -0.2633
  1854G12c H00H34390   6.678   7.625   9.881  2.8019 -2.8897  1.0727
  1854G12c C01N34391   6.690   7.619   9.674 -0.7097  0.2223  0.2599
  1854G12c O00634392   6.560   7.565   9.670 -0.2857 -0.7552 -0.3302
  1854G12c C01T34393   6.469   7.651   9.692 -0.1153 -0.8535 -0.8859
  1854G12c H00K34394   6.388   7.579   9.677  0.8272 -1.4486 -3.3032
  1854G12c H00J34395   6.499   7.719   9.612  6.6013 -2.3144  0.0964
  1854G12c H00I34396   6.484   7.705   9.785  3.6619 -0.8460 -1.4231
  1854G12c C01M34397   6.759   7.604   9.556  1.5566 -1.5038  0.1438
  1854G12c C02034398   7.222   7.610   9.378  0.9596  0.9252 -0.6780
  1854G12c C02134399   7.171   7.500   9.299  0.0245 -0.1807  0.7555
  1854G12c C01L34400   6.895   7.657   9.565 -0.3305  0.2717  0.3992
  1854G12c O00734401   6.710   7.546   9.448  0.0576  0.1234  0.5457
  1854G12c C02234402   7.035   7.470   9.298 -0.2437 -1.9517 -1.1825
  1854G12c C02334403   7.227   7.460   9.170 -1.2373 -2.5782 -0.6239
  1854G12c C00G34404   7.236   7.495   8.898 -1.4491 -0.7156  1.1473
  1854G12c C00E34405   7.175   7.421   8.666 -2.4709  1.5226  0.1042
  1854G12c O00A34406   7.153   7.448   8.539 -0.8550  0.7324  0.4230
  1854G12c C02434407   7.175   7.327   8.438 -0.8106 -0.8802 -0.1261
  1854G12c H00V34408   7.110   7.259   8.493  1.8352 -5.1410 -2.0156
  1854G12c H00U34409   7.273   7.280   8.434  1.6302  3.7302  1.1932
  1854G12c H00T34410   7.138   7.347   8.338 -1.0231 -1.4514 -0.1592
  1864G12c C00D34411   0.099   5.515  10.140  0.7851  0.9935  0.0573
  1864G12c O00B34412   0.129   5.571  10.015 -0.3365  0.5487  0.0945
  1864G12c C02534413   0.034   5.612   9.922 -0.2358  0.1646  0.8511
  1864G12c C02634414   0.056   5.598   9.763 -2.6495  2.7172 -0.1514
  1864G12c H00Y34415  -0.025   5.567   9.697  0.1925 -0.3382 -2.3899
  1864G12c H00X34416   0.110   5.503   9.771  1.1240  4.7148 -0.8771
  1864G12c O00C34417   0.142   5.709   9.709  1.1143 -0.2802 -0.8330
  1864G12c H00W34418   0.233   5.686   9.717  2.0338  0.9299 -6.3335
  1864G12c C02734419  -0.067   5.685   9.979 -0.1364  0.5987  1.2822
  1864G12c O00D34420  -0.040   5.722  10.094 -0.1740 -1.3221  0.4696
  1864G12c H00Z34421   0.016   5.668  10.147 -2.1227  0.1536  4.1792
  1864G12c C02834422  -0.169   5.770   9.910 -1.6898 -0.9510  0.7018
  1864G12c C02934423  -0.254   5.742   9.812  0.3323  0.0978 -1.4683
  1864G12c H01034424  -0.227   5.658   9.750 -1.0232 -1.8814  0.5396
  1864G12c C02T34425  -0.368   5.820   9.790 -1.6514  1.4994 -0.8359
  1864G12c H01O34426  -0.447   5.774   9.733 -2.0343  2.9237 -1.4535
  1864G12c C02S34427  -0.404   5.926   9.882  1.4966  0.6003 -0.5076
  1864G12c O00J34428  -0.530   5.984   9.885  0.0832  0.3066  0.1774
  1864G12c H01P34429  -0.569   6.025   9.960  3.2031  3.2804  0.2719
  1864G12c C02R34430  -0.298   5.980   9.967  1.9706  0.3132  0.8012
  1864G12c O00I34431  -0.311   6.083  10.070  1.4431  0.2043 -1.2628
  1864G12c C02Q34432  -0.244   6.061  10.191 -0.0860 -1.0495 -0.3076
  1864G12c H01N34433  -0.139   6.073  10.221  0.4964 -1.3013 -2.1879
  1864G12c H01R34434  -0.307   6.120  10.257 -5.7326 -4.5865 -2.2302
  1864G12c H01Q34435  -0.277   5.973  10.247  0.9663  1.0150  3.7623
  1864G12c C02A34436  -0.188   5.903   9.966 -0.4815 -0.5739  0.1915
  1864G12c H01134437  -0.121   5.915  10.050  7.4332  1.0356 -5.6895
  1864G12c C00C34438  -0.027   5.447  10.163  0.0888  0.0275 -2.4584
  1864G12c H01234439  -0.101   5.459  10.085  0.3861 -0.8507 -2.8841
  1864G12c C00B34440  -0.058   5.396  10.292 -0.9808  0.8736  1.6760
  1864G12c C00A34441  -0.177   5.350  10.351  0.8561  0.6532 -0.6368
  1864G12c C00934442  -0.311   5.376  10.310 -1.3294 -0.6076  0.1711
  1864G12c C00834443  -0.354   5.500  10.268  1.4985  0.8713 -0.6434
  1864G12c H01334444  -0.311   5.564  10.192  0.1420 -1.2261 -3.2425
  1864G12c C00734445  -0.456   5.566  10.315  1.6595  0.2429 -1.4816
  1864G12c H01434446  -0.469   5.651  10.249  1.9779  1.5548  0.1041
  1864G12c C00634447  -0.530   5.522  10.436  1.0057  0.4449  0.3333
  1864G12c C00534448  -0.480   5.406  10.476  0.7622 -1.1747 -0.2689
  1864G12c C00434449  -0.542   5.330  10.594  0.7647  0.4952 -0.6223
  1864G12c C00334450  -0.459   5.246  10.662 -1.2872  0.4258 -1.0253
  1864G12c C00234451  -0.488   5.230  10.803 -0.4745 -0.0059  0.4415
  1864G12c C00134452  -0.429   5.145  10.909  0.2404 -0.0750  1.5965
  1864G12c C00M34453  -0.292   5.167  10.941 -2.1181  0.4183  0.0482
  1864G12c C00L34454  -0.188   5.170  10.855 -0.3252 -0.9015 -0.9268
  1864G12c C00R34455  -0.060   5.225  10.877  1.6993 -0.2098 -0.6384
  1864G12c C00Q34456   0.025   5.264  10.990 -1.8488 -0.9671 -1.5559
  1864G12c C00V34457   0.159   5.286  10.952  0.3409 -0.6830 -0.3912
  1864G12c C00U34458   0.198   5.303  10.826  1.4959  0.8823 -0.4075
  1864G12c C00T34459   0.113   5.309  10.726 -0.4183  1.9101  1.3245
  1864G12c C01634460   0.136   5.335  10.587  0.4756  0.6437 -1.0373
  1864G12c C01534461   0.264   5.376  10.549  0.9136  1.7513  0.1184
  1864G12c C01034462   0.367   5.359  10.650  0.0226 -0.3571 -0.5203
  1864G12c C01134463   0.509   5.373  10.615 -0.7986 -2.0435 -1.1882
  1864G12c H00534464   0.594   5.361  10.680 -3.1787  1.2874  2.7926
  1864G12c C01234465   0.536   5.417  10.486 -0.4637 -0.5315  0.4304
  1864G12c C01734466   0.670   5.434  10.433  1.1373 -0.1010  0.9002
  1864G12c O00234467   0.754   5.537  10.470  0.2029  0.8762 -0.7827
  1864G12c H00434468   0.795   5.505  10.391  1.8287 -1.0551  0.8052
  1864G12c C01834469   0.704   5.321  10.352 -0.8642  0.3141  0.8752
  1864G12c O00134470   0.823   5.317  10.298  1.3390 -0.0016 -0.1962
  1864G12c H00334471   0.814   5.292  10.208 -2.9501 -4.3940  1.2668
  1864G12c C01934472   0.623   5.194  10.310 -0.0966 -1.4313 -0.0953
  1864G12c H00234473   0.610   5.118  10.387  3.9299  2.3038  4.6578
  1864G12c H00134474   0.521   5.211  10.343 -0.0814 -4.4297  1.7258
  1864G12c O00034475   0.597   5.174  10.164  0.9383 -0.1715 -0.4611
  1864G12c C01A34476   0.674   5.086  10.101  0.0457  0.9179 -0.0982
  1864G12c C02K34477   0.665   4.936  10.129 -0.8852  0.6604  0.2070
  1864G12c O00G34478   0.573   4.900  10.231 -0.6477 -1.1009 -0.1597
  1864G12c C02M34479   0.486   4.792  10.230 -2.3371 -0.0954 -0.4978
  1864G12c H01G34480   0.492   4.750  10.330 -3.4237 -0.4197 -0.5637
  1864G12c H01F34481   0.485   4.727  10.143  0.0172  0.9844 -1.3868
  1864G12c H01E34482   0.386   4.836  10.224 -0.8933  3.5006  0.3019
  1864G12c C02J34483   0.727   4.845  10.052  0.4944  0.6897 -0.1730
  1864G12c H01H34484   0.713   4.738  10.055  5.3947 -0.0801 -1.0528
  1864G12c C02I34485   0.838   4.887   9.959  0.4400 -0.0729  0.3497
  1864G12c C02N34486   0.911   4.787   9.900  1.6347 -0.8257 -0.3987
  1864G12c H01M34487   0.864   4.693   9.926 -2.9765  1.9265  2.0082
  1864G12c C02O34488   1.036   4.796   9.862  0.4782 -0.4331  0.8556
  1864G12c H01L34489   1.087   4.891   9.867  3.2034 -1.6401 -2.3805
  1864G12c C02P34490   1.106   4.671   9.805 -0.4505 -0.3821  0.6549
  1864G12c H01K34491   1.120   4.594   9.882  1.9399  3.7864  4.6125
  1864G12c H01J34492   1.065   4.637   9.710 -2.2332  2.8692  0.1936
  1864G12c O00H34493   1.256   4.696   9.774  0.2544 -2.9625  0.6392
  1864G12c H01I34494   1.243   4.789   9.767 -0.5080 -3.0237  1.2477
  1864G12c C02H34495   0.876   5.025   9.972 -0.6744  0.4754 -1.3377
  1864G12c H01C34496   0.950   5.068   9.906 -1.0362  2.4318 -0.4983
  1864G12c C02L34497   0.784   5.113  10.022  0.5163  1.1482 -1.3807
  1864G12c H01D34498   0.804   5.212   9.984  0.9182 -1.1352 -7.6758
  1864G12c C01334499   0.426   5.426  10.395  0.3788  0.2523 -0.1599
  1864G12c H00034500   0.457   5.431  10.292  2.9428 -5.0878  0.1798
  1864G12c C01434501   0.290   5.394  10.429 -0.8400  2.5173 -0.2264
  1864G12c C00F34502   0.185   5.421  10.341 -0.1211 -0.5567 -0.0339
  1864G12c C00H34503   0.033   5.337  10.494  0.7972  1.0959  0.2916
  1864G12c C00I34504  -0.090   5.268  10.525 -0.4174  1.3883 -0.1052
  1864G12c C00J34505  -0.099   5.231  10.661  0.0323 -1.8451  0.4266
  1864G12c C00Z34506   0.331   5.340  10.790  0.8367  0.5988 -1.1804
  1864G12c C00Y34507   0.425   5.327  10.894  0.1350 -0.5808 -1.9689
  1864G12c H00634508   0.532   5.340  10.889  0.7555  0.1765  6.2277
  1864G12c C00X34509   0.389   5.303  11.036  0.8024  0.8527  0.5735
  1864G12c O00334510   0.488   5.294  11.138 -0.6666  1.7490  0.3229
  1864G12c C01B34511   0.489   5.178  11.204  2.0670  1.0406  0.3720
  1864G12c H00934512   0.504   5.077  11.164  3.1875  3.3458 -5.5754
  1864G12c H00834513   0.395   5.151  11.252 -1.7153 -1.3652 -7.3879
  1864G12c H00734514   0.566   5.169  11.280  2.0084  3.7244  0.7975
  1864G12c C00W34515   0.257   5.296  11.061 -0.1801 -0.3663  0.2932
  1864G12c O00434516   0.212   5.306  11.191 -0.2380 -0.4985  2.0014
  1864G12c C01C34517   0.077   5.307  11.221  1.2503  0.9417 -3.9025
  1864G12c H00A34518   0.056   5.213  11.271  3.2666 -0.1614 -5.0459
  1864G12c C00P34519  -0.023   5.278  11.123  0.6288 -1.6654 -2.2923
  1864G12c C00O34520  -0.164   5.276  11.147 -0.7522 -1.3165 -1.0042
  1864G12c C01D34521  -0.204   5.312  11.279  0.9533  2.1561 -0.0656
  1864G12c H00S34522  -0.133   5.375  11.331  0.1004  4.1619 -1.2939
  1864G12c C01E34523  -0.337   5.330  11.321 -0.1213 -0.5179 -1.5873
  1864G12c O00834524  -0.354   5.399  11.434 -0.4779  0.4990 -0.0913
  1864G12c C01V34525  -0.447   5.348  11.529 -0.9832  0.6529  0.5704
  1864G12c C01Z34526  -0.549   5.454  11.582 -0.7220  0.7369  0.8638
  1864G12c H00R34527  -0.539   5.483  11.686 -9.4118 -0.8286  2.5441
  1864G12c H00Q34528  -0.538   5.533  11.508 -4.8476  2.5352  2.0144
  1864G12c O00934529  -0.685   5.418  11.546 -0.5653  1.0455 -0.1066
  1864G12c H00P34530  -0.692   5.381  11.459  4.3350 -0.2269 -0.0860
  1864G12c C01W34531  -0.456   5.228  11.595 -0.4963  0.9632 -1.0412
  1864G12c H00O34532  -0.509   5.240  11.688  5.7543 -1.5001  3.1952
  1864G12c C01X34533  -0.341   5.128  11.585 -0.3482  0.2404  0.3896
  1864G12c H00N34534  -0.234   5.147  11.582 -0.9852  4.9575  2.9241
  1864G12c H00M34535  -0.347   5.053  11.664 -2.6828 -3.1746 -2.8066
  1864G12c C01Y34536  -0.363   5.024  11.470  0.4526 -0.8051  0.7886
  1864G12c C02D34537  -0.481   4.963  11.439  0.4498 -1.2207  1.1026
  1864G12c H01934538  -0.573   4.979  11.491  2.2928 -6.5716  6.5597
  1864G12c C02C34539  -0.478   4.869  11.327  0.7080  1.1685  0.6414
  1864G12c H01A34540  -0.572   4.838  11.284  1.3649 -1.0003  0.6818
  1864G12c C02B34541  -0.362   4.829  11.257 -0.7878 -1.8363  0.7295
  1864G12c O00E34542  -0.361   4.772  11.127  0.9127 -0.4345  0.5608
  1864G12c H01B34543  -0.280   4.793  11.083  1.2616 -3.5589 -0.4132
  1864G12c C02F34544  -0.237   4.860  11.314 -0.0147  0.0466 -2.5271
  1864G12c O00F34545  -0.123   4.812  11.254  1.0637 -0.5704  0.8005
  1864G12c C02G34546  -0.109   4.668  11.267 -0.6998  1.9688  0.9254
  1864G12c H01734547  -0.120   4.641  11.372  4.6421 -1.7133  0.7103
  1864G12c H01634548  -0.007   4.664  11.228 -2.0104  5.8024 -3.4203
  1864G12c H01534549  -0.178   4.614  11.201 -1.5176  0.8818  2.6479
  1864G12c C02E34550  -0.248   4.972  11.404  0.2773 -1.4336 -0.9761
  1864G12c H01834551  -0.159   5.032  11.402  0.2332 -1.2122  1.8957
  1864G12c C01F34552  -0.444   5.321  11.225  1.3949  0.4483  0.0427
  1864G12c C01G34553  -0.586   5.348  11.237 -0.8974 -0.6912  0.2427
  1864G12c H00L34554  -0.634   5.418  11.305  3.3176  7.8054 -4.6624
  1864G12c C01H34555  -0.670   5.317  11.126  0.3030  1.7926  1.7133
  1864G12c H00B34556  -0.774   5.326  11.155  0.3136  8.9023  0.5981
  1864G12c C01I34557  -0.621   5.262  10.996  0.8224  0.2387  0.2816
  1864G12c C01U34558  -0.416   5.246  11.105 -1.9137 -0.3431  0.1304
  1864G12c C00S34559  -0.008   5.255  10.757 -0.2701  0.8623 -0.0874
  1864G12c C00K34560  -0.223   5.205  10.718  1.3033  0.2235 -1.8647
  1864G12c C00N34561  -0.280   5.234  11.070  1.3943  2.1769  0.4765
  1864G12c C00034562  -0.503   5.178  11.018 -0.1909 -2.8716 -0.5762
  1864G12c C01J34563  -0.608   5.290  10.854 -2.1421  0.7335 -1.0020
  1864G12c C01K34564  -0.701   5.386  10.775 -0.6395 -0.6318  0.6806
  1864G12c C01P34565  -0.839   5.437  10.803 -0.0620  0.8472 -0.2520
  1864G12c C01Q34566  -0.915   5.376  10.905  1.5773 -0.5934 -0.3192
  1864G12c H00G34567  -0.909   5.427  11.000 -0.0129  1.7171 -1.4175
  1864G12c C01R34568  -0.998   5.266  10.882  0.4209  0.5041  0.5607
  1864G12c H00F34569  -1.001   5.214  10.788 -0.5244  4.2445 -1.5688
  1864G12c C01S34570  -1.076   5.226  11.008  0.1423 -1.5828  2.3299
  1864G12c H00E34571  -0.996   5.191  11.073  6.1491  0.7618 -3.2663
  1864G12c H00D34572  -1.136   5.314  11.032  0.2460 -1.4778  2.2098
  1864G12c O00534573  -1.157   5.114  10.950 -1.0469 -2.1020  0.1365
  1864G12c H00C34574  -1.101   5.039  10.965  3.2385  1.3960  2.7707
  1864G12c C01O34575  -0.909   5.533  10.738 -0.8128 -0.1812 -0.3341
  1864G12c H00H34576  -1.002   5.587  10.749 -0.9464 -0.3630 -0.5694
  1864G12c C01N34577  -0.853   5.560  10.614 -0.4957  0.5402 -0.7258
  1864G12c O00634578  -0.943   5.643  10.562 -0.0250  0.2731 -0.8700
  1864G12c C01T34579  -0.923   5.698  10.427 -0.2666 -0.2315 -0.0443
  1864G12c H00K34580  -1.010   5.760  10.402  0.7783  0.2358 -2.6559
  1864G12c H00J34581  -0.868   5.788  10.399  0.3755 -2.5256 -7.3994
  1864G12c H00I34582  -0.970   5.633  10.352 -6.0375 -2.2245  4.8691
  1864G12c C01M34583  -0.731   5.489  10.565 -0.4685  1.0159  0.1448
  1864G12c C02034584  -0.327   5.218  10.621  1.2708 -0.7363 -1.0287
  1864G12c C02134585  -0.317   5.228  10.489 -0.2211 -1.1249 -0.6389
  1864G12c C01L34586  -0.666   5.382  10.637  0.6614 -0.2603  1.4873
  1864G12c O00734587  -0.660   5.565  10.473 -0.2694 -0.7206  0.9170
  1864G12c C02234588  -0.395   5.306  10.403  0.3212 -1.0780  1.9288
  1864G12c C02334589  -0.185   5.241  10.431 -0.5562 -0.2075  0.7178
  1864G12c C00G34590   0.055   5.386  10.366 -0.3544  1.5770  0.3269
  1864G12c C00E34591   0.211   5.503  10.223 -0.9480 -1.4887  0.7040
  1864G12c O00A34592   0.324   5.591  10.203 -0.7717 -1.7674 -0.3485
  1864G12c C02434593   0.299   5.721  10.261 -0.4237  1.2196  0.1158
  1864G12c H00V34594   0.241   5.783  10.192 -1.7762 -4.5939 -4.3562
  1864G12c H00U34595   0.389   5.757  10.310  0.8275 -6.8571  4.6332
  1864G12c H00T34596   0.214   5.723  10.330  1.3853 -0.6304  2.4721
  1874G12c C00D34597   1.668   1.186   4.513 -0.8144 -0.2167  0.0002
  1874G12c O00B34598   1.731   1.072   4.477  0.6440 -1.1492  0.1108
  1874G12c C02534599   1.661   0.948   4.468 -0.1139 -1.8645  0.1353
  1874G12c C02634600   1.590   0.929   4.320  1.4049 -1.2262 -0.7217
  1874G12c H00Y34601   1.656   0.996   4.265  3.5604 -0.2944  2.8189
  1874G12c H00X34602   1.482   0.923   4.325  1.2463  2.4464  5.9888
  1874G12c O00C34603   1.643   0.810   4.268  0.3704 -1.0318 -0.2696
  1874G12c H00W34604   1.732   0.843   4.267 -1.7238  5.4573  0.7904
  1874G12c C02734605   1.676   0.874   4.581  0.8011  2.2203  0.7092
  1874G12c O00D34606   1.746   0.909   4.686 -0.0584  0.6083 -1.2281
  1874G12c H00Z34607   1.787   0.826   4.705 -0.0230  2.3227  9.0919
  1874G12c C02834608   1.641   0.734   4.572  0.7234 -2.0455 -1.6231
  1874G12c C02934609   1.754   0.651   4.544  0.0743 -0.6899  1.6733
  1874G12c H01034610   1.837   0.686   4.484  1.3943 -2.8356  2.1732
  1874G12c C02T34611   1.739   0.511   4.524 -0.7659 -0.8910 -0.4574
  1874G12c H01O34612   1.820   0.447   4.490 -1.2232 -2.5174  1.3978
  1874G12c C02S34613   1.613   0.449   4.557  0.4721  0.4232  0.1821
  1874G12c O00J34614   1.615   0.318   4.554 -0.4168 -1.2202  0.5716
  1874G12c H01P34615   1.538   0.289   4.601 -1.5622 -2.7771 -2.1030
  1874G12c C02R34616   1.500   0.524   4.589  0.2324 -0.7184 -0.0997
  1874G12c O00I34617   1.385   0.466   4.625  0.3927  0.2471  2.1254
  1874G12c C02Q34618   1.347   0.516   4.742  0.2827 -0.2025  1.2372
  1874G12c H01N34619   1.327   0.623   4.728  5.7784  0.8270  0.2090
  1874G12c H01R34620   1.424   0.519   4.819  0.5341  3.5884  0.9523
  1874G12c H01Q34621   1.264   0.450   4.767  0.7131  0.4580  4.6420
  1874G12c C02A34622   1.508   0.667   4.599 -1.2753 -0.0644 -1.6507
  1874G12c H01134623   1.435   0.736   4.637 -0.1760 -2.4665  5.6085
  1874G12c C00C34624   1.599   1.175   4.635  0.5497 -1.2747  0.1420
  1874G12c H01234625   1.587   1.081   4.686 -3.1780 -2.0611 -1.9669
  1874G12c C00B34626   1.553   1.300   4.697 -1.6109  0.2810  0.7204
  1874G12c C00A34627   1.481   1.295   4.836  1.5695 -2.4847  0.8404
  1874G12c C00934628   1.384   1.192   4.883  1.3535  1.0375  1.5720
  1874G12c C00834629   1.357   1.066   4.831 -0.1806 -0.1979 -0.4912
  1874G12c H01334630   1.379   1.036   4.730 -0.2139  0.4668 -0.7029
  1874G12c C00734631   1.230   1.006   4.873  1.8833 -0.6585  0.4587
  1874G12c H01434632   1.204   0.924   4.806 -1.0868  4.3098 -4.9191
  1874G12c C00634633   1.129   1.066   4.954  0.8808 -0.1817 -1.5640
  1874G12c C00534634   1.163   1.185   5.001  1.7100 -0.1617  1.1216
  1874G12c C00434635   1.056   1.279   5.043  0.3676  0.3377  0.5494
  1874G12c C00334636   1.086   1.408   5.025 -0.4139 -0.3574 -0.4381
  1874G12c C00234637   0.975   1.509   5.056  0.1330  1.2237  0.0981
  1874G12c C00134638   0.959   1.658   5.062 -0.8144 -0.1195 -0.3150
  1874G12c C00M34639   0.995   1.749   4.958  0.3261 -1.3058  0.6470
  1874G12c C00L34640   1.088   1.694   4.863  0.6200  0.1236  0.5433
  1874G12c C00R34641   1.133   1.772   4.753  0.5223  0.7179  1.8911
  1874G12c C00Q34642   1.071   1.870   4.665 -0.1380  1.1463  0.8714
  1874G12c C00V34643   1.163   1.891   4.547 -0.4210  0.7177 -0.0317
  1874G12c C00U34644   1.284   1.820   4.508  0.1936 -0.3517 -0.0453
  1874G12c C00T34645   1.336   1.735   4.607  0.4841 -2.1687 -1.5088
  1874G12c C01634646   1.442   1.641   4.589  0.6203  1.0480 -0.1208
  1874G12c C01534647   1.497   1.638   4.457  0.7776  1.4897  0.8231
  1874G12c C01034648   1.451   1.742   4.359 -1.5665  0.9975  0.4048
  1874G12c C01134649   1.533   1.751   4.247 -2.5253 -2.0876  0.7892
  1874G12c H00534650   1.511   1.825   4.171 -3.7469  0.3019  3.3803
  1874G12c C01234651   1.603   1.654   4.195  0.4796  0.5504 -0.5134
  1874G12c C01734652   1.645   1.663   4.056 -0.2974 -0.5553 -0.0883
  1874G12c O00234653   1.561   1.580   3.982  0.9879 -0.2187  0.4148
  1874G12c H00434654   1.514   1.518   4.035  0.9074 -0.3495  0.1946
  1874G12c C01834655   1.768   1.684   4.012  0.8638 -1.7192 -1.8146
  1874G12c O00134656   1.893   1.715   4.072  0.3559 -0.5681 -0.6903
  1874G12c H00334657   1.932   1.746   3.991  4.8359  6.5494  3.6768
  1874G12c C01934658   1.788   1.663   3.859 -0.9613  0.8808  3.1218
  1874G12c H00234659   1.753   1.566   3.824  1.8537  0.7204  0.5476
  1874G12c H00134660   1.721   1.709   3.787 -0.1202 -0.3631  1.5177
  1874G12c O00034661   1.921   1.683   3.824 -1.7557  0.3068  0.9957
  1874G12c C01A34662   2.027   1.611   3.847 -0.5349  1.3099 -0.4203
  1874G12c C02K34663   2.144   1.666   3.895  1.2256  0.2817  0.6664
  1874G12c O00G34664   2.147   1.806   3.938 -1.5885 -0.6913  0.7207
  1874G12c C02M34665   2.109   1.906   3.844 -1.1373 -0.7193  0.8696
  1874G12c H01G34666   2.133   1.991   3.907 -4.2053 -0.8753  2.3591
  1874G12c H01F34667   2.000   1.908   3.842 -1.3961 -5.4642 -4.7892
  1874G12c H01E34668   2.159   1.863   3.757 -1.5976 -0.8193  0.6498
  1874G12c C02J34669   2.265   1.607   3.884 -1.0308 -0.3264  0.7732
  1874G12c H01H34670   2.362   1.636   3.922  1.3673 -4.7213 -1.5564
  1874G12c C02I34671   2.286   1.474   3.815  0.5607 -1.1639 -0.3529
  1874G12c C02N34672   2.402   1.387   3.808  0.5030  0.0992  2.1296
  1874G12c H01M34673   2.403   1.309   3.882  1.0126  1.5413  3.6784
  1874G12c C02O34674   2.493   1.420   3.726 -1.5047 -0.9433 -1.3657
  1874G12c H01L34675   2.485   1.510   3.667  1.9161  2.1372  2.6058
  1874G12c C02P34676   2.639   1.346   3.695 -0.7648 -0.5775 -1.3208
  1874G12c H01K34677   2.675   1.253   3.738  5.7397  1.2708 -2.1359
  1874G12c H01J34678   2.611   1.301   3.600  1.5419  0.3306 -2.4605
  1874G12c O00H34679   2.747   1.438   3.683 -0.7222 -0.5914  1.2548
  1874G12c H01I34680   2.782   1.462   3.767  0.0539  3.8674 -0.2423
  1874G12c C02H34681   2.160   1.406   3.782 -0.0542 -0.8084  1.0296
  1874G12c H01C34682   2.133   1.330   3.710 -3.3730  0.5073  0.8046
  1874G12c C02L34683   2.040   1.487   3.790  1.0394 -0.2978  0.5831
  1874G12c H01D34684   1.969   1.454   3.716  1.3492  6.9132 -3.3837
  1874G12c C01334685   1.631   1.557   4.279  2.0016  0.5459 -0.8075
  1874G12c H00034686   1.658   1.484   4.204 -2.7812  1.4480 -3.6736
  1874G12c C01434687   1.577   1.530   4.413  2.4500  0.2045  0.4612
  1874G12c C00F34688   1.592   1.422   4.503 -0.6815  0.9721  1.6444
  1874G12c C00H34689   1.466   1.532   4.670  0.9548 -0.2440  0.6038
  1874G12c C00I34690   1.405   1.522   4.797  0.4810 -1.2397 -0.1766
  1874G12c C00J34691   1.288   1.617   4.815 -0.4015  0.6536 -1.7847
  1874G12c C00Z34692   1.356   1.841   4.392 -0.2684  0.0861  0.0447
  1874G12c C00Y34693   1.331   1.970   4.319  1.1261  1.2214  0.2898
  1874G12c H00634694   1.389   2.017   4.241 -3.7739 -1.0864 -5.1563
  1874G12c C00X34695   1.200   2.044   4.352 -0.5053 -0.5150  0.3925
  1874G12c O00334696   1.157   2.149   4.280  0.0596 -0.0960  0.3167
  1874G12c C01B34697   1.035   2.150   4.219  0.5299  0.5311  0.7702
  1874G12c H00934698   1.018   2.181   4.116 -1.2451  1.5839  1.3578
  1874G12c H00834699   0.959   2.200   4.280  2.3111 -2.6102  5.8435
  1874G12c H00734700   0.982   2.058   4.240 -5.3588  4.0203  2.5756
  1874G12c C00W34701   1.138   2.007   4.471  1.4029  1.1525 -0.5003
  1874G12c O00434702   1.028   2.088   4.516  0.1410  1.5971 -1.0879
  1874G12c C01C34703   0.917   2.020   4.559  0.5661  1.9638  2.6200
  1874G12c H00A34704   0.833   2.085   4.541 -0.5290 -0.4602 -1.5931
  1874G12c C00P34705   0.951   1.930   4.674  1.0640 -2.3230 -0.2510
  1874G12c C00O34706   0.858   1.910   4.791  0.6527  0.6919  0.9678
  1874G12c C01D34707   0.729   1.966   4.791  0.6096  1.0115 -2.0500
  1874G12c H00S34708   0.714   2.068   4.758 -5.2264  1.8488  2.4857
  1874G12c C01E34709   0.619   1.900   4.845 -0.2119 -1.3177 -0.9893
  1874G12c O00834710   0.493   1.958   4.825  2.0679 -1.2654  0.5393
  1874G12c C01V34711   0.463   2.018   4.699 -0.6177  1.7290  0.1593
  1874G12c C01Z34712   0.336   2.091   4.710  1.8994 -0.2405 -1.3108
  1874G12c H00R34713   0.381   2.174   4.765 -0.7962  1.2783 -1.3095
  1874G12c H00Q34714   0.286   2.128   4.621 -0.8169  0.5585  0.4902
  1874G12c O00934715   0.242   2.001   4.789  0.6537  0.0293 -0.9944
  1874G12c H00P34716   0.292   1.936   4.837  2.8074  3.8225  2.1277
  1874G12c C01W34717   0.522   1.991   4.575 -1.4056 -2.1448  2.2946
  1874G12c H00O34718   0.616   1.937   4.575 -2.2311 -3.6919 -0.9373
  1874G12c C01X34719   0.445   2.020   4.436 -1.2111 -1.3043  1.4744
  1874G12c H00N34720   0.461   1.925   4.384  8.6787 -0.6986  2.3552
  1874G12c H00M34721   0.339   2.022   4.461 -2.7358 -4.9203 -3.7120
  1874G12c C01Y34722   0.558   2.092   4.338 -0.1171 -0.2601 -0.4805
  1874G12c C02D34723   0.650   2.026   4.257  0.4268 -0.0624  0.9171
  1874G12c H01934724   0.653   1.923   4.228 -1.3674 -0.2554  1.3529
  1874G12c C02C34725   0.726   2.117   4.173 -0.2368  1.9842 -1.8405
  1874G12c H01A34726   0.799   2.083   4.100  6.4079 -2.0674  5.8348
  1874G12c C02B34727   0.713   2.260   4.173 -1.6880 -1.7518 -1.4016
  1874G12c O00E34728   0.818   2.331   4.125  0.2785  0.5813 -1.6469
  1874G12c H01B34729   0.783   2.415   4.098  2.8004  0.9005 -4.3046
  1874G12c C02F34730   0.607   2.320   4.252 -0.4619  0.7868 -0.0209
  1874G12c O00F34731   0.627   2.457   4.274  1.5380  1.7309 -0.4567
  1874G12c C02G34732   0.676   2.487   4.406  1.6326  0.1883 -0.7387
  1874G12c H01734733   0.639   2.407   4.470 -3.1230  0.4239 -2.9665
  1874G12c H01634734   0.634   2.583   4.434  2.8577  0.7762 -0.9142
  1874G12c H01534735   0.784   2.483   4.400  1.6799 -0.3149  0.2770
  1874G12c C02E34736   0.531   2.238   4.329 -1.8698  0.6789 -0.2218
  1874G12c H01834737   0.436   2.271   4.367 -3.6696 -1.0093 -3.0977
  1874G12c C01F34738   0.640   1.791   4.938  0.8928 -0.5184 -1.2477
  1874G12c C01G34739   0.548   1.695   4.962  0.4822 -0.7663  1.1656
  1874G12c H00L34740   0.452   1.711   4.915 -0.8894 -7.4972  1.2461
  1874G12c C01H34741   0.607   1.584   5.019 -0.7297  0.8697  1.1974
  1874G12c H00B34742   0.550   1.493   5.032  1.1594 -0.0724  3.0202
  1874G12c C01I34743   0.745   1.566   5.088 -0.6590  0.2716  1.3256
  1874G12c C01U34744   0.775   1.798   5.002 -1.7871 -0.6632 -1.1205
  1874G12c C00S34745   1.259   1.721   4.723  0.6758 -0.4852  0.1676
  1874G12c C00K34746   1.193   1.602   4.910  1.3349 -0.1279 -0.1022
  1874G12c C00N34747   0.885   1.829   4.906  3.4869  2.0897 -0.9293
  1874G12c C00034748   0.827   1.684   5.081  1.2506  1.1301  0.9169
  1874G12c C01J34749   0.845   1.460   5.110  0.9624 -0.5370  0.4590
  1874G12c C01K34750   0.808   1.317   5.109 -0.0677  0.3496  0.4203
  1874G12c C01P34751   0.692   1.222   5.175  0.1411  2.1958 -0.0087
  1874G12c C01Q34752   0.570   1.264   5.242 -1.2357  0.7757  0.2187
  1874G12c H00G34753   0.527   1.334   5.312 -1.5562  1.2287 -0.4206
  1874G12c C01R34754   0.462   1.214   5.189  1.9875  0.0443 -0.5786
  1874G12c H00F34755   0.462   1.151   5.101 -6.2460 -1.0202 -0.1804
  1874G12c C01S34756   0.314   1.245   5.194 -0.4584  0.0584 -1.7466
  1874G12c H00E34757   0.286   1.344   5.230  0.5417 -1.1182  2.6089
  1874G12c H00D34758   0.258   1.221   5.104  1.1770 -2.7128 -2.0542
  1874G12c O00534759   0.268   1.143   5.278 -0.1133  0.0580  1.2085
  1874G12c H00C34760   0.182   1.174   5.299  0.0249  3.6958 -2.8954
  1874G12c C01O34761   0.707   1.089   5.181  0.2442  1.0649 -1.1440
  1874G12c H00H34762   0.647   1.049   5.262 -0.2610  1.5726 -1.2641
  1874G12c C01N34763   0.801   1.020   5.106  0.1407 -1.2891 -0.5050
  1874G12c O00634764   0.826   0.877   5.116 -0.3326  0.7309 -0.4738
  1874G12c C01T34765   0.733   0.833   5.031  0.6401 -0.1127  0.5367
  1874G12c H00K34766   0.631   0.837   5.069 -0.6986  3.1724 -3.0508
  1874G12c H00J34767   0.749   0.728   5.004  2.6955  0.4287 -0.4502
  1874G12c H00I34768   0.751   0.870   4.930  0.9529 -2.3885 -0.2816
  1874G12c C01M34769   0.909   1.099   5.052 -0.0303  1.4573  2.0063
  1874G12c C02034770   1.206   1.480   4.989 -1.1282 -1.0553 -1.3749
  1874G12c C02134771   1.324   1.391   4.975  0.6629 -3.2603 -1.2400
  1874G12c C01L34772   0.925   1.227   5.088 -0.8540  0.3150 -0.9854
  1874G12c O00734773   1.001   1.015   4.963 -0.4520 -1.6837 -0.8201
  1874G12c C02234774   1.301   1.244   4.987 -0.5129 -0.1187  0.3313
  1874G12c C02334775   1.444   1.425   4.893  1.3677  0.1489 -0.2379
  1874G12c C00G34776   1.543   1.420   4.622 -0.0273 -0.9964 -1.8300
  1874G12c C00E34777   1.653   1.306   4.446  0.9326 -0.1773 -0.1351
  1874G12c O00A34778   1.720   1.325   4.324  0.1937  1.3242  0.3624
  1874G12c C02434779   1.872   1.292   4.341  0.6989  0.6264  0.2044
  1874G12c H00V34780   1.883   1.184   4.334 -4.9790  0.1045 -5.8702
  1874G12c H00U34781   1.912   1.313   4.440 -1.0800  6.1557 -0.0418
  1874G12c H00T34782   1.944   1.336   4.271  3.4777  2.1197  3.8440
  1884G12c C00D34783   5.649   2.035   1.693 -0.9052 -0.6376 -0.5486
  1884G12c O00B34784   5.597   1.912   1.660  1.2086  0.6480  0.3145
  1884G12c C02534785   5.477   1.866   1.712  0.5094 -0.4667 -0.1762
  1884G12c C02634786   5.393   1.946   1.813  0.4807  0.1469  0.9752
  1884G12c H00Y34787   5.316   1.982   1.745 -0.8982 -2.3483  1.1219
  1884G12c H00X34788   5.427   2.038   1.860  4.9662  0.6416 -2.8370
  1884G12c O00C34789   5.347   1.881   1.933  0.6693 -1.5765  0.3658
  1884G12c H00W34790   5.300   1.827   1.871 -4.4862  2.1921  0.6525
  1884G12c C02734791   5.447   1.740   1.681 -0.5390  0.1421  0.5065
  1884G12c O00D34792   5.309   1.714   1.692 -0.5253 -1.4199 -0.7924
  1884G12c H00Z34793   5.287   1.624   1.674 -1.2028 -1.1619 -1.3034
  1884G12c C02834794   5.531   1.648   1.624 -1.0588  0.9370 -0.5338
  1884G12c C02934795   5.674   1.649   1.649 -1.4840 -0.3257  1.3104
  1884G12c H01034796   5.711   1.717   1.725  0.4364 -0.2915  0.3567
  1884G12c C02T34797   5.753   1.592   1.556  0.3927  0.4367  1.1213
  1884G12c H01O34798   5.856   1.611   1.585  0.8135  0.5410 -0.4003
  1884G12c C02S34799   5.710   1.486   1.463  0.0630  1.6323  0.6052
  1884G12c O00J34800   5.797   1.411   1.393 -0.6251  0.7068  0.1989
  1884G12c H01P34801   5.730   1.345   1.398  1.1951 -1.1020  1.6985
  1884G12c C02R34802   5.574   1.453   1.477  0.4051 -0.0355  0.7164
  1884G12c O00I34803   5.529   1.342   1.430  0.6051  1.8254 -1.8434
  1884G12c C02Q34804   5.434   1.328   1.322  0.4388 -1.1296 -0.2639
  1884G12c H01N34805   5.412   1.410   1.253  3.8041 -3.3292 -4.2150
  1884G12c H01R34806   5.358   1.300   1.395  0.9833 -0.6647  0.4875
  1884G12c H01Q34807   5.464   1.239   1.266 -4.5292 -2.0377 -1.7350
  1884G12c C02A34808   5.491   1.529   1.559 -0.4351  0.7918  1.4599
  1884G12c H01134809   5.387   1.502   1.573 -0.8097  0.6252 -1.2139
  1884G12c C00C34810   5.588   2.144   1.631 -0.2092  2.1935  1.0159
  1884G12c H01234811   5.502   2.102   1.583  1.4246 -2.9804  2.2613
  1884G12c C00B34812   5.630   2.270   1.674  0.0040 -0.6271 -0.0402
  1884G12c C00A34813   5.560   2.387   1.654 -2.1617 -0.4824 -0.2293
  1884G12c C00934814   5.459   2.431   1.555 -1.8708 -1.3685 -0.8152
  1884G12c C00834815   5.362   2.367   1.470  0.5319  0.2694 -0.4524
  1884G12c H01334816   5.349   2.261   1.455 -1.4538  0.3450  0.4938
  1884G12c C00734817   5.296   2.458   1.370 -0.3724 -0.9949 -0.1022
  1884G12c H01434818   5.234   2.409   1.297 -6.3261  0.7781  3.4567
  1884G12c C00634819   5.344   2.595   1.365  1.5338 -1.1793 -0.8855
  1884G12c C00534820   5.423   2.645   1.462 -2.1236  1.1225 -2.1967
  1884G12c C00434821   5.490   2.766   1.441 -1.1485  0.6406  0.9228
  1884G12c C00334822   5.596   2.817   1.527 -1.4833  0.0502  0.0729
  1884G12c C00234823   5.670   2.931   1.494  2.2467  1.9174  0.2653
  1884G12c C00134824   5.790   3.004   1.545 -0.2700 -1.9252 -0.0137
  1884G12c C00M34825   5.914   2.939   1.594 -0.2279 -0.2878 -0.6766
  1884G12c C00L34826   5.911   2.815   1.657 -0.0063  1.9040 -0.1655
  1884G12c C00R34827   6.015   2.735   1.700 -1.7762  1.4852 -0.6938
  1884G12c C00Q34828   6.156   2.736   1.665  0.5294 -0.7400 -0.4500
  1884G12c C00V34829   6.233   2.619   1.690  1.2664  0.7969  0.8569
  1884G12c C00U34830   6.184   2.511   1.757  0.6582 -0.2201  0.2149
  1884G12c C00T34831   6.046   2.499   1.785 -1.0506  1.2742 -1.0157
  1884G12c C01634832   5.975   2.383   1.791  0.6678  1.1731 -0.6283
  1884G12c C01534833   6.051   2.265   1.797 -1.3149 -0.4816  1.3353
  1884G12c C01034834   6.192   2.272   1.783 -0.5990 -1.6156  0.7725
  1884G12c C01134835   6.258   2.148   1.781 -0.0632  1.7572  1.0684
  1884G12c H00534836   6.365   2.146   1.764  0.7296 -0.7019  5.4851
  1884G12c C01234837   6.201   2.008   1.780 -0.3927 -0.8892 -0.6341
  1884G12c C01734838   6.260   1.885   1.739  2.3655  0.9209  0.7145
  1884G12c O00234839   6.300   1.877   1.614  0.5180  0.0138 -0.2622
  1884G12c H00434840   6.269   1.793   1.583 -0.2056 -0.0362  0.5931
  1884G12c C01834841   6.306   1.795   1.825  0.5187  2.2912 -0.7101
  1884G12c O00134842   6.281   1.820   1.964 -0.9469 -0.8909  0.5829
  1884G12c H00334843   6.206   1.877   1.962 -2.5652 -2.7910  3.2451
  1884G12c C01934844   6.375   1.658   1.812  0.5391 -0.4258  0.1430
  1884G12c H00234845   6.462   1.644   1.746  0.7884  1.3975  0.0612
  1884G12c H00134846   6.422   1.636   1.908 -1.4774  0.3589  1.3307
  1884G12c O00034847   6.272   1.579   1.768  0.3413 -1.1085 -0.4253
  1884G12c C01A34848   6.321   1.476   1.679 -2.2494 -0.3062  0.2699
  1884G12c C02K34849   6.380   1.346   1.727 -0.7997 -0.2957 -0.1189
  1884G12c O00G34850   6.378   1.322   1.866  1.0850  0.0364 -0.9975
  1884G12c C02M34851   6.248   1.307   1.919  0.5957  0.9829 -1.2905
  1884G12c H01G34852   6.162   1.281   1.857 -0.2510  1.7391 -0.4519
  1884G12c H01F34853   6.246   1.246   2.009 -2.3452  1.1947 -1.1620
  1884G12c H01E34854   6.208   1.407   1.938  7.4216  3.4089  1.9200
  1884G12c C02J34855   6.441   1.254   1.638  1.9772  1.1459 -0.6706
  1884G12c H01H34856   6.483   1.161   1.674  1.3190  0.0292 -2.7380
  1884G12c C02I34857   6.399   1.274   1.498  1.3321  0.8213 -0.8448
  1884G12c C02N34858   6.439   1.180   1.398  1.4448  1.7170 -0.0216
  1884G12c H01M34859   6.466   1.200   1.295  5.8619 10.0775  2.3014
  1884G12c C02O34860   6.403   1.055   1.424 -0.0977 -0.1717  0.5419
  1884G12c H01L34861   6.347   1.038   1.515 -0.7183  0.9836  0.3898
  1884G12c C02P34862   6.411   0.945   1.340  0.2966  0.3717  0.0403
  1884G12c H01K34863   6.338   0.866   1.358 -0.0012  0.5388 -0.4133
  1884G12c H01J34864   6.492   0.891   1.388 -2.0435 -1.5988  1.9389
  1884G12c O00H34865   6.482   0.957   1.225  0.6509 -0.3726 -0.3397
  1884G12c H01I34866   6.426   1.002   1.165  1.9735 -0.2914 -1.5406
  1884G12c C02H34867   6.322   1.394   1.456 -1.7113 -0.2287  0.8474
  1884G12c H01C34868   6.290   1.379   1.354 -2.2722  2.2052  0.6152
  1884G12c C02L34869   6.269   1.478   1.558 -1.0437  0.6746 -0.5653
  1884G12c H01D34870   6.218   1.568   1.529  0.6335  1.4977 -1.0127
  1884G12c C01334871   6.073   2.027   1.813 -0.1359 -0.6835 -0.3581
  1884G12c H00034872   6.011   1.944   1.783  0.2049 -2.0460  2.5174
  1884G12c C01434873   5.995   2.143   1.793  0.5576  0.5965  0.2311
  1884G12c C00F34874   5.852   2.142   1.748  0.0174 -0.1754  0.1241
  1884G12c C00H34875   5.837   2.381   1.763 -1.3863 -1.2497  0.5481
  1884G12c C00I34876   5.765   2.500   1.742  1.9093 -0.7702 -0.5865
  1884G12c C00J34877   5.834   2.610   1.737 -1.3943 -0.1799  1.2608
  1884G12c C00Z34878   6.259   2.398   1.777  1.6908 -0.6567  0.3500
  1884G12c C00Y34879   6.402   2.416   1.769  1.4613 -0.9514 -0.4224
  1884G12c H00634880   6.465   2.328   1.772 -0.7366 -2.6020  5.9328
  1884G12c C00X34881   6.457   2.539   1.712 -1.0920  0.6511  0.6108
  1884G12c O00334882   6.598   2.564   1.718 -0.0726  0.9487 -1.0159
  1884G12c C01B34883   6.679   2.454   1.661 -3.0260 -0.6672 -0.5260
  1884G12c H00934884   6.771   2.496   1.619  2.6860 -8.0241  3.3896
  1884G12c H00834885   6.620   2.385   1.601 -2.3855 -0.6788 -1.1592
  1884G12c H00734886   6.736   2.393   1.731  1.8624  2.7759 -1.1971
  1884G12c C00W34887   6.366   2.642   1.679 -0.2328 -0.6198 -0.2820
  1884G12c O00434888   6.419   2.758   1.652 -0.2913 -1.5704 -0.8826
  1884G12c C01C34889   6.345   2.813   1.546  0.7120 -0.0306 -0.3705
  1884G12c H00A34890   6.363   2.754   1.458  0.9860 -1.3002  0.5330
  1884G12c C00P34891   6.216   2.836   1.582 -0.6684  0.2264 -1.0582
  1884G12c C00O34892   6.162   2.948   1.497 -1.2557 -0.3528 -0.3773
  1884G12c C01D34893   6.234   2.978   1.367 -0.3361  0.1486 -0.0308
  1884G12c H00S34894   6.341   2.963   1.367 -0.1950  1.0344  1.6299
  1884G12c C01E34895   6.162   3.035   1.260 -1.2978  1.0792  0.1355
  1884G12c O00834896   6.226   3.040   1.147  1.1988 -0.0278  0.6908
  1884G12c C01V34897   6.350   3.105   1.128  0.6680  1.4319 -0.2364
  1884G12c C01Z34898   6.454   3.033   1.041  0.3423 -0.0526  1.3590
  1884G12c H00R34899   6.422   2.929   1.048 -0.8032  0.1951  0.1227
  1884G12c H00Q34900   6.460   3.087   0.946 -2.4851  2.6827  2.6094
  1884G12c O00934901   6.572   3.063   1.121  0.7140 -0.2176 -0.1681
  1884G12c H00P34902   6.551   3.050   1.212  4.3975 -7.2262  0.0685
  1884G12c C01W34903   6.350   3.239   1.123  0.3450 -0.6513  1.2311
  1884G12c H00O34904   6.433   3.306   1.104 -2.0954  0.9885 -4.5911
  1884G12c C01X34905   6.240   3.338   1.180 -0.2774  0.1537  0.3979
  1884G12c H00N34906   6.176   3.279   1.245  1.0674 -0.4741  1.1624
  1884G12c H00M34907   6.271   3.417   1.248 -0.0459  3.4175 -3.3130
  1884G12c C01Y34908   6.162   3.415   1.084 -0.5393 -0.5928  0.4774
  1884G12c C02D34909   6.018   3.434   1.083  0.0449 -0.9200  0.4325
  1884G12c H01934910   5.937   3.404   1.148 -2.2130 -3.4369 -3.3865
  1884G12c C02C34911   5.946   3.524   1.003  0.4893  1.9602 -0.7840
  1884G12c H01A34912   5.839   3.512   0.993 -0.9464 -1.3265 11.2350
  1884G12c C02B34913   6.027   3.616   0.922  0.6630 -0.3133  0.6921
  1884G12c O00E34914   5.981   3.715   0.847 -0.2834 -0.4241 -0.0918
  1884G12c H01B34915   6.063   3.743   0.809 -0.9610  1.4938 -0.1927
  1884G12c C02F34916   6.163   3.589   0.925 -0.0095 -0.8772  1.1511
  1884G12c O00F34917   6.219   3.678   0.833  0.2908  0.1993  0.8405
  1884G12c C02G34918   6.342   3.725   0.895  0.2057 -0.2407  0.9675
  1884G12c H01734919   6.427   3.736   0.828  0.5391 -1.7466  1.1203
  1884G12c H01634920   6.318   3.817   0.948  3.5473  0.1319  1.9511
  1884G12c H01534921   6.366   3.676   0.989  1.8755  2.4968  2.0038
  1884G12c C02E34922   6.232   3.489   0.986 -1.7439 -0.9593 -0.0507
  1884G12c H01834923   6.338   3.488   0.967 -1.6999 -0.4883  0.1585
  1884G12c C01F34924   6.023   3.057   1.272  3.0152  0.1456 -1.4642
  1884G12c C01G34925   5.940   3.074   1.168 -1.7688  0.5078  0.6336
  1884G12c H00L34926   5.987   3.077   1.070  1.7329 -0.7135  2.2096
  1884G12c C01H34927   5.809   3.072   1.188  0.0126 -0.4861 -0.2603
  1884G12c H00B34928   5.744   3.118   1.115 -1.2887 -3.9364 -1.3955
  1884G12c C01I34929   5.759   3.044   1.316 -0.6745  0.2012 -0.9762
  1884G12c C01U34930   5.962   3.048   1.401 -2.1057  0.8724  0.6611
  1884G12c C00S34931   5.972   2.614   1.753 -1.1337  1.0821 -0.2066
  1884G12c C00K34932   5.795   2.744   1.688  0.9115  0.2237  0.2071
  1884G12c C00N34933   6.029   2.989   1.508  0.6684  0.1971 -1.0766
  1884G12c C00034934   5.839   3.075   1.428 -0.1327  0.0661  0.3838
  1884G12c C01J34935   5.647   2.968   1.356  1.0924  0.2838 -0.8540
  1884G12c C01K34936   5.521   2.950   1.278 -0.9402  1.6046  0.0855
  1884G12c C01P34937   5.448   3.031   1.178  2.4734 -0.7251  1.1711
  1884G12c C01Q34938   5.509   3.161   1.140 -1.5520 -0.4111 -1.1332
  1884G12c H00G34939   5.561   3.194   1.229 -4.1628 -1.8370  1.0104
  1884G12c C01R34940   5.483   3.225   1.034 -1.0522  0.0230  0.8618
  1884G12c H00F34941   5.437   3.192   0.942  2.2048 -0.6688 -0.5863
  1884G12c C01S34942   5.485   3.361   1.042 -0.1715 -0.5006  1.6358
  1884G12c H00E34943   5.546   3.402   1.123 -4.0672 -1.2588  5.1250
  1884G12c H00D34944   5.551   3.366   0.955  1.5754 -5.8054  2.4414
  1884G12c O00534945   5.361   3.397   1.025  1.6600 -0.2778 -0.6518
  1884G12c H00C34946   5.337   3.450   0.950 -1.8883  1.8472  1.8477
  1884G12c C01O34947   5.331   2.997   1.099 -1.2323  1.4803  1.1627
  1884G12c H00H34948   5.290   3.062   1.024 -0.0527  0.2631 -0.5684
  1884G12c C01N34949   5.276   2.882   1.163  0.2156 -1.4069  0.0052
  1884G12c O00634950   5.138   2.854   1.121 -0.1857 -0.1128  0.0418
  1884G12c C01T34951   5.132   2.728   1.062  0.3733 -1.1664 -0.0970
  1884G12c H00K34952   5.226   2.674   1.062 -1.2267 -4.0988  1.8911
  1884G12c H00J34953   5.062   2.656   1.106  0.0215 -2.0227 -2.0011
  1884G12c H00I34954   5.100   2.743   0.959  0.4643 -2.8112 -0.3830
  1884G12c C01M34955   5.337   2.801   1.266 -1.3985  0.3280  0.8219
  1884G12c C02034956   5.663   2.729   1.621  0.0311  1.8489 -0.7974
  1884G12c C02134957   5.576   2.610   1.653 -1.1992  1.4994  0.0822
  1884G12c C01L34958   5.454   2.844   1.331  0.1284  2.7584 -0.6122
  1884G12c O00734959   5.264   2.692   1.306 -0.3097  0.0084 -0.7049
  1884G12c C02234960   5.475   2.571   1.566  0.6743 -1.2805  0.1259
  1884G12c C02334961   5.641   2.489   1.698 -0.1282 -0.3105 -0.5633
  1884G12c C00G34962   5.767   2.264   1.732  0.7514 -0.4356  0.2689
  1884G12c C00E34963   5.770   2.039   1.764  2.0128 -0.6316 -0.7959
  1884G12c O00A34964   5.771   1.920   1.847 -0.5401 -0.0369 -0.2692
  1884G12c C02434965   5.736   1.930   1.971  3.3048  0.8552 -1.0955
  1884G12c H00V34966   5.781   1.842   2.016 -3.1729 -1.6915  0.8331
  1884G12c H00U34967   5.785   2.025   1.997 -1.1495  3.4043 -1.5467
  1884G12c H00T34968   5.629   1.922   1.987  3.7437 -5.8397 -0.0909
  1894G12c C00D34969   3.965   7.939   2.601  0.4284  0.4493 -0.8068
  1894G12c O00B34970   3.903   7.850   2.694  0.0489 -0.9978  0.7041
  1894G12c C02534971   3.821   7.759   2.639  0.0882 -0.6116 -0.0657
  1894G12c C02634972   3.696   7.802   2.547 -0.6119 -0.1284  0.7764
  1894G12c H00Y34973   3.725   7.901   2.509 -4.6144  0.3983 -1.1703
  1894G12c H00X34974   3.688   7.734   2.462  1.7002 -1.0356  1.2508
  1894G12c O00C34975   3.574   7.809   2.606 -0.4680  0.2893  0.5904
  1894G12c H00W34976   3.536   7.723   2.594 -3.0562  1.1476  2.0965
  1894G12c C02734977   3.864   7.638   2.657  2.2258 -0.8829  0.0594
  1894G12c O00D34978   3.983   7.624   2.719 -0.2523 -0.9321 -1.9006
  1894G12c H00Z34979   3.999   7.686   2.789 -5.6837 -0.9334 -0.4178
  1894G12c C02834980   3.765   7.534   2.597  0.8531 -1.1280  0.3329
  1894G12c C02934981   3.630   7.515   2.648 -1.8503 -0.6610  0.1004
  1894G12c H01034982   3.618   7.567   2.742  5.9349 -0.8145  1.5750
  1894G12c C02T34983   3.557   7.394   2.615  0.6479 -0.6927 -1.4922
  1894G12c H01O34984   3.483   7.342   2.675 -0.5202  5.7434  3.2659
  1894G12c C02S34985   3.604   7.310   2.507  0.6567 -0.6926 -0.9367
  1894G12c O00J34986   3.531   7.199   2.470  0.1301 -0.1077 -0.2523
  1894G12c H01P34987   3.521   7.215   2.378 -2.4243  5.2606  0.7337
  1894G12c C02R34988   3.732   7.338   2.453  0.8068 -1.0066 -0.0061
  1894G12c O00I34989   3.770   7.242   2.368 -0.4522 -0.5049  0.0922
  1894G12c C02Q34990   3.900   7.209   2.362 -0.8619 -0.6023 -0.1579
  1894G12c H01N34991   3.948   7.304   2.338 -1.1683 -0.1355  1.0391
  1894G12c H01R34992   3.925   7.138   2.283 -7.1492 -3.5067  0.1426
  1894G12c H01Q34993   3.919   7.162   2.459 -1.3426  4.9330  2.8094
  1894G12c C02A34994   3.806   7.451   2.495 -0.5361 -0.1058  0.2629
  1894G12c H01134995   3.911   7.466   2.476 -0.4699 -4.4370 -3.6325
  1894G12c C00C34996   4.045   7.885   2.496  1.3355 -1.0304  0.6707
  1894G12c H01234997   4.008   7.784   2.478  4.5687 -4.5266 10.6091
  1894G12c C00B34998   4.104   7.983   2.405 -0.2337  0.0616  1.3179
  1894G12c C00A34999   4.151   7.933   2.274 -0.3132  0.1599  1.6998
  1894G12c C00935000   4.203   7.808   2.228 -0.6732  0.2931 -0.5827
  1894G12c C00835001   4.240   7.688   2.279 -1.3164  1.0305  0.7290
  1894G12c H01335002   4.240   7.661   2.383  3.7499  2.4827  1.2137
  1894G12c C00735003   4.307   7.591   2.193 -0.7530  0.5048 -1.3848
  1894G12c H01435004   4.294   7.487   2.217 -6.8399  1.5650  0.7673
  1894G12c C00635005   4.355   7.642   2.064 -1.1790 -1.5450  0.4047
  1894G12c C00535006   4.361   7.779   2.032  3.0673  0.8143 -0.7496
  1894G12c C00435007   4.448   7.831   1.945 -1.2040  0.9484 -0.7193
  1894G12c C00335008   4.417   7.969   1.936 -1.3817 -0.3346  0.8764
  1894G12c C00235009   4.529   8.028   1.874  0.1215 -0.9108  0.2932
  1894G12c C00135010   4.534   8.164   1.814  1.4341  1.5716  1.8269
  1894G12c C00M35011   4.515   8.282   1.883  0.0346 -1.4577 -0.7836
  1894G12c C00L35012   4.392   8.316   1.956 -0.9653  1.0225 -0.6728
  1894G12c C00R35013   4.387   8.410   2.053 -0.5336  0.7661  1.3284
  1894G12c C00Q35014   4.469   8.518   2.096  0.7900 -0.4727  0.6829
  1894G12c C00V35015   4.426   8.585   2.213 -0.2258  1.1750 -0.1432
  1894G12c C00U35016   4.333   8.547   2.299 -1.5341  1.0297  1.0557
  1894G12c C00T35017   4.270   8.422   2.275  0.6131 -1.4904 -0.4133
  1894G12c C01635018   4.201   8.347   2.375  0.3241  3.0110  1.4055
  1894G12c C01535019   4.175   8.394   2.492  0.2895 -0.6116  0.7537
  1894G12c C01035020   4.214   8.525   2.515  1.0663  0.0662 -0.1784
  1894G12c C01135021   4.171   8.579   2.642 -0.1191  0.9138  1.0919
  1894G12c H00535022   4.240   8.657   2.674 -1.5601  0.8276  4.6676
  1894G12c C01235023   4.117   8.499   2.740  1.9086  1.6531 -0.0055
  1894G12c C01735024   4.096   8.550   2.874 -0.6164  0.8807  0.3478
  1894G12c O00235025   4.034   8.680   2.879  0.6926 -0.5032 -0.3061
  1894G12c H00435026   3.989   8.672   2.796  2.0009 -0.3112 -1.0475
  1894G12c C01835027   4.138   8.493   2.991 -1.4138  2.0406  0.7415
  1894G12c O00135028   4.212   8.382   2.981 -0.3984  0.1049  0.4178
  1894G12c H00335029   4.200   8.374   2.888  1.5918  4.2402 -0.2987
  1894G12c C01935030   4.109   8.566   3.132 -0.1391 -0.6724 -0.6503
  1894G12c H00235031   4.203   8.573   3.186 -2.0276  3.9728  2.3538
  1894G12c H00135032   4.072   8.667   3.114 -5.7662 -2.6399 -1.1074
  1894G12c O00035033   4.022   8.496   3.218  1.7124  0.6126  0.3690
  1894G12c C01A35034   3.879   8.544   3.231  0.1838 -0.7232 -0.1286
  1894G12c C02K35035   3.757   8.452   3.220  0.1678  0.0370 -0.1408
  1894G12c O00G35036   3.776   8.343   3.146  0.2518  1.6789  0.9416
  1894G12c C02M35037   3.843   8.223   3.214 -0.2658  0.1928 -0.0898
  1894G12c H01G35038   3.942   8.200   3.175  0.5712 -0.0066  2.0947
  1894G12c H01F35039   3.806   8.120   3.206  1.6101 -0.3694 -1.8012
  1894G12c H01E35040   3.865   8.257   3.315 -2.5980  2.0380 -0.1678
  1894G12c C02J35041   3.631   8.491   3.259 -0.3182 -0.4074  1.0945
  1894G12c H01H35042   3.545   8.435   3.225 -4.1131  4.8146  1.5426
  1894G12c C02I35043   3.609   8.609   3.325  2.9229 -0.4041  0.9442
  1894G12c C02N35044   3.472   8.640   3.347 -1.6634  0.7406  0.3681
  1894G12c H01M35045   3.400   8.575   3.395 -3.9364  1.6636 -1.6767
  1894G12c C02O35046   3.409   8.739   3.300 -0.6085 -0.5397 -1.0353
  1894G12c H01L35047   3.486   8.810   3.272  0.6293 -1.5657 -0.2537
  1894G12c C02P35048   3.273   8.802   3.320  0.0474  1.2500  0.3972
  1894G12c H01K35049   3.286   8.901   3.364  3.2837  0.3747  1.5100
  1894G12c H01J35050   3.216   8.794   3.414  1.0101 -1.7087  0.7817
  1894G12c O00H35051   3.212   8.795   3.205  0.3606 -1.0681  0.2626
  1894G12c H01I35052   3.119   8.779   3.212 -1.7861  4.7439 -7.5587
  1894G12c C02H35053   3.724   8.703   3.351 -1.1614 -1.8073  0.4825
  1894G12c H01C35054   3.701   8.802   3.386  3.5454  0.8358 -3.2614
  1894G12c C02L35055   3.858   8.671   3.299  0.0622  0.5634  0.5241
  1894G12c H01D35056   3.922   8.731   3.362 -0.7580 -0.9814  2.8886
  1894G12c C01335057   4.078   8.367   2.717 -0.4701 -0.4140  0.0549
  1894G12c H00035058   4.048   8.302   2.798  2.9845 -3.6700 -1.1529
  1894G12c C01435059   4.097   8.313   2.591 -1.5570 -0.5133 -0.0817
  1894G12c C00F35060   4.065   8.174   2.551 -0.8066  0.9580  0.2351
  1894G12c C00H35061   4.164   8.209   2.338  0.3941 -1.3787 -1.4617
  1894G12c C00I35062   4.194   8.166   2.207 -0.3876 -0.1931  0.6529
  1894G12c C00J35063   4.229   8.259   2.100  0.2043  1.1028  0.6535
  1894G12c C00Z35064   4.300   8.596   2.426 -0.0322  0.1472  0.8154
  1894G12c C00Y35065   4.380   8.719   2.454 -1.8122  1.0913  0.2255
  1894G12c H00635066   4.366   8.769   2.549 -3.4679  0.7683  0.1697
  1894G12c C00X35067   4.454   8.797   2.347 -1.0594  0.6138 -0.7699
  1894G12c O00335068   4.533   8.911   2.372  0.2275  1.2416  1.1385
  1894G12c C01B35069   4.607   8.901   2.491  0.1274  0.9848  0.0931
  1894G12c H00935070   4.627   8.992   2.548 -8.4289  2.9624  0.6737
  1894G12c H00835071   4.696   8.843   2.465 -0.7162 -1.3190  2.1596
  1894G12c H00735072   4.583   8.817   2.556 -4.7340  1.9507 -0.2427
  1894G12c C00W35073   4.476   8.718   2.224 -0.5326  0.7355  1.3078
  1894G12c O00435074   4.542   8.790   2.130  1.1935 -0.4719 -1.1009
  1894G12c C01C35075   4.617   8.700   2.055 -0.3470  0.2212  1.0176
  1894G12c H00A35076   4.658   8.746   1.966 -4.0988 -0.3317 -1.1168
  1894G12c C00P35077   4.584   8.558   2.033  0.2359 -0.6717  1.2739
  1894G12c C00O35078   4.681   8.452   1.984 -0.0493 -1.2967 -0.2848
  1894G12c C01D35079   4.821   8.479   1.975  0.2337 -0.2641 -0.2999
  1894G12c H00S35080   4.875   8.566   2.010  0.5036  0.6215 -2.8248
  1894G12c C01E35081   4.927   8.406   1.896  0.6171  0.3911  0.7748
  1894G12c O00835082   5.060   8.421   1.906  1.3512 -0.5889  0.3721
  1894G12c C01V35083   5.092   8.550   1.902  0.4380 -1.0639 -0.1612
  1894G12c C01Z35084   5.158   8.583   1.787  1.7722 -0.7609 -0.6407
  1894G12c H00R35085   5.256   8.538   1.801  1.7069  0.0299  2.8247
  1894G12c H00Q35086   5.125   8.533   1.695 -1.1330 -2.4786  1.2567
  1894G12c O00935087   5.170   8.715   1.749  0.9091  0.3558 -0.6979
  1894G12c H00P35088   5.088   8.761   1.744  1.9450  2.8823  3.0139
  1894G12c C01W35089   5.099   8.639   2.010 -0.2485  1.2850 -0.5067
  1894G12c H00O35090   5.057   8.615   2.107 -2.4495 -1.3912 -2.0636
  1894G12c C01X35091   5.132   8.782   2.050  1.1675  1.3358  0.4209
  1894G12c H00N35092   5.153   8.839   1.960 -0.6260 -4.7047 -4.1844
  1894G12c H00M35093   5.050   8.842   2.091  1.6883  3.0004 -0.9279
  1894G12c C01Y35094   5.247   8.749   2.145  1.4810 -0.2352 -1.2276
  1894G12c C02D35095   5.273   8.851   2.260  1.1999 -0.0127  2.2314
  1894G12c H01935096   5.198   8.928   2.273 -4.5773 -4.4619 -1.8163
  1894G12c C02C35097   5.398   8.823   2.319 -0.3737  0.0624 -0.3262
  1894G12c H01A35098   5.426   8.914   2.369 -5.3660  0.1212  2.6247
  1894G12c C02B35099   5.479   8.706   2.312  0.8704 -1.3863  1.2240
  1894G12c O00E35100   5.581   8.697   2.373  0.2579 -0.6607 -1.1879
  1894G12c H01B35101   5.597   8.625   2.432 -2.8562 -0.6802 -0.2737
  1894G12c C02F35102   5.437   8.605   2.226 -0.4439  0.0846 -1.1419
  1894G12c O00F35103   5.519   8.509   2.171  0.5621  0.3802  1.3585
  1894G12c C02G35104   5.522   8.371   2.219  0.1821  0.4347  0.0364
  1894G12c H01735105   5.627   8.393   2.238  2.2336 -4.6136 -4.1610
  1894G12c H01635106   5.494   8.328   2.315  1.2849 -1.2783 -0.3814
  1894G12c H01535107   5.517   8.306   2.131 -3.1427 -1.9167  1.8699
  1894G12c C02E35108   5.315   8.629   2.148  0.4860 -0.6240 -0.7156
  1894G12c H01835109   5.306   8.545   2.079  0.6425 -0.6751 -0.6741
  1894G12c C01F35110   4.878   8.296   1.821 -1.8476  0.9218 -0.4121
  1894G12c C01G35111   4.945   8.166   1.767  0.8235 -0.2395 -2.1676
  1894G12c H00L35112   5.051   8.150   1.769  0.3074 -4.0725  1.4254
  1894G12c C01H35113   4.869   8.056   1.724  1.4645  0.6862 -1.0013
  1894G12c H00B35114   4.898   7.966   1.671  2.2657 -0.2669  1.0304
  1894G12c C01I35115   4.734   8.058   1.750  0.5083 -0.0420 -0.1452
  1894G12c C01U35116   4.732   8.284   1.819 -0.5519 -1.4818  2.4129
  1894G12c C00S35117   4.280   8.376   2.137 -0.2692  0.3564  0.4943
  1894G12c C00K35118   4.314   8.209   1.999  1.0938 -0.6138  0.0685
  1894G12c C00N35119   4.641   8.360   1.896  0.8270  0.0597  0.5235
  1894G12c C00035120   4.673   8.188   1.753  1.9463 -0.3967 -0.6798
  1894G12c C01J35121   4.640   7.948   1.809 -1.4597 -0.7851  1.0754
  1894G12c C01K35122   4.637   7.798   1.805  0.2953 -0.5117 -1.8253
  1894G12c C01P35123   4.716   7.699   1.728 -0.7476 -1.1850  1.0929
  1894G12c C01Q35124   4.834   7.737   1.629 -0.2153  0.7578  1.2815
  1894G12c H00G35125   4.932   7.721   1.672  2.1325 -2.9111 -4.7639
  1894G12c C01R35126   4.823   7.756   1.493 -0.9506 -0.1298 -1.3534
  1894G12c H00F35127   4.731   7.786   1.445  0.9015  3.5122 -2.8202
  1894G12c C01S35128   4.934   7.750   1.401 -0.7682  0.7504  0.9308
  1894G12c H00E35129   5.027   7.790   1.441 -2.9836  0.5455  6.7794
  1894G12c H00D35130   4.933   7.664   1.334 -2.1583 -4.8452  7.5443
  1894G12c O00535131   4.903   7.853   1.315  0.7666 -2.6275 -1.0817
  1894G12c H00C35132   4.923   7.936   1.355 -0.6905 -2.8579  0.1656
  1894G12c C01O35133   4.701   7.558   1.757  0.4910 -0.8845  1.0545
  1894G12c H00H35134   4.729   7.490   1.678 -0.0307 -1.8505  1.6889
  1894G12c C01N35135   4.599   7.510   1.841 -0.8469 -0.2469  0.5855
  1894G12c O00635136   4.576   7.380   1.870  0.3062  0.5876  1.1040
  1894G12c C01T35137   4.668   7.288   1.805 -2.2574 -1.2369 -0.6233
  1894G12c H00K35138   4.663   7.265   1.698  7.0139 -6.7339 -0.4094
  1894G12c H00J35139   4.630   7.190   1.832  1.2663 -1.7537  2.8515
  1894G12c H00I35140   4.752   7.282   1.874  0.2533 -3.3702 -3.7134
  1894G12c C01M35141   4.521   7.609   1.894 -0.5641 -0.4292 -0.8416
  1894G12c C02035142   4.313   8.060   1.982 -1.5165  0.6993 -2.3077
  1894G12c C02135143   4.233   7.977   2.060  0.1066 -2.0970 -0.5299
  1894G12c C01L35144   4.536   7.744   1.872 -0.0017 -1.0472  0.8511
  1894G12c O00735145   4.440   7.555   1.987  1.0548  1.3504 -1.8892
  1894G12c C02235146   4.267   7.859   2.107  0.2568  1.0204 -0.3628
  1894G12c C02335147   4.181   8.036   2.173  0.5502  1.1295  0.7789
  1894G12c C00G35148   4.107   8.122   2.425 -0.5189  1.5282 -1.0890
  1894G12c C00E35149   3.997   8.084   2.637  0.4743 -0.3953  0.3863
  1894G12c O00A35150   3.939   8.135   2.741 -0.3609  0.8350 -0.1677
  1894G12c C02435151   3.915   8.098   2.865  0.0711  0.3500 -0.3883
  1894G12c H00V35152   3.831   8.150   2.910 -2.4464 -2.4412 -1.6976
  1894G12c H00U35153   3.991   8.132   2.936  0.8671  3.3719 -2.5754
  1894G12c H00T35154   3.902   7.990   2.862  1.6553  0.0436  2.1305
  1904G12c C00D35155   9.709  12.182   9.940  0.5181  0.4158  1.0084
  1904G12c O00B35156   9.692  12.179  10.072 -1.4748 -2.0995  0.0932
  1904G12c C02535157   9.686  12.052  10.134  1.4845  0.2616 -1.2726
  1904G12c C02635158   9.531  12.038  10.163  0.2257  0.9188  0.9226
  1904G12c H00Y35159   9.531  12.014  10.270  3.3165 -5.6331 -0.2789
  1904G12c H00X35160   9.516  11.959  10.090 -2.9862 -0.0784  2.5493
  1904G12c O00C35161   9.448  12.147  10.169  1.4303 -0.0540 -0.1894
  1904G12c H00W35162   9.460  12.205  10.095  5.8584 -1.2651 -0.5526
  1904G12c C02735163   9.785  11.980  10.177  0.1343  0.1078 -0.2891
  1904G12c O00D35164   9.905  12.012  10.134 -0.6303  0.1845 -0.1611
  1904G12c H00Z35165   9.901  12.098  10.095  2.5428 -0.9827 -3.4518
  1904G12c C02835166   9.760  11.870  10.252  2.0360 -0.0411 -1.7447
  1904G12c C02935167   9.748  11.741  10.205  0.3700 -1.0148 -0.2344
  1904G12c H01035168   9.777  11.721  10.102 -0.6481 -0.1388 -0.6968
  1904G12c C02T35169   9.710  11.638  10.284  0.1813 -1.1182 -0.2117
  1904G12c H01O35170   9.730  11.532  10.272  0.1726 -1.6497  3.6210
  1904G12c C02S35171   9.659  11.656  10.427 -1.0544 -0.9715  2.3551
  1904G12c O00J35172   9.628  11.548  10.518 -0.6041  0.9008 -0.4260
  1904G12c H01P35173   9.703  11.505  10.556 -0.4009  1.2203 -0.4666
  1904G12c C02R35174   9.666  11.788  10.463 -0.7988  1.4802  0.1155
  1904G12c O00I35175   9.617  11.827  10.581 -0.5988 -0.0867 -1.3631
  1904G12c C02Q35176   9.662  11.926  10.660 -0.1699 -0.3513 -0.7353
  1904G12c H01N35177   9.631  12.021  10.618  0.0390 -0.0612 -0.2359
  1904G12c H01R35178   9.759  11.890  10.695 -0.5781  0.8646  1.7422
  1904G12c H01Q35179   9.636  11.932  10.766  0.1736 -6.4862 -0.0884
  1904G12c C02A35180   9.726  11.888  10.386  0.5202 -0.6914  0.8016
  1904G12c H01135181   9.736  11.978  10.445 -5.7799 -1.0636  2.7927
  1904G12c C00C35182   9.692  12.066   9.863 -0.4041  1.2910  0.3642
  1904G12c H01235183   9.699  11.965   9.901  1.0418  2.5410  3.6215
  1904G12c C00B35184   9.686  12.075   9.714 -0.9920  1.1165  0.9721
  1904G12c C00A35185   9.686  11.954   9.630 -0.3651  0.5240 -1.2883
  1904G12c C00935186   9.740  11.815   9.660 -1.5569  0.0066  0.2483
  1904G12c C00835187   9.816  11.738   9.761  0.0891  0.2673 -0.9051
  1904G12c H01335188   9.819  11.778   9.861 -3.0018 -6.5540  2.2622
  1904G12c C00735189   9.897  11.627   9.746  0.7969  0.1578 -1.1988
  1904G12c H01435190   9.968  11.587   9.817  0.5775 -0.0378 -1.0869
  1904G12c C00635191   9.920  11.598   9.617  1.6582  0.7466  0.7554
  1904G12c C00535192   9.870  11.685   9.511 -0.0388  2.1171 -1.6988
  1904G12c C00435193   9.932  11.689   9.382 -0.0700 -0.5438 -0.8563
  1904G12c C00335194   9.898  11.785   9.285  2.4450  0.1638 -0.0138
  1904G12c C00235195   9.957  11.798   9.141 -0.2229  0.9628 -0.3951
  1904G12c C00135196   9.978  11.903   9.033  0.6438  0.4570 -3.1955
  1904G12c C00M35197   9.968  12.051   9.044 -2.6889 -1.5597  1.9289
  1904G12c C00L35198   9.895  12.106   9.148 -0.9116  0.7864 -0.3187
  1904G12c C00R35199   9.862  12.242   9.159 -0.6440 -0.2892 -0.4362
  1904G12c C00Q35200   9.939  12.345   9.120 -2.5906  0.8348  0.5216
  1904G12c C00V35201   9.912  12.472   9.173  1.1889  0.3639  0.6925
  1904G12c C00U35202   9.835  12.483   9.295  0.1672  0.8278 -1.3802
  1904G12c C00T35203   9.752  12.379   9.334 -0.9516 -0.0346  0.3766
  1904G12c C01635204   9.696  12.359   9.458  0.4549  1.2197 -0.7773
  1904G12c C01535205   9.734  12.454   9.553 -0.8072 -1.9407  1.1781
  1904G12c C01035206   9.782  12.574   9.506  0.3452  0.9965 -0.2426
  1904G12c C01135207   9.828  12.664   9.607  0.5018 -0.1453  0.8688
  1904G12c H00535208   9.894  12.747   9.586  2.2972 -1.5784  0.7926
  1904G12c C01235209   9.789  12.659   9.741 -0.2985 -0.9194  0.1816
  1904G12c C01735210   9.871  12.723   9.826  0.4434  1.5651  0.7943
  1904G12c O00235211  10.013  12.748   9.802  0.6925  0.2209 -0.1507
  1904G12c H00435212  10.065  12.678   9.839 -2.0278  0.8056  5.4044
  1904G12c C01835213   9.836  12.784   9.944  0.7567 -0.8282  0.1677
  1904G12c O00135214   9.939  12.835  10.023  0.3284 -0.7998  0.9410
  1904G12c H00335215   9.898  12.915  10.053  0.4981  1.1229 -3.5358
  1904G12c C01935216   9.691  12.783  10.006 -0.4727  0.5385 -1.1053
  1904G12c H00235217   9.633  12.709   9.951 -1.8433 -0.4640  1.5899
  1904G12c H00135218   9.686  12.781  10.115 -1.0669 -1.2556 -1.1420
  1904G12c O00035219   9.617  12.885   9.967 -0.4251  0.2266  0.2202
  1904G12c C01A35220   9.690  13.011   9.959  0.8801  0.3793 -0.3711
  1904G12c C02K35221   9.709  13.068   9.823  0.9526  0.5044 -0.1185
  1904G12c O00G35222   9.655  13.019   9.713 -1.5086  0.9338 -0.6070
  1904G12c C02M35223   9.521  12.997   9.731  0.7949  1.6683  0.0206
  1904G12c H01G35224   9.492  12.954   9.635 -0.0825 -2.0034  1.8717
  1904G12c H01F35225   9.456  13.083   9.751 -2.2626 -0.8882  1.4517
  1904G12c H01E35226   9.501  12.899   9.773 -0.1653  0.7076 -2.5984
  1904G12c C02J35227   9.777  13.191   9.812  0.4452  0.8672  0.1248
  1904G12c H01H35228   9.803  13.240   9.719  0.9399 -0.0250 -0.2082
  1904G12c C02I35229   9.845  13.242   9.918 -1.0637  1.4274  0.2087
  1904G12c C02N35230   9.894  13.370   9.923  0.2069  1.9910 -1.0520
  1904G12c H01M35231   9.884  13.438  10.006  2.1351 -0.5805  1.3630
  1904G12c C02O35232  10.012  13.396   9.866 -0.1325 -0.4719  0.1732
  1904G12c H01L35233  10.051  13.318   9.802 -0.9080 -4.5184  4.3568
  1904G12c C02P35234  10.129  13.473   9.919  0.9398 -0.2035 -0.2217
  1904G12c H01K35235  10.228  13.442   9.953  0.6178  3.1314  4.1611
  1904G12c H01J35236  10.124  13.545   9.837 -1.9222  4.9698  4.1955
  1904G12c O00H35237  10.092  13.533  10.042 -0.0467  0.6827  0.5841
  1904G12c H01I35238  10.166  13.501  10.091 -0.1190 -4.1258 -2.2010
  1904G12c C02H35239   9.855  13.165  10.035  0.4791  0.8681  0.4561
  1904G12c H01C35240   9.924  13.190  10.114  3.0984  1.0526 -1.7991
  1904G12c C02L35241   9.758  13.055  10.066  2.4926 -0.3551  1.2823
  1904G12c H01D35242   9.725  13.010  10.159 -3.3492  2.4004  0.7375
  1904G12c C01335243   9.701  12.557   9.773 -2.7092 -0.1584  0.1610
  1904G12c H00035244   9.702  12.541   9.880 -3.2854 -0.8922  0.0639
  1904G12c C01435245   9.707  12.439   9.688  0.0458  0.0492  0.0997
  1904G12c C00F35246   9.696  12.309   9.735  1.1841 -1.5657  0.0774
  1904G12c C00H35247   9.670  12.216   9.508  0.1188  1.0722 -1.3317
  1904G12c C00I35248   9.683  12.109   9.434 -1.3612 -0.1838 -0.3664
  1904G12c C00J35249   9.718  12.128   9.300  1.0329  0.9707  0.6131
  1904G12c C00Z35250   9.821  12.586   9.375 -2.4531  1.1524 -0.8566
  1904G12c C00Y35251   9.887  12.700   9.318 -1.4332 -0.8209  1.2400
  1904G12c H00635252   9.865  12.790   9.374 -1.4691  2.6762 -4.0139
  1904G12c C00X35253   9.965  12.713   9.199 -1.1735  1.4771  0.0182
  1904G12c O00335254  10.055  12.820   9.182  0.0282 -0.1821 -0.6409
  1904G12c C01B35255   9.991  12.952   9.168  0.2370  1.4638 -0.7330
  1904G12c H00935256   9.967  12.959   9.062 -1.5937 -6.9849 -1.2655
  1904G12c H00835257  10.048  13.030   9.219 -5.1339  0.2976  8.1879
  1904G12c H00735258   9.883  12.948   9.180  0.2052  2.3750 -0.6720
  1904G12c C00W35259   9.967  12.589   9.120 -1.6196 -1.6168 -0.4170
  1904G12c O00435260  10.046  12.589   9.027  1.0318  0.7896  0.4904
  1904G12c C01C35261  10.128  12.480   9.015 -0.0400  1.3835 -0.3865
  1904G12c H00A35262  10.223  12.492   8.965  3.8148  7.0415  7.3059
  1904G12c C00P35263  10.082  12.348   9.075  1.3031  0.3381 -0.2609
  1904G12c C00O35264  10.146  12.233   9.022 -2.0737 -0.8086  0.2908
  1904G12c C01D35265  10.287  12.232   8.991  2.0882  0.2794 -1.1122
  1904G12c H00S35266  10.324  12.333   9.004  4.3440 -0.6373 -0.2005
  1904G12c C01E35267  10.373  12.123   8.967  0.1925  0.5034  0.3733
  1904G12c O00835268  10.514  12.133   8.952  0.5793  1.4967 -0.0266
  1904G12c C01V35269  10.555  12.247   8.893 -1.2245  0.3521  0.6034
  1904G12c C01Z35270  10.537  12.290   8.738  1.6812  1.2258  0.1278
  1904G12c H00R35271  10.616  12.264   8.668  0.1891 -3.6735  0.0480
  1904G12c H00Q35272  10.471  12.210   8.703  2.2683 -0.7290  3.2116
  1904G12c O00935273  10.454  12.404   8.727 -1.0916 -2.0461 -1.9320
  1904G12c H00P35274  10.384  12.392   8.665 -6.6858  6.4370  1.8120
  1904G12c C01W35275  10.584  12.357   8.973 -0.9332 -0.4424 -0.6132
  1904G12c H00O35276  10.620  12.445   8.922  3.6477 -0.4563  2.3460
  1904G12c C01X35277  10.642  12.333   9.119  1.0236 -1.1997 -0.5294
  1904G12c H00N35278  10.583  12.377   9.199 -0.9328  1.9252 -3.5714
  1904G12c H00M35279  10.602  12.237   9.153 -4.4819  1.0926 -0.0219
  1904G12c C01Y35280  10.793  12.350   9.130  0.4023 -1.3795  0.0885
  1904G12c C02D35281  10.867  12.270   9.227 -0.1955  0.1307  0.4908
  1904G12c H01935282  10.797  12.192   9.253 -0.7217 -0.5285 -2.7088
  1904G12c C02C35283  10.992  12.289   9.276 -0.0653 -0.4287  0.5892
  1904G12c H01A35284  11.044  12.201   9.312  2.3219 -1.6385 -5.1570
  1904G12c C02B35285  11.048  12.399   9.218 -1.9220  2.1162 -2.2945
  1904G12c O00E35286  11.136  12.475   9.291 -0.0950  0.9739 -0.6013
  1904G12c H01B35287  11.215  12.485   9.241  0.5292  1.1532  0.4045
  1904G12c C02F35288  10.979  12.499   9.141 -0.3539 -1.2799 -0.7900
  1904G12c O00F35289  11.027  12.632   9.118  0.4418 -0.8805  1.1697
  1904G12c C02G35290  10.931  12.735   9.135 -0.2610  0.1712 -0.2789
  1904G12c H01735291  10.917  12.823   9.072 -0.2355 -0.8602 -1.7446
  1904G12c H01635292  10.834  12.738   9.183 -1.4933  5.8285 -2.6930
  1904G12c H01535293  10.998  12.758   9.218 -3.1689  4.6836  1.0047
  1904G12c C02E35294  10.840  12.481   9.111 -0.2837  0.6137  1.3361
  1904G12c H01835295  10.759  12.543   9.077  4.7567  5.6090 -2.5123
  1904G12c C01F35296  10.317  11.985   8.983 -1.1333 -1.5134 -0.5357
  1904G12c C01G35297  10.380  11.838   9.004  0.1934 -0.0454 -0.3490
  1904G12c H00L35298  10.484  11.826   8.980 -0.4016 -2.0770 -2.0119
  1904G12c C01H35299  10.299  11.738   9.042 -1.9333 -0.5142 -0.3048
  1904G12c H00B35300  10.331  11.636   9.029  0.9927 -1.2525  8.7181
  1904G12c C01I35301  10.166  11.751   9.051 -0.3974 -0.4983  0.7767
  1904G12c C01U35302  10.182  11.985   8.993 -1.0141 -0.7029  0.8884
  1904G12c C00S35303   9.779  12.256   9.268 -1.6482 -0.1198 -1.3718
  1904G12c C00K35304   9.805  12.027   9.232  1.2371 -1.3688 -0.9373
  1904G12c C00N35305  10.095  12.108   8.990 -0.3426  1.2146  0.3536
  1904G12c C00035306  10.099  11.867   8.990 -1.3348 -0.2894 -0.4860
  1904G12c C01J35307  10.064  11.687   9.136  0.7826  0.2632 -0.0583
  1904G12c C01K35308  10.087  11.569   9.222  1.1690  0.1494 -0.0496
  1904G12c C01P35309  10.157  11.449   9.193 -0.8908  0.0505 -0.9622
  1904G12c C01Q35310  10.235  11.424   9.084 -0.2105 -0.6643 -0.9334
  1904G12c H00G35311  10.333  11.378   9.089  1.2207  2.3605 -0.3265
  1904G12c C01R35312  10.164  11.434   8.975 -0.6687 -0.3279 -1.0890
  1904G12c H00F35313  10.072  11.491   8.980  2.3338  4.4503  3.9770
  1904G12c C01S35314  10.235  11.405   8.838 -0.4883 -0.5935 -0.3934
  1904G12c H00E35315  10.238  11.490   8.770  1.1283  4.6987  5.8274
  1904G12c H00D35316  10.340  11.418   8.863 -1.2006 -0.1249  2.5239
  1904G12c O00535317  10.196  11.275   8.770  0.7031  2.1561 -0.1942
  1904G12c H00C35318  10.171  11.202   8.825 -5.6016  4.9277  1.0805
  1904G12c C01O35319  10.175  11.344   9.286 -0.7701  0.8821 -0.1093
  1904G12c H00H35320  10.230  11.257   9.255 -0.6236 -2.3077  7.7907
  1904G12c C01N35321  10.114  11.363   9.420  0.7441 -0.0593 -0.3914
  1904G12c O00635322  10.112  11.255   9.499  0.5118 -0.3730 -0.6430
  1904G12c C01T35323  10.018  11.173   9.494 -0.6354  0.6095 -1.4067
  1904G12c H00K35324  10.019  11.131   9.394  8.0784 -0.8816 -1.1055
  1904G12c H00J35325   9.919  11.217   9.510 -1.5974 -0.8897 -3.0858
  1904G12c H00I35326  10.032  11.084   9.556  3.0733  3.4462  2.1309
  1904G12c C01M35327  10.041  11.488   9.449 -0.1084  0.6617 -0.0723
  1904G12c C02035328   9.812  11.909   9.301  1.3625  1.1640 -1.1197
  1904G12c C02135329   9.744  11.879   9.423 -0.2280 -0.8057  0.5997
  1904G12c C01L35330  10.023  11.585   9.352 -0.7857  0.7633  0.4341
  1904G12c O00735331   9.998  11.501   9.585  0.5108  0.1907  0.0640
  1904G12c C02235332   9.783  11.784   9.522  1.0977  0.4474 -0.4004
  1904G12c C02335333   9.668  11.977   9.487  1.0943 -1.3591  0.9067
  1904G12c C00G35334   9.683  12.202   9.652 -0.1913  0.3074  0.8417
  1904G12c C00E35335   9.660  12.299   9.871  1.7913 -0.3756 -0.3536
  1904G12c O00A35336   9.541  12.347   9.941 -0.6945  0.6236  0.5139
  1904G12c C02435337   9.429  12.373   9.842 -0.4128  0.1989  0.2226
  1904G12c H00V35338   9.351  12.429   9.894  3.5560  7.1189 -0.6598
  1904G12c H00U35339   9.391  12.294   9.777  1.2449 -1.7414  1.5590
  1904G12c H00T35340   9.464  12.465   9.793  2.3116 -2.1424 -2.4716
  1914G12c C00D35341   0.115   6.937  12.503 -1.2390  0.1047  0.8629
  1914G12c O00B35342   0.142   7.012  12.392 -0.8517 -0.4813 -2.1298
  1914G12c C02535343   0.264   7.079  12.359 -1.0845 -0.0628  0.0791
  1914G12c C02635344   0.259   7.215  12.284 -0.5744 -0.7311  0.1683
  1914G12c H00Y35345   0.150   7.209  12.280 -0.4575 -2.2270 -6.2470
  1914G12c H00X35346   0.309   7.226  12.188  1.9947  1.6996  1.7224
  1914G12c O00C35347   0.283   7.327  12.373 -1.3178 -0.4418 -0.4813
  1914G12c H00W35348   0.213   7.298  12.429 -2.1070 -0.1271 -1.3009
  1914G12c C02735349   0.389   7.020  12.382  0.0395  0.7052 -0.1445
  1914G12c O00D35350   0.397   6.878  12.432 -0.1535 -0.0273  0.1664
  1914G12c H00Z35351   0.472   6.830  12.401  1.3197  4.6224 -4.1730
  1914G12c C02835352   0.529   7.071  12.381 -0.0770  1.2329  0.0372
  1914G12c C02935353   0.533   7.205  12.433 -0.3993  0.2422  0.8048
  1914G12c H01035354   0.438   7.210  12.484  1.8049  1.7660  5.0121
  1914G12c C02T35355   0.660   7.264  12.421  0.5536 -1.9745  0.3031
  1914G12c H01O35356   0.674   7.369  12.442  2.0853 -2.3053  1.0133
  1914G12c C02S35357   0.763   7.209  12.339 -0.2121 -0.5034 -1.7356
  1914G12c O00J35358   0.899   7.269  12.320 -0.2861 -0.1424  0.1287
  1914G12c H01P35359   0.969   7.206  12.321 -0.4072 -0.4554  6.0494
  1914G12c C02R35360   0.754   7.073  12.308 -2.4287  0.9924 -0.0968
  1914G12c O00I35361   0.875   7.015  12.252 -0.1885  0.7342  0.7532
  1914G12c C02Q35362   0.909   6.863  12.279  0.1474  1.0732 -0.8552
  1914G12c H01N35363   1.016   6.853  12.300  0.8635  3.2461 -3.2471
  1914G12c H01R35364   0.851   6.832  12.366 -0.2047 -0.5225 -1.6585
  1914G12c H01Q35365   0.902   6.819  12.180  2.9783  0.4915 -0.8531
  1914G12c C02A35366   0.634   7.011  12.316  1.0754  1.0686 -0.0242
  1914G12c H01135367   0.617   6.920  12.261 -5.3950  1.2294  1.3655
  1914G12c C00C35368   0.188   6.917  12.620  0.4731  0.3315  2.1931
  1914G12c H01235369   0.272   6.983  12.638 -0.8584  1.2011  5.5745
  1914G12c C00B35370   0.179   6.794  12.699 -0.8492 -1.5754  1.3766
  1914G12c C00A35371   0.268   6.744  12.806 -0.5331  0.5673  1.6067
  1914G12c C00935372   0.415   6.757  12.818  0.6191  1.6119 -1.2490
  1914G12c C00835373   0.497   6.821  12.731 -0.4103 -0.5339  2.3189
  1914G12c H01335374   0.472   6.920  12.696 -0.5252 -2.7918 -4.8712
  1914G12c C00735375   0.609   6.749  12.705  1.0613  0.2992 -0.6881
  1914G12c H01435376   0.684   6.784  12.636  0.0725  2.1252 -0.8500
  1914G12c C00635377   0.641   6.626  12.764 -0.1029 -1.3564  0.8384
  1914G12c C00535378   0.559   6.572  12.856 -0.3591  0.5244 -1.4143
  1914G12c C00435379   0.580   6.436  12.909 -0.8514  0.3246  1.5832
  1914G12c C00335380   0.469   6.377  12.973 -0.1498 -0.6192  0.3498
  1914G12c C00235381   0.489   6.231  12.991 -1.4256 -1.0527  1.3784
  1914G12c C00135382   0.393   6.135  13.023 -1.1197  1.8956 -1.0222
  1914G12c C00M35383   0.265   6.126  12.943 -0.1164 -1.2898 -0.0529
  1914G12c C00L35384   0.177   6.238  12.960 -1.3342  0.8259  0.2068
  1914G12c C00R35385   0.036   6.228  12.905  1.7749 -0.6739 -0.6501
  1914G12c C00Q35386  -0.038   6.127  12.835 -0.4966 -0.1692 -0.1586
  1914G12c C00V35387  -0.151   6.169  12.756 -2.0688  0.2434  1.5626
  1914G12c C00U35388  -0.165   6.303  12.732  0.0529  1.0240 -0.3061
  1914G12c C00T35389  -0.096   6.405  12.791 -0.4026 -0.7635 -0.3932
  1914G12c C01635390  -0.079   6.535  12.728 -0.3264  0.9753 -0.1647
  1914G12c C01535391  -0.180   6.571  12.645  0.3779 -0.2385  0.8760
  1914G12c C01035392  -0.279   6.486  12.604  0.1064  1.2291  0.9321
  1914G12c C01135393  -0.384   6.537  12.539  2.1350 -1.6458  0.0474
  1914G12c H00535394  -0.481   6.489  12.540 -0.2346  2.5849 -4.7174
  1914G12c C01235395  -0.401   6.671  12.524  1.2131  0.9865  1.2955
  1914G12c C01735396  -0.529   6.693  12.469 -0.8263 -1.4281  0.5754
  1914G12c O00235397  -0.561   6.648  12.342  0.6718  1.1009  0.0766
  1914G12c H00435398  -0.640   6.693  12.314 -2.1029 -1.9624  2.5260
  1914G12c C01835399  -0.614   6.751  12.566  0.9237  1.3774  0.9078
  1914G12c O00135400  -0.561   6.798  12.686  0.7851 -0.2974  0.0384
  1914G12c H00335401  -0.472   6.769  12.691  1.2866  1.6521  4.2252
  1914G12c C01935402  -0.768   6.781  12.504 -0.1694 -1.2642 -1.5251
  1914G12c H00235403  -0.812   6.831  12.591  3.3829  0.0496 -0.3950
  1914G12c H00135404  -0.776   6.847  12.417 -5.3381 -2.3072 -2.0538
  1914G12c O00035405  -0.808   6.653  12.497  1.0913  1.4744 -0.4276
  1914G12c C01A35406  -0.880   6.629  12.381 -0.7151  0.0337 -0.2185
  1914G12c C02K35407  -0.959   6.517  12.385  0.6870  1.0762  0.4984
  1914G12c O00G35408  -0.974   6.423  12.479  0.1434 -0.5413 -0.0944
  1914G12c C02M35409  -0.866   6.363  12.530 -1.0155  1.2652  0.1841
  1914G12c H01G35410  -0.808   6.430  12.592 -3.9451 -0.9819  5.7061
  1914G12c H01F35411  -0.777   6.329  12.478 -0.1551  1.9017  1.2228
  1914G12c H01E35412  -0.904   6.270  12.571  2.8887  0.0519  1.2605
  1914G12c C02J35413  -1.046   6.486  12.278  0.5493  0.6582  0.2395
  1914G12c H01H35414  -1.114   6.403  12.282 -2.5337  3.0769 -0.4497
  1914G12c C02I35415  -1.046   6.564  12.163  0.4710  3.0249  0.3997
  1914G12c C02N35416  -1.140   6.538  12.055  2.1877 -0.4637 -0.4717
  1914G12c H01M35417  -1.235   6.574  12.018  1.4826  3.2909  4.3738
  1914G12c C02O35418  -1.143   6.412  12.006  1.3032  0.1664 -1.2961
  1914G12c H01L35419  -1.084   6.332  12.048 -4.3007 -2.7112  1.6171
  1914G12c C02P35420  -1.248   6.376  11.911  1.1608  2.4966 -1.6327
  1914G12c H01K35421  -1.279   6.462  11.850 -2.5771  6.8044  5.6364
  1914G12c H01J35422  -1.194   6.311  11.843 -9.4287  1.4891-10.5688
  1914G12c O00H35423  -1.354   6.304  11.957 -0.2670  0.4667 -0.5808
  1914G12c H01I35424  -1.341   6.262  12.040  0.8713 -8.4859 -4.6818
  1914G12c C02H35425  -0.969   6.668  12.152  0.4592  0.2701 -0.1344
  1914G12c H01C35426  -0.978   6.730  12.064 -4.3317  0.2352  0.2053
  1914G12c C02L35427  -0.884   6.698  12.258  0.3024  1.2760  0.6148
  1914G12c H01D35428  -0.825   6.774  12.210  3.0448 -4.0142 -5.0216
  1914G12c C01335429  -0.291   6.747  12.521  0.3982 -1.0686  0.3227
  1914G12c H00035430  -0.304   6.847  12.484  3.1764 -1.2138 -1.2667
  1914G12c C01435431  -0.180   6.703  12.607 -0.6197  0.1925 -0.9318
  1914G12c C00F35432  -0.049   6.767  12.587 -0.5463  0.1658  1.5815
  1914G12c C00H35433   0.023   6.615  12.779  1.2169 -0.6589 -0.2912
  1914G12c C00I35434   0.114   6.561  12.870  0.3413  1.1872 -0.1727
  1914G12c C00J35435   0.098   6.435  12.924 -0.2847  0.1962  0.8623
  1914G12c C00Z35436  -0.266   6.350  12.641 -0.0398  0.4736 -1.0609
  1914G12c C00Y35437  -0.356   6.268  12.577  0.6970 -0.2042  0.4438
  1914G12c H00635438  -0.413   6.305  12.494  0.3931  2.2212  1.6874
  1914G12c C00X35439  -0.333   6.122  12.590  0.9778  0.3532  1.6507
  1914G12c O00335440  -0.415   6.019  12.519 -0.4245 -0.4782  0.4332
  1914G12c C01B35441  -0.459   6.054  12.389 -0.0664  0.0002 -0.4538
  1914G12c H00935442  -0.535   6.131  12.381 -1.7924 -1.6579 -0.4066
  1914G12c H00835443  -0.507   5.957  12.379  0.5420 -0.4018  0.4175
  1914G12c H00735444  -0.367   6.062  12.331  3.5097  2.0021  5.1155
  1914G12c C00W35445  -0.238   6.077  12.690  1.2615  0.3772  1.3363
  1914G12c O00435446  -0.220   5.942  12.689  1.3556  0.6072 -0.0575
  1914G12c C01C35447  -0.119   5.906  12.780 -1.9263  0.2361 -0.4460
  1914G12c H00A35448  -0.092   5.801  12.777 -0.0889  0.6790 -7.4301
  1914G12c C00P35449  -0.008   5.984  12.828 -0.2499 -0.4387  0.5826
  1914G12c C00O35450   0.124   5.927  12.839 -1.0514  1.1529 -1.6094
  1914G12c C01D35451   0.165   5.810  12.761 -1.2926 -0.2561 -2.2626
  1914G12c H00S35452   0.094   5.735  12.729  1.3924 -4.5138  1.1175
  1914G12c C01E35453   0.302   5.765  12.759 -0.0049  1.8481 -1.2496
  1914G12c O00835454   0.342   5.653  12.692  0.0763  0.5362 -0.1503
  1914G12c C01V35455   0.264   5.537  12.700  1.1262 -1.9141 -0.7609
  1914G12c C01Z35456   0.275   5.441  12.590 -0.2679 -0.6875  0.9363
  1914G12c H00R35457   0.300   5.487  12.494 -0.7364 -3.0570 -0.3568
  1914G12c H00Q35458   0.334   5.354  12.621  6.3526  3.2751  0.3846
  1914G12c O00935459   0.164   5.355  12.566 -0.9619  0.1857 -0.8259
  1914G12c H00P35460   0.187   5.287  12.506 -0.8199  3.1516 -4.3044
  1914G12c C01W35461   0.178   5.520  12.813 -1.6195  0.6167  0.8865
  1914G12c H00O35462   0.168   5.599  12.886 -1.6786  2.2272 -0.8488
  1914G12c C01X35463   0.123   5.382  12.856 -0.0248  0.9807 -0.9792
  1914G12c H00N35464   0.143   5.292  12.798 -3.0939 -4.5414  5.7503
  1914G12c H00M35465   0.146   5.364  12.962  0.2295 -0.9807 -1.3409
  1914G12c C01Y35466  -0.032   5.354  12.861  0.8411  2.1095 -0.7211
  1914G12c C02D35467  -0.095   5.258  12.777 -0.2031  0.8966 -2.8862
  1914G12c H01935468  -0.035   5.185  12.724 -2.2816 -1.6354 -1.9221
  1914G12c C02C35469  -0.212   5.188  12.811 -1.5119 -0.9486 -0.7072
  1914G12c H01A35470  -0.265   5.104  12.768 -4.8468  2.5849 -3.9580
  1914G12c C02B35471  -0.301   5.257  12.892  0.8136  1.1720 -0.0949
  1914G12c O00E35472  -0.433   5.211  12.883 -0.0201  0.1464 -0.4646
  1914G12c H01B35473  -0.488   5.248  12.950  0.4942 -2.2533  1.3477
  1914G12c C02F35474  -0.262   5.370  12.965  1.3637 -2.2535  1.1041
  1914G12c O00F35475  -0.363   5.454  13.012 -0.3135 -1.1601 -0.0645
  1914G12c C02G35476  -0.461   5.509  12.921 -0.7487 -0.6680 -2.1138
  1914G12c H01735477  -0.448   5.497  12.814 -5.5898  1.9328 -3.1572
  1914G12c H01635478  -0.558   5.466  12.948  0.8382 -3.9329 -1.3048
  1914G12c H01535479  -0.488   5.614  12.924 -2.9528 -1.2339  0.6878
  1914G12c C02E35480  -0.125   5.414  12.951 -0.4368 -1.3593  0.9401
  1914G12c H01835481  -0.112   5.502  13.012 -2.6431 -3.9587  5.3988
  1914G12c C01F35482   0.404   5.837  12.814 -2.3959  0.0825  0.5332
  1914G12c C01G35483   0.544   5.834  12.778  0.3935 -0.5635 -0.0804
  1914G12c H00L35484   0.564   5.762  12.699 -2.5952 -3.6022  1.7876
  1914G12c C01H35485   0.622   5.942  12.814  0.8905  0.5494  0.9332
  1914G12c H00B35486   0.693   5.984  12.743 -2.5138  0.4764 -2.6704
  1914G12c C01I35487   0.573   6.027  12.924 -0.1067 -0.0816 -0.6375
  1914G12c C01U35488   0.367   5.934  12.912 -0.4536  1.0383  0.2052
  1914G12c C00S35489  -0.011   6.362  12.893  0.7796  1.7049 -0.1096
  1914G12c C00K35490   0.207   6.370  12.975  0.9287 -0.0836 -0.8411
  1914G12c C00N35491   0.244   5.993  12.899  1.6791 -1.9589 -0.5128
  1914G12c C00035492   0.459   6.013  12.991  0.7022  0.7053  0.0129
  1914G12c C01J35493   0.610   6.168  12.945 -0.1040 -0.2854 -0.5900
  1914G12c C01K35494   0.737   6.233  12.889  1.6567  0.3028 -0.2041
  1914G12c C01P35495   0.855   6.199  12.844 -1.7365  0.9153 -0.9374
  1914G12c C01Q35496   0.914   6.073  12.903  2.4090 -0.8724  0.8213
  1914G12c H00G35497   0.848   5.995  12.936  0.5917  2.0070  4.3934
  1914G12c C01R35498   1.034   6.054  12.934 -0.4192 -0.5047 -0.5946
  1914G12c H00F35499   1.096   6.137  12.903 -6.6468  5.5923  1.9941
  1914G12c C01S35500   1.097   5.921  12.997  1.4922 -0.1772  1.4187
  1914G12c H00E35501   1.021   5.860  12.949 -1.2194 -1.7965  7.2350
  1914G12c H00D35502   1.061   5.906  13.099  0.3327  6.4098  2.2262
  1914G12c O00535503   1.213   5.878  12.965 -2.2662  0.6869  0.9667
  1914G12c H00C35504   1.203   5.794  12.923 -2.0302 -3.4362  8.3161
  1914G12c C01O35505   0.934   6.274  12.755 -0.1801  0.1573  1.3243
  1914G12c H00H35506   0.997   6.211  12.694 -5.3214  1.3864 -5.9238
  1914G12c C01N35507   0.887   6.393  12.714  1.5301  1.7828  1.2157
  1914G12c O00635508   0.954   6.453  12.604  0.2284 -0.3926  0.2516
  1914G12c C01T35509   1.085   6.403  12.578 -1.9283 -0.1185  0.2011
  1914G12c H00K35510   1.164   6.430  12.648 -1.9670 -0.2995  0.3159
  1914G12c H00J35511   1.095   6.297  12.557  0.4269  0.4827 -2.0294
  1914G12c H00I35512   1.112   6.484  12.510 -0.1797 -0.3233  0.6317
  1914G12c C01M35513   0.761   6.443  12.769 -0.4634 -0.6856  1.5808
  1914G12c C02035514   0.336   6.443  12.964  0.2518  1.1490 -1.0175
  1914G12c C02135515   0.349   6.581  12.947  0.1147 -0.2154 -2.3369
  1914G12c C01L35516   0.688   6.364  12.860  0.4018  0.4433  0.3266
  1914G12c O00735517   0.750   6.560  12.718 -1.2779 -1.3137  0.5240
  1914G12c C02235518   0.453   6.650  12.904  0.0713  0.0393 -0.0824
  1914G12c C02335519   0.233   6.632  12.877 -0.9811  0.3755  0.5108
  1914G12c C00G35520   0.055   6.724  12.687 -0.0501  1.1025  0.6449
  1914G12c C00E35521  -0.016   6.868  12.484 -0.1226  0.7259 -0.0717
  1914G12c O00A35522  -0.090   6.909  12.378 -1.4068 -0.9780  0.8432
  1914G12c C02435523  -0.108   7.057  12.376 -0.5465  1.6555  1.0734
  1914G12c H00V35524  -0.086   7.095  12.277 -2.0139  4.4290  1.7754
  1914G12c H00U35525  -0.060   7.126  12.445  1.2447 -0.2040  1.7387
  1914G12c H00T35526  -0.200   7.094  12.423 -4.6151 -1.4165 -3.8778
  1924G12c C00D35527   5.778   8.394   1.067  1.4954 -2.1748  1.7376
  1924G12c O00B35528   5.878   8.409   1.148 -0.1275  0.8401 -0.8449
  1924G12c C02535529   5.831   8.420   1.283 -0.7449 -0.0308 -0.8388
  1924G12c C02635530   5.856   8.285   1.367 -0.9334 -0.0849  0.8853
  1924G12c H00Y35531   5.942   8.233   1.323 -2.4312 -4.8068  3.1662
  1924G12c H00X35532   5.765   8.226   1.357 -2.1540  2.1609 -2.1077
  1924G12c O00C35533   5.890   8.336   1.493 -1.1911 -1.0130  0.4760
  1924G12c H00W35534   5.892   8.431   1.492 -1.1199 -0.8822  5.0163
  1924G12c C02735535   5.797   8.537   1.338 -1.4125  1.5917  1.5925
  1924G12c O00D35536   5.783   8.646   1.248  0.4670  0.1363 -0.7050
  1924G12c H00Z35537   5.741   8.626   1.166  1.9699  2.0895 -1.9735
  1924G12c C02835538   5.720   8.546   1.469  0.2271 -1.3146 -0.3766
  1924G12c C02935539   5.783   8.616   1.582 -0.1493 -0.3026  0.3730
  1924G12c H01035540   5.888   8.640   1.572 -1.5837  5.5814 -3.3823
  1924G12c C02T35541   5.720   8.653   1.717 -0.7834  0.0127  0.5477
  1924G12c H01O35542   5.774   8.699   1.799 -4.5511  4.2828  0.7572
  1924G12c C02S35543   5.580   8.611   1.706 -0.6215  1.7382 -0.7085
  1924G12c O00J35544   5.496   8.630   1.811 -0.2449 -0.3525 -0.8923
  1924G12c H01P35545   5.408   8.603   1.832 -1.6788  4.3946 -0.4207
  1924G12c C02R35546   5.520   8.522   1.602  0.0682  1.4782 -1.2889
  1924G12c O00I35547   5.386   8.466   1.618 -0.0107  0.1440  0.4842
  1924G12c C02Q35548   5.381   8.324   1.629 -0.2658 -0.4996  0.1222
  1924G12c H01N35549   5.312   8.268   1.566 -0.8737  1.5656 -1.1005
  1924G12c H01R35550   5.347   8.341   1.731 -0.6963  0.5786 -0.1860
  1924G12c H01Q35551   5.466   8.256   1.625 -0.1194 -0.3974  1.2491
  1924G12c C02A35552   5.599   8.489   1.486  1.4748  0.4783 -0.5032
  1924G12c H01135553   5.581   8.416   1.408  0.2169  1.4266 -1.1247
  1924G12c C00C35554   5.818   8.378   0.937 -0.7515  0.0682  0.2617
  1924G12c H01235555   5.919   8.353   0.907 -1.0708  3.5090 -4.3229
  1924G12c C00B35556   5.732   8.336   0.832  0.0519 -1.2471 -0.8494
  1924G12c C00A35557   5.771   8.292   0.703  1.6440 -0.9593  0.8835
  1924G12c C00935558   5.898   8.325   0.637 -0.2994 -1.9290 -1.1280
  1924G12c C00835559   6.024   8.396   0.666 -0.8729 -0.7804 -0.1857
  1924G12c H01335560   6.076   8.420   0.758 -0.4583  0.8063 -0.8294
  1924G12c C00735561   6.110   8.428   0.557  0.5200 -2.3644  0.8023
  1924G12c H01435562   6.209   8.457   0.589  0.1030  0.0794 -0.0741
  1924G12c C00635563   6.064   8.445   0.429 -0.9658 -0.3145  1.3914
  1924G12c C00535564   5.927   8.405   0.388 -1.2675 -0.3390  1.6999
  1924G12c C00435565   5.871   8.433   0.267 -1.0622 -2.4054  0.2073
  1924G12c C00335566   5.729   8.413   0.264 -0.4839 -0.5140 -0.1382
  1924G12c C00235567   5.663   8.456   0.140 -0.8992 -1.0999 -0.8692
  1924G12c C00135568   5.524   8.438   0.089 -1.3023 -1.6005  0.6731
  1924G12c C00M35569   5.423   8.466   0.187  0.9187  0.4000 -0.4396
  1924G12c C00L35570   5.390   8.391   0.291  1.2393  0.5211 -1.4304
  1924G12c C00R35571   5.295   8.431   0.395  1.8282  1.3574 -0.7850
  1924G12c C00Q35572   5.182   8.529   0.389 -0.8883 -0.3993 -0.3947
  1924G12c C00V35573   5.144   8.560   0.524  0.1170 -0.3184  1.3821
  1924G12c C00U35574   5.189   8.498   0.643 -1.7736  0.1205 -0.0325
  1924G12c C00T35575   5.301   8.407   0.643  1.3838 -0.7103 -0.1157
  1924G12c C01635576   5.380   8.379   0.752  0.4495 -0.7222  0.8696
  1924G12c C01535577   5.334   8.413   0.876  0.3104 -0.6209 -0.2025
  1924G12c C01035578   5.205   8.490   0.887 -0.4749 -2.1711  0.0422
  1924G12c C01135579   5.171   8.530   1.012 -0.4361 -1.7443  1.7057
  1924G12c H00535580   5.090   8.600   1.024  0.1868 -1.1597  2.6324
  1924G12c C01235581   5.230   8.505   1.135  0.2503 -0.1011  1.2321
  1924G12c C01735582   5.190   8.523   1.267 -1.9568  0.0074 -0.4139
  1924G12c O00235583   5.225   8.457   1.375  1.8270  0.8524 -0.9250
  1924G12c H00435584   5.288   8.505   1.426  4.1604  0.1747 -3.1082
  1924G12c C01835585   5.082   8.604   1.296 -1.3011  0.7747  0.2415
  1924G12c O00135586   4.979   8.665   1.208  0.6361 -1.2648  1.0973
  1924G12c H00335587   4.978   8.744   1.260  1.6833 -2.0865  2.4001
  1924G12c C01935588   5.047   8.636   1.433 -0.1368  1.6692  0.9748
  1924G12c H00235589   5.026   8.556   1.504 -2.1920  0.7485 -0.6530
  1924G12c H00135590   5.133   8.665   1.495  0.7529 -0.3050  0.7036
  1924G12c O00035591   4.971   8.757   1.432  1.0648 -1.0389  0.2419
  1924G12c C01A35592   5.015   8.879   1.484 -0.5457 -0.0897 -0.6249
  1924G12c C02K35593   4.906   8.965   1.528  1.0051 -0.9647  0.0365
  1924G12c O00G35594   4.774   8.927   1.523 -0.0823 -0.8857 -1.3729
  1924G12c C02M35595   4.668   8.997   1.579 -0.4101 -1.4790 -0.0392
  1924G12c H01G35596   4.713   9.025   1.674 -2.7977  1.0899  0.3880
  1924G12c H01F35597   4.573   8.944   1.565 -2.1182  1.6334 -0.6988
  1924G12c H01E35598   4.668   9.086   1.517  0.8605  0.8957  3.2622
  1924G12c C02J35599   4.950   9.094   1.598 -1.3871  0.2321 -0.0774
  1924G12c H01H35600   4.881   9.173   1.622 -1.8911  1.8838 -6.0930
  1924G12c C02I35601   5.082   9.128   1.624 -0.3021 -0.4196 -0.1778
  1924G12c C02N35602   5.111   9.248   1.705  1.4785  1.0903 -0.8131
  1924G12c H01M35603   5.152   9.259   1.804  0.0987 -4.9299  0.6361
  1924G12c C02O35604   5.122   9.373   1.633  0.5014  0.8907 -0.4816
  1924G12c H01L35605   5.176   9.450   1.686  1.4889 -2.1864  3.2789
  1924G12c C02P35606   5.086   9.424   1.497 -0.6118 -0.1309  0.7336
  1924G12c H01K35607   4.977   9.427   1.487 -1.0783  8.8123  4.4566
  1924G12c H01J35608   5.112   9.529   1.495  0.7039 -0.4745 -0.9097
  1924G12c O00H35609   5.125   9.317   1.403 -0.0615 -0.5518 -0.6046
  1924G12c H01I35610   5.093   9.233   1.433  0.5174 -0.6565 -0.2782
  1924G12c C02H35611   5.188   9.050   1.570  0.2689  1.4492 -0.0770
  1924G12c H01C35612   5.286   9.097   1.569  0.8757  0.4206 -5.3999
  1924G12c C02L35613   5.154   8.934   1.489 -0.1225 -0.4265 -0.2516
  1924G12c H01D35614   5.234   8.887   1.433  1.5579  2.9888 -0.8350
  1924G12c C01335615   5.358   8.436   1.125  1.2258  0.6887  0.5682
  1924G12c H00035616   5.413   8.441   1.218  0.3513 -2.2735  1.3159
  1924G12c C01435617   5.403   8.379   0.991  1.4171  0.6130 -0.6756
  1924G12c C00F35618   5.531   8.350   0.982 -1.1760 -0.5603 -2.6405
  1924G12c C00H35619   5.509   8.358   0.737  0.0283 -0.2418  1.2327
  1924G12c C00I35620   5.558   8.333   0.610  0.0847  0.2554 -0.6573
  1924G12c C00J35621   5.461   8.333   0.504  1.1960 -0.1636 -0.8210
  1924G12c C00Z35622   5.144   8.542   0.770 -2.1300  2.4955 -0.3450
  1924G12c C00Y35623   5.045   8.629   0.778 -0.9906  1.0820 -2.3355
  1924G12c H00635624   5.006   8.649   0.877  2.9282 -0.1117 -0.4636
  1924G12c C00X35625   5.001   8.704   0.661  0.9621 -0.9084  0.1752
  1924G12c O00335626   4.949   8.827   0.679 -0.4977 -0.6168  2.4382
  1924G12c C01B35627   5.040   8.933   0.660  0.7310  0.6189 -2.5231
  1924G12c H00935628   5.123   8.908   0.594  1.6266 -8.0102  1.1586
  1924G12c H00835629   5.061   8.970   0.760  0.9528 -2.8035 -1.2188
  1924G12c H00735630   4.990   9.025   0.630 -0.7037  0.0315 -1.9779
  1924G12c C00W35631   5.064   8.667   0.539  2.7791 -1.6752 -0.5853
  1924G12c O00435632   5.024   8.754   0.439  0.2280 -0.2375  0.7252
  1924G12c C01C35633   5.038   8.725   0.305 -0.7203 -0.1137 -1.1401
  1924G12c H00A35634   4.953   8.717   0.240  2.8970  0.0360 -6.2393
  1924G12c C00P35635   5.150   8.636   0.287 -1.0764  1.4224  0.7203
  1924G12c C00O35636   5.243   8.665   0.179  1.2826  0.5099  1.2157
  1924G12c C01D35637   5.225   8.781   0.092 -0.1363  0.8966  2.5892
  1924G12c H00S35638   5.139   8.842   0.069  0.3210  0.2979 -0.9729
  1924G12c C01E35639   5.332   8.831   0.010  0.8939 -0.1055  0.3547
  1924G12c O00835640   5.314   8.971  -0.036 -0.4603  0.6787 -1.2011
  1924G12c C01V35641   5.364   9.057   0.074 -0.3500 -0.6177 -1.1582
  1924G12c C01Z35642   5.406   9.197   0.025  1.2480  0.0777  0.0165
  1924G12c H00R35643   5.514   9.202   0.009  1.1656 -0.8624 -0.9333
  1924G12c H00Q35644   5.334   9.242   0.093 -0.2817 -4.4806  1.6199
  1924G12c O00935645   5.348   9.208  -0.107 -0.3653  1.9182 -0.1388
  1924G12c H00P35646   5.401   9.273  -0.151  0.7103  0.9685 -0.2732
  1924G12c C01W35647   5.342   9.024   0.208 -0.0673 -0.1723  0.6551
  1924G12c H00O35648   5.330   8.922   0.243  2.7874 -2.1034 -3.6200
  1924G12c C01X35649   5.391   9.100   0.320  0.3261 -0.9427 -1.2615
  1924G12c H00N35650   5.419   9.193   0.270 -5.7680  1.7387 -0.1253
  1924G12c H00M35651   5.327   9.118   0.406  1.1393 -3.0978 -0.1649
  1924G12c C01Y35652   5.510   9.049   0.393  0.4499 -0.3309  0.7416
  1924G12c C02D35653   5.596   8.969   0.322  0.5264  1.1071 -0.2227
  1924G12c H01935654   5.557   8.908   0.242 -2.1046 -3.1899  4.1004
  1924G12c C02C35655   5.732   8.969   0.354  0.8728 -0.4333  0.2735
  1924G12c H01A35656   5.783   8.882   0.315  0.1707  1.3529 -4.9096
  1924G12c C02B35657   5.796   9.026   0.451  0.5795 -0.4212 -0.4052
  1924G12c O00E35658   5.928   9.047   0.464  0.9754 -0.6903 -1.1351
  1924G12c H01B35659   5.958   9.123   0.416 -8.1581  2.1254 -3.3507
  1924G12c C02F35660   5.707   9.103   0.528 -0.5122 -1.5124  0.9683
  1924G12c O00F35661   5.767   9.181   0.631 -0.4201 -0.7055  0.2078
  1924G12c C02G35662   5.712   9.202   0.753  0.9876 -0.2128  1.8201
  1924G12c H01735663   5.803   9.195   0.812  2.3635  5.8422  0.7305
  1924G12c H01635664   5.631   9.136   0.784 -0.1983 -0.7931 -2.2645
  1924G12c H01535665   5.667   9.302   0.751 -4.7992 -2.6158 -3.1608
  1924G12c C02E35666   5.568   9.135   0.498 -0.3011  0.6455 -0.4185
  1924G12c H01835667   5.498   9.195   0.554 -2.3524 -1.3294 -0.7606
  1924G12c C01F35668   5.427   8.748  -0.030  0.1848 -2.5203 -0.3299
  1924G12c C01G35669   5.539   8.794  -0.114 -1.1765 -2.3731 -0.7090
  1924G12c H00L35670   5.555   8.900  -0.119  5.0972 -3.0632  0.3671
  1924G12c C01H35671   5.672   8.720  -0.113  0.2327  0.3672  1.6222
  1924G12c H00B35672   5.762   8.768  -0.149  1.2671  0.2482  3.9245
  1924G12c C01I35673   5.657   8.591  -0.059 -1.3201 -0.8135  0.4167
  1924G12c C01U35674   5.428   8.625   0.021 -1.0852  0.6176  0.6216
  1924G12c C00S35675   5.336   8.375   0.516  2.0395 -0.6578  0.8556
  1924G12c C00K35676   5.497   8.330   0.368 -0.3740 -0.0982 -1.2164
  1924G12c C00N35677   5.359   8.587   0.134  0.7009  0.0280 -0.2919
  1924G12c C00035678   5.531   8.537  -0.019  1.1284  0.7903  0.6522
  1924G12c C01J35679   5.750   8.534   0.040 -0.4231  0.3843  0.8015
  1924G12c C01K35680   5.904   8.549   0.046  0.1495  0.1888 -0.4481
  1924G12c C01P35681   6.006   8.607  -0.044  2.0383 -0.5031 -0.4808
  1924G12c C01Q35682   5.976   8.658  -0.181 -0.3137 -0.6127 -0.0448
  1924G12c H00G35683   5.997   8.753  -0.227  3.8950 -1.4324  0.0219
  1924G12c C01R35684   5.964   8.549  -0.255  0.5674 -0.7511 -0.1899
  1924G12c H00F35685   5.938   8.450  -0.220 -3.2241 -1.4321 -4.5091
  1924G12c C01S35686   5.995   8.547  -0.408  0.2564 -0.2201 -0.4475
  1924G12c H00E35687   6.052   8.456  -0.428  2.1452  1.9800 -6.1992
  1924G12c H00D35688   5.903   8.539  -0.466 -2.0909  1.5725  2.8531
  1924G12c O00535689   6.053   8.658  -0.458 -1.2351 -0.7721  0.1367
  1924G12c H00C35690   6.143   8.631  -0.472 -1.7985 -4.7791  3.1498
  1924G12c C01O35691   6.142   8.610  -0.004 -0.5515 -0.1459 -1.7244
  1924G12c H00H35692   6.214   8.640  -0.079  0.9851 -5.6887 -2.6992
  1924G12c C01N35693   6.187   8.570   0.115 -1.2112  0.0590 -0.8147
  1924G12c O00635694   6.324   8.554   0.130 -0.3631  0.1175 -0.7732
  1924G12c C01T35695   6.377   8.657   0.222  0.0007 -1.0315  0.4631
  1924G12c H00K35696   6.325   8.751   0.240 -3.5423 -3.2450  2.3406
  1924G12c H00J35697   6.485   8.656   0.240  0.3849 -1.3581 -1.7598
  1924G12c H00I35698   6.336   8.591   0.299 -0.1734 -2.2113 -0.6194
  1924G12c C01M35699   6.092   8.527   0.213 -0.0379  0.2009 -0.0725
  1924G12c C02035700   5.642   8.345   0.372 -0.3957  1.6914  0.8536
  1924G12c C02135701   5.724   8.301   0.473 -1.2271 -0.2529  0.8166
  1924G12c C01L35702   5.947   8.490   0.170 -0.3348 -0.3197 -0.8085
  1924G12c O00735703   6.144   8.522   0.342  0.9371 -1.3173 -0.4878
  1924G12c C02235704   5.859   8.328   0.498  0.1389 -0.2976 -0.2654
  1924G12c C02335705   5.684   8.275   0.600  0.1936  0.6580 -0.3259
  1924G12c C00G35706   5.591   8.338   0.852 -1.6632  0.8065 -1.1098
  1924G12c C00E35707   5.634   8.370   1.085  0.2609  0.0284 -0.5064
  1924G12c O00A35708   5.598   8.311   1.211  0.7862 -1.2606  0.2932
  1924G12c C02435709   5.523   8.194   1.199  0.7512  1.9621 -0.7570
  1924G12c H00V35710   5.522   8.112   1.271  8.1152  2.6397  0.5521
  1924G12c H00U35711   5.426   8.215   1.155  2.5589  2.1443 -4.9000
  1924G12c H00T35712   5.596   8.131   1.148 -2.3878  1.9797 -5.6192
  1934G12c C00D35713   3.498   2.910  10.871  0.5900 -0.7087 -1.2250
  1934G12c O00B35714   3.607   2.840  10.887 -1.9608  1.5404  1.5071
  1934G12c C02535715   3.645   2.712  10.858 -0.6418  0.5913  0.2941
  1934G12c C02635716   3.695   2.639  10.971  1.0294  0.9777  1.7912
  1934G12c H00Y35717   3.609   2.584  11.009  2.0578 -0.3073  2.3252
  1934G12c H00X35718   3.754   2.556  10.931  1.0970  2.9629 -2.4862
  1934G12c O00C35719   3.788   2.709  11.065  1.0323  1.9655 -0.0113
  1934G12c H00W35720   3.802   2.650  11.138 -6.8420 -2.0025 -1.1515
  1934G12c C02735721   3.653   2.678  10.715 -0.3185  1.1804  0.7591
  1934G12c O00D35722   3.597   2.747  10.609 -1.7775  0.7397 -0.1013
  1934G12c H00Z35723   3.585   2.839  10.628  2.6173  1.2812  0.6261
  1934G12c C02835724   3.710   2.550  10.681 -1.7686  0.7164 -0.6368
  1934G12c C02935725   3.623   2.442  10.679  0.4066  0.5810  1.2983
  1934G12c H01035726   3.525   2.480  10.706 -3.2289 -4.0571 -4.1394
  1934G12c C02T35727   3.667   2.319  10.699  0.4329  0.3019  0.5519
  1934G12c H01O35728   3.590   2.245  10.716  0.0581  0.8954  1.4765
  1934G12c C02S35729   3.796   2.285  10.676 -0.1360  0.2864 -0.3250
  1934G12c O00J35730   3.821   2.158  10.618  0.8850 -0.5138  0.6469
  1934G12c H01P35731   3.916   2.156  10.625  0.7251  1.0022  3.8524
  1934G12c C02R35732   3.903   2.389  10.683 -0.3749  0.2232  1.3919
  1934G12c O00I35733   4.033   2.368  10.636 -0.0364  0.1067 -0.1920
  1934G12c C02Q35734   4.060   2.409  10.505  3.0208  0.9010 -0.9172
  1934G12c H01N35735   4.163   2.433  10.476  4.9350 -0.1789  4.3739
  1934G12c H01R35736   4.014   2.337  10.437 -2.1340  7.2050 -4.6636
  1934G12c H01Q35737   4.003   2.498  10.479  3.3392  1.3409 -0.1204
  1934G12c C02A35738   3.842   2.526  10.661  1.0129 -2.4356 -0.2982
  1934G12c H01135739   3.915   2.593  10.703  2.9454  0.2952 -7.2708
  1934G12c C00C35740   3.386   2.829  10.870  0.3538 -1.1887 -1.4948
  1934G12c H01235741   3.389   2.726  10.900 -1.6966  0.1341  3.7672
  1934G12c C00B35742   3.251   2.898  10.865 -1.7260  0.7292 -0.3530
  1934G12c C00A35743   3.125   2.827  10.865  1.3823 -0.6688 -0.5488
  1934G12c C00935744   3.093   2.697  10.825 -1.6846  1.4362 -1.8116
  1934G12c C00835745   3.173   2.603  10.757 -0.9381 -1.9914  0.1661
  1934G12c H01335746   3.278   2.626  10.766 -0.9817 -2.4198  2.0151
  1934G12c C00735747   3.116   2.528  10.656 -1.1248  0.8589  0.4627
  1934G12c H01435748   3.152   2.455  10.585 -7.2138 -3.0942  1.0642
  1934G12c C00635749   2.974   2.511  10.655  2.1321 -0.2577  0.6471
  1934G12c C00535750   2.899   2.615  10.709 -0.6801 -0.4705 -0.0557
  1934G12c C00435751   2.782   2.665  10.660 -0.6809  1.1256  0.8137
  1934G12c C00335752   2.732   2.796  10.687 -0.4164  1.2699 -1.2763
  1934G12c C00235753   2.601   2.826  10.641  0.4436  0.7715  0.0963
  1934G12c C00135754   2.524   2.945  10.673 -1.1701  0.2985  0.9815
  1934G12c C00M35755   2.567   3.088  10.660 -1.3825 -0.2412  1.1659
  1934G12c C00L35756   2.702   3.105  10.692 -0.8031 -1.1298  0.0086
  1934G12c C00R35757   2.775   3.221  10.673  0.6598  0.7174  0.2673
  1934G12c C00Q35758   2.769   3.324  10.581  1.2258  2.4079 -1.7927
  1934G12c C00V35759   2.881   3.417  10.575  1.0946 -1.8774 -0.1393
  1934G12c C00U35760   2.999   3.377  10.632 -0.3540 -0.8229 -0.5244
  1934G12c C00T35761   3.012   3.274  10.718 -0.1660 -0.0650  0.6137
  1934G12c C01635762   3.130   3.222  10.776 -0.0322 -0.7713  1.0187
  1934G12c C01535763   3.235   3.293  10.759 -0.4988 -1.8062  0.5177
  1934G12c C01035764   3.234   3.414  10.693  0.0435 -0.6009  1.4763
  1934G12c C01135765   3.353   3.491  10.678 -0.8483 -0.4165 -0.0661
  1934G12c H00535766   3.364   3.563  10.598 -1.6726  3.6666  3.2930
  1934G12c C01235767   3.466   3.469  10.738  0.4863 -0.7288  0.1421
  1934G12c C01735768   3.586   3.547  10.759  0.9995  1.1793  1.4947
  1934G12c O00235769   3.673   3.499  10.847  0.0205  0.0866 -0.6118
  1934G12c H00435770   3.744   3.547  10.808 -2.1890  1.1484 -3.4744
  1934G12c C01835771   3.613   3.672  10.704 -0.8425  0.6899 -0.6081
  1934G12c O00135772   3.523   3.761  10.637  0.3623  0.6122  0.0438
  1934G12c H00335773   3.572   3.775  10.557 -1.6600 -5.3545 -2.5784
  1934G12c C01935774   3.771   3.736  10.712 -0.5731 -0.9447  1.0943
  1934G12c H00235775   3.836   3.649  10.720  2.7402  0.8337 -4.0708
  1934G12c H00135776   3.752   3.797  10.800 -1.9223  4.7080 -2.8135
  1934G12c O00035777   3.798   3.812  10.616  0.5654  0.5653  1.3975
  1934G12c C01A35778   3.782   3.961  10.608  0.0078 -0.7348 -1.2764
  1934G12c C02K35779   3.867   4.006  10.522  0.0060  1.5497 -0.9463
  1934G12c O00G35780   3.898   3.934  10.406  0.2709  0.4380 -0.5930
  1934G12c C02M35781   3.860   3.808  10.367 -0.0310 -0.1697  0.1721
  1934G12c H01G35782   3.917   3.725  10.409  0.9874  1.6425  2.4977
  1934G12c H01F35783   3.752   3.811  10.361  0.1347  3.9973 -3.1914
  1934G12c H01E35784   3.902   3.799  10.267 -1.1598  3.5935 -0.7180
  1934G12c C02J35785   3.945   4.129  10.566 -1.6109 -0.3283 -2.2286
  1934G12c H01H35786   4.041   4.131  10.515  3.9768 -2.9119  6.9816
  1934G12c C02I35787   3.903   4.206  10.680 -0.7670 -0.7447  2.0839
  1934G12c C02N35788   3.991   4.309  10.732 -0.4526  0.1608 -0.0867
  1934G12c H01M35789   4.092   4.296  10.766 -1.1716 -2.0260  1.2907
  1934G12c C02O35790   3.939   4.429  10.748 -0.3741 -0.7997  1.3085
  1934G12c H01L35791   3.838   4.445  10.713 -0.6218 -2.3571  1.2785
  1934G12c C02P35792   4.023   4.539  10.810 -1.9132  0.4603  1.3090
  1934G12c H01K35793   3.934   4.540  10.873 -2.5595  1.4075  0.3932
  1934G12c H01J35794   4.106   4.502  10.870  1.1485 -0.8918 -3.5307
  1934G12c O00H35795   4.029   4.678  10.769 -0.2821  1.6536  1.3904
  1934G12c H01I35796   4.113   4.697  10.730 -1.5487  5.5439  0.3417
  1934G12c C02H35797   3.788   4.166  10.726  0.1606 -0.2436  0.1183
  1934G12c H01C35798   3.731   4.232  10.790 -2.4449 -3.2749  1.0539
  1934G12c C02L35799   3.730   4.034  10.716  0.6541  0.1333 -0.3080
  1934G12c H01D35800   3.658   3.970  10.764  2.4248 -2.8623 -1.4865
  1934G12c C01335801   3.466   3.344  10.801  0.2131  1.2346  0.1692
  1934G12c H00035802   3.545   3.309  10.866  0.1930 -1.6798 -1.3003
  1934G12c C01435803   3.366   3.259  10.807 -0.6363  0.9457 -0.9481
  1934G12c C00F35804   3.369   3.123  10.860 -0.1390 -1.4579 -0.0728
  1934G12c C00H35805   3.122   3.093  10.831 -0.0749  1.0650 -0.0530
  1934G12c C00I35806   3.003   3.031  10.856 -0.1049 -0.0221  0.4213
  1934G12c C00J35807   2.893   3.103  10.827  0.2721  1.4445  0.7514
  1934G12c C00Z35808   3.109   3.452  10.627 -0.7464  0.6025 -0.7331
  1934G12c C00Y35809   3.094   3.590  10.565  1.1333  0.8751  1.3022
  1934G12c H00635810   3.184   3.651  10.566 -2.6380  6.9068  2.2772
  1934G12c C00X35811   2.978   3.635  10.512  1.1965  0.1538  0.1081
  1934G12c O00335812   2.971   3.773  10.502  0.0040 -0.2358  1.2227
  1934G12c C01B35813   2.860   3.856  10.482  0.8117  0.8229 -0.4945
  1934G12c H00935814   2.908   3.887  10.389  1.0863 -1.6299 -1.1900
  1934G12c H00835815   2.856   3.942  10.550  1.8845 -3.2524  5.1027
  1934G12c H00735816   2.756   3.827  10.497  1.4459 -0.7062  1.0832
  1934G12c C00W35817   2.859   3.551  10.525 -0.4590 -0.3093 -1.1234
  1934G12c O00435818   2.758   3.596  10.423  0.8244  1.8321  1.1942
  1934G12c C01C35819   2.679   3.474  10.395  0.4482 -0.4728 -1.7258
  1934G12c H00A35820   2.678   3.447  10.290 -3.2255  4.6863 -3.1852
  1934G12c C00P35821   2.671   3.354  10.488 -0.2402 -0.7847  1.5103
  1934G12c C00O35822   2.539   3.282  10.472 -0.2031  0.6768 -0.7244
  1934G12c C01D35823   2.455   3.293  10.361  1.0330 -1.0168  0.0587
  1934G12c H00S35824   2.467   3.386  10.306 -4.0339 -2.0704 -3.1739
  1934G12c C01E35825   2.380   3.197  10.294  1.3297 -0.2080  1.1273
  1934G12c O00835826   2.339   3.203  10.156 -1.1817  0.6420  0.2125
  1934G12c C01V35827   2.200   3.224  10.124  0.2351 -1.4032 -3.0122
  1934G12c C01Z35828   2.140   3.179   9.997  0.4025 -0.8855 -1.1493
  1934G12c H00R35829   2.218   3.106   9.978  0.5912 -1.4399  1.5388
  1934G12c H00Q35830   2.052   3.137  10.045 -2.6086  4.0103 -1.9741
  1934G12c O00935831   2.125   3.281   9.901  0.4670  0.2525  1.5113
  1934G12c H00P35832   2.185   3.266   9.830  0.7027 -3.5006  2.3665
  1934G12c C01W35833   2.119   3.278  10.231 -0.0018  0.1479  0.0220
  1934G12c H00O35834   2.161   3.294  10.329 -0.2147 -0.3403  0.1914
  1934G12c C01X35835   1.993   3.359  10.191  2.2982 -0.7108  0.4900
  1934G12c H00N35836   1.996   3.461  10.228  1.1222  0.7767 -3.2211
  1934G12c H00M35837   2.010   3.359  10.083 -4.0536  2.4633 -0.7873
  1934G12c C01Y35838   1.863   3.293  10.227  1.2007  0.8401 -0.7894
  1934G12c C02D35839   1.816   3.231  10.348 -0.8932  1.9951  0.0838
  1934G12c H01935840   1.887   3.198  10.423 -0.3391  2.3163 -0.2905
  1934G12c C02C35841   1.677   3.198  10.361 -1.1211  0.3620  0.7346
  1934G12c H01A35842   1.635   3.152  10.449  0.8818 -6.1954 -1.4384
  1934G12c C02B35843   1.601   3.176  10.254 -0.8133 -0.2103  0.7024
  1934G12c O00E35844   1.491   3.101  10.285  1.6000  0.4148 -1.6857
  1934G12c H01B35845   1.436   3.068  10.216 -2.8599 -0.1747  1.8786
  1934G12c C02F35846   1.643   3.207  10.119  0.1365  0.1581  0.1593
  1934G12c O00F35847   1.554   3.214   9.995  0.4549  1.7994 -0.9045
  1934G12c C02G35848   1.641   3.201   9.870 -0.3373 -0.5803 -0.8023
  1934G12c H01735849   1.687   3.284   9.816 -1.0394 -1.1316 -2.2646
  1934G12c H01635850   1.612   3.185   9.766 -0.3236 -2.9412 -0.4723
  1934G12c H01535851   1.700   3.110   9.871 -0.5364 -0.7012  0.4438
  1934G12c C02E35852   1.770   3.284  10.117 -0.5485  0.8589 -0.2213
  1934G12c H01835853   1.781   3.341  10.025 -3.1308 -0.1636 -1.2064
  1934G12c C01F35854   2.382   3.080  10.376  0.9220 -1.7672  0.9227
  1934G12c C01G35855   2.379   2.952  10.305 -0.0848 -1.7011  0.3356
  1934G12c H00L35856   2.414   2.939  10.204  1.6235  0.0189  0.6769
  1934G12c C01H35857   2.386   2.822  10.371 -1.4330 -3.1417  0.3185
  1934G12c H00B35858   2.409   2.743  10.302 -0.3326 -2.2407 -0.3633
  1934G12c C01I35859   2.419   2.814  10.507 -0.0288  1.5394 -0.1005
  1934G12c C01U35860   2.393   3.073  10.519  0.6209  1.5433  1.2925
  1934G12c C00S35861   2.892   3.210  10.746 -0.5027  0.6933 -0.4419
  1934G12c C00K35862   2.782   3.019  10.767 -0.9948  0.5327 -0.8858
  1934G12c C00N35863   2.513   3.155  10.547  1.1312  0.5028 -1.5462
  1934G12c C00035864   2.403   2.940  10.586  1.1692  0.6876  0.9653
  1934G12c C01J35865   2.539   2.737  10.548 -0.0958  0.1862  1.5753
  1934G12c C01K35866   2.566   2.590  10.535 -0.7040 -1.0101 -0.4506
  1934G12c C01P35867   2.508   2.483  10.480 -0.5956  1.1289  0.0355
  1934G12c C01Q35868   2.377   2.469  10.439  0.5451  0.5497  0.9025
  1934G12c H00G35869   2.365   2.428  10.340  3.2202  3.1885 -0.5796
  1934G12c C01R35870   2.271   2.484  10.520  0.3831 -2.0164 -3.1409
  1934G12c H00F35871   2.286   2.491  10.627  3.8755  2.6704 -3.7668
  1934G12c C01S35872   2.138   2.431  10.488  0.4997  1.5185 -0.4284
  1934G12c H00E35873   2.049   2.455  10.545  0.8884 -0.5310  1.1122
  1934G12c H00D35874   2.132   2.324  10.509 -3.8659  1.4988 -1.4538
  1934G12c O00535875   2.131   2.440  10.344 -0.9698  0.1947  0.6427
  1934G12c H00C35876   2.038   2.441  10.327 -0.3973  1.5159 -3.0251
  1934G12c C01O35877   2.575   2.358  10.476  0.0268 -1.6066  1.1873
  1934G12c H00H35878   2.524   2.264  10.463 -2.1152 -0.7055  2.7493
  1934G12c C01N35879   2.724   2.360  10.470  0.0528 -2.0640 -0.7029
  1934G12c O00635880   2.794   2.257  10.438 -1.7592  0.2799 -0.6545
  1934G12c C01T35881   2.744   2.135  10.469 -1.2361 -1.1352 -0.6765
  1934G12c H00K35882   2.794   2.044  10.437 -2.1648 -3.0716  3.0350
  1934G12c H00J35883   2.641   2.101  10.458 -1.9353  1.1577 -1.5427
  1934G12c H00I35884   2.763   2.103  10.572  1.0823  1.5954 -0.1980
  1934G12c C01M35885   2.767   2.457  10.556  1.2864  1.5686  1.0205
  1934G12c C02035886   2.787   2.875  10.788  0.1540 -0.7411 -0.4959
  1934G12c C02135887   2.895   2.805  10.861  0.5183 -1.1207  0.4304
  1934G12c C01L35888   2.693   2.572  10.593  0.5810  0.5505  0.0644
  1934G12c O00735889   2.902   2.411  10.593  2.0799 -0.8617  0.0949
  1934G12c C02235890   2.952   2.700  10.810 -0.6633 -0.4458  0.8953
  1934G12c C02335891   3.007   2.888  10.882 -0.6391  0.5359 -1.6689
  1934G12c C00G35892   3.250   3.037  10.861  2.4250 -0.7224  1.9272
  1934G12c C00E35893   3.492   3.055  10.889 -0.5948 -1.2287  0.8633
  1934G12c O00A35894   3.595   3.141  10.935 -0.0421  0.5075 -0.8129
  1934G12c C02435895   3.693   3.079  10.989 -2.1616  1.9311 -0.9546
  1934G12c H00V35896   3.741   3.168  11.030  1.9155  1.6170 -4.6403
  1934G12c H00U35897   3.763   3.048  10.911  3.1416  2.1556  3.4511
  1934G12c H00T35898   3.639   3.015  11.058 -0.9782  3.1066  1.1012
  1944G12c C00D35899   9.232  10.780   3.138 -1.3620  0.8882  1.3070
  1944G12c O00B35900   9.173  10.668   3.204 -1.1174 -1.3082  1.6280
  1944G12c C02535901   9.199  10.532   3.163 -2.4507  1.3069 -1.2344
  1944G12c C02635902   9.110  10.476   3.048  0.6186  0.8140 -0.0084
  1944G12c H00Y35903   9.148  10.386   3.000 -7.3189 -5.1074  3.7547
  1944G12c H00X35904   9.142  10.558   2.983 -2.6603  0.5861 -2.0081
  1944G12c O00C35905   8.970  10.458   3.065 -1.2507  0.2410  0.8294
  1944G12c H00W35906   8.909  10.509   3.115  5.2940  0.6285  9.5556
  1944G12c C02735907   9.328  10.478   3.196  1.7804 -0.2825 -0.6021
  1944G12c O00D35908   9.354  10.350   3.141  0.4989 -0.4122 -0.5478
  1944G12c H00Z35909   9.362  10.297   3.219 -0.3042  1.7865  1.0962
  1944G12c C02835910   9.441  10.542   3.253  0.8502 -1.1513  3.0637
  1944G12c C02935911   9.564  10.564   3.181  0.1566  1.4483 -1.8516
  1944G12c H01035912   9.542  10.498   3.099 -6.0471 -4.0396  3.6650
  1944G12c C02T35913   9.685  10.625   3.229  1.4306 -1.2483 -0.2123
  1944G12c H01O35914   9.787  10.610   3.195 -0.0848 -1.5697 -5.0151
  1944G12c C02S35915   9.678  10.677   3.363  0.6637 -0.5008  0.0520
  1944G12c O00J35916   9.782  10.755   3.413  0.6490 -0.3537  1.3968
  1944G12c H01P35917   9.778  10.836   3.365  0.2786 -2.2124 -1.8690
  1944G12c C02R35918   9.564  10.654   3.441  1.0175  0.9108 -0.1143
  1944G12c O00I35919   9.536  10.756   3.519  0.8278 -0.3049  0.8009
  1944G12c C02Q35920   9.486  10.707   3.635  2.0959  0.7883  0.2918
  1944G12c H01N35921   9.458  10.804   3.676  1.5863  1.4742 -1.6130
  1944G12c H01R35922   9.396  10.647   3.627  3.2926 -1.4803  3.2163
  1944G12c H01Q35923   9.545  10.631   3.685 -1.1392 -0.3573  2.4894
  1944G12c C02A35924   9.450  10.601   3.382 -0.9266 -0.1218 -1.0966
  1944G12c H01135925   9.351  10.596   3.425  0.8729 -5.6112  3.1900
  1944G12c C00C35926   9.328  10.788   3.027 -0.6346  0.2548  0.1130
  1944G12c H01235927   9.400  10.713   2.999  1.3320  1.2311  2.3828
  1944G12c C00B35928   9.313  10.913   2.958 -0.6276  0.9768 -1.5593
  1944G12c C00A35929   9.354  10.961   2.826  1.4149  0.2847 -0.2411
  1944G12c C00935930   9.448  10.906   2.737 -0.5684 -0.6489 -1.1806
  1944G12c C00835931   9.560  10.825   2.758 -0.0837 -0.1451 -1.0599
  1944G12c H01335932   9.576  10.787   2.858  2.7834  1.5215 -0.8395
  1944G12c C00735933   9.662  10.809   2.666 -0.0944  1.1897  1.1461
  1944G12c H01435934   9.731  10.729   2.689 -6.1598 -3.3102  5.3093
  1944G12c C00635935   9.675  10.910   2.559  0.1797  2.3145  1.8811
  1944G12c C00535936   9.573  11.005   2.548 -0.0696  0.3052  0.5680
  1944G12c C00435937   9.590  11.130   2.477 -0.6202  0.0513 -0.1356
  1944G12c C00335938   9.497  11.240   2.503  0.5143 -0.6913 -0.8769
  1944G12c C00235939   9.541  11.371   2.448  0.8973  0.7438 -0.1613
  1944G12c C00135940   9.498  11.510   2.466 -1.1630  1.4411 -0.6063
  1944G12c C00M35941   9.477  11.563   2.593  0.8620 -0.4596  1.0828
  1944G12c C00L35942   9.425  11.478   2.695 -1.6098  1.4634 -0.3062
  1944G12c C00R35943   9.403  11.507   2.829 -1.6842  0.0422  0.7172
  1944G12c C00Q35944   9.454  11.612   2.912  1.8306  1.7035  0.4499
  1944G12c C00V35945   9.407  11.603   3.045 -0.9241  0.8187  0.1419
  1944G12c C00U35946   9.355  11.476   3.100 -1.2800 -0.8847  2.0101
  1944G12c C00T35947   9.318  11.380   3.016  0.4406 -0.4804  3.2756
  1944G12c C01635948   9.268  11.256   3.052  1.4860 -0.6760 -0.5473
  1944G12c C01535949   9.247  11.239   3.197  1.1739 -0.3167  1.0815
  1944G12c C01035950   9.282  11.330   3.291 -1.0589 -0.1432  0.6128
  1944G12c C01135951   9.261  11.311   3.435 -2.4728 -1.5159 -0.6931
  1944G12c H00535952   9.279  11.396   3.498 -3.3175 -1.8470  0.0182
  1944G12c C01235953   9.194  11.192   3.468 -0.6594  0.6523 -0.9482
  1944G12c C01735954   9.165  11.159   3.600  0.8188  0.5167  0.1690
  1944G12c O00235955   9.201  11.034   3.650 -0.0615 -0.4594  1.2783
  1944G12c H00435956   9.155  11.028   3.732  0.2394  0.8243  1.5588
  1944G12c C01835957   9.074  11.245   3.666 -0.0391 -0.1354  0.2543
  1944G12c O00135958   9.036  11.371   3.626  1.0899  1.1293  0.1248
  1944G12c H00335959   9.039  11.384   3.533  5.7590 -1.0615 -0.1575
  1944G12c C01935960   9.010  11.208   3.794 -0.9454  1.8031  0.0040
  1944G12c H00235961   9.034  11.291   3.861 -4.7189  3.8008 -1.0045
  1944G12c H00135962   8.908  11.211   3.756 -0.8773  2.9757 -0.1019
  1944G12c O00035963   9.069  11.092   3.857  0.6551 -0.9636 -0.7496
  1944G12c C01A35964   8.985  11.045   3.955  1.9275  1.4466  0.2923
  1944G12c C02K35965   9.044  11.014   4.075  0.0105 -1.6724 -0.6789
  1944G12c O00G35966   9.157  11.080   4.118 -0.8108 -1.1017 -1.7164
  1944G12c C02M35967   9.282  11.005   4.113 -0.7360 -0.6744  1.2866
  1944G12c H01G35968   9.283  10.909   4.165  4.4885 -1.5905 -0.1856
  1944G12c H01F35969   9.376  11.050   4.145 -3.1891 -1.0442 10.6870
  1944G12c H01E35970   9.314  10.996   4.009  7.9813  5.9744  2.7955
  1944G12c C02J35971   8.992  10.914   4.168 -0.1639 -1.5339  1.1382
  1944G12c H01H35972   9.053  10.877   4.249 -4.7086 -1.4262  4.8445
  1944G12c C02I35973   8.868  10.855   4.156  0.1512  0.1032  0.7342
  1944G12c C02N35974   8.800  10.786   4.253  0.3363 -0.4514 -2.7046
  1944G12c H01M35975   8.713  10.826   4.304  3.8035  4.1549  0.0217
  1944G12c C02O35976   8.855  10.673   4.304  1.8417 -0.1654  0.1484
  1944G12c H01L35977   8.960  10.660   4.278  2.9033  2.5469  2.7963
  1944G12c C02P35978   8.799  10.571   4.414 -0.8424  0.2927  0.8962
  1944G12c H01K35979   8.692  10.575   4.435 -0.0487  3.0764  5.0747
  1944G12c H01J35980   8.819  10.476   4.366  0.9277  3.0109 -4.0886
  1944G12c O00H35981   8.840  10.571   4.551  1.5375  0.1683  0.2939
  1944G12c H01I35982   8.933  10.555   4.546  0.7970 -3.9451 -3.2499
  1944G12c C02H35983   8.800  10.915   4.036 -0.1713 -0.3508 -0.5252
  1944G12c H01C35984   8.693  10.901   4.027 -0.6912  2.0417  1.4249
  1944G12c C02L35985   8.852  10.993   3.924  1.0621 -0.5838 -0.1930
  1944G12c H01D35986   8.779  11.002   3.845  0.1611  0.1758  0.7091
  1944G12c C01335987   9.172  11.086   3.373 -0.1333 -0.2159  0.1366
  1944G12c H00035988   9.105  11.001   3.372  0.7858 -0.9367 -2.0310
  1944G12c C01435989   9.199  11.113   3.235 -0.8204  0.5722 -1.0030
  1944G12c C00F35990   9.188  11.019   3.141  0.5546 -0.0014  0.5951
  1944G12c C00H35991   9.269  11.151   2.961 -0.7074 -1.7074  0.7901
  1944G12c C00I35992   9.273  11.172   2.823  1.0064  0.7753  1.3400
  1944G12c C00J35993   9.280  11.310   2.782 -1.1266 -1.0691  1.1828
  1944G12c C00Z35994   9.334  11.453   3.230 -0.0702  0.0316 -1.2687
  1944G12c C00Y35995   9.360  11.556   3.317 -0.7985 -0.2979 -0.4602
  1944G12c H00635996   9.327  11.558   3.420 -2.6681  5.1827 -1.0074
  1944G12c C00X35997   9.416  11.679   3.288  0.9905  0.7466  1.9417
  1944G12c O00335998   9.404  11.782   3.363  0.4886 -1.4424 -1.9872
  1944G12c C01B35999   9.492  11.843   3.449  0.3143  2.0590  1.4465
  1944G12c H00936000   9.571  11.911   3.418 -1.7592  0.9658 -7.9405
  1944G12c H00836001   9.540  11.775   3.520  1.2153 -1.9093 -2.6677
  1944G12c H00736002   9.446  11.909   3.522  1.3152  1.4555  2.6341
  1944G12c C00W36003   9.427  11.701   3.134 -0.9601  0.6269 -0.5074
  1944G12c O00436004   9.507  11.822   3.102  0.7265  0.4753  0.4955
  1944G12c C01C36005   9.569  11.820   2.977 -0.9802 -0.8882  0.5607
  1944G12c H00A36006   9.641  11.899   2.966  2.9331 -4.4857 -1.1332
  1944G12c C00P36007   9.542  11.713   2.885  2.2429  0.7673 -0.6658
  1944G12c C00O36008   9.627  11.694   2.765 -2.2655  1.7857  1.0053
  1944G12c C01D36009   9.753  11.746   2.765  0.8486 -1.2424 -0.7056
  1944G12c H00S36010   9.771  11.788   2.862 -2.4689 -9.1415  3.8374
  1944G12c C01E36011   9.845  11.759   2.655  2.1431 -1.4647  0.0521
  1944G12c O00836012   9.970  11.805   2.644  0.5061  0.9425 -1.3865
  1944G12c C01V36013   9.949  11.944   2.654  0.8728  0.0117 -0.4236
  1944G12c C01Z36014   9.849  12.025   2.546  0.4616 -0.0043 -0.1107
  1944G12c H00R36015   9.751  11.981   2.563 -0.0530  1.4065  0.6923
  1944G12c H00Q36016   9.879  11.969   2.458 -2.9268 -2.6279  0.3269
  1944G12c O00936017   9.836  12.156   2.527  0.7623  0.4151  1.0526
  1944G12c H00P36018   9.751  12.165   2.487  0.3182  2.9509  2.4327
  1944G12c C01W36019  10.049  12.005   2.725 -0.8434 -0.1842  1.1716
  1944G12c H00O36020  10.129  11.955   2.777  2.9166 -2.5494 -6.0809
  1944G12c C01X36021  10.046  12.148   2.772 -0.7657 -1.3389  0.8248
  1944G12c H00N36022  10.125  12.214   2.736 -1.2915 -1.7537 -1.1035
  1944G12c H00M36023   9.964  12.161   2.703  0.8548 -1.3749 -1.1423
  1944G12c C01Y36024   9.982  12.185   2.906  0.1381  0.3434 -1.1992
  1944G12c C02D36025   9.849  12.123   2.942 -0.8237 -1.1361  0.3885
  1944G12c H01936026   9.818  12.043   2.876  2.3606  1.3563 -4.4763
  1944G12c C02C36027   9.768  12.191   3.036 -0.9396  1.8189  0.1685
  1944G12c H01A36028   9.662  12.172   3.045  0.4188 -5.8579  4.4436
  1944G12c C02B36029   9.820  12.321   3.085 -0.4083 -0.9204  1.0478
  1944G12c O00E36030   9.755  12.412   3.162  1.2638  0.9844  1.4544
  1944G12c H01B36031   9.831  12.436   3.212 -0.1800  1.1129  3.6882
  1944G12c C02F36032   9.960  12.322   3.096 -0.7317 -0.9043 -0.6611
  1944G12c O00F36033  10.002  12.414   3.182 -0.8433  1.2556  1.4227
  1944G12c C02G36034  10.127  12.491   3.149  0.2892 -0.8799 -0.9640
  1944G12c H01736035  10.146  12.522   3.047  2.2304  2.5508  0.3658
  1944G12c H01636036  10.209  12.442   3.200 -0.2143 -0.8162 -0.0708
  1944G12c H01536037  10.112  12.582   3.208  0.9349 -0.8034 -0.9219
  1944G12c C02E36038  10.028  12.274   2.994 -0.5562  0.6251 -1.1531
  1944G12c H01836039  10.123  12.324   2.986  0.0382  1.1274  6.1046
  1944G12c C01F36040   9.807  11.688   2.544  0.2162 -0.3398 -0.5285
  1944G12c C01G36041   9.907  11.645   2.455  0.6317  0.3546 -1.4664
  1944G12c H00L36042  10.014  11.655   2.465  0.5233  1.4023 -1.3218
  1944G12c C01H36043   9.852  11.539   2.382  1.1049 -0.3769 -1.9222
  1944G12c H00B36044   9.929  11.470   2.351 -4.6353 -8.2858 -0.3137
  1944G12c C01I36045   9.714  11.493   2.358  1.1553 -0.1465 -1.2051
  1944G12c C01U36046   9.661  11.660   2.509 -1.6456  0.8736  0.4082
  1944G12c C00S36047   9.316  11.412   2.885 -1.6341  0.1992 -0.8041
  1944G12c C00K36048   9.365  11.344   2.669  0.5952 -1.0435 -0.9089
  1944G12c C00N36049   9.581  11.650   2.630  1.0589 -1.9562  0.3906
  1944G12c C00036050   9.613  11.577   2.410 -0.8985  0.1864 -1.2916
  1944G12c C01J36051   9.652  11.363   2.348 -0.9955 -0.3185  1.2405
  1944G12c C01K36052   9.724  11.246   2.306 -1.5655  0.8957  0.8457
  1944G12c C01P36053   9.838  11.247   2.223 -2.6819  0.7369 -1.7550
  1944G12c C01Q36054   9.879  11.368   2.139 -1.3847  1.6617 -0.1716
  1944G12c H00G36055   9.808  11.450   2.144 -3.6617 -0.0452 -2.9698
  1944G12c C01R36056   9.982  11.381   2.050  0.4942  1.5026 -0.5615
  1944G12c H00F36057  10.042  11.292   2.050 -3.8749 -1.6813 -4.1028
  1944G12c C01S36058  10.043  11.495   1.981  1.0525  0.7797 -0.4651
  1944G12c H00E36059   9.991  11.588   2.006  0.3670 -0.9687  5.4155
  1944G12c H00D36060  10.141  11.493   2.028 -0.8243  4.4725  3.9368
  1944G12c O00536061  10.000  11.464   1.847  1.1437 -1.2542  0.8477
  1944G12c H00C36062   9.906  11.456   1.841  1.0445 -4.2915  4.4916
  1944G12c C01O36063   9.899  11.128   2.191  1.2620  0.1497  1.2073
  1944G12c H00H36064   9.977  11.113   2.118 -0.9877 -2.0635 -0.7943
  1944G12c C01N36065   9.896  11.023   2.275  1.4771  0.1194  0.9148
  1944G12c O00636066   9.964  10.906   2.245  1.4208 -0.4763  1.0675
  1944G12c C01T36067   9.888  10.811   2.168 -0.7332  0.2049  0.8606
  1944G12c H00K36068   9.797  10.769   2.212 -1.6461  0.5410 -0.6643
  1944G12c H00J36069   9.881  10.887   2.090 -5.1593  0.8483  1.7258
  1944G12c H00I36070   9.923  10.720   2.119  5.2432  5.5834 -6.1185
  1944G12c C01M36071   9.785  11.017   2.367  1.6761 -0.8387 -0.3962
  1944G12c C02036072   9.385  11.228   2.584  0.9084  1.2610  0.8902
  1944G12c C02136073   9.360  11.095   2.627 -0.0494  0.8325 -0.4486
  1944G12c C01L36074   9.693  11.123   2.373  0.3136  0.4037 -2.5670
  1944G12c O00736075   9.776  10.902   2.460  1.3631 -0.2314 -0.9126
  1944G12c C02236076   9.455  10.993   2.626  0.1836 -1.3865 -0.6823
  1944G12c C02336077   9.288  11.053   2.743  2.0113  1.4164  1.4771
  1944G12c C00G36078   9.264  11.029   3.028 -0.1339 -0.1211 -0.2263
  1944G12c C00E36079   9.146  10.884   3.174  1.3849 -2.1149  1.0145
  1944G12c O00A36080   9.025  10.860   3.238  1.1687  0.2930  1.9894
  1944G12c C02436081   8.909  10.861   3.141 -0.0680 -1.0897 -0.0230
  1944G12c H00V36082   8.837  10.794   3.188  1.8770 -3.9393 -0.9737
  1944G12c H00U36083   8.957  10.826   3.049  1.3448  1.4710 -0.3166
  1944G12c H00T36084   8.891  10.967   3.123  1.8566 -0.0450  3.8204
  1954G12c C00D36085   6.432   0.838   5.583  1.4545 -0.1244  0.4762
  1954G12c O00B36086   6.455   0.706   5.523  0.6229  0.2382 -1.1332
  1954G12c C02536087   6.348   0.626   5.560  0.1364  0.3065 -0.3888
  1954G12c C02636088   6.255   0.619   5.430  0.0472  0.4376 -1.0976
  1954G12c H00Y36089   6.207   0.712   5.399  6.1050  1.8526 -7.5108
  1954G12c H00X36090   6.163   0.573   5.467  0.7689  0.1806  0.4154
  1954G12c O00C36091   6.310   0.574   5.321  0.5343 -0.4587 -0.2512
  1954G12c H00W36092   6.230   0.561   5.273 -4.3763  4.7821  5.5194
  1954G12c C02736093   6.327   0.592   5.685 -0.1350  0.7446 -0.4231
  1954G12c O00D36094   6.392   0.604   5.808  0.0482 -0.7075 -0.3735
  1954G12c H00Z36095   6.310   0.609   5.855  1.7266  3.5939  2.4428
  1954G12c C02836096   6.208   0.508   5.695 -1.6271  0.5000 -1.9441
  1954G12c C02936097   6.096   0.571   5.750 -0.8925  0.6771  0.7812
  1954G12c H01036098   6.117   0.677   5.756  2.6784  0.0419  0.9182
  1954G12c C02T36099   5.990   0.492   5.808 -0.5882  0.5279  0.3790
  1954G12c H01O36100   5.921   0.559   5.858 -0.6967 -0.4365  1.5401
  1954G12c C02S36101   5.981   0.352   5.763 -0.2753  0.5514 -1.1567
  1954G12c O00J36102   5.867   0.285   5.794 -0.7770  0.4296  0.2472
  1954G12c H01P36103   5.866   0.212   5.734 -7.1453  0.3771  0.0007
  1954G12c C02R36104   6.091   0.284   5.691  0.0749  0.0661  0.3939
  1954G12c O00I36105   6.055   0.161   5.631 -0.0222  1.1093  0.8577
  1954G12c C02Q36106   6.172   0.068   5.636  0.7158 -0.3289 -1.3157
  1954G12c H01N36107   6.270   0.085   5.592  2.0762 -1.4155  1.2041
  1954G12c H01R36108   6.144  -0.027   5.590  1.5696 -2.1442  1.7605
  1954G12c H01Q36109   6.197   0.037   5.737  0.7745 -0.4240 -1.3586
  1954G12c C02A36110   6.212   0.364   5.688  1.5805 -1.0492 -1.5398
  1954G12c H01136111   6.311   0.324   5.668  2.7751  2.8741 -4.0562
  1954G12c C00C36112   6.323   0.932   5.553  2.0661 -1.5844  0.4138
  1954G12c H01236113   6.229   0.898   5.511 -0.4731  2.7877  2.2400
  1954G12c C00B36114   6.306   1.043   5.623  1.7668 -0.8818 -2.0693
  1954G12c C00A36115   6.222   1.168   5.587 -0.7571 -1.1060 -0.4359
  1954G12c C00936116   6.204   1.215   5.459 -0.2082  0.9118  0.0619
  1954G12c C00836117   6.258   1.182   5.332 -2.1428 -1.4501  1.0046
  1954G12c H01336118   6.310   1.088   5.323  0.7062  0.2879 -2.3173
  1954G12c C00736119   6.237   1.260   5.216  0.4363 -0.3277 -0.9434
  1954G12c H01436120   6.273   1.237   5.117  1.5257 -3.8695  0.1730
  1954G12c C00636121   6.236   1.396   5.242 -1.8518  0.2249 -0.2047
  1954G12c C00536122   6.201   1.440   5.369  1.0253  0.0502  0.8242
  1954G12c C00436123   6.198   1.571   5.398  0.7925 -0.5241 -1.1796
  1954G12c C00336124   6.191   1.603   5.541  0.8972 -0.5688  1.7266
  1954G12c C00236125   6.224   1.747   5.561 -0.3973  2.0654  0.4632
  1954G12c C00136126   6.223   1.823   5.688  0.2166 -0.6105  1.2758
  1954G12c C00M36127   6.313   1.777   5.790 -1.3027  0.1124 -0.1956
  1954G12c C00L36128   6.307   1.659   5.836  1.3346  1.3298  0.7700
  1954G12c C00R36129   6.416   1.610   5.913  0.7366 -0.1104 -0.2044
  1954G12c C00Q36130   6.512   1.666   5.988 -0.0737 -1.0867 -1.1573
  1954G12c C00V36131   6.619   1.573   6.034 -1.0039 -1.5441 -1.2511
  1954G12c C00U36132   6.620   1.436   6.000  0.9361 -0.0531 -0.3056
  1954G12c C00T36133   6.516   1.391   5.929  1.9288 -0.3290 -1.2113
  1954G12c C01636134   6.499   1.256   5.896 -0.8439  0.1295 -1.1569
  1954G12c C01536135   6.613   1.161   5.908  0.0567 -0.3100  0.2577
  1954G12c C01036136   6.715   1.219   5.982  0.0201 -0.4775 -1.3148
  1954G12c C01136137   6.823   1.132   5.989 -0.0377  0.0534  0.0087
  1954G12c H00536138   6.917   1.184   6.003  2.5540 -3.7619 -2.3109
  1954G12c C01236139   6.817   1.004   5.944  0.2008  1.3013 -0.6675
  1954G12c C01736140   6.929   0.920   5.971  2.0698 -0.2169 -0.9423
  1954G12c O00236141   6.917   0.816   6.069 -0.1429 -0.8506  1.0344
  1954G12c H00436142   6.951   0.832   6.156 -0.4274  4.8844  0.2808
  1954G12c C01836143   7.015   0.878   5.868 -2.7216  1.0731  2.0869
  1954G12c O00136144   7.037   0.942   5.760  0.3561  0.0111  1.4374
  1954G12c H00336145   6.954   0.979   5.736  0.1934  0.1956  2.2753
  1954G12c C01936146   7.082   0.750   5.870  0.2785  0.2722 -0.2871
  1954G12c H00236147   7.052   0.670   5.937 -1.8529  0.1711 -1.3162
  1954G12c H00136148   7.099   0.714   5.768 -1.2947 -2.8387  0.4933
  1954G12c O00036149   7.214   0.743   5.928 -0.8440  0.7032 -0.0793
  1954G12c C01A36150   7.323   0.771   5.858 -0.4401  0.7091  0.7187
  1954G12c C02K36151   7.451   0.741   5.908 -0.5114 -1.4795  1.4095
  1954G12c O00G36152   7.451   0.719   6.051  1.1688 -0.9981 -0.9468
  1954G12c C02M36153   7.394   0.828   6.135 -0.8697  1.3489 -1.6456
  1954G12c H01G36154   7.342   0.907   6.082  2.7490  6.0445  1.3954
  1954G12c H01F36155   7.331   0.788   6.216  2.2238 -2.5895 -1.0451
  1954G12c H01E36156   7.479   0.890   6.163  1.1319 -2.6373  1.7527
  1954G12c C02J36157   7.562   0.713   5.822 -1.0027  0.7505 -0.2739
  1954G12c H01H36158   7.661   0.678   5.845 -2.5072 -2.6376  1.4057
  1954G12c C02I36159   7.573   0.748   5.689  1.0443 -0.2106 -1.0560
  1954G12c C02N36160   7.670   0.705   5.594  0.6879  0.6428 -1.2342
  1954G12c H01M36161   7.666   0.597   5.603 -8.0328  0.7609  0.3043
  1954G12c C02O36162   7.725   0.784   5.497  0.5984  0.7694  0.0115
  1954G12c H01L36163   7.695   0.885   5.474 -0.2119 -0.2981 -3.8784
  1954G12c C02P36164   7.804   0.728   5.378 -0.6118  0.8964  1.9737
  1954G12c H01K36165   7.867   0.641   5.398 -0.5661  1.0459  2.4770
  1954G12c H01J36166   7.740   0.662   5.320 -2.2330  0.7762  3.8708
  1954G12c O00H36167   7.916   0.784   5.320  1.6347 -0.0725  1.0293
  1954G12c H01I36168   7.906   0.820   5.234  1.3810 -1.7219  0.3389
  1954G12c C02H36169   7.442   0.795   5.637 -0.4063 -0.6108 -1.2378
  1954G12c H01C36170   7.454   0.822   5.533  4.2416 -0.6117 -0.7656
  1954G12c C02L36171   7.326   0.778   5.709 -0.2447  0.1587 -0.9380
  1954G12c H01D36172   7.235   0.800   5.654 -3.7984  1.1977  4.9124
  1954G12c C01336173   6.704   0.962   5.868 -1.6830  0.8931  0.2311
  1954G12c H00036174   6.700   0.862   5.828  5.0937  1.9726 -4.0203
  1954G12c C01436175   6.609   1.049   5.835  1.0178 -0.6996 -0.6757
  1954G12c C00F36176   6.511   1.009   5.745  1.0238  0.9183  1.5925
  1954G12c C00H36177   6.395   1.220   5.806  0.5882  0.3361  1.6994
  1954G12c C00I36178   6.302   1.305   5.763 -0.9303 -0.5283  0.3453
  1954G12c C00J36179   6.310   1.436   5.826 -0.4128 -0.3036  0.1000
  1954G12c C00Z36180   6.729   1.348   6.031 -0.7016 -1.8127  0.5234
  1954G12c C00Y36181   6.828   1.393   6.125 -0.3986  0.1862  1.4166
  1954G12c H00636182   6.921   1.340   6.139  1.5302  2.7985 -0.6960
  1954G12c C00X36183   6.819   1.536   6.173  0.1439 -0.2880 -1.8268
  1954G12c O00336184   6.925   1.562   6.257 -1.2340  0.8125 -0.2303
  1954G12c C01B36185   6.999   1.683   6.243 -1.0275 -0.2235 -1.4045
  1954G12c H00936186   6.984   1.779   6.293 -9.8421 -0.6226 -2.5353
  1954G12c H00836187   7.091   1.695   6.186  0.5733 -0.6046  1.0211
  1954G12c H00736188   7.033   1.628   6.330  1.0650  2.6827 -0.2841
  1954G12c C00W36189   6.724   1.616   6.123 -0.7886 -1.0141 -0.5677
  1954G12c O00436190   6.730   1.747   6.158  0.8493  0.5732  1.2337
  1954G12c C01C36191   6.713   1.811   6.051 -1.0097 -0.6986 -1.0919
  1954G12c H00A36192   6.797   1.843   5.991 -1.4028  0.5365 -0.9826
  1954G12c C00P36193   6.578   1.788   5.984  0.1006 -0.0814  0.4003
  1954G12c C00O36194   6.527   1.900   5.905 -1.3673  0.8328 -0.0898
  1954G12c C01D36195   6.614   2.015   5.874 -1.6706  0.2187 -0.3152
  1954G12c H00S36196   6.678   2.055   5.952 -2.0964 -0.9357  0.6331
  1954G12c C01E36197   6.591   2.109   5.770  1.5813  1.1960 -0.8334
  1954G12c O00836198   6.651   2.223   5.743  0.1391  0.4136  1.6937
  1954G12c C01V36199   6.739   2.261   5.848  1.5224  0.3603 -0.9505
  1954G12c C01Z36200   6.691   2.275   5.985 -1.9342 -0.6187  0.1446
  1954G12c H00R36201   6.611   2.345   5.962  2.2930  1.4854-11.6176
  1954G12c H00Q36202   6.630   2.203   6.040 -2.5316 -0.2640 -0.0562
  1954G12c O00936203   6.749   2.349   6.076  1.2129 -1.7345 -0.5773
  1954G12c H00P36204   6.828   2.390   6.045  0.7757  2.8510  3.7483
  1954G12c C01W36205   6.849   2.331   5.795  0.2725  0.4685  0.9773
  1954G12c H00O36206   6.841   2.327   5.688 -1.7311  4.3095  0.8921
  1954G12c C01X36207   6.990   2.366   5.851 -1.4600  0.5461  1.5054
  1954G12c H00N36208   7.032   2.271   5.885 -0.4397  0.3642 -0.2213
  1954G12c H00M36209   7.065   2.410   5.785  3.0174 -0.0029  5.8619
  1954G12c C01Y36210   6.974   2.474   5.941  2.6158 -0.2901  0.7269
  1954G12c C02D36211   7.029   2.480   6.055  1.0792  1.0231 -0.9092
  1954G12c H01936212   7.068   2.392   6.103 -0.7362  0.7487  0.1098
  1954G12c C02C36213   7.051   2.610   6.122 -0.0624  1.2816 -1.0208
  1954G12c H01A36214   7.112   2.617   6.210  1.1660 -0.6292 -1.6998
  1954G12c C02B36215   6.998   2.723   6.082  0.6535 -0.8530 -1.6042
  1954G12c O00E36216   7.019   2.832   6.157 -0.1900 -0.6014 -0.7516
  1954G12c H01B36217   6.945   2.887   6.140 -0.1028  0.1329  1.1312
  1954G12c C02F36218   6.936   2.723   5.953  1.1572  0.9339 -1.2345
  1954G12c O00F36219   6.873   2.829   5.889 -0.4301 -0.8566 -0.4325
  1954G12c C02G36220   6.957   2.887   5.804 -1.4109 -2.0041 -0.6646
  1954G12c H01736221   7.060   2.851   5.805  0.2808  2.4691  1.3017
  1954G12c H01636222   6.924   2.858   5.704 -2.8076  1.7657 -1.3800
  1954G12c H01536223   6.995   2.988   5.822  0.2091 -3.4678  4.8248
  1954G12c C02E36224   6.935   2.598   5.883  2.0385 -0.5312 -0.2629
  1954G12c H01836225   6.891   2.613   5.785 -1.4480 -1.0788  1.1517
  1954G12c C01F36226   6.496   2.069   5.675  0.3984 -0.9803  1.3527
  1954G12c C01G36227   6.486   2.101   5.534  0.3036 -1.2755  0.3606
  1954G12c H00L36228   6.567   2.163   5.496 -1.0789  0.6018  0.3978
  1954G12c C01H36229   6.401   2.033   5.450  0.5449 -0.1183  1.9351
  1954G12c H00B36230   6.431   2.045   5.347  0.8271  1.1039  2.1496
  1954G12c C01I36231   6.289   1.961   5.510  1.5674  0.8843 -0.8880
  1954G12c C01U36232   6.391   1.975   5.716  0.6173 -1.1876  0.1539
  1954G12c C00S36233   6.407   1.467   5.923  0.2734 -1.0938  0.4391
  1954G12c C00K36234   6.243   1.546   5.774 -0.2629 -0.1182  1.0471
  1954G12c C00N36235   6.408   1.887   5.828 -0.0134 -0.4268 -0.2231
  1954G12c C00036236   6.278   1.950   5.644  0.5373 -0.2594 -0.2437
  1954G12c C01J36237   6.226   1.850   5.448 -0.1972  1.1660 -0.2163
  1954G12c C01K36238   6.212   1.807   5.321 -0.2603 -3.0409  0.3267
  1954G12c C01P36239   6.208   1.886   5.209  0.4011 -0.1284  3.9697
  1954G12c C01Q36240   6.211   2.032   5.206 -1.0748  0.6730  0.4743
  1954G12c H00G36241   6.208   2.100   5.290 -0.5255  0.9520  0.2772
  1954G12c C01R36242   6.118   2.081   5.133 -1.1437 -0.1959 -0.7388
  1954G12c H00F36243   6.064   2.007   5.076  4.1854 -8.6755  4.1093
  1954G12c C01S36244   6.043   2.208   5.141 -1.9059 -0.3763 -0.9241
  1954G12c H00E36245   6.080   2.290   5.203 -0.6594  0.4303 -2.6912
  1954G12c H00D36246   6.010   2.250   5.046 -3.1470  1.9664  0.4820
  1954G12c O00536247   5.912   2.191   5.174 -0.1783 -1.2351 -0.2782
  1954G12c H00C36248   5.918   2.119   5.112 -5.6569 -1.3247 -0.9167
  1954G12c C01O36249   6.256   1.839   5.090  0.1608  0.5763  0.4102
  1954G12c H00H36250   6.237   1.894   4.999 -2.2122 -0.6114  0.1436
  1954G12c C01N36251   6.300   1.699   5.081 -0.6566 -0.7147  0.8460
  1954G12c O00636252   6.319   1.647   4.954  0.4689  0.1927  0.0538
  1954G12c C01T36253   6.284   1.706   4.837  1.4701 -1.6457  0.2603
  1954G12c H00K36254   6.330   1.667   4.746 -2.2753 -4.2097 -0.6660
  1954G12c H00J36255   6.346   1.795   4.844 -0.7532 -0.1829  2.3287
  1954G12c H00I36256   6.180   1.734   4.822 -0.7011 -8.4294  0.8244
  1954G12c C01M36257   6.275   1.619   5.185 -0.7462 -0.1500 -0.7059
  1954G12c C02036258   6.198   1.517   5.643  0.2809 -0.3405  0.5941
  1954G12c C02136259   6.158   1.379   5.605 -0.1961  0.7737  1.0946
  1954G12c C01L36260   6.224   1.670   5.304  0.7216  0.5473 -2.1209
  1954G12c O00736261   6.281   1.484   5.153  0.5332  0.1146 -0.3428
  1954G12c C02236262   6.135   1.351   5.468  0.2965 -0.2171 -1.6678
  1954G12c C02336263   6.214   1.282   5.665 -1.3567 -0.4171  0.0865
  1954G12c C00G36264   6.394   1.096   5.728 -0.1154  1.9317 -0.8690
  1954G12c C00E36265   6.534   0.897   5.665 -0.8481 -1.3359 -1.4270
  1954G12c O00A36266   6.659   0.854   5.647 -0.5198  0.6313  0.1388
  1954G12c C02436267   6.705   0.851   5.505 -1.0303 -1.5341 -0.3909
  1954G12c H00V36268   6.631   0.829   5.428  0.8637 -1.3838 -2.3270
  1954G12c H00U36269   6.772   0.765   5.511  4.0453  2.2465  1.1190
  1954G12c H00T36270   6.762   0.944   5.501  3.5251 -4.0731  1.7004
  1964G12c C00D36271   0.506   4.555   7.160 -1.6618 -0.5514  0.5017
  1964G12c O00B36272   0.589   4.581   7.040 -0.4614  0.8286 -0.9446
  1964G12c C02536273   0.563   4.518   6.912  0.5739  0.4540  0.0767
  1964G12c C02636274   0.512   4.627   6.809 -0.0929 -0.5390 -1.2418
  1964G12c H00Y36275   0.529   4.599   6.704 -2.2361  5.0318 -3.2393
  1964G12c H00X36276   0.565   4.721   6.822  6.3341 -4.2978  2.4578
  1964G12c O00C36277   0.371   4.671   6.837 -0.1085  0.0547 -0.0965
  1964G12c H00W36278   0.382   4.732   6.909  1.1572 -0.6560  0.3313
  1964G12c C02736279   0.570   4.391   6.876  0.1758 -0.4858 -1.4651
  1964G12c O00D36280   0.545   4.363   6.748  0.8675 -0.8082  0.4767
  1964G12c H00Z36281   0.591   4.434   6.706  2.0232  0.5641  3.8708
  1964G12c C02836282   0.641   4.278   6.933 -2.5214  0.4378 -0.2720
  1964G12c C02936283   0.675   4.160   6.869 -0.3632 -0.9469 -0.1189
  1964G12c H01036284   0.673   4.144   6.762  0.9679  3.6098 -0.9083
  1964G12c C02T36285   0.744   4.056   6.939 -0.5462  0.9667  0.7150
  1964G12c H01O36286   0.794   3.992   6.868  1.8754 -0.3240  3.4832
  1964G12c C02S36287   0.728   4.039   7.078 -0.4520  0.9510 -0.1277
  1964G12c O00J36288   0.780   3.935   7.160 -0.4256  0.7477 -0.3674
  1964G12c H01P36289   0.733   3.883   7.224  1.5858 -1.2517 -0.4419
  1964G12c C02R36290   0.698   4.149   7.145 -0.5014 -0.9230  1.3445
  1964G12c O00I36291   0.685   4.151   7.274  0.2229 -0.6536 -0.4688
  1964G12c C02Q36292   0.572   4.116   7.319 -0.4589  0.5156  1.2438
  1964G12c H01N36293   0.544   4.020   7.275  1.6424  2.6677 -5.3135
  1964G12c H01R36294   0.483   4.177   7.310  0.9508  2.7073  1.7695
  1964G12c H01Q36295   0.596   4.089   7.422  2.8108 -1.5365  0.0328
  1964G12c C02A36296   0.673   4.268   7.070 -0.1211  0.2005 -0.4086
  1964G12c H01136297   0.680   4.338   7.152  2.8471  4.9980 -4.4610
  1964G12c C00C36298   0.413   4.458   7.170  2.2691  1.3352 -1.4510
  1964G12c H01236299   0.388   4.375   7.105  8.0168 -2.2101  0.5199
  1964G12c C00B36300   0.330   4.429   7.281 -0.1195  0.1087  1.5427
  1964G12c C00A36301   0.213   4.338   7.294  0.0624 -0.8822  1.4893
  1964G12c C00936302   0.104   4.311   7.199 -2.2701  0.0918  0.6660
  1964G12c C00836303   0.056   4.369   7.074  0.1009  1.3777 -1.7165
  1964G12c H01336304   0.132   4.428   7.025 -1.0342  3.9281 -0.5014
  1964G12c C00736305  -0.082   4.337   7.042  0.6127  0.3041 -1.4959
  1964G12c H01436306  -0.108   4.389   6.950  1.8891  0.4768 -1.7777
  1964G12c C00636307  -0.169   4.248   7.123  1.4706  0.0651  0.0157
  1964G12c C00536308  -0.118   4.228   7.264  0.1155  1.0465 -1.2279
  1964G12c C00436309  -0.202   4.209   7.364 -1.0267  0.0399  0.4372
  1964G12c C00336310  -0.147   4.200   7.494  0.3626  0.2154  0.8863
  1964G12c C00236311  -0.241   4.201   7.603 -0.7256  0.2299  1.3418
  1964G12c C00136312  -0.249   4.211   7.752  0.8954  0.4978  0.1838
  1964G12c C00M36313  -0.152   4.288   7.838 -0.1545 -0.7703 -1.6622
  1964G12c C00L36314  -0.024   4.332   7.777 -0.7026 -0.7020  1.6851
  1964G12c C00R36315   0.073   4.408   7.847  0.0950 -1.2219 -0.5304
  1964G12c C00Q36316   0.059   4.496   7.965 -1.2802 -0.1467 -0.2907
  1964G12c C00V36317   0.176   4.572   7.990 -0.6208 -0.3775  0.8219
  1964G12c C00U36318   0.263   4.600   7.872  1.4735  0.1311 -0.7246
  1964G12c C00T36319   0.260   4.514   7.759 -0.2631  1.1880  1.6517
  1964G12c C01636320   0.330   4.546   7.639 -1.1175  1.8280 -1.1113
  1964G12c C01536321   0.396   4.661   7.620 -0.0465  0.9189 -1.7287
  1964G12c C01036322   0.397   4.748   7.740 -2.8834 -0.1075  2.2113
  1964G12c C01136323   0.484   4.857   7.718 -0.3378 -2.1455 -0.5493
  1964G12c H00536324   0.503   4.948   7.773  4.9762 -1.1747 -3.6371
  1964G12c C01236325   0.601   4.858   7.640 -0.0058 -1.3101 -1.8543
  1964G12c C01736326   0.705   4.969   7.658 -0.8111  0.1398 -2.6961
  1964G12c O00236327   0.662   5.097   7.708 -0.7526  0.8866 -1.0328
  1964G12c H00436328   0.625   5.177   7.673 -0.4197  0.7628 -1.6866
  1964G12c C01836329   0.837   4.940   7.653 -0.5366 -1.6677  0.6274
  1964G12c O00136330   0.900   5.031   7.742 -0.1387 -0.0741 -0.0172
  1964G12c H00336331   0.993   5.047   7.748 -0.6290  5.4890 -3.6494
  1964G12c C01936332   0.907   4.809   7.614  0.5449  1.6724  0.5492
  1964G12c H00236333   0.849   4.721   7.640  5.4082 -3.4863 -4.4814
  1964G12c H00136334   0.925   4.806   7.507  2.8727 -3.2075  0.9369
  1964G12c O00036335   1.037   4.819   7.684 -1.1055 -1.0071  1.3986
  1964G12c C01A36336   1.046   4.718   7.770  0.0787  0.7355 -2.1346
  1964G12c C02K36337   1.163   4.644   7.765 -1.5471  0.3133 -0.8413
  1964G12c O00G36338   1.224   4.657   7.641 -0.1474 -0.9881 -0.5476
  1964G12c C02M36339   1.372   4.661   7.648 -1.0564  1.2721  0.0936
  1964G12c H01G36340   1.408   4.722   7.565  2.3960  0.0594  0.6201
  1964G12c H01F36341   1.409   4.577   7.589 -3.4276  0.2660 -0.0158
  1964G12c H01E36342   1.442   4.727   7.698  2.0467 -2.4753  0.9870
  1964G12c C02J36343   1.227   4.592   7.882 -0.4601  1.9575 -1.9071
  1964G12c H01H36344   1.324   4.544   7.892  1.3604  6.3241  5.0419
  1964G12c C02I36345   1.140   4.577   7.997  0.2309  1.1858 -1.6768
  1964G12c C02N36346   1.180   4.483   8.110 -0.5775 -0.0814  0.3745
  1964G12c H01M36347   1.273   4.436   8.138 -1.4842  0.0105  3.6818
  1964G12c C02O36348   1.084   4.438   8.197  0.1998  0.1428 -0.0313
  1964G12c H01L36349   0.985   4.482   8.196  0.7626  1.4782  1.1151
  1964G12c C02P36350   1.087   4.311   8.291  1.2835  0.4709  1.9986
  1964G12c H01K36351   1.162   4.330   8.368 -1.3293  2.5542  4.1637
  1964G12c H01J36352   0.992   4.306   8.345 -2.3859  1.5285 -3.9173
  1964G12c O00H36353   1.114   4.210   8.203  0.3415  0.1413  0.6185
  1964G12c H01I36354   1.173   4.262   8.150  4.2424 -1.9475  2.6857
  1964G12c C02H36355   1.012   4.643   8.013 -0.6362 -0.4307  0.3462
  1964G12c H01C36356   0.926   4.653   8.076 -0.4044 -0.9352  0.7391
  1964G12c C02L36357   0.981   4.722   7.900  1.6580 -0.9512  2.0985
  1964G12c H01D36358   0.904   4.796   7.918  3.7455  1.8769 -0.2247
  1964G12c C01336359   0.598   4.761   7.540  0.9172  0.8975  0.4789
  1964G12c H00036360   0.678   4.765   7.468 -1.2675 -0.1450 -2.1007
  1964G12c C01436361   0.477   4.672   7.517 -0.7842  0.2677  0.7218
  1964G12c C00F36362   0.450   4.600   7.403 -0.6009  0.0362 -1.0769
  1964G12c C00H36363   0.309   4.461   7.519  0.1690  0.0293 -0.6175
  1964G12c C00I36364   0.218   4.352   7.520 -0.3648 -0.2221  0.8660
  1964G12c C00J36365   0.163   4.334   7.650  1.1277  1.4347 -0.5798
  1964G12c C00Z36366   0.342   4.711   7.875 -1.9522 -1.6291 -0.9074
  1964G12c C00Y36367   0.371   4.785   7.985  0.5301  0.4429  0.1977
  1964G12c H00636368   0.444   4.865   7.989 -3.6490  4.2657  4.4011
  1964G12c C00X36369   0.286   4.763   8.099 -1.3648 -2.1472 -0.7876
  1964G12c O00336370   0.301   4.838   8.223  0.3802  0.1192 -0.9654
  1964G12c C01B36371   0.368   4.965   8.237  1.9211  1.0866 -1.2195
  1964G12c H00936372   0.327   5.043   8.301  3.2518  1.0263 -0.2763
  1964G12c H00836373   0.462   4.937   8.283  1.7365  1.7075 -0.4554
  1964G12c H00736374   0.387   5.029   8.151  1.9759  0.0373 -1.9949
  1964G12c C00W36375   0.193   4.653   8.098 -0.6550 -0.0011 -0.7049
  1964G12c O00436376   0.107   4.642   8.192  0.9825 -0.7206 -0.2068
  1964G12c C01C36377  -0.030   4.620   8.149  1.0207 -1.9922 -2.2949
  1964G12c H00A36378  -0.089   4.711   8.143 -2.6270 -4.3094 -3.1808
  1964G12c C00P36379  -0.062   4.534   8.044 -1.4667 -0.9157 -0.0675
  1964G12c C00O36380  -0.193   4.508   8.002 -1.1913  1.8567  0.0975
  1964G12c C01D36381  -0.311   4.590   8.036 -0.0606  0.5947 -0.1879
  1964G12c H00S36382  -0.292   4.652   8.122 -3.8197 -1.3242  2.1387
  1964G12c C01E36383  -0.447   4.578   7.974  1.3811 -0.6133  0.3877
  1964G12c O00836384  -0.557   4.659   7.986 -0.9074 -0.4428 -0.2599
  1964G12c C01V36385  -0.567   4.742   8.086  1.6435  0.8019 -0.3486
  1964G12c C01Z36386  -0.625   4.691   8.216 -0.6231 -0.1766  0.6779
  1964G12c H00R36387  -0.630   4.589   8.180 -2.7479 -0.8469  2.7232
  1964G12c H00Q36388  -0.550   4.720   8.291 -0.1499  4.2712 -1.3433
  1964G12c O00936389  -0.746   4.737   8.282 -0.3613  0.8210 -0.6619
  1964G12c H00P36390  -0.729   4.691   8.363  4.8108 -1.3427 -2.7597
  1964G12c C01W36391  -0.520   4.880   8.075 -0.0937 -0.4288  1.4335
  1964G12c H00O36392  -0.473   4.910   7.983 -0.3839  1.4647  1.8930
  1964G12c C01X36393  -0.511   4.975   8.194 -1.3378 -0.9322 -0.8300
  1964G12c H00N36394  -0.562   5.056   8.142 -2.7950  0.0585  2.0413
  1964G12c H00M36395  -0.562   4.930   8.279  2.8543 -2.8078  0.8433
  1964G12c C01Y36396  -0.370   4.949   8.250 -0.5386  1.3797  0.1056
  1964G12c C02D36397  -0.351   4.900   8.386  0.7186 -0.5960  0.7119
  1964G12c H01936398  -0.435   4.882   8.452 -1.5182 -7.7040 -3.4723
  1964G12c C02C36399  -0.234   4.834   8.436 -0.1421  0.1711  0.3509
  1964G12c H01A36400  -0.219   4.767   8.519 -1.7307 -1.5365 -0.6889
  1964G12c C02B36401  -0.112   4.860   8.376 -1.8676  0.5011  1.2691
  1964G12c O00E36402   0.006   4.852   8.459  0.6663 -1.6363  1.6290
  1964G12c H01B36403   0.084   4.872   8.410  0.5759 -0.1940  2.0735
  1964G12c C02F36404  -0.115   4.948   8.255 -0.9591 -0.0724  2.1230
  1964G12c O00F36405   0.004   5.009   8.211  0.3340 -0.8958 -0.2938
  1964G12c C02G36406  -0.002   5.116   8.123 -1.0607 -0.1054 -1.1149
  1964G12c H01736407   0.096   5.145   8.085  2.2203 -7.3563  1.0127
  1964G12c H01636408  -0.029   5.213   8.166  0.2609 -1.0620  2.0966
  1964G12c H01536409  -0.071   5.096   8.042 -2.0338 -3.3912  0.4476
  1964G12c C02E36410  -0.242   4.986   8.189 -0.1525 -0.8413 -2.6188
  1964G12c H01836411  -0.243   5.067   8.117 -5.3428  1.7237  0.0230
  1964G12c C01F36412  -0.455   4.474   7.867  0.6042 -0.9045 -1.5080
  1964G12c C01G36413  -0.556   4.459   7.772 -0.7084 -0.4705  1.6812
  1964G12c H00L36414  -0.626   4.538   7.748  1.0396  1.3824  2.5325
  1964G12c C01H36415  -0.567   4.362   7.672 -0.2699  0.4419 -0.5081
  1964G12c H00B36416  -0.656   4.382   7.613 -2.5947 -2.2756  1.9552
  1964G12c C01I36417  -0.458   4.266   7.676 -0.9153 -1.9595 -0.1778
  1964G12c C01U36418  -0.362   4.380   7.852  0.1562  1.7312 -0.3273
  1964G12c C00S36419   0.162   4.427   7.746 -0.5466 -0.0094  1.4991
  1964G12c C00K36420   0.030   4.290   7.646 -0.0489 -0.8827  1.4399
  1964G12c C00N36421  -0.228   4.402   7.907 -0.1317 -0.3824 -0.4505
  1964G12c C00036422  -0.381   4.257   7.786 -1.9598  0.6371  0.8430
  1964G12c C01J36423  -0.375   4.219   7.572 -0.1464  1.2091  0.6087
  1964G12c C01K36424  -0.430   4.165   7.437 -0.5487 -0.4291 -1.1342
  1964G12c C01P36425  -0.570   4.111   7.396 -1.7323 -0.1230 -0.3968
  1964G12c C01Q36426  -0.656   4.056   7.496 -0.2467 -0.5304 -1.6646
  1964G12c H00G36427  -0.609   4.004   7.579 -0.8918 -2.3910 -2.4321
  1964G12c C01R36428  -0.786   4.053   7.470 -0.2637  2.3077 -0.0682
  1964G12c H00F36429  -0.830   4.102   7.384  2.7977 -0.9016 -3.7057
  1964G12c C01S36430  -0.904   4.007   7.557  0.6291 -0.7118 -1.7425
  1964G12c H00E36431  -0.949   4.098   7.596  3.3619  0.3628 -0.9784
  1964G12c H00D36432  -0.996   3.982   7.505 -1.2824 -0.8694  1.5410
  1964G12c O00536433  -0.872   3.907   7.638  1.2632 -0.7041 -0.6947
  1964G12c H00C36434  -0.923   3.917   7.717  1.8117  5.9651 -0.8859
  1964G12c C01O36435  -0.594   4.122   7.253 -0.0694 -0.8021 -0.7334
  1964G12c H00H36436  -0.677   4.077   7.201 -2.6657 -0.6277  3.0593
  1964G12c C01N36437  -0.501   4.153   7.159  0.2150  0.2598 -0.5145
  1964G12c O00636438  -0.513   4.122   7.027 -0.9424  0.9523  0.3006
  1964G12c C01T36439  -0.635   4.100   6.954  0.9131  0.9552 -0.0409
  1964G12c H00K36440  -0.679   4.193   6.917  3.2827  1.9400 -0.4473
  1964G12c H00J36441  -0.694   4.015   6.988  1.6208  0.0632 -1.0239
  1964G12c H00I36442  -0.604   4.045   6.866 -2.3580  3.8539 -3.1773
  1964G12c C01M36443  -0.372   4.171   7.198  0.0189 -0.7866  0.0221
  1964G12c C02036444  -0.009   4.234   7.522  0.5527 -1.6566 -0.0797
  1964G12c C02136445   0.075   4.226   7.402 -0.5485  0.5756 -0.3564
  1964G12c C01L36446  -0.334   4.186   7.333 -1.1070 -0.7256  1.2365
  1964G12c O00736447  -0.290   4.218   7.089  0.9318 -0.5801 -1.2654
  1964G12c C02236448   0.020   4.245   7.286 -0.7549 -0.2777  0.6678
  1964G12c C02336449   0.201   4.265   7.417  0.0514  0.8120  0.9298
  1964G12c C00G36450   0.356   4.500   7.398 -0.6204 -1.1053 -1.1558
  1964G12c C00E36451   0.528   4.633   7.269 -0.5081  0.1853 -0.3626
  1964G12c O00A36452   0.601   4.742   7.231 -0.3143 -0.0729  1.7682
  1964G12c C02436453   0.514   4.832   7.156 -1.6622  0.5308 -0.4889
  1964G12c H00V36454   0.564   4.909   7.098 -0.1545 -0.6302 -0.7464
  1964G12c H00U36455   0.444   4.802   7.078 -2.6396 -1.5365  1.1527
  1964G12c H00T36456   0.470   4.881   7.243  3.7782  0.4256  2.5006
  1974G12c C00D36457   2.791   9.971   0.689  0.7746 -0.2873 -2.9708
  1974G12c O00B36458   2.787   9.857   0.772 -0.4560 -0.4134 -0.7675
  1974G12c C02536459   2.757   9.873   0.899  0.0209  1.4722 -0.8199
  1974G12c C02636460   2.854   9.959   0.979 -0.4036 -1.9248 -0.5016
  1974G12c H00Y36461   2.849   9.980   1.086  6.0519  2.1543 -0.6803
  1974G12c H00X36462   2.843  10.064   0.951  0.8396  0.1935  5.8479
  1974G12c O00C36463   2.991   9.912   0.971 -1.1519 -1.4458  0.2429
  1974G12c H00W36464   3.031   9.904   0.886 -2.4908 -0.4651 -0.4930
  1974G12c C02736465   2.666   9.790   0.955  1.9222  0.2614 -0.7879
  1974G12c O00D36466   2.574   9.707   0.883 -0.8263  1.2820  0.8378
  1974G12c H00Z36467   2.570   9.636   0.947  1.2697  0.6588  0.3269
  1974G12c C02836468   2.665   9.765   1.101  1.3290  1.0642 -1.4235
  1974G12c C02936469   2.543   9.773   1.164 -1.4958  0.8945  0.6262
  1974G12c H01036470   2.472   9.805   1.090  0.6822  6.2433  0.6645
  1974G12c C02T36471   2.537   9.711   1.289  1.4484 -1.4052  1.9960
  1974G12c H01O36472   2.442   9.676   1.327  0.6811 -0.6736  0.7755
  1974G12c C02S36473   2.641   9.647   1.359  0.0101 -0.8771 -0.9645
  1974G12c O00J36474   2.605   9.606   1.488  0.3351  0.2722  0.8500
  1974G12c H01P36475   2.671   9.656   1.534 -2.1062  2.3913  2.1587
  1974G12c C02R36476   2.764   9.656   1.297 -0.0198  0.3491 -0.2762
  1974G12c O00I36477   2.878   9.618   1.362 -0.3291 -0.3949 -0.4088
  1974G12c C02Q36478   2.957   9.717   1.420  1.0176 -1.1767 -1.5571
  1974G12c H01N36479   2.890   9.799   1.395 -0.9196 -4.0668 -6.5302
  1974G12c H01R36480   3.059   9.753   1.407  0.1046  2.6281  0.7933
  1974G12c H01Q36481   2.965   9.705   1.528 -0.7844  3.0748 -0.8315
  1974G12c C02A36482   2.779   9.714   1.175  0.2323  0.7204  1.4305
  1974G12c H01136483   2.859   9.719   1.103 -2.7392  2.0057 -1.8945
  1974G12c C00C36484   2.692  10.073   0.689  0.3659  0.4195 -0.5578
  1974G12c H01236485   2.591  10.059   0.725 -1.3729 -1.0799 -5.6496
  1974G12c C00B36486   2.719  10.192   0.609  0.2770  1.2415 -0.2100
  1974G12c C00A36487   2.628  10.302   0.591 -0.9053  1.9408 -0.8721
  1974G12c C00936488   2.480  10.303   0.592  0.3148  0.8301 -0.6771
  1974G12c C00836489   2.381  10.211   0.618 -0.6086  1.1803 -0.2907
  1974G12c H01336490   2.421  10.117   0.652 -3.5782  0.1427  0.4355
  1974G12c C00736491   2.246  10.252   0.591  1.1435  0.8034 -0.8847
  1974G12c H01436492   2.168  10.180   0.608  3.6279 -1.3472  2.0339
  1974G12c C00636493   2.215  10.358   0.511  1.4924  1.7196 -0.7646
  1974G12c C00536494   2.321  10.455   0.496  0.4489  0.8156 -0.2522
  1974G12c C00436495   2.307  10.562   0.401  0.2087  0.1779  3.0454
  1974G12c C00336496   2.433  10.627   0.367  1.3289 -1.0144  0.5267
  1974G12c C00236497   2.410  10.736   0.276 -1.0523 -1.7447  0.3410
  1974G12c C00136498   2.509  10.830   0.214 -1.1962  1.2144 -0.7963
  1974G12c C00M36499   2.643  10.790   0.153 -1.4784 -0.8974 -2.0537
  1974G12c C00L36500   2.711  10.689   0.215 -1.7571  1.6752  0.5421
  1974G12c C00R36501   2.824  10.604   0.160 -1.0699 -2.0303 -1.2287
  1974G12c C00Q36502   2.892  10.616   0.031 -0.7917  0.4624 -0.3507
  1974G12c C00V36503   3.005  10.521   0.031  0.1986 -0.7197 -0.6391
  1974G12c C00U36504   3.028  10.426   0.123  0.5815  3.1885  1.5882
  1974G12c C00T36505   2.967  10.414   0.240  0.7679 -1.7944  0.8712
  1974G12c C01636506   2.956  10.330   0.339  0.3688  0.4966 -0.3749
  1974G12c C01536507   3.039  10.218   0.331  0.0841  0.1945 -0.4223
  1974G12c C01036508   3.133  10.213   0.224  0.6071  0.3299  1.8737
  1974G12c C01136509   3.208  10.100   0.205  0.6281 -0.7486 -0.0308
  1974G12c H00536510   3.277  10.075   0.125  2.9215  1.6514  1.1153
  1974G12c C01236511   3.198  10.003   0.301 -2.3753 -0.2111 -1.0211
  1974G12c C01736512   3.298   9.884   0.314  2.7014  0.7999  0.7629
  1974G12c O00236513   3.244   9.746   0.343  1.0967 -0.1197 -0.7289
  1974G12c H00436514   3.291   9.711   0.269 -1.1117 -3.9148 -0.4687
  1974G12c C01836515   3.425   9.924   0.292 -0.7343 -1.0419  1.9811
  1974G12c O00136516   3.458  10.048   0.231  0.0641 -0.4894 -0.0723
  1974G12c H00336517   3.550  10.056   0.211 -0.3141 -6.9429 -6.7201
  1974G12c C01936518   3.553   9.852   0.311 -0.4639  1.1932 -1.9974
  1974G12c H00236519   3.538   9.770   0.240 -2.0098 -3.1839  3.0703
  1974G12c H00136520   3.651   9.900   0.309  1.1008 -1.8765 -2.5621
  1974G12c O00036521   3.520   9.800   0.439 -0.1746 -1.1979 -1.7293
  1974G12c C01A36522   3.605   9.756   0.527 -0.1911  0.6599 -1.0951
  1974G12c C02K36523   3.704   9.839   0.556 -0.5782  1.2017  0.1427
  1974G12c O00G36524   3.684   9.973   0.514 -0.3939 -0.0434 -0.5179
  1974G12c C02M36525   3.579  10.046   0.577  0.5079 -0.6994 -0.1048
  1974G12c H01G36526   3.618  10.129   0.517 -1.1032  4.1817  5.1201
  1974G12c H01F36527   3.603  10.073   0.680 -3.9084 -6.2917  2.6882
  1974G12c H01E36528   3.475  10.064   0.550  0.0972 -2.9694 -0.1171
  1974G12c C02J36529   3.809   9.782   0.623  3.1043  0.0521  0.8558
  1974G12c H01H36530   3.894   9.845   0.648  1.5546 -0.1686  7.5369
  1974G12c C02I36531   3.804   9.646   0.670  1.4046  0.1086  0.8116
  1974G12c C02N36532   3.919   9.570   0.722  0.1315  0.1666 -0.1721
  1974G12c H01M36533   3.900   9.474   0.769 -2.3983  1.9204  2.5749
  1974G12c C02O36534   4.028   9.646   0.726 -0.8400 -0.6926  0.2318
  1974G12c H01L36535   4.040   9.751   0.702  0.2677 -0.6959  0.7609
  1974G12c C02P36536   4.157   9.635   0.804 -1.7005 -1.6725 -0.7357
  1974G12c H01K36537   4.153   9.731   0.856 -5.7570 -1.2461 -1.6270
  1974G12c H01J36538   4.245   9.647   0.741  1.8220  2.4153  4.5251
  1974G12c O00H36539   4.151   9.531   0.887  0.6769  0.9656  0.0136
  1974G12c H01I36540   4.093   9.538   0.961  4.1493  5.4009  2.5604
  1974G12c C02H36541   3.693   9.562   0.664 -1.0448 -1.2641 -2.1220
  1974G12c H01C36542   3.686   9.471   0.722  0.9656 -1.0620 -1.5044
  1974G12c C02L36543   3.591   9.634   0.597  2.5215  0.7441  0.3485
  1974G12c H01D36544   3.494   9.589   0.587  1.3351  3.0460  1.0382
  1974G12c C01336545   3.123  10.020   0.415 -0.0440 -0.1283  0.1350
  1974G12c H00036546   3.161   9.973   0.504 -1.5769  2.1677  2.0384
  1974G12c C01436547   3.034  10.115   0.432  1.5049 -1.5940  2.2285
  1974G12c C00F36548   2.932  10.109   0.522 -0.6772 -1.2828 -0.8007
  1974G12c C00H36549   2.857  10.323   0.438  1.6012  1.3783 -2.1677
  1974G12c C00I36550   2.756  10.424   0.455  0.9113  1.4013  1.1726
  1974G12c C00J36551   2.782  10.527   0.369  0.0908  0.3599 -0.8955
  1974G12c C00Z36552   3.123  10.313   0.117 -1.0734 -0.3106 -0.2156
  1974G12c C00Y36553   3.198  10.311   0.005 -0.0996 -1.0379  1.3560
  1974G12c H00636554   3.270  10.236  -0.026 -2.3393 -0.3143 -6.8898
  1974G12c C00X36555   3.191  10.418  -0.090  0.3974  0.6364  1.1991
  1974G12c O00336556   3.297  10.421  -0.191  0.1020 -0.0188 -0.3620
  1974G12c C01B36557   3.327  10.534  -0.278  0.3441  0.1625 -0.4930
  1974G12c H00936558   3.336  10.588  -0.184 -1.0866  2.4240 -1.6202
  1974G12c H00836559   3.237  10.558  -0.335  2.2044  0.5857 -3.3400
  1974G12c H00736560   3.422  10.553  -0.328  0.4265 -1.2412 -0.8987
  1974G12c C00W36561   3.104  10.528  -0.065 -0.6554 -0.3991 -0.8584
  1974G12c O00436562   3.087  10.620  -0.169  1.4648  1.3135  1.1245
  1974G12c C01C36563   2.957  10.686  -0.198  0.0312  2.1704 -0.8088
  1974G12c H00A36564   2.963  10.742  -0.290 -1.1204  3.1658 -0.2914
  1974G12c C00P36565   2.875  10.712  -0.074 -0.0829  0.5786 -0.2888
  1974G12c C00O36566   2.753  10.791  -0.081 -1.8434  0.4166 -1.3027
  1974G12c C01D36567   2.708  10.859  -0.203  1.0425  1.5733  0.6122
  1974G12c H00S36568   2.777  10.890  -0.281  0.3567  2.4916  0.3680
  1974G12c C01E36569   2.562  10.891  -0.233 -1.2824 -1.4380 -1.7013
  1974G12c O00836570   2.550  10.942  -0.364 -0.4375 -1.4381 -1.8362
  1974G12c C01V36571   2.647  10.988  -0.449 -0.7215 -0.6605  0.1996
  1974G12c C01Z36572   2.609  10.918  -0.587  1.5055  1.5063  0.4132
  1974G12c H00R36573   2.633  10.816  -0.557 -2.3640  0.6899  1.0710
  1974G12c H00Q36574   2.506  10.887  -0.607  1.5492  1.2309  0.6190
  1974G12c O00936575   2.692  10.952  -0.697  1.5936  0.4539  0.0207
  1974G12c H00P36576   2.711  11.042  -0.719 -1.0245 -1.0389-12.3060
  1974G12c C01W36577   2.734  11.080  -0.418  0.5448 -0.0372  0.4776
  1974G12c H00O36578   2.810  11.121  -0.482  0.7343 -1.5564 -0.3084
  1974G12c C01X36579   2.741  11.177  -0.291  1.7429  1.1724  0.2908
  1974G12c H00N36580   2.689  11.128  -0.208  4.7005  3.8703  3.8820
  1974G12c H00M36581   2.845  11.178  -0.259  1.1199 -1.6790  2.7139
  1974G12c C01Y36582   2.664  11.314  -0.312  0.6017  0.0484  0.8766
  1974G12c C02D36583   2.653  11.398  -0.195  0.7651  0.6700 -1.0038
  1974G12c H01936584   2.710  11.383  -0.105 -4.9991 -3.7091  2.2491
  1974G12c C02C36585   2.628  11.541  -0.222 -1.2842  0.4524  1.4214
  1974G12c H01A36586   2.652  11.611  -0.144  4.6531 -0.1568  0.4262
  1974G12c C02B36587   2.588  11.572  -0.358  1.6528 -0.1650 -1.3268
  1974G12c O00E36588   2.545  11.688  -0.380  0.7726  1.8202  1.1481
  1974G12c H01B36589   2.547  11.727  -0.294  2.4096 -7.0578  5.7756
  1974G12c C02F36590   2.585  11.484  -0.472 -0.6534  0.7638 -0.9141
  1974G12c O00F36591   2.538  11.533  -0.585 -0.0885  0.3207  0.3939
  1974G12c C02G36592   2.635  11.575  -0.679  0.5765  0.2911 -0.2713
  1974G12c H01736593   2.736  11.539  -0.664  0.9346  0.7899 -1.4434
  1974G12c H01636594   2.648  11.681  -0.655 -1.1360 -0.7326  5.9155
  1974G12c H01536595   2.617  11.549  -0.784  4.7711  3.6296 -1.9787
  1974G12c C02E36596   2.636  11.352  -0.446 -1.3759 -1.1127  0.2772
  1974G12c H01836597   2.630  11.292  -0.536  2.3908 -6.5394  3.3978
  1974G12c C01F36598   2.454  10.909  -0.129 -0.0294  1.5540  0.8501
  1974G12c C01G36599   2.317  10.924  -0.141 -0.4153  1.8060  0.0434
  1974G12c H00L36600   2.287  10.951  -0.241 -3.2948 -4.6709 -1.1330
  1974G12c C01H36601   2.226  10.900  -0.027  0.8448  0.3338  0.6759
  1974G12c H00B36602   2.129  10.905  -0.074 -1.2256  1.1288  4.8249
  1974G12c C01I36603   2.285  10.870   0.113 -0.1293  0.3952  0.4937
  1974G12c C01U36604   2.509  10.888   0.010  2.2417  0.4043 -1.2718
  1974G12c C00S36605   2.886  10.512   0.262  0.6323 -1.1173  0.5937
  1974G12c C00K36606   2.682  10.615   0.333  1.4663 -0.1371  1.0924
  1974G12c C00N36607   2.645  10.814   0.016  0.6712  0.9182  1.3575
  1974G12c C00036608   2.425  10.903   0.123 -0.1970 -0.0940  0.1974
  1974G12c C01J36609   2.277  10.778   0.241 -0.1737  0.4161  0.2776
  1974G12c C01K36610   2.153  10.733   0.285  1.7228 -1.3472 -1.9848
  1974G12c C01P36611   2.012  10.784   0.259  0.0010  2.2419  1.1459
  1974G12c C01Q36612   1.973  10.921   0.220  0.6449 -0.2125  0.0430
  1974G12c H00G36613   2.012  11.005   0.277  0.6045  1.9065 -2.9633
  1974G12c C01R36614   1.873  10.955   0.145 -0.6323  0.1011  0.4481
  1974G12c H00F36615   1.815  10.892   0.080  1.9536 -6.0063  3.6657
  1974G12c C01S36616   1.819  11.097   0.151  1.0250 -0.5563 -0.4523
  1974G12c H00E36617   1.711  11.106   0.163  1.2276  0.5317  0.6163
  1974G12c H00D36618   1.856  11.124   0.250  1.9389 -2.6340 -0.1895
  1974G12c O00536619   1.912  11.174   0.066  1.4408  0.3044 -0.1958
  1974G12c H00C36620   1.903  11.265   0.090  4.0563  0.1187  1.7409
  1974G12c C01O36621   1.918  10.684   0.297  1.2646 -0.9040 -0.3357
  1974G12c H00H36622   1.831  10.746   0.311  0.5278 -1.8215 -0.8370
  1974G12c C01N36623   1.918  10.561   0.364 -0.0612 -0.2298 -0.0032
  1974G12c O00636624   1.825  10.474   0.392  0.6115 -0.6576  0.5758
  1974G12c C01T36625   1.823  10.387   0.293 -0.0209 -2.6078 -2.0324
  1974G12c H00K36626   1.835  10.408   0.187 -0.3894 -0.8837 -1.7598
  1974G12c H00J36627   1.742  10.317   0.272 -5.7966  4.3131 -5.1400
  1974G12c H00I36628   1.893  10.305   0.309  2.7823 -0.5006 -2.9405
  1974G12c C01M36629   2.062  10.513   0.383 -2.1744 -0.5351 -0.6403
  1974G12c C02036630   2.563  10.607   0.409 -1.3701  3.2196 -0.0252
  1974G12c C02136631   2.548  10.517   0.522  1.1714  0.0718  1.0783
  1974G12c C01L36632   2.174  10.613   0.354  0.4176 -0.8854  0.5310
  1974G12c O00736633   2.080  10.371   0.447 -0.2844 -1.2130 -0.4132
  1974G12c C02236634   2.444  10.425   0.542 -0.1741 -1.0225  2.0124
  1974G12c C02336635   2.660  10.434   0.559 -0.4315 -0.7695  0.9054
  1974G12c C00G36636   2.841  10.211   0.528 -1.0101 -0.4606  0.2578
  1974G12c C00E36637   2.906   9.982   0.601  1.4619  0.3131 -0.2085
  1974G12c O00A36638   2.993   9.876   0.615  0.5259  0.7425  1.0190
  1974G12c C02436639   2.957   9.766   0.531  0.6878 -0.0290 -0.5811
  1974G12c H00V36640   3.045   9.730   0.477 -1.8533 -2.7182 -3.1669
  1974G12c H00U36641   2.895   9.809   0.451  0.5103 -2.7869 -1.9996
  1974G12c H00T36642   2.936   9.666   0.570  4.1041 -1.0208 -1.1619
  1984G12c C00D36643   4.667  12.717   6.748 -0.9859  1.1000 -0.4263
  1984G12c O00B36644   4.595  12.608   6.677 -0.5080 -1.2965 -0.0732
  1984G12c C02536645   4.502  12.608   6.561  0.7570 -1.0280  0.2849
  1984G12c C02636646   4.565  12.482   6.478  0.1244 -1.3974  0.1956
  1984G12c H00Y36647   4.660  12.463   6.528  2.1388  4.5953 -0.9606
  1984G12c H00X36648   4.599  12.505   6.377 -1.7433 -5.3508 -1.4613
  1984G12c O00C36649   4.469  12.372   6.486 -0.1311 -0.1599  1.3592
  1984G12c H00W36650   4.391  12.424   6.470 -0.5203 -1.5581 -1.6221
  1984G12c C02736651   4.398  12.695   6.553 -0.5760  1.0094  0.3589
  1984G12c O00D36652   4.394  12.776   6.652 -1.5964 -1.6329 -0.0434
  1984G12c H00Z36653   4.475  12.824   6.653 -2.0533 -0.8449 -0.3171
  1984G12c C02836654   4.295  12.702   6.450  0.8930  0.5424 -1.0428
  1984G12c C02936655   4.315  12.647   6.332 -0.2536  1.0906 -1.5372
  1984G12c H01036656   4.417  12.629   6.300  1.9133  7.5480  1.0239
  1984G12c C02T36657   4.223  12.633   6.227 -0.4776  0.9958 -0.3803
  1984G12c H01O36658   4.257  12.600   6.130 -2.1693  3.8324 -1.9991
  1984G12c C02S36659   4.095  12.672   6.259 -0.0770 -0.4400 -0.1253
  1984G12c O00J36660   4.017  12.690   6.152 -1.1880 -0.8552  0.8339
  1984G12c H01P36661   3.991  12.609   6.109  1.7076 -1.3702 -0.0436
  1984G12c C02R36662   4.054  12.689   6.395 -0.7780 -1.9717  0.6427
  1984G12c O00I36663   3.920  12.691   6.422 -0.0769 -0.1925  0.7020
  1984G12c C02Q36664   3.863  12.757   6.522 -1.5577 -0.9677 -0.3040
  1984G12c H01N36665   3.874  12.686   6.605  0.3822 -4.2713 -3.2364
  1984G12c H01R36666   3.756  12.756   6.502 -1.1419 -2.9208 -2.7727
  1984G12c H01Q36667   3.892  12.855   6.560  4.5846 -2.1639 -1.3075
  1984G12c C02A36668   4.152  12.726   6.480 -1.3577 -2.1604  0.4655
  1984G12c H01136669   4.129  12.762   6.579  1.1507 -2.4251  1.1767
  1984G12c C00C36670   4.676  12.839   6.691 -0.1947 -0.2381  1.2484
  1984G12c H01236671   4.654  12.846   6.586  1.4852 -7.0544  0.1553
  1984G12c C00B36672   4.662  12.961   6.777 -2.2518 -0.4123  0.5032
  1984G12c C00A36673   4.647  13.094   6.737 -0.4926  2.5727 -1.2730
  1984G12c C00936674   4.632  13.135   6.602 -0.2088 -1.7395 -0.2294
  1984G12c C00836675   4.595  13.089   6.475 -0.3496  1.8385  0.2380
  1984G12c H01336676   4.551  12.991   6.465 -1.1738  2.0893  1.2195
  1984G12c C00736677   4.601  13.194   6.370 -0.8577 -0.4018  1.9214
  1984G12c H01436678   4.556  13.184   6.272  2.1833 -3.6823  0.7314
  1984G12c C00636679   4.660  13.324   6.386  0.6213  1.8768  0.4038
  1984G12c C00536680   4.711  13.353   6.505 -0.4077  1.4387 -1.2530
  1984G12c C00436681   4.793  13.464   6.542  0.7530  1.4485 -1.2581
  1984G12c C00336682   4.838  13.483   6.680  0.7511 -0.4239 -2.9188
  1984G12c C00236683   4.916  13.614   6.715 -0.5847 -2.2787 -0.9535
  1984G12c C00136684   4.978  13.675   6.827  0.0696  1.3777 -1.3628
  1984G12c C00M36685   5.023  13.611   6.953  0.1387  0.7135 -0.4919
  1984G12c C00L36686   4.938  13.506   7.004 -1.0442 -0.4136 -2.6917
  1984G12c C00R36687   4.998  13.390   7.085 -1.7017 -0.2025 -1.3567
  1984G12c C00Q36688   5.133  13.359   7.126  0.3661  0.5314  1.1692
  1984G12c C00V36689   5.149  13.250   7.205  2.2555  0.5775  2.2155
  1984G12c C00U36690   5.065  13.136   7.175  2.3251  0.8217  0.0475
  1984G12c C00T36691   4.949  13.144   7.101  0.9208  1.3573  0.3950
  1984G12c C01636692   4.879  13.027   7.058  0.7423  2.5508  0.6559
  1984G12c C01536693   4.913  12.903   7.104  0.8771  0.2314 -0.8747
  1984G12c C01036694   4.999  12.903   7.216  0.8931  0.1838 -1.0860
  1984G12c C01136695   5.004  12.769   7.273  0.0074 -0.9922  0.5870
  1984G12c H00536696   5.084  12.769   7.345  1.0688  2.7877 -0.5025
  1984G12c C01236697   4.936  12.657   7.232 -0.5765  0.4539  0.9877
  1984G12c C01736698   4.970  12.522   7.269 -1.1274  1.0058  1.1652
  1984G12c O00236699   4.879  12.415   7.288  1.2871  0.0125  0.1909
  1984G12c H00436700   4.916  12.389   7.205 -1.6510 -1.7680 -0.6348
  1984G12c C01836701   5.108  12.479   7.294 -0.2973 -0.9851 -0.8033
  1984G12c O00136702   5.204  12.576   7.305 -0.5949  0.8227 -1.6638
  1984G12c H00336703   5.295  12.576   7.328 -0.7723 -4.9315 -0.3312
  1984G12c C01936704   5.157  12.348   7.343  0.8127 -0.5396  0.7046
  1984G12c H00236705   5.102  12.254   7.340  5.1611 -3.5369  5.3260
  1984G12c H00136706   5.242  12.317   7.281 -0.1079 -7.0405  2.2776
  1984G12c O00036707   5.223  12.374   7.464 -0.2182 -0.8965  0.4754
  1984G12c C01A36708   5.179  12.339   7.568  1.2521 -0.3405 -0.1471
  1984G12c C02K36709   5.244  12.318   7.679 -0.0849  0.3540 -0.1034
  1984G12c O00G36710   5.364  12.271   7.647  0.2379 -1.2490 -0.2642
  1984G12c C02M36711   5.456  12.218   7.736 -0.1237 -0.4339 -0.9352
  1984G12c H01G36712   5.430  12.235   7.841 -8.7636  2.4632 -3.0681
  1984G12c H01F36713   5.525  12.303   7.737 -1.3264  0.6759  3.6749
  1984G12c H01E36714   5.496  12.126   7.694 -2.9395 -1.9095 -0.5025
  1984G12c C02J36715   5.193  12.312   7.811 -1.0148 -1.8457  1.7626
  1984G12c H01H36716   5.254  12.286   7.896  1.9267 -2.5520 -0.4525
  1984G12c C02I36717   5.053  12.312   7.832  0.4360 -1.2101  1.6225
  1984G12c C02N36718   4.980  12.299   7.958  0.0134  1.2755 -0.6552
  1984G12c H01M36719   4.935  12.372   8.023 -2.9091 -1.9704  1.1360
  1984G12c C02O36720   4.939  12.173   7.999 -1.0494 -1.5948  0.4389
  1984G12c H01L36721   4.996  12.097   7.947  3.0072 -1.9187  5.0173
  1984G12c C02P36722   4.834  12.124   8.098 -0.6697  0.7419  0.2104
  1984G12c H01K36723   4.761  12.050   8.065  3.4151 -2.1514 -2.9830
  1984G12c H01J36724   4.847  12.022   8.134 -0.7180  0.7044  0.1248
  1984G12c O00H36725   4.832  12.190   8.216 -0.3547  0.5579  0.1311
  1984G12c H01I36726   4.925  12.194   8.231  0.0227 -3.3394 -0.6662
  1984G12c C02H36727   4.975  12.318   7.714 -1.3675 -0.0008 -0.7755
  1984G12c H01C36728   4.869  12.323   7.733 -0.1930  5.4279  6.7020
  1984G12c C02L36729   5.041  12.323   7.583 -0.0302 -0.9690  0.2398
  1984G12c H01D36730   4.977  12.335   7.497 -6.2915  6.4577  5.1877
  1984G12c C01336731   4.837  12.674   7.143  1.3612 -0.7418  0.7669
  1984G12c H00036732   4.799  12.579   7.106  0.3409  0.9800 -2.8696
  1984G12c C01436733   4.826  12.797   7.052 -1.1406 -1.4856 -0.7401
  1984G12c C00F36734   4.736  12.815   6.960  0.4158  0.4694  1.0412
  1984G12c C00H36735   4.778  13.055   6.972  2.8487  0.9009 -0.4715
  1984G12c C00I36736   4.746  13.191   6.942 -1.4874 -0.1923  0.6390
  1984G12c C00J36737   4.795  13.314   7.000 -0.7821 -0.1207 -0.8123
  1984G12c C00Z36738   5.078  13.022   7.241 -0.9107 -0.3796 -0.8608
  1984G12c C00Y36739   5.165  13.022   7.358 -0.2896 -1.7387  1.4433
  1984G12c H00636740   5.181  12.924   7.401  4.3900 -0.1200  3.7355
  1984G12c C00X36741   5.253  13.114   7.368  1.1528 -1.0906 -0.2151
  1984G12c O00336742   5.362  13.108   7.436  0.9891  0.2669 -0.9294
  1984G12c C01B36743   5.431  12.979   7.429 -0.9065 -0.8180 -1.0856
  1984G12c H00936744   5.392  12.902   7.363  3.7912 -4.6097  0.2531
  1984G12c H00836745   5.424  12.951   7.535 -3.9418  3.8683  0.1061
  1984G12c H00736746   5.538  12.987   7.414 -0.7665  1.9184  0.9638
  1984G12c C00W36747   5.246  13.232   7.295  0.5813  1.7898  0.9363
  1984G12c O00436748   5.350  13.319   7.305  0.1087 -0.6819 -0.3231
  1984G12c C01C36749   5.336  13.437   7.227 -0.0761 -0.1823  0.4421
  1984G12c H00A36750   5.289  13.523   7.273 -1.0029 -0.5999  0.2924
  1984G12c C00P36751   5.253  13.438   7.113 -0.9393  1.2755 -0.1021
  1984G12c C00O36752   5.274  13.538   7.007 -0.0831 -0.7888  1.5264
  1984G12c C01D36753   5.404  13.563   6.962 -0.0659 -0.3583 -0.6386
  1984G12c H00S36754   5.481  13.500   7.003 -4.8959 -4.1487  3.2341
  1984G12c C01E36755   5.429  13.641   6.859  0.9714 -0.0559  0.5542
  1984G12c O00836756   5.554  13.657   6.806 -1.3135  1.2708 -0.4766
  1984G12c C01V36757   5.657  13.715   6.875 -0.8160 -1.0445 -1.0365
  1984G12c C01Z36758   5.796  13.643   6.838  0.8776 -1.1988 -0.8703
  1984G12c H00R36759   5.827  13.582   6.922  7.7725  2.1879 -0.6353
  1984G12c H00Q36760   5.755  13.584   6.756 -0.0347 -6.1233  2.9161
  1984G12c O00936761   5.866  13.733   6.748  1.3357  0.2730  0.0639
  1984G12c H00P36762   5.857  13.695   6.662 -1.6299 -5.3038  2.5627
  1984G12c C01W36763   5.648  13.842   6.950  0.1292  0.1093 -0.6571
  1984G12c H00O36764   5.741  13.865   6.999  1.1072  6.4146 -4.9449
  1984G12c C01X36765   5.511  13.910   6.998  0.0539  0.7743  0.6790
  1984G12c H00N36766   5.448  13.963   6.927  0.6344 -2.4880 -2.4252
  1984G12c H00M36767   5.451  13.835   7.048 -0.3818 -2.4350 -4.3405
  1984G12c C01Y36768   5.539  13.988   7.119 -1.0611  0.1006  1.5168
  1984G12c C02D36769   5.595  14.129   7.127 -0.0732 -1.8233  0.6149
  1984G12c H01936770   5.656  14.187   7.060 -1.8488 -1.0251 -0.3389
  1984G12c C02C36771   5.568  14.203   7.245  2.1577 -0.0263 -1.3555
  1984G12c H01A36772   5.607  14.303   7.238  0.6210  0.4444 -3.6948
  1984G12c C02B36773   5.526  14.129   7.357 -0.0529 -0.0052 -0.4903
  1984G12c O00E36774   5.534  14.188   7.476  0.9983  0.1223  0.2879
  1984G12c H01B36775   5.488  14.150   7.549 -6.7983  0.7582 -3.7000
  1984G12c C02F36776   5.517  13.990   7.363  0.9073 -0.4188  0.7485
  1984G12c O00F36777   5.523  13.941   7.490 -1.0498 -0.2855 -0.1506
  1984G12c C02G36778   5.652  13.927   7.513  0.8923 -2.3200 -1.1682
  1984G12c H01736779   5.714  13.904   7.426  2.0704 -2.2522 -0.3622
  1984G12c H01636780   5.712  14.010   7.550 -2.3862  1.7231 -4.4650
  1984G12c H01536781   5.651  13.865   7.603 -1.6953  1.3055  1.4292
  1984G12c C02E36782   5.504  13.922   7.245  0.2175 -0.0852 -0.8125
  1984G12c H01836783   5.463  13.822   7.235  4.4391 -2.0733  0.7650
  1984G12c C01F36784   5.316  13.689   6.774 -1.0838 -0.3011 -1.4444
  1984G12c C01G36785   5.325  13.737   6.636  0.2017  0.3702  1.1509
  1984G12c H00L36786   5.416  13.783   6.599 -2.0066  4.2622  0.3026
  1984G12c C01H36787   5.200  13.729   6.552 -0.2149 -1.6791 -0.3921
  1984G12c H00B36788   5.221  13.722   6.447 -3.3786 -2.5990 -1.0270
  1984G12c C01I36789   5.078  13.752   6.627 -0.3961 -0.4245  1.5167
  1984G12c C01U36790   5.193  13.693   6.820 -0.6567 -0.2490 -0.3121
  1984G12c C00S36791   4.917  13.277   7.055  1.1614 -0.2627 -0.5701
  1984G12c C00K36792   4.835  13.440   6.942  0.2217 -2.1750  1.7537
  1984G12c C00N36793   5.167  13.616   6.941 -0.6530 -1.2851  0.5890
  1984G12c C00036794   5.074  13.748   6.769  0.9810  0.6990 -0.2397
  1984G12c C01J36795   4.953  13.677   6.600  0.3612  0.6621 -0.7397
  1984G12c C01K36796   4.913  13.655   6.451  2.1650  0.5452 -1.6181
  1984G12c C01P36797   4.967  13.726   6.327 -1.2971 -0.6128 -0.6365
  1984G12c C01Q36798   5.042  13.835   6.323 -0.7366  0.0785 -0.4619
  1984G12c H00G36799   5.015  13.928   6.370  0.2188 -0.7417  1.7819
  1984G12c C01R36800   5.141  13.829   6.242 -2.2330 -1.3290 -0.3914
  1984G12c H00F36801   5.191  13.733   6.234 -2.3217 -1.1943 -2.6414
  1984G12c C01S36802   5.224  13.936   6.168  2.9427  1.7072  0.3928
  1984G12c H00E36803   5.196  13.911   6.066 -1.1310 -2.8110  2.4327
  1984G12c H00D36804   5.196  14.037   6.198  1.4880  0.2732  4.1888
  1984G12c O00536805   5.355  13.927   6.187  0.3081 -0.2897 -2.1282
  1984G12c H00C36806   5.398  13.989   6.130  0.7161 -2.7838 -4.6697
  1984G12c C01O36807   4.915  13.687   6.211  0.9393 -0.2774  0.5899
  1984G12c H00H36808   4.949  13.751   6.131  0.7288 -4.2561 -2.8109
  1984G12c C01N36809   4.837  13.564   6.188 -0.2943 -1.7055 -1.1352
  1984G12c O00636810   4.806  13.510   6.058 -0.9085  1.2393 -1.1008
  1984G12c C01T36811   4.872  13.577   5.942  0.8471 -0.4449  0.3962
  1984G12c H00K36812   4.979  13.579   5.960  0.9560 -3.3288  0.2906
  1984G12c H00J36813   4.840  13.681   5.938 -2.9010 -1.0633  6.9730
  1984G12c H00I36814   4.868  13.519   5.850  1.7326 -3.1767  2.0510
  1984G12c C01M36815   4.795  13.503   6.298 -0.3206  0.9450 -0.6161
  1984G12c C02036816   4.791  13.414   6.795  0.8287  0.7466  1.4232
  1984G12c C02136817   4.685  13.324   6.753  0.2225 -1.0240 -1.3742
  1984G12c C01L36818   4.816  13.551   6.432 -0.3610  0.6187 -0.0421
  1984G12c O00736819   4.709  13.396   6.273 -0.4122  0.2831  1.2509
  1984G12c C02236820   4.682  13.278   6.610 -1.2206  0.4496 -0.5209
  1984G12c C02336821   4.677  13.196   6.819 -0.5307  0.1230  0.0776
  1984G12c C00G36822   4.733  12.945   6.905 -1.1958  0.0408 -0.4788
  1984G12c C00E36823   4.685  12.700   6.892 -0.4005  0.7014 -2.3870
  1984G12c O00A36824   4.600  12.610   6.979  0.1557 -1.5633  0.6873
  1984G12c C02436825   4.506  12.529   6.911  0.4488  0.4604  0.9291
  1984G12c H00V36826   4.542  12.459   6.836  0.2339 -0.7372  1.9313
  1984G12c H00U36827   4.442  12.570   6.833 -0.7957 -4.4758 -0.8133
  1984G12c H00T36828   4.451  12.443   6.949  4.5715 -1.7877  2.2003
  1994G12c C00D36829   8.976   2.969   3.116 -1.7068 -0.1834 -0.4958
  1994G12c O00B36830   9.060   2.917   3.015 -0.9626  0.0291 -0.5775
  1994G12c C02536831   9.000   2.948   2.889  0.7810  0.8291  0.4842
  1994G12c C02636832   8.920   2.840   2.800 -0.3446  0.7234 -0.6225
  1994G12c H00Y36833   8.819   2.867   2.767 -2.3816 -1.2779  3.6145
  1994G12c H00X36834   8.896   2.771   2.881 -2.5607 -1.3911 -2.9758
  1994G12c O00C36835   9.011   2.775   2.724 -0.2691  0.4369 -0.4392
  1994G12c H00W36836   9.010   2.686   2.755 -3.6530 -0.0268 -1.6033
  1994G12c C02736837   8.994   3.085   2.854  0.2657 -0.9818 -0.2679
  1994G12c O00D36838   9.080   3.181   2.888 -0.9711 -0.7042 -0.5219
  1994G12c H00Z36839   9.092   3.121   2.960 -4.6137 -0.8190  0.1260
  1994G12c C02836840   8.889   3.117   2.767 -0.8462  1.5578  2.2151
  1994G12c C02936841   8.747   3.099   2.807  0.2603 -0.7399  2.1978
  1994G12c H01036842   8.719   3.070   2.907  5.2871  0.1615  4.0187
  1994G12c C02T36843   8.643   3.154   2.727 -0.4390 -0.9641 -0.1896
  1994G12c H01O36844   8.553   3.170   2.785 -1.5965 -4.2271 -0.9283
  1994G12c C02S36845   8.678   3.236   2.612  0.0270  0.8923 -0.0844
  1994G12c O00J36846   8.585   3.321   2.551 -1.0602  0.9182 -0.2279
  1994G12c H01P36847   8.633   3.378   2.494 -5.9308  4.0769 -1.3944
  1994G12c C02R36848   8.819   3.238   2.567  0.0451 -1.4877 -1.4336
  1994G12c O00I36849   8.870   3.321   2.478 -1.1169  0.1448 -0.8884
  1994G12c C02Q36850   9.003   3.376   2.453 -1.2079 -0.3602 -0.4852
  1994G12c H01N36851   9.018   3.482   2.473 -4.4117 -0.2990  2.2237
  1994G12c H01R36852   9.034   3.359   2.350  0.2136  0.7474 -0.2465
  1994G12c H01Q36853   9.088   3.345   2.513 -0.0902 -0.0415 -1.8902
  1994G12c C02A36854   8.905   3.194   2.654 -0.1509 -0.8785 -0.6025
  1994G12c H01136855   9.011   3.203   2.641  0.2565 -2.0959  1.6161
  1994G12c C00C36856   8.889   2.892   3.191 -1.4491  1.2162  1.2340
  1994G12c H01236857   8.871   2.794   3.151 -0.7136  0.6268  2.3059
  1994G12c C00B36858   8.817   2.952   3.287  1.5345 -0.7033  1.1621
  1994G12c C00A36859   8.690   2.903   3.347  0.9326  1.1381  0.2111
  1994G12c C00936860   8.584   2.818   3.295  0.9707 -1.2818 -1.1803
  1994G12c C00836861   8.563   2.790   3.154  0.8709  0.3690  1.5234
  1994G12c H01336862   8.639   2.794   3.077  0.4914  0.1786  1.1387
  1994G12c C00736863   8.439   2.757   3.117  0.0477 -0.2672  1.3512
  1994G12c H01436864   8.441   2.716   3.017 -6.5633 -3.9340  2.4559
  1994G12c C00636865   8.314   2.810   3.164  0.9260  0.8278  1.0367
  1994G12c C00536866   8.343   2.864   3.296 -0.2940  0.8046 -0.6352
  1994G12c C00436867   8.245   2.948   3.351  0.0992 -2.6783 -0.6752
  1994G12c C00336868   8.274   3.005   3.478  0.1114  0.7033 -1.2214
  1994G12c C00236869   8.168   3.096   3.524 -0.8723 -0.3113  0.2851
  1994G12c C00136870   8.179   3.190   3.637 -0.2445 -0.0423  1.3219
  1994G12c C00M36871   8.275   3.285   3.631 -1.3415 -0.1851 -2.1563
  1994G12c C00L36872   8.412   3.256   3.669 -0.5346  0.4009  0.9627
  1994G12c C00R36873   8.522   3.360   3.671 -0.4002 -0.4905  0.2461
  1994G12c C00Q36874   8.527   3.502   3.681  0.1396  1.3734  0.9394
  1994G12c C00V36875   8.654   3.556   3.660  2.2472 -0.1677 -0.5756
  1994G12c C00U36876   8.765   3.473   3.606  1.4221  0.0156 -0.0930
  1994G12c C00T36877   8.741   3.336   3.582 -0.9784  0.1241  0.6570
  1994G12c C01636878   8.807   3.266   3.488 -0.5482 -1.0741 -1.4608
  1994G12c C01536879   8.912   3.334   3.431  0.5026 -0.1879  0.1551
  1994G12c C01036880   8.950   3.459   3.474  0.3333 -0.5318 -0.0089
  1994G12c C01136881   9.060   3.533   3.415 -0.4200  0.1204  1.1845
  1994G12c H00536882   9.101   3.627   3.450 -5.2033  1.6213  3.2046
  1994G12c C01236883   9.139   3.477   3.318 -1.1668  0.8089  0.7362
  1994G12c C01736884   9.256   3.545   3.285 -1.0381  1.2199  0.2957
  1994G12c O00236885   9.320   3.612   3.381 -0.1009  0.5099 -0.0564
  1994G12c H00436886   9.297   3.586   3.469 -0.2640 -1.2661 -0.6124
  1994G12c C01836887   9.286   3.583   3.164 -2.2639 -1.0202  1.7267
  1994G12c O00136888   9.198   3.564   3.073  1.1896  0.9450 -0.0533
  1994G12c H00336889   9.188   3.646   3.026  5.2540 -0.5872 -3.9270
  1994G12c C01936890   9.389   3.684   3.131 -1.1778 -0.7245  0.4792
  1994G12c H00236891   9.420   3.741   3.219  2.4334 -2.5329  0.4984
  1994G12c H00136892   9.438   3.588   3.119  2.0777 -1.1047 11.0952
  1994G12c O00036893   9.364   3.779   3.029 -0.6823  0.8323  0.2774
  1994G12c C01A36894   9.426   3.813   2.925 -0.0879  0.7911 -1.2687
  1994G12c C02K36895   9.382   3.896   2.817  2.3353 -0.3855 -0.1513
  1994G12c O00G36896   9.248   3.916   2.811  1.4900 -1.7828  1.7913
  1994G12c C02M36897   9.193   4.045   2.812 -1.2565  0.4932 -0.0164
  1994G12c H01G36898   9.110   4.000   2.758 -3.0027  0.8994  2.3102
  1994G12c H01F36899   9.270   4.110   2.769 -0.8194 -0.2899 -0.4320
  1994G12c H01E36900   9.201   4.088   2.911  0.5166  2.7101 -1.0665
  1994G12c C02J36901   9.476   3.943   2.719 -0.7393 -0.0602 -0.9027
  1994G12c H01H36902   9.417   3.991   2.642 -3.4235 -0.7430  0.6519
  1994G12c C02I36903   9.622   3.936   2.743 -0.8091  0.5989  0.1765
  1994G12c C02N36904   9.716   4.018   2.677  1.3626  0.0369 -0.6512
  1994G12c H01M36905   9.769   3.954   2.607 -3.6988 -3.7186 -1.3975
  1994G12c C02O36906   9.697   4.145   2.650 -0.3860  0.4274 -0.5948
  1994G12c H01L36907   9.771   4.186   2.584  0.2598  6.1237  3.2940
  1994G12c C02P36908   9.585   4.236   2.686 -2.4003 -1.1175  0.5559
  1994G12c H01K36909   9.579   4.339   2.650 -0.6403 -0.8925  0.8949
  1994G12c H01J36910   9.479   4.210   2.676 -3.2053  2.4328 -0.7917
  1994G12c O00H36911   9.554   4.245   2.827  0.2932 -0.4145  0.6990
  1994G12c H01I36912   9.570   4.161   2.866 -0.4170  0.7458  3.6455
  1994G12c C02H36913   9.658   3.836   2.830  0.5659 -0.8251 -1.6256
  1994G12c H01C36914   9.760   3.800   2.831  2.7372  4.6298  3.5970
  1994G12c C02L36915   9.561   3.776   2.912 -0.2293  0.2101  0.7092
  1994G12c H01D36916   9.634   3.731   2.978 -0.5342 -1.8254 -0.2987
  1994G12c C01336917   9.101   3.348   3.289  0.1212  0.4328  2.9821
  1994G12c H00036918   9.153   3.312   3.201 -1.0730  3.2089  1.0872
  1994G12c C01436919   8.981   3.282   3.321  0.3025 -0.9952  0.3154
  1994G12c C00F36920   8.962   3.143   3.286 -0.5906 -0.6200 -0.9761
  1994G12c C00H36921   8.770   3.141   3.441  1.0804 -0.7124  0.5690
  1994G12c C00I36922   8.660   3.076   3.506  0.4375  0.4769 -0.1069
  1994G12c C00J36923   8.597   3.145   3.610 -0.2577 -1.3637  1.1522
  1994G12c C00Z36924   8.871   3.526   3.556  0.3370  1.8846  0.0063
  1994G12c C00Y36925   8.876   3.669   3.580  0.8832  3.1150 -0.1707
  1994G12c H00636926   8.957   3.720   3.531  1.1594  0.1835 -2.9262
  1994G12c C00X36927   8.784   3.748   3.642 -0.0708 -0.0890 -1.3474
  1994G12c O00336928   8.794   3.886   3.667  1.6948  0.8851 -0.5984
  1994G12c C01B36929   8.736   3.971   3.573 -0.1133 -0.1831  1.0341
  1994G12c H00936930   8.722   4.062   3.631 -3.2222 -4.5829  7.7201
  1994G12c H00836931   8.686   3.927   3.487  0.6117  5.1191 -2.3606
  1994G12c H00736932   8.827   4.012   3.529 -0.6194  2.0454  1.9849
  1994G12c C00W36933   8.673   3.693   3.684  0.8289 -0.3767  3.3159
  1994G12c O00436934   8.565   3.782   3.724 -0.1273 -0.3327 -0.1390
  1994G12c C01C36935   8.437   3.744   3.697 -0.9086  0.4119 -0.1979
  1994G12c H00A36936   8.381   3.734   3.789 -0.5059 -0.3488 -0.0314
  1994G12c C00P36937   8.409   3.597   3.683  0.2921  0.6238  0.9398
  1994G12c C00O36938   8.279   3.554   3.662  0.7652  0.9031  0.6677
  1994G12c C01D36939   8.171   3.671   3.640  1.2780 -0.5788 -2.2756
  1994G12c H00S36940   8.196   3.775   3.655 -0.2285 -0.1737 -2.4654
  1994G12c C01E36941   8.039   3.629   3.603 -0.8697  1.0554  0.5835
  1994G12c O00836942   7.947   3.717   3.570  2.8748 -1.2546  0.9304
  1994G12c C01V36943   7.912   3.847   3.609  1.0844  1.4307  1.0255
  1994G12c C01Z36944   7.994   3.949   3.543 -0.2979  0.5314  0.7291
  1994G12c H00R36945   7.994   4.037   3.608 -2.4422  3.2477 -2.7973
  1994G12c H00Q36946   8.100   3.943   3.516  1.1289  3.2404  5.1023
  1994G12c O00936947   7.930   3.987   3.419 -0.7670  0.2278  0.5457
  1994G12c H00P36948   7.985   4.042   3.365  3.5736 -4.8323 -0.6166
  1994G12c C01W36949   7.796   3.880   3.678  1.1213 -0.5600 -0.9873
  1994G12c H00O36950   7.775   3.986   3.674 -2.6700 -1.3291 -4.9042
  1994G12c C01X36951   7.727   3.798   3.788  0.4132 -1.2391  0.1761
  1994G12c H00N36952   7.818   3.752   3.827 -0.8807 -3.4772  0.6846
  1994G12c H00M36953   7.682   3.883   3.838 -3.9795 -3.6843  0.6641
  1994G12c C01Y36954   7.606   3.717   3.749  0.5610  1.2004 -0.0023
  1994G12c C02D36955   7.516   3.725   3.640  1.3740 -0.0831  0.1109
  1994G12c H01936956   7.547   3.804   3.573  1.1150  0.4159  0.5730
  1994G12c C02C36957   7.390   3.654   3.610 -0.5067 -0.7137 -0.1237
  1994G12c H01A36958   7.316   3.677   3.535 -5.3387  0.0262  4.6252
  1994G12c C02B36959   7.366   3.556   3.698 -0.1702 -1.1572 -1.6474
  1994G12c O00E36960   7.267   3.455   3.692 -1.2934  0.6636 -1.1339
  1994G12c H01B36961   7.247   3.443   3.783  3.0108  1.2231 -0.0136
  1994G12c C02F36962   7.458   3.527   3.801  0.2857 -0.7452 -2.1912
  1994G12c O00F36963   7.405   3.427   3.900  0.6909  0.3479  1.3929
  1994G12c C02G36964   7.396   3.454   4.046 -0.2670  2.4277 -0.8334
  1994G12c H01736965   7.396   3.563   4.044 -1.0921  2.4527  0.0797
  1994G12c H01636966   7.298   3.424   4.082 -1.0958  1.6943 -3.5982
  1994G12c H01536967   7.490   3.453   4.101 -1.5415 -0.8205  1.4655
  1994G12c C02E36968   7.569   3.609   3.823  0.1324  0.0672  0.3274
  1994G12c H01836969   7.628   3.586   3.910 -3.4871  2.6464  3.6181
  1994G12c C01F36970   8.021   3.501   3.565  0.2966  2.4287  0.3076
  1994G12c C01G36971   7.922   3.433   3.476 -0.9293 -0.7865 -1.3869
  1994G12c H00L36972   7.859   3.477   3.400 -0.6371  2.2677  0.0693
  1994G12c C01H36973   7.904   3.302   3.454 -0.3878  0.5526  0.6935
  1994G12c H00B36974   7.852   3.253   3.372  5.7429  1.0402 -3.7948
  1994G12c C01I36975   7.972   3.213   3.522 -0.5091 -1.4341  0.1819
  1994G12c C01U36976   8.081   3.397   3.647  0.7762 -0.9692  0.6070
  1994G12c C00S36977   8.634   3.283   3.636  0.1316 -1.4755  0.4706
  1994G12c C00K36978   8.461   3.130   3.619 -0.6671 -0.5914 -0.1709
  1994G12c C00N36979   8.216   3.414   3.647  0.2512  1.3301  0.3340
  1994G12c C00036980   8.052   3.254   3.644 -1.3594  0.7641  0.0708
  1994G12c C01J36981   8.044   3.101   3.467 -0.8320 -0.8388  0.7582
  1994G12c C01K36982   8.000   3.017   3.362  0.1298  0.0432 -1.0172
  1994G12c C01P36983   7.872   2.978   3.321  0.8739 -0.3130  1.1938
  1994G12c C01Q36984   7.756   3.007   3.402 -0.3576 -0.3855 -0.3380
  1994G12c H00G36985   7.681   3.048   3.335  1.6829 -2.3492 -4.0004
  1994G12c C01R36986   7.728   3.009   3.530 -0.6035 -0.3690  0.1707
  1994G12c H00F36987   7.826   2.998   3.574 -2.1406 -9.0799  2.4351
  1994G12c C01S36988   7.594   3.019   3.591 -0.8642 -0.5324  0.3944
  1994G12c H00E36989   7.616   3.043   3.696  0.1703 -0.6244  0.2069
  1994G12c H00D36990   7.536   3.085   3.527  3.8584  4.7847  1.1308
  1994G12c O00536991   7.557   2.892   3.607 -0.0056  0.1843 -0.9567
  1994G12c H00C36992   7.567   2.844   3.687  2.7877  0.3158 -1.1607
  1994G12c C01O36993   7.857   2.934   3.193 -1.4692  0.2234  0.7511
  1994G12c H00H36994   7.768   2.912   3.137 -1.0034 -0.5197  0.3019
  1994G12c C01N36995   7.962   2.897   3.107  0.8009 -1.9660 -0.3859
  1994G12c O00636996   7.962   2.862   2.975  0.3847  0.7728  1.4484
  1994G12c C01T36997   7.900   2.969   2.912 -0.5322 -0.5069  0.3217
  1994G12c H00K36998   7.806   3.013   2.945  0.8440  5.5799 -3.1191
  1994G12c H00J36999   7.885   2.936   2.809 -3.8774 -2.1661  1.2522
  1994G12c H00I37000   7.965   3.055   2.898 -3.5349  2.5916  4.2557
  1994G12c C01M37001   8.088   2.888   3.166 -0.8069 -0.3759 -1.1753
  1994G12c C02037002   8.408   3.024   3.538 -0.3623  0.2648  1.5176
  1994G12c C02137003   8.496   2.919   3.492 -2.0914 -1.6473  0.6305
  1994G12c C01L37004   8.111   2.945   3.297 -0.5699 -0.9387 -0.7184
  1994G12c O00737005   8.200   2.829   3.094  0.5025 -1.1721  0.1445
  1994G12c C02237006   8.466   2.840   3.378 -0.5405 -1.0741  0.5372
  1994G12c C02337007   8.634   2.952   3.468 -1.2027  0.7505  1.0726
  1994G12c C00G37008   8.855   3.076   3.349 -0.5168  0.6796  1.6671
  1994G12c C00E37009   9.030   3.084   3.176 -0.0636 -0.3930 -0.4875
  1994G12c O00A37010   9.151   3.115   3.117  0.2265 -0.6888  1.3076
  1994G12c C02437011   9.257   3.022   3.154  0.5013  1.4633 -0.2677
  1994G12c H00V37012   9.363   3.043   3.166  1.5648 -2.4528 -1.9218
  1994G12c H00U37013   9.237   2.939   3.221  2.7585 -1.6066 -3.2865
  1994G12c H00T37014   9.281   2.965   3.065 -3.6438 -1.9877  0.6815
  2004G12c C00D37015   6.635  11.489   9.527 -0.1427  1.0643 -2.1797
  2004G12c O00B37016   6.493  11.463   9.501  0.3585 -0.7746  1.9092
  2004G12c C02537017   6.446  11.341   9.462 -0.0584 -1.2281 -1.2201
  2004G12c C02637018   6.409  11.239   9.582 -0.9177  0.8873  0.2019
  2004G12c H00Y37019   6.325  11.171   9.564  0.7972 -0.3746 -3.4936
  2004G12c H00X37020   6.393  11.298   9.672  0.7201  1.8902 -0.1444
  2004G12c O00C37021   6.508  11.147   9.629  0.3752  1.2048 -1.4900
  2004G12c H00W37022   6.591  11.192   9.627  3.1638 -3.5779 -4.4116
  2004G12c C02737023   6.424  11.305   9.336  0.2137  0.5041  1.2763
  2004G12c O00D37024   6.459  11.397   9.247  1.4996  0.9729  1.1351
  2004G12c H00Z37025   6.540  11.429   9.283  3.2124 -1.3565 -0.5023
  2004G12c C02837026   6.396  11.178   9.277  0.1516 -0.1757  0.3473
  2004G12c C02937027   6.279  11.188   9.200  1.4697  0.2637  0.4288
  2004G12c H01037028   6.209  11.262   9.165  2.3775  0.2283 -1.5594
  2004G12c C02T37029   6.240  11.064   9.145 -2.4100  0.7795  0.4812
  2004G12c H01O37030   6.136  11.062   9.115 -2.2320 -5.5638 -0.3142
  2004G12c C02S37031   6.319  10.948   9.153  0.7794 -0.1993  0.8827
  2004G12c O00J37032   6.287  10.853   9.056 -0.8314  0.8175 -0.9372
  2004G12c H01P37033   6.344  10.872   8.982 -2.5539 -3.0045 -3.3664
  2004G12c C02R37034   6.444  10.944   9.215  0.2917  0.2769  0.7417
  2004G12c O00I37035   6.532  10.835   9.204  0.5790 -0.3537  0.5821
  2004G12c C02Q37036   6.490  10.756   9.325 -0.2135 -0.1584 -0.8623
  2004G12c H01N37037   6.509  10.808   9.419 -0.6814  0.2524 -0.9925
  2004G12c H01R37038   6.549  10.666   9.343  1.8846  1.7127  2.1949
  2004G12c H01Q37039   6.381  10.752   9.322 -0.7895  2.7720  5.8371
  2004G12c C02A37040   6.473  11.065   9.276 -0.0295  1.1114 -0.9892
  2004G12c H01137041   6.550  11.075   9.351 -2.0628  4.7768  0.7151
  2004G12c C00C37042   6.730  11.445   9.436 -0.6261  1.3308  0.2928
  2004G12c H01237043   6.672  11.414   9.350 -0.5592  2.7545 -0.2935
  2004G12c C00B37044   6.867  11.436   9.473  0.5413  0.0302 -0.1704
  2004G12c C00A37045   6.971  11.353   9.414  1.3232 -0.0104 -1.0943
  2004G12c C00937046   6.954  11.209   9.374  0.9709 -1.0886 -0.1654
  2004G12c C00837047   6.832  11.127   9.368  1.0375 -0.5073  0.0541
  2004G12c H01337048   6.740  11.182   9.374  5.9286  8.3229  2.5857
  2004G12c C00737049   6.859  10.987   9.390 -0.1572  0.2001 -0.6056
  2004G12c H01437050   6.779  10.916   9.405 -1.2689  1.5562 -0.0072
  2004G12c C00637051   6.994  10.939   9.427  1.1337 -1.2362  0.9220
  2004G12c C00537052   7.091  11.028   9.445  0.7446 -0.4354 -0.1474
  2004G12c C00437053   7.219  10.983   9.483  1.1778  1.6396 -1.2113
  2004G12c C00337054   7.324  11.083   9.521  0.6991  1.3252  1.5941
  2004G12c C00237055   7.443  11.031   9.593 -2.1033 -1.0879  0.5663
  2004G12c C00137056   7.550  11.101   9.665 -0.3041 -0.8020 -0.2946
  2004G12c C00M37057   7.513  11.214   9.763 -0.4478 -0.1993  0.8186
  2004G12c C00L37058   7.423  11.321   9.726  1.3275 -0.5737 -0.3157
  2004G12c C00R37059   7.406  11.438   9.800  0.2980 -1.1303 -0.4712
  2004G12c C00Q37060   7.436  11.472   9.936  0.1395 -0.3415 -0.5369
  2004G12c C00V37061   7.375  11.596   9.982 -0.0285  1.5167  1.6021
  2004G12c C00U37062   7.257  11.645   9.913 -1.1770 -0.5121  0.1000
  2004G12c C00T37063   7.208  11.579   9.809 -1.0397  0.8966  0.9550
  2004G12c C01637064   7.087  11.588   9.750  0.6043 -0.8856  1.1556
  2004G12c C01537065   7.003  11.679   9.808  0.9228  2.1453 -1.6608
  2004G12c C01037066   7.044  11.745   9.936 -1.0060  0.9050 -0.6115
  2004G12c C01137067   6.949  11.816  10.014  0.6650  0.6278 -1.0446
  2004G12c H00537068   6.975  11.867  10.106 -4.6414  0.5275  0.6850
  2004G12c C01237069   6.823  11.820   9.967  0.4697 -1.6315 -0.7003
  2004G12c C01737070   6.722  11.897  10.017  0.0928 -0.6007  0.0753
  2004G12c O00237071   6.785  12.012  10.079  2.0709 -0.2079  0.6844
  2004G12c H00437072   6.846  12.058  10.024  3.6609 -2.2974  0.6170
  2004G12c C01837073   6.599  11.854  10.036 -0.1752 -1.1153  1.7901
  2004G12c O00137074   6.546  11.723  10.021  0.7431  0.1191 -0.6502
  2004G12c H00337075   6.459  11.742  10.054 -0.3663 -4.1715 -0.7873
  2004G12c C01937076   6.490  11.940  10.090  0.3362 -0.8143  1.1965
  2004G12c H00237077   6.512  12.047  10.092  4.0130 -1.4491 -0.3049
  2004G12c H00137078   6.420  11.922  10.008  2.4167  2.5336 -1.4841
  2004G12c O00037079   6.442  11.902  10.215  0.3907  0.0233  0.1487
  2004G12c C01A37080   6.424  12.009  10.294  0.0109 -2.0192 -1.0779
  2004G12c C02K37081   6.325  12.112  10.291  1.0997  0.8716 -0.5862
  2004G12c O00G37082   6.251  12.124  10.187 -0.4504  0.6149  0.7508
  2004G12c C02M37083   6.117  12.134  10.204 -0.6781 -0.3713 -0.5565
  2004G12c H01G37084   6.060  12.057  10.150 -2.3115 -2.3526  3.7316
  2004G12c H01F37085   6.087  12.234  10.174  1.7818 -0.0392 -1.9809
  2004G12c H01E37086   6.086  12.139  10.309 -3.4524  4.0263 -1.4661
  2004G12c C02J37087   6.354  12.222  10.379  0.2744 -0.7152 -0.8551
  2004G12c H01H37088   6.296  12.313  10.385 -1.5701 -1.9587  1.1768
  2004G12c C02I37089   6.451  12.226  10.486  1.1253  0.7512  0.1925
  2004G12c C02N37090   6.482  12.329  10.584 -1.3618 -0.0432  1.2335
  2004G12c H01M37091   6.587  12.351  10.598 -1.0385  4.0455 -5.3532
  2004G12c C02O37092   6.396  12.329  10.680  0.7761  0.6287  0.1465
  2004G12c H01L37093   6.300  12.288  10.653 -0.3884  1.9211  2.1541
  2004G12c C02P37094   6.436  12.336  10.830  1.9963  1.0531 -0.3057
  2004G12c H01K37095   6.437  12.245  10.890 -0.8222  0.5708 -0.9318
  2004G12c H01J37096   6.544  12.353  10.825  1.5799  4.3989  0.4482
  2004G12c O00H37097   6.363  12.449  10.874  0.4622  0.3451 -1.3460
  2004G12c H01I37098   6.385  12.524  10.821  0.3409 -0.1718 -2.1367
  2004G12c C02H37099   6.532  12.109  10.485 -0.0128 -1.7205  0.9169
  2004G12c H01C37100   6.613  12.121  10.555  2.5077  1.0867 -2.2964
  2004G12c C02L37101   6.519  12.009  10.403  0.6694 -2.2675 -0.7166
  2004G12c H01D37102   6.589  11.927  10.391  2.7302 -0.9057  1.6004
  2004G12c C01337103   6.777  11.760   9.853 -1.5162 -1.0213 -0.4557
  2004G12c H00037104   6.680  11.796   9.820  0.8085  1.0831 -5.3589
  2004G12c C01437105   6.869  11.667   9.765 -1.4949 -0.9120 -2.2858
  2004G12c C00F37106   6.824  11.579   9.665 -2.0767 -1.1194  1.3778
  2004G12c C00H37107   7.054  11.513   9.637  1.0263 -0.9458 -0.7871
  2004G12c C00I37108   7.155  11.463   9.549  0.8030  0.0944 -1.3456
  2004G12c C00J37109   7.277  11.449   9.618 -0.3586 -0.6243 -0.3631
  2004G12c C00Z37110   7.173  11.721   9.991  0.2689  0.9014 -0.7242
  2004G12c C00Y37111   7.217  11.785  10.105 -0.7887  0.8908  0.0008
  2004G12c H00637112   7.161  11.860  10.159 -4.2323 -4.0751  3.7443
  2004G12c C00X37113   7.359  11.768  10.150 -0.1609  0.3825  1.1733
  2004G12c O00337114   7.424  11.828  10.249  0.8890 -0.8264  0.1266
  2004G12c C01B37115   7.410  11.964  10.298  0.1170  0.0014 -1.0260
  2004G12c H00937116   7.407  11.961  10.407 -1.9150  0.5254 -1.0461
  2004G12c H00837117   7.312  12.006  10.278 -0.9885 -4.0765 -5.1112
  2004G12c H00737118   7.487  12.019  10.244  1.3939  4.3620  4.7050
  2004G12c C00W37119   7.421  11.644  10.106  0.5014  0.1482 -1.3468
  2004G12c O00437120   7.522  11.601  10.182 -0.8761 -0.6722  1.1003
  2004G12c C01C37121   7.570  11.476  10.143 -1.5758 -0.1535 -0.6928
  2004G12c H00A37122   7.676  11.481  10.167 -1.4035  1.8838 -1.7530
  2004G12c C00P37123   7.522  11.404  10.029  1.0878 -1.3114  0.1554
  2004G12c C00O37124   7.559  11.269  10.023 -1.2070  0.1637  0.3921
  2004G12c C01D37125   7.581  11.186  10.142 -0.6119 -1.0654  0.1434
  2004G12c H00S37126   7.573  11.226  10.242  5.3898  1.3361 -0.1457
  2004G12c C01E37127   7.612  11.048  10.137 -1.4564 -0.3044 -1.6713
  2004G12c O00837128   7.686  10.989  10.232  0.0002 -0.4986 -1.1016
  2004G12c C01V37129   7.634  10.996  10.367  0.9139 -0.7775  0.2499
  2004G12c C01Z37130   7.714  10.980  10.490  0.4786  0.5487 -0.4561
  2004G12c H00R37131   7.650  10.995  10.577 -5.8182 -0.7127 -4.5453
  2004G12c H00Q37132   7.769  10.887  10.497 -0.9560 -0.1125  3.3350
  2004G12c O00937133   7.776  11.104  10.498 -0.8718 -0.7489  1.0967
  2004G12c H00P37134   7.837  11.108  10.426 -2.7164 -6.0313 -1.0630
  2004G12c C01W37135   7.491  11.024  10.388  2.4831  1.1390 -0.9624
  2004G12c H00O37136   7.438  11.006  10.296  0.5786  3.1805 -0.3013
  2004G12c C01X37137   7.404  11.019  10.513 -0.7493  1.2387 -0.4244
  2004G12c H00N37138   7.446  11.106  10.565 -0.9807  1.1253 -0.0476
  2004G12c H00M37139   7.302  11.057  10.505 -2.6847 -4.0588 -2.6930
  2004G12c C01Y37140   7.410  10.901  10.607 -0.1729  0.6670  0.2389
  2004G12c C02D37141   7.373  10.925  10.751 -0.3151 -0.5118 -0.2630
  2004G12c H01937142   7.331  11.018  10.784  3.6847 -0.4220  5.3129
  2004G12c C02C37143   7.401  10.817  10.848  0.9541  0.1907 -1.5018
  2004G12c H01A37144   7.365  10.851  10.944  2.0101 -4.7665  0.7909
  2004G12c C02B37145   7.442  10.690  10.807 -0.4289  0.3868 -1.5279
  2004G12c O00E37146   7.481  10.596  10.892 -0.4020  1.0659  0.2701
  2004G12c H01B37147   7.570  10.576  10.916 -0.2613  0.2884 -0.8572
  2004G12c C02F37148   7.472  10.662  10.677  0.4167  0.3227  0.6300
  2004G12c O00F37149   7.544  10.539  10.643  0.7416 -1.3909 -0.5198
  2004G12c C02G37150   7.579  10.507  10.513  0.3393 -0.3211  0.9829
  2004G12c H01737151   7.601  10.401  10.522  1.8538 -0.7351 -5.3275
  2004G12c H01637152   7.678  10.551  10.496 -1.1228  1.4174 -3.5372
  2004G12c H01537153   7.480  10.517  10.470  4.4236 -0.7684 -9.8932
  2004G12c C02E37154   7.448  10.763  10.578  1.0458  1.7096  0.3082
  2004G12c H01837155   7.496  10.734  10.486  3.1541  3.3257  0.8644
  2004G12c C01F37156   7.583  10.981  10.017  0.4209 -0.9205  2.0480
  2004G12c C01G37157   7.534  10.843  10.007  0.4953 -0.0298  0.9208
  2004G12c H00L37158   7.535  10.770  10.087  2.7589  1.7199  2.5584
  2004G12c C01H37159   7.501  10.796   9.878 -0.4330 -0.1980 -2.5535
  2004G12c H00B37160   7.447  10.712   9.836  3.6517 -2.6003 -3.2987
  2004G12c C01I37161   7.501  10.892   9.761  1.6679 -0.8544 -0.3902
  2004G12c C01U37162   7.590  11.061   9.889  0.8564  1.9337  0.7825
  2004G12c C00S37163   7.293  11.503   9.746  0.8301 -0.2977 -0.2956
  2004G12c C00K37164   7.347  11.329   9.610 -1.2711  0.9929  1.6952
  2004G12c C00N37165   7.551  11.187   9.895 -0.8021 -0.0234 -1.7795
  2004G12c C00037166   7.584  11.007   9.770 -0.4808  0.5892 -0.9824
  2004G12c C01J37167   7.455  10.887   9.625 -0.0272 -1.4838  0.1064
  2004G12c C01K37168   7.369  10.798   9.559  0.5631  0.7295  0.2143
  2004G12c C01P37169   7.378  10.652   9.550 -1.1988  0.5128 -0.1242
  2004G12c C01Q37170   7.506  10.604   9.562 -0.9328 -0.8870 -0.2343
  2004G12c H00G37171   7.588  10.614   9.492 -3.8861  0.8779 -3.5930
  2004G12c C01R37172   7.518  10.528   9.660  0.5164  1.1775  0.3339
  2004G12c H00F37173   7.442  10.488   9.726 -3.5355  2.8675 -3.0869
  2004G12c C01S37174   7.618  10.436   9.715  1.0651  1.6524 -1.2571
  2004G12c H00E37175   7.616  10.471   9.818  2.8860  1.4568 -1.1339
  2004G12c H00D37176   7.637  10.328   9.712  4.6168  2.1419  0.4668
  2004G12c O00537177   7.732  10.509   9.691 -0.4415 -0.6777 -0.0368
  2004G12c H00C37178   7.793  10.473   9.628  2.1171  2.2704  0.6481
  2004G12c C01O37179   7.302  10.575   9.458  0.4795  0.1021  1.4264
  2004G12c H00H37180   7.348  10.482   9.427 -0.2933  0.4004 -0.6752
  2004G12c C01N37181   7.188  10.634   9.405  0.3703 -2.3073 -0.3375
  2004G12c O00637182   7.107  10.590   9.317  0.2978  0.2188 -0.4342
  2004G12c C01T37183   7.142  10.473   9.270  0.6343 -0.8466 -0.2828
  2004G12c H00K37184   7.060  10.450   9.201  1.1723  6.1928 -3.7589
  2004G12c H00J37185   7.150  10.388   9.338 -2.3207  1.6985  3.4714
  2004G12c H00I37186   7.232  10.472   9.208  1.9470  6.9847  1.0626
  2004G12c C01M37187   7.155  10.759   9.449 -1.4334  0.0973 -1.2518
  2004G12c C02037188   7.287  11.223   9.520 -1.1305 -0.9891 -1.2542
  2004G12c C02137189   7.186  11.255   9.438 -1.2461 -0.3210  0.6586
  2004G12c C01L37190   7.248  10.853   9.502 -1.9701 -1.0256 -1.4726
  2004G12c O00737191   7.038  10.802   9.411  1.5200  0.2243 -1.3861
  2004G12c C02237192   7.080  11.169   9.410  0.8104  0.4355 -0.2024
  2004G12c C02337193   7.103  11.368   9.452 -0.5445  0.8456  0.5296
  2004G12c C00G37194   6.914  11.501   9.590 -0.8872 -0.7500  0.1142
  2004G12c C00E37195   6.683  11.587   9.624 -1.1562  0.0736  0.8307
  2004G12c O00A37196   6.595  11.665   9.672 -0.0921  0.3284  0.4094
  2004G12c C02437197   6.548  11.779   9.599  1.6761 -0.5725 -1.4072
  2004G12c H00V37198   6.492  11.777   9.506 -2.8156 -0.6651  1.1802
  2004G12c H00U37199   6.639  11.837   9.582 -0.2502  3.1568  0.5031
  2004G12c H00T37200   6.497  11.863   9.646  0.7696  0.4191 -4.1127
  2014G12c C00D37201   2.558   2.518   0.900  0.2734  0.9381  0.5834
  2014G12c O00B37202   2.450   2.605   0.868  0.5955 -0.3099  0.1474
  2014G12c C02537203   2.427   2.675   0.741  0.0541 -0.2339  0.1612
  2014G12c C02637204   2.276   2.653   0.683  0.7486 -1.1276  0.1862
  2014G12c H00Y37205   2.206   2.672   0.765  0.4848 -3.5501  0.5471
  2014G12c H00X37206   2.220   2.576   0.630 -1.4299 -2.4905  4.1821
  2014G12c O00C37207   2.219   2.762   0.604 -0.7020 -0.4588  1.1158
  2014G12c H00W37208   2.260   2.768   0.520 -2.0052  2.3340  0.6169
  2014G12c C02737209   2.518   2.754   0.695 -0.9666  0.2205  0.4102
  2014G12c O00D37210   2.623   2.807   0.776  0.1437 -0.5213  0.4111
  2014G12c H00Z37211   2.614   2.779   0.866  0.7323  1.8919  1.2422
  2014G12c C02837212   2.509   2.778   0.552  0.2189  1.7171 -0.2130
  2014G12c C02937213   2.513   2.912   0.508  0.1885 -2.4513  0.8993
  2014G12c H01037214   2.529   2.989   0.583 -1.9312 -1.9695  0.8902
  2014G12c C02T37215   2.490   2.952   0.366  1.0563 -0.4214 -0.4902
  2014G12c H01O37216   2.498   3.059   0.359  1.1071  0.4075  7.7092
  2014G12c C02S37217   2.496   2.850   0.275  0.6035  0.4976 -0.0965
  2014G12c O00J37218   2.454   2.889   0.139  1.0554 -0.4488 -1.0382
  2014G12c H01P37219   2.427   2.814   0.088  3.5387 -3.7465  2.2056
  2014G12c C02R37220   2.504   2.706   0.309  0.3275  0.8005  0.9627
  2014G12c O00I37221   2.463   2.608   0.217 -1.5180 -0.6854 -0.6751
  2014G12c C02Q37222   2.356   2.529   0.247  1.4637 -2.3667  1.0934
  2014G12c H01N37223   2.282   2.553   0.323  2.9673  0.3924  1.7693
  2014G12c H01R37224   2.274   2.525   0.176 -0.5062  2.8401  2.8147
  2014G12c H01Q37225   2.390   2.426   0.257  0.9730 -2.9245 -2.5919
  2014G12c C02A37226   2.480   2.686   0.452  0.5895 -1.7698 -1.9375
  2014G12c H01137227   2.443   2.590   0.484  1.2226 -3.2364 -5.3320
  2014G12c C00C37228   2.653   2.468   0.806 -1.4456  1.2878 -0.6628
  2014G12c H01237229   2.645   2.483   0.700  1.6493 -3.4766 -1.6878
  2014G12c C00B37230   2.761   2.371   0.838  0.4917  1.0444  0.1563
  2014G12c C00A37231   2.850   2.301   0.734  0.6202  1.6702  0.3198
  2014G12c C00937232   2.808   2.255   0.598  0.4462  0.8594 -1.1564
  2014G12c C00837233   2.693   2.284   0.517 -0.9711  0.1064  0.5399
  2014G12c H01337234   2.654   2.379   0.549  5.2095  5.5711 -6.2383
  2014G12c C00737235   2.643   2.199   0.411 -0.9333  0.1168  1.0946
  2014G12c H01437236   2.552   2.212   0.355 -1.5031  1.5889  2.3194
  2014G12c C00637237   2.715   2.075   0.404 -0.9552 -0.3229  0.6867
  2014G12c C00537238   2.835   2.048   0.488 -0.0702 -0.3657  0.6042
  2014G12c C00437239   2.899   1.919   0.493 -1.0429  0.6750 -1.3471
  2014G12c C00337240   3.001   1.911   0.592  0.6100  0.0414 -2.0939
  2014G12c C00237241   3.058   1.789   0.597  0.2687 -0.2515  0.1934
  2014G12c C00137242   3.158   1.727   0.684 -0.4060  0.4645  0.6836
  2014G12c C00M37243   3.151   1.735   0.821 -0.4116  0.9883  0.7478
  2014G12c C00L37244   3.147   1.852   0.894  0.1049  0.3267 -1.0775
  2014G12c C00R37245   3.084   1.863   1.036  0.5124 -1.0911 -0.2090
  2014G12c C00Q37246   3.064   1.778   1.145 -0.6112 -1.0338 -0.3532
  2014G12c C00V37247   2.994   1.834   1.251  0.9862  2.5232 -0.7330
  2014G12c C00U37248   2.937   1.963   1.248 -1.7426 -0.7114 -0.3459
  2014G12c C00T37249   2.950   2.058   1.145 -0.8864 -1.6032  1.6262
  2014G12c C01637250   2.881   2.166   1.123 -1.3046  0.2354 -0.7211
  2014G12c C01537251   2.796   2.202   1.217  1.0829 -0.5927 -0.4113
  2014G12c C01037252   2.804   2.147   1.342 -1.1931  1.3613 -1.0919
  2014G12c C01137253   2.753   2.228   1.456  1.9921 -0.5013  0.4785
  2014G12c H00537254   2.800   2.201   1.550  5.2801 -9.7789 -3.2979
  2014G12c C01237255   2.710   2.362   1.450  0.6050  0.5429 -0.0748
  2014G12c C01737256   2.683   2.455   1.564 -0.3413  0.4437 -0.2128
  2014G12c O00237257   2.628   2.583   1.528 -0.8082  1.2719 -0.0494
  2014G12c H00437258   2.559   2.555   1.469 -3.6757  1.7288  2.8973
  2014G12c C01837259   2.685   2.425   1.692  0.8746  0.8660  0.7413
  2014G12c O00137260   2.732   2.308   1.756 -0.1750 -0.8879 -0.6529
  2014G12c H00337261   2.646   2.269   1.753 -0.5045 -0.4484  2.1167
  2014G12c C01937262   2.624   2.510   1.810 -0.0150  0.2567  0.0261
  2014G12c H00237263   2.646   2.497   1.916  4.3534  1.1936 -0.6653
  2014G12c H00137264   2.661   2.612   1.818  2.6330 -0.7157  0.8083
  2014G12c O00037265   2.496   2.564   1.774  0.3031  1.9621  0.3461
  2014G12c C01A37266   2.395   2.491   1.834 -0.4836 -0.3275 -1.3381
  2014G12c C02K37267   2.316   2.404   1.764  2.2878  0.5075  0.3709
  2014G12c O00G37268   2.358   2.359   1.638  0.6642 -0.2020  0.3448
  2014G12c C02M37269   2.295   2.340   1.520  1.0749 -0.4287  0.1119
  2014G12c H01G37270   2.383   2.287   1.483  0.6295 -3.3238  2.9425
  2014G12c H01F37271   2.255   2.433   1.480 -5.4104  0.2759  7.1223
  2014G12c H01E37272   2.199   2.290   1.522  1.3228 -1.2087 -3.6828
  2014G12c C02J37273   2.201   2.343   1.832 -1.5034 -2.0366 -1.1792
  2014G12c H01H37274   2.141   2.271   1.780  1.3820 -5.5116  0.0852
  2014G12c C02I37275   2.180   2.354   1.978  1.1692 -1.7947  0.8933
  2014G12c C02N37276   2.090   2.288   2.063  0.4648  0.2546 -0.3393
  2014G12c H01M37277   2.123   2.203   2.120  2.8207 -0.6894 -2.9956
  2014G12c C02O37278   1.968   2.335   2.110  0.3798 -0.3009 -0.2356
  2014G12c H01L37279   1.937   2.305   2.209 -0.4377  3.4947  0.7424
  2014G12c C02P37280   1.907   2.436   2.036  0.0607  0.7813 -0.4492
  2014G12c H01K37281   1.810   2.403   1.998 -2.3625  4.9546  1.6225
  2014G12c H01J37282   1.891   2.514   2.111  6.6295  2.3189 -0.3173
  2014G12c O00H37283   1.966   2.498   1.932  0.5870  1.5201  0.1996
  2014G12c H01I37284   2.040   2.445   1.907 -0.5827 -0.5190  0.9749
  2014G12c C02H37285   2.269   2.442   2.055  0.2721  0.8201 -1.7807
  2014G12c H01C37286   2.275   2.423   2.161  0.5074  1.7830 -1.6131
  2014G12c C02L37287   2.366   2.504   1.982 -1.2981 -0.4647  0.8096
  2014G12c H01D37288   2.413   2.595   2.018  4.4411 -3.7252  2.1734
  2014G12c C01337289   2.687   2.393   1.311  0.9796 -0.3415 -0.3667
  2014G12c H00037290   2.686   2.500   1.297 -3.7256 -0.5104 -2.3449
  2014G12c C01437291   2.712   2.312   1.191  0.1119  0.3877  1.0748
  2014G12c C00F37292   2.697   2.352   1.060  0.7074  0.2695 -0.4874
  2014G12c C00H37293   2.882   2.228   0.998  1.7652 -1.3668 -1.7899
  2014G12c C00I37294   2.984   2.192   0.901 -0.4771  0.7738  1.4267
  2014G12c C00J37295   3.068   2.084   0.939  0.6332  0.5458 -0.8284
  2014G12c C00Z37296   2.896   2.029   1.368  1.3787  2.8588 -0.9609
  2014G12c C00Y37297   2.899   1.960   1.486  1.0715 -1.0527  0.2639
  2014G12c H00637298   2.819   1.993   1.551 -2.3624  0.4471 -4.4261
  2014G12c C00X37299   2.919   1.824   1.487  0.9691 -0.4734  0.0631
  2014G12c O00337300   2.856   1.759   1.592  1.0084  2.0717 -1.6322
  2014G12c C01B37301   2.935   1.654   1.647 -0.6375 -0.5870  1.5585
  2014G12c H00937302   2.913   1.597   1.738 -7.4248 -1.0003 -0.0700
  2014G12c H00837303   3.013   1.720   1.687 -1.4697 -0.5343  3.1389
  2014G12c H00737304   3.010   1.606   1.585 -0.5276  1.1106  0.3247
  2014G12c C00W37305   2.963   1.755   1.369  0.6508  0.5866 -0.8210
  2014G12c O00437306   3.015   1.624   1.367  0.2005  0.7723 -1.4838
  2014G12c C01C37307   3.018   1.560   1.240 -0.3574 -1.2531 -0.3730
  2014G12c H00A37308   2.935   1.496   1.212  2.0615 -4.8999  0.4134
  2014G12c C00P37309   3.075   1.636   1.132 -0.6743  1.0309 -0.0354
  2014G12c C00O37310   3.109   1.562   1.009  0.3924  1.1641  1.4948
  2014G12c C01D37311   3.110   1.417   1.010  0.5918 -0.5152  0.4840
  2014G12c H00S37312   3.109   1.362   1.103 -3.5565 -2.3647 -0.5289
  2014G12c C01E37313   3.117   1.337   0.882  0.4979 -0.7369 -0.4468
  2014G12c O00837314   3.122   1.202   0.898  1.2714 -0.6310  0.3806
  2014G12c C01V37315   3.228   1.119   0.865  1.4252  1.7893  2.1207
  2014G12c C01Z37316   3.163   0.976   0.865 -0.2182 -0.3284  1.4161
  2014G12c H00R37317   3.055   0.987   0.849  0.4941 -0.7320 -4.9731
  2014G12c H00Q37318   3.212   0.934   0.777 -3.6753  4.9060 -3.4037
  2014G12c O00937319   3.191   0.894   0.981 -1.8728  0.9173 -1.1890
  2014G12c H00P37320   3.280   0.869   1.002 -0.6242  2.2549 -4.6485
  2014G12c C01W37321   3.347   1.150   0.829  1.6430 -1.2657 -0.6594
  2014G12c H00O37322   3.353   1.256   0.851 -5.7354  1.1607 -7.8825
  2014G12c C01X37323   3.468   1.069   0.780 -1.1435  0.6181 -0.1708
  2014G12c H00N37324   3.473   1.025   0.880 -4.8926  0.3192 -0.0464
  2014G12c H00M37325   3.438   0.993   0.708  0.2076 -3.0960  3.0279
  2014G12c C01Y37326   3.571   1.141   0.705 -0.4741 -0.3416  0.3443
  2014G12c C02D37327   3.551   1.144   0.567 -1.0367 -1.0304  0.5355
  2014G12c H01937328   3.453   1.110   0.537 -1.5351  1.4899 -0.8304
  2014G12c C02C37329   3.644   1.216   0.489  1.6379 -0.6395  0.8135
  2014G12c H01A37330   3.618   1.223   0.384  1.5870  4.7653  1.0626
  2014G12c C02B37331   3.750   1.279   0.544  0.0343  0.1952  0.6022
  2014G12c O00E37332   3.845   1.330   0.460 -0.2629  0.6201 -0.2636
  2014G12c H01B37333   3.905   1.320   0.533 -2.0967 -3.8913  0.7931
  2014G12c C02F37334   3.796   1.246   0.674 -0.7574  0.7738  0.3135
  2014G12c O00F37335   3.930   1.274   0.697 -1.3384  0.7315  1.2625
  2014G12c C02G37336   3.962   1.396   0.783 -0.0986 -0.3266 -2.1466
  2014G12c H01737337   3.904   1.473   0.732 -2.1373 -0.4731 -0.1058
  2014G12c H01637338   4.070   1.407   0.791 -0.3449  0.4198  0.8307
  2014G12c H01537339   3.901   1.378   0.872 -1.9836 -3.0961 -3.9368
  2014G12c C02E37340   3.690   1.193   0.760 -0.4237 -1.3473  1.0504
  2014G12c H01837341   3.716   1.161   0.860  0.4983  2.3453  2.0644
  2014G12c C01F37342   3.102   1.399   0.760 -0.4581 -2.7848  0.2451
  2014G12c C01G37343   3.070   1.354   0.634  0.2001  0.6389 -0.8356
  2014G12c H00L37344   3.029   1.258   0.604 -0.9866 -0.4411  3.8868
  2014G12c C01H37345   3.071   1.438   0.515  0.2533  0.1329  0.0009
  2014G12c H00B37346   2.998   1.409   0.441 -0.7578  4.4486 -0.8515
  2014G12c C01I37347   3.096   1.567   0.536  1.3921  0.2129 -1.2930
  2014G12c C01U37348   3.171   1.528   0.749  1.6020  0.5066 -0.6152
  2014G12c C00S37349   3.025   2.005   1.043 -1.4835  1.4757  0.4556
  2014G12c C00K37350   3.096   1.979   0.834 -0.1270  1.3942  0.0109
  2014G12c C00N37351   3.152   1.605   0.873 -0.9208  0.3342 -0.4798
  2014G12c C00037352   3.184   1.600   0.636 -0.3851 -0.2432  0.8900
  2014G12c C01J37353   3.013   1.685   0.509  0.1876 -1.4446 -1.3352
  2014G12c C01K37354   2.924   1.702   0.400  2.0723  0.6108  0.2617
  2014G12c C01P37355   2.922   1.621   0.288  2.6169 -1.2917 -0.0191
  2014G12c C01Q37356   3.024   1.532   0.238 -1.5138  0.7948  1.6869
  2014G12c H00G37357   3.038   1.425   0.243  7.2130  1.2848 -2.6106
  2014G12c C01R37358   3.103   1.577   0.130  0.1468 -0.5271  0.7231
  2014G12c H00F37359   3.081   1.682   0.123  5.8315  0.7224 -0.5790
  2014G12c C01S37360   3.137   1.486   0.016  0.1185  0.4578  0.1480
  2014G12c H00E37361   3.241   1.520   0.008  0.1421  0.3763  0.1040
  2014G12c H00D37362   3.149   1.378   0.029  2.5160  1.0461  3.4771
  2014G12c O00537363   3.088   1.535  -0.102  0.3884 -0.8332  0.1021
  2014G12c H00C37364   3.110   1.627  -0.097 -4.7107  0.4045  2.3511
  2014G12c C01O37365   2.817   1.634   0.191 -1.9467  0.7157  0.6373
  2014G12c H00H37366   2.800   1.566   0.109  4.5933 -2.3454  1.4793
  2014G12c C01N37367   2.742   1.764   0.202  0.5802  0.7382  0.0726
  2014G12c O00637368   2.611   1.750   0.137 -0.0309 -0.3878  0.0370
  2014G12c C01T37369   2.599   1.748  -0.007 -2.3221 -0.8588  0.0777
  2014G12c H00K37370   2.524   1.816  -0.047  1.0158  4.5756  2.5088
  2014G12c H00J37371   2.579   1.641  -0.007  0.5904 -1.4889  2.8311
  2014G12c H00I37372   2.692   1.767  -0.060 -1.4110 -6.3294 -0.6024
  2014G12c C01M37373   2.771   1.866   0.302  0.1195  0.9186  1.5911
  2014G12c C02037374   3.043   2.002   0.701  0.3429 -0.7746 -0.6004
  2014G12c C02137375   2.969   2.118   0.674 -0.0302  0.3704  0.7405
  2014G12c C01L37376   2.863   1.825   0.401 -1.6087  0.0652 -1.0839
  2014G12c O00737377   2.716   1.996   0.287  0.1847  1.8342  0.0440
  2014G12c C02237378   2.889   2.143   0.573  0.2462 -1.1671  0.2929
  2014G12c C02337379   2.955   2.221   0.771  1.0522 -0.5693  0.1000
  2014G12c C00G37380   2.789   2.323   0.967  1.6795  1.2454  0.9459
  2014G12c C00E37381   2.595   2.457   1.029 -1.3886  1.4557  0.0606
  2014G12c O00A37382   2.492   2.497   1.115 -0.4647  0.6347  1.0568
  2014G12c C02437383   2.363   2.420   1.143 -0.5226  0.8562 -0.0808
  2014G12c H00V37384   2.296   2.460   1.219 -2.8873 -2.9695 -0.0037
  2014G12c H00U37385   2.400   2.324   1.179 -0.7960  0.2658 -1.3402
  2014G12c H00T37386   2.311   2.438   1.049  4.1571  0.8457 -2.8132
  2024G12c C00D37387   1.541  11.858   0.283 -1.3445 -0.2343 -0.1653
  2024G12c O00B37388   1.629  11.765   0.309  0.0432 -1.2622  0.0501
  2024G12c C02537389   1.759  11.759   0.257 -1.5003  1.6989 -0.7597
  2024G12c C02637390   1.856  11.806   0.372  0.2205 -0.6335 -0.4025
  2024G12c H00Y37391   1.962  11.819   0.349 -0.2430 -0.3149 -2.4436
  2024G12c H00X37392   1.854  11.746   0.462  1.2737 -1.7275 -1.1021
  2024G12c O00C37393   1.846  11.937   0.423 -0.1221 -2.3022  0.2482
  2024G12c H00W37394   1.878  11.991   0.352 -0.3062  4.8106  5.1116
  2024G12c C02737395   1.806  11.700   0.140 -0.1286 -0.0134 -0.4019
  2024G12c O00D37396   1.707  11.719   0.038 -0.2863  0.7539 -0.2848
  2024G12c H00Z37397   1.624  11.675   0.024  0.4658 -0.0736 -2.2920
  2024G12c C02837398   1.941  11.748   0.092  1.1354  0.2375  0.4316
  2024G12c C02937399   2.051  11.668   0.061  1.1925  0.4030 -0.4873
  2024G12c H01037400   2.033  11.567   0.095  0.3971  1.4223  2.2228
  2024G12c C02T37401   2.155  11.718  -0.026  0.6128  2.0775 -0.8784
  2024G12c H01O37402   2.221  11.639  -0.060 -1.1605  1.1332 -2.1597
  2024G12c C02S37403   2.154  11.847  -0.061 -0.6403  0.2895  0.3660
  2024G12c O00J37404   2.258  11.895  -0.150 -0.5293  0.3032 -0.7236
  2024G12c H01P37405   2.204  11.957  -0.197 -0.9181 -0.2056 -0.9510
  2024G12c C02R37406   2.046  11.927  -0.034  1.0262 -0.6169  1.9029
  2024G12c O00I37407   2.032  12.035  -0.102  0.7219  0.1524  0.3015
  2024G12c C02Q37408   1.976  12.160  -0.049  0.3400 -0.2903 -0.2074
  2024G12c H01N37409   1.886  12.219  -0.064 -0.0408 -1.6969 -3.9088
  2024G12c H01R37410   2.052  12.224  -0.093  1.7241 -4.1370 -3.6886
  2024G12c H01Q37411   2.020  12.153   0.051  0.2173  2.5437  0.0836
  2024G12c C02A37412   1.947  11.875   0.052  1.4107  0.6354 -1.8390
  2024G12c H01137413   1.860  11.939   0.048  3.9585  4.3648 -0.0968
  2024G12c C00C37414   1.570  11.960   0.190 -1.2251  1.0680  2.0451
  2024G12c H01237415   1.675  11.969   0.166 -0.7818 -3.2905  1.9949
  2024G12c C00B37416   1.486  12.060   0.166  1.5544  1.1853 -1.5457
  2024G12c C00A37417   1.516  12.195   0.127  1.1324 -0.2387 -1.3868
  2024G12c C00937418   1.628  12.291   0.124  0.4279  1.7279 -0.7046
  2024G12c C00837419   1.753  12.285   0.173 -1.1128  0.9521  1.6175
  2024G12c H01337420   1.771  12.184   0.206  3.6699  0.0906 -2.8127
  2024G12c C00737421   1.837  12.406   0.161 -2.7051  0.7198  0.4518
  2024G12c H01437422   1.943  12.414   0.178 -2.6868  4.1006 -0.8675
  2024G12c C00637423   1.778  12.538   0.139 -1.7195 -1.0300  0.4872
  2024G12c C00537424   1.651  12.523   0.100  1.6254 -0.9404 -1.4728
  2024G12c C00437425   1.565  12.633   0.074  0.0382 -0.4455  0.1616
  2024G12c C00337426   1.421  12.620   0.069 -1.2153  1.4957  0.3343
  2024G12c C00237427   1.356  12.739   0.058  0.8393  1.5835  1.8375
  2024G12c C00137428   1.206  12.768   0.039 -2.4214 -0.9408 -0.3442
  2024G12c C00M37429   1.090  12.701   0.104 -1.2568 -1.1574  1.6408
  2024G12c C00L37430   1.082  12.562   0.112  0.1772 -0.9384 -0.6495
  2024G12c C00R37431   0.998  12.478   0.199  1.7013 -2.4942 -0.8169
  2024G12c C00Q37432   0.927  12.512   0.314  1.9613 -1.3011  0.0463
  2024G12c C00V37433   0.880  12.402   0.378 -0.2564  0.8226  1.1369
  2024G12c C00U37434   0.949  12.278   0.383  2.9452  0.1863 -0.5698
  2024G12c C00T37435   1.053  12.249   0.287  0.6617  0.5267  0.4804
  2024G12c C01637436   1.152  12.158   0.297  2.2520  1.0599 -0.2223
  2024G12c C01537437   1.132  12.075   0.401  0.8990  1.2217 -0.7818
  2024G12c C01037438   1.039  12.089   0.504 -1.0531  2.3016  0.2169
  2024G12c C01137439   1.035  12.016   0.621  1.6920 -0.6128  0.7576
  2024G12c H00537440   0.967  12.059   0.694  2.8448  1.4140  0.6801
  2024G12c C01237441   1.099  11.911   0.612 -0.1292 -1.5689  0.0121
  2024G12c C01737442   1.093  11.826   0.726 -1.2494 -0.2677 -0.7131
  2024G12c O00237443   1.050  11.691   0.711  0.4059  1.0441 -1.0988
  2024G12c H00437444   0.974  11.687   0.766 -1.3494 -3.0222 -3.5580
  2024G12c C01837445   1.129  11.872   0.855  0.9843  0.7371 -0.7810
  2024G12c O00137446   1.177  12.002   0.882 -0.2353 -0.8558 -1.2569
  2024G12c H00337447   1.177  12.012   0.976  1.1105  1.5856 -1.4928
  2024G12c C01937448   1.113  11.789   0.996 -0.8160 -0.1986  0.0699
  2024G12c H00237449   1.016  11.739   0.984 -4.7090  7.7609 -6.7301
  2024G12c H00137450   1.176  11.701   0.989 -0.6254 -0.1585  1.2228
  2024G12c O00037451   1.086  11.887   1.096  0.1082  1.0112 -0.1635
  2024G12c C01A37452   1.146  11.858   1.220 -0.6534  1.4285 -1.1696
  2024G12c C02K37453   1.249  11.932   1.243 -1.2186 -0.2356  1.1061
  2024G12c O00G37454   1.286  12.041   1.158  0.5399  0.4843 -0.4927
  2024G12c C02M37455   1.305  12.154   1.229 -0.9561 -0.3808 -0.9778
  2024G12c H01G37456   1.340  12.240   1.171 -2.8773  2.4470  1.8317
  2024G12c H01F37457   1.323  12.137   1.335  3.6916 -0.7313 -1.7424
  2024G12c H01E37458   1.203  12.192   1.216 -1.0895 -1.0651 -1.9563
  2024G12c C02J37459   1.329  11.893   1.349  0.6251  0.9629 -0.4155
  2024G12c H01H37460   1.412  11.957   1.378 -1.8499  1.6917  5.8248
  2024G12c C02I37461   1.289  11.781   1.426  1.4662 -0.7655 -1.0330
  2024G12c C02N37462   1.351  11.734   1.559  0.0802 -0.1491  0.2355
  2024G12c H01M37463   1.442  11.676   1.558 -1.3267 -2.4475  1.5465
  2024G12c C02O37464   1.266  11.727   1.674 -0.6786 -0.3260 -0.1751
  2024G12c H01L37465   1.178  11.788   1.661  0.2384  0.9466 -0.4992
  2024G12c C02P37466   1.244  11.604   1.772 -0.2302  0.7021 -1.1619
  2024G12c H01K37467   1.327  11.544   1.736 -1.1919 -1.4658  0.1580
  2024G12c H01J37468   1.274  11.647   1.867  1.3229  2.6591 -2.4810
  2024G12c O00H37469   1.123  11.537   1.775 -0.6100 -0.4458 -0.0387
  2024G12c H01I37470   1.123  11.444   1.757  1.0848 -0.8758  2.1191
  2024G12c C02H37471   1.174  11.710   1.379  1.4316  1.1870 -0.3416
  2024G12c H01C37472   1.133  11.622   1.427 -1.7590  2.2945 -0.8998
  2024G12c C02L37473   1.090  11.755   1.283  0.5063  1.8827 -0.0706
  2024G12c H01D37474   0.993  11.721   1.251  0.6008  3.3715 -2.0418
  2024G12c C01337475   1.201  11.882   0.511  1.5691 -0.1082 -1.1813
  2024G12c H00037476   1.244  11.786   0.536  2.6060 -1.2293 -6.5227
  2024G12c C01437477   1.215  11.970   0.409  0.0257 -0.0653 -0.6849
  2024G12c C00F37478   1.326  11.956   0.334  0.9894  0.8758 -1.6981
  2024G12c C00H37479   1.257  12.144   0.209  0.9751  0.1212 -0.7841
  2024G12c C00I37480   1.268  12.240   0.111 -2.1017  1.6228  1.5604
  2024G12c C00J37481   1.160  12.335   0.095  0.2023  0.9215  1.1934
  2024G12c C00Z37482   0.936  12.189   0.491  1.1856  0.4870  1.1017
  2024G12c C00Y37483   0.812  12.193   0.548 -0.4914  0.3947 -1.0858
  2024G12c H00637484   0.779  12.113   0.612  2.8369  1.7218  2.5286
  2024G12c C00X37485   0.707  12.290   0.527 -0.4982  0.0443 -1.1279
  2024G12c O00337486   0.608  12.296   0.620 -1.1030 -0.1145 -0.6856
  2024G12c C01B37487   0.480  12.231   0.585  0.8137  0.1574 -2.1728
  2024G12c H00937488   0.444  12.236   0.483 -1.6404  1.4194 -1.2994
  2024G12c H00837489   0.413  12.287   0.651  0.4064 -1.4143 -1.2211
  2024G12c H00737490   0.485  12.123   0.601 -0.0731  0.3198 -0.6876
  2024G12c C00W37491   0.758  12.403   0.461  0.4724 -0.5487 -0.2849
  2024G12c O00437492   0.696  12.526   0.479 -1.5229  1.2937 -1.6238
  2024G12c C01C37493   0.792  12.625   0.486 -0.9924 -0.2425  0.7525
  2024G12c H00A37494   0.778  12.687   0.573  6.1957  0.5188  1.6736
  2024G12c C00P37495   0.902  12.634   0.384  1.0307 -0.0120 -0.1771
  2024G12c C00O37496   0.951  12.768   0.319  1.1844  2.0701 -0.0248
  2024G12c C01D37497   0.924  12.875   0.401 -0.1467  1.2644  0.2317
  2024G12c H00S37498   0.840  12.856   0.467  0.8368 -1.7302  0.7099
  2024G12c C01E37499   0.989  12.992   0.396 -1.4546  0.1814 -0.5292
  2024G12c O00837500   1.001  13.070   0.502 -1.4650  0.2488  0.8339
  2024G12c C01V37501   0.919  13.076   0.601  0.3517  0.1682  1.2781
  2024G12c C01Z37502   0.772  13.113   0.586  0.6282  0.4995 -2.3537
  2024G12c H00R37503   0.771  13.217   0.620  3.8597 -0.9460  2.8128
  2024G12c H00Q37504   0.731  13.113   0.485 -0.4506 -0.1038 -1.9189
  2024G12c O00937505   0.685  13.035   0.668 -0.5230 -0.0112 -1.9068
  2024G12c H00P37506   0.692  13.060   0.759  2.2276  0.6603 -2.2685
  2024G12c C01W37507   0.958  13.066   0.732  1.0998 -0.1952 -0.5101
  2024G12c H00O37508   0.895  13.089   0.816  2.7930  0.8516  0.5120
  2024G12c C01X37509   1.086  13.010   0.773 -0.3235  0.0597 -0.4368
  2024G12c H00N37510   1.163  12.974   0.705  0.3451 -4.6561  2.5704
  2024G12c H00M37511   1.114  13.081   0.850 -3.4946  3.6557 -2.4690
  2024G12c C01Y37512   1.071  12.862   0.840  1.8473  0.5368  1.4156
  2024G12c C02D37513   1.012  12.836   0.971  2.0548  0.8062  0.0161
  2024G12c H01937514   0.993  12.932   1.016  0.0851  3.4291 -5.9174
  2024G12c C02C37515   0.978  12.699   1.015 -0.0235 -0.0503  0.2931
  2024G12c H01A37516   0.919  12.674   1.102 -0.2232  1.0728  0.4866
  2024G12c C02B37517   1.014  12.594   0.944  1.6413  1.8783  1.2870
  2024G12c O00E37518   0.976  12.460   0.963 -1.9334  0.2669 -0.2128
  2024G12c H01B37519   1.006  12.418   0.884  1.3892 -6.2473  4.0869
  2024G12c C02F37520   1.048  12.624   0.804  0.5747  0.1890 -1.6315
  2024G12c O00F37521   1.050  12.513   0.712  0.3177  2.5671 -0.2196
  2024G12c C02G37522   1.164  12.483   0.619 -0.5405 -0.2937  0.8277
  2024G12c H01737523   1.226  12.565   0.583  2.5249 -4.2747 -3.4644
  2024G12c H01637524   1.132  12.409   0.547 -0.1107 -1.5385  1.8945
  2024G12c H01537525   1.222  12.455   0.708  1.4784 -1.8306 -0.9323
  2024G12c C02E37526   1.067  12.760   0.754 -0.2562  0.8914  0.1301
  2024G12c H01837527   1.081  12.783   0.649 -0.3513  0.2880 -0.0205
  2024G12c C01F37528   1.086  13.003   0.294 -0.1601 -0.9139 -1.3282
  2024G12c C01G37529   1.192  13.107   0.295 -0.2263  2.1957  0.8256
  2024G12c H00L37530   1.209  13.169   0.382  5.9916  3.5857 -1.0728
  2024G12c C01H37531   1.320  13.069   0.216 -1.9718 -0.0780 -1.4272
  2024G12c H00B37532   1.413  13.121   0.232 -4.1134  3.4111  0.2716
  2024G12c C01I37533   1.311  12.966   0.127 -0.4189  2.4173 -0.9440
  2024G12c C01U37534   1.099  12.907   0.188  1.6196  0.7935 -0.1531
  2024G12c C00S37535   1.057  12.353   0.186 -0.9377  0.2490  2.4846
  2024G12c C00K37536   1.198  12.480   0.072 -0.1354 -1.5227 -0.4754
  2024G12c C00N37537   1.032  12.782   0.201  0.3992  0.8117  1.9666
  2024G12c C00037538   1.189  12.906   0.093 -0.3719 -2.2248  0.5759
  2024G12c C01J37539   1.407  12.867   0.071 -1.2952  0.8391 -0.4052
  2024G12c C01K37540   1.551  12.880   0.072 -0.0573  0.7209 -0.4000
  2024G12c C01P37541   1.630  12.997   0.065  0.5546 -1.0041 -0.0035
  2024G12c C01Q37542   1.580  13.125  -0.000  0.2251 -0.3741 -0.3652
  2024G12c H00G37543   1.543  13.209   0.057 -3.8486 -0.9162 -2.0619
  2024G12c C01R37544   1.624  13.142  -0.132 -0.0976 -0.1964 -0.0508
  2024G12c H00F37545   1.692  13.067  -0.172  0.1517 -0.7428  1.3829
  2024G12c C01S37546   1.588  13.255  -0.226 -0.1215  1.5835  0.1119
  2024G12c H00E37547   1.670  13.264  -0.297  1.7930 -5.4525  1.0730
  2024G12c H00D37548   1.527  13.223  -0.311 -1.3879 -1.1650  1.9987
  2024G12c O00537549   1.595  13.378  -0.155 -0.0996 -0.8891 -0.5946
  2024G12c H00C37550   1.686  13.396  -0.175 -0.2142  2.6614  1.6863
  2024G12c C01O37551   1.738  13.004   0.148 -1.1346  1.9427  0.8735
  2024G12c H00H37552   1.779  13.096   0.188 -1.1718  1.9134  0.9796
  2024G12c C01N37553   1.823  12.895   0.163 -0.0294  2.3212 -0.5385
  2024G12c O00637554   1.960  12.887   0.185 -0.7037  0.4122  0.0551
  2024G12c C01T37555   2.000  12.850   0.312  0.3200 -1.7156 -0.9942
  2024G12c H00K37556   2.108  12.838   0.300  0.6697  1.8373 -1.6873
  2024G12c H00J37557   1.970  12.746   0.324  3.7068 -3.0912 -3.4468
  2024G12c H00I37558   1.978  12.908   0.401  3.5922 -1.5325 -0.2202
  2024G12c C01M37559   1.764  12.781   0.118  0.0151  2.6396 -0.1457
  2024G12c C02037560   1.340  12.498   0.045 -1.8541  0.9040 -0.1697
  2024G12c C02137561   1.439  12.398   0.021 -0.5453 -1.2466 -1.2351
  2024G12c C01L37562   1.625  12.757   0.073 -0.1375 -0.0634 -1.3944
  2024G12c O00737563   1.843  12.661   0.136 -0.1425 -0.1308 -0.3317
  2024G12c C02237564   1.577  12.410   0.065  0.8531  0.4264  0.2960
  2024G12c C02337565   1.401  12.260   0.067 -0.3213 -0.8762  0.1512
  2024G12c C00G37566   1.362  12.050   0.239 -1.2683  0.0200  1.6857
  2024G12c C00E37567   1.431  11.880   0.364 -1.2667 -0.9981  0.2159
  2024G12c O00A37568   1.434  11.773   0.470 -0.2681  0.1162 -0.6730
  2024G12c C02437569   1.498  11.801   0.593  0.5588 -0.0639 -1.2290
  2024G12c H00V37570   1.509  11.717   0.662  3.9596  2.4236  1.4177
  2024G12c H00U37571   1.590  11.851   0.565 -0.3902  3.0866  0.9085
  2024G12c H00T37572   1.451  11.891   0.634 -4.1481 -0.1464 -5.8198
  2034G12c C00D37573   0.052  10.514   0.118 -0.6153  3.3188 -1.0714
  2034G12c O00B37574  -0.052  10.440   0.145  0.8733 -0.0877 -0.6082
  2034G12c C02537575  -0.041  10.304   0.135  1.0597 -0.6375 -0.4996
  2034G12c C02637576  -0.070  10.211   0.012  0.7469  0.5496  1.0451
  2034G12c H00Y37577  -0.095  10.282  -0.067  1.4770  1.5031  1.6558
  2034G12c H00X37578  -0.164  10.168   0.046  2.6345 -1.3089  4.2023
  2034G12c O00C37579   0.048  10.140  -0.028 -0.3807  0.2381 -1.3039
  2034G12c H00W37580   0.029  10.057  -0.069  6.7890 -0.5716 -3.6954
  2034G12c C02737581  -0.032  10.249   0.272 -0.0154  0.1177  1.1541
  2034G12c O00D37582  -0.048  10.358   0.371 -0.1079 -0.8072 -0.8273
  2034G12c H00Z37583   0.030  10.401   0.338 -1.9803 -0.2327 -4.7748
  2034G12c C02837584  -0.032  10.108   0.296  0.6106 -1.3622 -1.1482
  2034G12c C02937585  -0.159  10.046   0.355  2.6534 -0.8144  0.3840
  2034G12c H01037586  -0.246  10.108   0.369  0.4634 -4.1929  2.3796
  2034G12c C02T37587  -0.175   9.921   0.328 -2.8690 -2.3054  0.2804
  2034G12c H01O37588  -0.273   9.875   0.336 -3.9929  0.1043  0.6004
  2034G12c C02S37589  -0.051   9.852   0.322  0.0227 -0.3255 -1.4331
  2034G12c O00J37590  -0.046   9.716   0.324 -0.0259 -0.9361 -0.1212
  2034G12c H01P37591   0.047   9.699   0.325 -0.6096 -4.6614 -1.0177
  2034G12c C02R37592   0.084   9.908   0.317  0.5324  1.9405  0.8237
  2034G12c O00I37593   0.180   9.812   0.325 -0.4969  0.9239 -0.5651
  2034G12c C02Q37594   0.262   9.768   0.222 -0.2544  0.6838  1.0494
  2034G12c H01N37595   0.187   9.781   0.144 -1.3547  1.1230  2.1513
  2034G12c H01R37596   0.293   9.669   0.253 -2.3702  1.4156  5.9207
  2034G12c H01Q37597   0.354   9.826   0.222 -0.6752  1.6809  6.8820
  2034G12c C02A37598   0.098  10.042   0.292 -0.1075 -0.0439  1.9578
  2034G12c H01137599   0.176  10.101   0.247 -5.7829  6.6583  0.0070
  2034G12c C00C37600   0.186  10.475   0.125  0.8654  0.4040 -1.0261
  2034G12c H01237601   0.218  10.372   0.129  0.4350  0.3077  0.1723
  2034G12c C00B37602   0.283  10.552   0.069 -0.1422  0.4511 -1.4561
  2034G12c C00A37603   0.412  10.501   0.027  1.6985 -0.3785  0.9689
  2034G12c C00937604   0.497  10.386   0.062  0.2905  0.4076  0.9480
  2034G12c C00837605   0.488  10.268   0.136  0.2751  0.0664 -0.4101
  2034G12c H01337606   0.393  10.217   0.146  1.4703 -1.2814  6.6306
  2034G12c C00737607   0.614  10.210   0.191 -0.0070 -0.3271 -0.0053
  2034G12c H01437608   0.615  10.118   0.246  0.3192 -1.2657 -1.5599
  2034G12c C00637609   0.727  10.278   0.161 -0.0049 -0.6460  0.6005
  2034G12c C00537610   0.731  10.398   0.097 -0.1057  1.5854 -1.0191
  2034G12c C00437611   0.848  10.484   0.091  1.3253  1.8153 -0.6203
  2034G12c C00337612   0.852  10.600   0.009 -0.6389  1.7713  0.3321
  2034G12c C00237613   0.973  10.677   0.011 -1.9521  1.3274 -0.3122
  2034G12c C00137614   1.013  10.800  -0.049 -0.2527 -0.8377 -0.8359
  2034G12c C00M37615   0.929  10.921  -0.041  0.9108  0.3442  0.4974
  2034G12c C00L37616   0.788  10.902  -0.033 -0.8677 -0.5501 -1.3889
  2034G12c C00R37617   0.699  10.991   0.034  0.0388 -0.5034  1.0704
  2034G12c C00Q37618   0.703  11.124   0.093  0.3534  0.2819 -0.8396
  2034G12c C00V37619   0.574  11.189   0.137 -2.3589  0.4452  1.4783
  2034G12c C00U37620   0.451  11.114   0.110  0.0048  0.6557 -0.7815
  2034G12c C00T37621   0.457  11.001   0.041  0.2925  1.8046 -0.2973
  2034G12c C01637622   0.355  10.909   0.048 -0.4538 -1.4351  0.3573
  2034G12c C01537623   0.232  10.954   0.095  1.0015 -0.2146  0.4038
  2034G12c C01037624   0.224  11.090   0.154 -1.3937  0.5233  1.5664
  2034G12c C01137625   0.083  11.132   0.164 -0.0389  0.1143 -2.8930
  2034G12c H00537626   0.062  11.218   0.226  1.3203 -2.3067  1.1622
  2034G12c C01237627  -0.027  11.051   0.179 -1.4088  0.7647 -0.4242
  2034G12c C01737628  -0.155  11.083   0.201  0.7860  0.7953 -0.6210
  2034G12c O00237629  -0.252  11.018   0.295  1.0043 -0.1064  1.3106
  2034G12c H00437630  -0.189  10.977   0.352 -2.7572 -3.2738  3.4739
  2034G12c C01837631  -0.219  11.137   0.100 -2.0938  0.8160 -1.3768
  2034G12c O00137632  -0.148  11.173  -0.017 -0.2663  0.4890  0.2267
  2034G12c H00337633  -0.115  11.253   0.021  4.3112 -0.4700 -1.4512
  2034G12c C01937634  -0.356  11.184   0.085  0.5063 -0.1598  0.7067
  2034G12c H00237635  -0.341  11.289   0.058  3.9791  0.2135  3.6804
  2034G12c H00137636  -0.388  11.109   0.013 -2.7207 -3.7219  5.5664
  2034G12c O00037637  -0.419  11.221   0.207 -0.7041 -0.4996 -1.3667
  2034G12c C01A37638  -0.562  11.211   0.240  0.0278  0.7858  0.6995
  2034G12c C02K37639  -0.638  11.311   0.310 -1.5663 -1.0768 -0.3776
  2034G12c O00G37640  -0.597  11.442   0.300  0.3755  0.8590 -1.1673
  2034G12c C02M37641  -0.597  11.501   0.426  0.4919  1.8743  0.7456
  2034G12c H01G37642  -0.561  11.598   0.394  3.7142 -0.8024 -4.4718
  2034G12c H01F37643  -0.671  11.501   0.506  1.8728  3.6976  2.0395
  2034G12c H01E37644  -0.512  11.458   0.479  2.1981  0.9840 -2.5379
  2034G12c C02J37645  -0.759  11.302   0.344 -0.1402 -1.9774  0.4833
  2034G12c H01H37646  -0.814  11.384   0.387 -3.4625 -0.3625 -6.2454
  2034G12c C02I37647  -0.829  11.193   0.316 -0.4406  2.2381 -2.0533
  2034G12c C02N37648  -0.975  11.170   0.346  1.7820  1.0102  0.1773
  2034G12c H01M37649  -0.997  11.155   0.451 -4.3827  4.1023 -0.4533
  2034G12c C02O37650  -1.072  11.230   0.258 -0.0729  0.9558  1.1545
  2034G12c H01L37651  -1.175  11.243   0.286 -0.3102  2.6229 -0.3780
  2034G12c C02P37652  -1.028  11.253   0.110  1.3258  0.1112  1.0714
  2034G12c H01K37653  -0.987  11.347   0.075  2.3780 -1.1585 -1.2278
  2034G12c H01J37654  -0.966  11.174   0.066  5.9097  5.2351 -2.2937
  2034G12c O00H37655  -1.141  11.250   0.020 -0.6313 -0.7035  0.1412
  2034G12c H01I37656  -1.124  11.157   0.020  2.4977 -0.3641  6.2429
  2034G12c C02H37657  -0.753  11.094   0.253  1.4466 -1.1977  0.5718
  2034G12c H01C37658  -0.813  11.005   0.264 -2.3649  0.8811 -2.0320
  2034G12c C02L37659  -0.628  11.089   0.209 -2.0115  0.0886 -0.2032
  2034G12c H01D37660  -0.580  11.010   0.154 -1.4992  1.2239 -1.4040
  2034G12c C01337661  -0.003  10.913   0.163 -0.3302  0.2621  0.3704
  2034G12c H00037662  -0.087  10.846   0.175  0.2290 -1.3481 -3.7320
  2034G12c C01437663   0.118  10.866   0.101  0.3516 -2.2567  0.1945
  2034G12c C00F37664   0.124  10.735   0.065  1.1618 -0.3882  0.9964
  2034G12c C00H37665   0.365  10.774   0.004 -0.2796 -3.2643  2.2884
  2034G12c C00I37666   0.479  10.730  -0.058  0.1873 -0.2759  1.7419
  2034G12c C00J37667   0.584  10.820  -0.069 -1.2803 -0.8415 -0.1970
  2034G12c C00Z37668   0.329  11.161   0.165 -1.3794  0.4529  1.2990
  2034G12c C00Y37669   0.331  11.298   0.204 -1.5217 -1.3184 -0.4575
  2034G12c H00637670   0.234  11.343   0.222 -1.7799  0.3081 -5.2883
  2034G12c C00X37671   0.443  11.383   0.192  1.7387 -0.6426  0.6638
  2034G12c O00337672   0.471  11.508   0.235 -1.4193 -1.4366  0.7659
  2034G12c C01B37673   0.380  11.595   0.180 -0.3131 -2.1640  0.1258
  2034G12c H00937674   0.297  11.656   0.215  1.0249  1.6654 -3.0895
  2034G12c H00837675   0.431  11.678   0.131 -4.1494 -1.6305 -3.2124
  2034G12c H00737676   0.379  11.554   0.079 -4.3418 -1.2173 -0.2992
  2034G12c C00W37677   0.565  11.315   0.165 -0.4226  0.5656 -0.4847
  2034G12c O00437678   0.688  11.382   0.167  0.0247  1.3879 -0.8332
  2034G12c C01C37679   0.802  11.332   0.093  1.5465  0.6911 -0.3226
  2034G12c H00A37680   0.862  11.401   0.035  1.0426  3.5604  2.4377
  2034G12c C00P37681   0.827  11.196   0.114 -0.4448  1.0527 -2.7247
  2034G12c C00O37682   0.960  11.153   0.106 -0.9541 -1.5335 -0.9227
  2034G12c C01D37683   1.066  11.207   0.193 -0.6194  0.5618 -1.4767
  2034G12c H00S37684   1.048  11.304   0.236  5.1768  1.8637 -1.4749
  2034G12c C01E37685   1.169  11.134   0.254 -1.4513  1.2006  0.8925
  2034G12c O00837686   1.270  11.165   0.342  0.2912 -0.4352 -1.7805
  2034G12c C01V37687   1.311  11.295   0.352  1.7695 -0.1469  0.2839
  2034G12c C01Z37688   1.371  11.350   0.214  0.2413 -0.2095  0.2134
  2034G12c H00R37689   1.411  11.271   0.150 -3.3681 -2.2501  0.3612
  2034G12c H00Q37690   1.288  11.402   0.165 -0.0938  1.1352  2.1680
  2034G12c O00937691   1.487  11.413   0.254  0.3579 -0.9740  1.0304
  2034G12c H00P37692   1.461  11.450   0.337 -2.1991  2.0439 -0.9996
  2034G12c C01W37693   1.276  11.360   0.473  0.2129 -0.8184  0.5724
  2034G12c H00O37694   1.260  11.466   0.485  5.0579 -0.3131  3.5961
  2034G12c C01X37695   1.200  11.287   0.602 -0.6579  0.4120 -1.3439
  2034G12c H00N37696   1.107  11.333   0.638  1.1151  2.3142  0.9699
  2034G12c H00M37697   1.159  11.196   0.558 -5.9793  3.4753 -3.2365
  2034G12c C01Y37698   1.272  11.303   0.742  0.1433 -0.6687  2.0878
  2034G12c C02D37699   1.378  11.408   0.747 -0.8264 -0.9238 -0.2169
  2034G12c H01937700   1.452  11.440   0.675 -3.1605 -2.4808 -3.4396
  2034G12c C02C37701   1.418  11.432   0.883  1.1400 -0.2471 -1.9639
  2034G12c H01A37702   1.511  11.486   0.890  2.1051 -1.8774 -2.1222
  2034G12c C02B37703   1.361  11.369   0.996 -0.1130  1.8844 -1.3988
  2034G12c O00E37704   1.443  11.380   1.110 -0.8271 -0.2383 -0.6395
  2034G12c H01B37705   1.411  11.337   1.188 -1.7830 -1.3505 -1.6266
  2034G12c C02F37706   1.262  11.281   0.990 -1.4980 -2.5912  0.4904
  2034G12c O00F37707   1.232  11.205   1.105 -0.7398  0.8728  0.5494
  2034G12c C02G37708   1.236  11.066   1.074 -1.4189 -0.5804 -1.5481
  2034G12c H01737709   1.278  11.007   0.992  0.5037  3.6463 -3.7568
  2034G12c H01637710   1.132  11.047   1.098 -1.4090  1.4582  0.2317
  2034G12c H01537711   1.299  11.011   1.144 -4.1423  1.1319  2.4319
  2034G12c C02E37712   1.210  11.256   0.873 -0.2355 -0.5123  1.2644
  2034G12c H01837713   1.136  11.182   0.845  3.1588 -2.1888 -4.1289
  2034G12c C01F37714   1.195  11.014   0.193 -0.6161  0.3428  0.3925
  2034G12c C01G37715   1.255  10.915   0.264 -0.6928  1.3661 -0.1773
  2034G12c H00L37716   1.322  10.933   0.347  2.8519  3.3094 -3.2941
  2034G12c C01H37717   1.227  10.774   0.233  0.0941  0.4952  0.9081
  2034G12c H00B37718   1.223  10.685   0.294  1.8821  2.2502  3.7189
  2034G12c C01I37719   1.180  10.743   0.105 -0.5080 -1.0680 -2.3131
  2034G12c C01U37720   1.138  10.968   0.061  0.9855 -1.8763  0.9228
  2034G12c C00S37721   0.576  10.938  -0.002 -1.4968  0.0720  2.2130
  2034G12c C00K37722   0.718  10.780  -0.074  1.1060  1.2041 -0.7995
  2034G12c C00N37723   1.000  11.030   0.040  1.4829  0.2158 -0.1221
  2034G12c C00037724   1.137  10.839   0.010 -0.1192  0.1779  0.5128
  2034G12c C01J37725   1.084  10.629   0.100  0.3846  0.9605  1.4681
  2034G12c C01K37726   1.090  10.497   0.166  1.2505  0.2215 -2.0319
  2034G12c C01P37727   1.200  10.427   0.209 -0.2519  0.5308 -0.4271
  2034G12c C01Q37728   1.327  10.499   0.174  1.2356 -0.5473 -0.0482
  2034G12c H00G37729   1.395  10.549   0.241  2.1834 -2.6353  0.5646
  2034G12c C01R37730   1.371  10.468   0.051 -0.9789  0.4676  0.0111
  2034G12c H00F37731   1.333  10.380   0.001  1.3163  2.6361 -6.0725
  2034G12c C01S37732   1.500  10.502  -0.018 -0.0385 -0.2338  1.5729
  2034G12c H00E37733   1.492  10.457  -0.117  4.9295  0.7881  0.5655
  2034G12c H00D37734   1.523  10.604  -0.046  4.8852 -1.8453 -0.9164
  2034G12c O00537735   1.598  10.400   0.041  0.5994 -0.1910 -0.8193
  2034G12c H00C37736   1.554  10.317   0.054 -1.5743  1.1801  0.8689
  2034G12c C01O37737   1.198  10.290   0.233 -0.6461  0.4183  2.0414
  2034G12c H00H37738   1.289  10.236   0.252  1.6454  3.7499  0.9200
  2034G12c C01N37739   1.076  10.230   0.260  0.9975 -0.0471  1.0326
  2034G12c O00637740   1.068  10.100   0.288  0.2143  1.2486  1.0211
  2034G12c C01T37741   1.114  10.056   0.421 -0.1463  0.5794  0.2128
  2034G12c H00K37742   1.197  10.105   0.472  2.0910 -4.0923  1.4062
  2034G12c H00J37743   1.155   9.957   0.400  0.5084  0.9082 -0.0842
  2034G12c H00I37744   1.040  10.057   0.501  3.9065  1.0454  4.1857
  2034G12c C01M37745   0.960  10.306   0.225 -0.0762 -0.7763 -0.1898
  2034G12c C02037746   0.738  10.641  -0.055  0.0440 -0.2017  1.6616
  2034G12c C02137747   0.640  10.552  -0.067 -1.4104  0.5401 -0.2137
  2034G12c C01L37748   0.967  10.439   0.159  0.9401 -0.4672  0.3649
  2034G12c O00737749   0.844  10.243   0.222 -0.6537  0.5616  0.6539
  2034G12c C02237750   0.621  10.438   0.015  0.4516  0.3218  0.2915
  2034G12c C02337751   0.495  10.587  -0.065  0.6477  1.5441 -1.5779
  2034G12c C00G37752   0.252  10.695   0.035 -0.9302 -1.6360  0.1104
  2034G12c C00E37753   0.012  10.652   0.080 -0.7063  0.7676  0.3211
  2034G12c O00A37754  -0.111  10.673   0.023  1.0812  0.6337 -1.2668
  2034G12c C02437755  -0.094  10.666  -0.116  1.4947  0.7163 -1.5174
  2034G12c H00V37756  -0.024  10.586  -0.139  0.4483  0.4910 -4.0134
  2034G12c H00U37757  -0.041  10.758  -0.140 -3.2889  3.4029 -2.3502
  2034G12c H00T37758  -0.183  10.646  -0.175 -0.3754 -1.8733  1.9412
  2044G12c C00D37759   9.439   2.164   1.661  1.2544  0.2225 -0.5026
  2044G12c O00B37760   9.553   2.177   1.597 -0.0463 -0.4201 -1.3683
  2044G12c C02537761   9.544   2.228   1.472  1.0564  0.5560 -1.5831
  2044G12c C02637762   9.427   2.207   1.376 -0.2711  0.1495 -0.3953
  2044G12c H00Y37763   9.349   2.143   1.419 -1.7752  2.0229 -0.2628
  2044G12c H00X37764   9.448   2.157   1.282 -1.9550 -1.8827  0.2594
  2044G12c O00C37765   9.341   2.317   1.369  0.2556  0.2579 -0.8523
  2044G12c H00W37766   9.254   2.280   1.379  1.0962 -1.8911 -1.0992
  2044G12c C02737767   9.651   2.296   1.437  0.5152 -1.5593  1.4234
  2044G12c O00D37768   9.763   2.337   1.504 -1.2900 -0.1970 -0.8458
  2044G12c H00Z37769   9.818   2.378   1.439  1.0211 -3.0128 -0.7954
  2044G12c C02837770   9.663   2.362   1.317  0.3417 -0.2737  0.4751
  2044G12c C02937771   9.640   2.491   1.292 -1.4895 -0.3865  1.2816
  2044G12c H01037772   9.622   2.564   1.370 -1.6493 -0.4149  1.2720
  2044G12c C02T37773   9.653   2.542   1.161 -1.7465  2.3759  0.0674
  2044G12c H01O37774   9.601   2.635   1.144 -3.3536  2.2999  4.0047
  2044G12c C02S37775   9.699   2.456   1.058  1.6991 -0.1484  0.7050
  2044G12c O00J37776   9.712   2.521   0.932 -0.3760 -0.1153 -2.3628
  2044G12c H01P37777   9.696   2.438   0.888 -3.6933  0.4447 -2.3646
  2044G12c C02R37778   9.706   2.316   1.072  0.9648  0.2310 -0.5924
  2044G12c O00I37779   9.671   2.232   0.966 -0.3303  1.8961  0.3506
  2044G12c C02Q37780   9.541   2.213   0.935  0.8711  0.2420 -1.2752
  2044G12c H01N37781   9.508   2.109   0.928 -1.5028  0.4687  3.7442
  2044G12c H01R37782   9.562   2.256   0.838  5.4938 -3.3381 -2.0526
  2044G12c H01Q37783   9.456   2.280   0.945  0.4869 -0.1382 -1.9598
  2044G12c C02A37784   9.691   2.275   1.205  0.5997  0.0814  0.0491
  2044G12c H01137785   9.682   2.169   1.227  2.2466  0.2686  1.8052
  2044G12c C00C37786   9.397   2.275   1.716 -1.8711 -0.8174  0.3795
  2044G12c H01237787   9.441   2.369   1.686 -5.3026  3.1907  6.5540
  2044G12c C00B37788   9.260   2.278   1.745 -0.4474  1.1526  0.0825
  2044G12c C00A37789   9.162   2.379   1.762 -0.0344  0.1813 -0.6579
  2044G12c C00937790   9.182   2.518   1.757 -0.7903 -0.3387  0.2420
  2044G12c C00837791   9.298   2.601   1.757  1.0745 -0.4701 -0.5336
  2044G12c H01337792   9.397   2.575   1.724  1.5610  1.7837 -0.9084
  2044G12c C00737793   9.286   2.717   1.846  0.3776  0.7587  0.6174
  2044G12c H01437794   9.372   2.776   1.873  2.1510 -1.8549  0.8860
  2044G12c C00637795   9.165   2.751   1.908  1.4303  0.9627 -0.5878
  2044G12c C00537796   9.048   2.675   1.873 -0.6360 -1.9960  0.0041
  2044G12c C00437797   8.934   2.698   1.945  0.1735  0.2543 -0.1959
  2044G12c C00337798   8.830   2.597   1.932  0.7963  0.3279 -0.5928
  2044G12c C00237799   8.725   2.625   2.031 -1.1629 -0.0974  1.0247
  2044G12c C00137800   8.604   2.548   2.071  0.7501 -1.6163 -0.7950
  2044G12c C00M37801   8.614   2.407   2.102 -0.1084 -1.4017  0.2253
  2044G12c C00L37802   8.698   2.328   2.026 -0.7617  0.1651 -0.9645
  2044G12c C00R37803   8.728   2.189   2.067  0.3452 -0.4592 -0.7982
  2044G12c C00Q37804   8.703   2.107   2.174 -1.8806 -0.9427 -0.9372
  2044G12c C00V37805   8.756   1.981   2.162  1.6745  0.8916  0.6650
  2044G12c C00U37806   8.854   1.963   2.071  1.0525  0.7109  2.0066
  2044G12c C00T37807   8.889   2.037   1.976  1.0728 -1.5804 -1.1395
  2044G12c C01637808   9.004   2.027   1.898  0.5467 -1.5643 -0.5058
  2044G12c C01537809   9.087   1.914   1.903  0.6629  0.1307 -0.3433
  2044G12c C01037810   9.040   1.822   1.992  1.6606  1.3515  0.6902
  2044G12c C01137811   9.133   1.727   2.028  0.1164 -0.5449 -1.2299
  2044G12c H00537812   9.122   1.680   2.125 -3.3164 -0.7271 -1.6550
  2044G12c C01237813   9.257   1.710   1.972  0.2865 -1.1209 -0.7179
  2044G12c C01737814   9.344   1.605   2.002 -0.7604 -0.0445  0.6508
  2044G12c O00237815   9.463   1.642   2.042 -0.1560 -0.6877  0.0874
  2044G12c H00437816   9.486   1.734   2.043  3.4411 -1.5188  0.4286
  2044G12c C01837817   9.300   1.472   1.990 -0.2555  0.5032  0.7136
  2044G12c O00137818   9.195   1.452   1.901 -0.7222 -0.9596 -0.5217
  2044G12c H00337819   9.153   1.536   1.896  1.2792 -0.0208 -2.7305
  2044G12c C01937820   9.398   1.357   1.972  1.7543 -1.1474  0.1501
  2044G12c H00237821   9.484   1.395   1.915  0.9241 -2.4643 -2.0286
  2044G12c H00137822   9.402   1.291   2.058 -3.2886 -1.1746  0.4933
  2044G12c O00037823   9.347   1.255   1.894  1.0194 -0.1833  0.3103
  2044G12c C01A37824   9.397   1.201   1.776 -0.6966 -0.1612 -2.5482
  2044G12c C02K37825   9.433   1.283   1.666  0.6251 -0.9407 -1.0996
  2044G12c O00G37826   9.395   1.410   1.653 -0.2297  1.3802  0.6393
  2044G12c C02M37827   9.504   1.490   1.641 -0.9347  0.5079  1.2856
  2044G12c H01G37828   9.481   1.592   1.611 -0.2099 -0.5942 -3.2554
  2044G12c H01F37829   9.580   1.464   1.568 -0.3969  4.8201  0.1977
  2044G12c H01E37830   9.561   1.465   1.731  0.6999  0.2880  0.2047
  2044G12c C02J37831   9.533   1.227   1.593  0.3546  0.7902 -0.1316
  2044G12c H01H37832   9.589   1.285   1.521  0.4803  0.7197 -0.0910
  2044G12c C02I37833   9.570   1.087   1.587  1.0364  0.3274 -0.5417
  2044G12c C02N37834   9.653   1.040   1.475 -0.0977 -0.9238  1.6251
  2044G12c H01M37835   9.758   1.063   1.472  0.4272 -3.1968  1.0844
  2044G12c C02O37836   9.594   0.952   1.399 -1.7139  0.9616 -0.4712
  2044G12c H01L37837   9.501   0.915   1.440 -1.3432 -0.9051 -1.2770
  2044G12c C02P37838   9.667   0.877   1.282  2.9513  0.9035 -1.1323
  2044G12c H01K37839   9.654   0.769   1.268  3.5317  0.4674  1.3813
  2044G12c H01J37840   9.631   0.904   1.183  1.6108 -3.2916 -1.9164
  2044G12c O00H37841   9.794   0.925   1.229 -0.6304  0.8668  1.0904
  2044G12c H01I37842   9.857   0.864   1.264  0.8289  0.0926 -2.7131
  2044G12c C02H37843   9.509   1.012   1.694  1.6573  0.5780 -0.5027
  2044G12c H01C37844   9.535   0.908   1.700 -1.6932 -0.6175 -4.4567
  2044G12c C02L37845   9.412   1.066   1.792 -0.5791 -0.5539  0.6717
  2044G12c H01D37846   9.360   1.012   1.869 -3.1854 -2.0218 -2.0105
  2044G12c C01337847   9.291   1.795   1.865  0.6051  0.1034  1.6650
  2044G12c H00037848   9.375   1.762   1.806 -2.9932  0.4489 -4.0837
  2044G12c C01437849   9.214   1.908   1.839  0.3418  0.4805 -0.3511
  2044G12c C00F37850   9.267   2.023   1.771  0.6696  0.5913 -0.9451
  2044G12c C00H37851   9.066   2.144   1.837 -0.4616  0.5214 -0.4875
  2044G12c C00I37852   8.966   2.256   1.818  0.4224 -1.7613  1.1652
  2044G12c C00J37853   8.854   2.249   1.882  1.4543 -0.4790  0.2693
  2044G12c C00Z37854   8.920   1.841   2.066 -0.2071  0.1904  0.9456
  2044G12c C00Y37855   8.888   1.742   2.169  1.0503 -0.9907  1.0770
  2044G12c H00637856   8.956   1.660   2.189  3.8041  1.8498  3.8250
  2044G12c C00X37857   8.786   1.752   2.262 -1.6265 -1.1035 -0.3088
  2044G12c O00337858   8.714   1.667   2.346 -0.8057 -1.5639 -0.0342
  2044G12c C01B37859   8.681   1.525   2.314  0.2395 -1.7043 -0.7174
  2044G12c H00937860   8.650   1.493   2.414  2.5929 -2.4346 -0.1755
  2044G12c H00837861   8.783   1.490   2.299 -0.5838 -4.6558  0.2721
  2044G12c H00737862   8.624   1.543   2.224 -3.7211  2.4551  2.3827
  2044G12c C00W37863   8.736   1.887   2.264  1.8698  0.9587  0.3891
  2044G12c O00437864   8.643   1.909   2.369  0.3140 -0.4810  0.5694
  2044G12c C01C37865   8.587   2.021   2.360  0.7712  1.7634  0.3921
  2044G12c H00A37866   8.497   2.015   2.419 -3.5067 -1.4646 -5.8210
  2044G12c C00P37867   8.615   2.137   2.282 -1.5466 -0.0323  1.3512
  2044G12c C00O37868   8.586   2.270   2.330 -1.3984  1.5753  1.3993
  2044G12c C01D37869   8.530   2.304   2.458  1.3060  0.1436  0.2622
  2044G12c H00S37870   8.500   2.248   2.546  0.5637  6.5190  4.3843
  2044G12c C01E37871   8.520   2.431   2.507 -0.7481 -0.9706  2.1599
  2044G12c O00837872   8.496   2.462   2.637 -0.7993 -0.0969 -0.0064
  2044G12c C01V37873   8.547   2.391   2.746 -0.3566  0.5430 -0.4557
  2044G12c C01Z37874   8.458   2.370   2.867  0.0061  1.3830 -1.5934
  2044G12c H00R37875   8.354   2.351   2.841  0.1897 -3.3749  0.5946
  2044G12c H00Q37876   8.471   2.275   2.920  2.8569  1.9133 -1.2382
  2044G12c O00937877   8.467   2.470   2.967 -0.4737  0.8309  1.0822
  2044G12c H00P37878   8.423   2.550   2.943 -1.0778  0.4381  0.8732
  2044G12c C01W37879   8.669   2.344   2.729  0.6746  0.0206  0.3222
  2044G12c H00O37880   8.719   2.391   2.646 -1.5078  6.8117  2.5371
  2044G12c C01X37881   8.751   2.295   2.848 -0.3289 -0.6687  1.0260
  2044G12c H00N37882   8.804   2.384   2.883 -2.4868  1.6129 -1.2779
  2044G12c H00M37883   8.687   2.315   2.934  0.3219 -2.3548  1.9107
  2044G12c C01Y37884   8.853   2.181   2.874 -1.1581  0.8126  0.9963
  2044G12c C02D37885   8.944   2.197   2.983  2.1946 -1.8031  0.8605
  2044G12c H01937886   8.893   2.272   3.042  2.4131 -0.0078 -1.1630
  2044G12c C02C37887   9.045   2.097   2.990 -0.8919  0.5594 -0.2880
  2044G12c H01A37888   9.107   2.099   3.078 -0.4579  5.5570 -0.5559
  2044G12c C02B37889   9.072   1.999   2.888 -0.3565 -0.7489  0.9651
  2044G12c O00E37890   9.139   1.894   2.896 -1.4847 -0.8003  0.1153
  2044G12c H01B37891   9.084   1.850   2.832  1.4244 -0.9451 -2.3810
  2044G12c C02F37892   8.997   2.001   2.770 -0.3491 -0.3375 -0.6971
  2044G12c O00F37893   9.024   1.908   2.678  1.8780 -0.0348 -1.8761
  2044G12c C02G37894   8.919   1.853   2.612 -1.7866  1.0881  1.7496
  2044G12c H01737895   8.892   1.929   2.539  2.3597 -4.8389 -6.7497
  2044G12c H01637896   8.958   1.783   2.538 -1.3762  3.4436 -0.3433
  2044G12c H01537897   8.890   1.794   2.699  4.3005 -2.1068  1.9141
  2044G12c C02E37898   8.876   2.091   2.770  0.3541  0.2074 -0.5072
  2044G12c H01837899   8.814   2.086   2.682  1.0999 -3.6156 -0.8939
  2044G12c C01F37900   8.551   2.537   2.410  0.8989  0.7636  0.5783
  2044G12c C01G37901   8.626   2.653   2.456  0.2249  0.3475 -1.9849
  2044G12c H00L37902   8.632   2.649   2.564  2.9639 -2.3996 -2.1583
  2044G12c C01H37903   8.675   2.743   2.363 -0.1249 -1.1002  0.6487
  2044G12c H00B37904   8.717   2.833   2.406 -0.1492 -2.6050  4.0342
  2044G12c C01I37905   8.635   2.720   2.230 -0.1888 -0.3590  0.7739
  2044G12c C01U37906   8.518   2.515   2.277 -0.5551 -0.3756  0.3292
  2044G12c C00S37907   8.813   2.153   1.967 -0.0382 -2.0777 -0.4172
  2044G12c C00K37908   8.781   2.367   1.915  0.0369  0.0591 -0.2306
  2044G12c C00N37909   8.578   2.378   2.241 -1.7008 -0.3406  0.4360
  2044G12c C00037910   8.548   2.613   2.181 -0.0795 -1.2571  1.0216
  2044G12c C01J37911   8.721   2.737   2.123 -0.7897  0.9390  0.1191
  2044G12c C01K37912   8.821   2.844   2.127  0.3960  0.3237  0.6113
  2044G12c C01P37913   8.816   2.987   2.166 -0.3852  0.7498 -0.8000
  2044G12c C01Q37914   8.708   3.065   2.177  0.8148  0.2894 -0.0885
  2044G12c H00G37915   8.685   3.119   2.267  3.8128  2.0859 -0.3431
  2044G12c C01R37916   8.624   3.094   2.075  0.5626 -0.1021  0.2408
  2044G12c H00F37917   8.617   3.030   1.988  5.8554 -2.6318  1.4541
  2044G12c C01S37918   8.522   3.205   2.078 -0.0008 -0.2737  0.8392
  2044G12c H00E37919   8.419   3.188   2.109 -1.6639  0.2041 -3.9559
  2044G12c H00D37920   8.570   3.272   2.150 -0.7170  2.6994 -1.3586
  2044G12c O00537921   8.515   3.261   1.947 -0.4572 -1.0396 -0.2600
  2044G12c H00C37922   8.547   3.350   1.945 -2.1646 -0.4299 -1.6807
  2044G12c C01O37923   8.941   3.049   2.207  0.8591  0.7467 -0.9635
  2044G12c H00H37924   8.926   3.133   2.274 -0.8460  0.7643 -1.3452
  2044G12c C01N37925   9.049   3.001   2.128 -0.5192 -0.9722 -0.5870
  2044G12c O00637926   9.148   3.081   2.147  0.0306  0.4754  0.4703
  2044G12c C01T37927   9.196   3.143   2.038  1.3862 -0.7173  1.3062
  2044G12c H00K37928   9.263   3.228   2.041  5.6401 -3.3277 -6.1647
  2044G12c H00J37929   9.140   3.171   1.948 -1.7353  2.3259  4.0618
  2044G12c H00I37930   9.282   3.085   2.006  0.5858 -1.2937  0.1299
  2044G12c C01M37931   9.052   2.886   2.053  0.7245 -1.4175 -2.0072
  2044G12c C02037932   8.844   2.486   1.845 -0.2046  0.4745 -1.3829
  2044G12c C02137933   8.956   2.486   1.752 -1.3274 -0.8363 -1.2284
  2044G12c C01L37934   8.928   2.806   2.043 -0.8233  1.3766  0.1199
  2044G12c O00737935   9.168   2.848   1.990  0.8259 -1.0241  0.8413
  2044G12c C02237936   9.056   2.570   1.777  0.5303 -0.8088  0.3393
  2044G12c C02337937   9.022   2.363   1.746  0.0956 -0.7253  0.5880
  2044G12c C00G37938   9.196   2.154   1.781 -0.1192  2.5140  1.5335
  2044G12c C00E37939   9.400   2.037   1.709  2.2170 -0.9469  3.1604
  2044G12c O00A37940   9.447   1.912   1.663 -1.8185 -0.0099 -0.4542
  2044G12c C02437941   9.558   1.896   1.560 -0.2627  1.9185 -2.2209
  2044G12c H00V37942   9.638   1.968   1.572  0.2346  1.6213 -3.5828
  2044G12c H00U37943   9.490   1.932   1.482 -5.8674 -8.0755 -2.7949
  2044G12c H00T37944   9.573   1.797   1.516 -3.0740  0.7895 -0.7862
  2054G12c C00D37945  10.180   2.486   4.397  2.1718  0.3128  0.7774
  2054G12c O00B37946  10.276   2.429   4.485  0.2126  0.0118 -0.0449
  2054G12c C02537947  10.391   2.483   4.529  0.6610 -0.0824  1.7886
  2054G12c C02637948  10.392   2.583   4.644 -0.0046  0.2453  1.1837
  2054G12c H00Y37949  10.475   2.645   4.610 -1.1940  1.7986  1.0379
  2054G12c H00X37950  10.456   2.541   4.721  2.7123 -4.6944 -3.4035
  2054G12c O00C37951  10.280   2.655   4.706 -0.3136  0.7846 -0.1676
  2054G12c H00W37952  10.257   2.580   4.759  1.0654  0.1743 -0.4136
  2054G12c C02737953  10.504   2.447   4.460 -0.8583  0.1881  0.2113
  2054G12c O00D37954  10.489   2.341   4.378 -0.0433 -1.1225 -0.0094
  2054G12c H00Z37955  10.407   2.297   4.398 -1.3418  0.4303 -1.6990
  2054G12c C02837956  10.630   2.534   4.451  1.3880 -0.1239 -0.0014
  2054G12c C02937957  10.765   2.495   4.479 -0.9063 -0.3104 -0.4724
  2054G12c H01037958  10.782   2.395   4.514 -0.7537  1.7655  6.0925
  2054G12c C02T37959  10.882   2.574   4.482 -1.0909  0.5117  1.0230
  2054G12c H01O37960  10.961   2.529   4.540  1.0632  3.2243  0.3070
  2054G12c C02S37961  10.847   2.715   4.451 -0.5886  0.1864  1.7611
  2054G12c O00J37962  10.936   2.813   4.487 -0.0459  0.5996 -0.9352
  2054G12c H01P37963  10.907   2.903   4.496 -0.5825  0.4232 -0.8824
  2054G12c C02R37964  10.731   2.755   4.402 -0.5191  0.3255  0.5385
  2054G12c O00I37965  10.685   2.865   4.334  1.7025 -2.3184 -1.4353
  2054G12c C02Q37966  10.758   2.898   4.225 -0.2223 -0.7577  0.6370
  2054G12c H01N37967  10.819   2.814   4.192  8.8769  4.3607  2.9046
  2054G12c H01R37968  10.845   2.963   4.219  0.2242 -1.4198 -0.2374
  2054G12c H01Q37969  10.704   2.891   4.131  0.7662 -2.7696  0.2080
  2054G12c C02A37970  10.631   2.669   4.428 -1.0239 -0.3112  1.2735
  2054G12c H01137971  10.560   2.750   4.439 -1.0208  0.0102 -0.8825
  2054G12c C00C37972  10.216   2.620   4.351  1.3182  1.0960  1.0480
  2054G12c H01237973  10.309   2.648   4.398  0.3039  3.0578  1.9449
  2054G12c C00B37974  10.141   2.694   4.270  0.7828 -0.1832  0.2175
  2054G12c C00A37975  10.151   2.828   4.264 -0.0014 -1.4531  2.5256
  2054G12c C00937976  10.252   2.926   4.323  0.8413 -1.4644 -0.7968
  2054G12c C00837977  10.324   2.926   4.441 -1.3201  0.1484 -0.3917
  2054G12c H01337978  10.354   2.828   4.477  2.0672  0.6476 -1.6889
  2054G12c C00737979  10.314   3.027   4.537 -0.4027 -0.1902 -0.1494
  2054G12c H01437980  10.339   3.019   4.642  0.9009  0.4999 -0.3900
  2054G12c C00637981  10.247   3.141   4.499 -1.2020 -2.0130 -1.4514
  2054G12c C00537982  10.185   3.135   4.377  1.0348 -0.1250  1.3933
  2054G12c C00437983  10.095   3.241   4.345  0.0206 -0.0904  1.3497
  2054G12c C00337984  10.024   3.234   4.220  2.0086  1.1442 -0.5737
  2054G12c C00237985   9.909   3.332   4.193  0.6415  0.7144  0.5926
  2054G12c C00137986   9.795   3.343   4.099  1.2108 -0.3263 -2.0245
  2054G12c C00M37987   9.695   3.252   4.104  0.5873 -0.8853  0.5519
  2054G12c C00L37988   9.729   3.113   4.148 -1.5053  1.1590 -0.1703
  2054G12c C00R37989   9.636   3.009   4.109 -0.8045 -1.0639 -0.3272
  2054G12c C00Q37990   9.494   3.003   4.138  0.3853 -0.3109  0.6850
  2054G12c C00V37991   9.462   2.866   4.142 -0.1811  0.8080 -1.5969
  2054G12c C00U37992   9.563   2.756   4.143 -0.8240 -1.5710 -0.7432
  2054G12c C00T37993   9.691   2.778   4.122  1.4677  0.0237  0.8198
  2054G12c C01637994   9.783   2.687   4.161  0.8514 -0.4265 -0.3128
  2054G12c C01537995   9.744   2.548   4.189 -0.9233 -0.5380 -0.0990
  2054G12c C01037996   9.605   2.513   4.181 -0.4440 -0.0831 -0.7733
  2054G12c C01137997   9.551   2.382   4.223 -0.1296 -1.1294  1.9964
  2054G12c H00537998   9.463   2.336   4.179 -0.8555 -2.8106  5.0585
  2054G12c C01237999   9.645   2.281   4.282 -0.5565 -0.6262 -0.7404
  2054G12c C01738000   9.619   2.134   4.311 -0.4598 -2.0728  0.0215
  2054G12c O00238001   9.526   2.091   4.386  0.5032 -0.4610  1.2834
  2054G12c H00438002   9.502   2.182   4.394 -1.7918  0.0614 -7.4092
  2054G12c C01838003   9.696   2.045   4.255 -0.5471  0.6299  0.6914
  2054G12c O00138004   9.827   2.074   4.206  1.3014 -0.3690  0.4132
  2054G12c H00338005   9.809   2.041   4.119  2.6724  1.9105 -0.7782
  2054G12c C01938006   9.647   1.894   4.241 -0.9891 -2.1933  0.9374
  2054G12c H00238007   9.743   1.853   4.273  2.0244  2.7003 -1.2075
  2054G12c H00138008   9.552   1.859   4.279 -2.4566 -0.3700 -0.9154
  2054G12c O00038009   9.665   1.864   4.094  0.4088 -0.5911 -1.8267
  2054G12c C01A38010   9.642   1.726   4.055 -1.1068 -2.6761 -0.0869
  2054G12c C02K38011   9.603   1.711   3.911 -0.3938 -1.4538 -1.6985
  2054G12c O00G38012   9.595   1.800   3.825 -0.5900  0.0793 -0.1392
  2054G12c C02M38013   9.474   1.801   3.737 -1.1174  0.6551  1.0132
  2054G12c H01G38014   9.424   1.707   3.713  6.4143 -3.1207 -1.5089
  2054G12c H01F38015   9.396   1.861   3.783  1.2043  3.3611  1.5684
  2054G12c H01E38016   9.488   1.841   3.636 -5.5972  1.5093  0.6457
  2054G12c C02J38017   9.603   1.571   3.870 -0.4678 -0.1796 -0.4535
  2054G12c H01H38018   9.578   1.562   3.765 -1.4638  4.6144 -0.7714
  2054G12c C02I38019   9.622   1.453   3.951  0.5841 -0.2714 -1.5103
  2054G12c C02N38020   9.603   1.327   3.894  0.0152  0.2722 -0.7432
  2054G12c H01M38021   9.595   1.236   3.952  3.9636  2.4350  3.4753
  2054G12c C02O38022   9.600   1.305   3.761  0.6434 -1.9205 -0.0168
  2054G12c H01L38023   9.634   1.394   3.709 -6.0465  2.2677  2.1863
  2054G12c C02P38024   9.575   1.175   3.691 -0.1753 -1.3113  0.8280
  2054G12c H01K38025   9.644   1.180   3.606  1.4710 -4.9268  1.8679
  2054G12c H01J38026   9.606   1.112   3.775 -0.1982 -1.7360  0.5195
  2054G12c O00H38027   9.443   1.198   3.672  0.1265  1.0239  0.9151
  2054G12c H01I38028   9.399   1.258   3.731 -0.5705 -4.4053  6.4224
  2054G12c C02H38029   9.660   1.494   4.078  1.1071 -0.3914  0.5481
  2054G12c H01C38030   9.673   1.404   4.136  3.1090 -2.9606 -3.6260
  2054G12c C02L38031   9.675   1.621   4.130  0.8307  0.4024  1.0285
  2054G12c H01D38032   9.712   1.650   4.227  1.4161 -0.6750  1.1328
  2054G12c C01338033   9.760   2.353   4.313 -1.8436  0.4016  0.3702
  2054G12c H00038034   9.810   2.308   4.398  1.7843  0.1059 -1.8106
  2054G12c C01438035   9.832   2.469   4.260  1.4820  0.3222 -0.0947
  2054G12c C00F38036   9.953   2.515   4.287  0.5064 -0.9829 -0.6394
  2054G12c C00H38037   9.914   2.721   4.174  1.1867 -0.3541 -0.6641
  2054G12c C00I38038   9.966   2.847   4.117 -0.2285 -1.4276  0.8005
  2054G12c C00J38039   9.859   2.933   4.070 -1.0052 -0.7437 -0.6709
  2054G12c C00Z38040   9.513   2.618   4.159 -0.1368 -0.4794  1.5587
  2054G12c C00Y38041   9.377   2.586   4.182 -0.2345  1.2218  0.2057
  2054G12c H00638042   9.331   2.490   4.170  5.6813 -1.3756 -4.1210
  2054G12c C00X38043   9.282   2.687   4.172 -1.4788 -0.3566 -1.3147
  2054G12c O00338044   9.154   2.650   4.149  0.0802  0.8132 -0.4121
  2054G12c C01B38045   9.042   2.751   4.122 -0.4789  1.4310  0.2778
  2054G12c H00938046   9.027   2.831   4.195 -0.8029  2.6681 -1.1316
  2054G12c H00838047   8.965   2.689   4.076 -0.2003  3.2840 -2.8033
  2054G12c H00738048   9.064   2.823   4.044 -5.2384  1.2559 -1.4165
  2054G12c C00W38049   9.322   2.823   4.167  0.0741 -0.9194  0.9291
  2054G12c O00438050   9.235   2.923   4.196  0.2725 -0.8777  1.8189
  2054G12c C01C38051   9.247   3.053   4.187 -0.1500  0.9949  0.7311
  2054G12c H00A38052   9.176   3.093   4.258  1.9951  5.4243  0.5512
  2054G12c C00P38053   9.386   3.101   4.164  0.4498  2.5917  0.0036
  2054G12c C00O38054   9.423   3.244   4.165  0.6172 -1.0714 -1.8497
  2054G12c C01D38055   9.332   3.343   4.221 -1.0208  0.6610 -1.7266
  2054G12c H00S38056   9.236   3.296   4.237 -0.6329 -2.0110 -6.4474
  2054G12c C01E38057   9.376   3.448   4.302 -0.7761 -0.0519  0.6588
  2054G12c O00838058   9.317   3.510   4.401 -0.2153  0.8143 -0.6371
  2054G12c C01V38059   9.292   3.428   4.519 -0.5753  0.9093 -0.5483
  2054G12c C01Z38060   9.144   3.423   4.545 -0.2471 -0.9295  1.0155
  2054G12c H00R38061   9.088   3.503   4.497 -2.8709 -2.7508  0.9185
  2054G12c H00Q38062   9.142   3.349   4.464  0.0563  1.6232 -1.3775
  2054G12c O00938063   9.085   3.386   4.675  1.0213 -0.6885  0.5497
  2054G12c H00P38064   9.136   3.320   4.721  1.9250 -0.7374 -0.4998
  2054G12c C01W38065   9.410   3.375   4.574  0.2020 -1.0896  1.3662
  2054G12c H00O38066   9.493   3.398   4.510 -2.2980 -1.2454 -2.0999
  2054G12c C01X38067   9.424   3.347   4.732 -0.5793 -0.9898  0.4814
  2054G12c H00N38068   9.516   3.380   4.780  0.8303  0.1897 -2.8949
  2054G12c H00M38069   9.339   3.373   4.796  0.2142  1.6911  0.4846
  2054G12c C01Y38070   9.393   3.198   4.723 -0.7544 -0.5254 -0.1849
  2054G12c C02D38071   9.285   3.123   4.770  1.4157 -1.1211  0.2201
  2054G12c H01938072   9.220   3.184   4.831  2.7884 -3.8366  4.5502
  2054G12c C02C38073   9.252   3.001   4.700  1.0173  0.7075  0.9710
  2054G12c H01A38074   9.163   2.948   4.731  3.2969 -6.0643 -2.8823
  2054G12c C02B38075   9.345   2.941   4.623  1.4359  0.4306 -0.1588
  2054G12c O00E38076   9.333   2.818   4.557  0.7113  0.7757 -1.3153
  2054G12c H01B38077   9.420   2.799   4.524 -0.2265 -3.6407 -1.4617
  2054G12c C02F38078   9.463   2.993   4.597 -0.8452 -2.0297 -0.2026
  2054G12c O00F38079   9.552   2.942   4.499  1.0583 -0.5962  0.6378
  2054G12c C02G38080   9.702   2.938   4.532 -0.9582 -0.8348 -0.2947
  2054G12c H01738081   9.748   3.023   4.483  1.8105 -0.0174  3.5195
  2054G12c H01638082   9.731   2.943   4.637 -3.5189  1.3796  0.3415
  2054G12c H01538083   9.786   2.871   4.511  1.2073  1.1992  1.6050
  2054G12c C02E38084   9.492   3.118   4.649  1.5358 -0.9932  0.8583
  2054G12c H01838085   9.583   3.164   4.614 -0.1188  3.1938  1.8383
  2054G12c C01F38086   9.496   3.503   4.250 -0.1801  0.6144 -0.8483
  2054G12c C01G38087   9.566   3.585   4.352 -0.8356 -0.7544 -0.3510
  2054G12c H00L38088   9.510   3.651   4.416  2.8447  3.2424 -1.0696
  2054G12c C01H38089   9.721   3.594   4.358 -0.2492 -0.4135  0.1942
  2054G12c H00B38090   9.757   3.630   4.453  3.6091 -0.2733 -1.2555
  2054G12c C01I38091   9.798   3.518   4.259 -0.0244 -1.2350  0.1428
  2054G12c C01U38092   9.595   3.446   4.155  0.7955 -0.5005  0.6838
  2054G12c C00S38093   9.720   2.901   4.078  0.1458  1.3369 -1.1171
  2054G12c C00K38094   9.859   3.059   4.125  0.4978  1.1042 -1.8514
  2054G12c C00N38095   9.556   3.313   4.129  3.5129  2.3184  0.0672
  2054G12c C00038096   9.734   3.467   4.142 -0.0919 -2.3003  0.0517
  2054G12c C01J38097   9.913   3.447   4.277 -1.1584 -0.9010  0.0311
  2054G12c C01K38098   9.998   3.444   4.398  0.3943 -0.7959 -0.0346
  2054G12c C01P38099  10.009   3.575   4.468  0.6349 -0.5316  0.1792
  2054G12c C01Q38100   9.987   3.686   4.407  0.8946 -2.4203  1.5242
  2054G12c H00G38101  10.024   3.720   4.312  1.9588  0.4255  2.8895
  2054G12c C01R38102   9.921   3.801   4.440  1.2133  0.5445 -0.6519
  2054G12c H00F38103   9.872   3.792   4.535  4.8655  5.3599  1.9151
  2054G12c C01S38104   9.890   3.918   4.340 -0.6570 -0.3280  0.2376
  2054G12c H00E38105   9.958   3.983   4.396  0.1098  2.8858 -4.2211
  2054G12c H00D38106   9.925   3.885   4.242 -3.0175 -4.1873  0.5856
  2054G12c O00538107   9.758   3.963   4.353 -1.1031  0.0296 -0.4129
  2054G12c H00C38108   9.723   4.046   4.326 -2.3419  0.9834  3.7886
  2054G12c C01O38109  10.055   3.567   4.597 -0.8369  0.3028 -1.6847
  2054G12c H00H38110  10.047   3.659   4.654 -0.5753 -3.0569  4.2313
  2054G12c C01N38111  10.095   3.445   4.657 -1.3881  0.0980  1.0342
  2054G12c O00638112  10.160   3.428   4.769 -0.1778  0.3843  0.0959
  2054G12c C01T38113  10.120   3.324   4.863 -0.3632  1.5793  0.0218
  2054G12c H00K38114  10.057   3.364   4.943 -1.2076  0.1198  0.1065
  2054G12c H00J38115  10.042   3.256   4.829  1.7563  0.5149 -2.8368
  2054G12c H00I38116  10.209   3.270   4.898  2.0632  4.0492 -2.1041
  2054G12c C01M38117  10.109   3.327   4.581  0.3852 -0.3427 -0.1877
  2054G12c C02038118   9.998   3.111   4.161 -2.0901 -0.8408  1.6081
  2054G12c C02138119  10.115   3.020   4.163 -0.7823 -1.6030  0.6697
  2054G12c C01L38120  10.065   3.329   4.442  0.8584  0.6160  0.4548
  2054G12c O00738121  10.210   3.228   4.603  0.0205  0.6203  0.6099
  2054G12c C02238122  10.213   3.043   4.268  0.6422  1.2441  1.3135
  2054G12c C02338123  10.095   2.888   4.150  1.2723 -1.1074 -0.8720
  2054G12c C00G38124  10.003   2.647   4.245 -0.8480 -1.6855 -0.5674
  2054G12c C00E38125  10.046   2.437   4.357 -0.0190  0.1477 -1.2624
  2054G12c O00A38126  10.025   2.309   4.388  0.6590  0.6875  1.9403
  2054G12c C02438127  10.113   2.234   4.292 -0.6832 -1.0453  0.6051
  2054G12c H00V38128  10.107   2.282   4.194 -2.5887 -1.3769  0.5391
  2054G12c H00U38129  10.095   2.132   4.257  2.6535 -2.1841  1.9820
  2054G12c H00T38130  10.216   2.201   4.303  0.0780  0.1108 -2.6416
  2064G12c C00D38131   6.261   1.639   2.963 -1.7866  0.6722  0.9277
  2064G12c O00B38132   6.291   1.617   2.826  1.0691 -1.5646 -0.1130
  2064G12c C02538133   6.212   1.692   2.725 -0.0870  0.0393 -0.0960
  2064G12c C02638134   6.305   1.704   2.615 -1.4547 -0.8551 -1.4470
  2064G12c H00Y38135   6.262   1.724   2.517 -5.1339  0.9562  0.4230
  2064G12c H00X38136   6.366   1.617   2.636  0.5268  1.1111  1.3616
  2064G12c O00C38137   6.367   1.825   2.643  0.6206 -0.4835  0.7918
  2064G12c H00W38138   6.428   1.810   2.714 -4.2265 -5.8093  4.1964
  2064G12c C02738139   6.074   1.720   2.721 -2.7449  1.7540 -0.5686
  2064G12c O00D38140   6.013   1.685   2.831  0.7261 -0.7721  0.2439
  2064G12c H00Z38141   6.085   1.630   2.856  3.5468  1.6783 -2.2028
  2064G12c C02838142   6.033   1.811   2.616 -0.9224  1.6744  1.2437
  2064G12c C02938143   6.034   1.939   2.652  0.8103 -0.0899  0.7196
  2064G12c H01038144   6.127   1.972   2.696 -1.1806  7.3048  0.0613
  2064G12c C02T38145   5.948   2.033   2.617  1.7400 -1.9587  0.1683
  2064G12c H01O38146   5.960   2.132   2.658 -3.4636 -2.6528  3.8905
  2064G12c C02S38147   5.855   2.004   2.523  1.1539 -0.9121  1.0669
  2064G12c O00J38148   5.797   2.116   2.504  0.4064 -1.0689  1.4095
  2064G12c H01P38149   5.803   2.157   2.419 -2.3798  5.2714  3.9813
  2064G12c C02R38150   5.835   1.870   2.470 -0.4979 -1.0349  1.3196
  2064G12c O00I38151   5.718   1.833   2.404  0.3773 -0.2116  1.3812
  2064G12c C02Q38152   5.706   1.698   2.373  2.0609 -0.7981 -1.4686
  2064G12c H01N38153   5.793   1.638   2.347  1.2414 -4.1314  2.7706
  2064G12c H01R38154   5.643   1.695   2.284  3.4627  0.7030 -2.5300
  2064G12c H01Q38155   5.664   1.651   2.462 -3.1521  3.9476 -1.1430
  2064G12c C02A38156   5.924   1.766   2.526  0.5085 -0.8102 -0.3240
  2064G12c H01138157   5.912   1.660   2.513 -0.9176 -0.8649  1.2904
  2064G12c C00C38158   6.251   1.783   3.002  0.0998  0.0608  0.2315
  2064G12c H01238159   6.274   1.866   2.938 -3.3803  1.1299  0.2504
  2064G12c C00B38160   6.196   1.791   3.124  1.1253 -0.4774 -0.6811
  2064G12c C00A38161   6.153   1.917   3.190  1.4213 -0.1176  1.0944
  2064G12c C00938162   6.193   2.062   3.174 -0.0822  0.1802  0.1116
  2064G12c C00838163   6.255   2.135   3.065 -1.3080 -0.0453  0.0763
  2064G12c H01338164   6.263   2.094   2.965 -0.0181  0.7093 -0.1420
  2064G12c C00738165   6.325   2.256   3.096 -0.3554  0.5855  1.3349
  2064G12c H01438166   6.379   2.288   3.008  3.2531 -0.9179  2.8682
  2064G12c C00638167   6.311   2.313   3.230 -0.3255 -0.3546  1.4765
  2064G12c C00538168   6.243   2.246   3.324  1.4522  0.0854 -0.6215
  2064G12c C00438169   6.253   2.271   3.460 -0.8318  1.0941  0.6592
  2064G12c C00338170   6.206   2.172   3.558  0.7596 -0.3411 -0.9300
  2064G12c C00238171   6.253   2.182   3.696  0.8531 -1.1992  0.5412
  2064G12c C00138172   6.202   2.117   3.811 -0.1838  0.4762  1.4557
  2064G12c C00M38173   6.237   1.980   3.820 -0.0862 -1.5053  0.9810
  2064G12c C00L38174   6.186   1.899   3.725  1.4904  1.0516  1.8950
  2064G12c C00R38175   6.176   1.750   3.746 -0.2751 -0.4579  0.3514
  2064G12c C00Q38176   6.244   1.673   3.848  0.1572  0.6431  1.4840
  2064G12c C00V38177   6.248   1.535   3.797  1.4611 -0.6246  0.3320
  2064G12c C00U38178   6.235   1.512   3.658  0.5855  0.6360  0.6515
  2064G12c C00T38179   6.185   1.589   3.562  0.9391  0.7889 -0.4557
  2064G12c C01638180   6.166   1.577   3.432  1.3170 -0.5320  1.4885
  2064G12c C01538181   6.191   1.445   3.382  1.4602 -0.0355 -0.8593
  2064G12c C01038182   6.235   1.350   3.470  2.2941 -0.2641  0.3745
  2064G12c C01138183   6.209   1.227   3.424 -0.5002 -0.2743  0.9271
  2064G12c H00538184   6.236   1.151   3.496  3.6816 -0.4792 -0.6698
  2064G12c C01238185   6.160   1.190   3.309 -1.0539 -1.9173 -0.7118
  2064G12c C01738186   6.081   1.061   3.288  0.0135 -1.4886 -1.5687
  2064G12c O00238187   6.012   1.034   3.409  1.8198 -0.5949 -0.3311
  2064G12c H00438188   6.017   0.949   3.450  4.6713  0.6200  1.9663
  2064G12c C01838189   6.140   0.970   3.207  0.4862  2.0781 -0.6070
  2064G12c O00138190   6.268   0.998   3.150  1.1948 -0.6624  0.8979
  2064G12c H00338191   6.294   1.064   3.212 -1.4931  3.1344 -1.7322
  2064G12c C01938192   6.093   0.825   3.207 -0.4276 -0.0094  0.1479
  2064G12c H00238193   6.034   0.803   3.296  3.6741 -1.6959  2.6156
  2064G12c H00138194   6.026   0.809   3.123 -0.7304 -1.8187  0.6999
  2064G12c O00038195   6.214   0.770   3.219  0.2827  0.3794  0.1919
  2064G12c C01A38196   6.228   0.634   3.229 -1.2708 -0.2925 -0.6574
  2064G12c C02K38197   6.251   0.534   3.123  0.7046  0.7840 -0.7937
  2064G12c O00G38198   6.220   0.533   2.989  0.3741 -1.0851 -0.7162
  2064G12c C02M38199   6.083   0.482   2.971  3.0734  0.4250 -0.2608
  2064G12c H01G38200   6.082   0.387   3.024  1.0746  0.0028 -1.0236
  2064G12c H01F38201   6.022   0.566   3.004  2.6144 -1.0621  2.8195
  2064G12c H01E38202   6.062   0.478   2.864 -2.9793  3.3041  0.6650
  2064G12c C02J38203   6.270   0.395   3.174  0.9816  0.8145 -0.4471
  2064G12c H01H38204   6.258   0.301   3.122  4.4988 -0.8234  1.5157
  2064G12c C02I38205   6.286   0.350   3.320  1.1857 -0.4429  0.5980
  2064G12c C02N38206   6.321   0.224   3.366 -0.0646  0.6423 -0.0219
  2064G12c H01M38207   6.278   0.133   3.326  0.8757 -0.9595  2.4500
  2064G12c C02O38208   6.438   0.228   3.440 -0.2382 -0.7553 -1.1150
  2064G12c H01L38209   6.481   0.315   3.488 -0.4198 -3.5253  4.5016
  2064G12c C02P38210   6.503   0.100   3.475 -0.3137 -0.8001  0.3060
  2064G12c H01K38211   6.432   0.032   3.523 -1.8861 -0.6456 -1.7427
  2064G12c H01J38212   6.537   0.066   3.377 -0.5431  0.7993 -0.3363
  2064G12c O00H38213   6.597   0.150   3.563  0.9856 -0.8247 -1.4587
  2064G12c H01I38214   6.687   0.149   3.533  2.2714  3.6296  1.7353
  2064G12c C02H38215   6.274   0.469   3.397  0.6132 -2.3991  0.2116
  2064G12c H01C38216   6.257   0.426   3.495 -0.5075 -0.1560  1.0436
  2064G12c C02L38217   6.245   0.605   3.364 -2.0224  0.0579 -0.4677
  2064G12c H01D38218   6.259   0.687   3.433  3.6926 -1.1968  0.0935
  2064G12c C01338219   6.167   1.282   3.206  0.1418 -0.3440 -0.7918
  2064G12c H00038220   6.150   1.252   3.104 -1.6580  4.5971 -2.0973
  2064G12c C01438221   6.179   1.418   3.241  0.6397 -0.7883 -1.2730
  2064G12c C00F38222   6.180   1.536   3.163 -0.4044  1.3641  0.8819
  2064G12c C00H38223   6.143   1.682   3.344  0.7186 -1.7388 -0.9747
  2064G12c C00I38224   6.095   1.804   3.404 -0.3759 -1.0573 -0.2794
  2064G12c C00J38225   6.093   1.804   3.538  0.1810  0.9459  0.1273
  2064G12c C00Z38226   6.252   1.376   3.609 -0.2378  1.1357 -0.9477
  2064G12c C00Y38227   6.311   1.271   3.700 -1.4900 -0.7500  0.0344
  2064G12c H00638228   6.329   1.170   3.665  0.4290 -0.6576  0.6995
  2064G12c C00X38229   6.314   1.296   3.827  0.1467 -0.1643 -1.5053
  2064G12c O00338230   6.379   1.209   3.923  0.2084  1.5281 -0.2436
  2064G12c C01B38231   6.521   1.199   3.945 -0.5292 -0.4599  0.4067
  2064G12c H00938232   6.585   1.265   4.003  1.2049 -1.3214 -0.4834
  2064G12c H00838233   6.564   1.165   3.851  4.4091 -2.0570  3.0758
  2064G12c H00738234   6.531   1.104   3.997 -0.2976  0.7104  2.5671
  2064G12c C00W38235   6.288   1.429   3.878 -0.2246  1.2693  0.3223
  2064G12c O00438236   6.319   1.465   4.005 -0.6036  0.7344 -0.7060
  2064G12c C01C38237   6.342   1.588   4.054  0.9737 -0.0538 -1.0548
  2064G12c H00A38238   6.431   1.606   4.112 -0.2751 -4.2411  2.4196
  2064G12c C00P38239   6.311   1.704   3.973  0.8749  1.0624 -0.4984
  2064G12c C00O38240   6.342   1.841   4.012 -0.3011  1.3197  1.7624
  2064G12c C01D38241   6.426   1.865   4.124 -0.7143  1.6580 -0.7426
  2064G12c H00S38242   6.457   1.799   4.204 -6.2925 -1.3061 -0.7024
  2064G12c C01E38243   6.498   1.982   4.144 -0.4033 -0.8704  0.7183
  2064G12c O00838244   6.598   1.965   4.226  0.0345 -0.4617  0.2968
  2064G12c C01V38245   6.735   2.010   4.203  1.2783  1.1577  0.9573
  2064G12c C01Z38246   6.781   2.097   4.333 -0.4804 -0.8431  0.5807
  2064G12c H00R38247   6.760   2.051   4.429 -1.0783  5.9739  3.9541
  2064G12c H00Q38248   6.889   2.082   4.328 -0.6243 -1.1756 -4.7873
  2064G12c O00938249   6.741   2.220   4.380 -0.1289 -1.4441 -0.9979
  2064G12c H00P38250   6.683   2.264   4.319 -2.0169  1.5840  2.7319
  2064G12c C01W38251   6.803   1.984   4.089  0.0652  0.0174 -1.2607
  2064G12c H00O38252   6.795   1.893   4.031  1.8230 -3.5737  3.7572
  2064G12c C01X38253   6.954   2.036   4.098 -1.5103  0.9887  0.7939
  2064G12c H00N38254   6.949   2.125   4.162  0.8420 -1.1493  4.1382
  2064G12c H00M38255   7.012   1.949   4.129 -2.7134 -0.0481  0.1751
  2064G12c C01Y38256   7.022   2.098   3.970  0.1167 -0.2282  1.0062
  2064G12c C02D38257   6.982   2.224   3.911 -0.5199 -1.2554  2.0755
  2064G12c H01938258   6.944   2.285   3.992 -5.5756  0.9758 -1.6601
  2064G12c C02C38259   7.056   2.267   3.788  2.5973  0.5011  2.2805
  2064G12c H01A38260   7.072   2.370   3.760  3.0805  0.4824  2.4748
  2064G12c C02B38261   7.171   2.195   3.753  0.9898  0.6908  0.6419
  2064G12c O00E38262   7.276   2.255   3.685  0.2337 -0.8840 -0.1663
  2064G12c H01B38263   7.340   2.189   3.664  5.1713  2.2817  3.7082
  2064G12c C02F38264   7.182   2.058   3.792 -1.0886  1.6672 -2.2263
  2064G12c O00F38265   7.288   1.982   3.752 -0.1711  1.1751  0.4788
  2064G12c C02G38266   7.295   1.965   3.608  1.9183  0.8363  0.3514
  2064G12c H01738267   7.204   1.925   3.563  0.3825  6.1233 -1.7263
  2064G12c H01638268   7.292   2.054   3.545 -0.7770 -0.0182 -0.8287
  2064G12c H01538269   7.364   1.892   3.566 -0.7827 -0.7643 -1.4759
  2064G12c C02E38270   7.103   2.019   3.906  1.7335 -0.4271 -0.3206
  2064G12c H01838271   7.131   1.932   3.964 -1.3707 -1.0590  0.3340
  2064G12c C01F38272   6.468   2.083   4.052 -0.8991 -0.4812 -0.2930
  2064G12c C01G38273   6.559   2.199   4.003 -0.4372  0.5170 -0.3744
  2064G12c H00L38274   6.650   2.230   4.053 -1.6383 -2.0346  3.5370
  2064G12c C01H38275   6.505   2.294   3.918  1.9285 -1.1537 -1.6757
  2064G12c H00B38276   6.587   2.340   3.865  3.6635 -1.2896  0.7989
  2064G12c C01I38277   6.376   2.269   3.859  0.4052  4.0152  0.3465
  2064G12c C01U38278   6.327   2.086   4.000  0.3640 -0.4357 -1.0597
  2064G12c C00S38279   6.131   1.698   3.621 -1.7910  1.0816 -0.9086
  2064G12c C00K38280   6.140   1.932   3.601 -1.3449 -0.0898 -1.3661
  2064G12c C00N38281   6.313   1.955   3.940  1.0283 -0.2625  0.2982
  2064G12c C00038282   6.273   2.187   3.920  1.7417  0.9414 -1.1947
  2064G12c C01J38283   6.317   2.303   3.737 -0.5976  0.0128 -0.8266
  2064G12c C01K38284   6.373   2.399   3.633  0.9722  0.4635  0.6585
  2064G12c C01P38285   6.474   2.503   3.659  0.0321 -0.4632 -0.0764
  2064G12c C01Q38286   6.503   2.555   3.785 -0.4279  1.6237  0.5641
  2064G12c H00G38287   6.603   2.595   3.795 -1.1261  3.2090  1.4224
  2064G12c C01R38288   6.410   2.584   3.876  0.1824  1.0111  0.8662
  2064G12c H00F38289   6.303   2.593   3.866 -0.3946 -1.3448  4.0894
  2064G12c C01S38290   6.448   2.643   4.011  0.7230  1.4659 -1.1008
  2064G12c H00E38291   6.371   2.681   4.078  0.3342 -3.6598  1.6267
  2064G12c H00D38292   6.470   2.541   4.041  5.1627  2.5501 -0.4120
  2064G12c O00538293   6.562   2.733   4.016  2.0322  0.3867  0.6723
  2064G12c H00C38294   6.627   2.665   4.006  3.3332  0.9376  4.3914
  2064G12c C01O38295   6.524   2.574   3.550  0.4286  0.2647 -0.6234
  2064G12c H00H38296   6.611   2.638   3.550 -1.2046  2.7769 -6.0236
  2064G12c C01N38297   6.467   2.578   3.409 -0.6413  0.5598 -0.1612
  2064G12c O00638298   6.518   2.683   3.338 -1.7676  0.3380  0.3438
  2064G12c C01T38299   6.522   2.697   3.196  0.7792  1.4761 -0.7826
  2064G12c H00K38300   6.428   2.725   3.147 -0.4334  2.0042  1.7437
  2064G12c H00J38301   6.554   2.609   3.140  0.7993  1.2123 -0.3674
  2064G12c H00I38302   6.579   2.789   3.189 -1.4546  3.3433  3.3716
  2064G12c C01M38303   6.394   2.462   3.381  0.3351  0.4620  0.3498
  2064G12c C02038304   6.169   2.047   3.515 -0.7359 -1.4347  0.4802
  2064G12c C02138305   6.129   2.034   3.392  2.6047  0.1648  1.4753
  2064G12c C01L38306   6.335   2.373   3.499 -0.2283 -1.5583 -0.1478
  2064G12c O00738307   6.353   2.445   3.252 -1.2228 -0.4299 -0.9277
  2064G12c C02238308   6.157   2.129   3.295  0.5335  0.2686  0.8626
  2064G12c C02338309   6.125   1.913   3.323 -0.2302 -0.6404 -1.9395
  2064G12c C00G38310   6.157   1.672   3.207 -0.5154 -0.1355  0.3032
  2064G12c C00E38311   6.221   1.526   3.023  1.0079  2.3780  0.5791
  2064G12c O00A38312   6.237   1.400   2.961  0.3632  0.9922  0.7530
  2064G12c C02438313   6.133   1.351   2.870 -0.5512 -1.3720  0.0139
  2064G12c H00V38314   6.182   1.363   2.773  1.7822 -7.3644  0.2276
  2064G12c H00U38315   6.056   1.428   2.857  0.4002 -0.6627 -1.6046
  2064G12c H00T38316   6.124   1.243   2.883  5.4906 -1.9142  0.8853
  2074G12c C00D38317  11.915   9.602   7.868  1.5930 -0.2180 -1.6904
  2074G12c O00B38318  12.055   9.627   7.896 -0.3803 -0.4277 -0.1422
  2074G12c C02538319  12.151   9.572   7.817 -0.9856  1.7032 -0.0595
  2074G12c C02638320  12.159   9.416   7.815  0.7800  0.8544  0.7193
  2074G12c H00Y38321  12.150   9.376   7.714 -2.2513  4.1776 -0.4331
  2074G12c H00X38322  12.070   9.381   7.866  1.7523  3.7098  4.6366
  2074G12c O00C38323  12.282   9.370   7.868 -0.3832 -0.1567  0.3911
  2074G12c H00W38324  12.322   9.292   7.834  1.3690  0.9144 -0.0752
  2074G12c C02738325  12.226   9.652   7.743 -1.2486  0.7317 -2.3313
  2074G12c O00D38326  12.354   9.619   7.689  0.4601  1.4347  0.5165
  2074G12c H00Z38327  12.379   9.530   7.668 -1.4654  1.3768 -1.7022
  2074G12c C02838328  12.208   9.789   7.754 -0.4644 -0.3282  0.3386
  2074G12c C02938329  12.207   9.875   7.870  0.0439  1.9333 -1.7273
  2074G12c H01038330  12.236   9.825   7.962  3.7779 -2.6896 -5.1669
  2074G12c C02T38331  12.197  10.012   7.856 -1.1732  0.9461 -0.3294
  2074G12c H01O38332  12.224  10.097   7.917  0.8148 -0.6471  1.0420
  2074G12c C02S38333  12.190  10.061   7.742  1.0928  0.2583  0.5366
  2074G12c O00J38334  12.189  10.206   7.738 -1.1674 -0.3686  0.0458
  2074G12c H01P38335  12.157  10.255   7.812  1.7992  2.3810 -0.3544
  2074G12c C02R38336  12.153   9.991   7.626  0.1279  1.0006 -2.4622
  2074G12c O00I38337  12.158  10.063   7.511 -0.0262  0.4585 -0.2705
  2074G12c C02Q38338  12.261  10.058   7.403  1.5554  0.5215 -0.2038
  2074G12c H01N38339  12.343  10.124   7.430  3.7979 -0.1886 -4.7786
  2074G12c H01R38340  12.219  10.090   7.307  0.7821 -4.5138 -1.6877
  2074G12c H01Q38341  12.307   9.961   7.385  2.5826  0.6260  1.8107
  2074G12c C02A38342  12.180   9.864   7.636 -0.7804  0.2951 -1.5279
  2074G12c H01138343  12.169   9.800   7.550  1.1348 -2.4423  0.1790
  2074G12c C00C38344  11.848   9.636   7.751 -0.4546  0.5640 -0.1581
  2074G12c H01238345  11.918   9.698   7.696  1.0223  0.0211  1.0926
  2074G12c C00B38346  11.705   9.593   7.726  0.4452  0.6578 -2.3460
  2074G12c C00A38347  11.628   9.643   7.606 -1.1740  0.3938 -0.6300
  2074G12c C00938348  11.649   9.773   7.539 -1.1471 -1.0861 -0.4508
  2074G12c C00838349  11.734   9.874   7.581  0.1140 -0.7995 -0.4034
  2074G12c H01338350  11.838   9.851   7.602 -0.7376 -0.6449  4.3985
  2074G12c C00738351  11.719  10.001   7.537  0.4975 -1.6749  0.1097
  2074G12c H01438352  11.807  10.058   7.566  0.9731 -2.6470  0.6346
  2074G12c C00638353  11.579  10.033   7.502 -1.2123  0.0400  0.1014
  2074G12c C00538354  11.475   9.937   7.479 -0.9272 -0.1843 -1.1748
  2074G12c C00438355  11.340   9.971   7.504 -2.1383  1.5637 -1.7113
  2074G12c C00338356  11.242   9.868   7.506  0.8900  1.0516  0.1228
  2074G12c C00238357  11.116   9.911   7.536 -0.6162 -0.4242 -1.0487
  2074G12c C00138358  10.996   9.859   7.588  1.1557 -0.4201  0.4290
  2074G12c C00M38359  10.991   9.790   7.718 -0.2046 -0.4810  0.1879
  2074G12c C00L38360  11.093   9.695   7.741  0.2978 -1.9519  0.9030
  2074G12c C00R38361  11.106   9.627   7.868 -1.1371  1.3087 -0.9936
  2074G12c C00Q38362  11.036   9.643   7.993 -0.0286  0.6976  1.1377
  2074G12c C00V38363  11.100   9.565   8.102  1.3969 -1.3949 -2.5614
  2074G12c C00U38364  11.236   9.513   8.095  0.8579  0.7087  0.9795
  2074G12c C00T38365  11.301   9.519   7.974 -1.2637 -0.9165 -0.1172
  2074G12c C01638366  11.435   9.493   7.946  0.0918  0.2609  0.4700
  2074G12c C01538367  11.504   9.441   8.057  0.2658  1.5048  0.9078
  2074G12c C01038368  11.438   9.411   8.175  0.8812  2.8539 -0.4369
  2074G12c C01138369  11.503   9.328   8.276 -0.0010  3.1627  0.7740
  2074G12c H00538370  11.437   9.294   8.354  0.2408  0.0071 -0.3020
  2074G12c C01238371  11.643   9.321   8.273 -1.0458 -0.6904  1.2858
  2074G12c C01738372  11.723   9.260   8.360 -0.3226  1.0790  1.9062
  2074G12c O00238373  11.798   9.350   8.417  0.2972 -0.2039  0.1553
  2074G12c H00438374  11.842   9.403   8.352 -0.8603  0.5844  0.0094
  2074G12c C01838375  11.731   9.124   8.374 -1.0179  0.4480  0.1913
  2074G12c O00138376  11.641   9.043   8.306 -0.9657  0.3703  0.0174
  2074G12c H00338377  11.698   8.982   8.261  0.6873  5.6438 -5.6314
  2074G12c C01938378  11.816   9.063   8.471 -0.2063 -0.3660 -1.2511
  2074G12c H00238379  11.825   9.106   8.570 -3.3057 -2.4726  0.0212
  2074G12c H00138380  11.919   9.080   8.439  0.7445 -1.2283  1.2650
  2074G12c O00038381  11.772   8.923   8.472 -0.7050 -1.6592 -0.1070
  2074G12c C01A38382  11.761   8.866   8.589  1.0408 -0.1425  0.2538
  2074G12c C02K38383  11.854   8.768   8.626 -0.3412  0.7240 -0.4977
  2074G12c O00G38384  11.933   8.714   8.523  0.4381  0.4510 -0.1465
  2074G12c C02M38385  11.872   8.636   8.430  0.7603 -0.3123  0.5338
  2074G12c H01G38386  11.862   8.718   8.358  3.9733  1.8348  2.3556
  2074G12c H01F38387  11.777   8.617   8.479 -0.7032  3.4021 -0.6778
  2074G12c H01E38388  11.918   8.550   8.382  3.7806  0.0066  2.6756
  2074G12c C02J38389  11.912   8.750   8.751  1.7918  0.4328 -1.1879
  2074G12c H01H38390  11.998   8.684   8.760  5.2810  4.9184  0.3386
  2074G12c C02I38391  11.845   8.809   8.862  1.6544 -0.7262  0.8389
  2074G12c C02N38392  11.936   8.837   8.981  0.5090 -0.0701 -1.5320
  2074G12c H01M38393  11.990   8.930   8.990 -1.1358  0.8902 -1.3101
  2074G12c C02O38394  11.951   8.726   9.066 -0.9938 -0.8473  0.0089
  2074G12c H01L38395  11.999   8.765   9.155 -2.4646 -4.3515  2.4670
  2074G12c C02P38396  11.846   8.650   9.109 -0.0951  0.7838 -1.0884
  2074G12c H01K38397  11.787   8.689   9.192 -0.6655 -3.8037  0.8223
  2074G12c H01J38398  11.785   8.600   9.034  3.5621 -3.3952 -1.4813
  2074G12c O00H38399  11.926   8.545   9.168  2.3256  0.2619 -0.6613
  2074G12c H01I38400  11.979   8.506   9.100  5.1968  0.1278  1.5390
  2074G12c C02H38401  11.732   8.895   8.833  0.4695 -1.9306 -0.6979
  2074G12c H01C38402  11.677   8.933   8.918 -0.3947 -5.7966  0.6048
  2074G12c C02L38403  11.690   8.929   8.693 -1.1402  0.8427 -0.0994
  2074G12c H01D38404  11.597   8.980   8.671 -1.6311  1.0755  2.3682
  2074G12c C01338405  11.714   9.366   8.147 -0.7371 -0.1591 -1.3937
  2074G12c H00038406  11.822   9.365   8.148 -0.6307 -4.7820  3.5382
  2074G12c C01438407  11.641   9.432   8.051  0.8239  0.9857  0.3599
  2074G12c C00F38408  11.701   9.509   7.947  0.0722 -1.1252 -0.4061
  2074G12c C00H38409  11.494   9.534   7.822 -0.0387  0.9163  0.7740
  2074G12c C00I38410  11.427   9.576   7.713  0.8906  0.2392 -0.0531
  2074G12c C00J38411  11.289   9.580   7.738 -0.3781 -0.7077  1.0157
  2074G12c C00Z38412  11.310   9.452   8.204 -1.6809  2.3712 -0.7049
  2074G12c C00Y38413  11.252   9.439   8.326  0.8491  0.0313  0.1191
  2074G12c H00638414  11.292   9.408   8.422  7.5254  0.5841 -2.2207
  2074G12c C00X38415  11.109   9.473   8.343 -0.7605 -0.0288 -1.3507
  2074G12c O00338416  11.032   9.446   8.457 -0.5069  0.4067  1.9280
  2074G12c C01B38417  10.960   9.328   8.422  0.0544  0.6915  1.0910
  2074G12c H00938418  10.854   9.332   8.447 -1.3033  0.6040 -4.1926
  2074G12c H00838419  10.964   9.297   8.318  0.3298  5.4985 -0.4547
  2074G12c H00738420  10.976   9.231   8.469  0.5048  2.3248  4.4849
  2074G12c C00W38421  11.042   9.535   8.228  0.8863 -0.3030  0.7220
  2074G12c O00438422  10.913   9.586   8.258 -1.9248  1.0612  1.1034
  2074G12c C01C38423  10.879   9.697   8.175  2.2169 -0.7825 -0.6170
  2074G12c H00A38424  10.888   9.778   8.245  0.9639 -0.9011 -0.2974
  2074G12c C00P38425  10.929   9.731   8.043 -0.8509  0.6862  0.7963
  2074G12c C00O38426  10.866   9.823   7.957  1.8468  1.2025  0.9224
  2074G12c C01D38427  10.792   9.932   8.011  0.0635  1.0240  1.4524
  2074G12c H00S38428  10.740   9.945   8.104 -4.2857  1.9798 -0.9805
  2074G12c C01E38429  10.758  10.066   7.944  0.9460 -1.3528  1.9300
  2074G12c O00838430  10.697  10.170   7.999  0.2757  1.4160 -1.1393
  2074G12c C01V38431  10.672  10.175   8.132  1.2175 -0.4846  0.6985
  2074G12c C01Z38432  10.766  10.281   8.185 -1.1573 -1.2197 -1.4292
  2074G12c H00R38433  10.839  10.211   8.227 -1.4782 -1.6527 -1.5892
  2074G12c H00Q38434  10.824  10.344   8.118  5.0685 -4.6906  0.2041
  2074G12c O00938435  10.713  10.347   8.291  0.1392 -0.4538 -1.1846
  2074G12c H00P38436  10.654  10.417   8.266 -0.7065 -1.8425 -3.2110
  2074G12c C01W38437  10.574  10.103   8.194  1.2295  1.2581 -0.4619
  2074G12c H00O38438  10.518  10.058   8.113  5.4587  2.4106 -4.3018
  2074G12c C01X38439  10.542  10.086   8.341 -0.6878 -0.3720 -0.4425
  2074G12c H00N38440  10.539  10.166   8.415 -0.9724  1.8662 -2.8020
  2074G12c H00M38441  10.436  10.061   8.330 -0.3352 -3.3584  2.2650
  2074G12c C01Y38442  10.634   9.993   8.410 -1.5618  0.5280  0.1626
  2074G12c C02D38443  10.629   9.852   8.388  1.1925  1.3020 -0.4929
  2074G12c H01938444  10.555   9.816   8.319 -2.6653  1.1353  3.5056
  2074G12c C02C38445  10.697   9.752   8.456 -1.5849 -0.6491  0.8794
  2074G12c H01A38446  10.684   9.644   8.449  3.1615 -1.7768  6.2270
  2074G12c C02B38447  10.801   9.808   8.538  1.8049 -1.2476 -0.9979
  2074G12c O00E38448  10.895   9.718   8.570 -0.3850  0.6440 -1.3413
  2074G12c H01B38449  10.962   9.766   8.524  0.1586  0.2932 -0.9295
  2074G12c C02F38450  10.835   9.947   8.543 -0.0729 -0.4836  0.1389
  2074G12c O00F38451  10.938   9.992   8.630 -0.4084 -0.5341 -2.1342
  2074G12c C02G38452  10.866  10.010   8.755  1.2212  1.0891  1.0907
  2074G12c H01738453  10.795  10.090   8.732  2.4381  0.1706 -7.2406
  2074G12c H01638454  10.940  10.056   8.820  3.7260 -0.3755 -0.6548
  2074G12c H01538455  10.843   9.911   8.794 -0.4380  0.5411 -1.2170
  2074G12c C02E38456  10.742  10.054   8.488  2.3193  0.1617 -0.5685
  2074G12c H01838457  10.771  10.157   8.494  3.5086 -0.0656 -2.1994
  2074G12c C01F38458  10.828  10.089   7.812  1.5941  2.4281  1.2136
  2074G12c C01G38459  10.828  10.220   7.736  0.0018 -0.5540 -0.5654
  2074G12c H00L38460  10.759  10.298   7.766  1.2322 -1.7138  6.1080
  2074G12c C01H38461  10.895  10.217   7.603 -2.0821  1.8426  0.0326
  2074G12c H00B38462  10.873  10.302   7.539  0.5472  4.3266  2.2807
  2074G12c C01I38463  10.952  10.097   7.557 -0.7213  0.0614  0.2662
  2074G12c C01U38464  10.861   9.974   7.743  0.4374 -0.1386 -0.8874
  2074G12c C00S38465  11.222   9.549   7.856 -0.0435  0.3694  1.2859
  2074G12c C00K38466  11.214   9.690   7.660  1.8316  0.7672  0.8787
  2074G12c C00N38467  10.901   9.854   7.818 -1.5009  0.5548 -1.1499
  2074G12c C00038468  10.905   9.977   7.611 -2.6567 -0.2147  0.7148
  2074G12c C01J38469  11.083  10.047   7.504  0.9067  0.1089  0.9463
  2074G12c C01K38470  11.176  10.161   7.465  0.7604  1.4954 -0.1210
  2074G12c C01P38471  11.174  10.277   7.382 -1.1630  0.2287  0.5508
  2074G12c C01Q38472  11.062  10.291   7.310 -0.0312 -1.0157  0.9545
  2074G12c H00G38473  11.026  10.209   7.249  3.6822 -0.2216 -2.6166
  2074G12c C01R38474  10.991  10.400   7.306 -0.3942  0.6452 -1.1881
  2074G12c H00F38475  11.000  10.481   7.376  0.9190 -4.8230  5.4981
  2074G12c C01S38476  10.877  10.427   7.220  0.2385 -0.7503  0.1473
  2074G12c H00E38477  10.778  10.428   7.264  1.8403 -3.1352  4.0402
  2074G12c H00D38478  10.881  10.528   7.179 -2.7194 -0.3778  0.7235
  2074G12c O00538479  10.919  10.387   7.101 -0.8355 -0.3257  0.3603
  2074G12c H00C38480  10.883  10.304   7.074 -5.9870  3.4439 -5.7487
  2074G12c C01O38481  11.277  10.377   7.356  0.6315 -0.2314 -1.1029
  2074G12c H00H38482  11.276  10.472   7.304 -6.2852  0.3329 -0.3893
  2074G12c C01N38483  11.387  10.345   7.438 -0.1206 -1.0091 -1.8490
  2074G12c O00638484  11.479  10.453   7.469  0.1102  1.0596 -2.4614
  2074G12c C01T38485  11.585  10.493   7.373 -0.2610 -0.2671  1.0404
  2074G12c H00K38486  11.663  10.536   7.436  2.4289 -3.0925 -0.2534
  2074G12c H00J38487  11.551  10.573   7.307  0.9393  1.5921  2.5962
  2074G12c H00I38488  11.584  10.396   7.324 -3.0478 -1.8091  3.9745
  2074G12c C01M38489  11.414  10.206   7.476 -2.2731  0.2814  1.2180
  2074G12c C02038490  11.285   9.742   7.552 -0.3772  0.2580 -0.2561
  2074G12c C02138491  11.424   9.715   7.524  1.4217 -2.1260 -0.6064
  2074G12c C01L38492  11.309  10.101   7.490  1.0337 -0.6502 -1.2369
  2074G12c O00738493  11.543  10.165   7.528  0.0552  0.8524  1.2266
  2074G12c C02238494  11.522   9.805   7.478  1.5529  0.1536  1.4946
  2074G12c C02338495  11.491   9.630   7.599  0.5845  0.2240 -2.2253
  2074G12c C00G38496  11.636   9.539   7.828  0.0349 -0.8561  0.0394
  2074G12c C00E38497  11.826   9.575   7.974  1.2455 -0.9351 -0.5198
  2074G12c O00A38498  11.859   9.593   8.102  0.4094  0.1248 -0.6636
  2074G12c C02438499  11.934   9.711   8.143 -1.2959 -0.0672  0.6449
  2074G12c H00V38500  11.968   9.773   8.061 -3.1436 -2.3202 -1.9195
  2074G12c H00U38501  12.019   9.695   8.210  3.3431  0.3044 -4.7987
  2074G12c H00T38502  11.869   9.797   8.160 -3.6422 -2.6749  6.3087
  2084G12c C00D38503   8.491  11.793   3.422 -0.0497 -0.5393 -0.8772
  2084G12c O00B38504   8.389  11.790   3.521  0.0478  0.3341  0.9180
  2084G12c C02538505   8.444  11.832   3.649 -0.4690  0.5410 -1.0124
  2084G12c C02638506   8.369  11.962   3.707  0.7553 -0.8303 -0.7755
  2084G12c H00Y38507   8.372  11.998   3.809 -9.1293 -1.6461  0.2603
  2084G12c H00X38508   8.269  11.924   3.689  1.4249 -1.0760 -4.6075
  2084G12c O00C38509   8.405  12.077   3.626 -0.5774 -0.0935 -0.4734
  2084G12c H00W38510   8.373  12.152   3.674 -0.7628  0.6207 -1.7042
  2084G12c C02738511   8.550  11.781   3.717  2.3933 -2.5110 -1.5426
  2084G12c O00D38512   8.606  11.665   3.673 -1.2130  0.1751 -0.7398
  2084G12c H00Z38513   8.558  11.648   3.593 -0.5328  2.4609 -1.6944
  2084G12c C02838514   8.613  11.850   3.832 -0.4941  1.7736  0.9743
  2084G12c C02938515   8.661  11.969   3.815 -0.2091  0.4028  0.7212
  2084G12c H01038516   8.606  12.036   3.751  1.8449 -1.3173 -2.9950
  2084G12c C02T38517   8.788  12.005   3.858 -0.6317 -0.2778 -0.6761
  2084G12c H01O38518   8.806  12.109   3.878  2.4753 -0.8978  0.0123
  2084G12c C02S38519   8.857  11.925   3.952  0.1635  1.0802 -0.1475
  2084G12c O00J38520   8.968  11.985   4.006 -0.1753  0.7982 -1.8708
  2084G12c H01P38521   9.009  11.957   4.086  3.6493 -1.1883 -4.3849
  2084G12c C02R38522   8.795  11.807   3.997 -0.1829  0.7137 -0.9340
  2084G12c O00I38523   8.876  11.729   4.074 -0.3879  0.1737  0.4900
  2084G12c C02Q38524   8.830  11.613   4.167 -1.2098 -0.6182  1.1106
  2084G12c H01N38525   8.906  11.607   4.245  5.5524  0.0744 -4.8072
  2084G12c H01R38526   8.794  11.516   4.133  0.0638 -3.8839  8.1353
  2084G12c H01Q38527   8.749  11.661   4.222  1.5026  2.2139  2.8036
  2084G12c C02A38528   8.679  11.765   3.926  0.0749 -1.0497 -0.0407
  2084G12c H01138529   8.658  11.663   3.955  0.4067 -1.3624 -0.8892
  2084G12c C00C38530   8.508  11.890   3.340  1.0819 -0.6113 -0.4153
  2084G12c H01238531   8.433  11.965   3.360  3.5784  1.6002  1.0648
  2084G12c C00B38532   8.603  11.893   3.234  0.4349  0.0127 -0.8609
  2084G12c C00A38533   8.626  11.991   3.152 -1.0169 -0.5130  0.0447
  2084G12c C00938534   8.542  12.108   3.116  0.5189  0.9915  0.5390
  2084G12c C00838535   8.418  12.150   3.155 -0.5365  0.0737 -0.7267
  2084G12c H01338536   8.376  12.126   3.251  2.9590  1.5225  1.2622
  2084G12c C00738537   8.334  12.203   3.043  0.4332 -0.6475  1.5953
  2084G12c H01438538   8.226  12.209   3.038  0.4758  3.9663  3.8135
  2084G12c C00638539   8.390  12.236   2.918 -0.5594 -0.8344 -1.4105
  2084G12c C00538540   8.535  12.228   2.915 -0.9059  1.4121  1.0447
  2084G12c C00438541   8.583  12.230   2.792  0.3934 -1.7677  1.0274
  2084G12c C00338542   8.704  12.142   2.748  1.4633 -0.0935  0.0051
  2084G12c C00238543   8.740  12.133   2.607  1.7121  0.8390  0.8898
  2084G12c C00138544   8.833  12.069   2.536  0.7587  0.0107 -0.2262
  2084G12c C00M38545   8.859  11.935   2.566  1.7533 -0.2604 -0.1945
  2084G12c C00L38546   8.891  11.891   2.692 -0.8996  0.2225 -0.4237
  2084G12c C00R38547   8.898  11.745   2.725  2.3424 -0.1242 -0.1859
  2084G12c C00Q38548   8.869  11.621   2.654 -0.8581  2.0155  1.5825
  2084G12c C00V38549   8.853  11.506   2.737  0.1093 -0.8327 -1.3652
  2084G12c C00U38550   8.833  11.512   2.869  1.9707  0.3335  2.4198
  2084G12c C00T38551   8.837  11.627   2.938 -1.0884 -0.3896 -0.3764
  2084G12c C01638552   8.820  11.648   3.083 -0.3363  0.6422  1.5445
  2084G12c C01538553   8.776  11.535   3.152  0.0463  0.1102 -0.9147
  2084G12c C01038554   8.790  11.405   3.090 -1.9946  0.5908 -1.4629
  2084G12c C01138555   8.797  11.293   3.184  0.8492 -0.4193  0.0262
  2084G12c H00538556   8.773  11.196   3.144  1.8218  0.1954 -2.0963
  2084G12c C01238557   8.743  11.306   3.313  1.0499  0.1014 -1.3730
  2084G12c C01738558   8.720  11.206   3.412  0.5474 -0.5892  1.0678
  2084G12c O00238559   8.753  11.233   3.554 -0.4699 -0.7915 -0.0712
  2084G12c H00438560   8.816  11.303   3.542 -1.0201  0.4565  3.7943
  2084G12c C01838561   8.659  11.090   3.376 -0.0891  1.1345  0.1388
  2084G12c O00138562   8.602  11.071   3.244  0.2727  0.0419 -0.3107
  2084G12c H00338563   8.604  10.978   3.228 -3.9360 -0.7087  2.6659
  2084G12c C01938564   8.652  10.967   3.476  0.3480 -0.2168 -1.4016
  2084G12c H00238565   8.758  10.986   3.464  0.9467 -2.6844 -0.2070
  2084G12c H00138566   8.630  10.991   3.581 -2.0628  0.8724 -2.1187
  2084G12c O00038567   8.630  10.831   3.441 -0.4199 -0.7320 -0.2811
  2084G12c C01A38568   8.637  10.743   3.558 -0.2857  0.4599 -0.3744
  2084G12c C02K38569   8.532  10.729   3.654  0.6376 -0.2415 -0.6901
  2084G12c O00G38570   8.414  10.812   3.662  0.2187  0.7820  0.4524
  2084G12c C02M38571   8.317  10.760   3.568 -0.4297  0.9663 -0.0813
  2084G12c H01G38572   8.358  10.722   3.474 -2.5413 -1.2674 -0.1425
  2084G12c H01F38573   8.236  10.830   3.546 -1.3719 -1.4334 -4.9776
  2084G12c H01E38574   8.282  10.657   3.576 -4.0529  1.8798 -2.6619
  2084G12c C02J38575   8.536  10.620   3.758  1.5939 -0.0716  0.6602
  2084G12c H01H38576   8.466  10.613   3.839 -1.1957  0.5459 -1.6068
  2084G12c C02I38577   8.638  10.521   3.755  0.7095 -0.1866  0.3159
  2084G12c C02N38578   8.652  10.423   3.857 -1.0708 -0.2554 -1.9453
  2084G12c H01M38579   8.606  10.436   3.954  6.6561  0.7477  1.9650
  2084G12c C02O38580   8.739  10.329   3.845 -0.9203 -1.7634 -0.2784
  2084G12c H01L38581   8.812  10.307   3.769  0.9552 -1.1369  1.3086
  2084G12c C02P38582   8.711  10.209   3.937 -0.1298  0.6519 -1.9091
  2084G12c H01K38583   8.669  10.120   3.890 -2.3087  3.6278 -5.8456
  2084G12c H01J38584   8.816  10.179   3.937 -1.6624 -5.4680 -2.1537
  2084G12c O00H38585   8.719  10.205   4.081  1.0797  0.8824  0.5170
  2084G12c H01I38586   8.630  10.185   4.105  0.9878 -0.3721 -0.7925
  2084G12c C02H38587   8.736  10.556   3.660  0.2071 -0.2738 -1.1996
  2084G12c H01C38588   8.817  10.485   3.663  0.6169  0.2199 -0.4793
  2084G12c C02L38589   8.748  10.664   3.572 -2.2019 -0.4013  1.6953
  2084G12c H01D38590   8.829  10.658   3.501 -1.2754  2.0402  2.5037
  2084G12c C01338591   8.730  11.437   3.357  2.5966  1.0367 -2.0869
  2084G12c H00038592   8.695  11.455   3.458 -4.9980 -9.8186 -1.9225
  2084G12c C01438593   8.743  11.555   3.280  0.1556 -1.2339 -1.5598
  2084G12c C00F38594   8.675  11.673   3.294  2.0440 -0.0194  0.8869
  2084G12c C00H38595   8.791  11.781   3.112 -0.3672  0.0619 -0.0764
  2084G12c C00I38596   8.817  11.897   3.036  0.3418 -0.1707  1.9718
  2084G12c C00J38597   8.872  11.866   2.921 -0.2240  0.9655  0.9256
  2084G12c C00Z38598   8.815  11.406   2.955 -1.1626 -0.2793  1.1694
  2084G12c C00Y38599   8.812  11.282   2.889  1.1099  0.2900 -1.4225
  2084G12c H00638600   8.830  11.206   2.965  1.1829 -1.6197 -3.3043
  2084G12c C00X38601   8.822  11.257   2.748  0.7567  0.8082 -0.4982
  2084G12c O00338602   8.827  11.117   2.701  0.2540  0.1647 -0.5025
  2084G12c C01B38603   8.808  11.002   2.777  1.0687 -0.2086 -0.5309
  2084G12c H00938604   8.720  10.947   2.743 -1.6194  3.7454 -0.3560
  2084G12c H00838605   8.897  10.941   2.762 -0.5942 -2.3685 -2.0275
  2084G12c H00738606   8.796  11.028   2.882  6.0875  3.3262 -0.6243
  2084G12c C00W38607   8.840  11.380   2.680 -2.4215  0.5473  0.2835
  2084G12c O00438608   8.886  11.355   2.547  2.2621  0.0372  0.0418
  2084G12c C01C38609   8.824  11.450   2.465  1.1010 -0.3581 -0.2234
  2084G12c H00A38610   8.811  11.429   2.360  6.3202 -2.4171 -0.5777
  2084G12c C00P38611   8.840  11.597   2.522 -0.7370 -0.7127  0.6937
  2084G12c C00O38612   8.804  11.696   2.434  0.5068 -0.0042  0.8494
  2084G12c C01D38613   8.737  11.673   2.307  0.3651 -0.3472  0.8944
  2084G12c H00S38614   8.725  11.571   2.275  2.9347 -1.1376  2.3387
  2084G12c C01E38615   8.689  11.766   2.209  0.2764 -0.1816  0.3992
  2084G12c O00838616   8.600  11.732   2.105  0.5185  0.8266  0.3218
  2084G12c C01V38617   8.643  11.635   2.005 -0.3470 -1.1927  0.7105
  2084G12c C01Z38618   8.765  11.664   1.911  0.0220 -2.1970 -1.0648
  2084G12c H00R38619   8.846  11.630   1.976 -0.7694 -1.3390  0.3858
  2084G12c H00Q38620   8.805  11.616   1.821  0.8364  1.2829 -2.6308
  2084G12c O00938621   8.763  11.794   1.873 -0.8163 -0.4004 -0.3703
  2084G12c H00P38622   8.711  11.860   1.916  0.2253 -0.5458  1.1656
  2084G12c C01W38623   8.582  11.524   2.004  0.2355  0.5139  0.4956
  2084G12c H00O38624   8.478  11.519   2.034 -1.1716 -4.5213 -4.2964
  2084G12c C01X38625   8.639  11.391   1.977  0.5540  0.9780 -1.1625
  2084G12c H00N38626   8.583  11.375   1.885  6.4631 -1.7597 -4.5667
  2084G12c H00M38627   8.745  11.402   1.954  1.7008 -0.6870  2.8294
  2084G12c C01Y38628   8.643  11.292   2.105  0.7979 -1.7309  1.2989
  2084G12c C02D38629   8.576  11.323   2.228  0.0665  0.8811 -0.8635
  2084G12c H01938630   8.530  11.417   2.252 -2.3189 -1.3369  3.8384
  2084G12c C02C38631   8.573  11.200   2.307  0.7732  0.8199 -0.3128
  2084G12c H01A38632   8.548  11.222   2.410 -2.6079 -5.6115  0.5079
  2084G12c C02B38633   8.638  11.073   2.274 -1.1849  0.7410 -1.0359
  2084G12c O00E38634   8.624  10.938   2.342  0.0311 -1.1274 -1.0145
  2084G12c H01B38635   8.693  10.898   2.292  3.9871  2.0907  1.5688
  2084G12c C02F38636   8.701  11.062   2.147  0.0520 -0.0767 -0.8405
  2084G12c O00F38637   8.746  10.927   2.131  2.6560 -0.7017 -0.4913
  2084G12c C02G38638   8.832  10.907   2.026 -2.0693  0.2252  2.0149
  2084G12c H01738639   8.923  10.956   1.991 -4.5610  0.7455 -4.3947
  2084G12c H01638640   8.777  10.903   1.932 -4.0705  5.3064  2.8103
  2084G12c H01538641   8.872  10.809   2.051  0.6794 -0.5654 -4.5285
  2084G12c C02E38642   8.697  11.170   2.057  0.5214 -1.7452  0.6385
  2084G12c H01838643   8.736  11.142   1.960  3.7125 -2.1560  1.9506
  2084G12c C01F38644   8.694  11.899   2.249 -0.9285 -0.2122  0.6112
  2084G12c C01G38645   8.607  12.008   2.196 -0.1085 -0.6720  0.8327
  2084G12c H00L38646   8.532  11.989   2.121  0.3305 -1.1292  0.5046
  2084G12c C01H38647   8.588  12.133   2.278 -0.0865  0.0987 -1.0704
  2084G12c H00B38648   8.510  12.201   2.247  1.1839  2.8505  1.4893
  2084G12c C01I38649   8.650  12.150   2.399 -0.4431 -0.2210 -0.2770
  2084G12c C01U38650   8.779  11.936   2.358  1.4718  0.6008  0.4003
  2084G12c C00S38651   8.896  11.738   2.873  1.1574 -1.7511  0.2646
  2084G12c C00K38652   8.844  11.956   2.814 -0.4941 -0.0983  2.2568
  2084G12c C00N38653   8.803  11.839   2.460 -0.0889 -1.0359 -0.2183
  2084G12c C00038654   8.772  12.079   2.410  0.5059  2.4290  1.2233
  2084G12c C01J38655   8.650  12.211   2.517 -0.2246 -1.9167 -0.7792
  2084G12c C01K38656   8.545  12.304   2.552  0.3224  0.7677  0.3550
  2084G12c C01P38657   8.506  12.411   2.468  0.8009 -1.0230  0.4767
  2084G12c C01Q38658   8.569  12.449   2.343  0.1460  1.0011  0.7822
  2084G12c H00G38659   8.546  12.441   2.237 -0.3644  7.0415  0.2481
  2084G12c C01R38660   8.682  12.519   2.391  1.3304 -0.9633 -2.1616
  2084G12c H00F38661   8.705  12.525   2.496 -2.8835  6.6031 -1.3106
  2084G12c C01S38662   8.764  12.615   2.295  0.2261  1.4904 -0.0526
  2084G12c H00E38663   8.675  12.657   2.249  1.5773  2.0611 -2.2297
  2084G12c H00D38664   8.834  12.694   2.322 -1.2503  3.0487 -0.7195
  2084G12c O00538665   8.806  12.547   2.181 -0.6870  0.3452 -0.4940
  2084G12c H00C38666   8.766  12.462   2.181 -3.9487  1.7914  1.0158
  2084G12c C01O38667   8.381  12.488   2.505  0.6983  0.8711 -0.0302
  2084G12c H00H38668   8.332  12.553   2.434  0.2738 -1.6328 -2.1328
  2084G12c C01N38669   8.315  12.453   2.621  1.2064  1.0988 -0.1199
  2084G12c O00638670   8.199  12.525   2.671  0.1410 -0.2004  0.0838
  2084G12c C01T38671   8.206  12.675   2.663 -1.1413  1.9165  1.3309
  2084G12c H00K38672   8.261  12.711   2.749 -3.8390  0.9087  3.5690
  2084G12c H00J38673   8.097  12.677   2.668 -1.1693  2.1363  0.7409
  2084G12c H00I38674   8.209  12.699   2.556  3.2565  2.4759  1.5189
  2084G12c C01M38675   8.386  12.363   2.704  1.0930  0.3555  0.4282
  2084G12c C02038676   8.768  12.076   2.847  0.8981 -0.8679 -0.6379
  2084G12c C02138677   8.729  12.112   2.976  0.2503 -0.7606  0.1238
  2084G12c C01L38678   8.511  12.300   2.681 -0.0972 -0.7237 -0.7476
  2084G12c O00738679   8.318  12.296   2.806 -0.5347 -1.7497  0.3402
  2084G12c C02238680   8.625  12.171   3.010  0.9264  0.1104 -1.0307
  2084G12c C02338681   8.749  12.004   3.067  0.5417  0.3549 -0.2364
  2084G12c C00G38682   8.687  11.783   3.210  1.6463  0.7388 -0.6961
  2084G12c C00E38683   8.581  11.686   3.398  0.6687  0.6392 -0.9511
  2084G12c O00A38684   8.501  11.578   3.460 -0.3455 -1.0343 -0.5042
  2084G12c C02438685   8.425  11.502   3.362  0.3929 -0.1296 -0.0979
  2084G12c H00V38686   8.399  11.575   3.286 -2.0120  1.6174  2.3007
  2084G12c H00U38687   8.339  11.493   3.429 -2.6857 -1.0228 -4.0072
  2084G12c H00T38688   8.460  11.405   3.328 -2.6079 -0.2721 -3.0786
  2094G12c C00D38689   8.331  11.728   7.580  2.0895 -0.9574  1.9703
  2094G12c O00B38690   8.359  11.603   7.613  1.2174  0.6690 -0.7829
  2094G12c C02538691   8.373  11.545   7.728 -0.0674 -0.4940 -0.6023
  2094G12c C02638692   8.242  11.509   7.789  1.9280  0.5417 -0.3879
  2094G12c H00Y38693   8.213  11.530   7.892 -2.5326 -2.1003 -0.9673
  2094G12c H00X38694   8.158  11.565   7.747 -0.1968 -2.7616 -0.7311
  2094G12c O00C38695   8.239  11.358   7.767 -0.1431  1.1814  0.2291
  2094G12c H00W38696   8.273  11.311   7.842 -6.6509  1.2797  3.5919
  2094G12c C02738697   8.500  11.548   7.794  0.0394  0.5192 -0.2127
  2094G12c O00D38698   8.618  11.599   7.741  0.0691  0.5032 -1.3522
  2094G12c H00Z38699   8.560  11.617   7.669  0.6868  1.9883 -1.5086
  2094G12c C02838700   8.534  11.424   7.875 -0.2880  0.1547  0.8103
  2094G12c C02938701   8.477  11.420   7.998 -0.0913 -0.3076 -0.5864
  2094G12c H01038702   8.410  11.502   8.020 -4.8205 -4.6109  2.1409
  2094G12c C02T38703   8.497  11.318   8.086  0.6091  0.4099 -0.5947
  2094G12c H01O38704   8.455  11.308   8.185  0.7915  1.3422 -0.4135
  2094G12c C02S38705   8.599  11.234   8.051  0.3318 -0.0281  0.3957
  2094G12c O00J38706   8.632  11.157   8.166 -0.6905 -2.4043 -0.1920
  2094G12c H01P38707   8.700  11.099   8.134  0.0021  1.0579 -5.5468
  2094G12c C02R38708   8.681  11.232   7.940  0.4345 -0.1674 -0.4866
  2094G12c O00I38709   8.771  11.130   7.932  0.0342 -0.2077 -0.7572
  2094G12c C02Q38710   8.898  11.132   7.875  1.1357 -0.7635  1.5339
  2094G12c H01N38711   8.911  11.217   7.808 -7.5579 -0.7547 -0.8562
  2094G12c H01R38712   8.973  11.121   7.953 -2.9566 -4.2867  5.2798
  2094G12c H01Q38713   8.902  11.058   7.794 -0.7016  3.8932 -3.1532
  2094G12c C02A38714   8.634  11.323   7.836  2.6758 -1.9783 -0.6258
  2094G12c H01138715   8.643  11.336   7.729 -4.3536 -0.4806 -1.2901
  2094G12c C00C38716   8.355  11.817   7.677 -0.1898 -0.0913  1.3495
  2094G12c H01238717   8.395  11.773   7.767 -2.3989 -0.1629  2.3243
  2094G12c C00B38718   8.332  11.961   7.666 -0.2307 -0.7040 -0.2003
  2094G12c C00A38719   8.317  12.051   7.767  0.5045 -0.3849 -0.6880
  2094G12c C00938720   8.307  12.040   7.904  0.1121  0.3400  0.9890
  2094G12c C00838721   8.275  11.941   8.003  1.6472  1.5711  0.8035
  2094G12c H01338722   8.290  11.839   7.971  0.6410  1.2889  1.2022
  2094G12c C00738723   8.241  11.979   8.131  0.2260  0.1278  0.6327
  2094G12c H01438724   8.250  11.915   8.218  3.1823 -2.0222 -1.1501
  2094G12c C00638725   8.192  12.102   8.160  0.0104  0.6419  0.8234
  2094G12c C00538726   8.223  12.195   8.075  0.4743  2.3050 -1.4338
  2094G12c C00438727   8.167  12.334   8.081  0.0874 -2.7200 -0.2327
  2094G12c C00338728   8.161  12.408   7.965  0.1957 -0.8632  2.4362
  2094G12c C00238729   8.100  12.542   7.978  0.7142  0.0062 -0.8166
  2094G12c C00138730   8.111  12.661   7.911 -0.1864 -0.4290  0.3391
  2094G12c C00M38731   8.068  12.645   7.777 -1.4515  0.6845 -1.2952
  2094G12c C00L38732   8.124  12.556   7.676 -1.6866 -0.3125 -1.4904
  2094G12c C00R38733   8.094  12.545   7.546  0.3424 -0.3169 -0.8427
  2094G12c C00Q38734   7.998  12.607   7.460 -0.3519 -0.7072  1.0364
  2094G12c C00V38735   7.993  12.515   7.343  0.3154  0.8503  1.0745
  2094G12c C00U38736   8.064  12.388   7.312 -0.4016 -2.5377  0.3032
  2094G12c C00T38737   8.145  12.343   7.410 -0.0293  0.8667  0.5158
  2094G12c C01638738   8.184  12.201   7.420 -2.2669  0.5215  0.2130
  2094G12c C01538739   8.168  12.118   7.316  0.1862 -0.1565 -0.4664
  2094G12c C01038740   8.111  12.181   7.201  1.6114 -0.6764  0.4585
  2094G12c C01138741   8.109  12.089   7.100  0.2129 -2.3650  0.5670
  2094G12c H00538742   8.078  12.136   7.008 -1.1225 -1.6934  1.3416
  2094G12c C01238743   8.104  11.957   7.121 -0.3130 -0.1976  0.8327
  2094G12c C01738744   8.077  11.855   7.029 -0.7629 -0.8619  1.4125
  2094G12c O00238745   8.167  11.780   6.960  0.4834 -0.9940  0.9237
  2094G12c H00438746   8.138  11.760   6.873 -7.2756  2.0983  2.3314
  2094G12c C01838747   7.936  11.828   7.022 -0.1525 -1.5059 -0.4966
  2094G12c O00138748   7.856  11.883   7.106  1.0155 -1.8699  0.2783
  2094G12c H00338749   7.873  11.958   7.161  0.9557 -3.6709  2.8623
  2094G12c C01938750   7.879  11.716   6.940  0.5675 -0.6215 -0.7043
  2094G12c H00238751   7.952  11.639   6.967 -0.7971 -3.6190 -5.0248
  2094G12c H00138752   7.780  11.678   6.965  1.2920 -4.4951 -3.2942
  2094G12c O00038753   7.901  11.781   6.814 -0.1504  0.5415 -0.8730
  2094G12c C01A38754   7.819  11.718   6.736 -0.7037 -0.5319 -0.5707
  2094G12c C02K38755   7.851  11.598   6.681 -0.7282  0.5962  0.7276
  2094G12c O00G38756   7.977  11.525   6.689 -1.7476  0.9259  0.1448
  2094G12c C02M38757   8.042  11.462   6.562 -1.8336 -0.0611 -0.5602
  2094G12c H01G38758   7.974  11.378   6.550 -0.2339 -2.4575  5.4761
  2094G12c H01F38759   8.148  11.452   6.584 -0.8612  3.2610 -3.2492
  2094G12c H01E38760   8.012  11.524   6.477  4.0030  3.6431 -0.1733
  2094G12c C02J38761   7.734  11.558   6.598 -0.6077 -0.6146 -0.8726
  2094G12c H01H38762   7.756  11.458   6.563  4.5970  0.1577 -0.2757
  2094G12c C02I38763   7.601  11.629   6.587  1.6206  0.2223  0.5250
  2094G12c C02N38764   7.482  11.552   6.557  0.7482  1.1347  0.8311
  2094G12c H01M38765   7.484  11.462   6.498  1.6955  1.7549 -0.0873
  2094G12c C02O38766   7.352  11.586   6.590 -0.8041 -0.2694  0.9968
  2094G12c H01L38767   7.330  11.680   6.637 -1.3656 -0.4781  1.1594
  2094G12c C02P38768   7.229  11.511   6.565  2.1824 -1.3439  0.5129
  2094G12c H01K38769   7.268  11.427   6.506  4.8931  0.8336 -0.9166
  2094G12c H01J38770   7.206  11.487   6.669 -2.3971  3.4058  0.7333
  2094G12c O00H38771   7.104  11.589   6.523 -0.4132  0.1748 -1.5918
  2094G12c H01I38772   7.092  11.554   6.436  0.4322  0.9343 -2.0190
  2094G12c C02H38773   7.594  11.764   6.628 -0.2454 -1.7708  1.7269
  2094G12c H01C38774   7.504  11.823   6.619 -1.2307 -3.5424 -0.6872
  2094G12c C02L38775   7.708  11.804   6.701 -0.9785  0.2627 -0.9913
  2094G12c H01D38776   7.718  11.905   6.739 -1.2429 -1.0184  2.6750
  2094G12c C01338777   8.129  11.905   7.241 -0.9604  0.9141  1.1292
  2094G12c H00038778   8.114  11.798   7.233  0.3123  0.7210  1.1561
  2094G12c C01438779   8.202  11.984   7.333 -1.0072  1.0177  1.4428
  2094G12c C00F38780   8.244  11.929   7.453 -0.7970 -1.1431 -0.2696
  2094G12c C00H38781   8.239  12.157   7.538 -0.5137  0.5069  0.6158
  2094G12c C00I38782   8.295  12.252   7.625 -0.0476 -0.6869  0.8564
  2094G12c C00J38783   8.240  12.385   7.608  0.2738 -0.3500 -0.0964
  2094G12c C00Z38784   8.040  12.306   7.201 -0.6674  0.3615 -1.2367
  2094G12c C00Y38785   7.975  12.355   7.099  1.8330 -1.6390 -0.6109
  2094G12c H00638786   7.963  12.295   7.009  0.2288  0.8039 -2.0881
  2094G12c C00X38787   7.920  12.486   7.114 -0.3279  0.4399 -0.0327
  2094G12c O00338788   7.883  12.535   6.981 -0.0217  0.0684  1.4726
  2094G12c C01B38789   7.813  12.438   6.912  0.5966  0.3855  0.9973
  2094G12c H00938790   7.774  12.364   6.981  2.4685  2.4401  4.3952
  2094G12c H00838791   7.866  12.410   6.821 -2.1313  5.4263 -2.3786
  2094G12c H00738792   7.725  12.495   6.883 -2.2846 -3.4699  1.7165
  2094G12c C00W38793   7.901  12.554   7.243 -1.6892  1.0187 -0.0636
  2094G12c O00438794   7.807  12.659   7.257 -0.0205 -1.4924 -1.2388
  2094G12c C01C38795   7.805  12.718   7.389  0.8506 -0.9685  2.1621
  2094G12c H00A38796   7.756  12.811   7.411  0.2689 -1.8583  4.7193
  2094G12c C00P38797   7.900  12.694   7.492  2.1844 -1.7250 -0.7539
  2094G12c C00O38798   7.875  12.736   7.630  2.1314 -0.5156  0.2964
  2094G12c C01D38799   7.768  12.827   7.646  1.1067 -1.8699 -0.6499
  2094G12c H00S38800   7.700  12.845   7.564  0.5068  5.6896  1.1786
  2094G12c C01E38801   7.709  12.855   7.782 -1.2461 -0.3915  1.1248
  2094G12c O00838802   7.579  12.880   7.797 -0.9956 -0.1129 -0.3709
  2094G12c C01V38803   7.497  12.894   7.691  1.3836  0.4182 -0.6569
  2094G12c C01Z38804   7.458  12.771   7.604  0.3982 -1.3918  1.5192
  2094G12c H00R38805   7.534  12.701   7.570  1.4033  0.2478  0.2400
  2094G12c H00Q38806   7.364  12.719   7.621 -2.2045  2.3652 -0.3212
  2094G12c O00938807   7.394  12.804   7.487 -0.6001  1.2764 -0.0867
  2094G12c H00P38808   7.339  12.731   7.462  3.6154 -0.4357 -5.5318
  2094G12c C01W38809   7.477  13.018   7.666  0.1765  0.4230 -0.0829
  2094G12c H00O38810   7.409  13.021   7.583  0.5210 -3.6994 -0.6312
  2094G12c C01X38811   7.525  13.153   7.734  0.4550  2.1782 -0.3921
  2094G12c H00N38812   7.599  13.222   7.693  0.6324  1.4494 -1.3370
  2094G12c H00M38813   7.457  13.189   7.657 -0.7935 -4.2370 -2.6167
  2094G12c C01Y38814   7.439  13.216   7.829  0.2577 -1.5903 -0.7774
  2094G12c C02D38815   7.486  13.343   7.863 -0.5162 -1.4049  1.5970
  2094G12c H01938816   7.562  13.401   7.813 -1.8175  0.7680  2.0633
  2094G12c C02C38817   7.387  13.412   7.927  1.2324 -1.1188  0.1364
  2094G12c H01A38818   7.397  13.519   7.939  4.4286 -1.4055  0.2958
  2094G12c C02B38819   7.265  13.345   7.976  0.5335 -1.9262 -0.0926
  2094G12c O00E38820   7.169  13.430   8.030  0.3031  0.9442 -1.1644
  2094G12c H01B38821   7.132  13.402   8.112  3.7094 -0.5053 -0.0053
  2094G12c C02F38822   7.219  13.219   7.938 -0.1499 -1.8577  0.1728
  2094G12c O00F38823   7.093  13.169   7.958 -1.7350 -0.0048 -1.4568
  2094G12c C02G38824   7.020  13.097   7.858  0.3406 -0.1082 -0.6407
  2094G12c H01738825   6.941  13.164   7.826  2.9201  0.9293 -5.2522
  2094G12c H01638826   7.015  12.989   7.875 -2.3151  0.8295  6.2617
  2094G12c H01538827   7.093  13.073   7.781  3.2009 -2.8239  2.7134
  2094G12c C02E38828   7.319  13.141   7.883 -1.0659 -1.0854 -0.8052
  2094G12c H01838829   7.318  13.039   7.849  0.8370 -1.0150 -1.0902
  2094G12c C01F38830   7.785  12.813   7.892 -0.7557  1.0567  2.4251
  2094G12c C01G38831   7.743  12.790   8.030  0.7001  0.3445  0.4997
  2094G12c H00L38832   7.642  12.799   8.069  1.1597  0.9425  1.6005
  2094G12c C01H38833   7.834  12.737   8.129 -0.7798 -0.3606 -1.0774
  2094G12c H00B38834   7.803  12.706   8.228  0.3998 -0.7196 -0.8132
  2094G12c C01I38835   7.969  12.712   8.093  0.6762 -1.1468  0.1186
  2094G12c C01U38836   7.922  12.787   7.867 -1.1079  1.8452  0.2225
  2094G12c C00S38837   8.166  12.433   7.509  0.9906 -0.1575  0.0307
  2094G12c C00K38838   8.215  12.455   7.728 -0.9058 -0.6800 -0.6747
  2094G12c C00N38839   7.957  12.730   7.742  0.9348 -1.4095 -0.6091
  2094G12c C00038840   8.018  12.759   7.969 -0.1139  0.1141  0.1352
  2094G12c C01J38841   8.054  12.590   8.100  0.3582  0.8245 -0.6891
  2094G12c C01K38842   8.049  12.502   8.216  0.9432 -1.3904 -0.1866
  2094G12c C01P38843   8.005  12.528   8.355 -0.1893  0.7471 -0.9815
  2094G12c C01Q38844   8.015  12.664   8.404 -1.4186 -1.7947  0.2148
  2094G12c H00G38845   8.025  12.739   8.328 -5.9709  0.1559  1.3535
  2094G12c C01R38846   7.989  12.701   8.531 -1.6078 -0.5285 -0.8379
  2094G12c H00F38847   7.976  12.648   8.624  2.7305  3.1360  2.0766
  2094G12c C01S38848   8.001  12.852   8.573 -0.1566 -1.1808  1.8626
  2094G12c H00E38849   8.097  12.885   8.533 -1.5482 -4.4660 -5.0166
  2094G12c H00D38850   7.913  12.879   8.514 -1.6294-13.6271 -3.2354
  2094G12c O00538851   7.990  12.884   8.719  1.4138 -1.7018 -1.6216
  2094G12c H00C38852   7.941  12.815   8.761 -4.8459  2.6118 -1.1710
  2094G12c C01O38853   8.011  12.432   8.459 -1.2107  1.1064 -0.0300
  2094G12c H00H38854   8.013  12.443   8.567  1.5855  2.2247 -0.1380
  2094G12c C01N38855   8.016  12.301   8.420 -1.5444 -1.1882 -0.1456
  2094G12c O00638856   8.040  12.205   8.507  0.3123  0.3052  0.5309
  2094G12c C01T38857   7.963  12.079   8.481  0.8041  2.1119 -0.0175
  2094G12c H00K38858   8.004  11.985   8.517  0.3110 -0.2076 -5.0957
  2094G12c H00J38859   7.947  12.034   8.384 -5.5741  3.2730  0.2698
  2094G12c H00I38860   7.858  12.087   8.512  0.5328  1.7096 -0.8331
  2094G12c C01M38861   8.067  12.270   8.286 -1.4327  1.0019  1.0108
  2094G12c C02038862   8.237  12.382   7.854 -0.3897  1.8290  0.1537
  2094G12c C02138863   8.313  12.262   7.860  1.2291  0.8564 -0.4169
  2094G12c C01L38864   8.099  12.369   8.198  1.4019  0.6216  0.4230
  2094G12c O00738865   8.138  12.153   8.277 -0.2878 -0.8578 -0.7186
  2094G12c C02238866   8.330  12.174   7.960  1.7004  1.0142 -0.6688
  2094G12c C02338867   8.329  12.186   7.741 -0.0165 -0.5633 -0.3380
  2094G12c C00G38868   8.278  12.020   7.547  0.6492  0.1588  0.6359
  2094G12c C00E38869   8.279  11.796   7.462  2.1592  0.1750  0.1479
  2094G12c O00A38870   8.270  11.721   7.358 -0.2190 -0.1490 -1.6329
  2094G12c C02438871   8.384  11.736   7.266  1.6272 -1.8450 -1.3903
  2094G12c H00V38872   8.405  11.676   7.177  5.3512  1.8189 -3.1534
  2094G12c H00U38873   8.453  11.700   7.343 -0.5763 -2.0476  0.5315
  2094G12c H00T38874   8.382  11.845   7.267  2.5952 -1.7436  4.7928
  2104G12c C00D38875   4.751   5.275   2.971  2.5806  1.0634  1.3364
  2104G12c O00B38876   4.734   5.348   2.847 -0.0875  0.2312 -0.0268
  2104G12c C02538877   4.780   5.483   2.825  1.1264  0.0489 -0.6517
  2104G12c C02638878   4.895   5.549   2.861  0.1026  1.1095  0.6700
  2104G12c H00Y38879   4.938   5.566   2.960  5.3524 -3.6584 -0.5056
  2104G12c H00X38880   4.922   5.607   2.773 -4.2183  2.7124  0.3144
  2104G12c O00C38881   4.997   5.463   2.852  0.5955 -0.0957  0.6451
  2104G12c H00W38882   5.061   5.484   2.918  2.9132 -8.6371  1.6171
  2104G12c C02738883   4.699   5.565   2.737 -2.4631 -1.1213  1.8443
  2104G12c O00D38884   4.720   5.701   2.708 -0.2000  0.3206 -0.1825
  2104G12c H00Z38885   4.639   5.744   2.689 -2.7848 -5.0699 -2.2721
  2104G12c C02838886   4.611   5.524   2.661 -1.4661 -1.6846  1.9894
  2104G12c C02938887   4.484   5.543   2.684  0.1295 -0.0010  1.1298
  2104G12c H01038888   4.463   5.629   2.745  1.1074  0.7862  0.3583
  2104G12c C02T38889   4.387   5.484   2.600 -0.9755 -0.8147 -0.8044
  2104G12c H01O38890   4.301   5.504   2.661  4.2695  5.5677  5.3896
  2104G12c C02S38891   4.422   5.403   2.475  0.4556  1.3614  0.2711
  2104G12c O00J38892   4.327   5.371   2.388  0.0958 -0.8407 -0.1501
  2104G12c H01P38893   4.360   5.378   2.300  4.6101 -1.9328  1.2831
  2104G12c C02R38894   4.550   5.359   2.470  0.8346  1.3441 -0.0733
  2104G12c O00I38895   4.593   5.287   2.362 -1.5885 -1.2639  0.8315
  2104G12c C02Q38896   4.700   5.206   2.393  0.4669  0.5206  0.4968
  2104G12c H01N38897   4.672   5.118   2.335  2.3280 -0.3293  0.8654
  2104G12c H01R38898   4.723   5.157   2.487 -0.7203  5.9313  3.8383
  2104G12c H01Q38899   4.789   5.218   2.332  2.3505  3.7973  3.7309
  2104G12c C02A38900   4.640   5.423   2.556 -0.5695 -0.1336  1.4520
  2104G12c H01138901   4.729   5.366   2.534 -2.5253 -0.6597 -6.2504
  2104G12c C00C38902   4.786   5.348   3.082  1.0442  0.6646  0.9646
  2104G12c H01238903   4.817   5.452   3.085  2.6136  0.3071 -1.7902
  2104G12c C00B38904   4.758   5.309   3.212  1.1819  0.3341  1.7933
  2104G12c C00A38905   4.764   5.389   3.334  0.8639  0.4840  1.2684
  2104G12c C00938906   4.850   5.503   3.377  1.1095 -0.9165 -0.0641
  2104G12c C00838907   4.963   5.578   3.314 -0.1232 -0.5718 -0.0659
  2104G12c H01338908   5.007   5.534   3.226 -4.2643 -1.8770 -1.5985
  2104G12c C00738909   5.054   5.668   3.395  0.5187 -1.0209  0.2692
  2104G12c H01438910   5.144   5.700   3.343 -2.3012  1.6547 -3.1834
  2104G12c C00638911   5.028   5.671   3.528 -1.2484 -0.1161 -0.1233
  2104G12c C00538912   4.916   5.592   3.589 -0.8835 -0.9887  0.0635
  2104G12c C00438913   4.939   5.555   3.723  0.9405  1.3456  1.1551
  2104G12c C00338914   4.866   5.438   3.770  1.5662 -0.7274  0.2783
  2104G12c C00238915   4.896   5.403   3.923  0.0982  0.9150 -0.2767
  2104G12c C00138916   4.864   5.289   3.993  0.5897 -0.3540  0.9960
  2104G12c C00M38917   4.845   5.143   3.939 -0.0236  0.3034 -2.3209
  2104G12c C00L38918   4.822   5.131   3.801 -0.3449  0.0260 -0.1328
  2104G12c C00R38919   4.804   5.002   3.731  0.3095 -0.9076  1.1207
  2104G12c C00Q38920   4.880   4.886   3.757  1.1292  0.0530  1.5677
  2104G12c C00V38921   4.873   4.800   3.638 -0.3768 -0.1211  1.9559
  2104G12c C00U38922   4.825   4.836   3.497  0.5997  1.6857  0.2475
  2104G12c C00T38923   4.759   4.954   3.488 -0.7133  1.2286 -1.4218
  2104G12c C01638924   4.723   4.994   3.375 -0.3614 -0.5388  0.1809
  2104G12c C01538925   4.699   4.909   3.272 -0.2582 -1.2013 -0.1853
  2104G12c C01038926   4.704   4.771   3.299  0.1472  1.0695 -0.2135
  2104G12c C01138927   4.651   4.673   3.199  1.0071 -0.0189  0.2644
  2104G12c H00538928   4.646   4.567   3.218  4.2801 -0.2554  0.1290
  2104G12c C01238929   4.597   4.731   3.085 -0.6915 -0.3133  2.1899
  2104G12c C01738930   4.524   4.650   3.001 -1.7178  0.7841 -0.1483
  2104G12c O00238931   4.589   4.603   2.878 -0.8827 -0.1551 -0.3457
  2104G12c H00438932   4.652   4.533   2.895 -1.0819 -1.3849 -4.2151
  2104G12c C01838933   4.386   4.641   3.012 -0.7010  0.2799 -2.1444
  2104G12c O00138934   4.317   4.591   2.917  0.2721 -0.3803 -0.6388
  2104G12c H00338935   4.230   4.582   2.955  0.1182 -2.1805 -1.3736
  2104G12c C01938936   4.318   4.730   3.104 -1.2057 -0.9993 -0.5478
  2104G12c H00238937   4.363   4.693   3.196  2.4265 -1.7811 -2.5285
  2104G12c H00138938   4.331   4.837   3.088 -0.0021 -0.9450  0.7375
  2104G12c O00038939   4.184   4.757   3.111 -0.1971  0.8912  1.3915
  2104G12c C01A38940   4.145   4.818   3.225 -1.0771  0.0767 -0.8274
  2104G12c C02K38941   4.009   4.841   3.246  1.1151 -0.4296  0.1072
  2104G12c O00G38942   3.934   4.811   3.138 -0.4888 -0.0152  0.4887
  2104G12c C02M38943   3.858   4.691   3.138  0.3981  0.2249 -2.1771
  2104G12c H01G38944   3.771   4.709   3.200  1.4664  0.0066 -0.5708
  2104G12c H01F38945   3.856   4.716   3.032 -4.2906 -1.8147 -2.6746
  2104G12c H01E38946   3.918   4.601   3.156 -3.7919 -2.3806 -0.3678
  2104G12c C02J38947   3.952   4.915   3.354  0.7424  1.1700 -0.7943
  2104G12c H01H38948   3.845   4.895   3.351  1.5992 -6.2925  3.9232
  2104G12c C02I38949   4.047   4.972   3.444  0.4003  0.5528 -0.7393
  2104G12c C02N38950   4.021   5.020   3.583  0.4220 -1.5739 -0.4712
  2104G12c H01M38951   3.959   4.948   3.634 -2.2983 -0.1467 -1.6597
  2104G12c C02O38952   4.045   5.148   3.622  0.3205 -0.9137 -1.4040
  2104G12c H01L38953   4.000   5.181   3.715 -1.6411  0.6921 -2.8742
  2104G12c C02P38954   4.113   5.265   3.537  1.3418  0.5653  1.5247
  2104G12c H01K38955   4.158   5.251   3.439 -4.9802 -6.6015 -0.8684
  2104G12c H01J38956   4.023   5.327   3.529 -1.4570 -3.5551 -0.6871
  2104G12c O00H38957   4.200   5.311   3.634 -0.6301  0.1696  0.1158
  2104G12c H01I38958   4.212   5.396   3.595 -2.7435  0.0708 -0.8305
  2104G12c C02H38959   4.186   4.940   3.426  1.4400 -2.3677 -1.2580
  2104G12c H01C38960   4.246   4.988   3.502 -0.7550 -1.3658 -0.1353
  2104G12c C02L38961   4.232   4.882   3.316 -0.0271  1.1285  0.1105
  2104G12c H01D38962   4.336   4.880   3.289  0.5329  1.0447  2.2589
  2104G12c C01338963   4.633   4.858   3.030 -0.7511 -1.1677 -0.0544
  2104G12c H00038964   4.601   4.882   2.929 -6.0972 -3.4798  0.9463
  2104G12c C01438965   4.668   4.948   3.144 -0.3112 -1.7690  0.7696
  2104G12c C00F38966   4.709   5.089   3.118 -0.4481 -0.6740 -0.8632
  2104G12c C00H38967   4.690   5.127   3.363 -0.6604  0.2629  0.6424
  2104G12c C00I38968   4.669   5.221   3.479  0.4716  2.1241  1.4761
  2104G12c C00J38969   4.693   5.149   3.606  1.3195  0.2446  0.4050
  2104G12c C00Z38970   4.781   4.737   3.411 -0.1615  1.0025  0.5141
  2104G12c C00Y38971   4.837   4.601   3.434 -2.4212 -0.3909  1.8107
  2104G12c H00638972   4.816   4.518   3.367  2.9822  0.9423 -1.9193
  2104G12c C00X38973   4.905   4.564   3.550 -1.4125 -1.5438  3.0066
  2104G12c O00338974   4.948   4.446   3.586  0.2707  0.5882  0.0111
  2104G12c C01B38975   4.878   4.363   3.673 -0.0682  0.1035 -0.5320
  2104G12c H00938976   4.839   4.423   3.755 -1.3075  3.2381 -3.2967
  2104G12c H00838977   4.814   4.328   3.592 -5.0443 -2.4811  4.1805
  2104G12c H00738978   4.925   4.288   3.737  1.2025 -1.7846 -3.5647
  2104G12c C00W38979   4.917   4.667   3.650 -0.8794 -0.4139 -0.6660
  2104G12c O00438980   4.994   4.629   3.762  0.2121  0.6378  0.4836
  2104G12c C01C38981   5.057   4.739   3.816  0.0386 -1.5696  0.5006
  2104G12c H00A38982   5.101   4.726   3.914  2.4793  0.5209 -0.2533
  2104G12c C00P38983   4.988   4.870   3.836 -0.0793 -0.0069 -0.1144
  2104G12c C00O38984   5.029   4.968   3.936  1.1228  0.9423  0.7557
  2104G12c C01D38985   5.167   4.955   3.975  0.9851  0.0172  0.9893
  2104G12c H00S38986   5.220   4.866   3.944  3.6131 -0.6248  6.6661
  2104G12c C01E38987   5.232   5.041   4.074 -0.1112 -0.2649  1.5569
  2104G12c O00838988   5.360   5.036   4.126 -0.2466 -0.1682 -0.6257
  2104G12c C01V38989   5.404   4.905   4.133 -1.4101 -0.0221  0.5724
  2104G12c C01Z38990   5.387   4.851   4.270 -0.4211 -1.8090  0.2294
  2104G12c H00R38991   5.335   4.756   4.265  0.5454 -2.3947  0.9996
  2104G12c H00Q38992   5.474   4.806   4.319  0.0733 -1.5817 -0.4322
  2104G12c O00938993   5.318   4.937   4.363  0.6127  0.4087  1.4379
  2104G12c H00P38994   5.226   4.936   4.385  1.0469  0.8662  3.3627
  2104G12c C01W38995   5.474   4.824   4.055 -0.7541  0.1833 -0.2428
  2104G12c H00O38996   5.515   4.851   3.959  2.5353 -0.5941  0.8921
  2104G12c C01X38997   5.504   4.675   4.069  1.0542 -1.3360 -0.1873
  2104G12c H00N38998   5.432   4.621   4.130 -2.6761 -0.6389 -3.7800
  2104G12c H00M38999   5.513   4.636   3.968 -0.1167 -1.4322 -0.2544
  2104G12c C01Y39000   5.623   4.628   4.152 -0.9494  0.7631 -1.3267
  2104G12c C02D39001   5.639   4.489   4.173 -0.4314  0.4144  0.9109
  2104G12c H01939002   5.590   4.421   4.105  1.0333  1.3842 -1.1839
  2104G12c C02C39003   5.719   4.434   4.267 -1.2378  1.2083 -1.0224
  2104G12c H01A39004   5.733   4.327   4.259  4.7929  1.9554 -3.0220
  2104G12c C02B39005   5.768   4.522   4.364 -2.2806  1.1646 -0.3423
  2104G12c O00E39006   5.825   4.461   4.475  0.2967 -0.0406  0.8862
  2104G12c H01B39007   5.845   4.516   4.548 -2.4472 -0.0853  1.7502
  2104G12c C02F39008   5.789   4.650   4.345  1.8419 -1.0244 -0.8065
  2104G12c O00F39009   5.857   4.725   4.430 -0.5324 -0.9813 -0.2981
  2104G12c C02G39010   5.851   4.876   4.431  0.5319  0.1566  0.6659
  2104G12c H01739011   5.905   4.949   4.371 -1.2209  4.5134  4.1075
  2104G12c H01639012   5.822   4.915   4.529  1.2850  6.8932 -1.5829
  2104G12c H01539013   5.761   4.903   4.376  1.1445  0.7644 -0.0401
  2104G12c C02E39014   5.721   4.711   4.226 -2.6640 -0.4955 -0.1972
  2104G12c H01839015   5.737   4.813   4.196  2.7208 -1.0579  0.2626
  2104G12c C01F39016   5.156   5.150   4.120  2.0823  0.3574 -0.4753
  2104G12c C01G39017   5.222   5.261   4.177 -0.8118 -0.3135  1.1704
  2104G12c H00L39018   5.318   5.263   4.226 -2.5150 -0.7536  4.6944
  2104G12c C01H39019   5.149   5.385   4.154  0.9243 -0.5940 -1.8863
  2104G12c H00B39020   5.227   5.459   4.160  2.0428 -1.3012 -5.7824
  2104G12c C01I39021   5.023   5.406   4.116  1.3075  2.1059  0.6604
  2104G12c C01U39022   5.020   5.172   4.090 -0.9222  0.3067  0.0820
  2104G12c C00S39023   4.722   5.014   3.615 -1.1961 -0.1662 -1.3797
  2104G12c C00K39024   4.747   5.223   3.718  1.2886  0.8168  0.1968
  2104G12c C00N39025   4.969   5.087   3.989 -1.1743  1.9468  1.0238
  2104G12c C00039026   4.949   5.292   4.097  1.5109 -0.4249 -2.0291
  2104G12c C01J39027   4.999   5.483   4.005  0.0917 -0.7528  1.0068
  2104G12c C01K39028   5.051   5.610   3.961  0.6042 -0.2735  1.0998
  2104G12c C01P39029   5.128   5.718   4.037 -0.5312 -1.8829  0.8060
  2104G12c C01Q39030   5.158   5.712   4.179 -1.9029  0.3797 -0.8097
  2104G12c H00G39031   5.071   5.684   4.237 -3.6305  4.7410 -1.1062
  2104G12c C01R39032   5.284   5.737   4.237  0.9020 -1.2514  0.3705
  2104G12c H00F39033   5.367   5.748   4.169  1.4968  1.4272  1.4200
  2104G12c C01S39034   5.308   5.677   4.368  0.5744  0.2612 -0.6575
  2104G12c H00E39035   5.352   5.745   4.441  6.6308 -4.2241  0.2741
  2104G12c H00D39036   5.208   5.646   4.396  2.1035 -3.2981  1.1865
  2104G12c O00539037   5.392   5.557   4.386 -0.2393 -0.0161 -1.9267
  2104G12c H00C39038   5.409   5.561   4.479  1.6570 -5.4730 -1.8370
  2104G12c C01O39039   5.183   5.832   3.965 -1.6617 -0.1844 -0.1560
  2104G12c H00H39040   5.212   5.920   4.021 -0.3102 -2.7575  3.3476
  2104G12c C01N39041   5.175   5.839   3.832  0.7691 -0.2720  0.4040
  2104G12c O00639042   5.263   5.913   3.758 -0.2379  1.2810 -0.7709
  2104G12c C01T39043   5.319   6.031   3.838  0.6397  0.9292 -2.0912
  2104G12c H00K39044   5.222   6.071   3.867 -1.0962 -2.3778 -3.0206
  2104G12c H00J39045   5.382   5.992   3.919 -1.3828  3.3042  0.7250
  2104G12c H00I39046   5.338   6.089   3.748 -3.6450  4.3634 -0.9504
  2104G12c C01M39047   5.102   5.745   3.758 -0.4095  1.2466  0.4392
  2104G12c C02039048   4.758   5.364   3.700  1.0668 -1.1199 -1.3500
  2104G12c C02139049   4.730   5.440   3.573 -0.4791  0.6514  1.9589
  2104G12c C01L39050   5.045   5.610   3.811 -0.6873  0.6599 -0.3740
  2104G12c O00739051   5.103   5.753   3.618 -0.7104 -0.0524  1.1343
  2104G12c C02239052   4.828   5.513   3.515  0.5767  0.0750 -1.8549
  2104G12c C02339053   4.695   5.367   3.458  0.2374 -1.7055 -1.0116
  2104G12c C00G39054   4.704   5.177   3.228  0.6262 -1.4739  1.4383
  2104G12c C00E39055   4.737   5.134   2.986  0.4267  1.1720 -0.0598
  2104G12c O00A39056   4.752   5.043   2.883 -0.1437  0.0171  0.5750
  2104G12c C02439057   4.832   5.068   2.766 -2.0987  0.1454  0.3372
  2104G12c H00V39058   4.930   5.103   2.799  1.0992 -2.4388 -5.7319
  2104G12c H00U39059   4.864   4.975   2.718  2.0831  1.0435  1.2295
  2104G12c H00T39060   4.800   5.154   2.707 -2.9848 -1.9663 -2.3521
  2114G12c C00D39061   3.449   9.207   7.347 -1.0278 -1.1965 -0.4983
  2114G12c O00B39062   3.363   9.175   7.454 -0.2386  1.0818  2.1513
  2114G12c C02539063   3.304   9.271   7.544 -1.6482  1.2446  2.0621
  2114G12c C02639064   3.148   9.255   7.565 -1.5550 -0.3073  0.1901
  2114G12c H00Y39065   3.138   9.234   7.458 -4.0031 -2.5678  0.8057
  2114G12c H00X39066   3.087   9.336   7.605  3.0260  3.9674 -1.0864
  2114G12c O00C39067   3.097   9.123   7.608  0.0870 -0.2069  0.5409
  2114G12c H00W39068   3.032   9.141   7.674  0.4087  4.4556 -0.2774
  2114G12c C02739069   3.390   9.346   7.621 -0.0916  0.4388  0.2797
  2114G12c O00D39070   3.528   9.341   7.594  0.0580  0.1122  1.2375
  2114G12c H00Z39071   3.543   9.301   7.510  1.8611 -6.1238  4.2151
  2114G12c C02839072   3.347   9.426   7.728  1.0042  1.0289 -0.1399
  2114G12c C02939073   3.409   9.554   7.723 -1.0465  1.2153 -0.0999
  2114G12c H01039074   3.484   9.581   7.650  0.4937  2.9381  2.0607
  2114G12c C02T39075   3.387   9.628   7.836 -0.1202 -1.5811  1.4085
  2114G12c H01O39076   3.416   9.731   7.821  2.0290 -3.1729 -9.3515
  2114G12c C02S39077   3.307   9.609   7.943  0.9553  0.6255 -0.8155
  2114G12c O00J39078   3.293   9.691   8.048 -1.0508 -1.2851 -2.7186
  2114G12c H01P39079   3.386   9.690   8.061 -1.7764 -2.5172  4.2288
  2114G12c C02R39080   3.234   9.477   7.931  0.5469 -1.9089  0.0368
  2114G12c O00I39081   3.161   9.442   8.055  1.6571  0.3293 -0.5278
  2114G12c C02Q39082   3.041   9.383   8.039  0.5605  0.9858  1.2639
  2114G12c H01N39083   2.953   9.443   8.015  1.9784  2.6809  0.1021
  2114G12c H01R39084   3.020   9.291   7.985  0.2770 -0.1792  3.2973
  2114G12c H01Q39085   3.005   9.367   8.141 -7.1715 -3.9169 -1.8349
  2114G12c C02A39086   3.240   9.396   7.807  1.4753  1.8225 -1.7718
  2114G12c H01139087   3.187   9.304   7.792  4.2011  0.1910 -1.6832
  2114G12c C00C39088   3.547   9.118   7.330 -0.2735 -0.8137  1.6586
  2114G12c H01239089   3.564   9.051   7.413  2.5977  2.9519  4.2858
  2114G12c C00B39090   3.599   9.080   7.200  0.3073  0.0777 -0.5380
  2114G12c C00A39091   3.697   8.991   7.175 -0.6734  0.0150  0.0229
  2114G12c C00939092   3.791   8.928   7.266 -2.4048  1.2867 -0.7949
  2114G12c C00839093   3.845   8.931   7.407 -1.2510 -0.0307 -0.7904
  2114G12c H01339094   3.815   8.976   7.500 -4.0765 -2.5536 -0.4322
  2114G12c C00739095   3.975   8.875   7.429 -0.1925 -0.5748  0.9799
  2114G12c H01439096   3.986   8.885   7.536 -6.8118  2.1256  1.6156
  2114G12c C00639097   4.043   8.797   7.321  0.8367  0.2063 -0.8141
  2114G12c C00539098   3.979   8.787   7.197  1.0798  0.0457  0.3322
  2114G12c C00439099   4.044   8.741   7.076  0.0535  0.5116  0.1783
  2114G12c C00339100   3.996   8.767   6.947  0.5707 -0.0482  1.4687
  2114G12c C00239101   4.087   8.731   6.836  0.1143 -1.9664 -0.2048
  2114G12c C00139102   4.074   8.757   6.690  0.4076 -1.4009  1.1641
  2114G12c C00M39103   4.030   8.888   6.642 -1.1831  1.4821 -0.4848
  2114G12c C00L39104   3.910   8.947   6.684  0.4296  0.3561 -0.3081
  2114G12c C00R39105   3.856   9.073   6.653  0.0174  1.2096  1.4216
  2114G12c C00Q39106   3.920   9.161   6.560  0.6866 -0.2408 -0.4601
  2114G12c C00V39107   3.837   9.287   6.575  0.3914 -0.0066  2.2604
  2114G12c C00U39108   3.743   9.316   6.677 -1.6618  1.1304  0.6618
  2114G12c C00T39109   3.677   9.215   6.743 -0.0070 -0.8547 -0.7630
  2114G12c C01639110   3.611   9.229   6.874  0.7052 -0.0177  0.6647
  2114G12c C01539111   3.572   9.361   6.904  0.7671  1.3119 -0.2146
  2114G12c C01039112   3.601   9.462   6.812 -0.2219  1.3797  0.1755
  2114G12c C01139113   3.574   9.594   6.833 -0.2526  0.6156 -1.3018
  2114G12c H00539114   3.584   9.684   6.774 -0.6333  2.5842  1.5186
  2114G12c C01239115   3.496   9.625   6.945 -1.6655  0.4508 -1.1785
  2114G12c C01739116   3.459   9.768   6.973  1.0350  0.3732 -1.7572
  2114G12c O00239117   3.555   9.861   6.982  0.5145  1.0066  0.1936
  2114G12c H00439118   3.638   9.827   7.012  0.4837  0.0022 -0.8481
  2114G12c C01839119   3.328   9.803   6.986 -0.6835  0.2570 -0.5591
  2114G12c O00139120   3.221   9.704   6.980 -0.5885 -0.0471  0.4273
  2114G12c H00339121   3.161   9.726   7.050  0.7582  3.0572  0.7088
  2114G12c C01939122   3.303   9.962   7.006 -0.1456 -0.2499  0.3197
  2114G12c H00239123   3.350  10.018   7.087 -2.7590  1.1713  0.8981
  2114G12c H00139124   3.339   9.998   6.909 -1.8534  4.5922  1.3106
  2114G12c O00039125   3.157   9.967   7.014  1.0328 -0.4923 -0.5191
  2114G12c C01A39126   3.097  10.070   6.947 -0.5144  0.5297  1.1552
  2114G12c C02K39127   3.086  10.207   7.000 -1.0878 -0.3431 -0.4970
  2114G12c O00G39128   3.144  10.216   7.121  1.8410  2.1192  0.2024
  2114G12c C02M39129   3.089  10.292   7.217 -0.7751 -0.5621  1.0772
  2114G12c H01G39130   3.070  10.392   7.179  5.0935  0.4299  0.2066
  2114G12c H01F39131   3.172  10.307   7.287  4.1007 -1.7240 -4.0315
  2114G12c H01E39132   2.998  10.258   7.267 -1.9433 -0.9336 -1.2272
  2114G12c C02J39133   3.036  10.315   6.944 -0.2525  1.1666 -0.2346
  2114G12c H01H39134   3.006  10.398   7.005 -4.2083  0.7879 -1.5439
  2114G12c C02I39135   3.005  10.304   6.804  1.5639  1.8409  0.8915
  2114G12c C02N39136   2.898  10.380   6.764 -0.3548  0.6004 -0.1922
  2114G12c H01M39137   2.935  10.464   6.708 -5.7687  3.5021  0.2963
  2114G12c C02O39138   2.781  10.342   6.800  0.9380 -0.4057  0.0307
  2114G12c H01L39139   2.746  10.266   6.869 -6.3565  0.8843 -1.9215
  2114G12c C02P39140   2.673  10.392   6.714 -0.4060 -0.1659  0.6418
  2114G12c H01K39141   2.642  10.487   6.756  1.7871 -0.0825  2.1292
  2114G12c H01J39142   2.722  10.406   6.617  0.8131  2.0892  1.5384
  2114G12c O00H39143   2.574  10.299   6.664  1.1350 -0.1335  0.2917
  2114G12c H01I39144   2.502  10.343   6.706  2.8433 -0.0799  3.2546
  2114G12c C02H39145   3.003  10.182   6.744 -0.6741  0.5577 -1.7577
  2114G12c H01C39146   2.986  10.174   6.638 -1.3814-11.9843 -1.4317
  2114G12c C02L39147   3.045  10.064   6.812  0.7756  0.0743  0.6193
  2114G12c H01D39148   3.041   9.969   6.761 -0.6536  1.5818 -2.2084
  2114G12c C01339149   3.494   9.528   7.038 -0.0922  1.4226 -1.0555
  2114G12c H00039150   3.445   9.553   7.131  2.0521  0.3764  0.3820
  2114G12c C01439151   3.521   9.393   7.022 -0.5784 -0.1109 -0.3451
  2114G12c C00F39152   3.502   9.289   7.118 -0.7233  0.0253 -0.8151
  2114G12c C00H39153   3.612   9.130   6.976 -1.4272  1.4746  0.3730
  2114G12c C00I39154   3.673   9.006   6.939 -0.2602  1.2778 -1.3737
  2114G12c C00J39155   3.732   8.984   6.814  0.5663  0.3460 -2.8191
  2114G12c C00Z39156   3.674   9.431   6.696 -0.8457 -0.3485 -0.1877
  2114G12c C00Y39157   3.691   9.536   6.596 -1.0356  0.8234  0.3514
  2114G12c H00639158   3.618   9.616   6.597  0.3538  2.1619 -1.6273
  2114G12c C00X39159   3.786   9.519   6.485 -0.5275 -0.6968 -0.0810
  2114G12c O00339160   3.810   9.605   6.406  1.2323  1.0031  0.0333
  2114G12c C01B39161   3.735   9.726   6.403 -0.3283  0.4265 -0.1767
  2114G12c H00939162   3.760   9.773   6.499  4.1569  1.5609 -1.7641
  2114G12c H00839163   3.784   9.798   6.337  2.2571 -0.0722  1.1298
  2114G12c H00739164   3.628   9.710   6.406 -0.4870  1.5765  3.6579
  2114G12c C00W39165   3.866   9.399   6.489  1.0454  0.9114 -1.8176
  2114G12c O00439166   3.959   9.384   6.386  0.5093 -1.4716  0.1983
  2114G12c C01C39167   4.048   9.279   6.379  0.7651 -0.4370  1.0354
  2114G12c H00A39168   4.096   9.286   6.283 -1.3357 -4.1637 -0.4035
  2114G12c C00P39169   4.039   9.170   6.482  0.1124  0.7380 -0.4315
  2114G12c C00O39170   4.154   9.092   6.511 -0.6678  0.0677  2.1363
  2114G12c C01D39171   4.291   9.125   6.469  0.8523  0.1537 -1.8542
  2114G12c H00S39172   4.290   9.224   6.426 -1.6391  1.1651  0.4319
  2114G12c C01E39173   4.399   9.034   6.522 -0.4294 -2.3665  0.8636
  2114G12c O00839174   4.513   9.108   6.533 -0.6086 -0.2657 -1.5533
  2114G12c C01V39175   4.576   9.117   6.415 -1.9456  1.1553  0.2770
  2114G12c C01Z39176   4.580   9.281   6.393 -0.1572 -0.0202 -1.6707
  2114G12c H00R39177   4.598   9.353   6.472 -1.9138 -7.5771  6.4534
  2114G12c H00Q39178   4.682   9.302   6.360  0.1754  0.5347 -0.2813
  2114G12c O00939179   4.503   9.329   6.281 -1.4538 -0.8882 -0.5544
  2114G12c H00P39180   4.426   9.279   6.258 -2.3636  0.0936  0.3150
  2114G12c C01W39181   4.602   9.011   6.328  0.0282 -0.8211 -0.3268
  2114G12c H00O39182   4.590   8.910   6.366  4.1142 -1.1530  0.3107
  2114G12c C01X39183   4.647   9.006   6.180 -1.4094 -1.4218 -2.0340
  2114G12c H00N39184   4.633   9.100   6.127  2.2945  0.2427 -0.2597
  2114G12c H00M39185   4.753   9.004   6.152 -1.9450 -1.7956 -4.0233
  2114G12c C01Y39186   4.587   8.892   6.103  0.1303  0.5787 -0.9963
  2114G12c C02D39187   4.662   8.810   6.008 -1.2464 -0.1227  0.9275
  2114G12c H01939188   4.762   8.843   5.984  0.2066 -1.7895  4.2880
  2114G12c C02C39189   4.578   8.720   5.942  0.6301 -1.0209 -1.3462
  2114G12c H01A39190   4.624   8.642   5.883 -4.6912 -2.5926 -3.7215
  2114G12c C02B39191   4.451   8.685   5.981  1.1662 -0.5830 -0.1949
  2114G12c O00E39192   4.368   8.594   5.918  1.0011 -0.7028 -0.6963
  2114G12c H01B39193   4.292   8.605   5.973  0.9425  0.0251 -0.9105
  2114G12c C02F39194   4.383   8.758   6.079  1.0557  0.4054  0.2852
  2114G12c O00F39195   4.250   8.741   6.089  0.4302 -0.0698  1.1001
  2114G12c C02G39196   4.197   8.804   6.212 -0.9214 -0.1575 -0.0101
  2114G12c H01739197   4.111   8.738   6.227 -1.3350  1.0002  3.0019
  2114G12c H01639198   4.246   8.856   6.294 -0.7883  3.7556 -2.3986
  2114G12c H01539199   4.166   8.899   6.169 -3.3215 -2.3186 -3.2995
  2114G12c C02E39200   4.454   8.877   6.125  0.4772 -0.9664  1.6587
  2114G12c H01839201   4.397   8.946   6.187  1.6812 -1.3243  3.1745
  2114G12c C01F39202   4.380   8.900   6.565 -2.3153  1.3637 -0.7562
  2114G12c C01G39203   4.467   8.817   6.629  1.2555 -1.3699  0.8177
  2114G12c H00L39204   4.573   8.828   6.644  0.7642  2.7109  1.7411
  2114G12c C01H39205   4.431   8.739   6.736 -0.3147  0.8229  1.2585
  2114G12c H00B39206   4.507   8.707   6.805  1.3743  3.7291  0.8456
  2114G12c C01I39207   4.292   8.712   6.749  0.7828  0.6623 -0.5394
  2114G12c C01U39208   4.241   8.864   6.580  1.0592  1.1253 -0.8790
  2114G12c C00S39209   3.738   9.091   6.721  1.5512  0.7965 -0.2846
  2114G12c C00K39210   3.849   8.902   6.809 -1.2349 -0.1965 -1.6262
  2114G12c C00N39211   4.136   8.965   6.580 -0.0127  1.2004  0.4552
  2114G12c C00039212   4.207   8.741   6.639  0.1728 -0.0736 -0.7074
  2114G12c C01J39213   4.210   8.659   6.855 -0.9774  0.2642  1.2610
  2114G12c C01K39214   4.251   8.612   6.985 -0.0250 -0.0881 -0.0813
  2114G12c C01P39215   4.361   8.529   7.033  0.0785 -1.2884 -1.0609
  2114G12c C01Q39216   4.421   8.424   6.937 -0.2155  0.0417  1.0678
  2114G12c H00G39217   4.527   8.406   6.928 -0.8211 -3.4812  0.4287
  2114G12c C01R39218   4.348   8.329   6.891 -0.3240 -0.4853 -0.5075
  2114G12c H00F39219   4.242   8.324   6.910  0.1147 -2.0101  1.7376
  2114G12c C01S39220   4.402   8.224   6.779 -0.0836 -1.0643  0.4569
  2114G12c H00E39221   4.324   8.154   6.749 -0.3754 -0.1776 -0.8852
  2114G12c H00D39222   4.481   8.180   6.840 -2.6235 -6.9239 -0.2071
  2114G12c O00539223   4.475   8.316   6.698 -0.4646 -0.2494  1.2524
  2114G12c H00C39224   4.440   8.404   6.691 -1.8353 -1.1112 -4.9386
  2114G12c C01O39225   4.405   8.513   7.157 -0.1212  0.7283 -0.0681
  2114G12c H00H39226   4.469   8.431   7.183 -3.5881 -2.4317 -1.0538
  2114G12c C01N39227   4.329   8.590   7.255 -0.3107  0.1621  0.7400
  2114G12c O00639228   4.323   8.578   7.384 -1.4595  0.1511  0.2931
  2114G12c C01T39229   4.419   8.510   7.458  0.1623 -0.5896  0.8142
  2114G12c H00K39230   4.371   8.441   7.527 -3.9345  2.3633  1.0572
  2114G12c H00J39231   4.509   8.515   7.397 -0.4161  1.4526  0.0668
  2114G12c H00I39232   4.450   8.582   7.533 -0.7692  0.2657  0.3950
  2114G12c C01M39233   4.225   8.676   7.222 -0.7436  1.4930  0.1254
  2114G12c C02039234   3.872   8.826   6.930 -1.0298  1.1864  0.8780
  2114G12c C02139235   3.804   8.841   7.049 -0.4233  0.4225 -0.8237
  2114G12c C01L39236   4.171   8.676   7.089  0.5322 -0.3674 -0.8774
  2114G12c O00739237   4.175   8.746   7.323  0.1814 -1.3268 -0.5565
  2114G12c C02239238   3.853   8.836   7.174 -0.2674 -0.9543 -0.3458
  2114G12c C02339239   3.702   8.931   7.056 -0.3297 -0.7841  0.9275
  2114G12c C00G39240   3.576   9.166   7.099 -0.5995 -0.8770  0.0909
  2114G12c C00E39241   3.433   9.322   7.248  3.2085 -0.5108 -1.9108
  2114G12c O00A39242   3.352   9.424   7.287 -0.7798  1.5115  0.2796
  2114G12c C02439243   3.221   9.442   7.245  1.0252 -0.7741 -0.3850
  2114G12c H00V39244   3.220   9.442   7.136  4.4872 -4.4724 -0.5401
  2114G12c H00U39245   3.123   9.398   7.263 -1.0952  3.8820 -0.0511
  2114G12c H00T39246   3.227   9.550   7.252 -6.9909 -0.1545  0.7884
  2124G12c C00D39247   9.547   4.677  12.076 -0.6367 -0.7138  0.2073
  2124G12c O00B39248   9.598   4.559  12.064  1.7540  0.7380  0.0341
  2124G12c C02539249   9.716   4.518  12.146  2.8686 -0.8000 -1.6047
  2124G12c C02639250   9.720   4.494  12.294  0.6659  1.2657 -0.7326
  2124G12c H00Y39251   9.712   4.593  12.339  4.8709  1.0174  0.7776
  2124G12c H00X39252   9.803   4.462  12.356 -2.3313 -4.8465  0.4445
  2124G12c O00C39253   9.602   4.424  12.366 -0.0279 -0.4437  2.9466
  2124G12c H00W39254   9.524   4.477  12.365 -0.2994 -0.7949  4.7556
  2124G12c C02739255   9.838   4.500  12.099  0.0822 -0.9634  0.5118
  2124G12c O00D39256   9.953   4.474  12.187  0.3109 -1.4891  0.8717
  2124G12c H00Z39257  10.007   4.407  12.147 -4.8317 -1.6608 -6.9455
  2124G12c C02839258   9.871   4.525  11.954 -1.4248  0.5442  1.1906
  2124G12c C02939259  10.000   4.570  11.915 -0.4887  2.6612 -1.1574
  2124G12c H01039260  10.082   4.602  11.977  0.8067  7.7095 -5.2057
  2124G12c C02T39261  10.043   4.595  11.775 -0.5597  2.4854 -0.5725
  2124G12c H01O39262  10.150   4.600  11.763 -1.0387  1.1811 -6.9739
  2124G12c C02S39263   9.951   4.611  11.687 -0.1383 -0.8080  1.2609
  2124G12c O00J39264   9.993   4.648  11.558 -0.6258  0.4727  0.3825
  2124G12c H01P39265   9.911   4.683  11.526 -1.0851  2.3455  3.4045
  2124G12c C02R39266   9.804   4.585  11.710  1.5531 -1.9830  1.1278
  2124G12c O00I39267   9.711   4.589  11.607 -0.3620  0.7918  0.0319
  2124G12c C02Q39268   9.595   4.644  11.623 -0.4919  1.2232  0.2511
  2124G12c H01N39269   9.564   4.748  11.619 -6.0186 -0.3556 -3.9354
  2124G12c H01R39270   9.528   4.603  11.698 -0.7999 -2.6503 -2.0237
  2124G12c H01Q39271   9.511   4.630  11.555 -0.4149  2.0421 -0.0241
  2124G12c C02A39272   9.775   4.528  11.845 -1.5720  0.4288 -0.8007
  2124G12c H01139273   9.672   4.498  11.844 -0.2006 -5.0046  0.9522
  2124G12c C00C39274   9.586   4.777  12.177  1.5957  0.6391  0.1232
  2124G12c H01239275   9.674   4.749  12.234 -0.1185  2.0100  3.5709
  2124G12c C00B39276   9.514   4.908  12.190 -0.7022 -1.0054  1.0013
  2124G12c C00A39277   9.527   5.022  12.286  0.2565 -0.0788 -0.0803
  2124G12c C00939278   9.618   5.045  12.405  0.8875 -3.5836  0.9142
  2124G12c C00839279   9.677   4.966  12.490  0.7474  1.0656 -0.4622
  2124G12c H01339280   9.712   4.865  12.474 -1.1045  0.4612 -0.8580
  2124G12c C00739281   9.662   4.990  12.624  0.1391 -0.1693 -0.5724
  2124G12c H01439282   9.688   4.920  12.702  1.3839  2.7943  1.8084
  2124G12c C00639283   9.581   5.102  12.671  0.4867 -0.3067 -0.1385
  2124G12c C00539284   9.549   5.197  12.576  1.2947  1.0826  2.1865
  2124G12c C00439285   9.500   5.317  12.609 -2.7003 -0.4903  0.8681
  2124G12c C00339286   9.460   5.400  12.496 -0.4105 -0.1164 -1.0906
  2124G12c C00239287   9.387   5.524  12.539  1.5602  0.5957  1.9575
  2124G12c C00139288   9.285   5.600  12.469  0.8330 -0.8525 -1.6763
  2124G12c C00M39289   9.184   5.541  12.396 -1.9531  0.5476  0.8455
  2124G12c C00L39290   9.190   5.441  12.292  0.1698 -0.8151 -2.3487
  2124G12c C00R39291   9.096   5.387  12.189  1.9396 -0.2271 -0.7097
  2124G12c C00Q39292   8.964   5.396  12.187  1.6761  1.1679  0.7557
  2124G12c C00V39293   8.907   5.298  12.094  0.1763 -1.4155 -0.1593
  2124G12c C00U39294   8.982   5.189  12.041  0.3706 -0.8326  0.8243
  2124G12c C00T39295   9.100   5.166  12.074 -1.7277 -1.5811  0.4398
  2124G12c C01639296   9.194   5.062  12.043  2.7884  2.0649  0.3159
  2124G12c C01539297   9.133   4.966  11.966  0.2434  1.6616 -0.4482
  2124G12c C01039298   8.997   4.981  11.934  1.9846 -0.0085  0.7128
  2124G12c C01139299   8.956   4.881  11.837  1.0264 -0.4151 -2.0615
  2124G12c H00539300   8.851   4.862  11.821 -0.0002 -1.8590  4.9730
  2124G12c C01239301   9.045   4.798  11.781 -0.6807  0.9307  0.1354
  2124G12c C01739302   9.008   4.704  11.694 -1.7082  0.7585 -1.5672
  2124G12c O00239303   9.044   4.718  11.568  1.2472 -1.0966 -0.2483
  2124G12c H00439304   9.038   4.628  11.538  5.5534 -0.9929 -1.8334
  2124G12c C01839305   8.924   4.618  11.760  0.0696  0.3703  0.8032
  2124G12c O00139306   8.937   4.593  11.888  0.2370 -0.3568  0.8461
  2124G12c H00339307   9.014   4.640  11.919 -1.0669  1.4063  1.5202
  2124G12c C01939308   8.831   4.514  11.685 -0.6768 -2.5375 -0.9339
  2124G12c H00239309   8.862   4.483  11.586  4.4732  1.6497 -0.8379
  2124G12c H00139310   8.771   4.438  11.736  4.8066 -5.1441  2.1764
  2124G12c O00039311   8.729   4.598  11.638 -0.6307  0.7664  0.3215
  2124G12c C01A39312   8.613   4.529  11.604  0.7476 -0.6954  1.6112
  2124G12c C02K39313   8.585   4.472  11.478 -0.1886 -0.7280 -2.0261
  2124G12c O00G39314   8.688   4.436  11.403  0.6051 -1.1369 -0.0081
  2124G12c C02M39315   8.736   4.298  11.384  0.6471 -1.0610 -2.6404
  2124G12c H01G39316   8.659   4.223  11.404  0.9037 -0.2856  1.7037
  2124G12c H01F39317   8.815   4.312  11.457  1.1840  2.7435 -3.8570
  2124G12c H01E39318   8.795   4.279  11.294 -3.6877 -2.4606 -5.3774
  2124G12c C02J39319   8.459   4.440  11.422  1.3053  1.2193 -0.4338
  2124G12c H01H39320   8.440   4.403  11.322  2.9898  4.6462 -2.1294
  2124G12c C02I39321   8.349   4.477  11.499 -0.0293 -0.7254  2.7878
  2124G12c C02N39322   8.223   4.450  11.438 -0.4415  0.5940 -0.6828
  2124G12c H01M39323   8.169   4.499  11.358 -4.6866  5.1813  4.5760
  2124G12c C02O39324   8.197   4.316  11.455  1.1950  0.7729  0.6394
  2124G12c H01L39325   8.252   4.247  11.517  2.8936 -0.0210 -1.6589
  2124G12c C02P39326   8.105   4.255  11.357 -0.1067  0.5796 -0.5649
  2124G12c H01K39327   8.046   4.172  11.396 -1.0056  3.2194  4.1214
  2124G12c H01J39328   8.027   4.326  11.327  3.0970  3.5204 -2.3464
  2124G12c O00H39329   8.189   4.222  11.250 -0.2941  1.2920  0.2928
  2124G12c H01I39330   8.276   4.200  11.281 -0.3468  0.2339 -0.3211
  2124G12c C02H39331   8.374   4.543  11.615  0.4689 -1.0634  0.4009
  2124G12c H01C39332   8.309   4.617  11.658  3.1226  3.4920 -2.9662
  2124G12c C02L39333   8.500   4.561  11.683 -0.4438 -0.7485 -0.6737
  2124G12c H01D39334   8.512   4.625  11.770 -1.6190  2.2097 -2.6035
  2124G12c C01339335   9.181   4.785  11.829 -1.5261  1.9181 -0.3807
  2124G12c H00039336   9.212   4.690  11.789 -4.9416  0.5177  0.1667
  2124G12c C01439337   9.230   4.859  11.940  1.3256 -0.3118 -0.1419
  2124G12c C00F39338   9.344   4.825  12.012 -0.4734 -0.2604  0.9719
  2124G12c C00H39339   9.306   5.040  12.109 -0.0946 -0.7524  1.4161
  2124G12c C00I39340   9.352   5.146  12.172  1.1739 -0.3648  0.7449
  2124G12c C00J39341   9.286   5.266  12.182 -2.4128  0.0214 -2.0460
  2124G12c C00Z39342   8.915   5.087  11.983  0.1303 -0.9403  0.6391
  2124G12c C00Y39343   8.773   5.107  11.963 -0.3085  1.0598  0.2718
  2124G12c H00639344   8.706   5.039  11.911  2.5583 -1.6871  0.0456
  2124G12c C00X39345   8.702   5.228  11.990 -1.2131  1.5001 -0.0280
  2124G12c O00339346   8.569   5.218  11.970 -0.9866  2.1190 -0.0307
  2124G12c C01B39347   8.459   5.239  12.058  1.4968  0.3614 -0.3364
  2124G12c H00939348   8.363   5.187  12.059 -0.6535  4.1664 -0.5361
  2124G12c H00839349   8.487   5.237  12.163  6.3654  2.2285 -1.4895
  2124G12c H00739350   8.422   5.341  12.051  7.3064  2.9316  3.3790
  2124G12c C00W39351   8.762   5.310  12.075  0.2636 -1.6066 -0.6008
  2124G12c O00439352   8.689   5.433  12.112  0.5586 -0.8850  0.0330
  2124G12c C01C39353   8.749   5.486  12.230  0.1151 -1.3701  0.2884
  2124G12c H00A39354   8.736   5.593  12.238  4.8868 -0.5595 -1.4583
  2124G12c C00P39355   8.887   5.469  12.280 -0.7405  0.0241  0.8512
  2124G12c C00O39356   8.931   5.512  12.406 -0.9781  0.4809 -1.1394
  2124G12c C01D39357   8.843   5.497  12.507  0.5500 -0.8315 -1.0037
  2124G12c H00S39358   8.736   5.492  12.493  0.7078 -2.0630 -1.8619
  2124G12c C01E39359   8.879   5.541  12.637  2.0717  0.0800  0.4533
  2124G12c O00839360   8.795   5.534  12.731  0.9175 -0.0614 -0.2142
  2124G12c C01V39361   8.689   5.461  12.748  0.2642  0.5429  0.0489
  2124G12c C01Z39362   8.582   5.548  12.828  0.2693 -0.4102  0.8359
  2124G12c H00R39363   8.500   5.485  12.861 -2.6644  3.8774  2.2147
  2124G12c H00Q39364   8.616   5.569  12.929  5.7632  3.3848 -1.4996
  2124G12c O00939365   8.512   5.630  12.740 -0.2402 -0.8468 -0.0667
  2124G12c H00P39366   8.573   5.674  12.683  6.9910 -0.2901  7.1931
  2124G12c C01W39367   8.690   5.322  12.759  1.5354  0.8104  0.6046
  2124G12c H00O39368   8.749   5.246  12.708  1.4562 -1.4591  3.7741
  2124G12c C01X39369   8.604   5.231  12.847  1.0025 -0.7032  0.5824
  2124G12c H00N39370   8.651   5.133  12.853 -3.4299 -3.0764 -1.0930
  2124G12c H00M39371   8.575   5.276  12.943 -2.8598 -2.3879  0.3010
  2124G12c C01Y39372   8.496   5.167  12.760 -0.2082  0.0699  0.7729
  2124G12c C02D39373   8.518   5.042  12.718  0.2730  0.3232 -0.0232
  2124G12c H01939374   8.609   4.986  12.733 -0.0565 -1.0488 -2.8268
  2124G12c C02C39375   8.434   4.978  12.623  1.0391  1.7300  0.4981
  2124G12c H01A39376   8.442   4.871  12.614 -1.5202  1.6093 -0.6504
  2124G12c C02B39377   8.307   5.044  12.579  0.0083  2.2071 -0.5567
  2124G12c O00E39378   8.211   4.968  12.523 -1.6034 -0.1392  0.3881
  2124G12c H01B39379   8.139   5.025  12.544 -0.9309  1.2824 -1.0973
  2124G12c C02F39380   8.262   5.160  12.634 -0.3671 -1.9327 -1.4344
  2124G12c O00F39381   8.133   5.204  12.608 -0.6589  0.2384 -2.4959
  2124G12c C02G39382   8.115   5.334  12.565 -1.2264 -0.2906  0.6948
  2124G12c H01739383   8.015   5.343  12.522  0.2341  1.6326 -2.4907
  2124G12c H01639384   8.196   5.359  12.496 -0.5340  0.5501  1.8046
  2124G12c H01539385   8.100   5.422  12.628 -3.6088 -3.0644  4.2117
  2124G12c C02E39386   8.359   5.225  12.722 -1.0288 -1.4889  1.5903
  2124G12c H01839387   8.356   5.324  12.765 -6.2150 -0.3613 -0.8886
  2124G12c C01F39388   8.992   5.594  12.668 -1.5933 -1.3206 -1.3109
  2124G12c C01G39389   9.041   5.610  12.793 -0.0969 -1.3949 -0.6246
  2124G12c H00L39390   8.970   5.584  12.870 -0.6065 -2.4200 -1.4216
  2124G12c C01H39391   9.178   5.636  12.817  0.5139 -0.3619  1.0857
  2124G12c H00B39392   9.200   5.641  12.923 -3.6171 -3.4248  2.2189
  2124G12c C01I39393   9.270   5.634  12.704  1.3182 -1.3571  0.2528
  2124G12c C01U39394   9.076   5.635  12.559 -1.7204 -0.0396 -1.0326
  2124G12c C00S39395   9.157   5.269  12.145 -0.9542  0.2229  0.3164
  2124G12c C00K39396   9.309   5.365  12.288  2.3659  0.6902  0.2387
  2124G12c C00N39397   9.058   5.563  12.445 -0.5234 -1.2099  1.0684
  2124G12c C00039398   9.213   5.662  12.574 -1.4793 -1.5739  0.2202
  2124G12c C01J39399   9.366   5.544  12.683 -0.3829 -0.0408 -0.2614
  2124G12c C01K39400   9.430   5.457  12.788 -1.0150 -1.2217 -1.9364
  2124G12c C01P39401   9.443   5.489  12.924 -0.9829 -0.1963  0.0947
  2124G12c C01Q39402   9.435   5.615  12.993 -0.5921 -0.1495  0.5123
  2124G12c H00G39403   9.389   5.652  13.083 -3.2269 -1.7033 -0.1510
  2124G12c C01R39404   9.492   5.723  12.944 -0.4096 -0.2493 -0.0700
  2124G12c H00F39405   9.558   5.704  12.861 -2.2716 -2.8491 -0.9739
  2124G12c C01S39406   9.437   5.865  12.959 -0.1620  0.1358 -1.7799
  2124G12c H00E39407   9.472   5.941  12.889 -0.3307 -1.3704 -3.5428
  2124G12c H00D39408   9.334   5.873  12.925  0.1762  0.3136 -2.7786
  2124G12c O00539409   9.498   5.915  13.082 -0.1337 -0.6032  0.0252
  2124G12c H00C39410   9.555   5.846  13.113  1.9118 -0.2043 -2.6385
  2124G12c C01O39411   9.495   5.394  13.014 -0.8706 -0.0757 -0.4710
  2124G12c H00H39412   9.481   5.391  13.121 -0.5814  2.4428 -0.3412
  2124G12c C01N39413   9.532   5.271  12.976  0.3518 -0.8096 -0.4819
  2124G12c O00639414   9.551   5.157  13.054 -0.5268  0.3304  0.5282
  2124G12c C01T39415   9.671   5.164  13.133  0.4373  0.4147  0.0285
  2124G12c H00K39416   9.713   5.253  13.181  0.5991 -1.1829  2.9870
  2124G12c H00J39417   9.649   5.077  13.195 -1.7689  0.4939 -0.5860
  2124G12c H00I39418   9.749   5.124  13.069  2.4021  4.9383 -0.6354
  2124G12c C01M39419   9.537   5.251  12.849  0.3770  1.3380  1.2582
  2124G12c C02039420   9.421   5.336  12.366  0.0196 -1.1977 -0.5390
  2124G12c C02139421   9.509   5.231  12.337  0.9861 -0.4013  0.2760
  2124G12c C01L39422   9.494   5.343  12.744  0.5550 -0.9248 -0.1178
  2124G12c O00739423   9.565   5.120  12.798 -0.5458  0.4078  0.5422
  2124G12c C02239424   9.576   5.173  12.439 -1.0818  0.2450 -0.0394
  2124G12c C02339425   9.479   5.142  12.223 -2.2473  0.3876 -0.8262
  2124G12c C00G39426   9.392   4.925  12.105  0.0883  0.5603  2.4821
  2124G12c C00E39427   9.440   4.712  11.991 -0.1122 -0.9725 -0.5744
  2124G12c O00A39428   9.406   4.603  11.902  0.4321  0.7008 -0.2923
  2124G12c C02439429   9.316   4.502  11.954 -0.5106  1.1048 -1.4268
  2124G12c H00V39430   9.293   4.463  11.855  0.4995 -6.5308  1.0542
  2124G12c H00U39431   9.208   4.501  11.969 -0.8912 -2.7956 -3.7938
  2124G12c H00T39432   9.369   4.416  11.995 -1.3906  0.6891 -1.1596
  2134G12c C00D39433  12.341   5.482   7.241  1.4767  1.8967 -0.7003
  2134G12c O00B39434  12.215   5.452   7.298  0.6602 -0.7473 -1.8199
  2134G12c C02539435  12.208   5.495   7.435 -1.1767 -0.7742 -0.6526
  2134G12c C02639436  12.304   5.400   7.507  0.5692 -0.7892 -0.2179
  2134G12c H00Y39437  12.349   5.313   7.460  1.7786 -0.9897  1.2603
  2134G12c H00X39438  12.242   5.329   7.561  0.7936 -0.8501 -0.0420
  2134G12c O00C39439  12.404   5.440   7.595  0.0921 -0.1380  0.2431
  2134G12c H00W39440  12.427   5.531   7.610  1.9070 -0.1633 -2.0926
  2134G12c C02739441  12.147   5.602   7.486  0.9755  1.4440  0.2434
  2134G12c O00D39442  12.120   5.706   7.390 -0.4360 -0.2960 -1.8593
  2134G12c H00Z39443  12.106   5.671   7.304  0.0138  0.5990 -2.3071
  2134G12c C02839444  12.121   5.638   7.626 -0.1521 -0.3358 -1.4067
  2134G12c C02939445  12.097   5.544   7.730  0.0141 -1.3374 -2.2258
  2134G12c H01039446  12.106   5.437   7.723 -3.7335 -2.9455  8.2751
  2134G12c C02T39447  12.047   5.600   7.856  0.8772  0.5677 -0.4022
  2134G12c H01O39448  12.026   5.552   7.950 -0.2537  4.5493  1.4913
  2134G12c C02S39449  12.040   5.742   7.867  2.1307 -0.8368  0.7605
  2134G12c O00J39450  12.019   5.789   7.994 -0.7487  0.8513 -1.2554
  2134G12c H01P39451  12.076   5.719   8.019 -0.8530 -1.6395 -7.1255
  2134G12c C02R39452  12.050   5.837   7.769 -0.6748 -0.4477 -0.2999
  2134G12c O00I39453  12.071   5.973   7.777  1.9973  0.9437 -0.0097
  2134G12c C02Q39454  11.939   6.026   7.789 -0.6563  0.5331 -1.8188
  2134G12c H01N39455  11.953   6.081   7.882  2.0525 -1.2851 -1.0822
  2134G12c H01R39456  11.848   5.969   7.768 -2.4448  2.8031 -0.4238
  2134G12c H01Q39457  11.945   6.117   7.729 -2.1866  2.5064  0.9078
  2134G12c C02A39458  12.107   5.777   7.644  1.8371 -0.3765 -1.0225
  2134G12c H01139459  12.126   5.840   7.558 -1.5620  1.3035 -0.6234
  2134G12c C00C39460  12.467   5.414   7.239 -0.4716 -0.4261 -0.4455
  2134G12c H01239461  12.498   5.358   7.326 -1.4903 -2.4146 -1.3276
  2134G12c C00B39462  12.569   5.411   7.143 -1.6505 -1.3765  0.9506
  2134G12c C00A39463  12.693   5.340   7.156  0.0822  0.3542 -0.1178
  2134G12c C00939464  12.793   5.370   7.251 -0.5234 -0.5879  0.1096
  2134G12c C00839465  12.782   5.417   7.379  0.2454 -0.0340  0.9629
  2134G12c H01339466  12.698   5.485   7.386  3.9518  5.1123 -1.4633
  2134G12c C00739467  12.901   5.444   7.449  0.6240 -0.5594  1.0032
  2134G12c H01439468  12.882   5.499   7.540  1.6966  2.8996 -0.7831
  2134G12c C00639469  13.025   5.426   7.383 -0.0501 -0.0436 -0.7990
  2134G12c C00539470  13.032   5.363   7.245 -1.5783 -0.2916  0.0725
  2134G12c C00439471  13.147   5.375   7.162 -1.0846 -0.2251 -0.1588
  2134G12c C00339472  13.125   5.358   7.028 -0.1210 -0.3254 -0.9707
  2134G12c C00239473  13.234   5.362   6.934 -0.4967 -0.0909 -0.7562
  2134G12c C00139474  13.247   5.368   6.790  1.8373  0.2679  0.3661
  2134G12c C00M39475  13.156   5.411   6.678 -0.0669  0.0846  1.7268
  2134G12c C00L39476  13.010   5.397   6.699  0.0201  1.3702  0.7402
  2134G12c C00R39477  12.915   5.459   6.635 -0.6511 -0.9860  1.7954
  2134G12c C00Q39478  12.922   5.559   6.520 -0.5580 -0.0740  0.4571
  2134G12c C00V39479  12.800   5.631   6.504 -0.1952  0.2898  0.0130
  2134G12c C00U39480  12.679   5.613   6.574 -0.6790 -0.4824  0.7725
  2134G12c C00T39481  12.675   5.540   6.682  0.1536 -0.0517 -1.3942
  2134G12c C01639482  12.602   5.560   6.796 -0.9296 -0.7976 -1.8092
  2134G12c C01539483  12.506   5.661   6.806  0.4100  0.0816  0.6394
  2134G12c C01039484  12.498   5.743   6.687  0.5243 -0.1174 -1.2540
  2134G12c C01139485  12.414   5.853   6.698  0.5091 -2.7526 -0.1278
  2134G12c H00539486  12.412   5.912   6.607  2.6568 -3.1169 -0.4240
  2134G12c C01239487  12.326   5.874   6.813  0.1379  0.2272 -1.3032
  2134G12c C01739488  12.233   5.986   6.832 -1.8500 -1.6241  1.4846
  2134G12c O00239489  12.130   5.958   6.896  0.5473  0.4851  0.8217
  2134G12c H00439490  12.048   5.999   6.875  2.0153  2.0107 -2.1391
  2134G12c C01839491  12.250   6.097   6.760 -0.1044 -1.4989 -1.0658
  2134G12c O00139492  12.353   6.119   6.676 -0.3526 -0.6442 -0.5138
  2134G12c H00339493  12.357   6.057   6.606 -4.9959  3.0207 -4.4321
  2134G12c C01939494  12.170   6.213   6.790  0.5125 -1.4581  0.1159
  2134G12c H00239495  12.222   6.308   6.806 -1.6539 -0.1705 -0.3337
  2134G12c H00139496  12.125   6.213   6.691  4.8880 -0.2991 -2.0079
  2134G12c O00039497  12.068   6.219   6.896  0.4485  0.3077 -0.4582
  2134G12c C01A39498  11.944   6.244   6.847  1.3163 -0.1128  0.3680
  2134G12c C02K39499  11.837   6.152   6.867 -1.6045 -0.4777  1.6705
  2134G12c O00G39500  11.883   6.051   6.947  0.3376 -1.1845 -1.4567
  2134G12c C02M39501  11.780   6.001   7.037  0.0683 -0.2224 -0.0889
  2134G12c H01G39502  11.837   5.929   7.094  0.0544  4.9532  7.2097
  2134G12c H01F39503  11.775   6.056   7.131 -2.2438 -0.4616 -0.0507
  2134G12c H01E39504  11.700   5.929   7.018 -3.0723  2.9892  0.2915
  2134G12c C02J39505  11.716   6.180   6.804  0.8252 -1.4662  0.2237
  2134G12c H01H39506  11.644   6.100   6.800 -1.7838  0.8495 -0.2368
  2134G12c C02I39507  11.705   6.296   6.722  0.5891  0.0102  0.2850
  2134G12c C02N39508  11.579   6.329   6.670  1.1518 -1.5086 -0.3043
  2134G12c H01M39509  11.522   6.409   6.714 -0.9678 -3.7223  1.1051
  2134G12c C02O39510  11.510   6.247   6.591  0.5869 -1.4619 -0.7243
  2134G12c H01L39511  11.553   6.149   6.571  0.0122 -2.0230  0.7205
  2134G12c C02P39512  11.364   6.255   6.590 -1.8253 -0.1210 -1.4078
  2134G12c H01K39513  11.319   6.351   6.611  0.8059  1.0935 -1.1229
  2134G12c H01J39514  11.317   6.176   6.530 -0.4729 -2.0437 -0.0082
  2134G12c O00H39515  11.317   6.240   6.727  0.7491 -0.6205 -0.0908
  2134G12c H01I39516  11.298   6.333   6.724 -2.8111 -1.3337 -3.0257
  2134G12c C02H39517  11.810   6.375   6.680 -1.1706  0.5314  1.9619
  2134G12c H01C39518  11.798   6.467   6.625 -4.4070 -0.9443  0.0087
  2134G12c C02L39519  11.925   6.332   6.744  0.2225 -0.8009 -0.9444
  2134G12c H01D39520  12.004   6.402   6.718 -1.8492  1.1032 -2.3271
  2134G12c C01339521  12.324   5.782   6.915  1.1849  0.2705 -1.1273
  2134G12c H00039522  12.286   5.812   7.012 -1.1706 -3.2890 -0.8655
  2134G12c C01439523  12.424   5.684   6.922 -3.0307  0.6901  0.5271
  2134G12c C00F39524  12.431   5.591   7.032 -0.1307 -1.4360 -0.5770
  2134G12c C00H39525  12.616   5.475   6.909  0.4227 -0.0070  1.0884
  2134G12c C00I39526  12.720   5.383   6.903  0.5753  1.3408  0.6651
  2134G12c C00J39527  12.809   5.373   6.799 -0.5667 -1.4958 -0.1228
  2134G12c C00Z39528  12.579   5.702   6.572  0.2095  0.3799 -0.6779
  2134G12c C00Y39529  12.566   5.783   6.457  0.9186 -0.5285 -1.1112
  2134G12c H00639530  12.467   5.816   6.430  1.4765 -0.9253 -3.7706
  2134G12c C00X39531  12.677   5.810   6.381 -0.4698 -0.1743 -0.8809
  2134G12c O00339532  12.648   5.860   6.251 -0.1095 -1.1388  0.0400
  2134G12c C01B39533  12.575   5.979   6.243  0.8211  0.0533 -0.5729
  2134G12c H00939534  12.647   6.061   6.243 -1.9660  2.7540 -5.3611
  2134G12c H00839535  12.479   5.977   6.294  2.9770 -0.9492  3.6455
  2134G12c H00739536  12.544   5.993   6.139  0.7221  1.7237 -0.3447
  2134G12c C00W39537  12.795   5.743   6.410 -1.6034 -0.6749  0.9251
  2134G12c O00439538  12.899   5.762   6.310 -0.7806  0.4799 -0.6420
  2134G12c C01C39539  12.993   5.667   6.324  0.2545 -0.1490  1.3591
  2134G12c H00A39540  13.074   5.663   6.253 -0.5658  3.9159  0.0631
  2134G12c C00P39541  13.036   5.597   6.450 -0.0036 -0.0282  2.0048
  2134G12c C00O39542  13.173   5.597   6.495  1.3387  0.3748  0.6248
  2134G12c C01D39543  13.263   5.687   6.451 -0.0909  0.4140 -1.5074
  2134G12c H00S39544  13.243   5.762   6.376  2.6796  1.2648 -1.4332
  2134G12c C01E39545  13.383   5.707   6.529  0.7846 -0.9852 -1.1926
  2134G12c O00839546  13.472   5.825   6.506  0.1675 -0.9123  0.2283
  2134G12c C01V39547  13.440   5.927   6.414  1.1085  0.0691 -0.8716
  2134G12c C01Z39548  13.376   6.049   6.457  0.3712 -0.8014  1.1619
  2134G12c H00R39549  13.270   6.054   6.432  0.9512  1.4538 -1.0507
  2134G12c H00Q39550  13.350   6.034   6.561  1.7408  3.6102  2.2218
  2134G12c O00939551  13.463   6.163   6.436  2.0642  0.4319  1.1896
  2134G12c H00P39552  13.409   6.239   6.424  3.7582  1.5205  0.2558
  2134G12c C01W39553  13.489   5.911   6.284 -1.9842 -0.4836 -0.0270
  2134G12c H00O39554  13.469   5.983   6.206 -5.0360 -1.7366 -0.4547
  2134G12c C01X39555  13.552   5.781   6.246 -1.3426 -1.4680  0.6745
  2134G12c H00N39556  13.585   5.721   6.331 -0.3179  5.6425  5.7402
  2134G12c H00M39557  13.545   5.725   6.153  5.4584 -1.0668 -0.3549
  2134G12c C01Y39558  13.687   5.815   6.199  0.9635  0.4212  0.0390
  2134G12c C02D39559  13.774   5.706   6.195 -2.3775  0.0876 -2.5931
  2134G12c H01939560  13.735   5.616   6.241 -1.4995 -0.9567 -3.8493
  2134G12c C02C39561  13.842   5.706   6.068 -0.9867  2.8743  0.2862
  2134G12c H01A39562  13.901   5.623   6.033 -1.2577 -1.5194  8.9296
  2134G12c C02B39563  13.860   5.828   5.994  1.5015 -0.6789 -1.2245
  2134G12c O00E39564  13.916   5.806   5.865  0.2910 -0.1158 -0.1325
  2134G12c H01B39565  13.965   5.884   5.843  3.2766 -3.2121 -5.5593
  2134G12c C02F39566  13.820   5.947   6.051  0.2467  0.4943 -1.0453
  2134G12c O00F39567  13.841   6.064   5.977  0.4838 -0.0964 -0.6632
  2134G12c C02G39568  13.868   6.192   6.051  1.2517  1.8521  1.0814
  2134G12c H01739569  13.793   6.186   6.130  0.8507  2.9092  0.7814
  2134G12c H01639570  13.818   6.280   6.011 -4.8127  1.2190  6.4902
  2134G12c H01539571  13.957   6.233   6.098 -0.0821  1.1466  4.3384
  2134G12c C02E39572  13.715   5.940   6.144  0.3217 -0.1478 -3.0724
  2134G12c H01839573  13.656   6.028   6.166 -2.9556 -3.0369  0.3054
  2134G12c C01F39574  13.424   5.629   6.633 -0.2374 -1.2886 -0.0146
  2134G12c C01G39575  13.524   5.671   6.741 -2.0757  2.3753 -0.2999
  2134G12c H00L39576  13.563   5.772   6.744 -2.0242  2.5250 -3.4345
  2134G12c C01H39577  13.517   5.601   6.863  0.6695 -1.0653  1.5097
  2134G12c H00B39578  13.554   5.662   6.944  0.0244  3.8892 -1.7405
  2134G12c C01I39579  13.446   5.472   6.878 -2.1953  0.4576  0.5555
  2134G12c C01U39580  13.349   5.515   6.650  0.7095  0.4811 -0.3325
  2134G12c C00S39581  12.796   5.456   6.701  0.0234  0.7216  4.1727
  2134G12c C00K39582  12.958   5.356   6.821  0.9300 -0.3000  0.7892
  2134G12c C00N39583  13.228   5.503   6.592  0.6045 -0.5704 -0.4723
  2134G12c C00039584  13.376   5.434   6.766  0.5175  0.4484 -0.1369
  2134G12c C01J39585  13.362   5.425   6.986  1.7306 -1.0324 -0.9864
  2134G12c C01K39586  13.358   5.445   7.134  1.2768 -0.4500  0.8859
  2134G12c C01P39587  13.476   5.453   7.203 -1.5051 -0.6712 -0.1718
  2134G12c C01Q39588  13.597   5.433   7.144  0.1747  0.1370 -0.0970
  2134G12c H00G39589  13.634   5.481   7.054  4.5353  4.5046  3.7256
  2134G12c C01R39590  13.661   5.319   7.187 -2.3516 -0.4449  0.5779
  2134G12c H00F39591  13.646   5.263   7.278  4.6513 -2.3603  0.8702
  2134G12c C01S39592  13.819   5.275   7.162  3.0791  1.6522 -1.1598
  2134G12c H00E39593  13.798   5.222   7.069 -4.0179  0.9287  0.5828
  2134G12c H00D39594  13.887   5.360   7.166  4.0091  1.0401 -3.1846
  2134G12c O00539595  13.857   5.187   7.277  1.5634  0.0681  1.4544
  2134G12c H00C39596  13.778   5.164   7.325 -1.0921 -1.9089 -3.4499
  2134G12c C01O39597  13.490   5.463   7.348 -1.7553  1.0833  0.8644
  2134G12c H00H39598  13.586   5.449   7.396 -1.2200  1.2668 -0.1270
  2134G12c C01N39599  13.375   5.469   7.426 -0.0673  0.7923 -0.4776
  2134G12c O00639600  13.359   5.525   7.566  2.0771  1.2607  1.1064
  2134G12c C01T39601  13.353   5.664   7.607 -0.4591  0.1572 -0.3548
  2134G12c H00K39602  13.255   5.707   7.589 -0.3881  1.3439  1.8809
  2134G12c H00J39603  13.445   5.718   7.585  1.8609 -2.2826  2.8483
  2134G12c H00I39604  13.360   5.635   7.712  0.7564  0.5964 -0.3024
  2134G12c C01M39605  13.253   5.441   7.357 -0.6716  0.9361  0.9734
  2134G12c C02039606  12.995   5.331   6.967 -0.8667  1.6339  1.2983
  2134G12c C02139607  12.901   5.293   7.061  1.0247  0.0036  0.2865
  2134G12c C01L39608  13.245   5.429   7.211 -1.6231  0.9522 -0.3362
  2134G12c O00739609  13.149   5.423   7.448  0.5320  0.4287  1.6348
  2134G12c C02239610  12.914   5.317   7.195  0.1906  0.7356 -1.1798
  2134G12c C02339611  12.770   5.340   7.033  0.2003  2.2258 -0.8024
  2134G12c C00G39612  12.543   5.501   7.028 -0.3388 -0.0544  0.6966
  2134G12c C00E39613  12.317   5.575   7.132  0.5850 -0.5150 -0.1815
  2134G12c O00A39614  12.187   5.626   7.118 -0.5840 -0.8586  0.8449
  2134G12c C02439615  12.106   5.549   7.049  0.1448 -1.1771 -0.2485
  2134G12c H00V39616  12.039   5.510   7.126  2.3012 -2.6769  0.9004
  2134G12c H00U39617  12.142   5.500   6.958 -1.8773  2.6528 -3.3103
  2134G12c H00T39618  12.063   5.624   6.981  1.1921 -1.9306 -1.7612
  2144G12c C00D39619   4.415   2.180  11.124  0.6189  0.7211 -0.4285
  2144G12c O00B39620   4.537   2.224  11.102 -0.4018  0.2588 -0.2849
  2144G12c C02539621   4.576   2.295  10.984  1.3979  1.1152 -1.5393
  2144G12c C02639622   4.721   2.290  10.974 -0.6653  0.5114 -0.0380
  2144G12c H00Y39623   4.763   2.279  10.874  7.7387  0.9907  3.0739
  2144G12c H00X39624   4.743   2.209  11.043 -4.1159  1.0182  1.7682
  2144G12c O00C39625   4.733   2.428  10.995  0.0974 -1.1117 -0.9134
  2144G12c H00W39626   4.657   2.473  10.962  2.5208  3.0377 -1.2317
  2144G12c C02739627   4.489   2.356  10.906 -0.3239  0.1382 -0.4293
  2144G12c O00D39628   4.362   2.383  10.955 -0.9679 -0.3395  0.3299
  2144G12c H00Z39629   4.366   2.391  11.049  2.3456  5.4280 -0.0454
  2144G12c C02839630   4.508   2.422  10.781  1.0710  1.7673  0.4040
  2144G12c C02939631   4.570   2.325  10.680  0.2754 -0.5325 -1.1220
  2144G12c H01039632   4.625   2.234  10.699 -2.2325 -1.5861  1.4827
  2144G12c C02T39633   4.604   2.368  10.554 -0.1515 -0.7992 -0.1105
  2144G12c H01O39634   4.658   2.321  10.474 -6.3861 -3.4548 -3.0895
  2144G12c C02S39635   4.602   2.518  10.541 -0.8143  0.6972  0.0599
  2144G12c O00J39636   4.647   2.542  10.415 -1.4348  0.7118  0.3395
  2144G12c H01P39637   4.649   2.634  10.391  2.8434 -0.3328 -4.2816
  2144G12c C02R39638   4.542   2.604  10.626  0.4642 -1.3932  0.0710
  2144G12c O00I39639   4.505   2.743  10.588  0.5459  0.2104 -0.1767
  2144G12c C02Q39640   4.630   2.810  10.619  0.8325  0.0209  1.0912
  2144G12c H01N39641   4.618   2.867  10.712 -2.5675 -1.7533  1.7988
  2144G12c H01R39642   4.676   2.851  10.529 -0.8236 -1.6185 -0.5253
  2144G12c H01Q39643   4.705   2.747  10.667 -3.9984 -5.4732  1.9180
  2144G12c C02A39644   4.486   2.556  10.748  1.4912 -0.7026 -0.5955
  2144G12c H01139645   4.478   2.639  10.816 -4.1645 -1.4350 -0.1168
  2144G12c C00C39646   4.367   2.053  11.063  0.7317 -0.4163 -0.4289
  2144G12c H01239647   4.429   1.979  11.014 -3.1707 -0.1944 -6.1687
  2144G12c C00B39648   4.237   2.022  11.074 -1.3894 -0.3106 -1.1585
  2144G12c C00A39649   4.178   1.890  11.040  0.6130  0.1623 -0.1303
  2144G12c C00939650   4.208   1.815  10.917 -0.0972 -2.1451  0.3214
  2144G12c C00839651   4.292   1.860  10.800  0.2729 -0.7819 -0.9417
  2144G12c H01339652   4.383   1.917  10.802 -1.4925  2.0916  0.3707
  2144G12c C00739653   4.246   1.796  10.685 -0.5898  0.0257 -0.1403
  2144G12c H01439654   4.304   1.835  10.603 -0.2889  4.9025  2.1638
  2144G12c C00639655   4.130   1.696  10.680  0.4863  1.6446 -0.0819
  2144G12c C00539656   4.063   1.673  10.806  0.9377 -1.3170 -2.5381
  2144G12c C00439657   3.935   1.632  10.806 -0.4034  2.8943 -0.2367
  2144G12c C00339658   3.876   1.623  10.926 -0.2833  0.2344 -0.1144
  2144G12c C00239659   3.729   1.576  10.915 -0.4335 -1.0556 -0.0314
  2144G12c C00139660   3.616   1.581  11.011 -1.0115 -1.0609 -1.1367
  2144G12c C00M39661   3.576   1.715  11.076 -0.0124 -0.5037 -0.9918
  2144G12c C00L39662   3.663   1.768  11.168  1.2207 -0.8412  0.3394
  2144G12c C00R39663   3.636   1.886  11.230  0.6450  0.3499  1.5117
  2144G12c C00Q39664   3.522   1.988  11.218  1.2523  0.4291 -1.6468
  2144G12c C00V39665   3.553   2.122  11.248  0.2689  0.9091 -0.3403
  2144G12c C00U39666   3.682   2.167  11.262  0.5249 -0.6897  0.2203
  2144G12c C00T39667   3.787   2.088  11.261 -0.1551 -0.7732  0.1958
  2144G12c C01639668   3.920   2.119  11.235  1.9150  1.7334  1.3432
  2144G12c C01539669   3.944   2.257  11.251 -1.1352  0.9507  1.0017
  2144G12c C01039670   3.831   2.337  11.303 -0.1197 -0.6474 -0.0817
  2144G12c C01139671   3.860   2.468  11.339 -0.7065 -1.2364 -0.5447
  2144G12c H00539672   3.796   2.534  11.396  2.8219 -1.1205  3.5855
  2144G12c C01239673   3.977   2.542  11.309  0.2950  0.7731 -1.8500
  2144G12c C01739674   3.989   2.682  11.317 -0.0994  0.0964  0.3295
  2144G12c O00239675   3.892   2.756  11.374  0.2673  0.6000 -1.2873
  2144G12c H00439676   3.937   2.822  11.425 -2.4187 -0.4110  2.6328
  2144G12c C01839677   4.108   2.744  11.293  0.2419 -1.0644 -1.3762
  2144G12c O00139678   4.207   2.719  11.206 -1.5334 -2.0128 -0.0613
  2144G12c H00339679   4.165   2.666  11.140  3.0623 -7.2264  0.8584
  2144G12c C01939680   4.141   2.868  11.356 -0.9807 -0.1263  0.3385
  2144G12c H00239681   4.250   2.869  11.345 -0.9625 -0.0636  0.5241
  2144G12c H00139682   4.114   2.956  11.298 -0.3788  1.0972  1.8901
  2144G12c O00039683   4.097   2.885  11.482 -1.4416  0.7843 -0.1711
  2144G12c C01A39684   4.146   2.990  11.559  0.4341  0.0808 -0.3144
  2144G12c C02K39685   4.101   3.119  11.540 -0.4396 -0.1128  0.0419
  2144G12c O00G39686   4.034   3.151  11.429  1.2386 -0.4444  0.3470
  2144G12c C02M39687   4.047   3.286  11.394  1.0391 -0.3639 -0.1027
  2144G12c H01G39688   3.953   3.326  11.432 -0.9322 -0.9944 -4.0452
  2144G12c H01F39689   4.148   3.317  11.419  2.3797 -3.9099 -0.8748
  2144G12c H01E39690   4.010   3.328  11.300  7.8090 -4.0765 -4.9302
  2144G12c C02J39691   4.111   3.208  11.662 -2.2370  0.8045  1.5002
  2144G12c H01H39692   4.063   3.305  11.666  3.0024  3.6010  0.6647
  2144G12c C02I39693   4.190   3.167  11.782  0.3229 -0.3511 -0.1867
  2144G12c C02N39694   4.217   3.259  11.895 -2.3477  0.1611 -0.5514
  2144G12c H01M39695   4.315   3.264  11.939 -2.6596  2.4090 -0.0435
  2144G12c C02O39696   4.123   3.351  11.933  0.3296  1.4689 -0.4621
  2144G12c H01L39697   4.044   3.360  11.861 -0.2506 -0.1312 -0.0612
  2144G12c C02P39698   4.116   3.451  12.042 -1.4136 -1.1302  0.1090
  2144G12c H01K39699   4.060   3.391  12.114 -0.7016 -2.6028 -0.5410
  2144G12c H01J39700   4.210   3.471  12.093 -4.3231 -1.8529  6.1820
  2144G12c O00H39701   4.062   3.576  12.021 -0.8405 -0.2318 -1.4902
  2144G12c H01I39702   3.977   3.549  11.990 -0.2969 -1.7391 -1.7229
  2144G12c C02H39703   4.223   3.034  11.770  1.8342  1.5549  0.0989
  2144G12c H01C39704   4.303   3.007  11.838  3.6869  0.0028 -2.6365
  2144G12c C02L39705   4.204   2.944  11.664 -0.6724  0.1920  0.0872
  2144G12c H01D39706   4.253   2.848  11.670  0.7494  0.7298 -2.3252
  2144G12c C01339707   4.076   2.444  11.274 -1.0939 -0.5351  0.9962
  2144G12c H00039708   4.179   2.476  11.266 -0.5233 -2.0249  2.0630
  2144G12c C01439709   4.079   2.302  11.252  0.3278  0.1218 -1.5902
  2144G12c C00F39710   4.184   2.213  11.208 -0.3389 -1.5285  0.0007
  2144G12c C00H39711   4.015   2.028  11.205 -0.7411 -0.8278  0.6607
  2144G12c C00I39712   3.986   1.891  11.189 -0.8443  1.2958  1.5029
  2144G12c C00J39713   3.858   1.850  11.208  1.2523  0.3015 -0.1824
  2144G12c C00Z39714   3.703   2.301  11.291  0.3548 -0.9553  0.7357
  2144G12c C00Y39715   3.596   2.391  11.317  1.4787  1.5252  0.1185
  2144G12c H00639716   3.599   2.499  11.324 -4.1096  1.7861  0.2865
  2144G12c C00X39717   3.462   2.352  11.282 -0.2639 -1.6430  0.2053
  2144G12c O00339718   3.374   2.442  11.232 -0.3113 -1.0717 -0.8104
  2144G12c C01B39719   3.225   2.439  11.233  1.1085  0.3591 -0.3335
  2144G12c H00939720   3.192   2.369  11.156 -2.2377 -0.2207  1.5385
  2144G12c H00839721   3.181   2.427  11.332  3.8924  1.0859  1.0373
  2144G12c H00739722   3.173   2.530  11.205 -0.0677  2.6683  8.0039
  2144G12c C00W39723   3.434   2.207  11.270 -0.5849 -0.5187  0.0091
  2144G12c O00439724   3.320   2.180  11.246  0.4800 -1.1743  0.2986
  2144G12c C01C39725   3.279   2.045  11.230 -0.5541  1.6721  1.1660
  2144G12c H00A39726   3.174   2.025  11.217 -1.0093  5.5836 -2.0731
  2144G12c C00P39727   3.381   1.950  11.176 -1.4202 -1.6829 -0.8183
  2144G12c C00O39728   3.350   1.839  11.091 -1.1968  0.7246  0.1367
  2144G12c C01D39729   3.226   1.834  11.009 -1.2373  0.0402  1.7071
  2144G12c H00S39730   3.149   1.910  11.007  0.8830  2.3216  2.5203
  2144G12c C01E39731   3.210   1.754  10.896  0.4583 -0.6822  0.1294
  2144G12c O00839732   3.095   1.743  10.823  0.3560 -0.8745  0.1994
  2144G12c C01V39733   2.971   1.795  10.862  2.0693 -0.5045 -0.4224
  2144G12c C01Z39734   2.885   1.896  10.771  2.7794 -0.3325  0.2301
  2144G12c H00R39735   2.893   1.995  10.816  3.0103  0.4813 -1.5585
  2144G12c H00Q39736   2.916   1.896  10.666  1.3267  1.0203 -0.2169
  2144G12c O00939737   2.741   1.870  10.788  1.2690  0.9036  1.9567
  2144G12c H00P39738   2.754   1.825  10.870  4.7270 -4.0578 -1.0701
  2144G12c C01W39739   2.920   1.720  10.973 -0.2732  0.3743 -0.4981
  2144G12c H00O39740   2.992   1.659  11.026  0.5265  0.3384 -1.6077
  2144G12c C01X39741   2.807   1.722  11.076  1.3346 -0.2440 -0.5752
  2144G12c H00N39742   2.878   1.746  11.155  2.1563 -0.6550 -1.1827
  2144G12c H00M39743   2.737   1.796  11.036 -0.6897 -3.8235 -3.9804
  2144G12c C01Y39744   2.747   1.583  11.090 -1.3695  1.1517 -0.0323
  2144G12c C02D39745   2.664   1.549  11.187  1.1761 -0.4702 -0.1792
  2144G12c H01939746   2.673   1.602  11.281  2.5890  1.5009 -1.3765
  2144G12c C02C39747   2.567   1.448  11.187  1.0044 -1.2152 -0.9228
  2144G12c H01A39748   2.509   1.422  11.274  2.4308 -2.3012 -0.2843
  2144G12c C02B39749   2.580   1.361  11.083  0.7215  0.0520 -1.8480
  2144G12c O00E39750   2.524   1.237  11.061  0.3127 -0.1300  0.9805
  2144G12c H01B39751   2.570   1.159  11.034 -5.0565 -3.2752  0.1920
  2144G12c C02F39752   2.680   1.392  10.984 -0.1169  1.3173 -2.3078
  2144G12c O00F39753   2.705   1.298  10.904 -0.0209  0.1887 -0.3092
  2144G12c C02G39754   2.836   1.285  10.863  0.5688 -0.4539 -0.6400
  2144G12c H01739755   2.844   1.185  10.819  0.5550 -0.5681 -0.3817
  2144G12c H01639756   2.858   1.329  10.766  3.4056 -2.4624 -0.9647
  2144G12c H01539757   2.880   1.259  10.959 -2.6421 -6.1223 -0.4562
  2144G12c C02E39758   2.755   1.512  10.982 -0.6212  0.0971 -1.1508
  2144G12c H01839759   2.841   1.529  10.917 -0.2826 -1.9468 -1.2688
  2144G12c C01F39760   3.299   1.656  10.872 -0.1197  1.1719  2.2072
  2144G12c C01G39761   3.288   1.564  10.766  0.0120  0.0333 -1.0328
  2144G12c H00L39762   3.203   1.549  10.700 -5.9141  3.2335  5.2900
  2144G12c C01H39763   3.404   1.489  10.728 -1.5776 -0.2321  0.2847
  2144G12c H00B39764   3.367   1.438  10.641 -3.9514  3.3578 -0.9192
  2144G12c C01I39765   3.528   1.498  10.805 -0.4233 -0.2488 -0.2730
  2144G12c C01U39766   3.408   1.643  10.965  0.8076  0.4504 -0.1381
  2144G12c C00S39767   3.755   1.949  11.250  1.7109 -0.6080 -0.5001
  2144G12c C00K39768   3.810   1.752  11.135  0.3683  1.1844  0.1051
  2144G12c C00N39769   3.435   1.736  11.064  0.8346 -0.7269  0.3716
  2144G12c C00039770   3.508   1.539  10.946 -0.3378  0.7651  0.5849
  2144G12c C01J39771   3.676   1.514  10.789  1.2336  1.4438  0.1438
  2144G12c C01K39772   3.752   1.499  10.663  1.2597  0.3365  3.1966
  2144G12c C01P39773   3.720   1.456  10.533  1.2149  1.5449 -0.6373
  2144G12c C01Q39774   3.594   1.384  10.516  0.5565 -1.3612  0.9759
  2144G12c H00G39775   3.564   1.322  10.598 -7.5227  0.9920  0.1732
  2144G12c C01R39776   3.525   1.386  10.394  0.7063  0.6524  0.1120
  2144G12c H00F39777   3.511   1.483  10.348  0.4194  1.3890  1.7329
  2144G12c C01S39778   3.394   1.303  10.387  1.9030  0.9010 -1.6888
  2144G12c H00E39779   3.409   1.209  10.334 -0.4061 -2.8152  3.7086
  2144G12c H00D39780   3.339   1.272  10.476 -0.3154 -5.8348 -5.0719
  2144G12c O00539781   3.290   1.360  10.311 -1.5427  0.6387  1.6987
  2144G12c H00C39782   3.310   1.379  10.221  5.2326 -3.6572  1.9295
  2144G12c C01O39783   3.814   1.464  10.432 -0.7121  1.1608 -0.6498
  2144G12c H00H39784   3.793   1.407  10.342 -4.7999 -3.1215  2.7411
  2144G12c C01N39785   3.935   1.534  10.441  1.6489 -0.2699 -0.2519
  2144G12c O00639786   3.999   1.580  10.318 -0.1960 -0.4924 -0.2450
  2144G12c C01T39787   4.159   1.569  10.314  1.0469 -0.2475 -0.2972
  2144G12c H00K39788   4.212   1.664  10.315  0.6751 -0.0129  3.4308
  2144G12c H00J39789   4.228   1.516  10.380 -1.1030 -3.1839 -0.3154
  2144G12c H00I39790   4.142   1.520  10.218 -2.3122  4.7344 -2.4109
  2144G12c C01M39791   3.960   1.591  10.562 -0.5178  2.2780  0.4235
  2144G12c C02039792   3.907   1.685  11.051 -1.6951  0.1895 -0.3847
  2144G12c C02139793   4.043   1.711  11.053 -0.1782  0.0142 -0.8417
  2144G12c C01L39794   3.880   1.572  10.676 -0.5809  2.4629  2.1626
  2144G12c O00739795   4.084   1.650  10.566  1.6296  1.2827  0.7053
  2144G12c C02239796   4.115   1.720  10.933  1.5406  0.0139 -0.4953
  2144G12c C02339797   4.078   1.821  11.124  0.1976  0.6663 -0.7052
  2144G12c C00G39798   4.144   2.080  11.163 -0.1412  1.4091 -0.9818
  2144G12c C00E39799   4.316   2.253  11.192  1.3340 -0.6823 -0.6255
  2144G12c O00A39800   4.351   2.317  11.310 -1.1007 -0.2863  0.6586
  2144G12c C02439801   4.448   2.429  11.295 -0.2982  0.3510  0.0830
  2144G12c H00V39802   4.414   2.503  11.368 -1.5085 -2.8473  2.8497
  2144G12c H00U39803   4.551   2.417  11.329  0.2209  2.0489 -0.8246
  2144G12c H00T39804   4.420   2.473  11.199 -1.0745  2.9960  1.4585
  2154G12c C00D39805   2.082   8.320   1.455  0.2621  1.5847 -0.1217
  2154G12c O00B39806   1.989   8.250   1.539  0.2585  0.4915 -0.4358
  2154G12c C02539807   1.860   8.294   1.575 -0.3773  1.8801 -0.4613
  2154G12c C02639808   1.849   8.342   1.723  2.0456 -0.7469  0.5191
  2154G12c H00Y39809   1.894   8.284   1.804 -1.3070 -0.9507  2.3083
  2154G12c H00X39810   1.745   8.362   1.746 -0.1302 -5.7323 -3.9027
  2154G12c O00C39811   1.935   8.438   1.775  2.3637  0.4347  0.1191
  2154G12c H00W39812   1.987   8.480   1.708  5.9725 -3.5683  0.2234
  2154G12c C02739813   1.754   8.286   1.478 -0.8770 -0.2623  0.6575
  2154G12c O00D39814   1.793   8.281   1.354  0.1987 -0.2610  0.0627
  2154G12c H00Z39815   1.713   8.287   1.303  1.6901  2.0833 -2.1827
  2154G12c C02839816   1.621   8.311   1.529  1.3471 -0.2608  1.3004
  2154G12c C02939817   1.544   8.217   1.590  0.0546  2.1443  0.4562
  2154G12c H01039818   1.550   8.110   1.580 -0.6979  1.5079  5.3833
  2154G12c C02T39819   1.430   8.256   1.665  1.0514 -0.5883 -0.4795
  2154G12c H01O39820   1.356   8.202   1.722  2.3284 -3.3097 -1.2949
  2154G12c C02S39821   1.403   8.394   1.673  1.0012 -0.3304 -3.3711
  2154G12c O00J39822   1.276   8.432   1.704 -1.5398  0.9366 -0.1550
  2154G12c H01P39823   1.255   8.524   1.705 -1.8807  1.1488 -6.3703
  2154G12c C02R39824   1.501   8.490   1.651 -1.6579 -0.4754 -0.5517
  2154G12c O00I39825   1.457   8.615   1.685  0.5686  1.7646 -2.2044
  2154G12c C02Q39826   1.563   8.706   1.710  1.3124  1.0529  0.4431
  2154G12c H01N39827   1.645   8.729   1.641 -2.5096  1.4172 -4.2452
  2154G12c H01R39828   1.584   8.671   1.811 -0.2416  2.0654  1.1282
  2154G12c H01Q39829   1.513   8.803   1.712 -3.3288 -1.2490  3.6799
  2154G12c C02A39830   1.608   8.453   1.563 -0.4339 -0.7663 -0.1857
  2154G12c H01139831   1.665   8.537   1.528 -3.5200  4.1048  5.7009
  2154G12c C00C39832   2.069   8.449   1.391  0.2285 -1.0760  0.7783
  2154G12c H01239833   1.978   8.506   1.401  2.5510  2.2221  5.0634
  2154G12c C00B39834   2.169   8.525   1.352  0.4133  0.2849 -0.5303
  2154G12c C00A39835   2.188   8.669   1.334  0.0012  0.0349  0.3374
  2154G12c C00939836   2.075   8.773   1.311  0.2926  1.7211 -0.7530
  2154G12c C00839837   1.928   8.765   1.285 -1.7482 -0.2275  1.4623
  2154G12c H01339838   1.876   8.678   1.322  0.2738 -2.8945 -1.6626
  2154G12c C00739839   1.870   8.873   1.216 -0.2402  0.4298  1.4454
  2154G12c H01439840   1.765   8.874   1.191 -1.8434 -3.4388  7.0667
  2154G12c C00639841   1.952   8.980   1.172  0.3486  0.5846 -0.6008
  2154G12c C00539842   2.094   8.971   1.203 -0.3424 -0.3543  0.8680
  2154G12c C00439843   2.182   9.053   1.131 -0.7753 -0.8592  0.6201
  2154G12c C00339844   2.317   9.025   1.117  1.0112 -0.7431 -0.6244
  2154G12c C00239845   2.391   9.124   1.038  1.6804 -1.1812 -0.0305
  2154G12c C00139846   2.529   9.105   1.001 -0.5242  1.8556  0.2896
  2154G12c C00M39847   2.592   8.984   0.952 -1.5163 -0.5357 -0.9277
  2154G12c C00L39848   2.539   8.866   0.989 -1.5370  0.0417 -0.3583
  2154G12c C00R39849   2.588   8.730   0.971 -1.9959 -1.1206  0.2414
  2154G12c C00Q39850   2.638   8.686   0.849 -0.1500 -0.1752  0.1568
  2154G12c C00V39851   2.655   8.538   0.847 -1.3908 -0.8605 -0.0077
  2154G12c C00U39852   2.589   8.450   0.933 -1.2452 -0.0233 -0.6851
  2154G12c C00T39853   2.545   8.502   1.050  0.4873 -1.5604 -0.1074
  2154G12c C01639854   2.465   8.444   1.148  1.2604 -0.8327  0.7491
  2154G12c C01539855   2.455   8.306   1.127  1.1838 -3.2866  0.3399
  2154G12c C01039856   2.494   8.246   1.013  0.6271 -1.1788  0.3544
  2154G12c C01139857   2.455   8.112   0.991 -2.8593  0.2339 -0.1316
  2154G12c H00539858   2.465   8.070   0.893  3.3557 -0.2228  0.5117
  2154G12c C01239859   2.386   8.038   1.092  1.2196 -0.0486  1.1652
  2154G12c C01739860   2.338   7.903   1.060 -0.1311  1.4448  0.3227
  2154G12c O00239861   2.358   7.861   0.937 -0.3728  0.3002  0.5137
  2154G12c H00439862   2.405   7.779   0.933  2.7297  1.8425  2.7640
  2154G12c C01839863   2.282   7.815   1.151 -0.4630 -0.4100 -1.0544
  2154G12c O00139864   2.242   7.864   1.274  0.7153 -0.6691  1.6194
  2154G12c H00339865   2.271   7.810   1.345  1.7977 -2.9823 -0.5284
  2154G12c C01939866   2.245   7.656   1.129  1.6274  1.3047 -0.8161
  2154G12c H00239867   2.139   7.653   1.103  2.1524 -1.9170 -2.7450
  2154G12c H00139868   2.296   7.641   1.035 -2.2778 -2.7319 -2.4910
  2154G12c O00039869   2.275   7.553   1.215 -0.5129  0.9246 -0.1955
  2154G12c C01A39870   2.204   7.529   1.330 -0.1368  2.1914  0.8625
  2154G12c C02K39871   2.068   7.484   1.345 -0.1667  2.0414 -0.4286
  2154G12c O00G39872   2.001   7.415   1.252  0.0181  0.8431 -0.2559
  2154G12c C02M39873   2.043   7.385   1.121  0.1122  1.0036 -0.3974
  2154G12c H01G39874   1.968   7.398   1.044  1.6960 -1.3389 -2.4309
  2154G12c H01F39875   2.059   7.283   1.086 -9.1546 -0.7885 -0.6267
  2154G12c H01E39876   2.133   7.438   1.090 -2.4508  4.5132 -2.1127
  2154G12c C02J39877   2.025   7.455   1.480 -0.6731  1.4891 -2.9414
  2154G12c H01H39878   1.937   7.396   1.496  0.6162 -0.2287 -1.9810
  2154G12c C02I39879   2.118   7.474   1.593  0.6109  1.6068  0.6538
  2154G12c C02N39880   2.112   7.400   1.716  0.0557 -1.9365 -0.7298
  2154G12c H01M39881   2.173   7.317   1.746  0.9123  0.0996  3.5098
  2154G12c C02O39882   2.022   7.441   1.815  0.0043  1.0053  0.7690
  2154G12c H01L39883   1.965   7.528   1.785  0.4640 -0.5552 -5.2916
  2154G12c C02P39884   2.021   7.376   1.952 -0.1480  0.8955  0.0663
  2154G12c H01K39885   2.115   7.325   1.974  3.1234  6.6127  0.4187
  2154G12c H01J39886   2.012   7.456   2.025  1.4743 -4.6534  6.9767
  2154G12c O00H39887   1.893   7.316   1.950 -0.1354  2.4643  0.3170
  2154G12c H01I39888   1.826   7.376   1.920 -0.6379  1.4317 -0.6622
  2154G12c C02H39889   2.241   7.502   1.558  0.7516 -0.1960 -0.6318
  2154G12c H01C39890   2.322   7.495   1.629  0.3332 -1.5209 -0.2627
  2154G12c C02L39891   2.275   7.563   1.443 -2.0871 -0.3893  0.1353
  2154G12c H01D39892   2.377   7.593   1.421 -2.7301 -0.5346 -3.1526
  2154G12c C01339893   2.332   8.113   1.188  0.8560 -0.8358 -1.2334
  2154G12c H00039894   2.246   8.076   1.242  1.3597  1.2429  1.0699
  2154G12c C01439895   2.366   8.243   1.211 -0.9156  0.2688 -0.6949
  2154G12c C00F39896   2.286   8.317   1.302  0.5640  0.9364 -1.0191
  2154G12c C00H39897   2.387   8.521   1.238  0.6676  0.2054  0.8940
  2154G12c C00I39898   2.415   8.652   1.266  0.9923 -1.4518  1.5143
  2154G12c C00J39899   2.508   8.730   1.179 -1.0475 -0.0370  0.4624
  2154G12c C00Z39900   2.557   8.318   0.914  1.0188  0.3935  0.1636
  2154G12c C00Y39901   2.612   8.264   0.795 -0.5520  1.5264 -1.0213
  2154G12c H00639902   2.646   8.163   0.810 -5.1646 -0.4970 -3.2363
  2154G12c C00X39903   2.680   8.343   0.689  2.3053  1.7169  0.9291
  2154G12c O00339904   2.778   8.275   0.613 -0.0624 -0.0264  1.9133
  2154G12c C01B39905   2.810   8.144   0.650  1.0655 -1.2964  0.5735
  2154G12c H00939906   2.817   8.106   0.752  4.0713  0.1782  0.9749
  2154G12c H00839907   2.748   8.070   0.601  6.0080 -3.4350 -2.9073
  2154G12c H00739908   2.911   8.148   0.608 -0.6338  0.6138 -3.6108
  2154G12c C00W39909   2.693   8.492   0.711  0.8398  0.8135 -1.1723
  2154G12c O00439910   2.755   8.561   0.620  0.9828 -1.3877 -0.2827
  2154G12c C01C39911   2.672   8.651   0.595  1.4305 -0.1941 -0.0496
  2154G12c H00A39912   2.596   8.610   0.530  0.3030  1.5180  0.1374
  2154G12c C00P39913   2.617   8.744   0.709 -0.3087  2.0748  1.0128
  2154G12c C00O39914   2.585   8.887   0.700 -0.5154  1.0240  1.8366
  2154G12c C01D39915   2.570   8.926   0.561 -1.2925 -0.6153 -0.0610
  2154G12c H00S39916   2.590   8.853   0.483  2.1309  1.2258 -0.9949
  2154G12c C01E39917   2.539   9.058   0.528 -0.3091 -0.0343  1.9919
  2154G12c O00839918   2.540   9.103   0.389  1.0150 -0.2985  0.4677
  2154G12c C01V39919   2.590   9.007   0.294  0.2478 -1.9629  1.0688
  2154G12c C01Z39920   2.739   8.995   0.265 -0.6206 -0.7657  0.5841
  2154G12c H00R39921   2.738   9.099   0.300 -0.9506  0.4505 -2.8850
  2154G12c H00Q39922   2.811   8.930   0.314 -0.1982  0.1290  1.1797
  2154G12c O00939923   2.759   9.024   0.125 -0.6099  0.3551 -0.3044
  2154G12c H00P39924   2.846   9.059   0.112  0.0184 -0.5798  1.2087
  2154G12c C01W39925   2.506   8.919   0.238  0.1479  0.2082 -0.9072
  2154G12c H00O39926   2.530   8.853   0.156 -5.6184 -2.1191 -0.9847
  2154G12c C01X39927   2.368   8.902   0.249  0.3733  2.5838 -0.1663
  2154G12c H00N39928   2.322   8.971   0.320 -2.7349  4.4515 -3.7970
  2154G12c H00M39929   2.325   8.909   0.149 -4.8159 -0.1588  1.7005
  2154G12c C01Y39930   2.330   8.760   0.315  2.6796  0.5828 -0.7281
  2154G12c C02D39931   2.287   8.646   0.247  1.5694 -0.4107  0.1328
  2154G12c H01939932   2.272   8.665   0.142 -0.8051 -2.1129  0.1350
  2154G12c C02C39933   2.253   8.537   0.312  0.5178 -0.2197  1.0934
  2154G12c H01A39934   2.269   8.438   0.271  2.9457 -0.0111  1.4506
  2154G12c C02B39935   2.240   8.529   0.466  0.4290  0.7054 -0.2622
  2154G12c O00E39936   2.210   8.414   0.526  1.2596  1.0391 -0.4556
  2154G12c H01B39937   2.199   8.447   0.614  3.5136  0.8637 -0.0979
  2154G12c C02F39938   2.269   8.640   0.540 -1.2239  0.3224  1.2024
  2154G12c O00F39939   2.254   8.648   0.676 -0.4326  0.8353  0.8822
  2154G12c C02G39940   2.175   8.759   0.717 -0.4014  1.1393  0.1229
  2154G12c H01739941   2.192   8.838   0.644  8.6830 -2.4348 -2.2959
  2154G12c H01639942   2.211   8.788   0.815 -0.8232  3.0493 -0.2605
  2154G12c H01539943   2.077   8.715   0.731 -0.0267  0.8715  1.9552
  2154G12c C02E39944   2.317   8.741   0.455 -0.2019  0.2894 -0.8673
  2154G12c H01839945   2.340   8.836   0.500 -1.0485 -1.8577  4.5188
  2154G12c C01F39946   2.519   9.138   0.632  0.8032 -1.7477 -1.2623
  2154G12c C01G39947   2.437   9.257   0.618 -0.5465 -0.7952 -0.1273
  2154G12c H00L39948   2.408   9.295   0.522 -1.6189 -4.4980 -1.3557
  2154G12c C01H39949   2.390   9.331   0.736 -0.5960 -0.6145  0.1842
  2154G12c H00B39950   2.318   9.398   0.692  1.1402  2.4532  1.9111
  2154G12c C01I39951   2.416   9.284   0.878  0.5557 -0.3996 -0.4711
  2154G12c C01U39952   2.569   9.126   0.769 -0.8198  0.4954  1.5031
  2154G12c C00S39953   2.562   8.644   1.072  0.2102  0.0876 -0.0178
  2154G12c C00K39954   2.485   8.853   1.121  1.0213  1.2206  0.3923
  2154G12c C00N39955   2.598   8.986   0.805  1.8127  0.7599 -0.7019
  2154G12c C00039956   2.533   9.201   0.887 -0.4514 -1.0208 -0.0221
  2154G12c C01J39957   2.325   9.229   0.977  0.0676 -0.4936  0.6241
  2154G12c C01K39958   2.192   9.271   0.986 -0.1832 -0.6346 -0.8925
  2154G12c C01P39959   2.122   9.373   0.916 -2.6187 -0.1021  0.1605
  2154G12c C01Q39960   2.160   9.518   0.889 -0.2158 -0.5495  0.5629
  2154G12c H00G39961   2.151   9.567   0.793  0.0477  0.4745  1.0440
  2154G12c C01R39962   2.200   9.601   0.984  0.3596 -1.6493  1.7008
  2154G12c H00F39963   2.214   9.566   1.085  4.5548  3.2194  3.0313
  2154G12c C01S39964   2.213   9.742   0.967  0.0852  0.7146  0.7929
  2154G12c H00E39965   2.311   9.783   0.941  2.2796 -4.9712 -0.7287
  2154G12c H00D39966   2.139   9.772   0.892  0.4428  3.7364  1.5944
  2154G12c O00539967   2.169   9.809   1.085 -0.7860  1.0300  1.1162
  2154G12c H00C39968   2.235   9.834   1.148 -1.0328 -0.9070  2.1965
  2154G12c C01O39969   1.978   9.342   0.889 -1.6751 -0.6845 -1.4631
  2154G12c H00H39970   1.904   9.390   0.827 -2.2429 -0.7054 -0.7945
  2154G12c C01N39971   1.908   9.235   0.943 -1.0508  0.8589 -0.3695
  2154G12c O00639972   1.765   9.226   0.927 -0.2574  1.2256 -0.0028
  2154G12c C01T39973   1.680   9.356   0.925  0.5937  0.2922 -0.4799
  2154G12c H00K39974   1.714   9.432   0.995  2.4402  1.8186 -2.9757
  2154G12c H00J39975   1.573   9.370   0.941  1.3569  5.4583  0.8753
  2154G12c H00I39976   1.699   9.427   0.845  4.1818 -1.4401 -1.2471
  2154G12c C01M39977   1.980   9.161   1.030 -0.1253 -0.8880 -1.5723
  2154G12c C02039978   2.376   8.922   1.187  0.0304  0.1836 -0.4831
  2154G12c C02139979   2.294   8.870   1.304  0.7416 -0.4742  1.3982
  2154G12c C01L39980   2.125   9.171   1.057  1.8482 -1.2774  1.4162
  2154G12c O00739981   1.892   9.089   1.117  0.1006  0.4164 -0.1838
  2154G12c C02239982   2.163   8.882   1.291  1.0690  0.6703 -0.3546
  2154G12c C02339983   2.306   8.727   1.318 -0.8089 -0.6291  0.6268
  2154G12c C00G39984   2.287   8.457   1.310  0.4654  0.3181 -0.0550
  2154G12c C00E39985   2.193   8.248   1.404 -0.7227  0.6402  1.9174
  2154G12c O00A39986   2.214   8.127   1.459  1.5067  0.2308 -0.4822
  2154G12c C02439987   2.346   8.117   1.515 -0.7535 -0.6636 -0.3569
  2154G12c H00V39988   2.424   8.179   1.472  1.3423 -0.2354  3.8168
  2154G12c H00U39989   2.334   8.010   1.493 -1.1172 -0.8944  0.9180
  2154G12c H00T39990   2.340   8.133   1.622  1.9198  7.5649 -1.1096
  2164G12c C00D39991   4.622   2.462   9.128 -0.8758 -1.8681 -0.1071
  2164G12c O00B39992   4.621   2.565   9.231 -0.6064 -0.4216  0.8281
  2164G12c C02539993   4.566   2.698   9.192  0.7246 -1.5913 -0.7375
  2164G12c C02639994   4.415   2.685   9.151 -0.4861 -0.7933  0.4434
  2164G12c H00Y39995   4.388   2.716   9.050  0.8413  8.6001  2.5716
  2164G12c H00X39996   4.371   2.724   9.242 -1.4620  1.2893 -0.8930
  2164G12c O00C39997   4.353   2.564   9.170 -0.1979 -0.7744  0.0601
  2164G12c H00W39998   4.267   2.578   9.133 -2.3538 -0.5375  4.7709
  2164G12c C02739999   4.636   2.799   9.214  2.5276 -0.2911  0.4771
  2164G12c O00D40000   4.758   2.789   9.266 -1.2675  0.2604  0.8124
  2164G12c H00Z40001   4.803   2.706   9.269 -6.1849 -2.7549 -1.3779
  2164G12c C02840002   4.551   2.917   9.243 -1.8262  2.0174  0.3444
  2164G12c C02940003   4.435   2.952   9.171  0.3240  0.3446  0.9431
  2164G12c H01040004   4.441   2.922   9.068  1.6279 -2.6385  1.8238
  2164G12c C02T40005   4.343   3.051   9.223 -0.7480  0.0307  0.3699
  2164G12c H01O40006   4.267   3.084   9.154 -2.5069 -1.0178  1.7832
  2164G12c C02S40007   4.368   3.123   9.350 -1.4795  0.7497 -0.9497
  2164G12c O00J40008   4.298   3.240   9.395  0.0718  1.1249 -0.0902
  2164G12c H01P40009   4.262   3.214   9.479  1.5498 -3.1341 -0.6745
  2164G12c C02R40010   4.484   3.075   9.416  0.5262 -0.5315  0.9651
  2164G12c O00I40011   4.507   3.113   9.535  0.1222 -0.9476 -0.6384
  2164G12c C02Q40012   4.581   3.224   9.543  1.0135 -0.4455 -0.8869
  2164G12c H01N40013   4.545   3.324   9.520 -1.1485 -1.1017 -0.4389
  2164G12c H01R40014   4.680   3.206   9.500  2.5728 -0.1172  2.3924
  2164G12c H01Q40015   4.603   3.216   9.650  0.5738 -8.9230 -1.0678
  2164G12c C02A40016   4.577   2.989   9.362 -0.0396  1.5383 -0.3716
  2164G12c H01140017   4.677   2.982   9.402  0.2609  6.0982 -0.0287
  2164G12c C00C40018   4.580   2.490   8.993  2.5467 -0.9334 -0.1379
  2164G12c H01240019   4.595   2.594   8.966  3.1531 -0.0703  3.3095
  2164G12c C00B40020   4.519   2.401   8.904 -0.2852 -0.0603  1.8753
  2164G12c C00A40021   4.450   2.425   8.775 -1.2508 -0.2829 -1.2416
  2164G12c C00940022   4.426   2.542   8.698  0.9534 -1.8507  1.3425
  2164G12c C00840023   4.369   2.657   8.742  0.4703  0.2826 -0.1783
  2164G12c H01340024   4.337   2.666   8.844 -0.7736  3.8349 -0.8017
  2164G12c C00740025   4.330   2.744   8.635 -0.9548 -0.6454  0.8902
  2164G12c H01440026   4.285   2.841   8.652 -2.8240 -1.4884  0.9675
  2164G12c C00640027   4.293   2.696   8.509 -0.6024  0.1372  0.2375
  2164G12c C00540028   4.331   2.567   8.481 -0.7615  2.0433  0.7683
  2164G12c C00440029   4.275   2.504   8.383  0.7640  0.1826  1.2576
  2164G12c C00340030   4.278   2.351   8.385 -1.1847 -1.6866  0.9831
  2164G12c C00240031   4.192   2.286   8.275 -2.2944  0.3541 -0.8722
  2164G12c C00140032   4.129   2.150   8.272 -1.3511  0.3993 -0.5465
  2164G12c C00M40033   4.103   2.058   8.377 -1.2370  0.0746  0.9675
  2164G12c C00L40034   4.178   2.060   8.502 -2.8396 -0.7644  0.2774
  2164G12c C00R40035   4.160   1.999   8.623 -0.7025 -0.3649  0.1109
  2164G12c C00Q40036   4.036   1.957   8.681 -0.6819  0.6073  0.0265
  2164G12c C00V40037   4.058   1.910   8.808  1.7842 -0.2513 -0.0099
  2164G12c C00U40038   4.164   1.954   8.894  0.1599  0.0661 -0.9117
  2164G12c C00T40039   4.262   2.034   8.846  1.1222  0.4816  1.1398
  2164G12c C01640040   4.370   2.085   8.915 -1.6591  0.0712  1.1818
  2164G12c C01540041   4.366   2.066   9.043 -0.2046  1.6690  0.5809
  2164G12c C01040042   4.278   1.976   9.101  0.4888  0.4961 -0.4958
  2164G12c C01140043   4.289   1.924   9.232  0.3107 -0.0134  0.5079
  2164G12c H00540044   4.204   1.876   9.278  3.5837 -2.8440  3.9645
  2164G12c C01240045   4.396   1.960   9.314  0.2160  0.1587  2.3572
  2164G12c C01740046   4.415   1.890   9.448 -0.3738  0.5175 -0.0340
  2164G12c O00240047   4.539   1.938   9.512  0.4313 -0.7559  1.3804
  2164G12c H00440048   4.545   2.032   9.525 -0.6790 -0.7156  1.6576
  2164G12c C01840049   4.319   1.834   9.524  0.2240  1.9758 -0.0846
  2164G12c O00140050   4.206   1.787   9.464  0.1204  2.0148  0.8071
  2164G12c H00340051   4.222   1.698   9.491  2.0087  1.7954 -0.8620
  2164G12c C01940052   4.322   1.775   9.668  0.3203  0.1755 -1.6948
  2164G12c H00240053   4.370   1.847   9.734 -7.4901  0.5508  4.2411
  2164G12c H00140054   4.215   1.753   9.673  0.4105  0.2889  2.2716
  2164G12c O00040055   4.397   1.669   9.630 -2.4726  0.9007 -1.8636
  2164G12c C01A40056   4.421   1.576   9.730 -1.2143  0.8243 -0.7005
  2164G12c C02K40057   4.385   1.434   9.716 -1.2267 -0.4731 -0.7252
  2164G12c O00G40058   4.300   1.431   9.607  0.0665  0.4938 -0.3029
  2164G12c C02M40059   4.220   1.310   9.567 -2.7161  0.2914 -0.2172
  2164G12c H01G40060   4.265   1.247   9.643  4.5572  3.6579 -1.3111
  2164G12c H01F40061   4.269   1.272   9.477 -0.8920 -5.7195  3.0293
  2164G12c H01E40062   4.112   1.302   9.578 -2.9534  0.1011 -2.3564
  2164G12c C02J40063   4.384   1.367   9.838  0.4503  1.3128 -0.8745
  2164G12c H01H40064   4.318   1.284   9.821  1.5113  0.6324 -1.7725
  2164G12c C02I40065   4.449   1.397   9.972 -1.2520  2.8127  0.6871
  2164G12c C02N40066   4.451   1.312  10.089  0.4368 -1.2382 -2.3926
  2164G12c H01M40067   4.539   1.296  10.150 -2.0948 -1.5744  1.3464
  2164G12c C02O40068   4.335   1.235  10.095 -0.8329 -0.9211  0.6102
  2164G12c H01L40069   4.273   1.242  10.007 -0.4689  0.9697  0.4915
  2164G12c C02P40070   4.298   1.175  10.218  1.3523 -0.2417 -1.8522
  2164G12c H01K40071   4.250   1.077  10.225 -0.0818  0.4888 -1.2941
  2164G12c H01J40072   4.379   1.176  10.291  3.3811  1.7789 -4.0346
  2164G12c O00H40073   4.204   1.258  10.282 -0.6800 -1.0531  0.0768
  2164G12c H01I40074   4.254   1.305  10.347 -2.7954 -2.2055  2.6284
  2164G12c C02H40075   4.523   1.519   9.957 -0.3492  1.0287 -0.3225
  2164G12c H01C40076   4.580   1.562  10.038 -0.9238  2.1055 -0.4661
  2164G12c C02L40077   4.493   1.620   9.843 -0.8671 -1.3787 -0.1967
  2164G12c H01D40078   4.509   1.726   9.858 -1.4900 -1.2015 -0.7565
  2164G12c C01340079   4.486   2.046   9.255  0.5882 -1.5165  0.1408
  2164G12c H00040080   4.570   2.078   9.315 -1.7686 -0.7189  3.0905
  2164G12c C01440081   4.463   2.113   9.126  1.5366  1.2559 -0.0801
  2164G12c C00F40082   4.536   2.236   9.081 -1.6382  0.0546  1.1777
  2164G12c C00H40083   4.454   2.182   8.852  2.2444  0.0301  0.0057
  2164G12c C00I40084   4.459   2.203   8.716  1.5393  2.4688  0.3960
  2164G12c C00J40085   4.375   2.107   8.648  0.2153  0.8769 -0.3579
  2164G12c C00Z40086   4.172   1.915   9.030 -1.7701 -0.3434 -0.3169
  2164G12c C00Y40087   4.091   1.802   9.063  0.1663  0.7144 -0.3978
  2164G12c H00640088   4.101   1.758   9.161  0.9813 -0.1257 -0.8517
  2164G12c C00X40089   3.975   1.759   9.002 -0.9455 -0.9535 -0.4606
  2164G12c O00340090   3.868   1.669   9.014 -1.1467 -1.0056 -0.0221
  2164G12c C01B40091   3.776   1.677   9.127  0.6301 -1.3605  0.1417
  2164G12c H00940092   3.822   1.598   9.185 -1.1191 -2.8141 -0.4103
  2164G12c H00840093   3.680   1.625   9.132  0.5025 -0.9963  1.4643
  2164G12c H00740094   3.752   1.769   9.181 -3.8893 -0.8390 -2.5048
  2164G12c C00W40095   3.967   1.829   8.878  0.6236  0.0877  0.6876
  2164G12c O00440096   3.842   1.813   8.802 -0.2198  0.4836 -0.7421
  2164G12c C01C40097   3.843   1.828   8.667  1.5085 -0.0209  0.7347
  2164G12c H00A40098   3.777   1.757   8.619  1.5644 -4.2193  6.2838
  2164G12c C00P40099   3.909   1.939   8.620  0.3589  1.0949  1.0171
  2164G12c C00O40100   3.860   1.996   8.494 -0.1901  0.4910 -1.9970
  2164G12c C01D40101   3.724   2.013   8.466 -0.0718 -0.4395 -0.1040
  2164G12c H00S40102   3.663   1.965   8.541  1.1401 -2.5401 -0.4063
  2164G12c C01E40103   3.678   2.092   8.363  0.5906  1.8126  0.9731
  2164G12c O00840104   3.541   2.111   8.324 -1.1359 -0.5306  0.9440
  2164G12c C01V40105   3.483   1.982   8.275 -1.7113  0.0678 -0.0665
  2164G12c C01Z40106   3.561   1.941   8.172 -0.4353 -0.1518  0.4083
  2164G12c H00R40107   3.600   2.000   8.089 -0.1585 -7.0250 -4.7606
  2164G12c H00Q40108   3.628   1.860   8.202 -0.7408 -1.3381 -2.0137
  2164G12c O00940109   3.466   1.884   8.082  0.0224 -0.7490 -0.2911
  2164G12c H00P40110   3.511   1.890   7.999  0.0825 -1.9423 -0.3610
  2164G12c C01W40111   3.351   1.944   8.305 -0.8389 -0.7954 -0.4093
  2164G12c H00O40112   3.336   1.843   8.270 -1.4917 -0.5821 -0.7539
  2164G12c C01X40113   3.253   2.013   8.399 -1.0694 -0.1519  1.5154
  2164G12c H00N40114   3.296   2.106   8.437  6.2943 -3.8568  3.0569
  2164G12c H00M40115   3.160   2.059   8.365  2.5447  8.1067  1.6646
  2164G12c C01Y40116   3.214   1.898   8.511  0.7559  0.9175 -0.3968
  2164G12c C02D40117   3.234   1.936   8.645 -0.4113  0.8531 -1.1505
  2164G12c H01940118   3.290   2.026   8.667 -0.9896  0.4097  2.5468
  2164G12c C02C40119   3.187   1.857   8.749  0.4580 -1.6332  1.3037
  2164G12c H01A40120   3.185   1.886   8.853  2.4681  2.7463  0.2441
  2164G12c C02B40121   3.165   1.723   8.734  0.4923 -0.1393 -0.1721
  2164G12c O00E40122   3.156   1.642   8.834  0.5617 -0.6674 -1.0637
  2164G12c H01B40123   3.245   1.626   8.862 -0.0373 -4.5191 -1.0815
  2164G12c C02F40124   3.166   1.675   8.588 -0.0210 -0.0644  0.2961
  2164G12c O00F40125   3.142   1.542   8.536 -0.5341 -0.7167  0.6657
  2164G12c C02G40126   3.017   1.473   8.591 -0.3843 -1.7054  0.3775
  2164G12c H01740127   2.937   1.547   8.596  0.4575 -0.8526  1.4765
  2164G12c H01640128   3.020   1.407   8.677 -0.6669  0.6845  2.2562
  2164G12c H01540129   3.002   1.425   8.494  0.2236 -3.8848  1.3422
  2164G12c C02E40130   3.219   1.767   8.493 -0.0600  0.5524  0.2075
  2164G12c H01840131   3.193   1.707   8.408 -4.6514  3.2149 -0.4201
  2164G12c C01F40132   3.768   2.158   8.285  0.0116  1.9289 -0.5760
  2164G12c C01G40133   3.741   2.286   8.226 -0.5926 -0.8574  0.0814
  2164G12c H00L40134   3.651   2.346   8.233 -0.0749 -0.3145  2.5707
  2164G12c C01H40135   3.845   2.365   8.201  0.3678 -3.4669 -1.2753
  2164G12c H00B40136   3.807   2.465   8.184  1.5036 -2.4187  1.9019
  2164G12c C01I40137   3.981   2.325   8.208  0.5785  0.1973  1.1211
  2164G12c C01U40138   3.903   2.130   8.286  0.2551 -0.4358 -0.6666
  2164G12c C00S40139   4.272   2.051   8.710 -1.3639 -0.0311 -1.7593
  2164G12c C00K40140   4.306   2.143   8.530 -0.1842 -0.2038 -0.1002
  2164G12c C00N40141   3.950   2.047   8.387 -0.7427  1.6661 -0.2150
  2164G12c C00040142   4.007   2.191   8.214  0.2090 -1.9265  2.2049
  2164G12c C01J40143   4.114   2.378   8.212  1.5847  0.7393  1.1221
  2164G12c C01K40144   4.128   2.516   8.182 -1.8142  0.9118  0.5565
  2164G12c C01P40145   4.049   2.606   8.099  1.5127  0.7889 -0.1190
  2164G12c C01Q40146   3.959   2.558   7.994  1.2525 -0.1032  0.6743
  2164G12c H00G40147   3.851   2.562   7.987  0.9712 -2.5524  2.9812
  2164G12c C01R40148   3.984   2.477   7.889 -1.0364 -0.1205  1.1649
  2164G12c H00F40149   4.081   2.433   7.875  0.9674  5.2442 -3.6808
  2164G12c C01S40150   3.908   2.419   7.760  0.1133  1.8006 -0.3557
  2164G12c H00E40151   3.933   2.470   7.667  0.9876  0.2868 -0.9742
  2164G12c H00D40152   3.937   2.314   7.754 -2.5186  1.0547 -0.8928
  2164G12c O00540153   3.779   2.445   7.758  0.4841 -1.0187  0.7947
  2164G12c H00C40154   3.733   2.395   7.692 -0.0856  1.4793 -0.7667
  2164G12c C01O40155   4.087   2.735   8.095 -1.9974 -2.1289  0.3496
  2164G12c H00H40156   4.044   2.810   8.031 -1.6601 -1.7737  0.5299
  2164G12c C01N40157   4.153   2.806   8.198  1.5924 -0.7323  1.0302
  2164G12c O00640158   4.155   2.944   8.212 -1.1569 -1.5444 -0.2646
  2164G12c C01T40159   4.287   2.982   8.255 -1.0348 -0.6426 -1.3746
  2164G12c H00K40160   4.310   3.014   8.357 -1.9529 -1.5727 -0.8683
  2164G12c H00J40161   4.376   2.922   8.234  0.3939 -0.1130  2.7332
  2164G12c H00I40162   4.300   3.068   8.189  2.0217  0.6948  0.8216
  2164G12c C01M40163   4.188   2.717   8.303  0.6093  0.2065  0.5823
  2164G12c C02040164   4.343   2.274   8.479  0.6375  0.2277  1.8329
  2164G12c C02140165   4.429   2.364   8.550  0.4005 -0.1648  0.8519
  2164G12c C01L40166   4.202   2.575   8.287 -1.1230  0.6019 -0.3693
  2164G12c O00740167   4.237   2.786   8.419 -0.1396  0.3013 -0.6226
  2164G12c C02240168   4.410   2.492   8.568 -0.0890  0.9439  1.3015
  2164G12c C02340169   4.486   2.331   8.674 -1.4145 -0.7567 -0.4763
  2164G12c C00G40170   4.500   2.272   8.952  0.0652 -0.5048 -0.4981
  2164G12c C00E40171   4.603   2.330   9.172  0.5575  0.0111 -0.2184
  2164G12c O00A40172   4.642   2.283   9.290  0.6112 -0.0050  0.8794
  2164G12c C02440173   4.765   2.329   9.331  2.0820  0.5032 -0.9940
  2164G12c H00V40174   4.767   2.308   9.438  3.7272  0.1855 -1.0764
  2164G12c H00U40175   4.865   2.295   9.303  1.7177 -2.5410  1.2783
  2164G12c H00T40176   4.779   2.415   9.397  1.7562  0.3854 -0.7684
  2174G12c C00D40177   2.405   1.118   8.118 -0.3388 -1.4744  0.8796
  2174G12c O00B40178   2.363   1.168   8.235  0.0060 -0.0311 -0.8537
  2174G12c C02540179   2.269   1.087   8.314  1.2443 -0.0219  0.5216
  2174G12c C02640180   2.228   1.152   8.446 -0.0337 -0.2857  0.5158
  2174G12c H00Y40181   2.181   1.082   8.516 -2.7855  2.7771  1.8528
  2174G12c H00X40182   2.147   1.224   8.437  2.8241  3.7999  5.3817
  2174G12c O00C40183   2.329   1.183   8.540 -0.0274  1.9740  0.6179
  2174G12c H00W40184   2.395   1.116   8.528 -1.4894  1.0146 -2.4554
  2174G12c C02740185   2.244   0.952   8.308 -0.1872 -0.6343  0.5794
  2174G12c O00D40186   2.309   0.878   8.225 -0.4218 -0.1925 -1.8129
  2174G12c H00Z40187   2.302   0.945   8.158  0.7313 -4.6958 -6.7193
  2174G12c C02840188   2.133   0.887   8.388 -1.0206  0.5551  0.1665
  2174G12c C02940189   2.154   0.750   8.448 -0.4729 -0.2216  0.6391
  2174G12c H01040190   2.225   0.674   8.419 -2.4751 -0.2827 -4.7747
  2174G12c C02T40191   2.052   0.698   8.531  0.0636  1.2355 -0.1806
  2174G12c H01O40192   2.055   0.590   8.532 -3.6593  0.6829 -8.2555
  2174G12c C02S40193   1.934   0.767   8.560 -1.0420  0.9370  0.8281
  2174G12c O00J40194   1.852   0.694   8.640 -0.2880 -0.1840 -1.5165
  2174G12c H01P40195   1.773   0.734   8.674 -0.0566 -0.5831 -0.5017
  2174G12c C02R40196   1.909   0.900   8.520  1.8512  0.9713  0.5706
  2174G12c O00I40197   1.770   0.923   8.510 -0.1407 -0.0493 -0.8584
  2174G12c C02Q40198   1.730   1.012   8.418  0.1808  0.3714 -0.5323
  2174G12c H01N40199   1.771   0.997   8.318 -1.5327 -3.7439 -0.7523
  2174G12c H01R40200   1.766   1.114   8.428 -7.8526  3.3025  2.6139
  2174G12c H01Q40201   1.626   1.023   8.386  1.1325  1.0917 -3.6016
  2174G12c C02A40202   2.011   0.957   8.422 -0.4599 -0.1151 -0.4906
  2174G12c H01140203   2.013   1.059   8.388  1.1681 -0.8723 -2.8293
  2174G12c C00C40204   2.316   1.094   8.011  0.3119  0.5814 -1.2584
  2174G12c H01240205   2.218   1.134   8.030 -0.7460 -3.4835  2.6037
  2174G12c C00B40206   2.363   1.007   7.905  1.1705 -1.3417  1.5231
  2174G12c C00A40207   2.273   0.928   7.811  1.3648  0.3007  0.6624
  2174G12c C00940208   2.147   0.863   7.844  0.2986  0.3506  0.9491
  2174G12c C00840209   2.078   0.846   7.962 -0.1643  0.9336  1.0733
  2174G12c H01340210   2.095   0.923   8.037 -6.1369 -2.2398  6.1746
  2174G12c C00740211   1.964   0.757   7.968 -0.4365 -0.3273 -3.0563
  2174G12c H01440212   1.880   0.751   8.035 -1.1107  5.8026 -3.0288
  2174G12c C00640213   1.947   0.659   7.878 -0.4932  0.9509  1.5350
  2174G12c C00540214   2.037   0.675   7.762  0.1242  1.3408  0.9703
  2174G12c C00440215   2.046   0.573   7.667 -0.6475  1.7829 -1.0623
  2174G12c C00340216   2.172   0.559   7.586  0.7014  1.0131  0.9487
  2174G12c C00240217   2.182   0.434   7.508 -0.3321  1.0460 -1.3412
  2174G12c C00140218   2.299   0.373   7.443 -0.5847  0.2936  0.4507
  2174G12c C00M40219   2.433   0.378   7.500 -0.6927  0.9235  1.3858
  2174G12c C00L40220   2.461   0.463   7.616  0.5799  0.3120  0.6060
  2174G12c C00R40221   2.594   0.494   7.657  0.8596  0.9124 -0.1008
  2174G12c C00Q40222   2.722   0.412   7.655 -0.4452 -1.2887 -0.8548
  2174G12c C00V40223   2.825   0.480   7.723  0.5110 -0.3059  0.3887
  2174G12c C00U40224   2.800   0.591   7.803  0.0198  0.3467 -0.0448
  2174G12c C00T40225   2.694   0.683   7.783  1.5997  1.5784  1.0999
  2174G12c C01640226   2.657   0.807   7.836  0.4499  1.1475 -0.7423
  2174G12c C01540227   2.762   0.851   7.918  0.2720  0.7331 -0.7136
  2174G12c C01040228   2.881   0.775   7.938  0.0472  0.3884  0.3788
  2174G12c C01140229   2.962   0.808   8.048 -0.9038 -0.6750 -0.7229
  2174G12c H00540230   3.044   0.745   8.080 -2.3153 -4.0801 -3.4464
  2174G12c C01240231   2.935   0.906   8.145 -0.6266 -0.7229  0.9565
  2174G12c C01740232   3.047   0.923   8.246  0.3913 -1.6256  2.5747
  2174G12c O00240233   3.026   0.906   8.370  1.0917  0.7344 -1.1122
  2174G12c H00440234   3.069   0.959   8.436  0.6652 -1.1372  0.7221
  2174G12c C01840235   3.169   0.963   8.193  0.6975 -0.1111 -0.6108
  2174G12c O00140236   3.191   0.978   8.051 -0.3749 -0.1677 -0.9322
  2174G12c H00340237   3.213   1.063   8.017  0.9621 -2.0215 -5.0630
  2174G12c C01940238   3.296   0.978   8.290  1.0312 -0.0430  0.2619
  2174G12c H00240239   3.270   0.941   8.389 -0.9157  2.0450  0.5584
  2174G12c H00140240   3.381   0.920   8.255  1.2671  0.4173  0.0687
  2174G12c O00040241   3.318   1.119   8.288 -0.2448  0.4028 -0.6807
  2174G12c C01A40242   3.396   1.168   8.186 -0.5176 -0.4353  0.4394
  2174G12c C02K40243   3.460   1.296   8.203  1.7390  1.1391  1.0130
  2174G12c O00G40244   3.400   1.386   8.278 -1.0194  0.2942 -1.0215
  2174G12c C02M40245   3.395   1.516   8.231  0.9099 -1.2220  1.1810
  2174G12c H01G40246   3.304   1.549   8.281  1.4188  2.0809  0.0607
  2174G12c H01F40247   3.402   1.519   8.123  2.7169  7.6146  1.1834
  2174G12c H01E40248   3.477   1.571   8.277 -0.9937  1.8329  1.0201
  2174G12c C02J40249   3.568   1.318   8.140 -1.3305 -1.1430  1.7616
  2174G12c H01H40250   3.621   1.412   8.146 -0.1953 -1.7003  0.5360
  2174G12c C02I40251   3.618   1.254   8.021  2.8917 -0.1638 -1.0826
  2174G12c C02N40252   3.734   1.310   7.949  0.5326  0.4278  0.6387
  2174G12c H01M40253   3.767   1.402   7.994 -1.3678  3.6277 -4.0771
  2174G12c C02O40254   3.770   1.276   7.807 -0.3328  0.6900  0.5924
  2174G12c H01L40255   3.793   1.358   7.741  0.7837  0.0592  0.1923
  2174G12c C02P40256   3.712   1.164   7.729 -0.1430  1.2754  0.2096
  2174G12c H01K40257   3.606   1.142   7.736 -0.3342  2.7133  2.2393
  2174G12c H01J40258   3.711   1.203   7.627  0.3525 -6.9127 -3.3071
  2174G12c O00H40259   3.807   1.055   7.748  0.7450 -0.2182 -0.5509
  2174G12c H01I40260   3.898   1.075   7.759  1.1382 -2.7641  1.2263
  2174G12c C02H40261   3.555   1.141   7.980  1.2104 -0.3825 -0.3593
  2174G12c H01C40262   3.589   1.062   7.915  0.2333 -0.8256 -0.3483
  2174G12c C02L40263   3.443   1.104   8.062  0.4797 -0.3199 -0.3396
  2174G12c H01D40264   3.424   1.001   8.037 -5.8938  1.7313 -5.1286
  2174G12c C01340265   2.813   0.980   8.125  1.7107 -0.1323 -0.5382
  2174G12c H00040266   2.811   1.075   8.176 -2.4745  0.2056 -1.1004
  2174G12c C01440267   2.732   0.950   8.012  0.5408  0.7089 -1.3314
  2174G12c C00F40268   2.592   0.997   8.004 -0.5968  0.5278 -0.8297
  2174G12c C00H40269   2.536   0.874   7.797  0.1511  0.1019 -0.2886
  2174G12c C00I40270   2.453   0.817   7.709  0.8023 -0.4375 -1.4620
  2174G12c C00J40271   2.474   0.681   7.696 -0.7405 -0.0854 -1.0657
  2174G12c C00Z40272   2.905   0.657   7.865  0.5933  0.1517  0.2173
  2174G12c C00Y40273   3.040   0.603   7.873  0.0681  0.5430  1.4080
  2174G12c H00640274   3.115   0.635   7.945  1.0206 -3.5049  2.3443
  2174G12c C00X40275   3.045   0.470   7.800 -0.5869 -0.6788  0.2112
  2174G12c O00340276   3.169   0.411   7.816 -0.3455  0.9827 -0.3232
  2174G12c C01B40277   3.264   0.420   7.715 -0.1436  0.9837  1.3172
  2174G12c H00940278   3.236   0.362   7.628  6.8273 -0.9588  0.0317
  2174G12c H00840279   3.306   0.515   7.682 -2.8879  1.8898  0.3528
  2174G12c H00740280   3.364   0.411   7.759  1.9851 -6.2459 -4.1072
  2174G12c C00W40281   2.950   0.413   7.734  0.7205 -1.0003  3.7182
  2174G12c O00440282   2.987   0.289   7.685 -1.4283 -0.4004 -0.6239
  2174G12c C01C40283   2.879   0.226   7.609 -0.0828 -0.0341  0.5658
  2174G12c H00A40284   2.929   0.145   7.558 -0.2955 -0.1683  0.5722
  2174G12c C00P40285   2.739   0.277   7.598 -0.7084  0.1313  1.1673
  2174G12c C00O40286   2.622   0.210   7.564  0.6343  0.6994 -0.7709
  2174G12c C01D40287   2.624   0.075   7.595 -0.4526  0.3681 -2.6064
  2174G12c H00S40288   2.705   0.004   7.603 -1.3042 -0.5659 -2.1679
  2174G12c C01E40289   2.504  -0.012   7.597  1.4648  0.1915 -2.3527
  2174G12c O00840290   2.493  -0.137   7.667  0.7851  1.0199  1.2448
  2174G12c C01V40291   2.599  -0.198   7.718 -0.8636 -1.2728 -0.7422
  2174G12c C01Z40292   2.611  -0.138   7.858 -0.8704  0.0415 -1.5383
  2174G12c H00R40293   2.714  -0.101   7.856 -1.1816  0.8671 -3.4442
  2174G12c H00Q40294   2.544  -0.053   7.863 -0.1165  0.5537  0.4788
  2174G12c O00940295   2.582  -0.218   7.984  0.0116  1.0051  0.3432
  2174G12c H00P40296   2.535  -0.164   8.046  3.2072  1.5303  2.4623
  2174G12c C01W40297   2.697  -0.275   7.643 -0.0019  0.3600 -1.3228
  2174G12c H00O40298   2.683  -0.303   7.540  1.9094  0.2568 -1.5784
  2174G12c C01X40299   2.831  -0.295   7.722 -0.4591  2.6741  0.1212
  2174G12c H00N40300   2.901  -0.313   7.640 -0.4644  0.5884  0.5401
  2174G12c H00M40301   2.832  -0.196   7.767 -3.4890  2.3114  1.1518
  2174G12c C01Y40302   2.839  -0.410   7.830  0.0963  2.2121  0.5535
  2174G12c C02D40303   2.736  -0.475   7.921  1.0999  0.7807  1.0548
  2174G12c H01940304   2.639  -0.429   7.927  3.9179  7.4901 -0.5174
  2174G12c C02C40305   2.767  -0.585   8.002  0.8673  1.1228  0.6277
  2174G12c H01A40306   2.684  -0.627   8.057 -0.8126 -1.9057 -3.9689
  2174G12c C02B40307   2.893  -0.642   8.018 -1.3549 -1.1514 -0.7735
  2174G12c O00E40308   2.939  -0.736   8.115  0.5600 -0.5211  0.9037
  2174G12c H01B40309   2.872  -0.742   8.181  0.8981 -0.9720  1.2113
  2174G12c C02F40310   3.003  -0.564   7.953 -0.6311 -1.4509 -0.5943
  2174G12c O00F40311   3.135  -0.605   7.971  1.0124  0.4046 -0.2368
  2174G12c C02G40312   3.188  -0.672   7.857  1.1359  1.1410 -0.2049
  2174G12c H01740313   3.174  -0.626   7.759  2.2788 -1.8836 -1.8759
  2174G12c H01640314   3.295  -0.689   7.861  0.9890 -1.7162 -4.4932
  2174G12c H01540315   3.150  -0.771   7.829  1.3347  2.2504 -4.7564
  2174G12c C02E40316   2.972  -0.468   7.860  1.2044 -1.5832  1.1016
  2174G12c H01840317   3.060  -0.425   7.815  0.2553  2.0015  2.4897
  2174G12c C01F40318   2.376   0.047   7.552  1.5097 -0.9472 -0.3011
  2174G12c C01G40319   2.252   0.000   7.622 -0.2192  1.4248  0.0121
  2174G12c H00L40320   2.259  -0.065   7.708  5.4693 -2.4621 -3.0643
  2174G12c C01H40321   2.138   0.093   7.608  0.9389 -0.7765 -0.4083
  2174G12c H00B40322   2.053   0.100   7.674 -2.1244 -3.7862 -3.8466
  2174G12c C01I40323   2.151   0.209   7.521  0.8948  0.1963 -2.2219
  2174G12c C01U40324   2.379   0.164   7.474 -1.2868  2.4803  0.4861
  2174G12c C00S40325   2.594   0.627   7.704 -0.5987  0.5885 -0.3241
  2174G12c C00K40326   2.400   0.607   7.618  1.0837  0.8371  0.1128
  2174G12c C00N40327   2.494   0.242   7.510 -0.4260 -0.5753  1.3169
  2174G12c C00040328   2.265   0.236   7.439  1.1151 -0.5307 -0.4912
  2174G12c C01J40329   2.079   0.334   7.529  1.1658 -0.2755  0.0164
  2174G12c C01K40330   1.969   0.347   7.620  1.1965  0.8027  0.3420
  2174G12c C01P40331   1.855   0.261   7.634  1.3892  0.3728 -0.1755
  2174G12c C01Q40332   1.837   0.179   7.522 -0.7989  1.0980  1.4058
  2174G12c H00G40333   1.908   0.115   7.472 -4.0869  0.1817 -2.3300
  2174G12c C01R40334   1.718   0.116   7.509 -0.5110  0.1382 -1.1521
  2174G12c H00F40335   1.636   0.140   7.576 -0.9561  6.3748 -3.5857
  2174G12c C01S40336   1.681  -0.018   7.466 -0.4453 -0.2793 -1.8061
  2174G12c H00E40337   1.604  -0.052   7.536 -4.4576  6.8690 -2.3224
  2174G12c H00D40338   1.692  -0.046   7.361  0.3434 -2.7038 -1.1188
  2174G12c O00540339   1.776  -0.116   7.502  1.0361 -0.7277  1.0262
  2174G12c H00C40340   1.854  -0.063   7.506 -1.9962  4.5035 -2.1425
  2174G12c C01O40341   1.773   0.264   7.750  1.2027  1.4105  0.0912
  2174G12c H00H40342   1.684   0.207   7.773  3.8564 -1.4712  3.7192
  2174G12c C01N40343   1.801   0.349   7.852  0.0706  1.1621  0.3490
  2174G12c O00640344   1.727   0.360   7.959  0.7039 -0.1143  0.4595
  2174G12c C01T40345   1.783   0.309   8.084  1.3059 -0.3781 -0.3050
  2174G12c H00K40346   1.809   0.204   8.097 -4.6346 -2.6241 -4.4165
  2174G12c H00J40347   1.701   0.324   8.154 -1.6857 -1.0475 -3.5158
  2174G12c H00I40348   1.873   0.359   8.120  0.9703 -0.0199  0.0372
  2174G12c C01M40349   1.877   0.461   7.807  0.2642  0.2324 -1.0534
  2174G12c C02040350   2.270   0.661   7.575 -0.8247  0.9017 -1.3069
  2174G12c C02140351   2.223   0.788   7.632 -0.4610 -0.4704 -1.7955
  2174G12c C01L40352   1.963   0.461   7.695 -0.9247  1.1335 -0.1877
  2174G12c O00740353   1.856   0.569   7.890  0.9899  1.0257  1.9833
  2174G12c C02240354   2.128   0.781   7.735  0.1085  0.2897  0.6314
  2174G12c C02340355   2.332   0.881   7.687 -0.8406  0.7971  0.9734
  2174G12c C00G40356   2.494   0.960   7.902  0.1341  0.1526  1.2503
  2174G12c C00E40357   2.545   1.089   8.101 -0.3434  0.6035 -0.8173
  2174G12c O00A40358   2.610   1.134   8.219  0.3253  0.2167 -1.0445
  2174G12c C02440359   2.628   1.274   8.235  1.4216  0.7391  1.6675
  2174G12c H00V40360   2.555   1.332   8.178  0.3831  1.8259  4.0573
  2174G12c H00U40361   2.719   1.327   8.208 -0.3629  1.0142 -4.8836
  2174G12c H00T40362   2.624   1.287   8.343 -0.3425 -0.7761  1.8158
  2184G12c C00D40363   9.527   9.642   2.587 -0.1283  0.4167 -1.5694
  2184G12c O00B40364   9.512   9.526   2.516 -1.2216 -0.9941  1.0362
  2184G12c C02540365   9.393   9.504   2.434 -0.5896 -1.4018  0.9810
  2184G12c C02640366   9.451   9.426   2.298 -1.7247 -0.7962  1.1843
  2184G12c H00Y40367   9.402   9.342   2.249  0.8168 -3.7702  3.5205
  2184G12c H00X40368   9.552   9.386   2.310 -0.6277  1.0695 -1.4276
  2184G12c O00C40369   9.483   9.520   2.188  0.3895  0.5309  2.0947
  2184G12c H00W40370   9.420   9.590   2.180 -0.7102 -0.5033  1.6676
  2184G12c C02740371   9.267   9.573   2.445  0.8865  1.0444  0.6028
  2184G12c O00D40372   9.244   9.646   2.545 -1.2050 -0.3170 -0.1431
  2184G12c H00Z40373   9.306   9.645   2.616 -0.4568  1.8066 -0.7290
  2184G12c C02840374   9.178   9.596   2.331 -0.3310  1.9641 -1.5036
  2184G12c C02940375   9.111   9.726   2.306 -1.8032 -0.2522  0.3479
  2184G12c H01040376   9.126   9.794   2.389  2.6469  1.1566 -1.4692
  2184G12c C02T40377   9.047   9.751   2.178 -0.9706  0.5294  0.8186
  2184G12c H01O40378   8.987   9.840   2.165  1.4662  1.6576 -3.5380
  2184G12c C02S40379   9.020   9.631   2.098  0.2919  0.4797  0.6642
  2184G12c O00J40380   8.926   9.626   1.997 -0.0833 -1.2720  0.8079
  2184G12c H01P40381   8.916   9.533   1.982 -3.3144 -1.4510  3.5472
  2184G12c C02R40382   9.092   9.511   2.118  0.4272  0.6108  0.4281
  2184G12c O00I40383   9.075   9.393   2.042 -0.2181  0.0140 -1.1589
  2184G12c C02Q40384   9.126   9.400   1.902  0.8819 -0.4510  0.4887
  2184G12c H01N40385   9.233   9.386   1.892  0.9447  1.0695 -1.3811
  2184G12c H01R40386   9.096   9.484   1.838  2.9512  1.1503  1.5560
  2184G12c H01Q40387   9.063   9.324   1.856  1.7132 -2.8276  3.1637
  2184G12c C02A40388   9.174   9.494   2.231 -0.0777 -0.7332  0.7717
  2184G12c H01140389   9.240   9.409   2.220 -3.3534 -2.6647 -6.3767
  2184G12c C00C40390   9.581   9.765   2.553 -0.2322  0.0789  0.8566
  2184G12c H01240391   9.626   9.766   2.455 -3.0291  1.0345 -0.4694
  2184G12c C00B40392   9.618   9.864   2.648 -0.3899  0.0408  0.8346
  2184G12c C00A40393   9.702   9.984   2.619 -0.0369  1.3802 -0.4355
  2184G12c C00940394   9.794  10.024   2.522  0.2283  0.7978 -0.1946
  2184G12c C00840395   9.887   9.953   2.441 -1.0124 -1.5407 -1.4369
  2184G12c H01340396   9.890   9.846   2.430  4.2586 -1.8894  1.7723
  2184G12c C00740397  10.022   9.991   2.408  2.7503 -1.3067  0.5902
  2184G12c H01440398  10.091   9.925   2.359 -0.1105 -1.7956 -2.9903
  2184G12c C00640399  10.059  10.117   2.446 -1.2266 -1.9668 -0.9384
  2184G12c C00540400   9.987  10.169   2.542  0.9262 -1.7226  2.0370
  2184G12c C00440401  10.043  10.245   2.644 -2.2929 -0.7316  1.1011
  2184G12c C00340402   9.965  10.309   2.740 -0.4600  0.5563 -0.1173
  2184G12c C00240403  10.029  10.401   2.838  0.5903  0.4258 -0.0390
  2184G12c C00140404   9.969  10.472   2.949 -0.1902  0.3858  0.9616
  2184G12c C00M40405   9.915  10.420   3.056  0.5507 -0.3844 -2.0830
  2184G12c C00L40406   9.799  10.333   3.036 -0.9462  0.2804 -1.3166
  2184G12c C00R40407   9.747  10.238   3.129  0.1774 -0.1908 -0.4518
  2184G12c C00Q40408   9.782  10.212   3.265 -0.6965  0.0458  0.1084
  2184G12c C00V40409   9.692  10.119   3.315  0.3881 -0.7776 -0.3289
  2184G12c C00U40410   9.606  10.032   3.235 -1.3917  1.6286 -1.3738
  2184G12c C00T40411   9.598  10.040   3.092 -1.7136  0.4245 -0.1259
  2184G12c C01640412   9.565   9.945   2.996  0.2198  0.3875  0.4357
  2184G12c C01540413   9.502   9.841   3.052  0.6176  2.7011 -0.1196
  2184G12c C01040414   9.483   9.827   3.190 -0.6000 -1.2474  1.2210
  2184G12c C01140415   9.411   9.719   3.239  2.6931 -1.3438  1.3699
  2184G12c H00540416   9.380   9.696   3.340 -5.9470 -0.3349 -0.6735
  2184G12c C01240417   9.356   9.617   3.152 -3.0637  0.4350  1.1523
  2184G12c C01740418   9.272   9.509   3.211 -0.3823 -1.0511  0.2796
  2184G12c O00240419   9.338   9.433   3.294  0.5994 -0.2317  0.9489
  2184G12c H00440420   9.413   9.485   3.321  1.2496 -2.2698  3.2519
  2184G12c C01840421   9.142   9.502   3.174 -0.0031 -0.3407  0.2298
  2184G12c O00140422   9.081   9.608   3.079 -0.9537 -0.1951 -0.0372
  2184G12c H00340423   8.997   9.594   3.040 -0.2825 -2.3727 -0.7757
  2184G12c C01940424   9.032   9.394   3.197 -2.0170 -1.3020  1.3833
  2184G12c H00240425   9.043   9.315   3.271  5.3800 -0.6063  1.3953
  2184G12c H00140426   8.968   9.456   3.260 -6.1920 -4.4937  0.4698
  2184G12c O00040427   8.984   9.346   3.070  2.0915 -0.0798  0.3489
  2184G12c C01A40428   9.054   9.258   3.024  0.5208  0.5404  0.9474
  2184G12c C02K40429   9.024   9.237   2.882  0.5408  0.0893  0.2445
  2184G12c O00G40430   8.899   9.274   2.821  1.6077  1.0282 -0.6631
  2184G12c C02M40431   8.897   9.416   2.771  0.1759  0.7875  0.4025
  2184G12c H01G40432   8.794   9.419   2.736 -2.1681  1.0547  6.6572
  2184G12c H01F40433   8.982   9.428   2.704 -0.0378 -8.1572 -2.1607
  2184G12c H01E40434   8.881   9.497   2.842  3.5862 -1.9833  4.6071
  2184G12c C02J40435   9.116   9.177   2.788 -2.4513 -0.8842 -0.7318
  2184G12c H01H40436   9.065   9.166   2.693 -4.6822  0.8374  0.2225
  2184G12c C02I40437   9.252   9.146   2.829 -1.1251 -2.7306  0.6218
  2184G12c C02N40438   9.324   9.086   2.727 -0.0190  0.5496  0.4203
  2184G12c H01M40439   9.287   9.075   2.626  0.1727 -0.5933  0.4724
  2184G12c C02O40440   9.444   9.034   2.755  0.2540 -0.6358 -0.2013
  2184G12c H01L40441   9.470   9.033   2.860 -2.8071 -2.1201  0.5853
  2184G12c C02P40442   9.539   8.968   2.664  0.6511 -0.8075 -0.1984
  2184G12c H01K40443   9.527   9.009   2.563 -3.5136 -1.4570 -0.0437
  2184G12c H01J40444   9.640   8.963   2.705  0.9810 -3.7281 -1.1664
  2184G12c O00H40445   9.482   8.835   2.639 -0.6607 -0.6917  0.8910
  2184G12c H01I40446   9.404   8.831   2.693  0.3734  1.1263  2.5904
  2184G12c C02H40447   9.276   9.172   2.974  0.0505  1.3215 -1.1004
  2184G12c H01C40448   9.361   9.119   3.013 -1.0044 -2.1502 -3.3251
  2184G12c C02L40449   9.180   9.217   3.062 -1.9636 -0.1941  0.0890
  2184G12c H01D40450   9.226   9.243   3.157 -1.1610  2.9985 -1.1081
  2184G12c C01340451   9.395   9.635   3.018  0.0955 -0.0353  1.0851
  2184G12c H00040452   9.329   9.581   2.950  1.6387 -4.3202  2.8060
  2184G12c C01440453   9.459   9.737   2.964 -0.8548  0.3749  1.1765
  2184G12c C00F40454   9.485   9.757   2.817 -1.3027  1.9608 -0.4044
  2184G12c C00H40455   9.590   9.971   2.863  0.3197  0.5787  0.4536
  2184G12c C00I40456   9.647  10.086   2.820 -0.3021 -0.0231  0.1863
  2184G12c C00J40457   9.675  10.179   2.918 -0.4975 -0.4046  1.5471
  2184G12c C00Z40458   9.540   9.922   3.285 -1.1644  0.0694 -1.6415
  2184G12c C00Y40459   9.531   9.898   3.426 -2.0352  0.7993  0.6729
  2184G12c H00640460   9.496   9.810   3.478 -0.9089  2.0131  3.5758
  2184G12c C00X40461   9.627   9.975   3.500  0.5901 -0.8689 -0.6737
  2184G12c O00340462   9.643   9.954   3.635  0.5702 -2.5549 -0.5640
  2184G12c C01B40463   9.763   9.879   3.667 -0.8987  0.2417  0.1371
  2184G12c H00940464   9.780   9.771   3.670  0.3722  0.4567  1.4206
  2184G12c H00840465   9.787   9.886   3.773 -0.2170  0.8775 -0.0483
  2184G12c H00740466   9.855   9.932   3.643 -0.2898 -0.0408  1.7831
  2184G12c C00W40467   9.701  10.082   3.455  1.8676 -1.0236  2.5745
  2184G12c O00440468   9.778  10.138   3.539 -0.0192  0.6708 -0.3737
  2184G12c C01C40469   9.885  10.214   3.487 -0.5577 -0.3417  0.2855
  2184G12c H00A40470   9.940  10.266   3.564 -0.9702 -5.6727  4.4996
  2184G12c C00P40471   9.880  10.266   3.365  0.7955  1.1906  0.8488
  2184G12c C00O40472   9.993  10.324   3.303  1.9013 -1.2184 -0.3970
  2184G12c C01D40473  10.109  10.331   3.382  0.3789 -1.8410  0.4757
  2184G12c H00S40474  10.115  10.279   3.477 -3.6076 -3.0151  0.1762
  2184G12c C01E40475  10.231  10.350   3.319 -0.3998  0.3803  1.7345
  2184G12c O00840476  10.352  10.338   3.387  1.4983  2.9093 -1.8159
  2184G12c C01V40477  10.381  10.413   3.491  0.3875  1.5310  0.6664
  2184G12c C01Z40478  10.480  10.522   3.452  0.3255  0.2946 -0.1400
  2184G12c H00R40479  10.568  10.531   3.516  0.3633 -1.9222  0.1737
  2184G12c H00Q40480  10.497  10.497   3.347  1.8736  0.6746  0.0077
  2184G12c O00940481  10.388  10.645   3.466  1.1049  1.9615  0.7146
  2184G12c H00P40482  10.303  10.627   3.429  2.5774  6.2770 -5.7411
  2184G12c C01W40483  10.329  10.388   3.607 -0.0434  0.8397  0.7671
  2184G12c H00O40484  10.253  10.313   3.600 -0.1758  1.2136 -2.8514
  2184G12c C01X40485  10.340  10.470   3.740  2.1437  1.8542 -0.8964
  2184G12c H00N40486  10.387  10.568   3.734  1.9266  1.9084 -1.7385
  2184G12c H00M40487  10.237  10.468   3.774  1.5938 -2.5395 -2.5517
  2184G12c C01Y40488  10.425  10.415   3.863 -1.1341  2.2767  0.9525
  2184G12c C02D40489  10.566  10.437   3.851  0.7746  0.3275  0.4771
  2184G12c H01940490  10.607  10.446   3.752  3.7275 -1.6232  1.4687
  2184G12c C02C40491  10.638  10.491   3.969  1.4308  2.7282  0.0581
  2184G12c H01A40492  10.743  10.468   3.959  0.4401 -1.8531 -0.9368
  2184G12c C02B40493  10.597  10.456   4.084 -0.0039  0.3084 -0.8254
  2184G12c O00E40494  10.671  10.391   4.176  0.9362  0.0380 -0.7878
  2184G12c H01B40495  10.614  10.370   4.248  7.1797 -5.3913  3.1341
  2184G12c C02F40496  10.458  10.441   4.111 -1.8688 -0.4815 -0.9921
  2184G12c O00F40497  10.422  10.397   4.233  0.7264 -0.2160  1.5716
  2184G12c C02G40498  10.324  10.297   4.249 -0.0801 -1.4187  1.9788
  2184G12c H01740499  10.340  10.270   4.353 -1.6690 -2.6722  1.9231
  2184G12c H01640500  10.340  10.229   4.165  1.9527  5.0434 -3.3494
  2184G12c H01540501  10.219  10.325   4.247 -1.5004 -6.1853 -2.3790
  2184G12c C02E40502  10.373  10.430   3.997  0.3124 -0.6781 -0.0135
  2184G12c H01840503  10.267  10.449   4.000 -0.2638 -3.4624  6.7726
  2184G12c C01F40504  10.240  10.414   3.195  1.3246 -0.1451 -0.4097
  2184G12c C01G40505  10.365  10.411   3.109  0.4554  0.5609  1.1097
  2184G12c H00L40506  10.462  10.379   3.144  0.0016  0.1285  1.9800
  2184G12c C01H40507  10.346  10.480   2.987  0.9061 -1.2019  0.5553
  2184G12c H00B40508  10.427  10.507   2.922  2.4947  0.0686  2.9698
  2184G12c C01I40509  10.217  10.509   2.925 -0.8398 -0.6992 -2.3796
  2184G12c C01U40510  10.119  10.477   3.138 -0.2007 -0.8820  1.1886
  2184G12c C00S40511   9.665  10.148   3.048 -0.2395  0.8459 -0.3481
  2184G12c C00K40512   9.781  10.271   2.900 -0.3543  0.3603 -0.2180
  2184G12c C00N40513  10.001  10.403   3.180  0.2771  0.2049 -0.9631
  2184G12c C00040514  10.100  10.507   3.001  0.8413 -0.0181  1.4058
  2184G12c C01J40515  10.168  10.442   2.816 -0.2230 -0.9884  2.3162
  2184G12c C01K40516  10.226  10.422   2.683 -0.5483 -0.2219  0.4118
  2184G12c C01P40517  10.331  10.495   2.632  0.6224 -0.0046 -0.8078
  2184G12c C01Q40518  10.369  10.631   2.670 -1.6789 -0.4034  0.1018
  2184G12c H00G40519  10.469  10.671   2.659 -1.9132 -0.7042 -3.7475
  2184G12c C01R40520  10.270  10.718   2.690  0.0481  0.9894 -0.1373
  2184G12c H00F40521  10.172  10.673   2.700  0.2537  1.1923  3.1720
  2184G12c C01S40522  10.282  10.869   2.714 -0.7112  0.6184 -1.4397
  2184G12c H00E40523  10.213  10.915   2.643 -0.9250  5.7289  1.8315
  2184G12c H00D40524  10.261  10.908   2.813 -1.9170 -2.1721 -0.5390
  2184G12c O00540525  10.408  10.902   2.654  0.0050 -0.2453  0.1889
  2184G12c H00C40526  10.396  10.941   2.568 -3.9469 -2.1859 -0.2608
  2184G12c C01O40527  10.377  10.434   2.516  0.5483 -0.3310 -1.3101
  2184G12c H00H40528  10.467  10.482   2.479 -1.1053  6.7624  2.9129
  2184G12c C01N40529  10.350  10.322   2.442 -1.0387  0.3053 -0.4410
  2184G12c O00640530  10.429  10.281   2.337  0.6898  1.1436 -0.0121
  2184G12c C01T40531  10.569  10.345   2.304  0.6797  0.0043  0.5431
  2184G12c H00K40532  10.589  10.282   2.218  7.8635  0.8614  1.2697
  2184G12c H00J40533  10.655  10.324   2.368  5.2467  0.1959 -5.1291
  2184G12c H00I40534  10.584  10.444   2.262 -2.8880  0.3382 -0.0312
  2184G12c C01M40535  10.242  10.268   2.491  0.8018  0.6275 -1.4613
  2184G12c C02040536   9.841  10.261   2.777 -0.8206 -0.8938  0.6242
  2184G12c C02140537   9.777  10.190   2.669  0.2163 -2.2489 -0.7268
  2184G12c C01L40538  10.175  10.305   2.612  0.0804  2.0001 -1.8997
  2184G12c O00740539  10.194  10.158   2.431 -0.4592 -1.8936  0.1174
  2184G12c C02240540   9.837  10.157   2.550 -1.4866 -0.4066 -1.0394
  2184G12c C02340541   9.667  10.100   2.681  1.7728  0.8501 -0.4558
  2184G12c C00G40542   9.556   9.868   2.780  0.3455  1.4081  1.1666
  2184G12c C00E40543   9.468   9.639   2.711 -0.2847  1.8690  0.2199
  2184G12c O00A40544   9.393   9.519   2.730  2.0062 -1.8612 -1.5100
  2184G12c C02440545   9.475   9.406   2.749  0.6099 -0.3266 -0.6018
  2184G12c H00V40546   9.446   9.397   2.854 -1.4868  1.4974 -0.9964
  2184G12c H00U40547   9.581   9.431   2.757 -0.0162  1.2606  6.6284
  2184G12c H00T40548   9.459   9.306   2.708  6.6968 -3.5063  3.8589
  2194G12c C00D40549   3.911  12.700   8.571  0.1663  1.3862 -2.2845
  2194G12c O00B40550   3.886  12.594   8.482  0.0344  0.0040  0.2663
  2194G12c C02540551   3.757  12.573   8.417  0.5680 -0.8476 -0.3882
  2194G12c C02640552   3.759  12.509   8.280  1.2457  0.5600 -0.1962
  2194G12c H00Y40553   3.705  12.421   8.246  0.2213  0.8337  0.7000
  2194G12c H00X40554   3.862  12.474   8.290 -1.9531 -9.7108  2.5868
  2194G12c O00C40555   3.738  12.593   8.179  0.9156 -0.8007 -0.9495
  2194G12c H00W40556   3.644  12.600   8.167  0.6472 -0.1774  1.3269
  2194G12c C02740557   3.655  12.585   8.492  0.7805 -0.2225 -0.5631
  2194G12c O00D40558   3.662  12.587   8.624 -0.9439  0.2714  0.8425
  2194G12c H00Z40559   3.704  12.668   8.650 -3.7792  0.8366  4.1097
  2194G12c C02840560   3.519  12.553   8.425  0.5470  1.9079 -1.4119
  2194G12c C02940561   3.432  12.450   8.480 -0.1493 -1.9271 -1.3335
  2194G12c H01040562   3.464  12.389   8.563 -1.5403  0.7284  1.2392
  2194G12c C02T40563   3.312  12.419   8.425  0.4914  0.4672  0.8897
  2194G12c H01O40564   3.251  12.335   8.457 -0.6770  2.1975  3.2809
  2194G12c C02S40565   3.246  12.496   8.323 -1.3146 -0.4608 -0.5210
  2194G12c O00J40566   3.111  12.491   8.307  0.0651  0.0735 -0.3709
  2194G12c H01P40567   3.111  12.543   8.228  4.8920 -0.0353 -0.5900
  2194G12c C02R40568   3.329  12.600   8.271  1.6863  0.1599 -0.1927
  2194G12c O00I40569   3.273  12.679   8.172  0.0121 -0.0659  0.5566
  2194G12c C02Q40570   3.286  12.618   8.030  0.3755  1.4961 -0.9137
  2194G12c H01N40571   3.391  12.593   8.013 -0.2602 -3.8032  1.8480
  2194G12c H01R40572   3.239  12.521   8.015  2.0308  1.3054 -5.6421
  2194G12c H01Q40573   3.208  12.672   7.976 -1.5558  1.6918  1.9409
  2194G12c C02A40574   3.463  12.631   8.320  1.4838 -1.0249  0.7846
  2194G12c H01140575   3.524  12.717   8.295  0.6161  1.2688  5.9755
  2194G12c C00C40576   3.944  12.827   8.513  0.5627  0.7839 -0.8374
  2194G12c H01240577   3.929  12.848   8.408 -6.0229  0.6267 -0.1473
  2194G12c C00B40578   3.905  12.946   8.588 -0.7390  1.3404  0.9091
  2194G12c C00A40579   3.873  13.078   8.545  1.9037  0.5711  1.2386
  2194G12c C00940580   3.940  13.157   8.432 -1.7263 -0.1296 -0.4451
  2194G12c C00840581   4.026  13.115   8.328  1.2666  2.4021  0.5657
  2194G12c H01340582   4.038  13.014   8.291  0.3279  2.0589  1.2096
  2194G12c C00740583   4.114  13.205   8.285 -1.3217 -2.1510 -0.0863
  2194G12c H01440584   4.198  13.174   8.225  4.1826  2.4141  4.6650
  2194G12c C00640585   4.096  13.343   8.335  1.2320 -0.5453  0.5840
  2194G12c C00540586   3.983  13.382   8.415  0.1358 -1.4375  0.5163
  2194G12c C00440587   3.955  13.508   8.482 -1.0289 -2.4288 -1.0123
  2194G12c C00340588   3.851  13.532   8.567  0.4956 -0.5625 -1.0434
  2194G12c C00240589   3.851  13.671   8.627 -0.7273 -0.3643 -1.2014
  2194G12c C00140590   3.816  13.715   8.758  0.5931  0.0687 -1.1084
  2194G12c C00M40591   3.855  13.632   8.879  0.3771  0.3610  0.9467
  2194G12c C00L40592   3.826  13.497   8.893 -1.1145  0.5602 -1.4321
  2194G12c C00R40593   3.863  13.418   9.011 -0.5654  1.4689 -1.4825
  2194G12c C00Q40594   3.950  13.436   9.126  0.2620  0.2044  1.0926
  2194G12c C00V40595   4.008  13.308   9.171  0.0519 -0.1504  0.2872
  2194G12c C00U40596   3.980  13.178   9.126  1.5806 -1.0627 -0.6708
  2194G12c C00T40597   3.915  13.161   9.009 -0.7564 -0.7624 -1.7845
  2194G12c C01640598   3.894  13.038   8.943  0.1325  0.3390 -0.0824
  2194G12c C01540599   3.925  12.928   9.013 -0.4350  0.5286  0.1152
  2194G12c C01040600   3.971  12.941   9.145 -0.5971 -0.2831 -0.0492
  2194G12c C01140601   4.010  12.817   9.208 -0.0740 -1.8096  0.4927
  2194G12c H00540602   3.986  12.823   9.313 -4.4548 -2.1337 -0.4060
  2194G12c C01240603   4.025  12.707   9.132 -0.2984 -0.9180  0.1818
  2194G12c C01740604   4.076  12.593   9.193 -1.9183 -0.4014 -0.4406
  2194G12c O00240605   4.211  12.608   9.252 -0.8587  0.4090 -2.4067
  2194G12c H00440606   4.244  12.691   9.220  4.1506 -2.5132 -5.3187
  2194G12c C01840607   4.026  12.472   9.184 -0.4040  0.0287  0.1205
  2194G12c O00140608   3.901  12.458   9.135 -0.1196 -0.7634  0.7124
  2194G12c H00340609   3.825  12.509   9.160  1.7384  1.7245  1.4295
  2194G12c C01940610   4.074  12.344   9.252 -2.7350  0.8061  0.2329
  2194G12c H00240611   4.067  12.389   9.351 -1.1366  0.6154  0.4500
  2194G12c H00140612   4.009  12.269   9.206  0.7222 -1.0170 -1.9340
  2194G12c O00040613   4.207  12.302   9.214  0.7740 -0.3107 -0.7196
  2194G12c C01A40614   4.218  12.157   9.224  0.2037  0.0109  1.2865
  2194G12c C02K40615   4.340  12.093   9.192  1.2744  0.8711 -0.4027
  2194G12c O00G40616   4.399  12.177   9.093 -0.7149  0.9709 -0.6180
  2194G12c C02M40617   4.413  12.120   8.964  0.2812 -0.4870  0.4268
  2194G12c H01G40618   4.422  12.016   8.994 -1.7142 -0.2265  1.9937
  2194G12c H01F40619   4.336  12.119   8.888  5.2951 -3.2312 -5.0865
  2194G12c H01E40620   4.513  12.110   8.920  2.2078 -5.0505  5.2698
  2194G12c C02J40621   4.375  11.978   9.250  1.6346  1.1398  0.2844
  2194G12c H01H40622   4.475  11.942   9.231  0.8767 -0.6486 -0.4028
  2194G12c C02I40623   4.302  11.915   9.347 -0.5222  0.8428  0.0690
  2194G12c C02N40624   4.340  11.803   9.423 -3.5923 -0.9001 -0.3186
  2194G12c H01M40625   4.336  11.822   9.529 -1.5490  5.5433 -1.1715
  2194G12c C02O40626   4.384  11.685   9.375  0.5670 -0.7856  0.7130
  2194G12c H01L40627   4.324  11.655   9.290  1.5626 -0.3355 -0.1540
  2194G12c C02P40628   4.443  11.591   9.464 -1.5628 -0.3881 -0.1535
  2194G12c H01K40629   4.552  11.584   9.460 -1.3582 -2.2864  4.7470
  2194G12c H01J40630   4.414  11.605   9.569 -7.6693  1.4881 -1.9172
  2194G12c O00H40631   4.381  11.455   9.426 -0.4193  0.5022 -1.2632
  2194G12c H01I40632   4.306  11.469   9.482  1.6103 -1.0093  1.9942
  2194G12c C02H40633   4.169  11.962   9.378 -0.5401  0.4244  0.0880
  2194G12c H01C40634   4.104  11.925   9.456  0.5657  2.8844  2.2409
  2194G12c C02L40635   4.134  12.081   9.318  1.1853  0.3935  0.4378
  2194G12c H01D40636   4.051  12.111   9.381  2.6099  3.5893  0.8985
  2194G12c C01340637   4.020  12.712   8.994  1.6389 -1.1472 -0.8720
  2194G12c H00040638   4.075  12.632   8.947 -6.4286 -8.1902  0.4567
  2194G12c C01440639   3.950  12.815   8.927  0.5726 -0.3197 -0.5077
  2194G12c C00F40640   3.914  12.818   8.790 -0.2391 -1.0272  0.6702
  2194G12c C00H40641   3.853  13.045   8.813  1.2074  0.9229 -1.5962
  2194G12c C00I40642   3.806  13.163   8.754  0.3186  0.9470 -1.0850
  2194G12c C00J40643   3.804  13.278   8.830  0.1194  0.3988 -1.3944
  2194G12c C00Z40644   4.015  13.067   9.195 -0.9433 -1.4972 -1.7708
  2194G12c C00Y40645   4.091  13.093   9.307 -0.1270 -0.3168 -1.0683
  2194G12c H00640646   4.153  13.018   9.354 -4.6535 -1.8922  2.8695
  2194G12c C00X40647   4.149  13.214   9.346  0.9356 -0.9997  0.0800
  2194G12c O00340648   4.239  13.218   9.436  0.0036  1.3053 -2.0685
  2194G12c C01B40649   4.188  13.222   9.579 -0.3690  0.9652 -0.1460
  2194G12c H00940650   4.268  13.182   9.642 -4.8619 -5.9460  1.8151
  2194G12c H00840651   4.096  13.163   9.581  0.5385 -0.4557  0.8807
  2194G12c H00740652   4.167  13.321   9.619 -0.6501  2.3326 -3.4669
  2194G12c C00W40653   4.098  13.318   9.292  1.3385  1.6024 -0.0877
  2194G12c O00440654   4.135  13.428   9.350 -0.5274 -0.9441  0.0782
  2194G12c C01C40655   4.077  13.546   9.308  0.3673 -1.2739 -1.1186
  2194G12c H00A40656   4.015  13.583   9.389  0.6230 -1.4042 -0.8628
  2194G12c C00P40657   4.022  13.558   9.178 -1.2750  0.8731  1.6485
  2194G12c C00O40658   4.015  13.665   9.085 -0.1001 -0.9584  0.9197
  2194G12c C01D40659   4.111  13.765   9.123 -0.4751 -0.8216 -0.7168
  2194G12c H00S40660   4.167  13.740   9.212  0.4201-10.5448 -3.4490
  2194G12c C01E40661   4.159  13.859   9.027  1.1771  0.6733  1.1967
  2194G12c O00840662   4.286  13.921   9.034  0.7194 -0.2012 -1.4785
  2194G12c C01V40663   4.315  13.957   9.165 -1.0699  0.7155  1.3144
  2194G12c C01Z40664   4.233  14.035   9.258 -0.1261 -0.5754  0.1130
  2194G12c H00R40665   4.265  14.026   9.362  1.8450  2.2957 -0.1868
  2194G12c H00Q40666   4.243  14.144   9.254 -6.4070  0.3269  2.0501
  2194G12c O00940667   4.090  14.031   9.244 -0.5852 -0.6596 -0.7385
  2194G12c H00P40668   4.105  14.011   9.153  1.6642 -0.4607 -0.4362
  2194G12c C01W40669   4.444  13.914   9.198 -0.1174 -0.7786  0.5764
  2194G12c H00O40670   4.493  13.889   9.291  1.2184 -1.8904 -0.4081
  2194G12c C01X40671   4.548  13.873   9.092 -0.3158 -2.3783 -0.2515
  2194G12c H00N40672   4.594  13.963   9.055  1.5698 -2.4027  1.9203
  2194G12c H00M40673   4.628  13.833   9.154  0.2847  1.3399  1.4673
  2194G12c C01Y40674   4.527  13.745   8.991 -0.8670  0.5660 -0.3161
  2194G12c C02D40675   4.477  13.612   9.032  0.6408  0.4099  0.5389
  2194G12c H01940676   4.480  13.597   9.139 -1.9343 -1.3745  0.3935
  2194G12c C02C40677   4.490  13.505   8.952 -1.0610  0.4984  0.2672
  2194G12c H01A40678   4.477  13.403   8.984 -1.9750  2.2721  6.2793
  2194G12c C02B40679   4.507  13.539   8.813  2.2154  1.5184  1.0335
  2194G12c O00E40680   4.514  13.417   8.735 -0.0919 -0.1504  0.4625
  2194G12c H01B40681   4.574  13.425   8.662  0.0700  2.5529  0.8458
  2194G12c C02F40682   4.565  13.657   8.759  1.1097  0.5563 -0.9267
  2194G12c O00F40683   4.587  13.697   8.626  1.1781 -0.0763  0.1358
  2194G12c C02G40684   4.540  13.827   8.600 -0.0042 -0.8950  0.3146
  2194G12c H01740685   4.618  13.886   8.552 -1.8221  3.6018  2.5933
  2194G12c H01640686   4.485  13.887   8.673 -6.5560 -6.2421  0.3122
  2194G12c H01540687   4.455  13.824   8.532 -0.2433  5.0494  0.1117
  2194G12c C02E40688   4.590  13.756   8.869  1.4367 -0.3482 -0.2265
  2194G12c H01840689   4.652  13.844   8.869  3.0555 -1.4473  2.0114
  2194G12c C01F40690   4.073  13.876   8.919  0.7151  1.5080 -0.1940
  2194G12c C01G40691   4.119  13.966   8.803 -0.2553  0.9611 -0.6023
  2194G12c H00L40692   4.215  14.013   8.823 -1.4789  3.6619 -0.8040
  2194G12c C01H40693   4.065  13.969   8.678 -1.5297 -1.3205  0.0080
  2194G12c H00B40694   4.123  14.024   8.606 -1.5272 -0.0206  0.9839
  2194G12c C01I40695   3.956  13.884   8.665  2.0156 -0.4599  0.6289
  2194G12c C01U40696   3.955  13.825   8.896  1.8688 -0.5130  0.3997
  2194G12c C00S40697   3.846  13.279   8.958  0.2186  0.0236  1.2121
  2194G12c C00K40698   3.809  13.416   8.775 -0.9134  0.6262 -0.6098
  2194G12c C00N40699   3.943  13.701   8.964 -1.2749 -0.0807  1.3940
  2194G12c C00040700   3.889  13.835   8.784 -1.3513 -1.8008 -0.0345
  2194G12c C01J40701   3.942  13.770   8.573  0.8404 -1.7306 -0.0646
  2194G12c C01K40702   4.016  13.757   8.452 -1.1436 -0.3496 -0.3252
  2194G12c C01P40703   4.060  13.853   8.351 -0.0615  1.4033  1.1966
  2194G12c C01Q40704   4.003  13.991   8.359  0.3921  0.7493 -0.6324
  2194G12c H00G40705   3.923  14.013   8.428  4.2041  0.8598  3.9530
  2194G12c C01R40706   4.069  14.098   8.304 -0.5488  0.0060  0.3936
  2194G12c H00F40707   4.163  14.068   8.261  1.1423 -0.9729  4.5136
  2194G12c C01S40708   4.041  14.242   8.331  0.0709 -0.3018 -1.1585
  2194G12c H00E40709   3.932  14.240   8.333  0.0203 -4.3994 -2.0816
  2194G12c H00D40710   4.057  14.301   8.420 -0.5065  3.7061 -3.5954
  2194G12c O00540711   4.082  14.322   8.229  0.3526 -0.0774 -0.0273
  2194G12c H00C40712   4.172  14.346   8.244  0.4003 -1.6904  2.7874
  2194G12c C01O40713   4.160  13.811   8.269 -1.0808  1.0372 -0.5381
  2194G12c H00H40714   4.213  13.874   8.198 -1.3772  1.8696 -0.0233
  2194G12c C01N40715   4.167  13.670   8.221  0.0565  1.2114 -0.4050
  2194G12c O00640716   4.231  13.610   8.121 -1.8561  0.4187  0.0964
  2194G12c C01T40717   4.328  13.672   8.034 -0.2455 -0.3405 -0.4091
  2194G12c H00K40718   4.374  13.765   8.069 -1.3203  2.1731 -5.1886
  2194G12c H00J40719   4.311  13.646   7.930  0.8607  0.3783 -0.7841
  2194G12c H00I40720   4.412  13.606   8.057  4.1453  1.9447 -8.0710
  2194G12c C01M40721   4.122  13.586   8.322  0.3031  0.5103  2.4236
  2194G12c C02040722   3.799  13.417   8.631  0.3586 -1.8778  2.1265
  2194G12c C02140723   3.784  13.298   8.544  1.4590  1.0818 -1.2469
  2194G12c C01L40724   4.034  13.623   8.413  0.2700  1.6669  0.1166
  2194G12c O00740725   4.153  13.454   8.290 -1.5848  0.9294 -0.4836
  2194G12c C02240726   3.875  13.293   8.440  0.1375 -0.4744 -0.8187
  2194G12c C02340727   3.791  13.166   8.613  0.9866 -1.5217 -0.1789
  2194G12c C00G40728   3.884  12.929   8.728  0.1113  0.7550 -0.0409
  2194G12c C00E40729   3.922  12.690   8.718 -0.3682 -0.0031  0.1457
  2194G12c O00A40730   3.923  12.573   8.780  1.8089  0.8034 -1.3879
  2194G12c C02440731   4.015  12.472   8.737 -0.8183  0.9758 -0.9062
  2194G12c H00V40732   4.111  12.453   8.786 -1.9885  2.3166  2.0315
  2194G12c H00U40733   3.961  12.378   8.733 -1.3007  0.9362  3.7328
  2194G12c H00T40734   4.051  12.489   8.636  1.0595  5.9111  0.4187
  2204G12c C00D40735  11.098   1.069  11.984  1.1163  1.3674  0.3734
  2204G12c O00B40736  11.110   1.181  11.885  0.4804 -0.2251  0.4488
  2204G12c C02540737  11.130   1.126  11.752 -0.0544  0.9747  0.8815
  2204G12c C02640738  11.009   1.094  11.662  1.2330 -0.6913 -0.9129
  2204G12c H00Y40739  10.929   1.054  11.724  7.2154 -0.8552  7.4909
  2204G12c H00X40740  11.054   1.044  11.576  3.4007  2.6525 -1.7965
  2204G12c O00C40741  10.954   1.204  11.605  0.9095  0.1491  0.6971
  2204G12c H00W40742  10.927   1.255  11.681  2.8757  1.5002  0.5252
  2204G12c C02740743  11.254   1.125  11.707  0.0357 -0.7161 -1.1997
  2204G12c O00D40744  11.339   1.204  11.765 -0.9556  0.4129 -1.2334
  2204G12c H00Z40745  11.316   1.295  11.765  2.7512  1.4309 -3.5755
  2204G12c C02840746  11.312   1.036  11.609 -0.3204 -1.4498  1.1588
  2204G12c C02940747  11.403   0.950  11.650  1.0286  0.4419  1.4774
  2204G12c H01040748  11.440   0.980  11.748  2.7904  0.9625  0.6714
  2204G12c C02T40749  11.462   0.849  11.558 -0.0580 -0.7909  0.1827
  2204G12c H01O40750  11.526   0.779  11.610 -2.7070 -3.3011  0.1924
  2204G12c C02S40751  11.425   0.850  11.418  0.8098 -0.7962 -1.0338
  2204G12c O00J40752  11.509   0.789  11.321 -1.0804 -0.8015 -0.8484
  2204G12c H01P40753  11.452   0.844  11.269  1.7832  2.5466 -0.6460
  2204G12c C02R40754  11.353   0.965  11.379 -0.1917 -0.7425 -0.3223
  2204G12c O00I40755  11.356   0.980  11.248  0.5341  0.9648 -0.6928
  2204G12c C02Q40756  11.293   1.090  11.183  1.6919 -0.4587  2.2622
  2204G12c H01N40757  11.196   1.108  11.231 -3.4179 -1.1543 -6.6045
  2204G12c H01R40758  11.231   1.072  11.094  1.2844 -3.0358  3.0376
  2204G12c H01Q40759  11.371   1.166  11.180  1.9348 -0.6813 -3.4391
  2204G12c C02A40760  11.293   1.054  11.461 -0.2266  0.1284 -1.1067
  2204G12c H01140761  11.244   1.149  11.448  1.0392  0.3759 -4.4981
  2204G12c C00C40762  11.135   0.933  11.990 -0.5337 -1.2115  0.8583
  2204G12c H01240763  11.208   0.938  11.911  2.0974  1.1805  3.2835
  2204G12c C00B40764  11.143   0.859  12.107  0.0717  1.6176  0.0541
  2204G12c C00A40765  11.231   0.758  12.137  0.7352  0.2823 -0.1306
  2204G12c C00940766  11.312   0.664  12.048 -1.1862 -0.0066  0.3492
  2204G12c C00840767  11.304   0.653  11.906  1.2159 -0.4866 -2.4982
  2204G12c H01340768  11.246   0.736  11.867  3.5448  0.6996 -3.5296
  2204G12c C00740769  11.320   0.520  11.849 -3.0893 -1.9179 -0.4497
  2204G12c H01440770  11.305   0.502  11.744 -6.4124  0.3501 -0.4216
  2204G12c C00640771  11.339   0.406  11.941  1.8084  0.0332 -0.3460
  2204G12c C00540772  11.345   0.428  12.077 -0.5447  1.4101 -0.1403
  2204G12c C00440773  11.322   0.335  12.169 -0.3140 -0.2464  1.0869
  2204G12c C00340774  11.297   0.363  12.307  0.2886 -1.7639 -0.8730
  2204G12c C00240775  11.279   0.258  12.405 -1.0562 -0.5392 -0.0005
  2204G12c C00140776  11.236   0.249  12.538 -0.0287  1.5042  1.7342
  2204G12c C00M40777  11.125   0.329  12.555  0.9412  1.0825 -0.0037
  2204G12c C00L40778  11.143   0.473  12.581  0.4960  1.1764  0.6400
  2204G12c C00R40779  11.054   0.563  12.642  1.3647  1.1188 -1.9707
  2204G12c C00Q40780  10.924   0.538  12.711 -0.9880  0.0236 -0.8631
  2204G12c C00V40781  10.840   0.645  12.720  1.0793 -0.8384 -0.1116
  2204G12c C00U40782  10.858   0.749  12.626 -0.1128 -0.6704  2.4365
  2204G12c C00T40783  10.972   0.771  12.543  0.8173 -0.4012  0.2569
  2204G12c C01640784  10.992   0.859  12.439 -0.2654  0.8261 -0.1377
  2204G12c C01540785  10.886   0.957  12.411 -0.9060  1.1501 -1.3562
  2204G12c C01040786  10.787   0.958  12.506 -0.8479  0.2558 -1.3004
  2204G12c C01140787  10.680   1.050  12.479 -0.3775  0.7032  0.3556
  2204G12c H00540788  10.601   1.035  12.552 -0.6432  2.4910  0.4604
  2204G12c C01240789  10.686   1.143  12.390 -1.1993 -0.4895 -3.1555
  2204G12c C01740790  10.571   1.228  12.378  0.2476  1.5701  0.6784
  2204G12c O00240791  10.584   1.358  12.389 -0.2446  0.6327 -0.6698
  2204G12c H00440792  10.520   1.416  12.428 -1.0215 -2.6868  3.3428
  2204G12c C01840793  10.448   1.178  12.358  1.1457 -0.4359 -0.3591
  2204G12c O00140794  10.419   1.043  12.321 -0.9368 -2.3047 -0.1306
  2204G12c H00340795  10.367   1.035  12.242 -0.9630 -3.0730 -0.0342
  2204G12c C01940796  10.322   1.260  12.353 -1.3484 -0.7225 -0.2534
  2204G12c H00240797  10.227   1.208  12.356 -2.0240  0.5163  0.0399
  2204G12c H00140798  10.326   1.328  12.439 -1.1388 -5.2107  3.4692
  2204G12c O00040799  10.310   1.362  12.244  0.6854  0.2351  0.0803
  2204G12c C01A40800  10.303   1.352  12.105 -0.8614 -2.0890  0.1851
  2204G12c C02K40801  10.250   1.249  12.038 -0.4676  0.5845  0.7929
  2204G12c O00G40802  10.249   1.127  12.097  0.8724  0.1434 -3.1219
  2204G12c C02M40803  10.279   1.001  12.042  1.6108  0.2880 -0.6869
  2204G12c H01G40804  10.213   0.958  11.967  1.7266  1.3207 -1.3915
  2204G12c H01F40805  10.236   0.930  12.112 -4.3964 -1.6596 -5.8419
  2204G12c H01E40806  10.379   0.970  12.071  1.7211 -0.8082 -2.1271
  2204G12c C02J40807  10.241   1.261  11.903 -0.1540 -0.5922  0.6547
  2204G12c H01H40808  10.213   1.191  11.826 -3.3106  2.6808 -1.3807
  2204G12c C02I40809  10.263   1.385  11.848  0.2960 -0.5693 -2.6413
  2204G12c C02N40810  10.210   1.438  11.709 -0.0053 -1.4703 -0.9145
  2204G12c H01M40811  10.164   1.535  11.701  8.4125  3.8784  6.2647
  2204G12c C02O40812  10.256   1.356  11.622 -0.3608 -0.4594 -0.4431
  2204G12c H01L40813  10.308   1.271  11.664  3.9110  5.9642  8.9037
  2204G12c C02P40814  10.290   1.393  11.486  1.9216 -0.6768 -0.3128
  2204G12c H01K40815  10.260   1.306  11.427 -1.0140 -0.6006  1.0029
  2204G12c H01J40816  10.230   1.472  11.442 -1.1234 -0.5168  3.7939
  2204G12c O00H40817  10.433   1.401  11.481  0.9054 -0.9904  0.4798
  2204G12c H01I40818  10.461   1.387  11.571  0.9673  1.8641  0.9564
  2204G12c C02H40819  10.310   1.499  11.928  1.3188  1.9144  1.1381
  2204G12c H01C40820  10.342   1.589  11.878  4.2678  0.5786  0.5371
  2204G12c C02L40821  10.330   1.473  12.064 -0.0985 -0.5408  0.5517
  2204G12c H01D40822  10.347   1.551  12.137 -2.5350 -2.1697  2.9621
  2204G12c C01340823  10.790   1.138  12.292  0.4187 -0.8926 -1.6846
  2204G12c H00040824  10.802   1.211  12.213 -5.5690  1.8268 -0.3411
  2204G12c C01440825  10.894   1.037  12.299  0.4888 -1.1769 -0.9075
  2204G12c C00F40826  11.001   1.019  12.214 -0.0094  1.5184 -0.4370
  2204G12c C00H40827  11.099   0.852  12.360 -2.1545 -1.1490 -0.9209
  2204G12c C00I40828  11.196   0.747  12.377  0.8687  0.9346 -0.0929
  2204G12c C00J40829  11.188   0.683  12.499 -0.3047  0.0458 -0.3435
  2204G12c C00Z40830  10.766   0.858  12.617  0.5676 -0.7662 -0.5570
  2204G12c C00Y40831  10.669   0.871  12.727  0.2177 -0.3529 -0.4531
  2204G12c H00640832  10.607   0.958  12.713 -1.1210  0.2879  7.5378
  2204G12c C00X40833  10.673   0.779  12.831 -0.3586  0.9019 -0.9334
  2204G12c O00340834  10.582   0.803  12.937 -0.7734 -0.5446 -0.1690
  2204G12c C01B40835  10.652   0.807  13.049 -2.0270 -0.1978 -0.0807
  2204G12c H00940836  10.746   0.751  13.048 -3.4514 -2.6823 -1.7187
  2204G12c H00840837  10.636   0.909  13.082 -0.9895  0.9514 -3.0231
  2204G12c H00740838  10.628   0.730  13.123 -2.1068  3.5530  4.0330
  2204G12c C00W40839  10.728   0.646  12.806  0.1608 -0.6969  0.9384
  2204G12c O00440840  10.692   0.532  12.872 -0.0785 -1.4848  0.1680
  2204G12c C01C40841  10.759   0.408  12.847  0.4378 -0.0498 -0.4813
  2204G12c H00A40842  10.747   0.325  12.915 -2.5513 -0.1776 -1.0819
  2204G12c C00P40843  10.861   0.410  12.746  0.0021 -0.2401 -1.3904
  2204G12c C00O40844  10.898   0.279  12.697 -0.7176 -0.1733  0.1783
  2204G12c C01D40845  10.813   0.174  12.731  0.2184  0.7074 -0.9841
  2204G12c H00S40846  10.720   0.172  12.786  1.3957  6.1806  1.4680
  2204G12c C01E40847  10.819   0.042  12.664 -0.8019 -1.3048 -0.9741
  2204G12c O00840848  10.729  -0.060  12.690  0.7505  0.8826  0.0497
  2204G12c C01V40849  10.605  -0.059  12.621 -0.5381 -0.4851  0.1055
  2204G12c C01Z40850  10.583  -0.036  12.462 -1.1908  1.2045  0.5107
  2204G12c H00R40851  10.678   0.009  12.431  1.4092  0.2040  6.3666
  2204G12c H00Q40852  10.583  -0.105  12.378 -7.2053 -0.7895  1.9747
  2204G12c O00940853  10.484   0.056  12.454 -0.4370  0.8581 -0.0938
  2204G12c H00P40854  10.499   0.113  12.380 -1.5189  3.9032  1.8851
  2204G12c C01W40855  10.498  -0.106  12.678 -0.8281  0.1388  0.2314
  2204G12c H00O40856  10.404  -0.119  12.625 -0.3321 -0.4938 -0.5086
  2204G12c C01X40857  10.480  -0.160  12.823  0.4766  1.9103 -0.1755
  2204G12c H00N40858  10.525  -0.096  12.899 -2.1832 -0.8875  3.9383
  2204G12c H00M40859  10.386  -0.135  12.872 -2.2292 -6.4950 -0.3660
  2204G12c C01Y40860  10.546  -0.283  12.863  0.5595  0.1836  0.2953
  2204G12c C02D40861  10.631  -0.365  12.779  1.2889  0.3443  0.7429
  2204G12c H01940862  10.631  -0.330  12.677 -2.7373 -5.5209 -1.5420
  2204G12c C02C40863  10.717  -0.464  12.818 -0.2367 -1.0783  0.4889
  2204G12c H01A40864  10.770  -0.506  12.734  0.0422 -3.3757  1.7818
  2204G12c C02B40865  10.717  -0.496  12.951 -1.3370  1.1334 -1.2810
  2204G12c O00E40866  10.799  -0.581  13.000 -0.7527 -0.3881 -1.0652
  2204G12c H01B40867  10.825  -0.650  12.941 -0.0608 -1.9617  1.0361
  2204G12c C02F40868  10.636  -0.419  13.045  1.4883  0.0316  0.7215
  2204G12c O00F40869  10.605  -0.458  13.169  0.9028 -1.8282  0.8490
  2204G12c C02G40870  10.507  -0.557  13.165  1.0947  0.2348  0.3592
  2204G12c H01740871  10.548  -0.649  13.122 -0.0122 -2.9859  5.6187
  2204G12c H01640872  10.409  -0.535  13.122  1.6462 -0.3484 -1.2421
  2204G12c H01540873  10.476  -0.559  13.270  3.0589  0.2490  0.9501
  2204G12c C02E40874  10.552  -0.301  12.996 -1.0813  1.4144 -0.1157
  2204G12c H01840875  10.482  -0.255  13.063 -2.3034 -2.0675  1.1353
  2204G12c C01F40876  10.956   0.015  12.592  1.7701  0.1984 -0.0275
  2204G12c C01G40877  10.969  -0.079  12.477  0.1124 -0.2621 -0.1420
  2204G12c H00L40878  10.891  -0.136  12.429  0.5580 -3.6520  2.8796
  2204G12c C01H40879  11.083  -0.050  12.397 -0.0892 -0.4453  0.1173
  2204G12c H00B40880  11.063  -0.111  12.310  0.3068 -2.5827  1.5133
  2204G12c C01I40881  11.195   0.042  12.434  1.0102 -0.4900  0.8945
  2204G12c C01U40882  11.071   0.107  12.609 -0.2770  0.1313  0.6924
  2204G12c C00S40883  11.087   0.688  12.583  2.4932 -1.1342  0.4351
  2204G12c C00K40884  11.213   0.543  12.474 -0.1679 -2.1805  0.3209
  2204G12c C00N40885  11.018   0.241  12.619  1.7274  1.3879 -0.1991
  2204G12c C00040886  11.196   0.109  12.558 -1.3039 -0.6783  0.5718
  2204G12c C01J40887  11.287   0.121  12.356  1.2319 -1.3644 -0.2758
  2204G12c C01K40888  11.332   0.090  12.221  1.6723  1.5384  1.1285
  2204G12c C01P40889  11.367  -0.043  12.170  1.4992  1.7597 -0.3308
  2204G12c C01Q40890  11.390  -0.141  12.274 -1.4276 -1.1263  0.0748
  2204G12c H00G40891  11.425  -0.114  12.372  5.7764 -1.3618 -2.1271
  2204G12c C01R40892  11.394  -0.276  12.260 -0.0585  1.2437  1.0718
  2204G12c H00F40893  11.364  -0.313  12.163  0.4130 -2.5558  2.2814
  2204G12c C01S40894  11.405  -0.365  12.381 -1.2953 -0.0361 -0.0938
  2204G12c H00E40895  11.301  -0.356  12.411 -2.2989  2.3887 -3.9631
  2204G12c H00D40896  11.421  -0.472  12.370 -4.4689 -0.8228  2.3447
  2204G12c O00540897  11.528  -0.330  12.450 -0.4159  1.2607 -0.5203
  2204G12c H00C40898  11.538  -0.239  12.428  3.4921  1.2492  0.7833
  2204G12c C01O40899  11.343  -0.075  12.039  1.6207 -1.8521 -2.0487
  2204G12c H00H40900  11.346  -0.179  12.010 -0.1819 -2.6778  0.5610
  2204G12c C01N40901  11.352   0.031  11.939 -1.9822 -0.4409 -1.6678
  2204G12c O00640902  11.364   0.016  11.811 -1.3307 -0.6016 -0.5439
  2204G12c C01T40903  11.507  -0.010  11.776 -0.1122  0.2549  0.1975
  2204G12c H00K40904  11.563  -0.074  11.845 -2.8823  1.6080  3.8468
  2204G12c H00J40905  11.557   0.086  11.784  1.8703  0.4766 -9.5422
  2204G12c H00I40906  11.499  -0.069  11.685  1.7123  4.9343 -3.1272
  2204G12c C01M40907  11.363   0.171  11.994 -0.2751  0.1841 -2.0532
  2204G12c C02040908  11.268   0.494  12.346 -0.9664 -0.9163 -1.3641
  2204G12c C02140909  11.333   0.587  12.264 -0.8428 -0.5147  0.9489
  2204G12c C01L40910  11.335   0.208  12.130  0.0734  0.1596  1.6125
  2204G12c O00740911  11.338   0.269  11.894 -0.7882 -1.0271 -0.8714
  2204G12c C02240912  11.348   0.558  12.137  2.1034 -1.1484 -2.4085
  2204G12c C02340913  11.275   0.718  12.268  2.1337 -1.2131  1.7198
  2204G12c C00G40914  11.083   0.905  12.229  0.1503 -0.4608 -0.7922
  2204G12c C00E40915  11.027   1.109  12.105  0.3233  0.1543  0.4233
  2204G12c O00A40916  10.960   1.222  12.081 -0.2829  1.5198 -0.4256
  2204G12c C02440917  11.023   1.347  12.112  0.6629 -1.1739 -0.6392
  2204G12c H00V40918  10.980   1.432  12.059  2.3658 -0.0696 -0.3010
  2204G12c H00U40919  11.126   1.342  12.077  2.6599  5.7375  3.1850
  2204G12c H00T40920  11.031   1.388  12.213 -2.4883  2.0555 -1.5655
  2214G12c C00D40921   0.481   3.348  13.111 -0.4911 -0.2289 -1.4235
  2214G12c O00B40922   0.470   3.400  12.987 -0.2260  1.0039 -1.5163
  2214G12c C02540923   0.370   3.497  12.990  0.3577  0.2840  0.9436
  2214G12c C02640924   0.428   3.644  12.985  0.8840  0.2173  0.7933
  2214G12c H00Y40925   0.361   3.727  13.007 -5.6337 -3.0477 -5.0134
  2214G12c H00X40926   0.515   3.633  13.050  1.8540 -1.9454 -0.7816
  2214G12c O00C40927   0.480   3.674  12.843 -0.1095 -0.5834 -1.6986
  2214G12c H00W40928   0.555   3.629  12.806  0.3074  0.3067 -1.9493
  2214G12c C02740929   0.266   3.450  12.914 -0.5551  0.4299 -0.9103
  2214G12c O00D40930   0.278   3.322  12.854  0.1931  1.6013  0.3013
  2214G12c H00Z40931   0.354   3.277  12.887 -3.1731 -4.2338  0.6710
  2214G12c C02840932   0.202   3.548  12.834 -0.6741  0.4519  0.2922
  2214G12c C02940933   0.225   3.546  12.706 -0.1739  0.9439  0.2877
  2214G12c H01040934   0.310   3.498  12.660 -3.1824  0.8740 -5.6329
  2214G12c C02T40935   0.117   3.581  12.621 -0.5809  0.4862  0.4814
  2214G12c H01O40936   0.137   3.559  12.517  6.9468 -8.0085  3.1045
  2214G12c C02S40937  -0.016   3.613  12.666  1.1420  0.4630 -0.3725
  2214G12c O00J40938  -0.114   3.649  12.597 -1.6851 -1.0316  1.3046
  2214G12c H01P40939  -0.142   3.736  12.620  0.0447  1.6023 -5.3154
  2214G12c C02R40940  -0.041   3.618  12.802  0.4436 -2.9350 -0.4469
  2214G12c O00I40941  -0.162   3.645  12.866 -1.0698  1.0593 -1.3318
  2214G12c C02Q40942  -0.239   3.539  12.928 -1.2698 -1.8283 -1.0253
  2214G12c H01N40943  -0.201   3.544  13.030 -2.0677  4.0496 -0.8390
  2214G12c H01R40944  -0.334   3.591  12.931  0.9096  2.4299 -1.4657
  2214G12c H01Q40945  -0.264   3.447  12.874 -3.7182 -2.4829  1.1065
  2214G12c C02A40946   0.074   3.605  12.886  1.3992 -1.3093  0.5692
  2214G12c H01140947   0.058   3.606  12.993  7.0582  2.8364  1.6514
  2214G12c C00C40948   0.437   3.402  13.232  0.5552 -0.7599 -1.1056
  2214G12c H01240949   0.397   3.502  13.235  5.9900  1.6190  5.3209
  2214G12c C00B40950   0.497   3.373  13.359  0.5153 -0.4562 -0.2229
  2214G12c C00A40951   0.474   3.445  13.478 -0.3416  0.0751 -1.4017
  2214G12c C00940952   0.456   3.593  13.487 -0.0629 -0.2716 -0.1369
  2214G12c C00840953   0.439   3.693  13.379 -0.4216  2.1189 -0.5432
  2214G12c H01340954   0.445   3.692  13.271  2.1528  1.6040 -0.4322
  2214G12c C00740955   0.471   3.826  13.419  0.6907  0.1890 -0.3612
  2214G12c H01440956   0.441   3.912  13.361 -5.7207 -1.3138  0.4253
  2214G12c C00640957   0.529   3.859  13.544  0.0121  1.8952 -2.5771
  2214G12c C00540958   0.560   3.753  13.637 -0.1055  0.5403 -0.2935
  2214G12c C00440959   0.633   3.774  13.759 -0.3680  1.9199 -0.3292
  2214G12c C00340960   0.684   3.658  13.829 -0.7704  1.3396  0.4585
  2214G12c C00240961   0.785   3.681  13.932  0.2674  0.1652  0.0279
  2214G12c C00140962   0.873   3.598  14.009 -0.7876 -0.8006 -0.1761
  2214G12c C00M40963   0.957   3.497  13.945 -0.5830 -2.3103 -1.6564
  2214G12c C00L40964   0.919   3.455  13.815 -1.8499 -0.3767 -1.2925
  2214G12c C00R40965   0.988   3.345  13.748  0.6938 -1.6625 -1.2969
  2214G12c C00Q40966   1.120   3.306  13.747 -0.7685  2.1228  0.4519
  2214G12c C00V40967   1.136   3.203  13.656 -0.3475  0.9709  0.3199
  2214G12c C00U40968   1.040   3.171  13.554 -0.4727  1.4211  0.4821
  2214G12c C00T40969   0.902   3.184  13.580  0.1207 -1.0713  1.3039
  2214G12c C01640970   0.806   3.185  13.483  2.0901  1.0465 -0.1978
  2214G12c C01540971   0.838   3.120  13.366  0.0944  0.8718 -0.1058
  2214G12c C01040972   0.957   3.054  13.359 -0.2594  2.1458  0.0438
  2214G12c C01140973   0.967   2.959  13.261  0.4055 -0.3349  0.4694
  2214G12c H00540974   1.034   2.875  13.272  2.8022  1.1760 -1.9489
  2214G12c C01240975   0.860   2.921  13.176 -1.2612 -0.0654  0.6299
  2214G12c C01740976   0.866   2.810  13.070 -0.5131  1.0217  0.0507
  2214G12c O00240977   0.987   2.791  13.011 -0.7195 -1.0317 -0.3470
  2214G12c H00440978   1.044   2.722  13.041 -2.0608 -1.6525  0.8702
  2214G12c C01840979   0.761   2.743  13.024 -0.2189 -0.4376  0.8209
  2214G12c O00140980   0.770   2.648  12.928 -0.6446 -0.6140 -0.5896
  2214G12c H00340981   0.742   2.587  12.995 -1.6576 -3.6637 -3.6135
  2214G12c C01940982   0.621   2.753  13.082  1.4245  0.0011 -0.9659
  2214G12c H00240983   0.615   2.712  13.183  2.1598  1.3522 -0.3631
  2214G12c H00140984   0.586   2.854  13.105 -2.9242 -1.8993  1.1938
  2214G12c O00040985   0.522   2.720  12.992 -0.2218  0.5247 -1.1295
  2214G12c C01A40986   0.394   2.665  13.036 -0.6343 -0.0393  0.7794
  2214G12c C02K40987   0.300   2.736  13.110 -0.0639  0.0826  1.9367
  2214G12c O00G40988   0.369   2.837  13.169  0.2549 -0.8240  0.3449
  2214G12c C02M40989   0.357   2.899  13.300 -2.1314  0.5278 -0.6568
  2214G12c H01G40990   0.269   2.963  13.298 -4.1614 -2.2012 -2.5135
  2214G12c H01F40991   0.452   2.936  13.340 -1.9500  4.4732 -4.3285
  2214G12c H01E40992   0.338   2.847  13.394  4.1046 -4.8736 -2.0161
  2214G12c C02J40993   0.181   2.694  13.141  0.5924  0.1000 -1.3044
  2214G12c H01H40994   0.111   2.757  13.193 -0.5141 -1.7644 -0.5114
  2214G12c C02I40995   0.125   2.573  13.096  0.2654  0.6711  0.1296
  2214G12c C02N40996  -0.016   2.533  13.101 -0.7581 -0.3352 -0.5440
  2214G12c H01M40997  -0.031   2.438  13.152  7.6067 -0.4177  2.4593
  2214G12c C02O40998  -0.117   2.608  13.149 -1.0825 -0.4384  0.6947
  2214G12c H01L40999  -0.080   2.709  13.152  1.0354 -0.9790 -3.3903
  2214G12c C02P41000  -0.265   2.576  13.147 -0.6096  0.4456 -1.8962
  2214G12c H01K41001  -0.301   2.653  13.078 -3.6262 -0.3513 -1.3123
  2214G12c H01J41002  -0.298   2.475  13.123  6.9698 -3.2335  1.5641
  2214G12c O00H41003  -0.332   2.599  13.275  0.3558  0.6133  1.1153
  2214G12c H01I41004  -0.272   2.570  13.342  4.4329  4.8162 -0.4243
  2214G12c C02H41005   0.234   2.491  13.060  0.3117  0.9596  0.7896
  2214G12c H01C41006   0.201   2.392  13.033  4.0422 -1.5291  4.5953
  2214G12c C02L41007   0.352   2.540  13.019  0.0776  0.6895 -0.4246
  2214G12c H01D41008   0.410   2.462  12.973  5.3128  3.1821  1.5284
  2214G12c C01341009   0.757   3.015  13.164 -0.5121 -1.1253 -1.0329
  2214G12c H00041010   0.679   3.000  13.091 -0.6516 -6.0438 -0.0187
  2214G12c C01441011   0.737   3.113  13.268  0.5577 -1.0201  0.6911
  2214G12c C00F41012   0.636   3.204  13.250  0.0831 -1.1712  1.2962
  2214G12c C00H41013   0.688   3.261  13.492 -0.2288 -0.2422 -0.0930
  2214G12c C00I41014   0.651   3.332  13.612 -1.5759  1.1772  0.7282
  2214G12c C00J41015   0.755   3.316  13.718  0.5411  0.2814 -1.4749
  2214G12c C00Z41016   1.056   3.078  13.450 -1.5416 -0.2721  0.5907
  2214G12c C00Y41017   1.196   3.034  13.429  1.3468  1.1824  0.2977
  2214G12c H00641018   1.210   2.982  13.336 -0.8998  0.5291  0.2764
  2214G12c C00X41019   1.287   3.060  13.528 -0.4966 -0.7539 -2.9036
  2214G12c O00341020   1.408   2.986  13.556 -0.5654 -0.2630 -0.4820
  2214G12c C01B41021   1.433   2.841  13.519 -2.3932 -1.4987 -0.0161
  2214G12c H00941022   1.371   2.813  13.434 -9.2715 -1.3239  4.5918
  2214G12c H00841023   1.413   2.803  13.619 -2.5070  0.6572  0.8154
  2214G12c H00741024   1.539   2.825  13.501 -2.4267 -0.5085 -1.1718
  2214G12c C00W41025   1.258   3.145  13.650  1.6556 -1.0290  0.6561
  2214G12c O00441026   1.361   3.166  13.734  0.3781 -0.7869 -0.1696
  2214G12c C01C41027   1.368   3.303  13.787  0.3052  0.4624 -0.3135
  2214G12c H00A41028   1.461   3.329  13.836 -1.1664  2.2860  1.6094
  2214G12c C00P41029   1.230   3.357  13.832  0.1967 -0.3643  0.5790
  2214G12c C00O41030   1.207   3.458  13.927  1.3452  0.5227 -0.3712
  2214G12c C01D41031   1.312   3.555  13.939  0.0143 -1.8073 -0.1678
  2214G12c H00S41032   1.399   3.508  13.895  1.8348  4.4801 -3.8602
  2214G12c C01E41033   1.316   3.674  14.019 -0.7789 -0.0457  1.4499
  2214G12c O00841034   1.428   3.724  14.045 -0.1740  0.4582  1.2630
  2214G12c C01V41035   1.501   3.624  14.126 -0.5924 -0.8255 -1.8251
  2214G12c C01Z41036   1.630   3.579  14.057 -0.9008 -0.1413  2.2367
  2214G12c H00R41037   1.606   3.474  14.041 -1.9608  0.6519 -2.0514
  2214G12c H00Q41038   1.640   3.580  13.948 -5.9751 -3.6558  1.6043
  2214G12c O00941039   1.734   3.546  14.143 -0.2355  0.7019 -0.1418
  2214G12c H00P41040   1.706   3.558  14.232  2.3233  0.4235  0.7496
  2214G12c C01W41041   1.460   3.598  14.247  0.5047 -1.3007 -0.3279
  2214G12c H00O41042   1.357   3.622  14.269 -0.5615 -1.5750 -4.5793
  2214G12c C01X41043   1.538   3.517  14.341  2.5929 -0.3351  0.0336
  2214G12c H00N41044   1.471   3.451  14.395 -3.1285  1.4441 -4.3320
  2214G12c H00M41045   1.622   3.451  14.318  1.8452 -0.8172 -1.3174
  2214G12c C01Y41046   1.567   3.622  14.455  0.7058 -2.4323  0.6228
  2214G12c C02D41047   1.709   3.655  14.472  0.4039 -1.2946  1.4448
  2214G12c H01941048   1.785   3.620  14.405 -2.5853  0.2538 -2.9903
  2214G12c C02C41049   1.735   3.762  14.558  0.3257  0.0436 -0.2341
  2214G12c H01A41050   1.831   3.811  14.555 -0.3572  1.2790 -3.8113
  2214G12c C02B41051   1.631   3.839  14.607  0.1266 -0.1460 -0.5799
  2214G12c O00E41052   1.680   3.939  14.694  0.4316  0.0036  0.7229
  2214G12c H01B41053   1.737   3.904  14.760 -0.8097  1.3483  2.5465
  2214G12c C02F41054   1.500   3.787  14.620  1.3344 -0.7323 -0.5697
  2214G12c O00F41055   1.420   3.846  14.711  0.4081  0.1553  1.2781
  2214G12c C02G41056   1.338   3.944  14.658 -0.0681 -0.8515  0.5051
  2214G12c H01741057   1.355   3.970  14.553  0.8593 -1.6568  0.4400
  2214G12c H01641058   1.241   3.896  14.654  0.8221 -2.5685 -2.4145
  2214G12c H01541059   1.321   4.025  14.729 -0.9609 -3.4106  3.3195
  2214G12c C02E41060   1.453   3.679  14.528 -0.5124  0.8900 -1.4298
  2214G12c H01841061   1.356   3.632  14.537  1.0273 -1.7184  4.6033
  2214G12c C01F41062   1.187   3.726  14.059 -0.6711 -2.0474 -0.1519
  2214G12c C01G41063   1.158   3.861  14.084 -0.9985 -2.3191  0.4766
  2214G12c H00L41064   1.251   3.915  14.073 -0.4099 -3.2926  0.5836
  2214G12c C01H41065   1.031   3.908  14.067 -0.2625 -0.1462  0.2362
  2214G12c H00B41066   1.028   4.016  14.060  0.2211  0.3661  5.6801
  2214G12c C01I41067   0.923   3.812  14.046 -0.9701 -1.1495 -1.0220
  2214G12c C01U41068   1.081   3.641  14.061  0.1049  0.3559  0.2638
  2214G12c C00S41069   0.879   3.278  13.686  0.9658 -0.0525  0.9764
  2214G12c C00K41070   0.781   3.452  13.777 -0.1480  0.6601 -1.8624
  2214G12c C00N41071   1.090   3.513  13.982 -0.7897  0.1677  0.2338
  2214G12c C00041072   0.954   3.678  14.081  0.4294  0.9925  0.1426
  2214G12c C01J41073   0.786   3.814  13.983  0.9427  0.8172  0.8456
  2214G12c C01K41074   0.729   3.932  13.916 -0.0846  1.6838 -0.4682
  2214G12c C01P41075   0.715   4.066  13.965 -0.1060 -0.1072  1.1282
  2214G12c C01Q41076   0.785   4.118  14.084  0.1623  0.4154 -0.5278
  2214G12c H00G41077   0.863   4.192  14.076  2.7743 -1.5573  4.3388
  2214G12c C01R41078   0.760   4.079  14.209  0.2448 -0.0850  0.3879
  2214G12c H00F41079   0.684   4.011  14.244 -0.7988  0.9754  0.2026
  2214G12c C01S41080   0.827   4.149  14.310 -0.0854 -0.4664 -0.8926
  2214G12c H00E41081   0.806   4.255  14.302  3.4696  0.7246  3.6969
  2214G12c H00D41082   0.784   4.126  14.408 -4.2161  0.0986 -2.4570
  2214G12c O00541083   0.981   4.121  14.298 -0.4137  0.6772 -0.6232
  2214G12c H00C41084   1.005   4.032  14.319  2.4391 -0.2726 -6.7691
  2214G12c C01O41085   0.637   4.161  13.897  1.1578 -0.3021 -0.2883
  2214G12c H00H41086   0.630   4.267  13.921 -4.3068 -1.5052  4.5299
  2214G12c C01N41087   0.586   4.137  13.758 -1.6048 -0.5506 -0.7135
  2214G12c O00641088   0.495   4.220  13.686 -0.8016  0.6904  0.3629
  2214G12c C01T41089   0.513   4.360  13.656 -0.6231 -2.0425 -0.8645
  2214G12c H00K41090   0.553   4.404  13.747 -3.6027  0.5177 -0.6831
  2214G12c H00J41091   0.587   4.378  13.578  1.2984 -4.9352  0.2272
  2214G12c H00I41092   0.430   4.426  13.630  5.0892  5.0789 -2.7416
  2214G12c C01M41093   0.594   4.008  13.719 -1.5974  0.5168  0.8919
  2214G12c C02041094   0.658   3.530  13.792 -0.3212 -1.7380  0.6510
  2214G12c C02141095   0.530   3.519  13.709  0.4371  0.8642 -0.9774
  2214G12c C01L41096   0.669   3.900  13.797  0.8552  0.5226 -0.7773
  2214G12c O00741097   0.541   3.984  13.581 -0.1241  0.3395 -0.9699
  2214G12c C02241098   0.496   3.621  13.614 -0.5887 -0.1523 -2.0809
  2214G12c C02341099   0.530   3.408  13.609 -1.8684  0.9412  0.8156
  2214G12c C00G41100   0.601   3.280  13.372  0.4337  0.0409  1.3908
  2214G12c C00E41101   0.592   3.258  13.114 -0.1889 -0.2256 -1.9219
  2214G12c O00A41102   0.658   3.215  12.995 -0.5224 -1.4503 -0.4667
  2214G12c C02441103   0.736   3.305  12.925  0.6341  1.9368 -0.3572
  2214G12c H00V41104   0.671   3.350  12.850  4.0471 -0.8433 -5.3346
  2214G12c H00U41105   0.778   3.382  12.989 -2.6650  3.3176  0.2311
  2214G12c H00T41106   0.820   3.245  12.891  4.1551  1.2408  8.3497
  2224G12c C00D41107   4.291   9.570   2.677  0.7515  0.4033  1.0448
  2224G12c O00B41108   4.414   9.557   2.618  0.0903 -1.3988  0.2813
  2224G12c C02541109   4.473   9.437   2.638  0.1032  0.1340  0.8184
  2224G12c C02641110   4.454   9.345   2.518 -1.4360  0.5931  0.2675
  2224G12c H00Y41111   4.402   9.399   2.439 -0.6246  0.9194 -0.0465
  2224G12c H00X41112   4.386   9.263   2.542 -1.6255  0.7900  0.4148
  2224G12c O00C41113   4.583   9.334   2.436 -0.1507  0.3468 -1.3099
  2224G12c H00W41114   4.670   9.316   2.470  1.2946  4.1960 -2.6530
  2224G12c C02741115   4.561   9.413   2.735 -0.1838 -1.0992 -0.3757
  2224G12c O00D41116   4.632   9.308   2.698 -0.2442  0.1840  0.4510
  2224G12c H00Z41117   4.723   9.323   2.720  0.9249 -6.1417  0.9715
  2224G12c C02841118   4.632   9.512   2.814  0.7542  0.7367 -0.5562
  2224G12c C02941119   4.646   9.650   2.794 -0.5652 -1.3050 -0.5310
  2224G12c H01041120   4.596   9.700   2.712 -3.9829  0.9054  2.7125
  2224G12c C02T41121   4.706   9.749   2.860 -0.2495 -0.4363  0.7104
  2224G12c H01O41122   4.713   9.857   2.866  6.5730 -0.6306 -0.5608
  2224G12c C02S41123   4.756   9.717   2.993  0.7809 -0.0740 -0.2546
  2224G12c O00J41124   4.840   9.799   3.070  0.9921  0.7424 -0.5057
  2224G12c H01P41125   4.897   9.759   3.134  0.2132  4.1546  2.4635
  2224G12c C02R41126   4.746   9.584   3.036  0.7934  0.3469  2.6571
  2224G12c O00I41127   4.820   9.532   3.152  0.6224  0.3982 -0.4889
  2224G12c C02Q41128   4.719   9.485   3.255 -0.7190 -0.6679  0.7227
  2224G12c H01N41129   4.624   9.474   3.204  0.8884  2.2791 -3.1618
  2224G12c H01R41130   4.668   9.561   3.314  3.9546 -0.6952  5.0991
  2224G12c H01Q41131   4.736   9.426   3.345  2.5123  1.1967  1.4079
  2224G12c C02A41132   4.685   9.490   2.940  0.8829  0.2600  0.3470
  2224G12c H01141133   4.689   9.382   2.947  2.6219 -0.3670 -6.4700
  2224G12c C00C41134   4.284   9.546   2.816  0.0573 -1.0656 -0.4998
  2224G12c H01241135   4.377   9.516   2.863 -0.5751 -7.1610 -2.7096
  2224G12c C00B41136   4.181   9.613   2.882  0.8737 -1.0064 -0.7678
  2224G12c C00A41137   4.153   9.623   3.020  1.0516 -1.3963 -1.0492
  2224G12c C00941138   4.195   9.533   3.112 -0.3865 -2.5336  0.4161
  2224G12c C00841139   4.301   9.414   3.096  0.0847 -1.7672 -0.2169
  2224G12c H01341140   4.376   9.406   3.019 -1.3725 -2.0990 -1.6072
  2224G12c C00741141   4.274   9.293   3.185 -1.1443 -0.9733  0.4711
  2224G12c H01441142   4.331   9.201   3.193  3.2222  1.5722  0.4468
  2224G12c C00641143   4.157   9.297   3.279  0.3558  0.9203 -0.6507
  2224G12c C00541144   4.075   9.404   3.298 -0.8562 -0.9193  0.0771
  2224G12c C00441145   3.953   9.415   3.383  0.4726  0.6480 -0.2672
  2224G12c C00341146   3.851   9.508   3.333  0.5351  0.2295  0.1723
  2224G12c C00241147   3.720   9.509   3.400  1.7589 -0.2418  0.1316
  2224G12c C00141148   3.601   9.586   3.417 -1.1469  0.3553  0.3474
  2224G12c C00M41149   3.538   9.624   3.297  1.6515 -0.3789 -0.5521
  2224G12c C00L41150   3.609   9.696   3.197  1.0315  0.0015  2.4042
  2224G12c C00R41151   3.575   9.692   3.055 -0.4552 -0.0109 -1.3459
  2224G12c C00Q41152   3.444   9.666   2.984 -1.1106 -0.2064  0.8994
  2224G12c C00V41153   3.456   9.706   2.859  0.5347  0.2092  0.5299
  2224G12c C00U41154   3.585   9.736   2.799  0.9919 -0.4386  1.1676
  2224G12c C00T41155   3.711   9.721   2.865  1.2746 -0.9087  0.0955
  2224G12c C01641156   3.837   9.733   2.801 -0.8977 -0.4095 -0.4159
  2224G12c C01541157   3.846   9.742   2.672 -0.5006 -1.2174 -0.0160
  2224G12c C01041158   3.736   9.769   2.606  0.3994  0.3833 -1.5310
  2224G12c C01141159   3.735   9.784   2.464 -0.9930  0.7567 -0.2118
  2224G12c H00541160   3.647   9.775   2.402 -0.8002 -7.4398  0.1710
  2224G12c C01241161   3.853   9.786   2.383  1.5433  0.0220 -1.1417
  2224G12c C01741162   3.842   9.840   2.248  0.2744 -0.8873 -0.3227
  2224G12c O00241163   3.742   9.923   2.228 -0.3216  0.3664 -0.8977
  2224G12c H00441164   3.702   9.965   2.302  4.5864  1.0146  1.5909
  2224G12c C01841165   3.930   9.801   2.149 -1.4352  0.1408  1.8806
  2224G12c O00141166   4.044   9.703   2.169  0.4506 -2.6100  0.0973
  2224G12c H00341167   4.097   9.674   2.097  4.4288 -4.5687  3.5397
  2224G12c C01941168   3.899   9.837   2.003 -0.7213  0.6334  0.9765
  2224G12c H00241169   3.879   9.732   1.980  0.2152  0.0358  2.8093
  2224G12c H00141170   3.795   9.869   2.004 -0.8506  0.2273  0.5786
  2224G12c O00041171   3.982   9.914   1.901 -1.0755  0.0604  0.1502
  2224G12c C01A41172   4.111   9.875   1.872 -0.3963 -0.0706 -0.5264
  2224G12c C02K41173   4.155   9.768   1.778  1.8453 -0.4776  0.3847
  2224G12c O00G41174   4.070   9.675   1.714  0.4761 -0.2348  0.1268
  2224G12c C02M41175   3.971   9.701   1.622  0.9147 -0.6340 -1.2446
  2224G12c H01G41176   3.977   9.660   1.521  2.5808 -0.8269 -1.0834
  2224G12c H01F41177   3.913   9.793   1.630  2.5189  0.9695 -6.3059
  2224G12c H01E41178   3.894   9.652   1.681 -0.4141  1.3813 -1.2522
  2224G12c C02J41179   4.279   9.741   1.735 -0.8134 -0.9654 -0.4317
  2224G12c H01H41180   4.298   9.680   1.648  3.2637  5.1584 -4.1847
  2224G12c C02I41181   4.389   9.808   1.789  1.7064 -1.1614  3.3556
  2224G12c C02N41182   4.520   9.783   1.765 -1.0144 -1.0507 -0.4247
  2224G12c H01M41183   4.598   9.782   1.840 -1.5235  1.8718  0.1899
  2224G12c C02O41184   4.553   9.739   1.644 -0.4243 -1.1988 -0.7946
  2224G12c H01L41185   4.501   9.705   1.556 -2.7786 -0.6093  0.3447
  2224G12c C02P41186   4.710   9.711   1.604  0.1398  0.8590 -0.5142
  2224G12c H01K41187   4.718   9.612   1.558  0.1543  0.6386 -0.0330
  2224G12c H01J41188   4.756   9.782   1.535 -1.8558  3.5337  0.8329
  2224G12c O00H41189   4.795   9.716   1.713 -0.0661  1.3402 -0.7797
  2224G12c H01I41190   4.875   9.670   1.697  2.4494  4.6919  1.4288
  2224G12c C02H41191   4.357   9.917   1.878 -1.3527 -0.1758  2.1443
  2224G12c H01C41192   4.443   9.967   1.919  0.2468 -4.8938  4.8708
  2224G12c C02L41193   4.221   9.970   1.901  0.7654 -1.8821 -0.1143
  2224G12c H01D41194   4.196  10.064   1.948  3.3391 -1.4224  0.3999
  2224G12c C01341195   3.966   9.788   2.452 -1.0993 -0.8652  0.2375
  2224G12c H00041196   4.052   9.836   2.407 -5.7978  6.0326 -2.1695
  2224G12c C01441197   3.973   9.744   2.594 -0.6518  1.4422 -0.0074
  2224G12c C00F41198   4.088   9.697   2.665  1.4264  1.1965 -1.6301
  2224G12c C00H41199   3.958   9.723   2.882  0.9269  0.7145 -1.5430
  2224G12c C00I41200   3.933   9.728   3.013 -0.5416  0.6755 -0.0579
  2224G12c C00J41201   3.806   9.745   3.077  0.8573  1.6275 -0.0657
  2224G12c C00Z41202   3.606   9.778   2.664  1.1419 -0.8563 -0.3386
  2224G12c C00Y41203   3.486   9.802   2.586  0.4504  0.5895  1.1126
  2224G12c H00641204   3.474   9.831   2.482  3.1474  3.0437  1.4378
  2224G12c C00X41205   3.351   9.759   2.628  0.8811 -0.2871 -0.3969
  2224G12c O00341206   3.241   9.847   2.602  1.4145 -0.4085  0.4028
  2224G12c C01B41207   3.167   9.810   2.483  0.9225  0.6873 -0.0348
  2224G12c H00941208   3.060   9.818   2.503  0.8208 -1.6565  0.5472
  2224G12c H00841209   3.198   9.813   2.378  3.8427 -4.1006  0.5418
  2224G12c H00741210   3.158   9.703   2.464 -2.6311  2.0392 -8.6351
  2224G12c C00W41211   3.343   9.716   2.771  0.3286 -2.2985  1.0993
  2224G12c O00441212   3.215   9.697   2.826  0.4964 -0.6360  0.0923
  2224G12c C01C41213   3.192   9.665   2.962 -1.4893  1.5920 -0.8587
  2224G12c H00A41214   3.101   9.713   2.992 -2.6495 -1.6061  0.9898
  2224G12c C00P41215   3.320   9.637   3.035  0.1019  1.1339 -0.4240
  2224G12c C00O41216   3.293   9.576   3.171 -1.4166 -1.1290 -0.5960
  2224G12c C01D41217   3.176   9.501   3.200 -1.3224 -0.5262  0.5684
  2224G12c H00S41218   3.085   9.507   3.143 -1.6008  0.3993  1.0971
  2224G12c C01E41219   3.187   9.383   3.282  0.9424 -0.2245 -1.4118
  2224G12c O00841220   3.111   9.279   3.269 -0.1266 -0.8646 -1.1186
  2224G12c C01V41221   3.120   9.235   3.136 -1.9402  1.1176 -1.9012
  2224G12c C01Z41222   3.031   9.274   3.024 -0.7333  0.7150  0.9717
  2224G12c H00R41223   3.064   9.300   2.923 -4.8198 -1.9461 -1.2041
  2224G12c H00Q41224   2.983   9.185   2.984  4.2454  1.5858 -8.2738
  2224G12c O00941225   2.908   9.337   3.072 -0.0776  0.6001 -0.0274
  2224G12c H00P41226   2.915   9.419   3.118  3.5550 -0.9254  2.3773
  2224G12c C01W41227   3.217   9.148   3.107  1.7050  1.6841 -0.2661
  2224G12c H00O41228   3.287   9.093   3.167  0.0234 -2.9720 -2.3187
  2224G12c C01X41229   3.259   9.093   2.967 -1.3873  0.4788 -0.0172
  2224G12c H00N41230   3.250   8.990   2.931  6.4411  0.5613 -3.1060
  2224G12c H00M41231   3.201   9.161   2.905  2.1380 -0.0613 -4.1366
  2224G12c C01Y41232   3.387   9.158   2.930  0.3463 -0.1010 -0.5763
  2224G12c C02D41233   3.402   9.307   2.954 -1.5052  0.8015  0.2554
  2224G12c H01941234   3.320   9.376   2.968 -2.1071 -0.6019  4.1487
  2224G12c C02C41235   3.547   9.341   2.936 -2.1662 -1.4091  0.0003
  2224G12c H01A41236   3.553   9.443   2.971  1.9722 -2.6929  3.4717
  2224G12c C02B41237   3.652   9.267   2.906 -3.5743 -1.4665 -0.7214
  2224G12c O00E41238   3.766   9.333   2.856  1.0518  0.0573  0.2794
  2224G12c H01B41239   3.782   9.335   2.763  3.0216 -4.9946  0.3275
  2224G12c C02F41240   3.629   9.134   2.856  0.8262 -1.1544  1.8461
  2224G12c O00F41241   3.738   9.074   2.805  0.5787  0.0435 -1.8168
  2224G12c C02G41242   3.805   8.988   2.912 -0.8970  1.1501  0.1295
  2224G12c H01741243   3.835   8.896   2.863 -4.2117 -3.1200  5.5748
  2224G12c H01641244   3.726   8.973   2.986  1.5913 -4.2077  1.9597
  2224G12c H01541245   3.885   9.039   2.965  2.5463  1.2580 -4.7858
  2224G12c C02E41246   3.501   9.077   2.877  1.7081 -0.8240  0.5284
  2224G12c H01841247   3.481   8.971   2.873  2.3471 -1.1573  4.3636
  2224G12c C01F41248   3.306   9.371   3.375 -0.6893 -0.4268 -0.7272
  2224G12c C01G41249   3.358   9.255   3.435 -1.8308  1.3864 -0.7712
  2224G12c H00L41250   3.311   9.159   3.422  2.3308 -1.2588  2.5398
  2224G12c C01H41251   3.482   9.248   3.502  1.0629 -0.2600 -1.8391
  2224G12c H00B41252   3.543   9.163   3.527 -3.8860 -4.2332 -2.3542
  2224G12c C01I41253   3.554   9.366   3.500 -0.9580 -0.0461 -0.4121
  2224G12c C01U41254   3.386   9.488   3.383  0.5446 -0.3340 -1.5107
  2224G12c C00S41255   3.695   9.742   3.004  1.9360  0.9566  0.6076
  2224G12c C00K41256   3.756   9.672   3.191 -0.5524 -1.7545 -0.4781
  2224G12c C00N41257   3.386   9.577   3.281 -0.5699  0.1497  2.0638
  2224G12c C00041258   3.495   9.487   3.472 -0.8217  0.0382 -0.1492
  2224G12c C01J41259   3.692   9.388   3.465  0.3936 -0.1116 -0.8004
  2224G12c C01K41260   3.794   9.290   3.517  1.6114  1.0623  1.2197
  2224G12c C01P41261   3.785   9.179   3.602 -1.6851  0.7334 -0.6052
  2224G12c C01Q41262   3.710   9.204   3.716  2.0917  1.1510  0.1642
  2224G12c H00G41263   3.642   9.288   3.710 -0.5658 -0.6970  2.9006
  2224G12c C01R41264   3.701   9.145   3.841 -0.9664  0.7815 -0.4417
  2224G12c H00F41265   3.770   9.063   3.859  1.8175  2.5718 -2.5741
  2224G12c C01S41266   3.574   9.183   3.919 -0.4514  0.1185  0.8937
  2224G12c H00E41267   3.477   9.189   3.869 -1.6043  4.7250  3.3826
  2224G12c H00D41268   3.577   9.127   4.012  1.3172 -2.8391 -0.8925
  2224G12c O00541269   3.589   9.311   3.973  1.2614  0.1916  0.5771
  2224G12c H00C41270   3.552   9.379   3.919 -1.1036 -1.1505  0.4848
  2224G12c C01O41271   3.875   9.077   3.608 -0.2550  0.7439 -0.0968
  2224G12c H00H41272   3.858   8.995   3.677 -0.0788 -3.2989 -4.5939
  2224G12c C01N41273   3.996   9.074   3.520  1.5757  0.0411 -0.7857
  2224G12c O00641274   4.065   8.964   3.505 -0.4493  0.7160  2.3713
  2224G12c C01T41275   4.097   8.879   3.603  0.9098  0.8018  0.7937
  2224G12c H00K41276   4.012   8.812   3.596  0.5515  1.3148  0.0655
  2224G12c H00J41277   4.119   8.932   3.696  2.8607  2.0335 -0.3086
  2224G12c H00I41278   4.183   8.836   3.551  0.6605  0.4766  0.6513
  2224G12c C01M41279   4.018   9.184   3.447  0.0159 -0.1510  0.0162
  2224G12c C02041280   3.873   9.607   3.240  1.1122  0.7466 -0.9201
  2224G12c C02141281   4.009   9.619   3.212 -0.3677 -1.8653 -1.7468
  2224G12c C01L41282   3.922   9.293   3.446  0.0812 -0.8338  0.8712
  2224G12c O00741283   4.127   9.194   3.365  0.8907  0.6084  1.1436
  2224G12c C02241284   4.095   9.525   3.228 -0.5859  2.6227  0.9577
  2224G12c C02341285   4.044   9.689   3.092 -1.2143 -0.9718 -0.1571
  2224G12c C00G41286   4.084   9.678   2.814 -0.8661  0.0565  0.1330
  2224G12c C00E41287   4.200   9.634   2.594  1.3494 -0.1748  0.6253
  2224G12c O00A41288   4.197   9.621   2.463  0.4742 -0.0901 -0.9144
  2224G12c C02441289   4.297   9.719   2.398  0.3395  0.7619  2.7530
  2224G12c H00V41290   4.336   9.816   2.429  0.4642  0.2515  4.2602
  2224G12c H00U41291   4.246   9.723   2.302  0.5286 -2.3203  2.4675
  2224G12c H00T41292   4.378   9.646   2.397  1.9262  2.4274 -2.6129
  2234G12c C00D41293   9.221   1.805   8.167  0.6582 -0.9267  0.4549
  2234G12c O00B41294   9.216   1.691   8.082  0.0810  0.9844  0.0486
  2234G12c C02541295   9.090   1.640   8.074  1.8656  0.1760 -1.4824
  2234G12c C02641296   9.010   1.608   8.226  1.6469  0.2555  2.3057
  2234G12c H00Y41297   9.066   1.638   8.314  0.2505  2.9049  2.3223
  2234G12c H00X41298   9.014   1.499   8.231 -2.3138 -0.0298  0.9755
  2234G12c O00C41299   8.884   1.662   8.237  0.5195 -1.7161  0.6044
  2234G12c H00W41300   8.900   1.725   8.305  1.0236 -3.1327  1.8271
  2234G12c C02741301   9.048   1.567   7.976 -1.2364 -0.2206  1.5233
  2234G12c O00D41302   8.925   1.519   7.982  1.9977  1.1478 -1.3725
  2234G12c H00Z41303   8.872   1.587   8.020  3.1859  4.7821 -5.7984
  2234G12c C02841304   9.128   1.550   7.866 -1.2976 -0.4141 -0.0847
  2234G12c C02941305   9.254   1.481   7.889  0.9863 -0.0759 -0.1032
  2234G12c H01041306   9.284   1.427   7.978 -4.5979 -4.5291 -0.6496
  2234G12c C02T41307   9.321   1.431   7.773 -0.1468  0.6233 -1.8875
  2234G12c H01O41308   9.416   1.379   7.776  0.4408  1.7836  0.3362
  2234G12c C02S41309   9.255   1.440   7.639  0.9648 -0.9121  0.6448
  2234G12c O00J41310   9.321   1.414   7.511 -0.7117 -0.2519 -0.0279
  2234G12c H01P41311   9.264   1.400   7.437  2.1355  0.4226 -2.4271
  2234G12c C02R41312   9.128   1.503   7.624 -1.1675 -0.3122  0.9779
  2234G12c O00I41313   9.075   1.531   7.494  0.1798  0.0578  0.6020
  2234G12c C02Q41314   9.114   1.640   7.414  0.4434  0.0275  0.0407
  2234G12c H01N41315   9.054   1.628   7.324 -2.8264  3.6083  1.5989
  2234G12c H01R41316   9.213   1.677   7.388  2.1057  1.5823  7.4692
  2234G12c H01Q41317   9.081   1.739   7.448  4.3156 -0.7621  7.1960
  2234G12c C02A41318   9.071   1.544   7.742 -0.8664  1.2853 -0.1934
  2234G12c H01141319   8.973   1.586   7.726 -0.9795  1.1673  0.1888
  2234G12c C00C41320   9.315   1.816   8.276 -0.2731 -0.0874  0.5974
  2234G12c H01241321   9.401   1.751   8.282  3.6410  4.3800 -3.2474
  2234G12c C00B41322   9.313   1.940   8.359 -0.0336 -1.1762 -0.8539
  2234G12c C00A41323   9.375   1.982   8.477 -2.0278 -0.5330  0.7492
  2234G12c C00941324   9.395   1.892   8.591 -1.0710  0.6753 -0.5950
  2234G12c C00841325   9.383   1.751   8.605 -0.9836 -0.6146  0.4180
  2234G12c H01341326   9.373   1.671   8.533 -1.4414 -1.2789  1.2179
  2234G12c C00741327   9.400   1.712   8.743 -0.8022  1.7945 -1.6965
  2234G12c H01441328   9.379   1.612   8.777 -1.7117  1.8280 -2.1349
  2234G12c C00641329   9.396   1.788   8.856  0.0459 -0.6092  0.4181
  2234G12c C00541330   9.391   1.919   8.840 -0.9940 -1.5165  0.4958
  2234G12c C00441331   9.341   2.008   8.943 -1.5872  0.0976 -0.1795
  2234G12c C00341332   9.333   2.146   8.912  0.4234 -2.3528 -2.1366
  2234G12c C00241333   9.265   2.215   9.020  0.0345  0.1162  1.1493
  2234G12c C00141334   9.224   2.342   9.036  0.5680 -1.4547  0.3419
  2234G12c C00M41335   9.151   2.418   8.927 -0.0174 -0.6706  0.8824
  2234G12c C00L41336   9.172   2.400   8.790 -0.1161  0.7920 -0.5909
  2234G12c C00R41337   9.088   2.456   8.680  0.2889  2.5256  0.2936
  2234G12c C00Q41338   8.973   2.534   8.692  0.7760  0.7882 -0.2946
  2234G12c C00V41339   8.920   2.540   8.553  0.4118 -0.2380  0.2924
  2234G12c C00U41340   8.961   2.450   8.445  0.7002 -1.3977  0.8400
  2234G12c C00T41341   9.058   2.343   8.460 -1.6893  0.2721 -0.6810
  2234G12c C01641342   9.112   2.261   8.369 -0.2696 -0.4510 -1.7281
  2234G12c C01541343   9.031   2.235   8.265  1.6684 -0.2911  1.2291
  2234G12c C01041344   8.931   2.332   8.229  0.1790 -0.9723  0.2199
  2234G12c C01141345   8.873   2.323   8.109  1.2522 -1.3661 -1.7850
  2234G12c H00541346   8.830   2.417   8.078 -2.3011 -1.4625  2.3838
  2234G12c C01241347   8.877   2.204   8.044  1.7109  0.0774 -0.0256
  2234G12c C01741348   8.806   2.208   7.906 -0.6917 -0.9960  0.5864
  2234G12c O00241349   8.870   2.213   7.783 -0.5671  0.2531  1.1740
  2234G12c H00441350   8.960   2.200   7.806 -1.2130 -2.4777  2.2861
  2234G12c C01841351   8.671   2.201   7.911 -0.0681 -0.8140  1.7738
  2234G12c O00141352   8.592   2.193   8.030 -0.1021 -0.1496 -0.9228
  2234G12c H00341353   8.514   2.158   7.991 -1.1240 -0.5825  1.4287
  2234G12c C01941354   8.582   2.223   7.795 -0.6585  1.4498 -0.4598
  2234G12c H00241355   8.605   2.318   7.746  1.5593 -0.7465 -3.9115
  2234G12c H00141356   8.623   2.156   7.719 -5.6524  2.1347 -3.9952
  2234G12c O00041357   8.452   2.179   7.805  0.3113  0.0134  0.2127
  2234G12c C01A41358   8.349   2.281   7.784  0.2215  0.9032 -1.1185
  2234G12c C02K41359   8.354   2.394   7.696  0.8918  0.8537  1.4432
  2234G12c O00G41360   8.461   2.471   7.653  1.6840  0.2605  0.8359
  2234G12c C02M41361   8.491   2.602   7.700  0.3137  0.1204  0.9525
  2234G12c H01G41362   8.458   2.697   7.657 -5.5504 -3.3940 -3.2241
  2234G12c H01F41363   8.482   2.622   7.806 -0.4245  6.3891 -0.1249
  2234G12c H01E41364   8.599   2.601   7.684  0.4182  6.8514 -0.2708
  2234G12c C02J41365   8.227   2.433   7.643 -1.2503  0.7100  0.7690
  2234G12c H01H41366   8.224   2.521   7.580 -0.2476  2.0735  2.5993
  2234G12c C02I41367   8.109   2.397   7.696  0.1277  0.4867 -0.0889
  2234G12c C02N41368   7.978   2.438   7.648  0.6003  0.3321  0.1170
  2234G12c H01M41369   7.903   2.494   7.702  0.2256 -2.3622  2.5314
  2234G12c C02O41370   7.894   2.366   7.571 -1.1044  2.0007  0.9700
  2234G12c H01L41371   7.959   2.301   7.514  1.1359  5.6134 -0.7555
  2234G12c C02P41372   7.755   2.387   7.522  0.4284 -1.1708  0.1880
  2234G12c H01K41373   7.723   2.482   7.477 -6.1209 -4.7025 -3.2624
  2234G12c H01J41374   7.751   2.341   7.423  0.0896  0.9402 -0.8125
  2234G12c O00H41375   7.647   2.343   7.587  0.3449 -1.0031 -0.4245
  2234G12c H01I41376   7.660   2.277   7.654 -5.4081 -2.5022 -0.5093
  2234G12c C02H41377   8.111   2.293   7.797 -0.4526 -0.8787 -1.9025
  2234G12c H01C41378   8.026   2.244   7.842 -0.5125  1.9229  1.2212
  2234G12c C02L41379   8.224   2.220   7.823  0.4843 -0.8290  0.5456
  2234G12c H01D41380   8.216   2.129   7.880 -0.9296 -0.5773  0.7610
  2234G12c C01341381   8.943   2.086   8.106  0.4663 -0.3701 -1.5436
  2234G12c H00041382   8.927   1.987   8.068  0.8773 -0.2930 -1.9173
  2234G12c C01441383   9.045   2.113   8.201  0.9266 -1.2905 -2.2093
  2234G12c C00F41384   9.142   2.028   8.219  0.0866  0.1480 -0.7659
  2234G12c C00H41385   9.206   2.170   8.408  0.3153 -0.3297 -2.4700
  2234G12c C00I41386   9.279   2.185   8.524 -1.4339 -0.7158  0.0313
  2234G12c C00J41387   9.233   2.304   8.602 -0.0282 -0.3945 -0.9006
  2234G12c C00Z41388   8.893   2.442   8.320  0.8182 -0.7516  0.2016
  2234G12c C00Y41389   8.779   2.522   8.303  1.6333  0.9698 -0.2571
  2234G12c H00641390   8.734   2.546   8.208  1.5161  1.6335 -0.0379
  2234G12c C00X41391   8.725   2.589   8.413 -1.2166  0.4854  1.2541
  2234G12c O00341392   8.604   2.662   8.390 -0.6167 -0.7857  0.2064
  2234G12c C01B41393   8.601   2.803   8.414 -2.7973 -0.4087 -0.6182
  2234G12c H00941394   8.514   2.849   8.366  0.2883  2.5980 -3.6483
  2234G12c H00841395   8.676   2.873   8.378 -6.5168  5.2999  1.9293
  2234G12c H00741396   8.572   2.798   8.519  4.2838 -9.4469  1.4602
  2234G12c C00W41397   8.804   2.616   8.534  2.0160 -0.1977 -0.6476
  2234G12c O00441398   8.780   2.698   8.636 -0.5857  2.6034  0.5922
  2234G12c C01C41399   8.758   2.631   8.752  0.1847 -0.4333 -0.5609
  2234G12c H00A41400   8.665   2.589   8.787  0.4092 -2.7325 -2.5529
  2234G12c C00P41401   8.884   2.571   8.799 -0.5341 -1.7569 -0.5662
  2234G12c C00O41402   8.900   2.522   8.933 -1.2489 -0.5157  0.0471
  2234G12c C01D41403   8.782   2.507   9.018 -0.6766 -0.3332 -0.4729
  2234G12c H00S41404   8.677   2.508   8.995 -1.3086  4.3945  1.9750
  2234G12c C01E41405   8.788   2.429   9.142 -0.4607  0.7995  0.7233
  2234G12c O00841406   8.698   2.406   9.243  0.7125 -0.3431  0.5626
  2234G12c C01V41407   8.588   2.478   9.240  0.7720  0.3698  0.0346
  2234G12c C01Z41408   8.455   2.410   9.212 -0.6318 -0.7810 -0.5004
  2234G12c H00R41409   8.439   2.427   9.105  5.9022  2.6459 -1.1717
  2234G12c H00Q41410   8.473   2.312   9.256 -3.4553  0.4761  3.7619
  2234G12c O00941411   8.329   2.446   9.268 -0.0231  0.0544 -1.0924
  2234G12c H00P41412   8.279   2.497   9.206 -1.1437  2.7064  1.8249
  2234G12c C01W41413   8.581   2.606   9.232  1.8534 -0.4584  0.1991
  2234G12c H00O41414   8.480   2.645   9.234  0.0110 -4.9552 -0.0391
  2234G12c C01X41415   8.670   2.735   9.261  1.4920  1.2795  0.4504
  2234G12c H00N41416   8.778   2.728   9.255  1.6190  0.3855  3.2517
  2234G12c H00M41417   8.678   2.801   9.174  1.0232 -4.1211 -3.9510
  2234G12c C01Y41418   8.640   2.771   9.396  0.9775  0.3776  0.5700
  2234G12c C02D41419   8.515   2.837   9.445  0.5699  0.3504 -0.2398
  2234G12c H01941420   8.431   2.879   9.392 -2.0067 -3.1633  0.9373
  2234G12c C02C41421   8.471   2.826   9.574 -1.5098  0.4228  0.6951
  2234G12c H01A41422   8.371   2.844   9.611  1.6058  4.9522  8.0684
  2234G12c C02B41423   8.570   2.771   9.656 -0.8325 -1.3135  0.8650
  2234G12c O00E41424   8.549   2.781   9.787 -0.4256 -0.0685 -0.2447
  2234G12c H01B41425   8.631   2.799   9.830 -0.8630  4.0021 -0.8449
  2234G12c C02F41426   8.702   2.750   9.626 -0.0617  0.3777  0.7737
  2234G12c O00F41427   8.784   2.688   9.729  0.6865  0.0098  0.7824
  2234G12c C02G41428   8.899   2.597   9.686 -0.8635  0.3499  0.1786
  2234G12c H01741429   8.980   2.594   9.759 -1.7241 -2.1526  1.0829
  2234G12c H01641430   8.946   2.614   9.590 -1.0328 -0.2803 -0.0166
  2234G12c H01541431   8.868   2.493   9.674 -1.8823  0.8119 -1.3406
  2234G12c C02E41432   8.739   2.744   9.487  0.6155  0.4762 -1.6086
  2234G12c H01841433   8.833   2.695   9.469  0.9808  0.6444 -0.1611
  2234G12c C01F41434   8.907   2.363   9.179 -0.1723  0.2527  1.5318
  2234G12c C01G41435   8.911   2.272   9.282  0.0892 -0.4506  0.6104
  2234G12c H00L41436   8.820   2.262   9.340  2.6285  5.6457  6.3854
  2234G12c C01H41437   9.035   2.208   9.308  0.1750 -1.2481 -1.5209
  2234G12c H00B41438   9.061   2.128   9.376 -0.6581  2.8065  3.8674
  2234G12c C01I41439   9.130   2.230   9.221 -1.4924  0.3775  1.5870
  2234G12c C01U41440   9.023   2.410   9.117  0.6017  0.1621 -0.1786
  2234G12c C00S41441   9.129   2.385   8.572  0.7838 -0.3737  1.0130
  2234G12c C00K41442   9.257   2.307   8.745  0.0790  0.5718  0.1586
  2234G12c C00N41443   9.017   2.461   8.980 -0.5268 -0.3653 -0.8602
  2234G12c C00041444   9.141   2.358   9.159 -1.8114 -1.7353  0.7994
  2234G12c C01J41445   9.215   2.151   9.144 -0.0973 -0.4883  1.4965
  2234G12c C01K41446   9.243   2.018   9.188 -1.4250  1.0904  0.2562
  2234G12c C01P41447   9.235   1.933   9.308  0.5347 -0.4682  0.0723
  2234G12c C01Q41448   9.250   1.999   9.435 -0.8260 -0.9168 -0.3860
  2234G12c H00G41449   9.324   2.072   9.464  0.2690  0.9506 -6.9318
  2234G12c C01R41450   9.159   1.967   9.533  0.3542 -0.4725  1.1985
  2234G12c H00F41451   9.099   1.880   9.511  2.5886 -0.9762 -3.7034
  2234G12c C01S41452   9.132   2.031   9.663  0.9321  0.2121 -0.5893
  2234G12c H00E41453   9.024   2.036   9.656  0.7752 -1.7177  0.2671
  2234G12c H00D41454   9.176   1.968   9.740 -1.0287 -2.0887 -1.2599
  2234G12c O00541455   9.187   2.157   9.703 -1.1517  1.0361  0.2728
  2234G12c H00C41456   9.280   2.142   9.702 -1.4121 -0.7604  0.9337
  2234G12c C01O41457   9.246   1.800   9.297 -0.1812 -1.6037 -0.0241
  2234G12c H00H41458   9.244   1.736   9.384  6.2438  2.4682  3.5461
  2234G12c C01N41459   9.296   1.728   9.187  0.0430 -0.2258 -0.1835
  2234G12c O00641460   9.287   1.589   9.153 -0.6406  1.0954  2.0112
  2234G12c C01T41461   9.163   1.509   9.199 -0.1262 -1.0230 -0.0100
  2234G12c H00K41462   9.126   1.460   9.109 -1.6234  1.8075 -1.0083
  2234G12c H00J41463   9.087   1.578   9.237  0.7723 -0.1769  0.2593
  2234G12c H00I41464   9.193   1.436   9.273 -5.6897 -2.6906  0.8708
  2234G12c C01M41465   9.320   1.807   9.066 -1.6068 -0.6896 -0.6099
  2234G12c C02041466   9.327   2.199   8.785  0.7982  2.2963 -0.4463
  2234G12c C02141467   9.388   2.109   8.700  0.5283  0.1367  0.8657
  2234G12c C01L41468   9.300   1.949   9.069  0.0156 -2.0390  0.3355
  2234G12c O00741469   9.368   1.727   8.963  1.2761 -2.1865  1.2417
  2234G12c C02241470   9.405   1.975   8.709 -0.2694 -0.2764  1.2366
  2234G12c C02341471   9.377   2.104   8.554 -0.6240 -2.1921  0.9060
  2234G12c C00G41472   9.226   2.049   8.322  0.4863  2.0245 -0.4903
  2234G12c C00E41473   9.141   1.918   8.135 -1.1356  1.5802  0.6937
  2234G12c O00A41474   9.108   1.917   7.996 -0.5323  0.5113  0.7218
  2234G12c C02441475   9.183   2.009   7.924  0.6559  0.1419  0.0050
  2234G12c H00V41476   9.147   2.041   7.826  1.3175 -6.6138 -2.6758
  2234G12c H00U41477   9.284   1.970   7.910  1.9177  4.5502 -4.7592
  2234G12c H00T41478   9.199   2.098   7.986 -0.0616 -1.3948  2.4536
  2244G12c C00D41479  10.109   1.357   4.121  1.2161 -0.1814  1.7866
  2244G12c O00B41480  10.168   1.272   4.025  0.4476  0.9755  0.7944
  2244G12c C02541481  10.269   1.320   3.939 -0.5387  0.3716 -1.4119
  2244G12c C02641482  10.220   1.404   3.825 -0.3422  0.5651 -0.3733
  2244G12c H00Y41483  10.254   1.347   3.738  0.4957 -6.8514  4.3840
  2244G12c H00X41484  10.272   1.500   3.828 -1.6912  1.2913  5.7304
  2244G12c O00C41485  10.077   1.403   3.807  1.0332 -0.4374  0.9754
  2244G12c H00W41486  10.028   1.371   3.881  1.0463  2.3084  2.2178
  2244G12c C02741487  10.401   1.320   3.965  0.2497 -0.9938 -0.5840
  2244G12c O00D41488  10.427   1.292   4.096  0.4494 -1.6722  0.3910
  2244G12c H00Z41489  10.518   1.281   4.119  1.0495 -1.5218 -1.8024
  2244G12c C02841490  10.507   1.352   3.872 -0.9008  0.1759 -1.0856
  2244G12c C02941491  10.597   1.451   3.891  0.4571 -0.7003 -0.4774
  2244G12c H01041492  10.622   1.508   3.979 -0.4740 -3.8273  1.8892
  2244G12c C02T41493  10.687   1.481   3.790 -0.6644  1.4369  1.0628
  2244G12c H01O41494  10.770   1.550   3.794 -1.5028  2.7487 -2.1809
  2244G12c C02S41495  10.708   1.398   3.676  0.2967  0.6374 -0.2592
  2244G12c O00J41496  10.828   1.384   3.610  0.5117 -0.8762 -0.1511
  2244G12c H01P41497  10.877   1.355   3.685  0.4396 -2.6501 -0.7685
  2244G12c C02R41498  10.607   1.304   3.661  1.4972 -1.2309 -0.2724
  2244G12c O00I41499  10.619   1.201   3.558  0.3334  0.1886 -0.2439
  2244G12c C02Q41500  10.670   1.070   3.603  0.3301 -0.4959  0.8525
  2244G12c H01N41501  10.609   0.985   3.574  0.8674 -1.3168  2.1058
  2244G12c H01R41502  10.690   1.056   3.709  0.9099  0.2295  0.8488
  2244G12c H01Q41503  10.777   1.049   3.602  1.1424  3.3236 -1.1952
  2244G12c C02A41504  10.509   1.276   3.755  0.9120 -2.4562 -0.8358
  2244G12c H01141505  10.429   1.206   3.733 -3.0422  0.7781  2.5504
  2244G12c C00C41506  10.108   1.490   4.096  1.4978  0.9461 -1.2887
  2244G12c H01241507  10.172   1.524   4.016  2.6819 -5.0626 -3.1294
  2244G12c C00B41508  10.043   1.574   4.182 -0.2186 -0.7982 -1.0315
  2244G12c C00A41509  10.075   1.714   4.187  0.8634 -0.3425 -0.6329
  2244G12c C00941510  10.224   1.727   4.209 -0.7275 -1.2897  0.5903
  2244G12c C00841511  10.347   1.646   4.173 -0.8165  0.1208  0.6911
  2244G12c H01341512  10.326   1.582   4.088  3.4655  9.5725 -8.6940
  2244G12c C00741513  10.459   1.649   4.251 -0.5899  0.3480  0.3255
  2244G12c H01441514  10.514   1.562   4.286  1.3455  1.5035  0.2119
  2244G12c C00641515  10.476   1.750   4.347 -0.3905  1.4337  0.7828
  2244G12c C00541516  10.364   1.838   4.364 -0.4708  0.1934 -1.4925
  2244G12c C00441517  10.367   1.932   4.471 -1.1164  0.8910  1.6264
  2244G12c C00341518  10.251   1.973   4.520  0.1743  0.3364 -2.1781
  2244G12c C00241519  10.254   2.052   4.642 -0.6499 -0.3150 -0.8190
  2244G12c C00141520  10.160   2.074   4.737 -0.9801 -1.1296  1.7546
  2244G12c C00M41521  10.069   1.965   4.782  1.0449 -1.0631 -0.4752
  2244G12c C00L41522   9.954   1.960   4.697  0.5554  1.6267 -0.7355
  2244G12c C00R41523   9.883   1.833   4.735 -1.2185  0.6689 -0.9931
  2244G12c C00Q41524   9.854   1.763   4.867  0.2243 -0.2735  2.2360
  2244G12c C00V41525   9.774   1.642   4.855 -1.6188  0.5880 -0.1408
  2244G12c C00U41526   9.783   1.567   4.739  0.2042  0.5311 -0.4621
  2244G12c C00T41527   9.844   1.618   4.625  0.0575 -0.8792 -0.0828
  2244G12c C01641528   9.849   1.554   4.503 -1.9223 -0.0284  1.0149
  2244G12c C01541529   9.838   1.417   4.512  3.0990  0.5503 -1.6060
  2244G12c C01041530   9.755   1.364   4.617 -1.7992 -0.4028  0.6768
  2244G12c C01141531   9.725   1.224   4.618 -1.4137 -0.5305 -0.6706
  2244G12c H00541532   9.664   1.187   4.699  3.0329 -2.7708  1.8856
  2244G12c C01241533   9.782   1.123   4.539  1.4960 -0.6985  0.8421
  2244G12c C01741534   9.774   0.985   4.574 -0.2104 -0.5870 -0.7987
  2244G12c O00241535   9.790   0.961   4.716  0.2265 -1.5242  0.3702
  2244G12c H00441536   9.854   0.977   4.784 -2.0699  3.8517  1.4816
  2244G12c C01841537   9.740   0.888   4.486 -1.1137  1.2689 -0.2898
  2244G12c O00141538   9.738   0.917   4.345 -1.3817 -0.5647  0.0957
  2244G12c H00341539   9.719   0.835   4.301 -0.0923 -1.8539  1.8702
  2244G12c C01941540   9.693   0.744   4.506 -0.1250 -0.2421  0.6205
  2244G12c H00241541   9.701   0.705   4.607  3.7174 -0.5442  0.2508
  2244G12c H00141542   9.587   0.720   4.499  0.6954 -3.0859 -4.5099
  2244G12c O00041543   9.774   0.660   4.434  0.2416 -0.1362 -0.4051
  2244G12c C01A41544   9.692   0.567   4.378  0.0614 -0.2011  0.0343
  2244G12c C02K41545   9.656   0.581   4.244 -0.0479 -0.4587 -1.2111
  2244G12c O00G41546   9.694   0.696   4.170 -0.6539 -0.3471 -0.0704
  2244G12c C02M41547   9.595   0.764   4.114  0.4975 -2.2135 -1.4266
  2244G12c H01G41548   9.514   0.792   4.181  3.9987 -2.4332  3.1649
  2244G12c H01F41549   9.609   0.872   4.111 -0.8900 -1.9946 -0.1349
  2244G12c H01E41550   9.595   0.729   4.011  5.6387  0.2553 -2.4815
  2244G12c C02J41551   9.604   0.458   4.166  0.7361  1.4086 -1.0603
  2244G12c H01H41552   9.562   0.478   4.069 -4.2923 -1.2064  0.3791
  2244G12c C02I41553   9.557   0.344   4.227  0.9281 -0.5727 -0.0280
  2244G12c C02N41554   9.473   0.256   4.157 -1.3112 -0.3459  1.2575
  2244G12c H01M41555   9.457   0.151   4.174  2.0958 -0.6983  2.7941
  2244G12c C02O41556   9.396   0.304   4.054 -0.7633  0.6120 -0.5704
  2244G12c H01L41557   9.401   0.402   4.009  5.6550 -0.1404 -2.0247
  2244G12c C02P41558   9.307   0.207   3.980  1.5682 -0.2988 -0.7355
  2244G12c H01K41559   9.245   0.142   4.042 -8.7937  5.2077 -4.1936
  2244G12c H01J41560   9.216   0.263   3.963  0.8811 -0.7611  1.2822
  2244G12c O00H41561   9.377   0.162   3.863 -0.9166  0.0257 -0.0736
  2244G12c H01I41562   9.326   0.125   3.792  0.9450 -3.9153  0.4631
  2244G12c C02H41563   9.602   0.336   4.364  0.3064  0.1001 -0.5151
  2244G12c H01C41564   9.620   0.262   4.440 -1.2269  0.8912  0.6484
  2244G12c C02L41565   9.669   0.440   4.437 -0.5384 -0.6190  1.4200
  2244G12c H01D41566   9.698   0.425   4.540  1.9987 -5.1340  0.1806
  2244G12c C01341567   9.858   1.190   4.435 -0.1835 -0.2093  1.0095
  2244G12c H00041568   9.916   1.118   4.378  3.0170  2.8357  0.2170
  2244G12c C01441569   9.876   1.328   4.417 -0.4296  0.5775 -0.0521
  2244G12c C00F41570   9.951   1.382   4.303 -0.0524 -0.1605 -1.8598
  2244G12c C00H41571   9.920   1.607   4.390  0.8168  0.8953 -0.9070
  2244G12c C00I41572   9.945   1.744   4.394  1.5358 -1.4010  1.0150
  2244G12c C00J41573   9.919   1.820   4.511  0.1882  0.1964  0.6647
  2244G12c C00Z41574   9.730   1.440   4.735 -0.9140 -1.0878  0.8200
  2244G12c C00Y41575   9.676   1.370   4.859  0.4418 -0.0442  2.2973
  2244G12c H00641576   9.614   1.283   4.876  1.6756 -1.0476  1.7516
  2244G12c C00X41577   9.704   1.431   4.975 -0.3780  2.1715 -0.1592
  2244G12c O00341578   9.635   1.347   5.071 -0.0200 -0.3708 -0.3423
  2244G12c C01B41579   9.586   1.408   5.191 -0.5054 -0.1602  1.2721
  2244G12c H00941580   9.562   1.514   5.198 -2.0024 -0.3844 -0.3395
  2244G12c H00841581   9.650   1.388   5.277  0.3970 -1.9696  0.2040
  2244G12c H00741582   9.487   1.372   5.219 -1.4682  2.3943  1.3765
  2244G12c C00W41583   9.729   1.583   4.974  1.2186 -0.5054  1.4436
  2244G12c O00441584   9.775   1.624   5.099  0.5912 -2.6777 -0.0936
  2244G12c C01C41585   9.812   1.744   5.112 -0.2743 -0.7895  0.9572
  2244G12c H00A41586   9.741   1.823   5.131  0.2129  1.0513 -4.0367
  2244G12c C00P41587   9.898   1.786   5.001 -0.5919 -1.0866 -0.2009
  2244G12c C00O41588   9.995   1.898   5.024 -0.4379  0.9330 -0.1704
  2244G12c C01D41589  10.067   1.898   5.145  0.7584 -1.3665  0.2481
  2244G12c H00S41590  10.034   1.820   5.213 -0.6418  3.3046  5.2826
  2244G12c C01E41591  10.189   1.981   5.180  0.7954 -0.5129  0.3612
  2244G12c O00841592  10.248   1.990   5.293  0.0349 -1.8238 -1.3432
  2244G12c C01V41593  10.187   1.945   5.398 -0.2536  1.2854  1.6777
  2244G12c C01Z41594  10.062   2.034   5.428  1.6372  0.7487 -0.8508
  2244G12c H00R41595  10.003   2.080   5.349  0.6414 11.1420  5.0957
  2244G12c H00Q41596   9.984   1.958   5.426  3.6813 -1.5075  0.8187
  2244G12c O00941597  10.074   2.130   5.530  1.9770 -0.8740 -0.4613
  2244G12c H00P41598  10.109   2.210   5.493  0.0744 -0.3972 -1.2805
  2244G12c C01W41599  10.219   1.831   5.461  1.5158  0.4026  0.2282
  2244G12c H00O41600  10.308   1.774   5.440 -1.9258 -5.6295  0.6531
  2244G12c C01X41601  10.148   1.779   5.585  0.0450  0.0863  0.4904
  2244G12c H00N41602  10.225   1.753   5.658  0.9482 -4.3168 -1.8354
  2244G12c H00M41603  10.118   1.868   5.640 -3.3973  2.9913 -5.7098
  2244G12c C01Y41604  10.079   1.650   5.599  1.1348  1.9317  1.5342
  2244G12c C02D41605  10.044   1.578   5.472 -0.0041  0.6342  0.0789
  2244G12c H01941606  10.090   1.628   5.388  6.9455 -0.6273  2.8159
  2244G12c C02C41607   9.943   1.492   5.480  0.2326  0.5430 -0.6595
  2244G12c H01A41608   9.888   1.471   5.390 -3.2504  2.9054  0.8081
  2244G12c C02B41609   9.915   1.428   5.596  0.2358  0.0053  0.3438
  2244G12c O00E41610   9.813   1.332   5.596 -0.3785  0.3288  0.8106
  2244G12c H01B41611   9.788   1.338   5.687  3.4426  3.0534  1.8076
  2244G12c C02F41612   9.963   1.470   5.721  0.2306  1.2048  1.4658
  2244G12c O00F41613   9.875   1.425   5.830  0.1150  2.3861  1.2027
  2244G12c C02G41614   9.921   1.284   5.882 -0.9583 -1.1677 -0.1254
  2244G12c H01741615   9.868   1.266   5.975  1.4713  6.3186  3.1174
  2244G12c H01641616  10.024   1.288   5.918 -0.5119  0.5717 -1.4756
  2244G12c H01541617   9.959   1.212   5.809  5.6574  1.3100  0.4691
  2244G12c C02E41618  10.042   1.589   5.721  1.5537 -0.7153  0.7149
  2244G12c H01841619  10.065   1.624   5.820 -0.0048  6.2686 -1.1501
  2244G12c C01F41620  10.245   2.047   5.076  0.3585 -1.4563 -1.4638
  2244G12c C01G41621  10.376   2.090   5.069  0.6522 -1.0431  0.8876
  2244G12c H00L41622  10.446   2.062   5.146  3.8481  0.4473 -1.3575
  2244G12c C01H41623  10.451   2.103   4.943 -0.4849  0.7772 -0.5062
  2244G12c H00B41624  10.558   2.112   4.934 -1.1296  7.4534 -5.6258
  2244G12c C01I41625  10.370   2.109   4.831 -0.7087  0.1034 -0.3398
  2244G12c C01U41626  10.168   2.053   4.948 -0.2660  0.5483  0.0764
  2244G12c C00S41627   9.849   1.763   4.625  1.5093 -1.6828  2.6318
  2244G12c C00K41628   9.991   1.935   4.547  0.8704 -0.7275  0.2208
  2244G12c C00N41629  10.061   1.970   4.927 -0.8201 -1.1287  0.8770
  2244G12c C00041630  10.222   2.125   4.845  0.1531 -1.1027 -0.9597
  2244G12c C01J41631  10.381   2.091   4.700 -0.9858  0.2793  0.4001
  2244G12c C01K41632  10.501   2.052   4.643  0.3507 -0.5138 -0.3344
  2244G12c C01P41633  10.631   2.117   4.666  0.7945 -1.3184  0.7337
  2244G12c C01Q41634  10.649   2.258   4.726  0.3353  0.1576 -0.0377
  2244G12c H00G41635  10.570   2.328   4.703 -4.1525 -3.6806  2.6476
  2244G12c C01R41636  10.761   2.310   4.783 -1.0433 -0.9263  0.1891
  2244G12c H00F41637  10.794   2.413   4.774 -4.9894  0.2916 -1.2576
  2244G12c C01S41638  10.888   2.223   4.810  0.2915  0.5166  0.1962
  2244G12c H00E41639  10.857   2.126   4.850 -0.3216  1.6086  2.4719
  2244G12c H00D41640  10.939   2.212   4.715 -2.3964  1.8140 -1.4542
  2244G12c O00541641  10.951   2.302   4.918 -0.3208  1.5926  0.3963
  2244G12c H00C41642  10.988   2.369   4.862 -0.6351  0.1205 -1.6247
  2244G12c C01O41643  10.725   2.060   4.577  0.0768 -0.1129  0.0416
  2244G12c H00H41644  10.820   2.112   4.580  0.7041 -1.3506  5.4457
  2244G12c C01N41645  10.734   1.948   4.502  0.9606 -0.5923  1.1097
  2244G12c O00641646  10.810   1.935   4.392 -0.8158 -0.6202 -0.3434
  2244G12c C01T41647  10.752   1.970   4.271 -0.2389  0.0382  0.1252
  2244G12c H00K41648  10.676   1.902   4.232  2.8760 -5.7253  3.4528
  2244G12c H00J41649  10.836   1.962   4.203  1.8207  4.0356  1.9701
  2244G12c H00I41650  10.747   2.077   4.247  2.9476 -0.0235 -1.0755
  2244G12c C01M41651  10.600   1.884   4.501  0.0335  0.5351  0.2400
  2244G12c C02041652  10.114   1.944   4.457 -0.5598 -0.5173 -0.3019
  2244G12c C02141653  10.121   1.871   4.336  0.9663  0.8184  0.8045
  2244G12c C01L41654  10.489   1.945   4.550 -1.3320 -1.3250  0.5404
  2244G12c O00741655  10.590   1.766   4.416 -0.6261  0.0112  1.6171
  2244G12c C02241656  10.241   1.836   4.276  1.0303 -0.8188  1.8992
  2244G12c C02341657  10.028   1.790   4.288  3.4255  0.1619 -0.4870
  2244G12c C00G41658   9.962   1.519   4.284 -0.2511 -0.8152 -0.7021
  2244G12c C00E41659  10.018   1.297   4.208  0.0529 -0.1568  0.1047
  2244G12c O00A41660  10.007   1.154   4.164 -0.3405  0.4600  0.9570
  2244G12c C02441661  10.111   1.071   4.202 -0.5394 -0.8625 -0.4662
  2244G12c H00V41662  10.196   1.139   4.211 -2.7841  2.5108 -3.0721
  2244G12c H00U41663  10.125   0.987   4.134 -7.9476 -3.2606  0.4773
  2244G12c H00T41664  10.082   1.015   4.290  0.2341 -1.7278 -0.7572
  2254G12c C00D41665   4.870   2.982   2.781 -1.1266 -2.0913  0.7080
  2254G12c O00B41666   4.764   3.066   2.825 -0.6199  0.3174  0.8925
  2254G12c C02541667   4.688   3.130   2.729 -0.6442 -1.1540  0.5403
  2254G12c C02641668   4.594   3.042   2.645 -1.1364  0.0241  0.0805
  2254G12c H00Y41669   4.621   2.973   2.564  0.7020  3.8428 -2.7400
  2254G12c H00X41670   4.500   3.096   2.634 -1.4378 -0.3167  0.9908
  2254G12c O00C41671   4.532   2.951   2.732 -0.3078  0.1526  1.0891
  2254G12c H00W41672   4.596   2.911   2.788 -0.6858  2.2424  3.1094
  2254G12c C02741673   4.691   3.258   2.730  0.6846  0.5559  0.1204
  2254G12c O00D41674   4.632   3.315   2.620  0.1027 -0.5225  2.1364
  2254G12c H00Z41675   4.672   3.396   2.594 -4.5965  0.3174 -3.5734
  2254G12c C02841676   4.763   3.339   2.834 -1.9074 -0.3280  2.0292
  2254G12c C02941677   4.758   3.485   2.813  0.3609 -1.4614 -0.6061
  2254G12c H01041678   4.695   3.529   2.737 -0.3443 -2.8963 -0.8716
  2254G12c C02T41679   4.844   3.576   2.889 -0.0200 -1.0370 -1.2715
  2254G12c H01O41680   4.818   3.670   2.841  5.1593  1.3880  0.2681
  2254G12c C02S41681   4.927   3.530   2.986  0.2629 -0.6276 -0.2741
  2254G12c O00J41682   4.990   3.637   3.055  0.6304 -2.3901 -1.0820
  2254G12c H01P41683   4.995   3.636   3.149  3.4364  3.0819 -0.9472
  2254G12c C02R41684   4.901   3.401   3.033 -0.6242  1.0269  1.3163
  2254G12c O00I41685   4.954   3.372   3.151  0.5597  0.0828 -0.4361
  2254G12c C02Q41686   4.907   3.263   3.204  0.4500 -0.6754  1.1699
  2254G12c H01N41687   4.871   3.269   3.307 -1.9073  6.8394  0.2234
  2254G12c H01R41688   4.978   3.189   3.167  4.7047  2.1455  3.2139
  2254G12c H01Q41689   4.804   3.245   3.174  2.5321 -3.2087 -5.1203
  2254G12c C02A41690   4.828   3.301   2.954 -0.3058  0.1913  0.3857
  2254G12c H01141691   4.799   3.201   2.984 -2.1738 -0.0419 -2.0625
  2254G12c C00C41692   4.989   3.039   2.795  0.3541  1.1076  2.3112
  2254G12c H01241693   4.966   3.133   2.842  4.4870  1.6622  3.3995
  2254G12c C00B41694   5.112   2.965   2.796 -0.6841  0.5788 -1.2682
  2254G12c C00A41695   5.244   2.996   2.858  2.1282  2.4689 -0.6091
  2254G12c C00941696   5.310   3.123   2.882 -1.5222  0.0396 -1.3792
  2254G12c C00841697   5.247   3.235   2.844  1.3776 -1.2915  1.0216
  2254G12c H01341698   5.145   3.222   2.810  2.9741  0.0661 -4.9723
  2254G12c C00741699   5.314   3.341   2.783 -1.1296  0.8606  1.2014
  2254G12c H01441700   5.273   3.432   2.742  0.8455  1.9262  1.4999
  2254G12c C00641701   5.460   3.318   2.773  0.7708 -1.2028  1.2765
  2254G12c C00541702   5.519   3.208   2.842  1.3841  0.1862 -0.0603
  2254G12c C00441703   5.636   3.162   2.774 -0.1292  2.1879 -0.0995
  2254G12c C00341704   5.664   3.024   2.765  2.8609 -0.7012  1.1143
  2254G12c C00241705   5.783   2.988   2.705  0.4899 -0.2162 -0.6429
  2254G12c C00141706   5.862   2.863   2.685 -1.0445  0.1402  1.3663
  2254G12c C00M41707   5.795   2.748   2.616  0.4847 -1.2738  0.5179
  2254G12c C00L41708   5.668   2.705   2.655 -0.8186  0.6419 -0.5846
  2254G12c C00R41709   5.583   2.623   2.583 -0.0494 -2.1525  1.2603
  2254G12c C00Q41710   5.605   2.555   2.467 -0.0264 -0.4705 -0.6344
  2254G12c C00V41711   5.484   2.511   2.428  2.8729  2.2160  0.8672
  2254G12c C00U41712   5.354   2.523   2.474 -0.9109 -0.0212 -0.6930
  2254G12c C00T41713   5.345   2.586   2.599  0.7846 -2.6294  1.4108
  2254G12c C01641714   5.222   2.641   2.636 -1.1814  0.7926 -0.1744
  2254G12c C01541715   5.112   2.603   2.585 -0.8480 -0.5223  1.0606
  2254G12c C01041716   5.117   2.512   2.470  1.1446  1.7823  1.1973
  2254G12c C01141717   4.991   2.473   2.409 -0.6000  1.1433  0.2667
  2254G12c H00541718   4.979   2.418   2.316  3.4265 -3.7612  2.4159
  2254G12c C01241719   4.869   2.515   2.456  0.3168 -0.2499  0.1780
  2254G12c C01741720   4.751   2.446   2.405  0.1958  2.3923 -0.1560
  2254G12c O00241721   4.693   2.514   2.301 -0.1506 -1.9022  0.6126
  2254G12c H00441722   4.629   2.563   2.350 -4.4971 -1.9488 -4.5388
  2254G12c C01841723   4.701   2.342   2.473 -0.0034 -0.8580 -1.0329
  2254G12c O00141724   4.583   2.272   2.433  0.2254 -1.0644  0.7812
  2254G12c H00341725   4.588   2.262   2.339  2.7644 -0.4655  0.8223
  2254G12c C01941726   4.784   2.269   2.568 -0.3172 -0.6108 -0.9251
  2254G12c H00241727   4.769   2.276   2.675 -0.3045  2.1539 -1.0693
  2254G12c H00141728   4.752   2.166   2.583  3.4940 -1.8505 -0.5954
  2254G12c O00041729   4.926   2.239   2.528 -0.1659 -0.8093  0.6062
  2254G12c C01A41730   5.023   2.185   2.602 -0.6268 -0.8856 -0.6514
  2254G12c C02K41731   5.137   2.140   2.533 -0.2831 -0.6063 -1.0134
  2254G12c O00G41732   5.129   2.050   2.430  1.0938 -0.0385  0.1668
  2254G12c C02M41733   5.043   2.072   2.331 -0.6075 -0.2860 -0.7136
  2254G12c H01G41734   5.105   2.117   2.253 -3.5229  3.4124 -1.0314
  2254G12c H01F41735   4.943   2.114   2.335  0.0605  1.0701  3.5888
  2254G12c H01E41736   5.023   1.968   2.305  3.8542 -1.5001  0.2400
  2254G12c C02J41737   5.266   2.154   2.611 -0.2643 -0.3814 -1.2665
  2254G12c H01H41738   5.351   2.097   2.575  1.8396  2.1107 -0.3913
  2254G12c C02I41739   5.279   2.230   2.736 -0.2492 -1.4837  2.3238
  2254G12c C02N41740   5.397   2.289   2.798 -1.2277  0.1959  0.6731
  2254G12c H01M41741   5.496   2.257   2.769 -1.8495 -3.3643  2.2508
  2254G12c C02O41742   5.383   2.369   2.911 -0.5882 -1.2510 -0.5210
  2254G12c H01L41743   5.295   2.406   2.962  1.8520  3.7927  0.3049
  2254G12c C02P41744   5.514   2.429   2.951 -0.0114 -0.0628  1.2825
  2254G12c H01K41745   5.589   2.368   2.901 -1.2107 -2.6370  2.5882
  2254G12c H01J41746   5.505   2.508   2.875 -4.7838 -3.5618 -2.1163
  2254G12c O00H41747   5.536   2.487   3.066 -1.6566  0.0872  0.1444
  2254G12c H01I41748   5.469   2.552   3.052  3.2992  5.8060  1.0081
  2254G12c C02H41749   5.158   2.234   2.808 -0.3945  1.2370  0.1886
  2254G12c H01C41750   5.161   2.219   2.915 -0.6192 -3.3474 -0.3149
  2254G12c C02L41751   5.034   2.205   2.745 -1.6033 -0.0072  0.0011
  2254G12c H01D41752   4.942   2.199   2.802 -4.3684  0.9603 -4.1424
  2254G12c C01341753   4.870   2.613   2.559  0.2388 -0.0836  0.1510
  2254G12c H00041754   4.770   2.643   2.585  0.1356 -3.7135  4.5203
  2254G12c C01441755   4.993   2.666   2.615 -0.0759  1.2199 -0.8513
  2254G12c C00F41756   4.984   2.775   2.705 -0.7634 -0.5042 -0.8256
  2254G12c C00H41757   5.227   2.760   2.720 -1.4540 -0.2358  0.6828
  2254G12c C00I41758   5.342   2.788   2.792 -0.1323  0.9025 -1.4227
  2254G12c C00J41759   5.453   2.741   2.734 -1.5377  0.2808  1.7165
  2254G12c C00Z41760   5.236   2.473   2.410 -2.4025  0.1541 -1.5299
  2254G12c C00Y41761   5.250   2.386   2.300  0.7976  1.3434 -0.3824
  2254G12c H00641762   5.159   2.340   2.263  2.7792 -2.1133 -1.1301
  2254G12c C00X41763   5.377   2.390   2.230  1.2373  0.0344  0.0837
  2254G12c O00341764   5.357   2.313   2.119 -0.0595 -0.8265 -0.5568
  2254G12c C01B41765   5.364   2.388   2.007 -0.6842 -0.6163  0.7252
  2254G12c H00941766   5.275   2.449   1.992  2.4545  3.6283 -1.8157
  2254G12c H00841767   5.435   2.470   2.015  0.2619 -1.6446  3.4217
  2254G12c H00741768   5.383   2.312   1.930  9.0841 -1.6898  3.5869
  2254G12c C00W41769   5.483   2.438   2.294  0.2651  0.0615 -0.2901
  2254G12c O00441770   5.594   2.398   2.215  0.4705  0.7659  0.3404
  2254G12c C01C41771   5.687   2.492   2.239  0.4851  1.4753 -0.6271
  2254G12c H00A41772   5.703   2.573   2.170  2.7658 -0.3043 -2.2963
  2254G12c C00P41773   5.712   2.554   2.371 -0.2129  1.5145 -0.2294
  2254G12c C00O41774   5.834   2.641   2.378  1.2927 -2.0788  2.4588
  2254G12c C01D41775   5.922   2.659   2.262 -0.3927  1.3182 -0.0328
  2254G12c H00S41776   5.904   2.600   2.173 -0.3332 -1.0778  1.5022
  2254G12c C01E41777   6.006   2.774   2.235 -0.3166 -1.4641 -2.2442
  2254G12c O00841778   6.069   2.798   2.110  0.0372 -0.3872 -0.8057
  2254G12c C01V41779   6.199   2.747   2.070  0.1958  0.0323  2.1450
  2254G12c C01Z41780   6.288   2.865   2.038 -1.2030 -0.0703 -0.1735
  2254G12c H00R41781   6.241   2.950   1.988 -0.7673 -1.8543 -3.6919
  2254G12c H00Q41782   6.286   2.915   2.135  5.4391 -7.0978  4.1591
  2254G12c O00941783   6.396   2.818   1.971  1.1140 -0.6525 -0.0611
  2254G12c H00P41784   6.450   2.886   1.934 -2.7421  2.7863  0.2099
  2254G12c C01W41785   6.240   2.622   2.107 -0.4593  0.2505  0.4064
  2254G12c H00O41786   6.150   2.569   2.136 -3.1114  3.4540 -1.5193
  2254G12c C01X41787   6.376   2.588   2.118  0.2358 -0.2342  0.7283
  2254G12c H00N41788   6.408   2.499   2.172 -2.6587 -1.1122  1.0913
  2254G12c H00M41789   6.438   2.607   2.031  0.0361  1.1961  0.8784
  2254G12c C01Y41790   6.431   2.660   2.227 -0.3541  0.6188 -0.6490
  2254G12c C02D41791   6.564   2.683   2.211  2.3467  0.3436  1.2342
  2254G12c H01941792   6.610   2.706   2.116  2.5550  3.4486  2.0036
  2254G12c C02C41793   6.654   2.671   2.324 -1.8735 -0.1157  0.5304
  2254G12c H01A41794   6.757   2.655   2.293 -1.8093 -0.3224  0.8454
  2254G12c C02B41795   6.606   2.657   2.447 -0.5632  0.6276  1.1340
  2254G12c O00E41796   6.716   2.667   2.539  0.0086 -0.0734  1.2501
  2254G12c H01B41797   6.761   2.585   2.525 -0.1121 -0.2106  1.6592
  2254G12c C02F41798   6.474   2.667   2.471  0.0908  0.1087  0.3796
  2254G12c O00F41799   6.422   2.679   2.601 -0.4324  1.1663 -0.4704
  2254G12c C02G41800   6.305   2.751   2.619  1.0501  0.7248 -0.6966
  2254G12c H01741801   6.254   2.715   2.708 -1.6378  4.3807 -0.6494
  2254G12c H01641802   6.224   2.745   2.546  1.2608 -1.8752 -0.7867
  2254G12c H01541803   6.306   2.854   2.652 -8.9982  1.6070 -1.7832
  2254G12c C02E41804   6.382   2.660   2.366  0.2980  1.8536  0.6594
  2254G12c H01841805   6.285   2.642   2.411  3.9055  3.1046 10.1508
  2254G12c C01F41806   6.010   2.851   2.348  0.8658 -0.4779  1.0962
  2254G12c C01G41807   6.074   2.973   2.353 -1.7341 -0.1035  1.3921
  2254G12c H00L41808   6.133   2.981   2.263 -2.1987  4.6185  1.3390
  2254G12c C01H41809   6.062   3.060   2.454  0.4988 -0.0492 -0.7479
  2254G12c H00B41810   6.047   3.161   2.422  2.1579 -0.8983 -4.4658
  2254G12c C01I41811   5.979   3.033   2.567 -0.8487  1.0659 -0.2842
  2254G12c C01U41812   5.970   2.818   2.477  0.4919  1.0084 -0.2918
  2254G12c C00S41813   5.456   2.655   2.628  0.0195 -1.2183  1.9114
  2254G12c C00K41814   5.589   2.786   2.757  0.0833  0.7777  0.2083
  2254G12c C00N41815   5.863   2.728   2.490 -0.6189 -1.3746  1.3273
  2254G12c C00041816   5.961   2.900   2.582  0.7023 -1.3710  2.2720
  2254G12c C01J41817   5.882   3.092   2.678  1.5350  0.4107  1.3870
  2254G12c C01K41818   5.847   3.228   2.651  1.7950 -0.5465 -0.9206
  2254G12c C01P41819   5.942   3.354   2.639  0.8709 -2.2013  0.2171
  2254G12c C01Q41820   6.079   3.319   2.639  0.4743  0.8159  0.1367
  2254G12c H00G41821   6.122   3.301   2.541 -8.8082 -0.0795 -4.3080
  2254G12c C01R41822   6.172   3.297   2.744 -0.5861  1.6482  1.3292
  2254G12c H00F41823   6.132   3.308   2.843 -3.0840  4.4200  0.1107
  2254G12c C01S41824   6.329   3.313   2.722  0.4558  1.8915  1.4242
  2254G12c H00E41825   6.365   3.228   2.781 -2.3976  0.6561  1.4933
  2254G12c H00D41826   6.353   3.301   2.617  3.3835  4.7640  1.7035
  2254G12c O00541827   6.339   3.442   2.762 -1.2890  0.8322  1.5362
  2254G12c H00C41828   6.306   3.506   2.701  0.6014  0.5019  0.1314
  2254G12c C01O41829   5.894   3.483   2.631 -1.4545 -0.7751  2.1077
  2254G12c H00H41830   5.950   3.576   2.625 -3.7938  0.7467  3.4022
  2254G12c C01N41831   5.752   3.481   2.647  0.3630  0.6002 -1.0082
  2254G12c O00641832   5.690   3.595   2.635  1.1448 -0.1359 -1.5424
  2254G12c C01T41833   5.673   3.684   2.512  0.1324 -0.3912 -0.7190
  2254G12c H00K41834   5.570   3.673   2.478 -2.1507 -5.5589  6.6230
  2254G12c H00J41835   5.695   3.788   2.538  0.4888 -0.7885  0.5926
  2254G12c H00I41836   5.763   3.691   2.450  1.4275 -1.8425  0.9564
  2254G12c C01M41837   5.666   3.375   2.677 -0.9412 -1.6969  0.1836
  2254G12c C02041838   5.580   2.922   2.817  1.0067  0.2650  0.9340
  2254G12c C02141839   5.473   2.981   2.871 -0.6373  0.4543  0.1544
  2254G12c C01L41840   5.718   3.246   2.702 -0.3905 -0.9576  0.8574
  2254G12c O00741841   5.548   3.406   2.739  0.4106 -0.3012  0.2172
  2254G12c C02241842   5.449   3.111   2.913  0.5087 -1.0792  0.6207
  2254G12c C02341843   5.340   2.903   2.860 -1.3908 -0.2677  0.6588
  2254G12c C00G41844   5.114   2.833   2.742 -0.0007  0.5368 -2.1023
  2254G12c C00E41845   4.866   2.848   2.753 -0.0818 -0.0349  0.6845
  2254G12c O00A41846   4.746   2.792   2.757 -0.4726 -0.9629 -0.8581
  2254G12c C02441847   4.698   2.750   2.885 -0.3420  0.6917 -0.8352
  2254G12c H00V41848   4.772   2.797   2.950 -3.0826  2.8443  0.7900
  2254G12c H00U41849   4.700   2.641   2.889 -6.1303  0.4840  1.4001
  2254G12c H00T41850   4.605   2.789   2.927 -0.9250 -3.3678  1.9474
  2264G12c C00D41851   6.642   5.072   1.938 -1.0513 -0.6937  0.4198
  2264G12c O00B41852   6.761   5.146   1.958  0.1168 -1.0166  0.3477
  2264G12c C02541853   6.772   5.273   1.983 -0.0512  0.1195  2.6737
  2264G12c C02641854   6.645   5.361   1.964  0.3584 -1.9357  0.3512
  2264G12c H00Y41855   6.611   5.317   1.871 -2.6102  1.6583 -0.3857
  2264G12c H00X41856   6.664   5.449   1.903  2.3940 -2.3744  0.3226
  2264G12c O00C41857   6.557   5.379   2.071  0.6469 -1.1332  0.9897
  2264G12c H00W41858   6.582   5.317   2.138  0.4187  0.0743  2.2181
  2264G12c C02741859   6.880   5.308   2.057  0.3759 -0.6299 -0.3036
  2264G12c O00D41860   6.974   5.211   2.082  0.9926  0.1977  0.7517
  2264G12c H00Z41861   6.940   5.153   2.015  2.1653 -0.3791  0.6425
  2264G12c C02841862   6.886   5.439   2.127 -0.0695  0.9883  0.5474
  2264G12c C02941863   6.962   5.566   2.099  0.0744  0.3612 -0.0701
  2264G12c H01041864   7.012   5.579   2.004 -4.1864 -4.4348 -3.2439
  2264G12c C02T41865   6.977   5.686   2.177 -0.2660 -1.3579 -0.1805
  2264G12c H01O41866   7.033   5.756   2.117 -1.6315 -1.6745 -1.8569
  2264G12c C02S41867   6.910   5.692   2.302  0.1786  0.6374  2.8117
  2264G12c O00J41868   6.915   5.806   2.369 -0.6606 -0.7639 -0.7809
  2264G12c H01P41869   6.823   5.826   2.374 -0.4104 -0.1931  2.1971
  2264G12c C02R41870   6.841   5.570   2.330 -1.2165 -1.4807 -0.4625
  2264G12c O00I41871   6.768   5.574   2.463 -0.3528 -1.3746  0.0811
  2264G12c C02Q41872   6.671   5.486   2.496  2.3397  1.5168  0.6373
  2264G12c H01N41873   6.677   5.474   2.604 -3.9099  5.3403  1.6685
  2264G12c H01R41874   6.580   5.539   2.466 -0.3886 -1.7510  2.6753
  2264G12c H01Q41875   6.653   5.386   2.455  1.1749  2.3608 -1.0045
  2264G12c C02A41876   6.814   5.455   2.254  1.2642  0.8767 -1.7784
  2264G12c H01141877   6.749   5.374   2.283 -4.3350  5.4506 -0.6972
  2264G12c C00C41878   6.621   4.973   1.838  0.7025 -0.6531 -1.1606
  2264G12c H01241879   6.695   4.951   1.763 -0.5793  1.8087 -3.2311
  2264G12c C00B41880   6.514   4.876   1.881 -1.3464 -0.2840 -0.8814
  2264G12c C00A41881   6.500   4.756   1.807  0.2731  0.0357 -0.7219
  2264G12c C00941882   6.525   4.743   1.669  0.2436  0.3467  0.0248
  2264G12c C00841883   6.560   4.833   1.563  0.0770  1.4040 -0.1438
  2264G12c H01341884   6.570   4.940   1.571 -3.6099  1.6058  3.6195
  2264G12c C00741885   6.498   4.815   1.443 -1.3264  0.6694  1.6506
  2264G12c H01441886   6.504   4.873   1.352 -1.2357  1.6784  2.2969
  2264G12c C00641887   6.403   4.709   1.415 -2.3414  0.8432  0.3127
  2264G12c C00541888   6.392   4.624   1.521 -1.3356 -0.7745 -0.3639
  2264G12c C00441889   6.279   4.534   1.526 -1.0163  1.3041 -0.6353
  2264G12c C00341890   6.260   4.448   1.644  0.9171  0.5065  1.0403
  2264G12c C00241891   6.148   4.357   1.647  1.3278 -0.2124 -1.0775
  2264G12c C00141892   6.103   4.256   1.739 -0.5923 -0.3574  0.4183
  2264G12c C00M41893   6.061   4.288   1.878  1.2958  1.0024  0.8777
  2264G12c C00L41894   6.115   4.403   1.933 -0.1735  0.1251 -0.2070
  2264G12c C00R41895   6.088   4.450   2.057  1.0633 -0.4000  0.5656
  2264G12c C00Q41896   5.964   4.457   2.133 -0.4554  0.7418 -0.3392
  2264G12c C00V41897   5.973   4.559   2.232 -0.4280  1.2806 -0.1695
  2264G12c C00U41898   6.063   4.661   2.234  1.5516 -1.5238 -0.6299
  2264G12c C00T41899   6.168   4.672   2.149  0.0619 -0.3986  0.4700
  2264G12c C01641900   6.271   4.762   2.137 -1.0150 -1.8460 -1.0403
  2264G12c C01541901   6.261   4.873   2.217  0.5159 -0.2245  0.1087
  2264G12c C01041902   6.147   4.874   2.302 -0.4250  0.4706 -0.8994
  2264G12c C01141903   6.133   4.993   2.378  0.4268 -1.0985  1.9446
  2264G12c H00541904   6.095   5.005   2.479  8.5174  4.0683  4.9285
  2264G12c C01241905   6.214   5.104   2.343 -2.2141 -0.0695 -0.5912
  2264G12c C01741906   6.190   5.249   2.391  0.4294  0.0781 -0.6200
  2264G12c O00241907   6.211   5.292   2.511  1.1139 -0.7386  0.5453
  2264G12c H00441908   6.214   5.383   2.536  5.6137 -1.2971  2.5198
  2264G12c C01841909   6.118   5.322   2.298  2.5543  0.8037 -1.1559
  2264G12c O00141910   6.079   5.275   2.175 -0.2344  0.4630 -0.1608
  2264G12c H00341911   6.157   5.225   2.194  3.5280  4.4734 -3.8471
  2264G12c C01941912   6.062   5.471   2.330 -0.6808  1.7362  2.1695
  2264G12c H00241913   6.003   5.494   2.241 -0.6244 -6.1121 -0.2963
  2264G12c H00141914   5.990   5.458   2.411 -4.2764  1.1553 -0.9258
  2264G12c O00041915   6.177   5.543   2.349  0.8554 -0.2318 -0.1954
  2264G12c C01A41916   6.212   5.616   2.238 -2.1498 -0.6757  0.1215
  2264G12c C02K41917   6.101   5.704   2.186 -1.4433 -1.9867 -1.1329
  2264G12c O00G41918   5.982   5.752   2.258  0.3420  1.0601 -1.3179
  2264G12c C02M41919   5.868   5.727   2.177 -0.1218 -1.0923  0.1603
  2264G12c H01G41920   5.822   5.822   2.149 -2.8094 -1.7244  2.1953
  2264G12c H01F41921   5.873   5.665   2.088  1.2838  0.3562 -0.7951
  2264G12c H01E41922   5.799   5.687   2.251 -1.7229  2.5829  0.7903
  2264G12c C02J41923   6.123   5.742   2.042 -0.1262 -1.8471  0.7812
  2264G12c H01H41924   6.042   5.799   1.999 -2.0261 -4.4098  0.8454
  2264G12c C02I41925   6.245   5.766   1.983  1.4721  0.9196 -1.3076
  2264G12c C02N41926   6.272   5.835   1.857 -0.6280  0.1566  1.1016
  2264G12c H01M41927   6.317   5.788   1.771 -1.6967 -3.4903  2.4209
  2264G12c C02O41928   6.256   5.967   1.865 -0.8451  1.5334  0.4158
  2264G12c H01L41929   6.215   6.021   1.949 -1.6904  1.2762  0.1691
  2264G12c C02P41930   6.306   6.065   1.763 -0.4481  1.6910  1.4335
  2264G12c H01K41931   6.333   6.159   1.812 -3.5899  3.4747 -0.0880
  2264G12c H01J41932   6.399   6.027   1.720  0.6855  2.7313  2.8698
  2264G12c O00H41933   6.224   6.099   1.669  0.2180  0.2478  0.2984
  2264G12c H01I41934   6.217   6.041   1.594 -3.1325 -3.9088  3.5689
  2264G12c C02H41935   6.358   5.697   2.047  0.5895  1.1172  0.7743
  2264G12c H01C41936   6.458   5.717   2.011  0.2998  5.1933  1.9960
  2264G12c C02L41937   6.334   5.598   2.164 -0.1929  1.0296 -0.0798
  2264G12c H01D41938   6.406   5.532   2.209 -2.1664  1.7426  4.3277
  2264G12c C01341939   6.343   5.103   2.278  1.7978 -0.5048  0.4555
  2264G12c H00041940   6.425   5.172   2.266  2.2739 -1.2861 -0.9545
  2264G12c C01441941   6.357   4.982   2.195 -1.8008  1.6754  0.8735
  2264G12c C00F41942   6.435   4.995   2.072  0.2839  0.3268 -1.3470
  2264G12c C00H41943   6.350   4.774   2.027 -1.7995 -1.5530 -1.4205
  2264G12c C00I41944   6.362   4.662   1.962  1.1482  1.5865 -0.3287
  2264G12c C00J41945   6.299   4.543   2.006  1.2310  0.5150 -0.5330
  2264G12c C00Z41946   6.050   4.772   2.320 -0.5398 -0.0164  1.0128
  2264G12c C00Y41947   5.966   4.772   2.438  1.0738 -1.5680  0.7420
  2264G12c H00641948   5.962   4.844   2.519  3.7792 -2.0875  1.3671
  2264G12c C00X41949   5.865   4.675   2.433  1.0335  1.1437 -1.9039
  2264G12c O00341950   5.765   4.675   2.527 -0.0982 -0.7096  0.6691
  2264G12c C01B41951   5.813   4.649   2.669 -1.5142 -1.3779  0.4432
  2264G12c H00941952   5.717   4.661   2.719 -2.0498  0.9704 -1.0517
  2264G12c H00841953   5.883   4.728   2.697 -3.4172 -0.9062  4.2366
  2264G12c H00741954   5.827   4.550   2.711  2.7023  0.6631  4.3553
  2264G12c C00W41955   5.865   4.567   2.333 -0.6697 -0.5936  1.4314
  2264G12c O00441956   5.758   4.479   2.336 -0.3545 -0.5712 -1.4276
  2264G12c C01C41957   5.751   4.391   2.235 -0.6966  0.7346  0.1788
  2264G12c H00A41958   5.697   4.299   2.255  1.0077  0.4023  3.6635
  2264G12c C00P41959   5.857   4.380   2.125 -1.8383  0.1199  1.3017
  2264G12c C00O41960   5.830   4.296   1.996  0.3794 -0.0600  0.3722
  2264G12c C01D41961   5.690   4.296   1.965 -1.1979 -0.8132 -0.8797
  2264G12c H00S41962   5.606   4.320   2.029 -2.4213 -3.5785 -1.3637
  2264G12c C01E41963   5.647   4.289   1.829  1.3576 -1.0212 -1.1394
  2264G12c O00841964   5.515   4.318   1.795  0.2670  0.7755 -0.1864
  2264G12c C01V41965   5.388   4.276   1.841  0.5012 -1.6936  1.4493
  2264G12c C01Z41966   5.297   4.388   1.836 -1.0886  0.4383  0.3226
  2264G12c H00R41967   5.293   4.432   1.935  1.9512 -1.9705  1.6043
  2264G12c H00Q41968   5.323   4.473   1.772  1.6524  0.1895  1.0372
  2264G12c O00941969   5.172   4.346   1.777 -0.5639 -0.2935 -1.1896
  2264G12c H00P41970   5.157   4.377   1.689  1.9490 -3.3496 -2.8026
  2264G12c C01W41971   5.361   4.142   1.875 -1.1604  1.6860  1.2792
  2264G12c H00O41972   5.263   4.153   1.920 -0.2143  2.1410  3.2997
  2264G12c C01X41973   5.434   4.015   1.791 -1.2195 -1.3077  1.1436
  2264G12c H00N41974   5.359   3.951   1.745 -1.5674  1.2584 -2.1084
  2264G12c H00M41975   5.466   4.070   1.703 -0.8635 -1.2071  1.3367
  2264G12c C01Y41976   5.511   3.949   1.890 -0.4061 -2.2348 -0.7342
  2264G12c C02D41977   5.425   3.900   1.997  0.6886 -0.2178  1.1235
  2264G12c H01941978   5.321   3.930   2.007  1.2456  3.1187 -2.0621
  2264G12c C02C41979   5.493   3.866   2.116  0.6201  0.4745  0.3393
  2264G12c H01A41980   5.460   3.842   2.216  2.6770  0.0216  0.9215
  2264G12c C02B41981   5.637   3.889   2.113 -0.0708 -0.7330  1.5317
  2264G12c O00E41982   5.728   3.893   2.213 -1.7345  0.6759  0.3483
  2264G12c H01B41983   5.808   3.893   2.162  0.9493  5.2317  4.0626
  2264G12c C02F41984   5.711   3.902   1.997  0.6565  1.7028 -0.2120
  2264G12c O00F41985   5.838   3.852   2.003  0.1278  0.5941 -0.5754
  2264G12c C02G41986   5.918   3.864   1.890 -1.3401  1.4974 -1.5140
  2264G12c H01741987   5.912   3.970   1.866  4.2599  2.2148 -0.3012
  2264G12c H01641988   6.015   3.815   1.891 -3.1233 -2.2128 -2.1745
  2264G12c H01541989   5.868   3.795   1.821 -4.3946 -0.4794  2.4207
  2264G12c C02E41990   5.647   3.957   1.900 -0.3731 -0.5937  0.1835
  2264G12c H01841991   5.700   3.988   1.811 -6.3506  0.2090 -3.3486
  2264G12c C01F41992   5.740   4.261   1.728 -1.2007  0.8222 -0.2887
  2264G12c C01G41993   5.713   4.308   1.587  0.1190  1.5336 -2.8228
  2264G12c H00L41994   5.624   4.369   1.572 -2.7330 -1.0470  2.0342
  2264G12c C01H41995   5.814   4.294   1.493  0.4715 -0.4720  1.0396
  2264G12c H00B41996   5.805   4.357   1.406 -2.0408 -0.8577  0.9796
  2264G12c C01I41997   5.953   4.273   1.543 -0.2412  3.1623  0.0841
  2264G12c C01U41998   5.871   4.203   1.761  1.1161 -1.7480  0.5855
  2264G12c C00S41999   6.186   4.551   2.083 -1.9569 -0.0933  0.6337
  2264G12c C00K42000   6.241   4.454   1.905  1.5756  0.3335 -1.1128
  2264G12c C00N42001   5.921   4.257   1.894 -0.2003  2.4054 -0.3889
  2264G12c C00042002   5.983   4.208   1.676  0.5379 -0.6357 -1.0449
  2264G12c C01J42003   6.079   4.340   1.524 -1.6132 -0.2448 -1.1498
  2264G12c C01K42004   6.096   4.429   1.399 -1.9067  0.7397  0.2836
  2264G12c C01P42005   6.060   4.405   1.267  0.2403 -1.2672  1.3229
  2264G12c C01Q42006   6.008   4.279   1.238  0.2182 -0.8767  0.9737
  2264G12c H00G42007   5.905   4.264   1.265 -2.2249  6.9733 -2.4210
  2264G12c C01R42008   6.043   4.227   1.118  0.9745 -0.1895 -1.1989
  2264G12c H00F42009   5.984   4.137   1.121  2.5658 -1.2493  4.9490
  2264G12c C01S42010   6.172   4.245   1.029 -0.3493  0.2821  0.7200
  2264G12c H00E42011   6.215   4.302   1.111  3.3714  0.0401 -0.9434
  2264G12c H00D42012   6.220   4.148   1.040  1.8808  0.6249 -4.3726
  2264G12c O00542013   6.162   4.312   0.896 -0.0756 -1.3470  0.2181
  2264G12c H00C42014   6.090   4.269   0.852  0.1859  1.2115 -2.8734
  2264G12c C01O42015   6.076   4.509   1.160  0.1568  0.1230  0.9124
  2264G12c H00H42016   6.041   4.498   1.059  4.6427  0.8437 -0.8210
  2264G12c C01N42017   6.168   4.606   1.187  1.6970 -1.7171  0.0417
  2264G12c O00642018   6.169   4.724   1.104  0.2655  0.7125  0.8995
  2264G12c C01T42019   6.072   4.773   1.004 -0.6865 -0.4661  0.2841
  2264G12c H00K42020   6.041   4.869   1.046  0.9587 -0.2747  1.0822
  2264G12c H00J42021   5.985   4.720   0.965 -2.3997  2.5314 -0.1737
  2264G12c H00I42022   6.106   4.766   0.901  2.1655  6.9027  0.4264
  2264G12c C01M42023   6.234   4.617   1.306  0.7195 -0.4006 -1.2354
  2264G12c C02042024   6.321   4.468   1.776 -0.1318  1.2047 -0.8810
  2264G12c C02142025   6.428   4.558   1.754 -0.2454 -0.3472 -1.8315
  2264G12c C01L42026   6.196   4.530   1.416  0.6474  0.7657 -1.6743
  2264G12c O00742027   6.317   4.730   1.309 -0.2682  1.8273  0.6945
  2264G12c C02242028   6.474   4.605   1.637  0.5734  0.9113  0.1758
  2264G12c C02342029   6.425   4.661   1.839 -0.5500  1.7124 -2.2672
  2264G12c C00G42030   6.433   4.873   1.995  1.1226 -1.3169  0.8613
  2264G12c C00E42031   6.555   5.074   2.052  1.3145  0.9008 -0.6393
  2264G12c O00A42032   6.607   5.145   2.149  0.3593  0.7026 -1.5441
  2264G12c C02442033   6.684   5.081   2.240 -1.5398 -0.3158 -1.0513
  2264G12c H00V42034   6.785   5.099   2.205  0.3316 -1.1620  3.4872
  2264G12c H00U42035   6.653   4.978   2.260  0.6330 -0.6465  0.7643
  2264G12c H00T42036   6.705   5.137   2.331  6.6254 -1.9941 -1.5942
  2274G12c C00D42037   3.641   7.731  12.268 -0.7046 -0.6505 -0.2501
  2274G12c O00B42038   3.771   7.750  12.215 -0.7737  1.7986  0.4746
  2274G12c C02542039   3.845   7.866  12.258 -0.3078 -0.6898 -0.0502
  2274G12c C02642040   3.985   7.801  12.265  0.0475 -0.8988  1.7138
  2274G12c H00Y42041   4.055   7.882  12.242  7.4353 -6.9673  0.6061
  2274G12c H00X42042   4.012   7.723  12.194 -3.4851 -0.1405 -0.5867
  2274G12c O00C42043   4.005   7.780  12.397  0.3011  0.4720 -0.0271
  2274G12c H00W42044   3.969   7.696  12.422  3.0478 -1.2145 -1.5626
  2274G12c C02742045   3.811   7.995  12.302 -1.8664  0.4337 -2.0586
  2274G12c O00D42046   3.914   8.074  12.381  1.0526 -0.8837  0.0860
  2274G12c H00Z42047   3.958   8.019  12.444 -2.1162 -3.1313  0.4536
  2274G12c C02842048   3.699   8.059  12.256  0.9394 -0.2103 -0.1853
  2274G12c C02942049   3.688   8.109  12.126 -0.0066  0.9857 -1.8921
  2274G12c H01042050   3.758   8.090  12.046  0.0151  0.6000 -1.7824
  2274G12c C02T42051   3.557   8.153  12.080  0.9863  1.7339 -0.7866
  2274G12c H01O42052   3.543   8.158  11.973 -0.8943  2.3112 -0.5350
  2274G12c C02S42053   3.435   8.154  12.171  0.9774  1.8421  0.3169
  2274G12c O00J42054   3.358   8.267  12.150 -0.4433 -0.1432  0.8503
  2274G12c H01P42055   3.329   8.301  12.234 -5.2061 -1.2641 -0.2293
  2274G12c C02R42056   3.457   8.107  12.298  0.7556  0.7766  1.3712
  2274G12c O00I42057   3.348   8.110  12.381  0.2481  0.9054 -0.1884
  2274G12c C02Q42058   3.354   8.054  12.503 -1.0806 -0.6567  2.1024
  2274G12c H01N42059   3.410   8.123  12.567  0.0035 -2.5691  3.2799
  2274G12c H01R42060   3.414   7.964  12.516 -2.0922 -1.6263  0.3057
  2274G12c H01Q42061   3.272   8.014  12.563 -2.3067  1.9814  2.2765
  2274G12c C02A42062   3.594   8.070  12.351  0.8688  0.0883 -0.9888
  2274G12c H01142063   3.617   8.074  12.456  0.5485  2.4735 -0.9742
  2274G12c C00C42064   3.534   7.774  12.189 -1.0840 -0.5170 -1.4550
  2274G12c H01242065   3.573   7.793  12.090  1.7360  0.7065 -0.1600
  2274G12c C00B42066   3.395   7.768  12.237  1.5550  0.0675 -0.9967
  2274G12c C00A42067   3.268   7.767  12.155 -1.6342  0.1389 -0.7379
  2274G12c C00942068   3.248   7.849  12.045  0.3189  1.4707  0.4836
  2274G12c C00842069   3.337   7.923  11.946  1.1939  0.0924 -1.4870
  2274G12c H01342070   3.425   7.860  11.951  0.4882 -0.8066 -0.0777
  2274G12c C00742071   3.271   8.024  11.878  0.1844 -1.2272  1.2966
  2274G12c H01442072   3.335   8.059  11.799  3.6187 -0.3060  4.3537
  2274G12c C00642073   3.155   8.091  11.927 -0.7141 -0.5032  0.4898
  2274G12c C00542074   3.080   8.010  11.993  1.2566  1.7300 -1.0014
  2274G12c C00442075   2.969   8.065  12.049 -1.4517  0.1329 -0.5797
  2274G12c C00342076   2.895   7.989  12.157  0.6375  1.6252  0.5934
  2274G12c C00242077   2.787   8.054  12.214  2.2910 -0.3822 -1.6413
  2274G12c C00142078   2.695   8.010  12.326  1.0531 -1.4418  0.9421
  2274G12c C00M42079   2.741   7.954  12.449  1.5079  0.4971  0.0078
  2274G12c C00L42080   2.837   7.858  12.478  1.1436 -1.6420 -0.4765
  2274G12c C00R42081   2.906   7.822  12.606 -0.1784  0.7602  1.4407
  2274G12c C00Q42082   2.883   7.871  12.738  0.1689 -0.0499  0.1188
  2274G12c C00V42083   2.993   7.824  12.821 -0.7668  0.4139 -1.6307
  2274G12c C00U42084   3.110   7.778  12.775 -0.6168 -0.4382  0.5572
  2274G12c C00T42085   3.134   7.749  12.640 -1.5188 -1.0511 -0.6265
  2274G12c C01642086   3.248   7.704  12.573 -1.0303  0.1121  0.5506
  2274G12c C01542087   3.354   7.690  12.660 -0.6065 -0.6706  1.3649
  2274G12c C01042088   3.337   7.721  12.798  0.5052 -0.1690 -0.3006
  2274G12c C01142089   3.454   7.734  12.871 -1.4135 -1.4810 -1.3177
  2274G12c H00542090   3.437   7.762  12.974  0.5379  0.8297 -1.5759
  2274G12c C01242091   3.596   7.737  12.812  1.3770  0.5000  2.6241
  2274G12c C01742092   3.713   7.804  12.859 -0.7294  0.6333  0.1040
  2274G12c O00242093   3.783   7.723  12.941  0.1927  0.8936 -1.6896
  2274G12c H00442094   3.828   7.792  12.987  5.4085 -2.4397 -1.4470
  2274G12c C01842095   3.748   7.938  12.839 -0.8909  0.2843  0.6605
  2274G12c O00142096   3.866   7.977  12.904  0.0123  0.0937  0.4707
  2274G12c H00342097   3.854   8.069  12.918 -3.0103  0.1035 -1.7915
  2274G12c C01942098   3.708   8.043  12.751  0.2896  0.7685 -1.9503
  2274G12c H00242099   3.784   8.068  12.677 -2.1299  0.3396 -4.6775
  2274G12c H00142100   3.623   7.991  12.707 -1.6291  3.6112 -1.6815
  2274G12c O00042101   3.671   8.134  12.847  0.8727  0.8981 -0.1277
  2274G12c C01A42102   3.690   8.263  12.815 -0.0445  0.0583  0.4608
  2274G12c C02K42103   3.587   8.354  12.843 -2.5716 -1.0735  0.3407
  2274G12c O00G42104   3.474   8.328  12.907 -0.7585 -1.6875 -0.5215
  2274G12c C02M42105   3.384   8.236  12.860  1.2358  0.3364  0.5420
  2274G12c H01G42106   3.414   8.181  12.772 -3.2381 -1.6299  0.0954
  2274G12c H01F42107   3.278   8.245  12.888  1.2042 -0.8862  0.8350
  2274G12c H01E42108   3.414   8.153  12.924 -0.3366 -2.6313 -2.4596
  2274G12c C02J42109   3.599   8.496  12.797  1.6006  0.9131  1.1654
  2274G12c H01H42110   3.502   8.544  12.803 -0.1754 -2.2300 -1.1862
  2274G12c C02I42111   3.715   8.544  12.718  1.0658  0.3744  0.7006
  2274G12c C02N42112   3.705   8.671  12.676 -0.3554 -0.8848  0.0455
  2274G12c H01M42113   3.722   8.677  12.570  0.2812 -5.7315 -0.2297
  2274G12c C02O42114   3.689   8.783  12.753  0.4608 -0.5997  0.1624
  2274G12c H01L42115   3.660   8.776  12.857 -5.9661  1.0350 -1.3185
  2274G12c C02P42116   3.693   8.921  12.702  0.0615  0.5602 -0.4296
  2274G12c H01K42117   3.607   8.975  12.741 -3.4444 -5.2572  0.5434
  2274G12c H01J42118   3.782   8.965  12.747 -1.2562  0.2672  2.5613
  2274G12c O00H42119   3.727   8.923  12.564 -0.9914  1.3265  0.2896
  2274G12c H01I42120   3.800   8.982  12.557  3.2396 -3.2506  2.5297
  2274G12c C02H42121   3.819   8.451  12.700  1.3192 -0.4480 -2.3448
  2274G12c H01C42122   3.924   8.464  12.675  3.4259 -3.9383  3.5061
  2274G12c C02L42123   3.801   8.304  12.720  1.5225  0.3437 -1.6822
  2274G12c H01D42124   3.896   8.253  12.713  1.4130  0.1215 -1.5627
  2274G12c C01342125   3.612   7.682  12.678 -0.3676  1.6151 -1.4734
  2274G12c H00042126   3.716   7.681  12.650 -0.2800  1.6274 -1.1468
  2274G12c C01442127   3.483   7.666  12.599 -1.0833 -0.4256  1.1547
  2274G12c C00F42128   3.487   7.682  12.454 -0.2915  0.7275  0.0205
  2274G12c C00H42129   3.259   7.719  12.435  0.0620 -0.1834  1.4804
  2274G12c C00I42130   3.150   7.734  12.354  2.4114 -0.9222 -0.3517
  2274G12c C00J42131   3.028   7.752  12.420 -3.7337  0.7801  0.1253
  2274G12c C00Z42132   3.213   7.750  12.861  0.9631  0.1799  0.2862
  2274G12c C00Y42133   3.192   7.780  12.997  1.3141 -0.2806  0.0697
  2274G12c H00642134   3.269   7.751  13.068 -1.1587 -0.7754  2.6609
  2274G12c C00X42135   3.064   7.811  13.044 -0.5759  1.1181 -0.1540
  2274G12c O00342136   3.028   7.818  13.184 -0.3837 -0.7910  0.8911
  2274G12c C01B42137   2.992   7.950  13.238  0.1683 -0.0801 -0.5404
  2274G12c H00942138   2.925   8.004  13.171  3.1275 -0.3074 -3.8295
  2274G12c H00842139   3.082   8.009  13.221 -0.7948  0.1654 -5.7452
  2274G12c H00742140   2.952   7.945  13.339 -7.0669 -5.6873 -3.2149
  2274G12c C00W42141   2.957   7.809  12.963  0.6716 -1.6335 -0.2496
  2274G12c O00442142   2.833   7.845  13.010  0.2564 -0.0853  0.0395
  2274G12c C01C42143   2.754   7.939  12.947 -0.3389 -0.4816  0.2858
  2274G12c H00A42144   2.751   8.029  13.007  0.8384  2.8610 -4.3814
  2274G12c C00P42145   2.775   7.946  12.800 -0.1067 -0.8547 -0.7295
  2274G12c C00O42146   2.719   8.042  12.709  0.1949 -0.7839  0.8191
  2274G12c C01D42147   2.690   8.169  12.777  1.2526  1.6255 -0.3986
  2274G12c H00S42148   2.703   8.184  12.883 -0.1052 -2.3328  0.4301
  2274G12c C01E42149   2.631   8.271  12.698 -0.5916  0.6884  0.1133
  2274G12c O00842150   2.611   8.393  12.751 -1.0981 -1.8423 -0.9328
  2274G12c C01V42151   2.724   8.471  12.785  1.0013 -0.9203 -0.1879
  2274G12c C01Z42152   2.733   8.474  12.937  0.2078  0.4578 -0.3521
  2274G12c H00R42153   2.665   8.533  12.998 -3.4761  2.3247 -5.8881
  2274G12c H00Q42154   2.716   8.375  12.979  1.4933  0.6752  0.7039
  2274G12c O00942155   2.871   8.517  12.996  0.7031  0.3738 -0.6973
  2274G12c H00P42156   2.865   8.608  12.969 -4.0223  0.2263 -0.6054
  2274G12c C01W42157   2.799   8.543  12.692  1.1085  0.8589 -0.5886
  2274G12c H00O42158   2.757   8.536  12.593  1.0702  5.1898 -0.9736
  2274G12c C01X42159   2.908   8.635  12.711 -0.3804  0.9373  0.9835
  2274G12c H00N42160   2.852   8.725  12.685  0.0116  1.8896  3.3238
  2274G12c H00M42161   2.934   8.648  12.816 -0.7517  3.5476  0.7797
  2274G12c C01Y42162   3.034   8.611  12.638  0.0009  0.8445 -0.5414
  2274G12c C02D42163   3.127   8.714  12.615  0.1353  1.4690  1.3268
  2274G12c H01942164   3.138   8.800  12.679 -2.6011  1.4378  1.9144
  2274G12c C02C42165   3.238   8.678  12.538 -0.6483  0.0951 -1.4321
  2274G12c H01A42166   3.313   8.755  12.528 -1.5359  1.2043  0.3060
  2274G12c C02B42167   3.245   8.566  12.445  0.3788  0.1750 -0.0413
  2274G12c O00E42168   3.370   8.525  12.421 -0.0834  0.6677  0.4589
  2274G12c H01B42169   3.343   8.465  12.354 -2.5956 -1.3169  3.0997
  2274G12c C02F42170   3.135   8.479  12.454  0.2791  0.7691 -0.0170
  2274G12c O00F42171   3.125   8.364  12.399 -1.0310 -0.7179  0.1959
  2274G12c C02G42172   3.012   8.291  12.365  0.4124  0.9208  1.9209
  2274G12c H01742173   2.952   8.245  12.443 -1.5803  2.2215  1.1912
  2274G12c H01642174   3.026   8.230  12.276  2.0768  1.2616  1.9224
  2274G12c H01542175   2.940   8.369  12.340 -6.2818 -4.2433  3.5906
  2274G12c C02E42176   3.032   8.495  12.547 -1.3768  0.9645 -0.6146
  2274G12c H01842177   2.953   8.422  12.554 -0.6580  0.3519  1.5556
  2274G12c C01F42178   2.619   8.269  12.553  0.4091 -0.6020 -1.7568
  2274G12c C01G42179   2.614   8.396  12.472  0.4690 -0.5392  0.5518
  2274G12c H00L42180   2.575   8.487  12.515  4.0699  0.7981  1.1408
  2274G12c C01H42181   2.631   8.354  12.331 -0.0501  0.9607 -2.1052
  2274G12c H00B42182   2.591   8.419  12.255  1.7834  1.1200 -2.9823
  2274G12c C01I42183   2.649   8.235  12.269 -1.0759 -0.9626 -1.9367
  2274G12c C01U42184   2.623   8.140  12.500 -1.1496  1.9866 -0.9037
  2274G12c C00S42185   3.025   7.773  12.562  0.7988 -0.3395 -1.0639
  2274G12c C00K42186   2.930   7.826  12.368 -0.4441 -1.0702 -0.0737
  2274G12c C00N42187   2.695   8.036  12.568 -0.0567 -0.0387  0.4954
  2274G12c C00042188   2.627   8.132  12.368 -0.5791  2.5447  1.1686
  2274G12c C01J42189   2.767   8.194  12.185  0.6641  0.5175 -0.7502
  2274G12c C01K42190   2.848   8.285  12.104  0.2287  0.1381  0.3062
  2274G12c C01P42191   2.850   8.428  12.060  0.9647  0.4979 -1.9297
  2274G12c C01Q42192   2.785   8.531  12.136  1.5567  0.1758 -1.1310
  2274G12c H00G42193   2.685   8.559  12.106  2.9460 -0.1002 -6.5335
  2274G12c C01R42194   2.841   8.638  12.185  1.5582 -0.1242  0.8332
  2274G12c H00F42195   2.948   8.637  12.180  1.4968 -3.5322 -6.4271
  2274G12c C01S42196   2.770   8.768  12.220  0.3719 -1.7027  1.5748
  2274G12c H00E42197   2.663   8.749  12.228  1.0972 -4.7255  5.4666
  2274G12c H00D42198   2.803   8.838  12.142 -2.2163 -0.0462  1.9151
  2274G12c O00542199   2.802   8.822  12.332  0.8982  0.3985  0.7572
  2274G12c H00C42200   2.772   8.764  12.400  8.9585 -1.8651  2.9435
  2274G12c C01O42201   2.919   8.481  11.960 -0.4543 -0.3250 -0.3895
  2274G12c H00H42202   2.910   8.588  11.949 -1.5882 -0.1950  1.6195
  2274G12c C01N42203   3.017   8.405  11.907 -0.4065  0.0894  0.0500
  2274G12c O00642204   3.094   8.466  11.829 -0.7002 -0.2658 -1.1270
  2274G12c C01T42205   3.231   8.512  11.861 -0.2711 -0.0190 -0.0328
  2274G12c H00K42206   3.282   8.527  11.766  0.7661  2.8078  0.9241
  2274G12c H00J42207   3.238   8.604  11.919  0.1809  0.6316 -1.1070
  2274G12c H00I42208   3.279   8.440  11.928 -3.0548  0.2567  2.3784
  2274G12c C01M42209   3.025   8.271  11.952  1.0519  0.9469  0.7465
  2274G12c C02042210   2.950   7.869  12.223 -0.4121  0.0043 -0.9439
  2274G12c C02142211   3.060   7.823  12.146 -1.0485 -1.0254  0.8342
  2274G12c C01L42212   2.930   8.200  12.019  1.3744 -0.8688 -0.5840
  2274G12c O00742213   3.141   8.221  11.897  1.6541  0.5974  0.3073
  2274G12c C02242214   3.114   7.884  12.043  0.5810  0.0804  0.8117
  2274G12c C02342215   3.155   7.741  12.219 -0.7090 -2.3994 -1.4330
  2274G12c C00G42216   3.381   7.719  12.370  0.7631  0.0544  0.4901
  2274G12c C00E42217   3.614   7.677  12.390 -2.7083 -0.4682 -0.3599
  2274G12c O00A42218   3.730   7.630  12.450 -1.1590 -0.0804  2.1170
  2274G12c C02442219   3.762   7.500  12.405 -0.2860  0.5913  0.8891
  2274G12c H00V42220   3.832   7.518  12.323 -0.8953 -2.3033 -0.2961
  2274G12c H00U42221   3.676   7.437  12.424 -0.2158 -0.9226 -3.3632
  2274G12c H00T42222   3.828   7.459  12.481  1.0792  2.3570  0.7013
  2284G12c C00D42223   5.100   0.400  12.518 -0.4124  1.1504 -1.0314
  2284G12c O00B42224   5.041   0.287  12.560  0.2435  0.1755  1.5954
  2284G12c C02542225   4.987   0.283  12.679  0.4987 -1.0262 -2.2628
  2284G12c C02642226   4.876   0.394  12.703 -0.3713 -0.8689  1.9171
  2284G12c H00Y42227   4.799   0.336  12.753 -1.4083  2.0007  3.7525
  2284G12c H00X42228   4.836   0.434  12.610  0.8030 -0.9775  1.3546
  2284G12c O00C42229   4.920   0.488  12.800  0.2812 -0.9731 -0.5597
  2284G12c H00W42230   4.859   0.502  12.871 -5.4335  1.4155 -5.4817
  2284G12c C02742231   5.020   0.197  12.774 -0.4265  0.5208 -0.0335
  2284G12c O00D42232   4.976   0.215  12.897 -1.0115  0.0886  1.3098
  2284G12c H00Z42233   4.948   0.304  12.880  3.5981  2.0343  3.1189
  2284G12c C02842234   5.105   0.075  12.755 -0.7031  0.6996 -0.3118
  2284G12c C02942235   5.063  -0.042  12.817 -0.8492  0.6619 -0.5110
  2284G12c H01042236   4.978  -0.024  12.881  0.3847 -3.8122  2.5677
  2284G12c C02T42237   5.113  -0.175  12.792  0.5985 -1.9182  0.9714
  2284G12c H01O42238   5.079  -0.270  12.831 -0.3666 -0.6529  3.2576
  2284G12c C02S42239   5.239  -0.178  12.731 -0.4390  0.5271 -0.5372
  2284G12c O00J42240   5.306  -0.291  12.714  0.2367 -1.3279  1.1777
  2284G12c H01P42241   5.397  -0.279  12.694  1.7121 -4.0580  5.4656
  2284G12c C02R42242   5.310  -0.051  12.701  0.8407  2.3653 -0.5081
  2284G12c O00I42243   5.442  -0.074  12.675  1.3653 -1.6475  0.2687
  2284G12c C02Q42244   5.519   0.049  12.671  0.4202  0.4720 -0.0420
  2284G12c H01N42245   5.500   0.091  12.770 -2.1018  1.4752 -0.9375
  2284G12c H01R42246   5.618   0.010  12.645 -0.3200 -1.4536 -0.0794
  2284G12c H01Q42247   5.493   0.133  12.607  0.6533  0.2446 -0.4381
  2284G12c C02A42248   5.234   0.066  12.695  0.8428 -0.1906  0.4371
  2284G12c H01142249   5.301   0.150  12.694  2.9124 -1.8141  0.4961
  2284G12c C00C42250   5.174   0.482  12.607 -1.0064  0.2530  0.3128
  2284G12c H01242251   5.161   0.474  12.714 -9.4192 -0.8446 -0.4331
  2284G12c C00B42252   5.282   0.559  12.563  0.8339  1.0991  1.2994
  2284G12c C00A42253   5.398   0.613  12.641  2.2134 -0.4750 -2.0390
  2284G12c C00942254   5.367   0.678  12.769  1.2636 -2.1937 -1.4842
  2284G12c C00842255   5.257   0.677  12.861 -0.4661  1.0716 -0.8583
  2284G12c H01342256   5.187   0.595  12.858  2.4532 -2.2169  6.9937
  2284G12c C00742257   5.215   0.784  12.945 -0.1392  0.2237 -0.2977
  2284G12c H01442258   5.128   0.783  13.010 -1.2748  1.5475 -1.7563
  2284G12c C00642259   5.285   0.909  12.934  0.6725 -0.9325 -0.3712
  2284G12c C00542260   5.397   0.912  12.839  0.1850 -0.9174 -1.0330
  2284G12c C00442261   5.449   1.038  12.792  0.7367  0.9165 -0.5615
  2284G12c C00342262   5.526   1.052  12.671  1.9625  1.8763  0.6463
  2284G12c C00242263   5.553   1.185  12.635  0.8623 -0.0466  0.8814
  2284G12c C00142264   5.654   1.237  12.542 -0.0862  0.4403 -2.1363
  2284G12c C00M42265   5.658   1.191  12.398  0.8945  0.0601  1.9750
  2284G12c C00L42266   5.616   1.054  12.361  0.7875  0.4705 -0.8755
  2284G12c C00R42267   5.557   1.013  12.236 -1.9849 -0.6620  1.8282
  2284G12c C00Q42268   5.542   1.078  12.109 -0.9274 -0.1489 -1.5701
  2284G12c C00V42269   5.471   0.991  12.031 -1.8506  2.1249 -0.0284
  2284G12c C00U42270   5.411   0.864  12.053 -0.9675  1.0002  0.8671
  2284G12c C00T42271   5.408   0.826  12.183  1.1265  0.2718  1.4172
  2284G12c C01642272   5.371   0.701  12.230 -0.1617  0.7089 -0.3115
  2284G12c C01542273   5.282   0.627  12.142 -0.3947  2.3661  3.0100
  2284G12c C01042274   5.271   0.677  12.007  0.5018  0.7033 -0.3628
  2284G12c C01142275   5.202   0.589  11.923 -0.4456  0.1810  0.2831
  2284G12c H00542276   5.193   0.621  11.820  4.3370 -0.7532 -0.5591
  2284G12c C01242277   5.166   0.448  11.951  1.3791  0.7055 -0.6142
  2284G12c C01742278   5.152   0.342  11.855 -0.7738 -0.6135 -0.3228
  2284G12c O00242279   5.016   0.318  11.834 -0.8310  0.4883 -0.3222
  2284G12c H00442280   4.951   0.386  11.819 -3.1181 -1.7347 -0.8646
  2284G12c C01842281   5.236   0.246  11.852 -0.7408 -0.2661  0.4273
  2284G12c O00142282   5.346   0.226  11.921  0.0055  0.9177  0.5850
  2284G12c H00342283   5.419   0.218  11.862  0.3404  2.0702  0.8430
  2284G12c C01942284   5.252   0.165  11.715  0.9827 -0.3550  1.3543
  2284G12c H00242285   5.178   0.086  11.710 -0.0127  0.7166 -3.0606
  2284G12c H00142286   5.242   0.222  11.623  1.3511  0.9446  2.0866
  2284G12c O00042287   5.386   0.131  11.709 -1.1810  0.6560 -0.7088
  2284G12c C01A42288   5.394   0.048  11.598  0.1397  1.3126 -1.5892
  2284G12c C02K42289   5.390   0.092  11.455  0.4041  1.3720 -1.7784
  2284G12c O00G42290   5.397   0.223  11.409  2.0869 -0.3471 -0.2937
  2284G12c C02M42291   5.447   0.324  11.499  0.1610 -0.6861 -1.6211
  2284G12c H01G42292   5.550   0.291  11.506  0.2447  0.2567  5.9885
  2284G12c H01F42293   5.399   0.354  11.593 -2.1978 -0.2839 -2.9264
  2284G12c H01E42294   5.406   0.411  11.448 -5.9908 -2.4648 -0.2007
  2284G12c C02J42295   5.390  -0.002  11.358 -0.4077  0.3019  0.6553
  2284G12c H01H42296   5.385   0.035  11.257 -0.7142 -2.0756 -0.2325
  2284G12c C02I42297   5.393  -0.138  11.385 -1.9293 -0.7999 -0.4012
  2284G12c C02N42298   5.401  -0.238  11.270  0.0634  0.7035 -1.3011
  2284G12c H01M42299   5.327  -0.312  11.242  2.2112 -4.0385  4.5131
  2284G12c C02O42300   5.515  -0.265  11.204  1.9407 -0.1182 -1.3219
  2284G12c H01L42301   5.514  -0.331  11.119  0.5461  1.3026 -2.4437
  2284G12c C02P42302   5.654  -0.207  11.205  0.7677 -0.3717 -0.7251
  2284G12c H01K42303   5.657  -0.104  11.242 -1.7529 -1.4575  2.8311
  2284G12c H01J42304   5.729  -0.261  11.261 -0.1960  1.8337  2.8688
  2284G12c O00H42305   5.679  -0.206  11.079  0.6226  0.7747 -0.5095
  2284G12c H01I42306   5.759  -0.169  11.044 -1.5595  3.1041 -3.1513
  2284G12c C02H42307   5.395  -0.175  11.517 -0.6478  0.3323  0.8473
  2284G12c H01C42308   5.391  -0.280  11.496  2.7894  0.3979 -0.4682
  2284G12c C02L42309   5.409  -0.088  11.621  0.9070 -1.8649 -0.2186
  2284G12c H01D42310   5.401  -0.147  11.712 -0.9489 -1.0425  0.1820
  2284G12c C01342311   5.171   0.420  12.098 -0.5114  1.4285  1.4966
  2284G12c H00042312   5.134   0.319  12.105  1.0777  0.4274 -3.1291
  2284G12c C01442313   5.217   0.515  12.191 -1.3406  1.4019  0.1108
  2284G12c C00F42314   5.231   0.484  12.324  0.5091 -0.2497 -0.0361
  2284G12c C00H42315   5.394   0.658  12.371 -0.4262 -0.7298  0.2676
  2284G12c C00I42316   5.473   0.739  12.448  2.2725 -0.0374  0.8409
  2284G12c C00J42317   5.539   0.848  12.381 -0.3533  0.8528  0.6485
  2284G12c C00Z42318   5.339   0.792  11.958 -1.2504 -1.1646  0.4364
  2284G12c C00Y42319   5.324   0.838  11.831  0.8802 -0.2425  0.7872
  2284G12c H00642320   5.241   0.814  11.767  2.8778 -0.0310 -1.9917
  2284G12c C00X42321   5.393   0.956  11.798 -0.9767 -2.2571 -0.5407
  2284G12c O00342322   5.379   1.008  11.664 -0.9696 -0.4607 -1.6243
  2284G12c C01B42323   5.483   0.965  11.586  0.0945 -0.4158  1.4230
  2284G12c H00942324   5.569   0.946  11.650  2.6985 -1.9519 -2.4154
  2284G12c H00842325   5.475   1.051  11.521 -1.3237  0.4040  2.6352
  2284G12c H00742326   5.457   0.877  11.527 -3.9510  1.5877  0.0283
  2284G12c C00W42327   5.471   1.024  11.894 -1.1978 -0.9806 -0.6600
  2284G12c O00442328   5.542   1.139  11.841 -1.9976 -0.8420  0.9585
  2284G12c C01C42329   5.555   1.242  11.927 -0.7868 -1.0582 -0.6236
  2284G12c H00A42330   5.579   1.336  11.880  1.4051  1.1434  4.4465
  2284G12c C00P42331   5.574   1.210  12.070  1.5076  0.2289  0.2440
  2284G12c C00O42332   5.593   1.317  12.171 -1.3049  0.3598  0.0310
  2284G12c C01D42333   5.559   1.444  12.133  0.2257 -0.2627  0.1039
  2284G12c H00S42334   5.515   1.468  12.037  6.6652 -3.3124 -3.9964
  2284G12c C01E42335   5.526   1.545  12.217  2.0206 -0.6753 -0.5975
  2284G12c O00842336   5.485   1.663  12.169 -0.0345  0.2139 -0.7566
  2284G12c C01V42337   5.602   1.755  12.162  0.8579 -1.0840  0.1192
  2284G12c C01Z42338   5.694   1.711  12.041 -0.0730 -0.6623 -0.7477
  2284G12c H00R42339   5.678   1.632  11.968  1.3611 -3.1117  1.5165
  2284G12c H00Q42340   5.679   1.778  11.956 -2.2521  2.1213  1.7587
  2284G12c O00942341   5.833   1.695  12.066 -1.3559  1.2655 -0.9396
  2284G12c H00P42342   5.823   1.742  12.147  1.6983  4.8101 -2.4480
  2284G12c C01W42343   5.618   1.854  12.254  2.1483  1.1642  1.7006
  2284G12c H00O42344   5.533   1.838  12.318  1.4787 -0.5317  0.4465
  2284G12c C01X42345   5.716   1.969  12.225 -0.1853 -0.9125  1.4785
  2284G12c H00N42346   5.716   1.981  12.117  1.6507 -1.5902  1.3782
  2284G12c H00M42347   5.690   2.059  12.282  8.1494 -0.7987  6.0071
  2284G12c C01Y42348   5.858   1.947  12.284  0.7942  0.3145  0.3201
  2284G12c C02D42349   5.978   1.965  12.217 -0.3187 -0.7863  0.2374
  2284G12c H01942350   5.970   1.999  12.115  1.1161  2.9932  1.2977
  2284G12c C02C42351   6.103   1.988  12.274 -0.3883  0.1628  1.0302
  2284G12c H01A42352   6.196   2.024  12.232 -2.0434 -0.9409 -3.8931
  2284G12c C02B42353   6.096   1.949  12.408 -0.1484 -1.3098  2.3544
  2284G12c O00E42354   6.207   1.933  12.475 -1.7695 -1.1923  0.2481
  2284G12c H01B42355   6.194   1.935  12.569 -4.8154 -0.4215 -0.1688
  2284G12c C02F42356   5.993   1.940  12.493 -1.3666  1.3720 -0.9259
  2284G12c O00F42357   6.014   1.908  12.630 -0.0299  0.7407  0.8335
  2284G12c C02G42358   5.910   1.826  12.690  0.2338 -0.7376 -0.4042
  2284G12c H01742359   5.859   1.759  12.621  0.1965 -4.2780  2.8346
  2284G12c H01642360   5.875   1.816  12.793 -6.0179 -0.9972 -2.3177
  2284G12c H01542361   5.980   1.747  12.718  5.2254  3.8574  0.9081
  2284G12c C02E42362   5.863   1.912  12.431  0.4366 -0.4685  1.1728
  2284G12c H01842363   5.769   1.870  12.464  1.0193 -2.7394  0.0501
  2284G12c C01F42364   5.543   1.516  12.361 -0.7441  0.0241  0.6352
  2284G12c C01G42365   5.462   1.587  12.458  0.5873  0.4631 -2.2470
  2284G12c H00L42366   5.388   1.661  12.431 -1.3029  0.6110  2.8869
  2284G12c C01H42367   5.463   1.530  12.593  0.5274 -0.3620  0.1159
  2284G12c H00B42368   5.411   1.591  12.665  3.6762 -1.3290  3.3748
  2284G12c C01I42369   5.508   1.405  12.619 -1.3055  0.3189 -0.7583
  2284G12c C01U42370   5.626   1.410  12.406  0.0980  0.2355 -0.3748
  2284G12c C00S42371   5.508   0.895  12.255  0.5080 -0.3195 -0.5536
  2284G12c C00K42372   5.589   0.953  12.452 -0.0996  1.8524 -0.9584
  2284G12c C00N42373   5.619   1.312  12.314 -1.2441 -1.2454 -0.6812
  2284G12c C00042374   5.620   1.379  12.538 -0.1161  0.8128 -0.3356
  2284G12c C01J42375   5.492   1.294  12.697 -0.3040  1.1264  1.0209
  2284G12c C01K42376   5.422   1.292  12.818 -1.3245 -2.5561  0.9099
  2284G12c C01P42377   5.374   1.404  12.895 -0.2525  0.8441  0.0603
  2284G12c C01Q42378   5.446   1.520  12.913 -0.2966 -0.2478  1.7583
  2284G12c H00G42379   5.435   1.624  12.939  1.2264  0.4390 -0.2527
  2284G12c C01R42380   5.575   1.518  12.928  0.4442 -0.9682  2.0124
  2284G12c H00F42381   5.629   1.430  12.898 -1.4423 -2.4756  2.9159
  2284G12c C01S42382   5.659   1.635  12.986  1.4672  0.0513  0.0063
  2284G12c H00E42383   5.702   1.583  13.072 -1.6667  2.2137  2.9885
  2284G12c H00D42384   5.755   1.643  12.934 -0.0937 -1.4016 -3.3076
  2284G12c O00542385   5.606   1.762  13.028  0.0614  1.5350  0.2288
  2284G12c H00C42386   5.520   1.750  13.065  0.7004 -7.5813 -0.1483
  2284G12c C01O42387   5.269   1.380  12.990 -0.2345 -1.5632  1.7990
  2284G12c H00H42388   5.245   1.449  13.070 -1.5890 -1.4699  1.3288
  2284G12c C01N42389   5.232   1.246  13.017 -1.0788  1.1054 -0.1637
  2284G12c O00642390   5.112   1.224  13.074 -1.3975 -0.4815  0.2070
  2284G12c C01T42391   5.126   1.164  13.207 -0.6390 -0.1241  1.4027
  2284G12c H00K42392   5.030   1.122  13.235 -2.7194  3.3484 -0.1068
  2284G12c H00J42393   5.138   1.244  13.281  4.0018 -1.1569  1.9314
  2284G12c H00I42394   5.202   1.093  13.239  1.6615  0.6051 -2.1665
  2284G12c C01M42395   5.301   1.151  12.952  0.8839  1.2198 -0.2092
  2284G12c C02042396   5.570   0.937  12.598  2.1920  0.3711 -0.3672
  2284G12c C02142397   5.533   0.811  12.663  0.5499  0.2193 -0.5753
  2284G12c C01L42398   5.398   1.162  12.854  0.8391 -0.7506  0.3847
  2284G12c O00742399   5.261   1.028  13.008 -1.1739 -1.4670 -1.3225
  2284G12c C02242400   5.445   0.799  12.771 -0.8741 -1.8217 -1.0972
  2284G12c C02342401   5.488   0.703  12.587  1.5734  1.8499  0.7286
  2284G12c C00G42402   5.297   0.568  12.421  0.5125 -0.7962  0.3642
  2284G12c C00E42403   5.137   0.395  12.383  2.0551  0.1045  1.1122
  2284G12c O00A42404   5.086   0.307  12.297  0.9546 -0.2642  0.5611
  2284G12c C02442405   5.093   0.160  12.307  0.6733 -0.6821 -1.2360
  2284G12c H00V42406   4.995   0.125  12.337  2.7664 -4.8588  1.3110
  2284G12c H00U42407   5.180   0.149  12.372 -0.5645 -0.7918  0.4296
  2284G12c H00T42408   5.090   0.081  12.231  0.3772 -0.5362 -1.3735
  2294G12c C00D42409   4.775   4.461   0.756  0.3081  1.5056  1.5243
  2294G12c O00B42410   4.903   4.472   0.741  1.2174  0.0197 -1.2758
  2294G12c C02542411   4.987   4.576   0.745 -0.3413  1.5868  0.4177
  2294G12c C02642412   4.945   4.713   0.660 -0.5315  0.0513 -0.2670
  2294G12c H00Y42413   4.871   4.783   0.699 -2.9249  1.7390 -7.0482
  2294G12c H00X42414   4.909   4.654   0.576  0.8726  1.8904 -2.2014
  2294G12c O00C42415   5.052   4.808   0.654  0.4850 -0.6027 -0.3501
  2294G12c H00W42416   5.108   4.785   0.727  2.7162 -3.6002 -2.8696
  2294G12c C02742417   5.096   4.556   0.830  0.2377 -0.7164  0.1717
  2294G12c O00D42418   5.104   4.426   0.878 -0.5596  0.1072 -1.1104
  2294G12c H00Z42419   5.103   4.371   0.801  1.5700  0.9211 -1.7622
  2294G12c C02842420   5.207   4.651   0.832  0.0172 -0.0019  0.6985
  2294G12c C02942421   5.311   4.678   0.733 -0.0488  0.8147 -1.1614
  2294G12c H01042422   5.280   4.660   0.631 -0.6017  0.4919 -0.9421
  2294G12c C02T42423   5.421   4.750   0.748  0.4135 -0.3757 -0.0835
  2294G12c H01O42424   5.485   4.790   0.671  2.0080 -1.6545  0.5523
  2294G12c C02S42425   5.449   4.812   0.883  0.8819 -2.2074  0.2573
  2294G12c O00J42426   5.534   4.919   0.877  0.6580  0.1087 -0.1496
  2294G12c H01P42427   5.531   4.963   0.961 -2.2755  4.2047 -2.2046
  2294G12c C02R42428   5.363   4.781   0.993  0.2101 -1.1698  1.2769
  2294G12c O00I42429   5.396   4.839   1.110 -0.2908 -1.4088 -0.3949
  2294G12c C02Q42430   5.319   4.824   1.236  0.7953 -1.2969 -1.7152
  2294G12c H01N42431   5.400   4.788   1.301 -1.4263  1.2784  2.6845
  2294G12c H01R42432   5.216   4.791   1.227 -1.1042  2.2879  4.1389
  2294G12c H01Q42433   5.282   4.920   1.272  0.9532 -1.8255 -0.0937
  2294G12c C02A42434   5.259   4.694   0.969  0.3277 -1.2089  0.4637
  2294G12c H01142435   5.195   4.663   1.050  1.6012  6.5983  4.9485
  2294G12c C00C42436   4.702   4.473   0.637  0.0240 -0.3614  0.6072
  2294G12c H01242437   4.755   4.508   0.550 -4.8218  2.8154 -1.3004
  2294G12c C00B42438   4.565   4.429   0.616 -0.8756  0.7365  0.5305
  2294G12c C00A42439   4.485   4.465   0.493 -1.3912 -1.7723  0.7206
  2294G12c C00942440   4.495   4.589   0.407  0.2142  0.9342 -0.4463
  2294G12c C00842441   4.597   4.686   0.381  2.1356  0.2040  1.7600
  2294G12c H01342442   4.701   4.674   0.407  1.3940 -2.8218  3.6774
  2294G12c C00742443   4.537   4.808   0.337  0.6780 -0.0047  0.0982
  2294G12c H01442444   4.595   4.899   0.333 -0.7156  0.8121 -3.9640
  2294G12c C00642445   4.389   4.826   0.330 -0.3967  0.0560  0.6576
  2294G12c C00542446   4.306   4.725   0.331 -1.1049  0.2204 -0.1874
  2294G12c C00442447   4.162   4.734   0.338  0.9733  1.7900 -0.5337
  2294G12c C00342448   4.070   4.638   0.394  0.3899 -0.9807 -1.4125
  2294G12c C00242449   3.929   4.650   0.387 -0.8308  0.0477 -0.9987
  2294G12c C00142450   3.816   4.591   0.460 -0.1983  0.0604 -0.3666
  2294G12c C00M42451   3.839   4.558   0.591  1.7470 -0.4851  1.1031
  2294G12c C00L42452   3.931   4.473   0.642  0.3055  0.4479  1.0549
  2294G12c C00R42453   3.957   4.415   0.784  1.2559  1.5582 -0.8684
  2294G12c C00Q42454   3.901   4.449   0.898 -0.3103 -1.3192 -1.2619
  2294G12c C00V42455   3.960   4.381   1.006 -0.5890 -0.5434 -0.8838
  2294G12c C00U42456   4.089   4.319   0.999  0.7230 -1.4559  2.0026
  2294G12c C00T42457   4.160   4.331   0.881  0.5132  0.1880 -0.6660
  2294G12c C01642458   4.296   4.323   0.858  2.7063 -1.1205 -0.8421
  2294G12c C01542459   4.370   4.277   0.961  0.1696  0.0690 -0.3264
  2294G12c C01042460   4.288   4.243   1.079  0.8429  0.0201  0.3970
  2294G12c C01142461   4.364   4.165   1.172 -0.8562 -1.3698  0.7493
  2294G12c H00542462   4.300   4.138   1.255  0.1891  3.4307  3.3241
  2294G12c C01242463   4.514   4.128   1.162 -0.6246 -0.0865  0.9440
  2294G12c C01742464   4.569   4.036   1.242  0.6727 -0.7477  0.2733
  2294G12c O00242465   4.480   3.936   1.255 -1.0899 -0.2289  0.0581
  2294G12c H00442466   4.413   3.905   1.196 -4.6168 -1.3306  4.3448
  2294G12c C01842467   4.694   4.011   1.310  0.1951  0.5057 -1.3218
  2294G12c O00142468   4.772   4.109   1.275 -0.2240  0.9417 -0.5314
  2294G12c H00342469   4.741   4.194   1.303  3.4167  3.4392 -3.5854
  2294G12c C01942470   4.762   3.896   1.389  0.7055 -1.0332 -0.2673
  2294G12c H00242471   4.696   3.809   1.383 -2.9539  1.0432  5.6482
  2294G12c H00142472   4.858   3.886   1.339 -2.9002 -1.6870 -7.8072
  2294G12c O00042473   4.784   3.931   1.539  0.6033 -0.9505 -0.6859
  2294G12c C01A42474   4.803   3.827   1.626 -1.3107 -0.3834  0.8298
  2294G12c C02K42475   4.706   3.744   1.696  1.7056  0.7244  2.1636
  2294G12c O00G42476   4.572   3.787   1.729  1.0150  0.4520 -0.4121
  2294G12c C02M42477   4.499   3.851   1.633 -0.3897  0.7460 -0.1320
  2294G12c H01G42478   4.516   3.955   1.604  6.8215 -1.6222 -5.8234
  2294G12c H01F42479   4.399   3.868   1.674  1.7200  4.2608  3.9969
  2294G12c H01E42480   4.472   3.797   1.542 -2.2418  0.1274  0.7538
  2294G12c C02J42481   4.742   3.636   1.778  0.4824  0.9649  0.2776
  2294G12c H01H42482   4.669   3.568   1.819  4.0121 -3.6735 -0.6708
  2294G12c C02I42483   4.871   3.594   1.813 -2.6947  1.1016 -1.3723
  2294G12c C02N42484   4.893   3.481   1.903  1.9817 -2.8714 -0.1236
  2294G12c H01M42485   4.808   3.414   1.900  0.4436 -0.9719  0.4883
  2294G12c C02O42486   5.008   3.472   1.975 -1.1343  0.0392 -0.1743
  2294G12c H01L42487   5.076   3.555   1.958 -3.0001  2.3897  3.3264
  2294G12c C02P42488   5.055   3.368   2.071  1.8369 -0.7210  1.1940
  2294G12c H01K42489   5.041   3.392   2.176 -4.0881  0.4075  0.3335
  2294G12c H01J42490   5.021   3.267   2.046  0.4236  0.0956 -0.2313
  2294G12c O00H42491   5.193   3.355   2.028  0.5247 -0.5805  0.2583
  2294G12c H01I42492   5.260   3.315   2.082  1.2319 -1.5739 -1.3350
  2294G12c C02H42493   4.962   3.655   1.728 -0.0517 -1.3416 -0.7783
  2294G12c H01C42494   5.057   3.604   1.726  0.4878 -0.4100  0.3262
  2294G12c C02L42495   4.927   3.776   1.645 -0.5118  1.3329 -0.5494
  2294G12c H01D42496   4.988   3.853   1.599  5.2306  0.6964  5.3106
  2294G12c C01342497   4.592   4.184   1.054  0.3766  0.5362 -0.1782
  2294G12c H00042498   4.697   4.183   1.029  0.2270  0.9736 -0.8592
  2294G12c C01442499   4.513   4.255   0.949 -2.1851 -0.4248  3.0342
  2294G12c C00F42500   4.577   4.311   0.834  0.2048  1.7771  1.3406
  2294G12c C00H42501   4.365   4.345   0.734  1.7103  1.9585  0.5882
  2294G12c C00I42502   4.290   4.392   0.624  0.3234 -2.9386  0.6732
  2294G12c C00J42503   4.143   4.391   0.647  0.0139  1.7621 -0.8593
  2294G12c C00Z42504   4.157   4.273   1.106  1.6977  0.5728  2.1019
  2294G12c C00Y42505   4.110   4.281   1.236 -0.5713  0.7841  1.0263
  2294G12c H00642506   4.129   4.237   1.333 -5.6019  3.1730  3.2814
  2294G12c C00X42507   3.978   4.348   1.252  0.5397 -0.7652 -0.9637
  2294G12c O00342508   3.934   4.392   1.385 -0.7577 -0.9599  1.2465
  2294G12c C01B42509   4.024   4.469   1.454 -0.5959  0.1709  0.3001
  2294G12c H00942510   3.971   4.545   1.512 -4.4535 -0.1021 -2.6346
  2294G12c H00842511   4.094   4.521   1.389  6.1793 -5.0487  2.8085
  2294G12c H00742512   4.108   4.414   1.495  5.1910 10.2245  3.6841
  2294G12c C00W42513   3.910   4.393   1.141  0.1049 -0.5004  0.7155
  2294G12c O00442514   3.810   4.469   1.170  0.8596 -0.3268  0.0035
  2294G12c C01C42515   3.760   4.548   1.067  0.9957  0.3421  2.1999
  2294G12c H00A42516   3.656   4.553   1.097  0.9152  0.6332  1.8802
  2294G12c C00P42517   3.801   4.546   0.930 -0.9116 -0.1558 -1.4308
  2294G12c C00O42518   3.770   4.639   0.829  1.4624 -1.2148 -0.9438
  2294G12c C01D42519   3.751   4.779   0.866  0.7326  0.5259  0.5685
  2294G12c H00S42520   3.799   4.822   0.953  3.3247  0.2096 -0.6688
  2294G12c C01E42521   3.716   4.897   0.789 -0.8993 -0.3006 -1.1512
  2294G12c O00842522   3.741   5.025   0.844  0.6718 -0.3384  0.5561
  2294G12c C01V42523   3.848   5.106   0.814 -1.3427  0.4835 -0.9730
  2294G12c C01Z42524   3.827   5.220   0.723 -0.3806  2.0168 -1.4544
  2294G12c H00R42525   3.836   5.171   0.626  8.2003  0.3545 -0.1953
  2294G12c H00Q42526   3.720   5.239   0.732 -1.7946 -4.5944 -1.7159
  2294G12c O00942527   3.909   5.321   0.720  0.7134  0.6271  1.6912
  2294G12c H00P42528   3.994   5.290   0.692 -3.0634 -4.4308 -5.8756
  2294G12c C01W42529   3.967   5.060   0.872 -0.6970  0.9801 -0.0225
  2294G12c H00O42530   3.935   4.997   0.953 -1.1793  1.4201  0.1354
  2294G12c C01X42531   4.105   5.132   0.870 -0.9783  0.9222 -0.7798
  2294G12c H00N42532   4.109   5.240   0.856  1.6069  0.2588 -6.3886
  2294G12c H00M42533   4.138   5.100   0.969  0.9186  5.3803  0.1633
  2294G12c C01Y42534   4.223   5.066   0.803  0.2342 -1.8735  0.4715
  2294G12c C02D42535   4.279   5.124   0.690  0.9485 -1.9243 -0.1721
  2294G12c H01942536   4.204   5.164   0.623 -0.6381  2.2379  3.8280
  2294G12c C02C42537   4.417   5.147   0.648 -0.8532 -0.2773 -0.1290
  2294G12c H01A42538   4.449   5.226   0.582  0.9030  0.9505  2.0873
  2294G12c C02B42539   4.509   5.085   0.746 -0.9089 -0.3146 -0.8410
  2294G12c O00E42540   4.648   5.105   0.758  1.5706  0.0256 -0.0918
  2294G12c H01B42541   4.692   5.187   0.773 -0.7026  0.7766  3.1661
  2294G12c C02F42542   4.446   4.988   0.839 -1.7356 -0.9535  0.2635
  2294G12c O00F42543   4.536   4.955   0.941 -0.6986 -1.6122 -0.8138
  2294G12c C02G42544   4.572   4.826   0.949  1.0383 -0.3680 -0.9029
  2294G12c H01742545   4.631   4.786   0.867  2.2169 -0.5371  0.0213
  2294G12c H01642546   4.551   4.769   1.039 -2.2384  0.4247 -1.0743
  2294G12c H01542547   4.670   4.866   0.975  1.1707  1.1288 -3.4932
  2294G12c C02E42548   4.318   4.999   0.896  0.3240  0.9509  2.5190
  2294G12c H01842549   4.290   4.976   0.997 -4.6311 -3.5483  0.3288
  2294G12c C01F42550   3.686   4.872   0.646  0.5669  0.4197  2.0277
  2294G12c C01G42551   3.665   4.972   0.546 -0.5642 -1.8985 -0.6113
  2294G12c H00L42552   3.623   5.067   0.577  1.5547 -2.1958  3.5785
  2294G12c C01H42553   3.695   4.938   0.418 -0.3664 -2.0241  0.4207
  2294G12c H00B42554   3.685   5.021   0.348 -1.5394  3.0828  6.2326
  2294G12c C01I42555   3.753   4.811   0.387 -2.4308  0.3554 -0.9448
  2294G12c C01U42556   3.709   4.732   0.600 -0.5579  0.8165  0.7610
  2294G12c C00S42557   4.084   4.351   0.766  0.8991  0.9019  0.2578
  2294G12c C00K42558   4.065   4.490   0.584 -0.8958  1.1837 -0.0342
  2294G12c C00N42559   3.779   4.642   0.686  0.4721  2.2156  0.0129
  2294G12c C00042560   3.713   4.693   0.456 -0.2827 -0.6570  0.2745
  2294G12c C01J42561   3.884   4.772   0.333  1.2664  1.0530 -0.4834
  2294G12c C01K42562   3.968   4.872   0.255  0.0542  0.4902 -2.0289
  2294G12c C01P42563   3.942   4.982   0.163  0.7355  0.1679  1.5885
  2294G12c C01Q42564   3.807   4.992   0.101  0.0473  0.3236  2.1997
  2294G12c H00G42565   3.712   5.002   0.151 -0.1476 -2.7874  2.5241
  2294G12c C01R42566   3.813   5.013  -0.036 -0.2269 -0.3567  0.0716
  2294G12c H00F42567   3.910   5.028  -0.082 -0.1447 -0.6191  0.1594
  2294G12c C01S42568   3.674   5.045  -0.095 -0.5815  2.0429 -0.2856
  2294G12c H00E42569   3.584   4.992  -0.065  1.7841 -0.0241  3.6215
  2294G12c H00D42570   3.674   5.152  -0.117 -2.3160  2.1464  0.1328
  2294G12c O00542571   3.678   5.011  -0.232 -1.0913 -0.7996 -0.8836
  2294G12c H00C42572   3.595   4.974  -0.258 -1.7114 -0.6226  0.7803
  2294G12c C01O42573   4.042   5.084   0.137  3.4363  0.5246  0.6889
  2294G12c H00H42574   4.043   5.167   0.067  2.8221 -0.1652 -0.1548
  2294G12c C01N42575   4.145   5.086   0.230 -0.8670 -0.7777  0.0699
  2294G12c O00642576   4.225   5.199   0.205  2.1849 -1.3160  1.2727
  2294G12c C01T42577   4.245   5.283   0.312 -0.4165 -0.9739 -0.6038
  2294G12c H00K42578   4.201   5.258   0.408 -2.8013  4.0758 -0.2224
  2294G12c H00J42579   4.226   5.385   0.278 -2.9968 -0.3013  2.5899
  2294G12c H00I42580   4.353   5.267   0.323 -0.8969 -1.3076  5.0654
  2294G12c C01M42581   4.195   4.962   0.278  0.2496  0.2040 -1.4566
  2294G12c C02042582   4.130   4.533   0.466 -1.0774  0.8980  2.3427
  2294G12c C02142583   4.271   4.505   0.415  0.1374 -0.4081  0.1174
  2294G12c C01L42584   4.113   4.848   0.270  0.5043  0.2369 -0.5559
  2294G12c O00742585   4.324   4.957   0.300 -0.6725 -0.4911  0.1218
  2294G12c C02242586   4.360   4.598   0.362  0.8730 -0.5919  1.4847
  2294G12c C02342587   4.354   4.413   0.494  0.7111 -1.5466 -1.2682
  2294G12c C00G42588   4.500   4.338   0.723 -0.8202 -1.9041 -1.2734
  2294G12c C00E42589   4.707   4.385   0.845  0.9347 -1.2924 -3.2483
  2294G12c O00A42590   4.741   4.421   0.982 -0.3911 -0.8692  1.3914
  2294G12c C02442591   4.809   4.542   1.016 -0.1943  1.2329 -0.4507
  2294G12c H00V42592   4.826   4.610   0.932 -1.8780  2.8073  0.4309
  2294G12c H00U42593   4.888   4.532   1.091  0.7124  2.6582 -1.1783
  2294G12c H00T42594   4.736   4.591   1.081 -3.8881 -5.4632  0.9101
  2304G12c C00D42595   6.842   9.858   2.491 -1.2914  1.4197  0.6916
  2304G12c O00B42596   6.936   9.855   2.597 -0.0650  0.6254  2.0024
  2304G12c C02542597   7.062   9.807   2.592 -0.2446 -0.6712  0.6727
  2304G12c C02642598   7.146   9.922   2.556 -1.6854  0.2988  0.0891
  2304G12c H00Y42599   7.114   9.964   2.460  0.3699 -0.4301 -0.9437
  2304G12c H00X42600   7.245   9.882   2.535 -1.2860  0.1325  2.1887
  2304G12c O00C42601   7.169  10.024   2.647 -0.7914  0.0228 -1.7408
  2304G12c H00W42602   7.097  10.014   2.708 -2.1167 -3.8417 -3.8144
  2304G12c C02742603   7.075   9.694   2.666 -1.1652 -1.2095  1.3433
  2304G12c O00D42604   6.977   9.620   2.734 -1.3832  0.2612 -0.9508
  2304G12c H00Z42605   6.946   9.540   2.693  4.6294 -2.1674 -1.2653
  2304G12c C02842606   7.208   9.664   2.702 -0.4259 -0.5632 -0.7857
  2304G12c C02942607   7.303   9.602   2.594  0.6402  0.0178  0.4716
  2304G12c H01042608   7.269   9.603   2.491  3.9993 -2.1119 -0.7158
  2304G12c C02T42609   7.434   9.559   2.628 -0.7974 -0.4995  2.1353
  2304G12c H01O42610   7.490   9.504   2.553 -5.4045 -4.7345  1.5379
  2304G12c C02S42611   7.482   9.591   2.753  0.0636  1.1216  2.3564
  2304G12c O00J42612   7.630   9.573   2.763  0.1104 -0.3384  0.1710
  2304G12c H01P42613   7.658   9.493   2.804  9.4037  0.3728 -3.5332
  2304G12c C02R42614   7.408   9.632   2.860 -0.0739 -0.8279 -0.4525
  2304G12c O00I42615   7.448   9.648   2.988 -1.5551  0.3749  0.9257
  2304G12c C02Q42616   7.474   9.795   2.983 -0.9188 -0.8152 -0.2042
  2304G12c H01N42617   7.579   9.815   2.963 -1.0369 -0.0108 -0.0405
  2304G12c H01R42618   7.473   9.808   3.092  3.1361  5.7438 -0.6792
  2304G12c H01Q42619   7.431   9.884   2.939  1.4108 -2.1133 -5.5189
  2304G12c C02A42620   7.266   9.665   2.833 -1.5573  0.9625 -0.9440
  2304G12c H01142621   7.189   9.702   2.901 -2.2915  0.1987 -1.3466
  2304G12c C00C42622   6.875   9.840   2.361  1.2698 -1.3912 -1.0172
  2304G12c H01242623   6.980   9.862   2.346 -0.2025  2.8335 -6.8361
  2304G12c C00B42624   6.782   9.777   2.267  0.2716  1.2629  0.2288
  2304G12c C00A42625   6.805   9.737   2.135  0.8459  0.0031 -1.2014
  2304G12c C00942626   6.918   9.744   2.034 -0.6215  1.8489  1.8659
  2304G12c C00842627   7.011   9.837   2.024 -0.2734 -0.0333  0.2625
  2304G12c H01342628   7.036   9.910   2.100  0.1554  3.2071 -2.8891
  2304G12c C00742629   7.040   9.897   1.894  0.9859  0.2662  0.8106
  2304G12c H01442630   7.127   9.961   1.882  0.7853  1.6875  5.6649
  2304G12c C00642631   6.967   9.869   1.775 -0.2115 -1.8675 -0.8207
  2304G12c C00542632   6.867   9.779   1.795  0.7209 -0.9725  1.2920
  2304G12c C00442633   6.772   9.750   1.687 -1.1011 -1.1802 -0.8714
  2304G12c C00342634   6.663   9.661   1.711  0.4891  1.4693 -0.0013
  2304G12c C00242635   6.583   9.625   1.608 -0.1606 -2.2297  1.0933
  2304G12c C00142636   6.442   9.579   1.598 -0.8919  0.4448 -0.3228
  2304G12c C00M42637   6.336   9.612   1.688  0.4171  0.5899  0.4974
  2304G12c C00L42638   6.371   9.617   1.823  0.1018 -0.3491  0.2927
  2304G12c C00R42639   6.276   9.640   1.923 -0.3836 -1.3112  1.7989
  2304G12c C00Q42640   6.150   9.710   1.923  0.2727  0.0401 -0.0484
  2304G12c C00V42641   6.095   9.729   2.048 -0.7891 -0.6901  0.4665
  2304G12c C00U42642   6.178   9.742   2.171 -0.8572 -0.8787  0.3794
  2304G12c C00T42643   6.303   9.712   2.161  1.2423 -1.7501 -0.2594
  2304G12c C01642644   6.411   9.751   2.257  1.4061 -1.4345  0.4992
  2304G12c C01542645   6.368   9.829   2.356  1.4934  0.9021 -0.1020
  2304G12c C01042646   6.238   9.853   2.379  0.4577 -0.3354  1.4242
  2304G12c C01142647   6.209   9.942   2.486 -2.1385  1.1112  0.1070
  2304G12c H00542648   6.107   9.963   2.513 -3.7636 -0.3449 -4.4804
  2304G12c C01242649   6.301  10.023   2.539  0.6305  0.2511 -2.2130
  2304G12c C01742650   6.240  10.132   2.620 -1.7076 -1.1636 -1.2073
  2304G12c O00242651   6.202  10.118   2.763 -0.4472 -0.6006 -1.1010
  2304G12c H00442652   6.262  10.048   2.785 -2.2341 -2.5668 -2.2744
  2304G12c C01842653   6.193  10.239   2.547  0.9274 -0.4896 -1.3173
  2304G12c O00142654   6.209  10.273   2.413  0.1180  0.9133  0.9800
  2304G12c H00342655   6.191  10.365   2.417  1.4917  1.4672 -3.2480
  2304G12c C01942656   6.111  10.340   2.622 -1.8326 -0.2102  1.8169
  2304G12c H00242657   6.114  10.309   2.727 -2.6385  0.4497  2.0423
  2304G12c H00142658   6.157  10.437   2.641 -1.7835  0.5680 -1.8681
  2304G12c O00042659   5.973  10.315   2.586 -0.0422 -0.6436  0.3239
  2304G12c C01A42660   5.938  10.407   2.484  1.3096  0.7590  3.0518
  2304G12c C02K42661   5.942  10.547   2.511 -0.3005  0.4209 -0.4179
  2304G12c O00G42662   5.928  10.592   2.639  0.8700  0.2152 -1.4157
  2304G12c C02M42663   5.880  10.526   2.742 -0.3686  0.2012  0.3876
  2304G12c H01G42664   5.816  10.610   2.770 -2.7500  1.7998 -8.3844
  2304G12c H01F42665   5.937  10.478   2.822 -1.3387  0.1823  1.0688
  2304G12c H01E42666   5.815  10.445   2.709  0.3491 -1.4910  3.0372
  2304G12c C02J42667   5.925  10.632   2.395 -0.2183  0.0492  0.5430
  2304G12c H01H42668   5.872  10.725   2.381 -0.3064 -0.7329 -5.8344
  2304G12c C02I42669   5.942  10.595   2.262  1.4361  0.6926 -2.5988
  2304G12c C02N42670   5.911  10.700   2.157 -0.3511  1.2849 -0.6966
  2304G12c H01M42671   5.819  10.751   2.136 -0.6630  2.4814  3.2263
  2304G12c C02O42672   6.018  10.746   2.090 -0.0713  0.8972  1.5700
  2304G12c H01L42673   6.112  10.696   2.109  0.9765  2.7686  1.3286
  2304G12c C02P42674   6.023  10.865   2.011 -0.8822  0.4268 -0.3979
  2304G12c H01K42675   6.043  10.802   1.924 -6.8856  1.9947 -3.1646
  2304G12c H01J42676   5.927  10.913   1.992 -0.2834  0.9657 -2.2236
  2304G12c O00H42677   6.120  10.965   2.049 -0.1899 -0.3090  0.8908
  2304G12c H01I42678   6.156  10.998   1.968 -2.7537  0.0935 -0.1304
  2304G12c C02H42679   5.975  10.457   2.243  1.6520 -2.5821  1.5735
  2304G12c H01C42680   6.002  10.403   2.154  7.8793 -2.8643  3.3604
  2304G12c C02L42681   5.949  10.363   2.352  1.7958 -1.6780 -0.0700
  2304G12c H01D42682   5.925  10.258   2.348 -2.8969 -0.6899 -1.2990
  2304G12c C01342683   6.435   9.984   2.520  0.0658  0.1597  1.5785
  2304G12c H00042684   6.505  10.030   2.589  1.4296 -0.7625  0.8275
  2304G12c C01442685   6.467   9.880   2.428 -1.0466  0.1089 -0.0585
  2304G12c C00F42686   6.609   9.845   2.422  2.8239  2.3935  1.5502
  2304G12c C00H42687   6.542   9.718   2.233  0.0783 -0.2127  0.3929
  2304G12c C00I42688   6.569   9.651   2.108  1.7990  0.5990  2.5701
  2304G12c C00J42689   6.467   9.590   2.026 -0.1595  0.5541 -1.8290
  2304G12c C00Z42690   6.145   9.817   2.278  1.3530  0.4254 -0.6447
  2304G12c C00Y42691   6.003   9.831   2.292  1.6098 -0.0027  0.6189
  2304G12c H00642692   5.958   9.857   2.387  0.5919  5.3839 -1.1497
  2304G12c C00X42693   5.917   9.828   2.188  1.8916 -0.4211  0.2966
  2304G12c O00342694   5.788   9.881   2.190  0.4572  0.2460  0.4333
  2304G12c C01B42695   5.777  10.024   2.213  1.3118  1.1128  0.8975
  2304G12c H00942696   5.719  10.061   2.298  3.0206  7.4626 -0.4805
  2304G12c H00842697   5.740  10.057   2.116 -0.3630  2.0014  1.8023
  2304G12c H00742698   5.881  10.054   2.213  0.6145  3.7476 -2.0181
  2304G12c C00W42699   5.958   9.775   2.066 -0.7098 -0.4119  0.7552
  2304G12c O00442700   5.869   9.792   1.956  0.6521 -0.7578 -0.2184
  2304G12c C01C42701   5.934   9.778   1.830 -2.3008  1.6461  1.4424
  2304G12c H00A42702   5.865   9.782   1.747  4.4402 -0.9471 -4.9069
  2304G12c C00P42703   6.077   9.755   1.819  0.0420  1.5519  0.0464
  2304G12c C00O42704   6.147   9.769   1.690 -1.3970  1.7441  1.1730
  2304G12c C01D42705   6.076   9.871   1.614  0.8692  0.1977  0.0052
  2304G12c H00S42706   6.007   9.931   1.672 -3.2472 -4.9317  0.7631
  2304G12c C01E42707   6.136   9.920   1.486  0.1211  1.1778 -0.2053
  2304G12c O00842708   6.102  10.024   1.409 -1.1154 -1.7006  0.1614
  2304G12c C01V42709   6.040  10.133   1.476 -0.1349  1.5301  0.1614
  2304G12c C01Z42710   5.889  10.137   1.454  2.4557  0.0883 -0.3432
  2304G12c H00R42711   5.854  10.206   1.377  8.9619 -1.4156 -5.1412
  2304G12c H00Q42712   5.806  10.067   1.465  0.1959  1.4461 -6.6783
  2304G12c O00942713   5.804  10.189   1.575  0.1483 -0.3819  0.7510
  2304G12c H00P42714   5.869  10.209   1.641 -0.3464 -1.9228  1.7163
  2304G12c C01W42715   6.109  10.224   1.557  0.2625 -0.6870 -0.2901
  2304G12c H00O42716   6.048  10.312   1.570 -1.9404 -2.6263  3.2048
  2304G12c C01X42717   6.257  10.199   1.609 -0.8683 -1.2784 -0.0989
  2304G12c H00N42718   6.338  10.162   1.545 -3.7325 -1.9034 -3.4799
  2304G12c H00M42719   6.281  10.301   1.579 -0.6741 -2.6172 -5.0077
  2304G12c C01Y42720   6.286  10.185   1.760 -1.0054  0.0205 -1.6298
  2304G12c C02D42721   6.180  10.155   1.851 -0.8546  0.1490 -0.6283
  2304G12c H01942722   6.086  10.194   1.814 -2.8615 -4.0400 -0.2652
  2304G12c C02C42723   6.203  10.113   1.979  0.6498 -0.7751  1.2924
  2304G12c H01A42724   6.124  10.125   2.052 -0.5607  0.0501 -0.1446
  2304G12c C02B42725   6.328  10.114   2.027  0.5876  0.4438 -0.4944
  2304G12c O00E42726   6.340  10.095   2.166 -0.7201 -0.0372 -0.6263
  2304G12c H01B42727   6.278  10.080   2.236  0.2042  0.7636  0.3929
  2304G12c C02F42728   6.435  10.104   1.938 -0.7941  1.0831 -0.8091
  2304G12c O00F42729   6.566  10.096   1.988  1.1249  0.2786 -0.9328
  2304G12c C02G42730   6.674  10.096   1.903  0.2323 -0.2946 -1.5093
  2304G12c H01742731   6.751  10.081   1.979 -3.4498 -2.0777  2.0873
  2304G12c H01642732   6.670  10.204   1.896 -0.7635 -0.3325 -1.7003
  2304G12c H01542733   6.705  10.031   1.821  0.5797 -0.0211 -1.5941
  2304G12c C02E42734   6.411  10.140   1.806  0.2654 -0.9274  0.5971
  2304G12c H01842735   6.488  10.151   1.731 -5.1821 -7.5036 -6.7388
  2304G12c C01F42736   6.241   9.833   1.438 -0.6690  1.2173  1.1181
  2304G12c C01G42737   6.312   9.865   1.321  0.8372 -0.1217  0.4838
  2304G12c H00L42738   6.290   9.953   1.262 -5.7259 -3.1080 -1.9962
  2304G12c C01H42739   6.438   9.796   1.307 -1.1385 -0.5098 -0.1310
  2304G12c H00B42740   6.507   9.807   1.225 -3.4429 -1.7435 -2.2968
  2304G12c C01I42741   6.488   9.695   1.404  1.0768  1.4233  2.2917
  2304G12c C01U42742   6.303   9.724   1.510  0.8574 -0.2633 -0.5338
  2304G12c C00S42743   6.328   9.615   2.059 -0.8352 -0.0622 -2.2119
  2304G12c C00K42744   6.502   9.582   1.895  0.7024  0.4612  0.2350
  2304G12c C00N42745   6.253   9.693   1.637 -1.1748  0.0455  0.6692
  2304G12c C00042746   6.384   9.627   1.470 -0.6376  0.2107  0.7960
  2304G12c C01J42747   6.611   9.693   1.475  0.0161 -1.0928  0.7372
  2304G12c C01K42748   6.708   9.804   1.453  0.3474 -0.3313  0.7369
  2304G12c C01P42749   6.767   9.839   1.328 -2.2281 -2.1248 -0.4788
  2304G12c C01Q42750   6.721   9.764   1.210  1.4611 -1.1810 -0.3272
  2304G12c H00G42751   6.697   9.661   1.228 -4.1087 -0.4023 -2.2189
  2304G12c C01R42752   6.715   9.836   1.099  1.1571 -1.0040  0.3820
  2304G12c H00F42753   6.712   9.943   1.089  0.4488 -1.1127 -0.7766
  2304G12c C01S42754   6.685   9.747   0.978  0.9008  1.0050  0.2620
  2304G12c H00E42755   6.657   9.643   0.994  2.3383  0.2861 -1.7912
  2304G12c H00D42756   6.600   9.795   0.930  1.7405  1.2362 -1.0182
  2304G12c O00542757   6.796   9.735   0.890 -0.8685  0.6554  0.5696
  2304G12c H00C42758   6.829   9.811   0.846  0.2520 -1.1625 -1.8639
  2304G12c C01O42759   6.869   9.935   1.333  0.8203 -0.9807 -0.3387
  2304G12c H00H42760   6.892   9.992   1.244  0.8481  1.4873  1.2170
  2304G12c C01N42761   6.918   9.988   1.444  0.3518  1.7055  0.9705
  2304G12c O00642762   6.991  10.098   1.474 -1.2226  0.1558  0.3426
  2304G12c C01T42763   6.912  10.199   1.435 -1.0307 -1.4486  0.6949
  2304G12c H00K42764   6.973  10.286   1.463  0.0527 -1.7627 -0.6459
  2304G12c H00J42765   6.824  10.194   1.499 -0.6874 -5.4661  0.9465
  2304G12c H00I42766   6.856  10.194   1.341  2.2011  1.7975 -1.5614
  2304G12c C01M42767   6.899   9.915   1.560  0.8181 -0.5493 -1.5565
  2304G12c C02042768   6.638   9.607   1.850  0.6352 -1.5864  0.6838
  2304G12c C02142769   6.751   9.619   1.946  1.4450 -1.2665 -2.9945
  2304G12c C01L42770   6.797   9.822   1.572  0.1867 -0.4603 -0.4092
  2304G12c O00742771   6.979   9.939   1.663 -0.6864  0.2113  0.2483
  2304G12c C02242772   6.868   9.685   1.918 -2.2736  0.7484  1.6154
  2304G12c C02342773   6.708   9.642   2.075 -1.2365 -1.0453  0.1623
  2304G12c C00G42774   6.648   9.779   2.299  0.6726 -0.1703 -0.6228
  2304G12c C00E42775   6.706   9.872   2.523 -1.4865 -0.4703  0.7613
  2304G12c O00A42776   6.684   9.931   2.645 -0.0670  0.5240 -0.5583
  2304G12c C02442777   6.652   9.840   2.759  0.9914 -0.7202  0.2433
  2304G12c H00V42778   6.698   9.742   2.769 -5.0468 -3.7817  0.2185
  2304G12c H00U42779   6.557   9.788   2.752 -1.9557  3.6836  4.7707
  2304G12c H00T42780   6.652   9.877   2.862 -3.6122  1.7435 -0.5030
  2314G12c C00D42781  10.263   7.560   7.795 -0.0736  0.2345  0.9874
  2314G12c O00B42782  10.296   7.595   7.922  2.0875  0.5964 -1.4572
  2314G12c C02542783  10.416   7.660   7.920 -2.2961  0.3156 -1.4288
  2314G12c C02642784  10.509   7.583   8.033 -0.8645 -1.6734  1.8752
  2314G12c H00Y42785  10.613   7.616   8.037 -1.4085  0.1739  1.4443
  2314G12c H00X42786  10.534   7.482   8.000 -1.3445 -0.2708 -3.1505
  2314G12c O00C42787  10.438   7.572   8.159  0.2981  1.2128 -0.0096
  2314G12c H00W42788  10.351   7.576   8.122  0.4372 -6.1930 -1.9332
  2314G12c C02742789  10.483   7.760   7.838 -0.7467 -0.0061  1.0357
  2314G12c O00D42790  10.418   7.825   7.723 -0.5229  0.5167  0.2372
  2314G12c H00Z42791  10.337   7.849   7.766 -0.7223 -5.0444  3.5099
  2314G12c C02842792  10.600   7.837   7.876 -1.1027  0.7631 -0.9123
  2314G12c C02942793  10.718   7.810   7.803  0.0183 -0.7658 -0.2840
  2314G12c H01042794  10.700   7.752   7.714 -2.3935 -1.0069  0.3279
  2314G12c C02T42795  10.845   7.872   7.827  0.4154 -0.0557 -0.4534
  2314G12c H01O42796  10.916   7.860   7.746  1.1723 -3.3805  0.6250
  2314G12c C02S42797  10.858   7.950   7.952 -0.2857 -2.4299 -1.0999
  2314G12c O00J42798  10.964   7.985   8.019  0.3911  0.8229  0.9800
  2314G12c H01P42799  10.920   7.995   8.102  4.8370  0.7902  3.5061
  2314G12c C02R42800  10.742   7.996   8.019  0.3229  1.1412  0.1201
  2314G12c O00I42801  10.741   8.086   8.137 -0.6621  0.3415 -0.0145
  2314G12c C02Q42802  10.634   8.065   8.230 -0.0099  0.6916  1.5205
  2314G12c H01N42803  10.624   8.140   8.309 -1.4065 -0.5642  2.5864
  2314G12c H01R42804  10.620   7.960   8.254 -2.6765  0.8489  0.8251
  2314G12c H01Q42805  10.554   8.105   8.168  5.9641  7.3008 -2.7383
  2314G12c C02A42806  10.627   7.913   7.993 -0.8014  0.3709 -0.8577
  2314G12c H01142807  10.546   7.918   8.065  1.1737 -3.1926  1.7309
  2314G12c C00C42808  10.190   7.654   7.725  0.2691  0.4742 -0.1951
  2314G12c H01242809  10.160   7.740   7.783 -0.6599 -2.3802  3.8289
  2314G12c C00B42810  10.143   7.641   7.591  0.3034 -0.5829 -0.0635
  2314G12c C00A42811  10.018   7.688   7.528 -0.1694 -0.1040 -0.2060
  2314G12c C00942812   9.884   7.707   7.601 -0.7827  1.2207 -1.1054
  2314G12c C00842813   9.859   7.697   7.739  2.1067 -1.7496  1.3634
  2314G12c H01342814   9.939   7.700   7.812  1.2216 -3.4663  2.4472
  2314G12c C00742815   9.735   7.655   7.794 -0.0786 -0.8976 -0.4370
  2314G12c H01442816   9.724   7.639   7.900 -4.4571 -2.1356 -0.9507
  2314G12c C00642817   9.641   7.606   7.699  1.0265  0.8730  0.0202
  2314G12c C00542818   9.671   7.628   7.559  0.2377  0.1161 -1.2062
  2314G12c C00442819   9.595   7.565   7.457 -0.6775 -1.1380  0.0146
  2314G12c C00342820   9.641   7.544   7.328  0.2406 -1.9498  0.1689
  2314G12c C00242821   9.560   7.469   7.227  0.1398 -0.4190 -0.3832
  2314G12c C00142822   9.581   7.400   7.108  0.0636  0.8575  2.1377
  2314G12c C00M42823   9.693   7.310   7.113 -1.0717  1.9760  0.0867
  2314G12c C00L42824   9.828   7.342   7.169  1.7357 -1.7615 -0.6287
  2314G12c C00R42825   9.952   7.270   7.163 -1.7618 -1.3678  1.4655
  2314G12c C00Q42826   9.976   7.128   7.135 -0.3187 -0.6323 -2.5216
  2314G12c C00V42827  10.123   7.089   7.167 -0.9599  1.1742  0.4325
  2314G12c C00U42828  10.207   7.183   7.217  0.4322 -0.2300  0.7805
  2314G12c C00T42829  10.177   7.308   7.224  0.7932 -1.0987 -0.3243
  2314G12c C01642830  10.229   7.393   7.321 -0.4502  1.0314 -0.5645
  2314G12c C01542831  10.344   7.346   7.380 -0.0129  1.0376 -0.2860
  2314G12c C01042832  10.423   7.238   7.323  1.1531 -1.0214  0.5050
  2314G12c C01142833  10.547   7.211   7.368 -1.0345 -0.8769 -0.5772
  2314G12c H00542834  10.593   7.124   7.323 -2.7648 -1.5614 -1.0743
  2314G12c C01242835  10.594   7.293   7.463  1.0750 -0.2181  1.3330
  2314G12c C01742836  10.724   7.300   7.500 -1.1694  1.5126  0.7185
  2314G12c O00242837  10.805   7.278   7.393 -0.5981  0.5984 -0.5684
  2314G12c H00442838  10.749   7.300   7.321  0.3419 -1.5999 -2.0166
  2314G12c C01842839  10.761   7.334   7.629  0.0360  1.1050 -0.5586
  2314G12c O00142840  10.686   7.334   7.752  0.0327  0.3202 -2.7084
  2314G12c H00342841  10.673   7.426   7.767 -0.1742  0.7629 -5.3895
  2314G12c C01942842  10.915   7.360   7.653 -0.0352  0.9679 -0.9266
  2314G12c H00242843  10.967   7.280   7.706  5.1326  4.6128 -0.1237
  2314G12c H00142844  10.949   7.393   7.554  2.0155 11.0492  2.5485
  2314G12c O00042845  10.925   7.489   7.725  0.0036 -0.4653 -0.7578
  2314G12c C01A42846  11.049   7.544   7.765  0.1327  0.8368  0.6585
  2314G12c C02K42847  11.083   7.571   7.888 -1.3886  1.2937 -1.8455
  2314G12c O00G42848  11.031   7.492   7.992  0.4886  0.0633 -0.1595
  2314G12c C02M42849  10.908   7.524   8.037  2.0462 -0.2809  1.2266
  2314G12c H01G42850  10.874   7.426   8.072 -0.9236 -0.4030 -1.8221
  2314G12c H01F42851  10.915   7.614   8.097  4.9330 -0.9682  2.0258
  2314G12c H01E42852  10.821   7.534   7.973  1.4019  1.0565  2.2863
  2314G12c C02J42853  11.174   7.677   7.916 -1.0480  1.6007 -1.1964
  2314G12c H01H42854  11.192   7.727   8.010 -6.7662  1.2903  0.2916
  2314G12c C02I42855  11.244   7.731   7.811  0.3165 -0.2732  0.6176
  2314G12c C02N42856  11.335   7.830   7.850  0.1508 -0.4563 -1.1826
  2314G12c H01M42857  11.345   7.917   7.787 -6.6631  1.0954 -0.5104
  2314G12c C02O42858  11.418   7.830   7.958 -0.6571 -1.8558 -0.0283
  2314G12c H01L42859  11.407   7.763   8.042  0.4068 -3.7755 -1.3844
  2314G12c C02P42860  11.551   7.904   7.944 -0.9336  0.0383  0.2994
  2314G12c H01K42861  11.538   8.009   7.970 -2.5737  0.8002 -3.2754
  2314G12c H01J42862  11.611   7.867   8.027 -0.9445 -1.1971 -0.2220
  2314G12c O00H42863  11.641   7.905   7.832 -0.3362  0.3280  0.4025
  2314G12c H01I42864  11.705   7.836   7.840  2.1779  2.6823  1.7995
  2314G12c C02H42865  11.204   7.688   7.686  0.2477  1.8503  1.4924
  2314G12c H01C42866  11.229   7.736   7.593 -2.0963  1.9482  0.8851
  2314G12c C02L42867  11.101   7.599   7.664 -1.9023  0.4233  0.6194
  2314G12c H01D42868  11.066   7.583   7.563 -3.0174  0.6950  0.9553
  2314G12c C01342869  10.519   7.394   7.524  0.0992  1.1775 -0.7899
  2314G12c H00042870  10.555   7.479   7.581  0.6957  0.4293 -0.0381
  2314G12c C01442871  10.381   7.393   7.508 -1.1238 -0.3088 -0.1564
  2314G12c C00F42872  10.284   7.460   7.572 -0.0659  1.0255  0.4226
  2314G12c C00H42873  10.152   7.491   7.380  1.0940 -1.1642 -0.5154
  2314G12c C00I42874  10.059   7.556   7.318 -2.6227 -1.2762 -0.0150
  2314G12c C00J42875   9.995   7.473   7.228  0.6269  0.6412  1.8821
  2314G12c C00Z42876  10.340   7.140   7.258  1.7147 -1.5931 -0.3327
  2314G12c C00Y42877  10.385   7.014   7.242  2.7995 -0.5273  0.0073
  2314G12c H00642878  10.489   6.992   7.258  2.2350 -1.9023  1.9743
  2314G12c C00X42879  10.302   6.929   7.168  2.0641 -0.4299 -0.3356
  2314G12c O00342880  10.317   6.789   7.144 -0.0602  2.0953 -0.6950
  2314G12c C01B42881  10.453   6.753   7.122  1.0726 -0.1689  0.0854
  2314G12c H00942882  10.491   6.679   7.193  2.0511  2.1282  2.0652
  2314G12c H00842883  10.526   6.834   7.109  4.9355 -2.8712  3.4736
  2314G12c H00742884  10.435   6.718   7.021 -0.9458 -0.6681  0.5967
  2314G12c C00W42885  10.163   6.966   7.139 -0.8190 -0.9692  0.3096
  2314G12c O00442886  10.060   6.874   7.119  0.3127  0.3107  1.4893
  2314G12c C01C42887   9.929   6.905   7.066 -1.3126  0.7302  0.5964
  2314G12c H00A42888   9.936   6.906   6.958  4.8330  4.3107  0.8352
  2314G12c C00P42889   9.873   7.031   7.118 -0.3434  1.3654 -0.5557
  2314G12c C00O42890   9.730   7.044   7.103 -1.0501 -0.5873  1.3229
  2314G12c C01D42891   9.662   6.923   7.087  0.3056  0.0518 -0.5819
  2314G12c H00S42892   9.696   6.825   7.117  2.3304  1.4563  1.9405
  2314G12c C01E42893   9.518   6.935   7.114  1.2493  0.1319 -1.5743
  2314G12c O00842894   9.427   6.837   7.074  1.9472  0.5453 -0.0741
  2314G12c C01V42895   9.442   6.710   7.147  1.2943 -1.3962 -1.0956
  2314G12c C01Z42896   9.440   6.588   7.050 -0.5326 -0.0406 -1.1691
  2314G12c H00R42897   9.336   6.562   7.030 -1.5581  3.8142 -1.2961
  2314G12c H00Q42898   9.472   6.621   6.951  0.4334  0.9088 -0.5557
  2314G12c O00942899   9.519   6.487   7.104 -0.2649  0.3877 -0.8570
  2314G12c H00P42900   9.514   6.488   7.198  3.6388 -1.4211 -0.5468
  2314G12c C01W42901   9.467   6.701   7.285 -0.4004  0.8830 -0.9909
  2314G12c H00O42902   9.465   6.603   7.330  3.6559  4.1430  7.4292
  2314G12c C01X42903   9.470   6.797   7.417  1.1162  1.1858  0.2984
  2314G12c H00N42904   9.448   6.904   7.412  0.5444  0.9482 -5.5524
  2314G12c H00M42905   9.403   6.753   7.490 -0.0063  0.8532 -0.9014
  2314G12c C01Y42906   9.602   6.800   7.470 -0.2792  2.6365 -1.4082
  2314G12c C02D42907   9.676   6.911   7.433 -1.0422  0.3379 -0.4758
  2314G12c H01942908   9.634   6.999   7.387  2.0410  1.2814 -1.5665
  2314G12c C02C42909   9.815   6.905   7.433  0.1717  1.4423  0.8774
  2314G12c H01A42910   9.886   6.965   7.378  0.1185  0.3314 -0.4300
  2314G12c C02B42911   9.880   6.799   7.493 -1.7678  0.4570 -0.2231
  2314G12c O00E42912  10.024   6.801   7.527  1.1205 -0.1740  0.3122
  2314G12c H01B42913  10.056   6.717   7.555  5.5935  0.4169 -2.3667
  2314G12c C02F42914   9.810   6.695   7.553 -0.6855  0.8057 -1.1895
  2314G12c O00F42915   9.880   6.614   7.621 -0.4064  0.3724 -0.0932
  2314G12c C02G42916   9.842   6.480   7.615  1.1271 -0.2434  0.0508
  2314G12c H01742917   9.770   6.447   7.689  0.2122 -2.0819 -1.6120
  2314G12c H01642918   9.921   6.409   7.591 -1.7305 -3.0478 -1.4564
  2314G12c H01542919   9.778   6.439   7.537  2.2842  2.4232 -2.4120
  2314G12c C02E42920   9.664   6.701   7.548 -0.4985  0.8027 -1.1869
  2314G12c H01842921   9.611   6.611   7.575  2.4879 -1.6326 -3.1843
  2314G12c C01F42922   9.459   7.064   7.126  1.0250  0.3042  0.1983
  2314G12c C01G42923   9.336   7.087   7.192  0.9493 -0.4408  1.2847
  2314G12c H00L42924   9.268   7.006   7.214  4.0399 -2.2354  4.9336
  2314G12c C01H42925   9.290   7.216   7.240 -0.1308 -0.9099  0.7273
  2314G12c H00B42926   9.204   7.218   7.305  1.7835  3.0642  3.3389
  2314G12c C01I42927   9.375   7.321   7.197 -0.7870  0.8420  0.8346
  2314G12c C01U42928   9.532   7.179   7.083  0.0154  0.6289 -1.0113
  2314G12c C00S42929  10.055   7.359   7.179 -0.2490 -0.6830 -0.4106
  2314G12c C00K42930   9.857   7.477   7.215  2.2333 -0.1993  1.0694
  2314G12c C00N42931   9.665   7.169   7.105 -1.2816 -1.0977  0.0847
  2314G12c C00042932   9.481   7.308   7.097 -0.1308 -0.9171  0.0078
  2314G12c C01J42933   9.420   7.448   7.269 -0.6593 -0.4131 -0.2374
  2314G12c C01K42934   9.369   7.494   7.393  1.2813 -0.9340  2.3030
  2314G12c C01P42935   9.235   7.482   7.446  1.9236  0.9120  0.6396
  2314G12c C01Q42936   9.113   7.460   7.365 -0.6518  0.6726  0.0118
  2314G12c H00G42937   9.102   7.375   7.299  7.7584 -3.0608  2.7739
  2314G12c C01R42938   9.006   7.543   7.388  0.6357  0.0711  0.0200
  2314G12c H00F42939   9.004   7.608   7.474 -2.9222  2.8742 -2.0332
  2314G12c C01S42940   8.867   7.578   7.310  0.0954  1.0358  0.1965
  2314G12c H00E42941   8.898   7.567   7.206 -0.5757  6.7539 -0.7426
  2314G12c H00D42942   8.808   7.487   7.320  0.9555  0.4829  0.3046
  2314G12c O00542943   8.813   7.700   7.294 -0.8461 -0.5486 -0.6016
  2314G12c H00C42944   8.867   7.777   7.306 -1.8901 -0.4454  5.1451
  2314G12c C01O42945   9.204   7.480   7.584  1.1526  0.2879 -0.0574
  2314G12c H00H42946   9.100   7.460   7.607  1.5259 -3.1223 -1.0453
  2314G12c C01N42947   9.304   7.490   7.680  0.4447 -0.4459  1.9857
  2314G12c O00642948   9.267   7.499   7.804 -0.5073 -0.1933  0.8674
  2314G12c C01T42949   9.306   7.401   7.877 -0.1050 -0.2224  0.2740
  2314G12c H00K42950   9.398   7.430   7.927 -2.9203  1.3921  4.7520
  2314G12c H00J42951   9.226   7.388   7.950 -1.0234  2.6021 -0.1791
  2314G12c H00I42952   9.327   7.311   7.818  1.2432 -0.0196  0.4211
  2314G12c C01M42953   9.435   7.513   7.624 -1.3665 -0.0786  0.5306
  2314G12c C02042954   9.774   7.582   7.291  0.4629  0.1621 -0.4361
  2314G12c C02142955   9.848   7.649   7.383 -0.9828 -1.2803 -0.0693
  2314G12c C01L42956   9.465   7.519   7.483 -1.3953  1.0197 -1.2007
  2314G12c O00742957   9.527   7.546   7.731  0.6874  0.7235  0.7643
  2314G12c C02242958   9.782   7.695   7.505 -0.2701  1.5106 -1.1470
  2314G12c C02342959   9.991   7.653   7.401  0.2408 -0.0966  0.3808
  2314G12c C00G42960  10.180   7.527   7.515 -0.6273 -1.1700 -0.9842
  2314G12c C00E42961  10.318   7.476   7.712 -0.8199 -0.7624  0.4780
  2314G12c O00A42962  10.415   7.409   7.770 -1.0253 -0.6762  0.2037
  2314G12c C02442963  10.388   7.269   7.801 -0.8385 -0.4289  0.5626
  2314G12c H00V42964  10.395   7.194   7.723  4.2780 -0.0002  0.4859
  2314G12c H00U42965  10.295   7.237   7.848 -5.0756  1.6529 -5.7511
  2314G12c H00T42966  10.479   7.233   7.849  1.6512  4.9181  0.1636
  2324G12c C00D42967   7.802   7.506   4.866 -0.1000 -1.9042 -0.6826
  2324G12c O00B42968   7.675   7.571   4.874  0.1962  2.0986 -1.0101
  2324G12c C02542969   7.590   7.574   4.758  0.8352  0.2429 -2.3046
  2324G12c C02642970   7.512   7.446   4.719  0.3224 -0.7316  1.4524
  2324G12c H00Y42971   7.562   7.364   4.667  5.5172  4.3538 -2.2080
  2324G12c H00X42972   7.448   7.471   4.634 -1.0635 -4.9425  1.1359
  2324G12c O00C42973   7.409   7.415   4.803 -0.6663  0.0130 -0.2480
  2324G12c H00W42974   7.431   7.474   4.874  5.2330  0.2960 -2.0956
  2324G12c C02742975   7.596   7.685   4.678 -0.4068  0.1405  0.1762
  2324G12c O00D42976   7.663   7.796   4.732  0.7854  0.1882  0.6532
  2324G12c H00Z42977   7.667   7.794   4.826  1.1701 -0.7563  0.6198
  2324G12c C02842978   7.494   7.714   4.575 -1.7315  1.2766 -0.4426
  2324G12c C02942979   7.352   7.700   4.619 -0.4781  1.2946 -1.2572
  2324G12c H01042980   7.340   7.685   4.726 -1.9649  1.9268 -1.3203
  2324G12c C02T42981   7.246   7.705   4.537  0.6919 -1.0970  1.7163
  2324G12c H01O42982   7.147   7.671   4.564  2.1896 -2.2438  6.1453
  2324G12c C02S42983   7.276   7.744   4.399  1.7817  0.4025 -0.5515
  2324G12c O00J42984   7.178   7.744   4.309  0.7219 -0.2218 -0.3600
  2324G12c H01P42985   7.180   7.666   4.256-10.0197 -3.2821  2.3296
  2324G12c C02R42986   7.421   7.783   4.358  1.1323  1.2743 -2.0692
  2324G12c O00I42987   7.433   7.803   4.215  0.4768 -0.5831  0.5757
  2324G12c C02Q42988   7.524   7.730   4.151 -1.3766  1.4204 -0.0611
  2324G12c H01N42989   7.483   7.634   4.121 -0.0245 -0.0828  2.7050
  2324G12c H01R42990   7.540   7.791   4.062  1.8952 -1.3672 -1.4869
  2324G12c H01Q42991   7.617   7.688   4.190  0.3545  3.4221 -1.9120
  2324G12c C02A42992   7.518   7.750   4.443 -2.1693  0.4872  0.8970
  2324G12c H01142993   7.615   7.793   4.423 -3.1787  2.6792  0.4952
  2324G12c C00C42994   7.854   7.471   4.742  0.2192  0.9133  0.7731
  2324G12c H01242995   7.788   7.496   4.660  0.3915  2.0861  0.9824
  2324G12c C00B42996   7.977   7.421   4.731  0.3476  0.1785 -2.4043
  2324G12c C00A42997   8.038   7.363   4.607  0.0036  0.0489 -0.8836
  2324G12c C00942998   7.986   7.348   4.473 -1.6487  0.1414 -0.3212
  2324G12c C00842999   7.869   7.364   4.398 -1.2782  0.0079  2.1623
  2324G12c H01343000   7.782   7.421   4.429 -0.9620  0.7362  1.7157
  2324G12c C00743001   7.869   7.305   4.267 -0.8562 -0.5532 -2.3979
  2324G12c H01443002   7.803   7.353   4.197  3.5505  1.1063 -5.6158
  2324G12c C00643003   7.976   7.219   4.225  0.7186 -1.4635  0.5379
  2324G12c C00543004   8.076   7.197   4.314 -0.5597  0.2961 -1.9119
  2324G12c C00443005   8.164   7.088   4.319  0.8442  0.6914  1.3017
  2324G12c C00343006   8.273   7.068   4.410  1.4710  0.7366  0.4030
  2324G12c C00243007   8.341   6.945   4.401  0.4784  1.1820  0.8477
  2324G12c C00143008   8.467   6.896   4.471 -0.7139 -1.1349  0.0910
  2324G12c C00M43009   8.506   6.908   4.617  0.0563  1.0239 -2.3656
  2324G12c C00L43010   8.453   7.025   4.671 -1.2307  1.0418 -0.7822
  2324G12c C00R43011   8.442   7.035   4.814 -0.0080 -2.3671  2.1503
  2324G12c C00Q43012   8.470   6.940   4.921 -1.1937  0.0215  0.5474
  2324G12c C00V43013   8.465   7.002   5.043  0.6833 -3.7573 -0.3890
  2324G12c C00U43014   8.374   7.122   5.062 -0.6610  0.2885  1.0107
  2324G12c C00T43015   8.333   7.190   4.953  0.5570 -0.1523 -1.8138
  2324G12c C01643016   8.234   7.275   4.957  1.1621 -2.2936  0.1866
  2324G12c C01543017   8.173   7.308   5.084 -0.0269  0.3069  1.0401
  2324G12c C01043018   8.235   7.250   5.201 -0.0510  1.4797 -0.1473
  2324G12c C01143019   8.185   7.269   5.326  0.3324  2.2721 -0.0707
  2324G12c H00543020   8.179   7.214   5.419 -9.3638 -2.8121 -3.0447
  2324G12c C01243021   8.068   7.345   5.336  1.0037 -0.8542 -1.7234
  2324G12c C01743022   8.000   7.392   5.461  0.5095  1.0388 -0.2033
  2324G12c O00243023   7.857   7.400   5.457 -1.2585  0.0223 -0.0810
  2324G12c H00443024   7.825   7.341   5.524  2.3333 -3.5122 -1.3059
  2324G12c C01843025   8.079   7.402   5.566  0.9208  0.0385 -0.4810
  2324G12c O00143026   8.218   7.404   5.564  0.8545  0.2477 -0.2438
  2324G12c H00343027   8.254   7.354   5.636  0.1517  0.4869  0.2775
  2324G12c C01943028   8.042   7.409   5.721  1.3922  1.4145  1.6183
  2324G12c H00243029   8.028   7.516   5.732  0.0593  1.6929 -2.1125
  2324G12c H00143030   7.974   7.340   5.770 -2.3540  5.3753  2.2624
  2324G12c O00043031   8.156   7.407   5.790  1.5190  0.6956 -1.3094
  2324G12c C01A43032   8.166   7.484   5.894  0.1980 -1.1663 -1.1426
  2324G12c C02K43033   8.114   7.468   6.018  0.7382  2.6653  0.1114
  2324G12c O00G43034   8.014   7.371   6.034  0.2118 -0.5107  1.2102
  2324G12c C02M43035   8.052   7.227   6.039  0.6792  3.0335  1.0441
  2324G12c H01G43036   8.113   7.157   5.982 -6.7964 -3.3660  0.0591
  2324G12c H01F43037   7.968   7.159   6.052 -2.0553  5.5896 -2.4828
  2324G12c H01E43038   8.085   7.219   6.143  1.1991 -5.0661  0.5953
  2324G12c C02J43039   8.148   7.552   6.129  1.1024  1.1889  0.1417
  2324G12c H01H43040   8.087   7.542   6.217 -1.4030 -1.6545 -1.8111
  2324G12c C02I43041   8.267   7.633   6.123 -0.2246  0.5220 -0.0849
  2324G12c C02N43042   8.285   7.717   6.240 -0.1647  0.5458  3.2859
  2324G12c H01M43043   8.285   7.824   6.236  0.0919  0.6929  5.9859
  2324G12c C02O43044   8.290   7.656   6.363 -0.7089 -0.3227 -0.6190
  2324G12c H01L43045   8.274   7.556   6.403  7.1108  0.0330  4.6689
  2324G12c C02P43046   8.325   7.724   6.492 -0.2348  0.6751  0.9463
  2324G12c H01K43047   8.223   7.751   6.522  0.8949  8.4585 -0.9504
  2324G12c H01J43048   8.398   7.681   6.560  0.4368 -0.3937 -0.4346
  2324G12c O00H43049   8.411   7.837   6.459  0.5446  0.1730 -0.1332
  2324G12c H01I43050   8.495   7.803   6.434  1.3430 -1.5321  4.3390
  2324G12c C02H43051   8.299   7.669   5.987  1.1451  0.7637  0.4495
  2324G12c H01C43052   8.360   7.749   5.947 -1.1118  3.4664  2.2287
  2324G12c C02L43053   8.224   7.607   5.883  1.0061  0.9030 -0.4500
  2324G12c H01D43054   8.223   7.657   5.787 -1.6646 -1.7727 -1.8705
  2324G12c C01343055   8.010   7.417   5.230  1.3441  0.2960  1.6454
  2324G12c H00043056   7.927   7.487   5.228  1.1963  0.1669  2.8884
  2324G12c C01443057   8.061   7.392   5.097  0.6768  1.1728 -0.0155
  2324G12c C00F43058   7.992   7.436   4.979  1.2512  2.3404 -0.0107
  2324G12c C00H43059   8.172   7.322   4.848  1.6535  0.8558 -1.5729
  2324G12c C00I43060   8.238   7.302   4.729 -0.2092  2.5411 -1.5334
  2324G12c C00J43061   8.358   7.223   4.730 -0.4828  0.6693 -0.1584
  2324G12c C00Z43062   8.334   7.159   5.189  0.4540  0.1989 -0.5029
  2324G12c C00Y43063   8.390   7.107   5.291 -0.0332  0.7882  1.0409
  2324G12c H00643064   8.393   7.172   5.378 -0.4844  1.1817  0.7674
  2324G12c C00X43065   8.466   6.984   5.297 -0.2307  1.1878 -1.6694
  2324G12c O00343066   8.528   6.937   5.407  0.1165  1.0529 -1.4990
  2324G12c C01B43067   8.497   6.971   5.541  1.7957  0.7169 -2.0241
  2324G12c H00943068   8.514   7.079   5.550 -3.0996  1.2304  4.5236
  2324G12c H00843069   8.566   6.892   5.569  3.0755 -0.2276 -7.2144
  2324G12c H00743070   8.395   6.932   5.547  1.3148  2.4578  3.5038
  2324G12c C00W43071   8.502   6.935   5.163  0.2872 -0.0840  0.1116
  2324G12c O00443072   8.582   6.823   5.159 -0.1568  0.5544  1.6792
  2324G12c C01C43073   8.607   6.763   5.036 -0.3987 -1.2294 -0.8811
  2324G12c H00A43074   8.706   6.722   5.017 -0.4685 -0.7970 -2.2337
  2324G12c C00P43075   8.545   6.812   4.919 -1.2288 -1.1545  0.3541
  2324G12c C00O43076   8.521   6.725   4.801 -1.3151  1.4089 -0.1110
  2324G12c C01D43077   8.510   6.579   4.820  0.5305  0.9370 -0.7304
  2324G12c H00S43078   8.549   6.516   4.899 -2.7014 -2.1821 -1.4883
  2324G12c C01E43079   8.476   6.484   4.721  0.2942 -1.3411 -0.3439
  2324G12c O00843080   8.453   6.350   4.763 -0.8674  0.4356  0.2307
  2324G12c C01V43081   8.513   6.246   4.698  1.3768 -0.5614 -0.2227
  2324G12c C01Z43082   8.514   6.129   4.793  0.0385  0.3870  0.1859
  2324G12c H00R43083   8.498   6.030   4.751 -4.8408 -1.8758  6.6075
  2324G12c H00Q43084   8.616   6.157   4.821 -0.9654  7.2943 -1.9560
  2324G12c O00943085   8.435   6.143   4.915 -0.5244 -1.4002  0.0049
  2324G12c H00P43086   8.417   6.236   4.907 -0.3965 -1.2368  1.5287
  2324G12c C01W43087   8.587   6.243   4.588  1.5666 -1.4469 -0.4112
  2324G12c H00O43088   8.600   6.317   4.511  3.3038  0.3278  1.4968
  2324G12c C01X43089   8.690   6.143   4.556  0.3643 -1.5946 -1.3683
  2324G12c H00N43090   8.756   6.132   4.470  3.6999 -0.8828  1.0025
  2324G12c H00M43091   8.763   6.108   4.629 -3.9097  1.4003  4.7693
  2324G12c C01Y43092   8.648   6.021   4.492 -1.3148 -0.9991  0.0731
  2324G12c C02D43093   8.549   6.021   4.406  0.7432  1.6628  0.1146
  2324G12c H01943094   8.491   6.111   4.392  1.5767  1.4799 -6.1730
  2324G12c C02C43095   8.517   5.891   4.354  1.2717 -0.7486 -0.0256
  2324G12c H01A43096   8.428   5.904   4.295  2.2657 -1.3386 -1.7018
  2324G12c C02B43097   8.603   5.781   4.353  0.1834 -0.6256 -0.1078
  2324G12c O00E43098   8.584   5.676   4.268 -0.4633 -0.8813  2.7577
  2324G12c H01B43099   8.664   5.625   4.264 -0.9552 -1.5164 -1.5139
  2324G12c C02F43100   8.726   5.796   4.425  1.4971  1.2512 -0.3567
  2324G12c O00F43101   8.817   5.688   4.419 -0.0443 -0.0409  1.8931
  2324G12c C02G43102   8.939   5.694   4.479  0.3137  0.9806 -0.7707
  2324G12c H01743103   9.011   5.618   4.510 -1.3887 -0.9896 -1.5844
  2324G12c H01643104   8.920   5.714   4.585 -4.1283 -4.0117 -0.4286
  2324G12c H01543105   8.970   5.791   4.440  3.8987 -2.3310 -6.8190
  2324G12c C02E43106   8.742   5.911   4.503  0.7894 -0.4515  1.0129
  2324G12c H01843107   8.801   5.915   4.594 -4.0631 -3.4566  4.5070
  2324G12c C01F43108   8.433   6.547   4.595  1.0808 -1.4768  0.5607
  2324G12c C01G43109   8.348   6.497   4.489  0.1338  0.4514  0.9006
  2324G12c H00L43110   8.326   6.392   4.481  0.9396  0.4812 -2.8905
  2324G12c C01H43111   8.314   6.588   4.387 -0.2779  0.0193 -1.1481
  2324G12c H00B43112   8.218   6.569   4.340 -4.2981  4.0876  4.7223
  2324G12c C01I43113   8.354   6.711   4.362  0.2520  0.5574  0.8557
  2324G12c C01U43114   8.488   6.688   4.565 -0.4785 -0.8647  2.0585
  2324G12c C00S43115   8.386   7.160   4.840 -0.5096  1.3725 -0.7291
  2324G12c C00K43116   8.380   7.122   4.617  0.4550  0.8117 -0.1697
  2324G12c C00N43117   8.512   6.770   4.674 -0.4183  0.5692 -1.7906
  2324G12c C00043118   8.466   6.755   4.446  0.0571 -1.6493  0.7560
  2324G12c C01J43119   8.282   6.827   4.333 -1.1193 -0.1488 -0.8192
  2324G12c C01K43120   8.199   6.874   4.207  0.1836  2.7210  0.1493
  2324G12c C01P43121   8.158   6.796   4.084  1.6818  0.2145  0.1071
  2324G12c C01Q43122   8.177   6.654   4.069 -1.5046 -0.5455 -2.0269
  2324G12c H00G43123   8.162   6.581   4.148  3.6916  1.6702  1.2941
  2324G12c C01R43124   8.290   6.613   3.999  0.1431  0.5475  0.8272
  2324G12c H00F43125   8.330   6.671   3.917  2.8216  0.8895  2.3260
  2324G12c C01S43126   8.374   6.490   4.033 -0.2290  0.9815  0.3402
  2324G12c H00E43127   8.313   6.422   4.092  0.1795 -1.8952 -2.3666
  2324G12c H00D43128   8.384   6.447   3.933  5.2108  0.8163  0.7652
  2324G12c O00543129   8.461   6.546   4.105 -0.1893 -0.8500  0.4757
  2324G12c H00C43130   8.523   6.606   4.066 -2.2651 -0.3188 -2.2000
  2324G12c C01O43131   8.053   6.840   3.996 -0.4888 -0.8280  1.1260
  2324G12c H00H43132   8.061   6.782   3.906  4.5743 -1.6336  1.9516
  2324G12c C01N43133   8.014   6.975   3.990 -0.6381 -0.5549  0.1192
  2324G12c O00643134   7.930   7.013   3.885 -1.6256  0.6046 -0.7647
  2324G12c C01T43135   7.874   6.936   3.771  1.3390  1.1460 -0.4590
  2324G12c H00K43136   7.933   6.919   3.681 -5.7607  0.2030 -5.3415
  2324G12c H00J43137   7.774   6.980   3.763 -1.3319 -3.7928  2.8695
  2324G12c H00I43138   7.860   6.830   3.790 -2.8064  0.7164 -4.9420
  2324G12c C01M43139   8.043   7.056   4.107  2.3434  0.0403 -0.9862
  2324G12c C02043140   8.292   7.160   4.514  1.2180 -0.8409 -0.3008
  2324G12c C02143141   8.206   7.269   4.505  0.1768 -0.8052  1.0437
  2324G12c C01L43142   8.145   7.011   4.208 -0.3656  1.3076 -0.7182
  2324G12c O00743143   7.967   7.175   4.107  1.2706  1.9692 -0.4014
  2324G12c C02243144   8.104   7.283   4.428  0.1592  0.2930 -0.1963
  2324G12c C02343145   8.176   7.339   4.619 -2.7563  1.8826 -0.8218
  2324G12c C00G43146   8.049   7.387   4.850 -0.3024 -0.1112  0.8954
  2324G12c C00E43147   7.869   7.496   4.990  1.5978 -0.0864 -1.7561
  2324G12c O00A43148   7.866   7.615   5.072  0.7510 -2.1270  0.3474
  2324G12c C02443149   7.756   7.630   5.166 -0.7132 -0.5504 -0.5006
  2324G12c H00V43150   7.741   7.737   5.157  1.6145 -0.0147  1.5909
  2324G12c H00U43151   7.668   7.568   5.181 -2.9337  3.0691  2.0970
  2324G12c H00T43152   7.785   7.648   5.269  0.3319  0.7750 -1.0005
  2334G12c C00D43153   0.988  10.178  12.240  0.3957  0.4104  0.1773
  2334G12c O00B43154   0.981  10.322  12.247  1.3372  0.1600  0.9873
  2334G12c C02543155   0.934  10.388  12.133 -0.5278 -0.6694  0.0419
  2334G12c C02643156   0.985  10.382  11.985 -0.7482  0.2895 -0.2832
  2334G12c H00Y43157   0.999  10.482  11.945  3.3842 -0.1400 -0.1112
  2334G12c H00X43158   0.901  10.371  11.916 -1.8461  1.7132  0.7890
  2334G12c O00C43159   1.092  10.290  11.961 -0.4895 -0.2327  0.3067
  2334G12c H00W43160   1.156  10.345  11.920 -3.0145 -1.8287 -6.4229
  2334G12c C02743161   0.824  10.456  12.164 -0.3562 -0.2601 -0.2806
  2334G12c O00D43162   0.766  10.452  12.290 -0.9830 -0.9643  0.3659
  2334G12c H00Z43163   0.717  10.373  12.307 -3.7015  0.6103  0.0930
  2334G12c C02843164   0.734  10.499  12.050  0.6166  0.3447  0.4272
  2334G12c C02943165   0.614  10.414  12.011  0.9578 -1.2431  0.6968
  2334G12c H01043166   0.563  10.348  12.080 -1.8280 -1.5591 -1.5843
  2334G12c C02T43167   0.550  10.456  11.901  0.6142  0.2539  1.0189
  2334G12c H01O43168   0.458  10.402  11.887  0.1214  0.4750  3.2037
  2334G12c C02S43169   0.600  10.563  11.836 -0.6617 -0.3759 -1.6447
  2334G12c O00J43170   0.524  10.611  11.744 -1.2063 -0.4124 -0.2043
  2334G12c H01P43171   0.537  10.701  11.771 -1.9020 -0.9236  1.9264
  2334G12c C02R43172   0.717  10.639  11.864  0.2398 -0.9276  0.2865
  2334G12c O00I43173   0.754  10.757  11.789  1.2268 -1.4995 -2.1293
  2334G12c C02Q43174   0.838  10.864  11.845 -2.2918  1.5553 -0.3922
  2334G12c H01N43175   0.780  10.928  11.911 -0.3127  1.8521  1.1016
  2334G12c H01R43176   0.898  10.903  11.763  0.4257  2.4368  1.9274
  2334G12c H01Q43177   0.910  10.819  11.914 -4.8097 -1.7941  0.2204
  2334G12c C02A43178   0.793  10.601  11.977  0.2301  0.1432 -0.3702
  2334G12c H01143179   0.876  10.642  12.033  4.9250 -2.1249 -5.2113
  2334G12c C00C43180   1.110  10.119  12.214 -1.3561 -0.2374 -0.2464
  2334G12c H01243181   1.190  10.190  12.227  0.7453 -1.9717 -3.1154
  2334G12c C00B43182   1.138   9.981  12.237  0.3512 -0.2288  0.7914
  2334G12c C00A43183   1.256   9.913  12.265 -0.4612  0.6395  0.1729
  2334G12c C00943184   1.390   9.966  12.248  1.5329  0.8590 -1.5886
  2334G12c C00843185   1.444  10.088  12.227  0.1682 -0.1815 -0.7356
  2334G12c H01343186   1.414  10.184  12.267 -0.4929  1.1208 -4.1742
  2334G12c C00743187   1.558  10.105  12.146 -0.9457 -1.9612 -0.6981
  2334G12c H01443188   1.609  10.195  12.175 -0.0816 -1.4100 -3.6686
  2334G12c C00643189   1.615  10.003  12.090 -2.1474  0.4878  1.8741
  2334G12c C00543190   1.557   9.867  12.099 -0.9451  0.6646  0.5036
  2334G12c C00443191   1.586   9.759  12.018  2.3855 -0.6822  0.1446
  2334G12c C00343192   1.515   9.639  12.026 -0.4849 -2.2594  0.4315
  2334G12c C00243193   1.555   9.526  11.930  0.2012 -0.4721  0.4560
  2334G12c C00143194   1.486   9.407  11.884 -0.1327  0.5379  0.4700
  2334G12c C00M43195   1.342   9.409  11.864  1.2483 -0.0032 -0.2076
  2334G12c C00L43196   1.251   9.451  11.955  0.3403 -0.4083  0.4354
  2334G12c C00R43197   1.107   9.447  11.942  0.3915  0.6866  0.1142
  2334G12c C00Q43198   1.017   9.378  11.849  0.8883 -0.2039  0.3282
  2334G12c C00V43199   0.890   9.448  11.864  0.5924  0.4542 -1.0633
  2334G12c C00U43200   0.852   9.556  11.951 -0.5467  0.4354  0.1415
  2334G12c C00T43201   0.930   9.585  12.059 -0.7905  1.1024  0.5384
  2334G12c C01643202   0.919   9.696  12.135 -0.0724 -0.8632 -1.6336
  2334G12c C01543203   0.781   9.752  12.151  0.5722  1.6686 -0.5232
  2334G12c C01043204   0.690   9.704  12.051  0.2923 -0.6852  0.8277
  2334G12c C01143205   0.565   9.772  12.048 -0.6244  1.0107  0.5381
  2334G12c H00543206   0.498   9.734  11.971  0.6694 -4.5598  1.9328
  2334G12c C01243207   0.522   9.890  12.114 -0.4693 -1.2716  2.2870
  2334G12c C01743208   0.394   9.962  12.087  0.1359  0.0277  0.3652
  2334G12c O00243209   0.412  10.096  12.049 -0.0446 -0.4626  0.1724
  2334G12c H00443210   0.330  10.113  12.005 -1.3001 -2.2349  1.7437
  2334G12c C01843211   0.277   9.903  12.084 -0.1885  0.1357 -1.8680
  2334G12c O00143212   0.277   9.763  12.113  0.6200  0.0200 -1.5618
  2334G12c H00343213   0.355   9.744  12.163 -0.6784 -3.6185 -0.7176
  2334G12c C01943214   0.159   9.979  12.037 -0.1552 -0.7576  1.1900
  2334G12c H00243215   0.081   9.906  12.061 -1.9615  0.2517 -1.3563
  2334G12c H00143216   0.140  10.076  12.082  2.2322  1.3718 -2.1769
  2334G12c O00043217   0.162   9.976  11.889  0.1864  0.3861  0.7161
  2334G12c C01A43218   0.064  10.061  11.833 -0.1501  1.2667 -0.0905
  2334G12c C02K43219  -0.060   9.996  11.808 -0.1986 -1.3328 -0.5786
  2334G12c O00G43220  -0.086   9.871  11.854 -0.4509 -0.4532 -0.6233
  2334G12c C02M43221  -0.121   9.810  11.734 -0.8015  1.6061 -0.3816
  2334G12c H01G43222  -0.099   9.847  11.633 -3.7125  1.0078 -1.2927
  2334G12c H01F43223  -0.218   9.762  11.737  1.8419 -4.7010 -4.1650
  2334G12c H01E43224  -0.030   9.752  11.720 -0.9046  2.0485 -3.3535
  2334G12c C02J43225  -0.156  10.081  11.765 -0.0171  0.5695 -0.9375
  2334G12c H01H43226  -0.250  10.031  11.750  1.3988 -2.5236  0.0208
  2334G12c C02I43227  -0.142  10.201  11.705 -1.4561  1.5651  2.3861
  2334G12c C02N43228  -0.239  10.283  11.637 -1.5052  0.6475  1.0441
  2334G12c H01M43229  -0.320  10.322  11.697 -2.3731 -2.9889  2.3416
  2334G12c C02O43230  -0.235  10.295  11.504  0.7403  0.5537 -0.4321
  2334G12c H01L43231  -0.320  10.333  11.450 -4.0034 -2.5804  4.3244
  2334G12c C02P43232  -0.148  10.218  11.422  0.8009  0.0217  0.7000
  2334G12c H01K43233  -0.164  10.113  11.446 -1.8647 -0.9520 -4.6484
  2334G12c H01J43234  -0.182  10.240  11.321  2.1282  0.5868  0.3600
  2334G12c O00H43235  -0.039  10.304  11.424 -1.4453 -0.7213  0.5656
  2334G12c H01I43236   0.024  10.280  11.490 -0.6379 -1.6669 -0.5118
  2334G12c C02H43237  -0.020  10.274  11.759  1.3730  1.1918  0.1981
  2334G12c H01C43238  -0.042  10.380  11.758  1.6334  1.2448  0.1246
  2334G12c C02L43239   0.085  10.208  11.829 -0.8167  0.9724 -0.2940
  2334G12c H01D43240   0.172  10.258  11.868  1.0274 -2.8122  0.5729
  2334G12c C01343241   0.641   9.959  12.165 -0.5788 -0.8790 -0.1520
  2334G12c H00043242   0.621  10.065  12.169 -2.5381 -1.2673  7.8738
  2334G12c C01443243   0.760   9.881  12.195 -0.5485 -1.8465  1.9744
  2334G12c C00F43244   0.884   9.954  12.227  2.1898  0.9919  1.4248
  2334G12c C00H43245   1.032   9.766  12.185 -0.1077  0.8820 -0.1182
  2334G12c C00I43246   1.149   9.692  12.193 -1.6392 -0.7298 -0.3582
  2334G12c C00J43247   1.153   9.578  12.111  0.4101  0.3482 -0.4047
  2334G12c C00Z43248   0.727   9.614  11.939  0.8627  1.1140 -1.3788
  2334G12c C00Y43249   0.622   9.574  11.841  0.4988 -0.2231 -0.9564
  2334G12c H00643250   0.546   9.635  11.793  3.2182  1.5926 -3.1667
  2334G12c C00X43251   0.649   9.458  11.764 -0.4821 -0.4630 -0.4956
  2334G12c O00343252   0.551   9.393  11.689  0.9018  0.9666 -1.2583
  2334G12c C01B43253   0.541   9.470  11.567  1.0667 -0.0281  0.8186
  2334G12c H00943254   0.447   9.425  11.537  1.6111 -0.0705 -0.8414
  2334G12c H00843255   0.617   9.432  11.500 -1.3036  2.1892 -3.3195
  2334G12c H00743256   0.521   9.576  11.552 -3.4595 -1.4679 -5.2193
  2334G12c C00W43257   0.791   9.408  11.773  0.8235 -1.6142 -0.8813
  2334G12c O00443258   0.815   9.302  11.687  0.9964 -0.2130  0.2958
  2334G12c C01C43259   0.940   9.301  11.641  0.3771  2.1236  0.3621
  2334G12c H00A43260   0.952   9.288  11.535  4.2670 -4.7290  1.2905
  2334G12c C00P43261   1.051   9.319  11.724 -0.6800  1.1935 -0.2349
  2334G12c C00O43262   1.184   9.333  11.664  0.5406  0.7018  0.6063
  2334G12c C01D43263   1.198   9.301  11.529  0.3027  0.0315 -0.7983
  2334G12c H00S43264   1.119   9.297  11.455  1.4066 -3.2777 -1.8725
  2334G12c C01E43265   1.330   9.326  11.474  0.8250  1.6135  0.2331
  2334G12c O00843266   1.329   9.328  11.335 -0.4086 -0.4227 -0.3225
  2334G12c C01V43267   1.381   9.228  11.253 -0.8003 -0.6581  0.1483
  2334G12c C01Z43268   1.319   9.080  11.253  1.0292  0.2476  1.4520
  2334G12c H00R43269   1.374   8.988  11.234  4.7341  1.0990  6.7879
  2334G12c H00Q43270   1.278   9.044  11.347 -1.6780 -0.1024  0.1782
  2334G12c O00943271   1.216   9.073  11.153 -1.2317  0.8197 -0.6444
  2334G12c H00P43272   1.263   9.099  11.075  2.1400  6.9582  2.9872
  2334G12c C01W43273   1.494   9.263  11.160  1.4491  0.8336 -1.7202
  2334G12c H00O43274   1.527   9.363  11.183 -4.7807  3.2717 -2.3153
  2334G12c C01X43275   1.547   9.168  11.052  0.4152 -1.7212  1.8086
  2334G12c H00N43276   1.484   9.137  10.969 -2.8079 -0.7653  3.7786
  2334G12c H00M43277   1.557   9.233  10.965 -2.1229 -6.4687 -2.3176
  2334G12c C01Y43278   1.695   9.116  11.067  2.9671  2.6468  0.5436
  2334G12c C02D43279   1.727   9.007  10.976 -1.7475 -0.4529 -0.8124
  2334G12c H01943280   1.652   8.965  10.911  0.2003  3.8260 -6.1401
  2334G12c C02C43281   1.878   8.991  10.968 -0.0489  0.6859 -0.2995
  2334G12c H01A43282   1.940   8.919  10.918 -1.2268  1.0379 -2.2986
  2334G12c C02B43283   1.971   9.066  11.046  2.0098  0.5139  0.9517
  2334G12c O00E43284   2.099   9.067  11.012  0.2216 -1.2007  0.1582
  2334G12c H01B43285   2.113   8.976  10.991  1.8735 -1.0862  0.6580
  2334G12c C02F43286   1.919   9.161  11.133 -1.2145 -0.5623  1.1653
  2334G12c O00F43287   2.013   9.246  11.173  0.3455  0.4605  1.4864
  2334G12c C02G43288   2.018   9.304  11.304  0.0306 -0.3432 -0.3807
  2334G12c H01743289   1.918   9.280  11.341  0.6345 -2.4287 -0.0291
  2334G12c H01643290   2.022   9.409  11.275 -0.1693  0.1076  1.1631
  2334G12c H01543291   2.081   9.263  11.383  3.0837  4.5001 -0.1349
  2334G12c C02E43292   1.785   9.189  11.132  0.2493 -1.7845 -1.1962
  2334G12c H01843293   1.742   9.279  11.172  4.1311 -0.0382 -0.7319
  2334G12c C01F43294   1.446   9.329  11.551  0.1243 -0.5839  0.1695
  2334G12c C01G43295   1.580   9.354  11.495  0.6767  0.9307 -0.4858
  2334G12c H00L43296   1.616   9.393  11.400  0.0178  1.0101 -0.7045
  2334G12c C01H43297   1.677   9.401  11.601  0.4075 -0.5495  0.5911
  2334G12c H00B43298   1.768   9.435  11.552 -0.1848 -1.1177 -0.9332
  2334G12c C01I43299   1.636   9.433  11.730 -2.1557  1.0154 -1.2665
  2334G12c C01U43300   1.435   9.327  11.681 -0.8683 -0.9501 -0.8531
  2334G12c C00S43301   1.058   9.524  12.038 -0.1607 -0.8903  1.6213
  2334G12c C00K43302   1.286   9.540  12.066  0.6487 -0.5983  0.4074
  2334G12c C00N43303   1.305   9.349  11.737  1.3458 -1.7569  0.1180
  2334G12c C00043304   1.545   9.345  11.776 -0.5227  1.0153  0.1336
  2334G12c C01J43305   1.663   9.546  11.840  0.3912  1.1597  0.9285
  2334G12c C01K43306   1.756   9.659  11.853 -0.4287  0.7034  1.5107
  2334G12c C01P43307   1.874   9.682  11.795  1.4326 -0.3130  0.4162
  2334G12c C01Q43308   1.945   9.572  11.724 -1.8872 -2.2931 -0.9645
  2334G12c H00G43309   1.979   9.572  11.621  6.4623  5.7042  1.0852
  2334G12c C01R43310   1.979   9.463  11.781 -0.0400 -0.0919  0.4484
  2334G12c H00F43311   2.053   9.398  11.736 -0.8997  3.1079 -6.2319
  2334G12c C01S43312   1.958   9.429  11.930 -1.6381  1.4600 -0.1293
  2334G12c H00E43313   2.044   9.438  11.997 -0.1150 -7.1688 -0.3983
  2334G12c H00D43314   1.859   9.458  11.964 -5.9599 -6.4339 -4.4738
  2334G12c O00543315   1.918   9.299  11.938 -1.0671  0.7554  0.4208
  2334G12c H00C43316   1.826   9.321  11.948 -0.2562  6.5202 -2.3467
  2334G12c C01O43317   1.940   9.813  11.809  1.8025  0.0968  0.5288
  2334G12c H00H43318   2.047   9.808  11.794  1.7755  3.7213 -1.1586
  2334G12c C01N43319   1.884   9.928  11.862 -3.0500  0.9304  0.7261
  2334G12c O00643320   1.941  10.049  11.910 -0.1035 -0.2185 -0.4084
  2334G12c C01T43321   2.024  10.120  11.815 -0.1009  0.0253  0.3114
  2334G12c H00K43322   1.997  10.122  11.710 -3.6781  1.0870  1.1777
  2334G12c H00J43323   2.008  10.224  11.841 -3.6879 -0.2504 -0.5241
  2334G12c H00I43324   2.132  10.105  11.820  0.1869  1.6350 -0.8662
  2334G12c C01M43325   1.769   9.895  11.934  1.8830  0.8007  1.3689
  2334G12c C02043326   1.398   9.632  12.103 -0.3462 -0.5257  1.0305
  2334G12c C02143327   1.385   9.729  12.211 -0.9304  0.0235 -0.8302
  2334G12c C01L43328   1.702   9.764  11.948  0.6582 -0.5566 -0.3214
  2334G12c O00743329   1.725  10.015  11.997  1.2311 -0.7671 -0.0021
  2334G12c C02243330   1.461   9.853  12.191  0.1673 -0.8696  0.0821
  2334G12c C02343331   1.253   9.767  12.246  0.8788 -0.8284 -0.0441
  2334G12c C00G43332   1.025   9.899  12.221  0.3597  0.5069  1.5990
  2334G12c C00E43333   0.873  10.087  12.268  0.6838 -0.1515  0.5267
  2334G12c O00A43334   0.767  10.145  12.306 -0.0708  0.3509  0.0088
  2334G12c C02443335   0.742  10.117  12.444 -0.1486  1.2219  0.3380
  2334G12c H00V43336   0.641  10.083  12.466  1.4377 -5.0315 -1.0954
  2334G12c H00U43337   0.806  10.041  12.488 -0.0128 -0.7186 -3.0300
  2334G12c H00T43338   0.762  10.220  12.475 -1.5728  1.7055 -0.3324
  2344G12c C00D43339   8.327   1.280   2.196  1.6028  1.1097 -0.3316
  2344G12c O00B43340   8.334   1.154   2.142 -0.5419  1.3550 -0.4822
  2344G12c C02543341   8.378   1.147   2.010 -0.8530  0.6533 -0.9309
  2344G12c C02643342   8.264   1.085   1.935  0.1143  0.4498 -1.1586
  2344G12c H00Y43343   8.306   1.052   1.839 -4.6608  4.7416 -4.9651
  2344G12c H00X43344   8.180   1.154   1.942 -4.5555 -4.9329 -0.6038
  2344G12c O00C43345   8.239   0.958   1.972  0.9362 -0.6365  0.3065
  2344G12c H00W43346   8.145   0.950   1.970  0.5065  1.5998 -8.4567
  2344G12c C02743347   8.482   1.185   1.931 -2.5565 -1.0213 -0.6644
  2344G12c O00D43348   8.474   1.220   1.792 -0.4827 -0.5986 -0.3792
  2344G12c H00Z43349   8.462   1.134   1.756  0.8758 -0.9949  0.0666
  2344G12c C02843350   8.622   1.219   1.987 -0.1056  1.3182 -0.9422
  2344G12c C02943351   8.692   1.151   2.109  1.1941 -0.1719  3.4847
  2344G12c H01043352   8.633   1.068   2.145 -0.1329 -0.5563  0.6068
  2344G12c C02T43353   8.823   1.182   2.138 -0.4315  1.2950 -0.6851
  2344G12c H01O43354   8.868   1.127   2.220 -0.6708 -0.7533 -1.8714
  2344G12c C02S43355   8.895   1.269   2.050  0.2573 -0.6853  0.7820
  2344G12c O00J43356   9.029   1.283   2.095 -1.5102 -0.9406  0.0240
  2344G12c H01P43357   9.049   1.367   2.057 -1.2099 -4.7429 -9.6744
  2344G12c C02R43358   8.844   1.312   1.932 -0.5814 -1.8663  0.6368
  2344G12c O00I43359   8.943   1.366   1.843 -0.3397 -0.6391  1.0501
  2344G12c C02Q43360   8.997   1.259   1.772 -0.5999  0.4873  0.5125
  2344G12c H01N43361   9.007   1.311   1.677  1.3195  1.8366  1.4221
  2344G12c H01R43362   8.918   1.195   1.732 -0.3109  2.5255 -3.5894
  2344G12c H01Q43363   9.102   1.231   1.776 -1.4246 -4.1328 -4.0922
  2344G12c C02A43364   8.710   1.310   1.914  0.7951 -0.4374  0.3360
  2344G12c H01143365   8.678   1.378   1.837  6.8720  2.3800  0.0114
  2344G12c C00C43366   8.322   1.302   2.339 -0.7566 -0.8021  0.6997
  2344G12c H01243367   8.356   1.225   2.407  0.9919 -1.7610 -1.1933
  2344G12c C00B43368   8.290   1.419   2.413  1.0905  0.7410 -0.4291
  2344G12c C00A43369   8.264   1.461   2.551  0.4068  0.0127 -0.9868
  2344G12c C00943370   8.181   1.391   2.649  1.2694  1.4664 -1.3434
  2344G12c C00843371   8.087   1.292   2.632 -0.5492 -0.5789  0.8643
  2344G12c H01343372   8.090   1.212   2.559  1.3324 -4.3247  4.7828
  2344G12c C00743373   7.968   1.288   2.717  0.7802 -1.3678  1.8658
  2344G12c H01443374   7.887   1.221   2.692 -0.6993 -1.4814  6.4539
  2344G12c C00643375   7.957   1.383   2.839  1.1470  0.2464  0.7348
  2344G12c C00543376   8.041   1.494   2.829 -1.0657 -0.3104 -0.2797
  2344G12c C00443377   8.001   1.614   2.901  0.3618 -0.6450 -0.7178
  2344G12c C00343378   8.074   1.730   2.866  0.7984 -0.0082  0.7712
  2344G12c C00243379   8.010   1.858   2.921 -2.8417  1.3432 -0.2859
  2344G12c C00143380   8.029   1.997   2.895 -1.5747 -0.1531 -0.2355
  2344G12c C00M43381   8.065   2.060   2.776 -2.2765 -0.1432  0.1267
  2344G12c C00L43382   8.161   1.998   2.694  1.4689 -0.7117 -0.3577
  2344G12c C00R43383   8.177   2.034   2.558  1.0333  3.0475  1.2779
  2344G12c C00Q43384   8.119   2.135   2.463 -0.0194 -0.0827 -0.2328
  2344G12c C00V43385   8.169   2.134   2.325 -2.1767  0.8885 -0.6928
  2344G12c C00U43386   8.212   2.014   2.273 -0.8048 -0.4946 -1.7412
  2344G12c C00T43387   8.243   1.906   2.355  0.2462  0.3314  0.0650
  2344G12c C01643388   8.268   1.772   2.305 -1.0133 -0.9154 -2.0527
  2344G12c C01543389   8.277   1.764   2.167 -0.4693 -0.2465  0.5439
  2344G12c C01043390   8.262   1.877   2.086 -1.4034  1.0476  0.7747
  2344G12c C01143391   8.269   1.871   1.952 -0.1938 -0.2601 -1.5858
  2344G12c H00543392   8.266   1.969   1.905 -3.5706  0.8889  0.8541
  2344G12c C01243393   8.308   1.749   1.895  1.6186 -1.3083 -1.1070
  2344G12c C01743394   8.342   1.742   1.765 -2.1602  0.0468 -0.7951
  2344G12c O00243395   8.239   1.736   1.683 -0.4772  0.9928  0.1999
  2344G12c H00443396   8.273   1.814   1.643 -1.4553  1.0409 -0.5652
  2344G12c C01843397   8.469   1.729   1.725  0.7607  0.2301  0.7247
  2344G12c O00143398   8.567   1.748   1.798 -0.1242 -0.2080  1.4470
  2344G12c H00343399   8.641   1.778   1.748 -3.6337  4.7951 -1.2017
  2344G12c C01943400   8.518   1.715   1.582  1.3124  0.3279 -1.1398
  2344G12c H00243401   8.523   1.611   1.549  2.1283 -0.1340  0.3906
  2344G12c H00143402   8.438   1.770   1.534  2.3906  1.1604 -2.0219
  2344G12c O00043403   8.625   1.799   1.553  0.0422 -0.5170 -1.3288
  2344G12c C01A43404   8.706   1.779   1.449 -0.4265 -0.9219  1.3622
  2344G12c C02K43405   8.680   1.866   1.343  0.9547  0.7051 -1.8027
  2344G12c O00G43406   8.644   2.004   1.347 -0.0555 -0.8455  1.6686
  2344G12c C02M43407   8.526   2.024   1.259  0.8607 -1.8828  1.4206
  2344G12c H01G43408   8.449   1.955   1.295  0.8299 -0.3221  4.4669
  2344G12c H01F43409   8.467   2.107   1.296 -5.1546 -2.8222 -5.0485
  2344G12c H01E43410   8.524   2.002   1.153  4.2110 -2.0550  1.3457
  2344G12c C02J43411   8.711   1.822   1.215  1.7486 -1.7802  0.4095
  2344G12c H01H43412   8.700   1.889   1.132  5.0480  0.5514  1.7360
  2344G12c C02I43413   8.769   1.704   1.191 -0.0324 -0.8828  0.5925
  2344G12c C02N43414   8.783   1.633   1.061 -0.7943 -0.9276  0.0194
  2344G12c H01M43415   8.724   1.671   0.979  0.2687 -1.2556 -0.9134
  2344G12c C02O43416   8.866   1.535   1.035  0.3761  0.4803 -0.5639
  2344G12c H01L43417   8.935   1.512   1.114 -2.9583 -5.0795  1.0479
  2344G12c C02P43418   8.906   1.453   0.902 -0.3369  0.7914  0.9192
  2344G12c H01K43419   8.817   1.391   0.887 -1.2138  2.3046 -0.3247
  2344G12c H01J43420   8.883   1.519   0.818  3.5434  3.0473  1.5368
  2344G12c O00H43421   9.033   1.384   0.909 -0.6230 -0.7328 -1.3013
  2344G12c H01I43422   9.028   1.335   0.989  1.3681 -4.7466 -3.4471
  2344G12c C02H43423   8.769   1.623   1.286  0.1898  0.2515 -0.2064
  2344G12c H01C43424   8.801   1.521   1.266 -3.1982 -0.8148 -0.4722
  2344G12c C02L43425   8.754   1.657   1.416 -0.8035 -0.9293 -0.2781
  2344G12c H01D43426   8.763   1.583   1.495 -3.9166  0.2339  1.2355
  2344G12c C01343427   8.329   1.629   1.974  0.2244 -0.4400 -0.5506
  2344G12c H00043428   8.353   1.533   1.930 -1.4366 -0.9133 -0.4538
  2344G12c C01443429   8.273   1.632   2.107  0.0013 -0.1141  0.3329
  2344G12c C00F43430   8.272   1.522   2.194  0.3429 -0.0941  1.2664
  2344G12c C00H43431   8.288   1.664   2.392 -0.7733 -0.7314 -0.1627
  2344G12c C00I43432   8.296   1.689   2.530 -0.1363  1.3048  1.0002
  2344G12c C00J43433   8.248   1.813   2.567 -0.4382  1.3257 -0.2294
  2344G12c C00Z43434   8.221   1.999   2.137 -0.4466  1.2843  0.0244
  2344G12c C00Y43435   8.177   2.103   2.050 -1.7767  1.7112  0.1947
  2344G12c H00643436   8.173   2.128   1.945  4.4837 -6.5905 -2.5305
  2344G12c C00X43437   8.141   2.234   2.108  2.5251  1.0283 -0.0432
  2344G12c O00343438   8.164   2.353   2.034 -0.4326 -0.9717  0.5912
  2344G12c C01B43439   8.201   2.348   1.899 -0.7743 -1.1682 -1.2674
  2344G12c H00943440   8.127   2.306   1.831 -0.5832 -4.8268  0.6448
  2344G12c H00843441   8.291   2.295   1.869  1.7014  1.7744  0.5833
  2344G12c H00743442   8.221   2.447   1.858 -3.0078 -1.6640 -3.6906
  2344G12c C00W43443   8.146   2.237   2.247  0.0043  0.2346  0.5497
  2344G12c O00443444   8.101   2.355   2.312 -0.1759  0.0355 -1.4846
  2344G12c C01C43445   8.000   2.353   2.412  1.0555  0.9771  0.6225
  2344G12c H00A43446   7.992   2.439   2.478  1.8648  2.1103 -0.7128
  2344G12c C00P43447   8.014   2.236   2.487  1.8308  0.5870 -0.7373
  2344G12c C00O43448   7.934   2.236   2.609  0.2079 -0.8409 -1.1971
  2344G12c C01D43449   7.789   2.281   2.585 -0.9283 -0.2583  0.2049
  2344G12c H00S43450   7.766   2.352   2.507 -1.5917  0.5557  1.1288
  2344G12c C01E43451   7.703   2.247   2.697 -0.7797  0.2738 -1.4128
  2344G12c O00843452   7.582   2.324   2.684 -0.0908  1.0390 -1.2371
  2344G12c C01V43453   7.566   2.434   2.757  0.7919  0.0625 -0.2619
  2344G12c C01Z43454   7.433   2.511   2.750  0.7397 -1.2647 -0.7754
  2344G12c H00R43455   7.400   2.512   2.646 -1.8469 -1.9229  0.0089
  2344G12c H00Q43456   7.421   2.605   2.804 -1.1890 -1.6272 -0.5424
  2344G12c O00943457   7.309   2.461   2.786  1.1782  0.4327 -0.5607
  2344G12c H00P43458   7.265   2.447   2.704  0.3229 -2.4490  0.3339
  2344G12c C01W43459   7.671   2.489   2.823  0.7703  0.9384  0.0605
  2344G12c H00O43460   7.767   2.450   2.793  0.2802  0.0647 -0.3703
  2344G12c C01X43461   7.676   2.622   2.924 -0.3166  0.7609  1.0142
  2344G12c H00N43462   7.781   2.640   2.902  0.8695 -5.6761  0.2922
  2344G12c H00M43463   7.636   2.716   2.886  0.4814 -0.1997 -2.3324
  2344G12c C01Y43464   7.608   2.616   3.061  0.8569  0.4899 -0.0785
  2344G12c C02D43465   7.470   2.591   3.084 -1.0315  0.8876  0.2955
  2344G12c H01943466   7.429   2.568   2.987  2.0441 -1.7001 -0.4986
  2344G12c C02C43467   7.429   2.553   3.215 -0.8310  0.0832  0.4935
  2344G12c H01A43468   7.332   2.537   3.259  3.1694 -1.0831  9.9218
  2344G12c C02B43469   7.519   2.519   3.308 -1.4744  0.4238 -0.1566
  2344G12c O00E43470   7.483   2.478   3.432 -0.4228 -1.0223 -0.0620
  2344G12c H01B43471   7.546   2.496   3.500 -5.1666  3.9345  3.4849
  2344G12c C02F43472   7.649   2.566   3.296  0.3052 -0.1209  1.0197
  2344G12c O00F43473   7.738   2.533   3.389 -0.4014 -1.8430  0.3247
  2344G12c C02G43474   7.810   2.617   3.487 -0.9226 -0.9509  0.8213
  2344G12c H01743475   7.725   2.660   3.540 -0.3237  3.4830 -1.6290
  2344G12c H01643476   7.888   2.567   3.545 -0.6979 -6.1880 -3.5619
  2344G12c H01543477   7.867   2.691   3.433  3.7267 -3.6887  1.6726
  2344G12c C02E43478   7.690   2.602   3.164 -1.5827 -0.5247  1.4325
  2344G12c H01843479   7.791   2.632   3.138 -0.0318 -3.2573  4.0458
  2344G12c C01F43480   7.736   2.183   2.815 -0.3815 -0.1738  1.1630
  2344G12c C01G43481   7.630   2.139   2.901  0.7572  0.7966 -0.0814
  2344G12c H00L43482   7.532   2.161   2.864  1.2092  0.3968 -1.5477
  2344G12c C01H43483   7.672   2.030   2.999  0.3509 -0.7723 -0.0881
  2344G12c H00B43484   7.597   1.962   3.035  4.4572 -5.7062 -0.3775
  2344G12c C01I43485   7.809   1.989   2.996 -1.7104 -1.3557 -0.8332
  2344G12c C01U43486   7.860   2.144   2.835  0.1126 -0.9121 -1.8832
  2344G12c C00S43487   8.237   1.921   2.497  0.6647 -0.9556  0.3469
  2344G12c C00K43488   8.204   1.851   2.697  0.5433  0.7651  0.1613
  2344G12c C00N43489   7.965   2.160   2.733  0.4500  0.2465  0.3783
  2344G12c C00043490   7.913   2.056   2.938  0.2343 -1.1008 -0.6613
  2344G12c C01J43491   7.884   1.859   3.006 -0.5366 -0.1089 -1.1157
  2344G12c C01K43492   7.829   1.726   3.033  0.6736 -0.4500 -0.3170
  2344G12c C01P43493   7.753   1.706   3.151  0.6734  1.2513 -1.7642
  2344G12c C01Q43494   7.706   1.820   3.241 -0.6068  0.4921  1.3724
  2344G12c H00G43495   7.605   1.854   3.220 -1.7562 -1.7230  3.0733
  2344G12c C01R43496   7.778   1.869   3.338 -0.6426 -1.3062  0.3121
  2344G12c H00F43497   7.879   1.833   3.347  2.5129  5.1420 -5.1137
  2344G12c C01S43498   7.723   1.967   3.444  0.4569 -0.4509 -1.0955
  2344G12c H00E43499   7.780   1.987   3.535 -1.9143  6.4748 -0.8490
  2344G12c H00D43500   7.660   2.046   3.403 -1.9051 -0.6395  1.9429
  2344G12c O00543501   7.646   1.875   3.513  0.5127  1.2456  0.7909
  2344G12c H00C43502   7.554   1.890   3.498  0.5329 -1.2445 -2.5099
  2344G12c C01O43503   7.682   1.587   3.177 -0.4567  0.3885 -0.4708
  2344G12c H00H43504   7.631   1.567   3.270  9.4272 -7.1001  4.3084
  2344G12c C01N43505   7.733   1.462   3.122  0.9018 -0.9191 -0.9355
  2344G12c O00643506   7.659   1.355   3.153 -1.2313 -0.6997 -0.4043
  2344G12c C01T43507   7.740   1.245   3.176  1.3796 -0.2187 -1.6208
  2344G12c H00K43508   7.848   1.249   3.187  0.9487 -1.6105  5.6391
  2344G12c H00J43509   7.724   1.216   3.279 -2.0594  5.5047 -0.3457
  2344G12c H00I43510   7.704   1.173   3.101  2.1500 -4.4358  1.8765
  2344G12c C01M43511   7.838   1.466   3.018 -0.0986 -0.2732 -1.0910
  2344G12c C02043512   8.190   1.736   2.769  0.6482  1.0027  1.4016
  2344G12c C02143513   8.246   1.606   2.734 -1.9605 -0.0181  1.7406
  2344G12c C01L43514   7.891   1.604   2.981  0.4433  1.3759  0.3065
  2344G12c O00743515   7.853   1.367   2.924  0.2837  0.3895 -0.2575
  2344G12c C02243516   8.165   1.492   2.749 -0.6122  0.9419  0.8147
  2344G12c C02343517   8.311   1.580   2.614 -0.7748  0.2840 -0.9053
  2344G12c C00G43518   8.303   1.537   2.336  0.2449 -1.1414 -1.5786
  2344G12c C00E43519   8.275   1.394   2.131  0.6200  1.1671 -0.3498
  2344G12c O00A43520   8.223   1.378   1.992  0.1620  0.6105  0.7264
  2344G12c C02443521   8.067   1.396   2.001 -0.5513  1.2508 -2.6423
  2344G12c H00V43522   8.045   1.321   2.077 -0.6263  2.2546 -1.6647
  2344G12c H00U43523   8.068   1.495   2.047  7.3524 -2.0375  5.7167
  2344G12c H00T43524   7.999   1.368   1.920 -1.2824  4.0936 -3.0652
  2354G12c C00D43525  10.623   4.996  10.788  1.1283  0.9144  0.1591
  2354G12c O00B43526  10.713   5.047  10.882 -0.7583  0.1045  0.0168
  2354G12c C02543527  10.676   5.166  10.937 -0.5555  0.8702 -0.2587
  2354G12c C02643528  10.601   5.166  11.077  0.3929 -0.1619 -0.2920
  2354G12c H00Y43529  10.503   5.212  11.065  1.0240  3.4273  6.0560
  2354G12c H00X43530  10.602   5.073  11.133  3.6146 -1.1850 -1.8894
  2354G12c O00C43531  10.683   5.232  11.166 -0.9309 -0.8061 -0.2329
  2354G12c H00W43532  10.688   5.321  11.133 -2.9092 -0.4573  0.3014
  2354G12c C02743533  10.676   5.277  10.871 -0.7368 -0.0976  1.2717
  2354G12c O00D43534  10.637   5.391  10.932  0.1422 -0.6399  0.8027
  2354G12c H00Z43535  10.680   5.475  10.934  2.8057 -1.8962 -0.6352
  2354G12c C02843536  10.719   5.287  10.734 -0.2878  1.0328  0.1743
  2354G12c C02943537  10.848   5.256  10.680  1.2353  0.4923 -0.1361
  2354G12c H01043538  10.924   5.227  10.751 -0.0741  3.8531  2.8105
  2354G12c C02T43539  10.842   5.215  10.545  0.1568  0.4072  0.8357
  2354G12c H01O43540  10.925   5.160  10.503 -2.8558  0.4607 -6.0016
  2354G12c C02S43541  10.732   5.227  10.455  0.6792  0.8760  0.5331
  2354G12c O00J43542  10.736   5.199  10.330 -1.4969 -0.0070 -0.0527
  2354G12c H01P43543  10.668   5.136  10.314 -2.7101  1.7773 -2.0830
  2354G12c C02R43544  10.603   5.282  10.496 -0.3522 -1.0451  1.8834
  2354G12c O00I43545  10.501   5.283  10.411  1.4430  0.3151 -0.1745
  2354G12c C02Q43546  10.369   5.295  10.456 -0.7917  0.5977  0.8992
  2354G12c H01N43547  10.298   5.264  10.379  1.2907 -0.1417 -0.7780
  2354G12c H01R43548  10.338   5.271  10.558  4.3374  3.2159  3.2362
  2354G12c H01Q43549  10.373   5.404  10.456 -1.4571  0.6390 -1.0239
  2354G12c C02A43550  10.613   5.330  10.638 -0.1083 -0.9324  0.4053
  2354G12c H01143551  10.533   5.389  10.680  3.0523  3.2140  0.9047
  2354G12c C00C43552  10.484   5.025  10.779  0.7076  0.1040  1.1421
  2354G12c H01243553  10.448   5.078  10.866 -1.0476 -0.3232  0.6970
  2354G12c C00B43554  10.400   4.982  10.674 -1.0145  1.2971 -0.9255
  2354G12c C00A43555  10.256   4.987  10.680 -0.5277 -1.1118  0.2186
  2354G12c C00943556  10.165   4.999  10.793  0.5749  0.0465 -1.4943
  2354G12c C00843557  10.175   5.038  10.927 -1.9604  0.8034  0.9231
  2354G12c H01343558  10.270   5.074  10.962 -0.1812 -3.1560  0.4750
  2354G12c C00743559  10.080   4.970  11.019 -1.6993 -0.6901 -1.2252
  2354G12c H01443560  10.112   4.972  11.122  1.2293 -1.8826 -2.0600
  2354G12c C00643561   9.962   4.894  10.972 -0.4260  1.5041 -0.3664
  2354G12c C00543562   9.953   4.873  10.821 -0.6457  1.0867  0.6498
  2354G12c C00443563   9.880   4.760  10.776 -1.2147  0.7510 -1.3370
  2354G12c C00343564   9.898   4.710  10.649  0.7462 -0.7279  1.2290
  2354G12c C00243565   9.828   4.598  10.598  2.3010 -0.6243  1.7558
  2354G12c C00143566   9.796   4.558  10.464  0.1008 -0.4249  1.6112
  2354G12c C00M43567   9.882   4.540  10.348 -1.4233 -0.6087  0.1519
  2354G12c C00L43568   9.989   4.637  10.339  0.4952 -0.4440  1.4098
  2354G12c C00R43569  10.109   4.570  10.294  0.2273 -1.5617  0.5130
  2354G12c C00Q43570  10.151   4.464  10.207 -0.4561  1.8880  0.2855
  2354G12c C00V43571  10.282   4.455  10.179  0.6224  0.3764  0.2737
  2354G12c C00U43572  10.378   4.547  10.238  1.1032  0.0414 -0.5569
  2354G12c C00T43573  10.333   4.651  10.318 -1.8090 -0.2819  0.4650
  2354G12c C01643574  10.430   4.743  10.385  0.0295  0.9246 -0.2927
  2354G12c C01543575  10.568   4.714  10.387 -0.8729 -1.4344 -0.7414
  2354G12c C01043576  10.608   4.632  10.281 -0.0779  0.3847 -0.1714
  2354G12c C01143577  10.751   4.648  10.230 -0.8221 -0.4757  0.1647
  2354G12c H00543578  10.809   4.581  10.169  7.8898  2.7552  4.1615
  2354G12c C01243579  10.834   4.741  10.308  0.4916  0.3097  1.1763
  2354G12c C01743580  10.973   4.752  10.286  1.2579 -0.1756  0.0912
  2354G12c O00243581  11.059   4.667  10.334  0.5996 -1.4941  0.3477
  2354G12c H00443582  11.126   4.719  10.291  1.4418 -2.3105  0.6476
  2354G12c C01843583  11.009   4.844  10.195 -0.0210 -0.2406  0.9328
  2354G12c O00143584  10.909   4.934  10.175 -0.4838 -0.0739 -1.1526
  2354G12c H00343585  10.832   4.896  10.213  1.7239 -2.2250  1.3627
  2354G12c C01943586  11.138   4.867  10.116  0.1127  0.7757  0.4398
  2354G12c H00243587  11.138   4.803  10.029  1.7025 -1.7498  2.2372
  2354G12c H00143588  11.125   4.960  10.060 -1.5281  2.1571  2.9683
  2354G12c O00043589  11.257   4.858  10.202 -1.0085 -0.2357  0.9281
  2354G12c C01A43590  11.348   4.953  10.234 -0.8109 -2.3510  1.1258
  2354G12c C02K43591  11.322   5.081  10.278 -0.4641 -0.7720  0.3122
  2354G12c O00G43592  11.190   5.132  10.305 -0.7627  0.8804  0.0464
  2354G12c C02M43593  11.177   5.248  10.378 -0.6528 -0.2999 -0.2432
  2354G12c H01G43594  11.073   5.267  10.353 -1.4791  2.2202  4.3222
  2354G12c H01F43595  11.225   5.338  10.339  0.0297  0.3532  1.9773
  2354G12c H01E43596  11.209   5.258  10.482  0.5799 -2.9509 -0.3346
  2354G12c C02J43597  11.437   5.162  10.291 -0.0564 -0.4815  0.1115
  2354G12c H01H43598  11.429   5.252  10.349  1.9635 -1.4631  1.9778
  2354G12c C02I43599  11.571   5.129  10.262  0.1280  0.3597  0.5566
  2354G12c C02N43600  11.655   5.245  10.267  1.1455 -0.9164  2.2521
  2354G12c H01M43601  11.655   5.284  10.368 -0.0684 -1.1725  2.3624
  2354G12c C02O43602  11.722   5.281  10.161  0.2620  1.4600 -0.7923
  2354G12c H01L43603  11.792   5.360  10.185 -3.2229  4.8521 -1.2540
  2354G12c C02P43604  11.719   5.218  10.005 -0.5230  0.5101 -0.9431
  2354G12c H01K43605  11.788   5.156   9.948  2.9581  2.9023  0.5194
  2354G12c H01J43606  11.619   5.174  10.015 -0.3959 -1.1833 -5.7795
  2354G12c O00H43607  11.679   5.338   9.931  0.6859 -0.0439 -0.8081
  2354G12c H01I43608  11.652   5.315   9.844 -2.7259  0.9221 -0.0899
  2354G12c C02H43609  11.604   5.005  10.207  0.9173  0.2702  0.4315
  2354G12c H01C43610  11.699   4.994  10.158 -1.4743  1.8811 -4.9754
  2354G12c C02L43611  11.486   4.911  10.220 -1.9695  0.4422  1.4776
  2354G12c H01D43612  11.485   4.803  10.217  4.2114  0.2033  2.6165
  2354G12c C01343613  10.783   4.824  10.402 -0.0477  0.0412  0.5439
  2354G12c H00043614  10.852   4.905  10.421 -1.1451  0.9190  0.8181
  2354G12c C01443615  10.654   4.800  10.457 -0.0849 -0.4827 -0.7521
  2354G12c C00F43616  10.590   4.853  10.578  0.3632  0.7699  0.2739
  2354G12c C00H43617  10.385   4.836  10.460  0.8435  0.7123 -0.9615
  2354G12c C00I43618  10.244   4.843  10.480  0.2934  0.1406 -0.7320
  2354G12c C00J43619  10.166   4.774  10.401  0.8554  0.3190 -2.1627
  2354G12c C00Z43620  10.514   4.554  10.208 -1.2929 -1.5237 -0.9923
  2354G12c C00Y43621  10.553   4.482  10.100  0.5610  1.5238  1.5448
  2354G12c H00643622  10.652   4.485  10.058  0.6181  1.8095  1.7006
  2354G12c C00X43623  10.469   4.400  10.024 -0.3918  0.6873  0.4766
  2354G12c O00343624  10.506   4.318   9.915  0.5371  0.1196 -0.0923
  2354G12c C01B43625  10.475   4.371   9.795 -0.9300 -2.4132 -0.9652
  2354G12c H00943626  10.367   4.389   9.792 -0.9333 -2.4389 -1.0164
  2354G12c H00843627  10.509   4.282   9.743 -0.8920 -3.1522  0.3155
  2354G12c H00743628  10.521   4.449   9.733  2.6084 -1.8872  2.1335
  2354G12c C00W43629  10.325   4.387  10.062  0.9926  0.5974 -0.4195
  2354G12c O00443630  10.255   4.294   9.988 -1.1095 -0.6928 -0.9082
  2354G12c C01C43631  10.142   4.272  10.056  1.0159 -1.1902  0.5353
  2354G12c H00A43632  10.063   4.208  10.019 -1.0827  2.6639 -2.0052
  2354G12c C00P43633  10.072   4.357  10.157  1.1383  0.6971  0.1972
  2354G12c C00O43634   9.969   4.314  10.251 -0.1634  1.1100  0.4316
  2354G12c C01D43635   9.960   4.172  10.263  0.5531 -0.8270 -0.6809
  2354G12c H00S43636  10.033   4.102  10.225  2.2284 -0.5200  1.8475
  2354G12c C01E43637   9.884   4.114  10.360 -0.1384 -0.8867 -0.3152
  2354G12c O00843638   9.877   3.978  10.416 -0.8951 -0.0324  0.0426
  2354G12c C01V43639   9.956   3.887  10.347  1.4539 -0.8521 -1.5256
  2354G12c C01Z43640   9.876   3.792  10.258  0.6852 -0.3741 -0.7930
  2354G12c H00R43641   9.779   3.824  10.221 -1.3417 -6.2898 -1.0238
  2354G12c H00Q43642   9.929   3.793  10.163  0.6531  6.2283 -0.9415
  2354G12c O00943643   9.891   3.653  10.308 -0.4494  0.0565 -0.9833
  2354G12c H00P43644   9.922   3.672  10.395  0.5253 -3.2139 -0.5592
  2354G12c C01W43645  10.080   3.858  10.393 -1.0620 -1.9975 -1.1264
  2354G12c H00O43646  10.078   3.892  10.495 -0.3761 -3.0857 -0.7330
  2354G12c C01X43647  10.181   3.730  10.357  1.5863  1.0289 -0.5018
  2354G12c H00N43648  10.171   3.650  10.430 -2.7848 -2.9667 -5.0641
  2354G12c H00M43649  10.141   3.711  10.257  1.7091 -2.4220  0.0495
  2354G12c C01Y43650  10.340   3.729  10.364  0.5237 -0.3579  0.7284
  2354G12c C02D43651  10.398   3.860  10.359 -0.9508  0.0594 -1.7509
  2354G12c H01943652  10.332   3.946  10.364 -0.6111  0.3454  9.3165
  2354G12c C02C43653  10.541   3.886  10.382 -0.5554 -1.7759  0.4075
  2354G12c H01A43654  10.566   3.986  10.413  0.8684 -1.8168 -0.6032
  2354G12c C02B43655  10.622   3.772  10.392 -1.1954  0.5821 -1.4037
  2354G12c O00E43656  10.734   3.797  10.469  1.4248 -0.1524  0.7977
  2354G12c H01B43657  10.739   3.886  10.437  2.0295  1.0504  4.0155
  2354G12c C02F43658  10.567   3.646  10.408  0.6114 -0.6325  0.2616
  2354G12c O00F43659  10.654   3.533  10.417  0.8332 -0.5972 -1.2215
  2354G12c C02G43660  10.631   3.467  10.536  0.3981 -2.2220 -1.2734
  2354G12c H01743661  10.728   3.441  10.578  0.0364  0.9732  1.7089
  2354G12c H01643662  10.592   3.366  10.521  5.7372 -4.3043 -2.2868
  2354G12c H01543663  10.561   3.499  10.614  1.8032 -3.5710  0.5740
  2354G12c C02E43664  10.426   3.623  10.388  0.6755  1.4670 -1.2427
  2354G12c H01843665  10.404   3.518  10.400  3.3853  0.9601 -0.3952
  2354G12c C01F43666   9.802   4.200  10.430 -1.3030  1.9386 -1.7421
  2354G12c C01G43667   9.757   4.175  10.566  1.3393  0.8202 -0.4786
  2354G12c H00L43668   9.769   4.083  10.621 -2.9599  0.5403  0.2036
  2354G12c C01H43669   9.738   4.259  10.677  0.5353  1.2776 -0.5040
  2354G12c H00B43670   9.775   4.219  10.770 -0.6877  8.9675  3.6785
  2354G12c C01I43671   9.740   4.395  10.646  0.0391 -1.1084  0.2854
  2354G12c C01U43672   9.807   4.334  10.409  1.4866 -1.0516 -0.7047
  2354G12c C00S43673  10.206   4.655  10.347  0.9470  0.1407  1.1540
  2354G12c C00K43674  10.031   4.728  10.422 -0.5592 -1.3053  0.0767
  2354G12c C00N43675   9.896   4.399  10.328 -0.0670  2.0511  0.3416
  2354G12c C00043676   9.748   4.425  10.489  0.8046 -1.7572 -0.9858
  2354G12c C01J43677   9.793   4.515  10.708  0.0470 -0.2470  0.4060
  2354G12c C01K43678   9.739   4.569  10.833 -0.2804  1.2455  0.4065
  2354G12c C01P43679   9.655   4.514  10.940 -1.1571  0.5415 -1.1226
  2354G12c C01Q43680   9.592   4.404  10.929  0.8119  0.6770  1.1128
  2354G12c H00G43681   9.611   4.300  10.952  4.6491  0.2834 -3.1869
  2354G12c C01R43682   9.453   4.417  10.923 -1.1843  0.0618  0.2172
  2354G12c H00F43683   9.387   4.502  10.917 -2.6982 -1.2260 -2.3726
  2354G12c C01S43684   9.351   4.298  10.915 -0.3183 -2.0532  1.8098
  2354G12c H00E43685   9.380   4.212  10.855  3.8785  0.9911 -0.8296
  2354G12c H00D43686   9.333   4.285  11.022 -0.8624  0.5082  2.0715
  2354G12c O00543687   9.276   4.349  10.798 -0.4323  0.2317 -1.0398
  2354G12c H00C43688   9.288   4.443  10.807 -6.3922  0.9196  3.2662
  2354G12c C01O43689   9.662   4.566  11.075  0.9174  1.5611  0.5087
  2354G12c H00H43690   9.610   4.506  11.149  1.2261  0.4585 -0.1593
  2354G12c C01N43691   9.741   4.671  11.111 -0.9409  0.6915 -0.0425
  2354G12c O00643692   9.746   4.697  11.244  0.3100 -0.4805 -0.1333
  2354G12c C01T43693   9.782   4.819  11.295  0.1506  0.6850 -1.2054
  2354G12c H00K43694   9.783   4.820  11.404  4.6820  0.5812 -1.1663
  2354G12c H00J43695   9.736   4.913  11.267 -2.2488 -0.0474  0.1034
  2354G12c H00I43696   9.888   4.821  11.272  1.6201  6.9947  4.6778
  2354G12c C01M43697   9.815   4.729  10.998 -0.3628 -0.3517 -1.1563
  2354G12c C02043698   9.984   4.791  10.552  0.7645 -0.1216  1.9182
  2354G12c C02143699  10.044   4.902  10.610 -0.8292 -0.6316 -1.2105
  2354G12c C01L43700   9.810   4.683  10.865  0.1128  2.7597 -1.6931
  2354G12c O00743701   9.917   4.808  11.048  1.2692  0.0947  0.0113
  2354G12c C02243702  10.042   4.942  10.738 -1.3891  1.3376 -2.5455
  2354G12c C02343703  10.180   4.922  10.580 -0.0474  0.5857 -0.5348
  2354G12c C00G43704  10.454   4.907  10.565  0.5122 -1.0060 -1.2551
  2354G12c C00E43705  10.672   4.928  10.675 -1.3543  1.3865  0.1571
  2354G12c O00A43706  10.815   4.912  10.675 -0.0916 -0.7904  0.1237
  2354G12c C02443707  10.858   4.818  10.775  0.5663  0.1886  0.4710
  2354G12c H00V43708  10.830   4.832  10.879 -6.6087 -1.6483 -0.9374
  2354G12c H00U43709  10.841   4.711  10.760 -1.2997 -0.0750  4.1011
  2354G12c H00T43710  10.966   4.800  10.779  0.6925  1.3819  5.2061
  2364G12c C00D43711   7.943   7.141  11.566  0.2078 -0.8118  0.3586
  2364G12c O00B43712   7.848   7.202  11.649  1.0800 -0.6349 -1.1265
  2364G12c C02543713   7.783   7.129  11.751 -2.1452 -0.6021 -0.8668
  2364G12c C02643714   7.690   7.027  11.689  0.2026 -0.2011  0.2810
  2364G12c H00Y43715   7.676   7.020  11.581  1.1976 -1.2031  0.2066
  2364G12c H00X43716   7.728   6.926  11.701  2.1555 -0.1091 -4.1414
  2364G12c O00C43717   7.559   7.079  11.714 -0.5624 -0.3882 -0.1053
  2364G12c H00W43718   7.588   7.142  11.778 -0.4400 -2.6765  2.1639
  2364G12c C02743719   7.860   7.126  11.869 -2.1432 -0.5406  0.5399
  2364G12c O00D43720   7.940   7.232  11.872 -0.4454 -0.7572 -0.5675
  2364G12c H00Z43721   7.921   7.313  11.828  0.5508 -0.0497  0.2497
  2364G12c C02843722   7.843   7.017  11.978 -0.1997 -0.1004 -0.9906
  2364G12c C02943723   7.736   7.021  12.070 -0.6832  0.8070  0.8345
  2364G12c H01043724   7.679   7.111  12.054  3.8861  4.1444  2.2723
  2364G12c C02T43725   7.740   6.930  12.175 -0.1016  1.2926 -0.4167
  2364G12c H01O43726   7.690   6.944  12.270  0.6219 -1.4377  0.4129
  2364G12c C02S43727   7.819   6.820  12.159 -0.2964  0.5010  1.2381
  2364G12c O00J43728   7.821   6.713  12.242 -0.5585  0.2033 -0.9090
  2364G12c H01P43729   7.755   6.724  12.309  3.0662  3.4145  2.4152
  2364G12c C02R43730   7.899   6.798  12.044 -0.5195 -0.8681 -0.3929
  2364G12c O00I43731   7.936   6.672  12.030 -0.4931  0.0249 -0.6681
  2364G12c C02Q43732   7.970   6.596  11.908 -0.7759  0.6635 -1.3011
  2364G12c H01N43733   8.042   6.644  11.840 -1.7375  6.4370  1.4568
  2364G12c H01R43734   7.890   6.552  11.848  1.1647 -1.9897 -2.0371
  2364G12c H01Q43735   7.984   6.495  11.945  0.4653  1.7594  1.3146
  2364G12c C02A43736   7.919   6.907  11.954 -1.0947 -0.5934 -0.5934
  2364G12c H01143737   7.980   6.853  11.884  0.3584  3.3461 -2.4913
  2364G12c C00C43738   7.951   7.019  11.526 -0.5508 -0.1896  0.1034
  2364G12c H01243739   7.894   6.941  11.574 -5.2153  2.2286 -1.2225
  2364G12c C00B43740   8.048   6.969  11.437 -0.4976 -1.1958 -0.5366
  2364G12c C00A43741   8.079   6.833  11.429  0.0755 -0.4548 -0.7033
  2364G12c C00943742   8.022   6.713  11.483  0.8719 -1.3781  0.5112
  2364G12c C00843743   7.915   6.661  11.563 -1.4256  0.8532 -1.1681
  2364G12c H01343744   7.827   6.711  11.600  0.6563  5.4510 -2.0460
  2364G12c C00743745   7.932   6.526  11.614 -0.4244  0.6159  0.0654
  2364G12c H01443746   7.855   6.467  11.661  0.0209  3.1968  4.3605
  2364G12c C00643747   8.060   6.458  11.626 -0.2217 -1.5025 -2.3268
  2364G12c C00543748   8.148   6.504  11.531  0.1020 -1.2656  0.9414
  2364G12c C00443749   8.282   6.456  11.528  1.3734 -1.0437 -0.5252
  2364G12c C00343750   8.382   6.515  11.440 -0.3283  0.0827  1.6927
  2364G12c C00243751   8.521   6.455  11.455 -0.2474 -2.3678  1.5986
  2364G12c C00143752   8.642   6.496  11.379  1.8697 -0.1170  0.4108
  2364G12c C00M43753   8.684   6.635  11.341  0.4398  0.1257 -0.5226
  2364G12c C00L43754   8.597   6.744  11.308 -0.3059  0.8531  0.0079
  2364G12c C00R43755   8.637   6.872  11.249  0.5564 -0.5171  0.2277
  2364G12c C00Q43756   8.761   6.937  11.285 -0.8123  1.4171 -0.0458
  2364G12c C00V43757   8.746   7.086  11.275  0.6922 -0.7201 -2.2843
  2364G12c C00U43758   8.616   7.135  11.283  1.7998  1.0685 -0.4315
  2364G12c C00T43759   8.501   7.066  11.282  0.3728 -0.5048  0.4305
  2364G12c C01643760   8.379   7.107  11.294  0.3525  0.1026  0.7854
  2364G12c C01543761   8.346   7.239  11.311  0.5702  0.7221 -0.4195
  2364G12c C01043762   8.460   7.323  11.304 -0.2689 -1.2167  1.6707
  2364G12c C01143763   8.457   7.468  11.297  0.6032 -1.0214  1.4316
  2364G12c H00543764   8.526   7.542  11.259 -3.5336  2.2610 -0.1617
  2364G12c C01243765   8.340   7.523  11.342 -1.6206  0.8237  0.0162
  2364G12c C01743766   8.336   7.673  11.348 -2.0103  2.4703  1.0619
  2364G12c O00243767   8.239   7.754  11.299 -0.0524 -0.6003 -1.3478
  2364G12c H00443768   8.221   7.734  11.209  3.8568  0.6737 -2.4794
  2364G12c C01843769   8.437   7.721  11.415  0.6590  1.8652  0.6654
  2364G12c O00143770   8.548   7.674  11.469  0.6900  0.0991 -1.7367
  2364G12c H00343771   8.598   7.753  11.485  3.2233 -0.7832 -4.6856
  2364G12c C01943772   8.455   7.872  11.440 -1.7035  0.3655  1.9193
  2364G12c H00243773   8.400   7.924  11.362  1.5116 -1.2721 -1.5898
  2364G12c H00143774   8.403   7.897  11.533  1.4411  1.6562  3.4157
  2364G12c O00043775   8.594   7.914  11.403  0.5518 -0.6319 -0.5060
  2364G12c C01A43776   8.642   8.025  11.460  0.2144 -0.8502  0.7998
  2364G12c C02K43777   8.745   8.070  11.379  0.1901 -1.1676 -0.7316
  2364G12c O00G43778   8.758   8.041  11.260 -0.3295 -0.0774  0.8175
  2364G12c C02M43779   8.764   8.154  11.169  0.6517 -1.0520 -1.5277
  2364G12c H01G43780   8.662   8.191  11.157  1.2485  1.3579  0.4817
  2364G12c H01F43781   8.795   8.111  11.073 -1.7456 -2.5154 -1.7004
  2364G12c H01E43782   8.840   8.231  11.185 -1.7635  0.8414  1.2397
  2364G12c C02J43783   8.850   8.147  11.446  1.1586  0.4960 -0.0421
  2364G12c H01H43784   8.941   8.157  11.389  1.4437  2.4603  0.7080
  2364G12c C02I43785   8.864   8.173  11.582 -0.3334 -0.2863  1.1541
  2364G12c C02N43786   8.983   8.221  11.662 -1.5237  0.9048 -1.3474
  2364G12c H01M43787   8.963   8.278  11.752 -2.5708  3.9102 -3.4060
  2364G12c C02O43788   9.110   8.196  11.606  0.4469 -0.8635 -0.1211
  2364G12c H01L43789   9.107   8.158  11.505 -3.0156  0.8088 -0.7547
  2364G12c C02P43790   9.247   8.240  11.656 -3.3501  0.2738 -1.9684
  2364G12c H01K43791   9.317   8.273  11.579  2.3405 -5.2269  0.4716
  2364G12c H01J43792   9.262   8.314  11.735 -0.5191  2.4856 -4.4153
  2364G12c O00H43793   9.320   8.115  11.699  0.3921  1.7351 -0.9007
  2364G12c H01I43794   9.303   8.054  11.629 -0.7865  1.2154 -0.1788
  2364G12c C02H43795   8.760   8.125  11.656  2.2331 -0.8386  1.0174
  2364G12c H01C43796   8.743   8.156  11.758 -3.5058 -1.8859  0.5553
  2364G12c C02L43797   8.647   8.035  11.605  0.0999  0.8319  2.2609
  2364G12c H01D43798   8.584   7.967  11.661  1.1732  0.1882  2.7158
  2364G12c C01343799   8.230   7.441  11.375  0.8409  0.1232 -0.4068
  2364G12c H00043800   8.144   7.483  11.425  4.5054  0.9917  5.8383
  2364G12c C01443801   8.237   7.297  11.371 -0.3737 -0.2562  1.4208
  2364G12c C00F43802   8.130   7.202  11.417 -0.0418  0.8839  0.9613
  2364G12c C00H43803   8.264   7.024  11.315  2.3061  0.7230  0.1583
  2364G12c C00I43804   8.284   6.885  11.285  0.0815 -1.2308  0.5103
  2364G12c C00J43805   8.425   6.850  11.249  1.8122  0.8271  0.6122
  2364G12c C00Z43806   8.592   7.267  11.284  0.1567 -0.2436 -0.7405
  2364G12c C00Y43807   8.704   7.339  11.270 -0.5150 -2.3575  0.4759
  2364G12c H00643808   8.709   7.447  11.277 -1.0173 -1.8525 -5.0070
  2364G12c C00X43809   8.836   7.305  11.281  1.9417  0.0573  0.1864
  2364G12c O00343810   8.948   7.372  11.319 -1.4520  0.0366 -0.8202
  2364G12c C01B43811   8.939   7.527  11.299 -1.5809 -0.4969  0.6443
  2364G12c H00943812   8.864   7.573  11.235  4.2885  2.1802 -4.8919
  2364G12c H00843813   8.919   7.555  11.402 -2.8644  3.9143 -0.6851
  2364G12c H00743814   9.024   7.592  11.279 -2.1016 -1.6125 -6.3280
  2364G12c C00W43815   8.857   7.166  11.283  0.1932 -0.6172 -0.8289
  2364G12c O00443816   8.973   7.120  11.305  0.9114  0.2707 -0.3168
  2364G12c C01C43817   8.969   7.000  11.384  0.2056 -0.8293  0.5651
  2364G12c H00A43818   8.985   7.028  11.487 -0.3441 -2.7848  1.1905
  2364G12c C00P43819   8.885   6.895  11.349  0.2962 -0.0128 -0.3509
  2364G12c C00O43820   8.903   6.770  11.399  0.5678 -0.3520 -0.6543
  2364G12c C01D43821   9.032   6.753  11.470  0.7381 -3.0839 -0.8869
  2364G12c H00S43822   9.092   6.842  11.483 -2.7246 -1.3388  5.3633
  2364G12c C01E43823   9.065   6.631  11.547 -1.4433  1.1792  0.8337
  2364G12c O00843824   9.192   6.590  11.552 -0.3439  1.2223  0.3499
  2364G12c C01V43825   9.296   6.641  11.509 -0.1680 -0.2543 -0.3398
  2364G12c C01Z43826   9.357   6.723  11.625 -0.5429  0.8768 -0.1014
  2364G12c H00R43827   9.307   6.710  11.721 -2.5848  0.0939 -1.2249
  2364G12c H00Q43828   9.464   6.703  11.618 -0.4721 -0.3155  3.3154
  2364G12c O00943829   9.325   6.865  11.603 -0.8883 -0.8855 -1.1901
  2364G12c H00P43830   9.243   6.864  11.650  1.6582  2.1138  3.8076
  2364G12c C01W43831   9.365   6.578  11.420  0.3923  0.2757  1.4602
  2364G12c H00O43832   9.472   6.581  11.433  0.3553 -3.4557  3.0025
  2364G12c C01X43833   9.304   6.473  11.328  0.3058 -1.4843  0.3466
  2364G12c H00N43834   9.216   6.536  11.311  3.2976  2.3098 -2.1742
  2364G12c H00M43835   9.369   6.480  11.240 -0.0056  4.2849  0.3520
  2364G12c C01Y43836   9.288   6.344  11.390  0.2698  0.6076  0.5210
  2364G12c C02D43837   9.394   6.285  11.463  1.3014 -1.0657  0.2991
  2364G12c H01943838   9.455   6.360  11.512 -0.8904  0.6027  0.5042
  2364G12c C02C43839   9.391   6.162  11.531  0.8210  1.3006  0.6589
  2364G12c H01A43840   9.482   6.135  11.582 -0.6856  0.2114  2.8336
  2364G12c C02B43841   9.280   6.094  11.506 -0.5750  2.2234 -0.7200
  2364G12c O00E43842   9.267   5.957  11.543  0.2626 -0.4001 -1.1621
  2364G12c H01B43843   9.179   5.921  11.540  0.6593 -1.7103  1.6330
  2364G12c C02F43844   9.177   6.137  11.419 -1.2650 -1.0233 -0.0206
  2364G12c O00F43845   9.071   6.048  11.405 -1.8821 -0.7293  0.0857
  2364G12c C02G43846   9.091   5.953  11.313 -0.0509 -1.3800  1.2342
  2364G12c H01743847   9.140   6.004  11.229 -0.4518 -3.7106 -0.4729
  2364G12c H01643848   9.140   5.860  11.340  3.2343  1.2126  4.7310
  2364G12c H01543849   8.982   5.951  11.315 -0.2092 -3.2835 -3.1577
  2364G12c C02E43850   9.174   6.268  11.382 -1.8153 -0.2832  0.4330
  2364G12c H01843851   9.096   6.313  11.323  2.7701  7.5566 -0.3232
  2364G12c C01F43852   8.962   6.532  11.559 -0.0271  0.8259 -1.2276
  2364G12c C01G43853   8.945   6.448  11.670 -0.7355  0.8001 -0.4797
  2364G12c H00L43854   9.031   6.417  11.726 -1.6060 -2.4789 -0.8312
  2364G12c C01H43855   8.840   6.357  11.667  3.2561  0.7673 -0.8267
  2364G12c H00B43856   8.820   6.271  11.729  0.5411  0.3662 -2.1876
  2364G12c C01I43857   8.723   6.372  11.570 -1.0873 -0.6691  0.1321
  2364G12c C01U43858   8.865   6.524  11.444  0.5716 -0.7000 -2.8533
  2364G12c C00S43859   8.525   6.940  11.223 -2.1871 -0.0990  0.0324
  2364G12c C00K43860   8.466   6.723  11.294 -1.2824  0.2613 -0.9843
  2364G12c C00N43861   8.815   6.642  11.391  1.4237 -0.3846  0.5938
  2364G12c C00043862   8.754   6.433  11.450  0.1077 -0.4096  1.0463
  2364G12c C01J43863   8.561   6.372  11.568 -1.3152  0.0295 -0.4009
  2364G12c C01K43864   8.462   6.318  11.655 -0.3106  0.0141  0.1127
  2364G12c C01P43865   8.485   6.207  11.744 -1.5542 -0.1028 -0.8219
  2364G12c C01Q43866   8.607   6.125  11.727 -0.3266 -0.6404 -0.3845
  2364G12c H00G43867   8.690   6.140  11.794  4.8121 -2.5319 -5.9521
  2364G12c C01R43868   8.654   6.072  11.616  0.3277 -1.4522 -0.4721
  2364G12c H00F43869   8.602   6.119  11.534  6.2128  0.3178 -3.4800
  2364G12c C01S43870   8.809   6.031  11.604  0.3714 -0.5085  1.4176
  2364G12c H00E43871   8.825   5.943  11.543  0.0302  1.2557 -1.3059
  2364G12c H00D43872   8.879   6.098  11.554 -4.1636  5.5697  2.5453
  2364G12c O00543873   8.868   6.010  11.721  0.7600  0.8693 -0.5646
  2364G12c H00C43874   8.955   5.976  11.704 -0.0071 -3.6785  3.6347
  2364G12c C01O43875   8.384   6.168  11.842  0.9614 -0.6391 -0.2642
  2364G12c H00H43876   8.434   6.103  11.913 -1.7803 -4.7768 -1.8947
  2364G12c C01N43877   8.252   6.244  11.848 -1.0090 -0.8613  0.6967
  2364G12c O00643878   8.147   6.216  11.941 -0.2766 -0.7295  0.0730
  2364G12c C01T43879   8.180   6.204  12.077  0.3671  1.5392  0.3376
  2364G12c H00K43880   8.243   6.289  12.104  2.6037 -0.7628  2.6629
  2364G12c H00J43881   8.239   6.115  12.097 -1.0631 -0.7400 -4.8093
  2364G12c H00I43882   8.079   6.217  12.116 -1.5906 -2.6139 -2.9764
  2364G12c C01M43883   8.228   6.326  11.731 -0.4645  1.4532  0.6520
  2364G12c C02043884   8.376   6.645  11.368  0.6340 -0.0694  1.0437
  2364G12c C02143885   8.241   6.677  11.369  0.0798 -1.7942 -0.0141
  2364G12c C01L43886   8.327   6.368  11.620 -0.2995  0.2292 -2.7442
  2364G12c O00743887   8.095   6.362  11.718 -0.0971 -1.3577  0.2808
  2364G12c C02243888   8.133   6.622  11.463 -2.2435 -0.1800  1.7050
  2364G12c C02343889   8.191   6.792  11.340  0.2150  0.9479  1.6448
  2364G12c C00G43890   8.151   7.065  11.400  0.0972 -0.0832  0.6285
  2364G12c C00E43891   8.016   7.249  11.484  0.7789 -0.8176  2.0077
  2364G12c O00A43892   7.984   7.380  11.490 -1.0911 -0.4787  0.2545
  2364G12c C02443893   7.885   7.435  11.394  1.1151 -0.2441 -0.3994
  2364G12c H00V43894   7.841   7.345  11.350  1.9485 -0.5110 -0.6869
  2364G12c H00U43895   7.935   7.488  11.313 -1.5804  2.5854 -0.2957
  2364G12c H00T43896   7.798   7.468  11.450 -2.8511 -8.1205 -1.1800
  2374G12c C00D43897  11.948   2.796  11.990 -1.9817  0.6899 -0.1618
  2374G12c O00B43898  11.866   2.706  11.946  0.0102  1.8974  0.9723
  2374G12c C02543899  11.886   2.579  11.969  0.7150  1.2497 -0.2458
  2374G12c C02643900  12.014   2.493  11.910  0.0166 -1.9387 -1.4069
  2374G12c H00Y43901  12.001   2.551  11.819 -6.4789  1.5631  1.4384
  2374G12c H00X43902  12.011   2.393  11.866  1.9633 -4.2912  3.3563
  2374G12c O00C43903  12.137   2.501  11.967  0.0767  1.0297  0.6372
  2374G12c H00W43904  12.163   2.582  11.926  1.1583 -0.2087 -1.1354
  2374G12c C02743905  11.783   2.518  12.020 -0.8946  0.9963 -0.0763
  2374G12c O00D43906  11.675   2.573  12.079 -0.3437 -0.0942  0.3077
  2374G12c H00Z43907  11.678   2.663  12.052  2.1612 -1.0421 -2.8773
  2374G12c C02843908  11.793   2.370  12.056  1.6051 -0.4143 -0.6105
  2374G12c C02943909  11.681   2.277  12.068 -2.0916 -1.5749  0.8549
  2374G12c H01043910  11.590   2.317  12.026 -3.1017  1.1255  5.3779
  2374G12c C02T43911  11.700   2.153  12.125 -1.4300  1.4661 -0.1364
  2374G12c H01O43912  11.619   2.082  12.111  1.5325 -1.4928 -3.3338
  2374G12c C02S43913  11.816   2.094  12.165 -1.5872 -0.1421  0.9836
  2374G12c O00J43914  11.829   1.980  12.226  0.3616  1.1419 -0.1313
  2374G12c H01P43915  11.917   1.970  12.260 -0.6960  1.0429  2.6908
  2374G12c C02R43916  11.927   2.199  12.172 -0.9586  0.1714  0.2696
  2374G12c O00I43917  12.048   2.171  12.233 -0.9066 -0.3012  1.1066
  2374G12c C02Q43918  12.134   2.285  12.263 -1.4630  0.2578  1.1688
  2374G12c H01N43919  12.150   2.298  12.370  0.3433 -0.6334  1.0123
  2374G12c H01R43920  12.224   2.313  12.208 -1.3363 -1.1886  0.6364
  2374G12c H01Q43921  12.116   2.390  12.238  1.4889  0.7052  0.7239
  2374G12c C02A43922  11.906   2.326  12.123  0.7820  0.3431  0.6772
  2374G12c H01143923  11.966   2.414  12.138 -2.5128  2.4878  1.8736
  2374G12c C00C43924  11.881   2.923  12.030 -0.3418 -1.2066 -0.4620
  2374G12c H01243925  11.776   2.933  12.007 -0.6636  3.0127  2.2212
  2374G12c C00B43926  11.941   3.023  12.109 -2.1383  0.0192 -1.2603
  2374G12c C00A43927  11.889   3.150  12.154 -1.6033  1.1423 -1.9814
  2374G12c C00943928  11.795   3.231  12.089 -0.5396 -0.8416  0.6224
  2374G12c C00843929  11.741   3.239  11.968  1.9523 -0.9793  0.3657
  2374G12c H01343930  11.718   3.147  11.916  4.9710  1.1623 -5.2475
  2374G12c C00743931  11.701   3.371  11.915 -2.2642 -0.1480  0.0445
  2374G12c H01443932  11.645   3.371  11.823 -2.4483 -0.4443  0.1544
  2374G12c C00643933  11.691   3.495  11.996  0.8863  1.5981  1.5692
  2374G12c C00543934  11.768   3.482  12.111 -0.8160  0.8806  1.6894
  2374G12c C00443935  11.794   3.581  12.197 -1.1193 -0.0428 -0.0352
  2374G12c C00343936  11.888   3.570  12.298 -0.8023 -0.8272  0.6550
  2374G12c C00243937  11.939   3.681  12.369  1.1293 -2.2007 -2.1710
  2374G12c C00143938  12.052   3.714  12.459 -0.6505  0.8873 -2.0930
  2374G12c C00M43939  12.185   3.645  12.467 -0.9811  0.7206  0.6739
  2374G12c C00L43940  12.196   3.507  12.414  0.7006 -0.6925  0.1512
  2374G12c C00R43941  12.320   3.439  12.369  0.7833 -1.2919  0.9909
  2374G12c C00Q43942  12.452   3.457  12.371 -0.4121 -0.8727  0.9032
  2374G12c C00V43943  12.533   3.352  12.320  0.9216 -0.5316 -0.2095
  2374G12c C00U43944  12.481   3.230  12.268 -0.2354 -0.2317 -1.3587
  2374G12c C00T43945  12.351   3.207  12.287 -0.6706  1.0638  1.2320
  2374G12c C01643946  12.283   3.096  12.237 -0.5869 -0.1455  1.7062
  2374G12c C01543947  12.362   2.997  12.169 -0.3324  1.4239  0.3732
  2374G12c C01043948  12.500   3.011  12.166 -0.1037  1.8077 -0.5585
  2374G12c C01143949  12.569   2.907  12.104 -0.4211  0.8057 -0.7168
  2374G12c H00543950  12.675   2.891  12.089  0.7202  7.7545 -1.6073
  2374G12c C01243951  12.502   2.791  12.056  1.2792 -0.3511  1.3112
  2374G12c C01743952  12.546   2.695  11.984  0.3543  0.2218 -0.3373
  2374G12c O00243953  12.534   2.559  12.037  1.0304 -0.6210  0.7955
  2374G12c H00443954  12.566   2.486  11.986  3.3331  0.6771  0.3107
  2374G12c C01843955  12.624   2.715  11.875  0.1639 -0.5368 -0.7557
  2374G12c O00143956  12.671   2.848  11.830  1.0842 -0.0701  2.0452
  2374G12c H00343957  12.757   2.870  11.797 -0.8902 -1.8643 -5.1861
  2374G12c C01943958  12.716   2.619  11.782 -1.0656  1.4276 -0.0373
  2374G12c H00243959  12.741   2.644  11.679 -0.6565  0.3790 -0.1972
  2374G12c H00143960  12.810   2.593  11.831 -3.4101  5.1117  7.0355
  2374G12c O00043961  12.627   2.485  11.785 -0.5095 -1.0454 -0.2839
  2374G12c C01A43962  12.708   2.395  11.729  0.7730  1.4464  0.0443
  2374G12c C02K43963  12.751   2.398  11.597 -0.6516 -0.4967 -0.6432
  2374G12c O00G43964  12.699   2.487  11.505 -0.8212  0.8373 -0.8548
  2374G12c C02M43965  12.564   2.453  11.457 -0.0555 -0.5010 -0.9664
  2374G12c H01G43966  12.538   2.484  11.356 -1.0045  3.5591  0.4256
  2374G12c H01F43967  12.502   2.530  11.503 -4.4363 -2.0678 -3.9552
  2374G12c H01E43968  12.547   2.349  11.484 -1.5987  0.0668  0.3132
  2374G12c C02J43969  12.837   2.308  11.528 -1.9718 -0.0761  0.6741
  2374G12c H01H43970  12.878   2.333  11.431 -3.6735  0.0036 -0.0544
  2374G12c C02I43971  12.859   2.186  11.602  0.1019 -0.0625  0.4556
  2374G12c C02N43972  12.943   2.087  11.524  0.0734 -0.0562 -0.6557
  2374G12c H01M43973  12.910   2.043  11.431  0.2534 -3.8414  0.9805
  2374G12c C02O43974  13.017   1.990  11.578  0.4060 -0.3563  0.0660
  2374G12c H01L43975  13.052   2.013  11.678  5.2015  0.9656 -1.7626
  2374G12c C02P43976  13.064   1.871  11.510 -1.8729 -2.2674  0.0150
  2374G12c H01K43977  13.131   1.924  11.441 -4.0132  4.4151  2.6071
  2374G12c H01J43978  13.139   1.810  11.560  2.7547  5.9729  4.2158
  2374G12c O00H43979  12.967   1.778  11.480 -0.3371 -0.6028 -0.6758
  2374G12c H01I43980  12.918   1.770  11.400 -5.5561 -2.2678  2.4980
  2374G12c C02H43981  12.818   2.177  11.738  0.6668 -0.6772  0.3886
  2374G12c H01C43982  12.841   2.084  11.788 -1.5959 -1.5001 -0.0715
  2374G12c C02L43983  12.760   2.283  11.800 -2.2401 -1.4366  0.4973
  2374G12c H01D43984  12.721   2.298  11.899  0.9713  0.0569  1.5890
  2374G12c C01343985  12.365   2.789  12.073  0.3324  1.7312  0.6530
  2374G12c H00043986  12.333   2.686  12.065 -1.5951  2.5463 -4.3536
  2374G12c C01443987  12.292   2.900  12.111  2.1492  0.3655 -0.6451
  2374G12c C00F43988  12.164   2.895  12.075 -1.1001  0.6514 -1.3603
  2374G12c C00H43989  12.146   3.091  12.220 -0.4751  1.0361 -0.9290
  2374G12c C00I43990  12.081   3.214  12.272  0.4095  0.4548  3.2226
  2374G12c C00J43991  12.148   3.313  12.338 -0.3248 -0.7780 -0.3416
  2374G12c C00Z43992  12.563   3.123  12.230  1.9114  0.2170  0.5744
  2374G12c C00Y43993  12.703   3.138  12.226  0.0842 -2.7286  0.1288
  2374G12c H00643994  12.756   3.075  12.156  1.9010  1.3779 -2.4267
  2374G12c C00X43995  12.762   3.252  12.276  1.2068  0.4120  0.1167
  2374G12c O00343996  12.904   3.281  12.245 -0.9717  1.5394  0.5405
  2374G12c C01B43997  12.994   3.349  12.335  2.0130  0.0070  0.1417
  2374G12c H00943998  12.995   3.454  12.307 -2.9906 -0.0315 -0.5927
  2374G12c H00843999  13.102   3.337  12.321  2.5852  3.5634  1.0983
  2374G12c H00744000  12.950   3.331  12.433  3.1653 -1.8391  0.3376
  2374G12c C00W44001  12.680   3.363  12.324 -0.2632 -0.7676 -0.4961
  2374G12c O00444002  12.729   3.497  12.350 -0.1575 -0.8182  0.0524
  2374G12c C01C44003  12.659   3.578  12.428  0.6275 -1.1021  0.2509
  2374G12c H00A44004  12.706   3.620  12.516  3.1296 -2.9072 -0.1741
  2374G12c C00P44005  12.511   3.581  12.409  0.2789 -0.8241 -0.6308
  2374G12c C00O44006  12.430   3.707  12.391  0.6215  0.1727 -0.1761
  2374G12c C01D44007  12.495   3.807  12.302  1.3940  0.4280  0.3962
  2374G12c H00S44008  12.603   3.817  12.295  1.4846 -2.7168 -4.7594
  2374G12c C01E44009  12.421   3.914  12.246  1.1361  0.8212 -0.6782
  2374G12c O00844010  12.457   3.993  12.140 -0.8377  0.4817  0.3010
  2374G12c C01V44011  12.563   4.081  12.170  0.8752  1.0574  0.0209
  2374G12c C01Z44012  12.572   4.183  12.276 -0.6301 -1.2245  0.0712
  2374G12c H00R44013  12.518   4.138  12.359  2.8203  0.3275  3.2652
  2374G12c H00Q44014  12.667   4.207  12.323 -4.6941  1.4348  7.8019
  2374G12c O00944015  12.515   4.311  12.236 -0.8798  1.8593 -0.1854
  2374G12c H00P44016  12.545   4.359  12.161 -7.6371  2.2983 -2.8895
  2374G12c C01W44017  12.674   4.030  12.105 -0.0263 -1.2385 -0.9423
  2374G12c H00O44018  12.652   3.957  12.029 -4.9220 -1.2621  0.3220
  2374G12c C01X44019  12.796   4.125  12.107 -0.1236  0.8562 -0.3894
  2374G12c H00N44020  12.849   4.110  12.202 -3.4161  0.7346  1.5018
  2374G12c H00M44021  12.859   4.083  12.029 -0.5318  2.7667 -1.7579
  2374G12c C01Y44022  12.810   4.270  12.062  0.5045 -1.4172 -1.6897
  2374G12c C02D44023  12.717   4.324  11.966 -0.6280 -1.1999 -0.8868
  2374G12c H01944024  12.632   4.260  11.945 -0.6787 -1.3743 -0.1662
  2374G12c C02C44025  12.708   4.463  11.958 -0.4444 -1.0815  0.2844
  2374G12c H01A44026  12.619   4.493  11.906  0.8216  0.1323 -1.2347
  2374G12c C02B44027  12.807   4.550  12.018 -1.0520  0.5144 -1.1537
  2374G12c O00E44028  12.795   4.685  12.006 -1.1449 -0.0388 -0.9357
  2374G12c H01B44029  12.741   4.740  12.061 -4.9456 -0.5486 -3.9980
  2374G12c C02F44030  12.912   4.503  12.102 -0.7211 -0.0554  0.6631
  2374G12c O00F44031  13.012   4.595  12.156 -0.5352  0.0506  0.6026
  2374G12c C02G44032  13.149   4.538  12.135  0.7563 -1.2802 -1.6440
  2374G12c H01744033  13.187   4.585  12.044  0.2513  0.0087 -1.2091
  2374G12c H01644034  13.188   4.563  12.234 -3.9943 -0.1302  0.0894
  2374G12c H01544035  13.168   4.432  12.119 -2.4140 -1.8331 -2.0925
  2374G12c C02E44036  12.913   4.349  12.112  0.7015 -0.4553  0.5693
  2374G12c H01844037  12.968   4.337  12.203  2.1304 -9.0355 -1.0087
  2374G12c C01F44038  12.287   3.927  12.278 -1.1284  0.4587 -1.2194
  2374G12c C01G44039  12.195   4.026  12.205 -0.0466  2.0087 -0.6610
  2374G12c H00L44040  12.257   4.095  12.150  0.0909  0.1419 -2.9181
  2374G12c C01H44041  12.051   4.024  12.247  1.4728  0.1909  0.0521
  2374G12c H00B44042  11.978   4.081  12.190  4.7426  1.4534 -3.0238
  2374G12c C01I44043  12.009   3.908  12.329  1.3489  0.5697 -0.1078
  2374G12c C01U44044  12.230   3.855  12.389  0.1269 -2.4184  0.6202
  2374G12c C00S44045  12.280   3.312  12.343 -0.2295 -0.3707  0.4145
  2374G12c C00K44046  12.088   3.435  12.360 -1.2692  0.0914 -1.0356
  2374G12c C00N44047  12.287   3.728  12.423 -0.1085  0.4286 -0.2347
  2374G12c C00044048  12.098   3.857  12.426  0.4521 -0.6140 -0.8007
  2374G12c C01J44049  11.916   3.804  12.296  1.2872 -0.1603  1.3938
  2374G12c C01K44050  11.818   3.824  12.181 -0.9183  0.0340 -0.9525
  2374G12c C01P44051  11.749   3.938  12.136  0.6854  0.3464  0.1974
  2374G12c C01Q44052  11.729   4.051  12.222 -0.2532 -1.0413  0.5871
  2374G12c H00G44053  11.793   4.137  12.212  5.6979 -4.9664  2.7792
  2374G12c C01R44054  11.629   4.068  12.302 -0.5598  1.0277 -0.6734
  2374G12c H00F44055  11.614   4.167  12.343 -1.8535  2.8863 -5.3532
  2374G12c C01S44056  11.522   3.955  12.325 -0.2613  0.6021 -1.1249
  2374G12c H00E44057  11.428   3.993  12.364 -1.4725 -3.2875 -0.0406
  2374G12c H00D44058  11.515   3.916  12.223 -3.1261 -5.4837  1.1297
  2374G12c O00544059  11.574   3.830  12.376  0.6418 -0.5497  1.5316
  2374G12c H00C44060  11.605   3.789  12.297 -2.8630 -1.3438  0.5082
  2374G12c C01O44061  11.673   3.945  12.019  1.2260  0.9453  1.1156
  2374G12c H00H44062  11.585   4.003  11.996  2.2666  1.6665 -1.1587
  2374G12c C01N44063  11.654   3.834  11.948 -1.7566 -1.2589 -1.1051
  2374G12c O00644064  11.609   3.854  11.821  1.9650  0.8639  0.6829
  2374G12c C01T44065  11.661   3.747  11.725 -1.2790  1.1627  0.1907
  2374G12c H00K44066  11.658   3.704  11.625  0.0273  2.6714 -0.5203
  2374G12c H00J44067  11.738   3.684  11.770 -1.3549  0.7936 -0.1874
  2374G12c H00I44068  11.732   3.822  11.693  2.8493 -1.2845  3.1655
  2374G12c C01M44069  11.694   3.716  12.011  1.3371  1.2711  0.2711
  2374G12c C02044070  11.959   3.442  12.316  1.0719 -0.1209 -0.7198
  2374G12c C02144071  11.882   3.344  12.293  0.0023 -1.3136  1.5133
  2374G12c C01L44072  11.769   3.699  12.133 -0.5409 -0.4888 -0.0891
  2374G12c O00744073  11.643   3.603  11.946  0.1420 -1.5093  0.4727
  2374G12c C02244074  11.812   3.352  12.163  0.3445 -1.7953 -1.0292
  2374G12c C02344075  11.939   3.218  12.259  0.9069 -1.6522 -1.7250
  2374G12c C00G44076  12.078   2.994  12.142 -2.0614 -0.0197 -1.3509
  2374G12c C00E44077  12.094   2.799  11.995  1.4133 -0.1641  0.0694
  2374G12c O00A44078  12.154   2.742  11.878  0.4540 -2.0939 -1.1845
  2374G12c C02444079  12.165   2.828  11.768  0.7282  0.1811 -0.4659
  2374G12c H00V44080  12.082   2.898  11.774 -1.3770 -2.3268  0.9452
  2374G12c H00U44081  12.181   2.778  11.672  0.5946 -3.0351  1.0970
  2374G12c H00T44082  12.247   2.897  11.785  2.8111 -2.5403  1.0466
  2384G12c C00D44083   0.765   9.350   9.746  0.0431  2.4843 -0.3371
  2384G12c O00B44084   0.891   9.388   9.776  0.7868  1.0982 -1.9005
  2384G12c C02544085   0.900   9.522   9.827 -1.4129 -0.2045 -0.8843
  2384G12c C02644086   0.846   9.545   9.966 -0.1672  0.7935  0.0024
  2384G12c H00Y44087   0.752   9.492   9.983 -1.3255  0.5283 -5.8694
  2384G12c H00X44088   0.804   9.645   9.976  0.1261  0.5266  4.7913
  2384G12c O00C44089   0.967   9.522  10.048  0.4504  0.7576  0.6012
  2384G12c H00W44090   0.939   9.438  10.083  5.6856 -2.7561 -2.8520
  2384G12c C02744091   0.936   9.612   9.741 -0.4632  0.1683 -0.2752
  2384G12c O00D44092   0.928   9.741   9.761 -0.7428  1.0885  0.6382
  2384G12c H00Z44093   1.009   9.778   9.730  1.4839 -1.8187  2.6533
  2384G12c C02844094   1.028   9.561   9.640  0.3825 -2.3489 -0.0955
  2384G12c C02944095   1.037   9.612   9.507 -0.7163  0.6998  0.5063
  2384G12c H01044096   0.971   9.695   9.487 -2.8680  0.0287  4.3254
  2384G12c C02T44097   1.142   9.548   9.421  0.0916  0.4657 -0.0598
  2384G12c H01O44098   1.108   9.572   9.321 -4.1097  1.2408  1.4373
  2384G12c C02S44099   1.226   9.461   9.468  0.6766 -0.2576  0.5672
  2384G12c O00J44100   1.337   9.409   9.387 -0.4222  1.4469  0.5713
  2384G12c H01P44101   1.313   9.324   9.422  2.5790 -0.3365 -1.5187
  2384G12c C02R44102   1.216   9.405   9.588  0.8886  0.3501  0.3832
  2384G12c O00I44103   1.305   9.312   9.626 -0.6997 -1.1573  0.5632
  2384G12c C02Q44104   1.419   9.369   9.679 -0.8109 -0.9916 -0.3862
  2384G12c H01N44105   1.395   9.469   9.714  2.6199  0.0579 -0.8637
  2384G12c H01R44106   1.450   9.344   9.780 -1.8718  2.1085  0.7568
  2384G12c H01Q44107   1.512   9.371   9.623 -2.5772  1.4317 -3.3722
  2384G12c C02A44108   1.125   9.474   9.682 -0.7139  0.2404 -1.5244
  2384G12c H01144109   1.158   9.423   9.771 -3.3925  0.5863 -0.3032
  2384G12c C00C44110   0.672   9.436   9.691  1.1758 -2.8753 -0.0658
  2384G12c H01244111   0.675   9.542   9.668 -2.5577  0.0239 10.2859
  2384G12c C00B44112   0.542   9.379   9.658 -0.4177  0.2408 -0.1416
  2384G12c C00A44113   0.430   9.468   9.619 -0.4941  0.2544  0.5993
  2384G12c C00944114   0.378   9.587   9.677 -1.6349  0.2278  1.2320
  2384G12c C00844115   0.445   9.649   9.780  0.6683 -1.4299 -0.9716
  2384G12c H01344116   0.543   9.625   9.817  0.4622 -1.2485 -0.2978
  2384G12c C00744117   0.354   9.706   9.878  0.0094 -0.7828  1.1776
  2384G12c H01444118   0.390   9.740   9.974 -1.8936  0.2302  1.5621
  2384G12c C00644119   0.209   9.696   9.844 -0.4038 -1.0759 -0.5041
  2384G12c C00544120   0.166   9.628   9.732 -1.6495 -0.3648 -0.9447
  2384G12c C00444121   0.028   9.579   9.728  1.5359  0.3741  2.0827
  2384G12c C00344122  -0.008   9.496   9.628 -0.9538 -0.7627  1.7897
  2384G12c C00244123  -0.154   9.468   9.603 -0.3841  0.3212  0.3222
  2384G12c C00144124  -0.230   9.343   9.553  0.9979  1.8695 -0.4940
  2384G12c C00M44125  -0.172   9.218   9.555  0.1001  0.4644 -0.4581
  2384G12c C00L44126  -0.042   9.189   9.537  1.1648 -0.4714 -0.5378
  2384G12c C00R44127   0.018   9.079   9.597 -0.0192 -1.3083 -0.1742
  2384G12c C00Q44128  -0.027   8.959   9.667 -0.7952 -1.3402  0.6003
  2384G12c C00V44129   0.073   8.867   9.683  1.6721 -0.1540  0.4606
  2384G12c C00U44130   0.211   8.887   9.670  0.3186 -0.3269  0.1999
  2384G12c C00T44131   0.245   9.017   9.674 -0.5340  1.1770  1.1257
  2384G12c C01644132   0.375   9.068   9.666 -1.0909 -0.7937 -0.7669
  2384G12c C01544133   0.475   8.977   9.694 -0.8893 -0.6331 -0.5607
  2384G12c C01044134   0.441   8.849   9.717 -0.8026  0.6331  2.2735
  2384G12c C01144135   0.535   8.766   9.774 -0.0646  0.1180  0.7656
  2384G12c H00544136   0.529   8.662   9.802  5.1083 -0.2710  0.9179
  2384G12c C01244137   0.674   8.812   9.816  0.4402  0.5327 -0.6438
  2384G12c C01744138   0.756   8.732   9.897 -1.3662 -0.6324 -0.8936
  2384G12c O00244139   0.844   8.684   9.811  1.0389 -1.3518  1.4163
  2384G12c H00444140   0.826   8.701   9.720  3.7821 -7.6298 -0.5410
  2384G12c C01844141   0.748   8.729  10.034  0.5292  0.5447 -0.6811
  2384G12c O00144142   0.651   8.790  10.115 -0.4823 -0.2511  0.4371
  2384G12c H00344143   0.564   8.818  10.090  0.2136 -0.5102 -2.5002
  2384G12c C01944144   0.875   8.687  10.098  1.4198 -0.1226 -0.6009
  2384G12c H00244145   0.969   8.685  10.043  1.3905  1.1965 -0.7150
  2384G12c H00144146   0.894   8.745  10.188  1.4293  2.9972 -2.5312
  2384G12c O00044147   0.822   8.559  10.119 -1.2907  1.3942 -1.5412
  2384G12c C01A44148   0.814   8.473  10.240  0.9118 -0.3855 -0.3444
  2384G12c C02K44149   0.775   8.338  10.231  0.7017 -0.0492  0.3794
  2384G12c O00G44150   0.689   8.279  10.128 -0.1449 -0.4973 -0.3398
  2384G12c C02M44151   0.638   8.358  10.011  0.0017 -0.5730  0.9759
  2384G12c H01G44152   0.574   8.346   9.924 -0.2282  4.3782  0.3040
  2384G12c H01F44153   0.727   8.418   9.993  3.9314 -6.8808 -2.4980
  2384G12c H01E44154   0.602   8.448  10.061  2.7504  0.6179  0.9412
  2384G12c C02J44155   0.774   8.263  10.356 -0.1732  1.1653 -0.3445
  2384G12c H01H44156   0.733   8.166  10.331  3.5305  0.1875 -3.0022
  2384G12c C02I44157   0.829   8.304  10.484  1.0188 -1.7625 -0.3628
  2384G12c C02N44158   0.854   8.218  10.593  0.6719  0.3535  0.5763
  2384G12c H01M44159   0.931   8.194  10.665  0.5127 -4.3823 -0.6269
  2384G12c C02O44160   0.732   8.148  10.633 -1.5863 -0.4286 -0.8197
  2384G12c H01L44161   0.639   8.161  10.579 -0.5621 -0.7943 -2.7026
  2384G12c C02P44162   0.722   8.060  10.755  1.5406  0.4539  0.4765
  2384G12c H01K44163   0.820   8.038  10.797 -1.1273 -4.2148  4.9362
  2384G12c H01J44164   0.642   8.105  10.815 -1.9640 -2.3565 -1.8769
  2384G12c O00H44165   0.725   7.914  10.737  0.8370 -0.5599 -0.0298
  2384G12c H01I44166   0.646   7.893  10.784 -2.2773  2.3644 -3.6294
  2384G12c C02H44167   0.881   8.422  10.470  0.0736  1.1144 -0.2223
  2384G12c H01C44168   0.944   8.439  10.556 -0.8925 -0.3169  0.7794
  2384G12c C02L44169   0.886   8.508  10.356 -0.7028  0.1490  1.7350
  2384G12c H01D44170   0.950   8.595  10.357  1.3989 -1.3277 -0.0897
  2384G12c C01344171   0.711   8.943   9.760 -1.8228  1.0130  0.1942
  2384G12c H00044172   0.810   8.975   9.790 -0.2740 -5.6659  3.2442
  2384G12c C01444173   0.604   9.030   9.720 -1.1454 -1.5600 -1.2299
  2384G12c C00F44174   0.610   9.171   9.715  0.1317  1.2682 -0.6283
  2384G12c C00H44175   0.402   9.189   9.602  0.1322  0.4022  1.0309
  2384G12c C00I44176   0.299   9.270   9.544  0.8938 -0.2690  0.1296
  2384G12c C00J44177   0.177   9.215   9.525 -0.4628  1.1891 -2.6961
  2384G12c C00Z44178   0.310   8.802   9.711  1.4865 -0.8454 -1.5057
  2384G12c C00Y44179   0.270   8.662   9.751  0.2561 -0.1235  2.1154
  2384G12c H00644180   0.353   8.593   9.741 -2.8500 -3.6281 -1.4570
  2384G12c C00X44181   0.134   8.632   9.744  1.7610 -2.7801  0.1405
  2384G12c O00344182   0.091   8.498   9.764 -0.5174 -0.9991  0.4290
  2384G12c C01B44183   0.167   8.452   9.884 -0.7797 -0.5115 -0.1087
  2384G12c H00944184   0.169   8.343   9.885 -1.8005 -0.5363  1.1222
  2384G12c H00844185   0.146   8.468   9.990  2.1872 -0.4220  0.5103
  2384G12c H00744186   0.274   8.447   9.864 -1.1101 -2.1008 -1.5935
  2384G12c C00W44187   0.034   8.735   9.724  0.2889  0.8985  1.0358
  2384G12c O00444188  -0.094   8.694   9.754 -0.9440 -0.8553  0.1290
  2384G12c C01C44189  -0.163   8.803   9.794  1.8084 -0.7951  0.6120
  2384G12c H00A44190  -0.188   8.812   9.899  5.2939 -2.2539  1.6496
  2384G12c C00P44191  -0.157   8.927   9.706  1.7169  0.1490  0.5256
  2384G12c C00O44192  -0.272   9.004   9.681  0.1126 -0.2444 -0.0617
  2384G12c C01D44193  -0.399   8.952   9.710  1.0881 -0.3225 -0.2254
  2384G12c H00S44194  -0.382   8.846   9.723 -0.4856 -0.6895 -1.0755
  2384G12c C01E44195  -0.510   9.033   9.745  0.6277 -0.6328  0.3205
  2384G12c O00844196  -0.616   8.989   9.821 -0.0284 -0.9691 -0.5995
  2384G12c C01V44197  -0.742   9.006   9.787 -0.1522  1.3066 -2.3034
  2384G12c C01Z44198  -0.794   8.940   9.653 -0.0001 -0.5676  0.5400
  2384G12c H00R44199  -0.714   8.921   9.582  1.6946  2.5672  1.4973
  2384G12c H00Q44200  -0.790   8.835   9.681  2.2958  0.0110  2.5569
  2384G12c O00944201  -0.940   8.939   9.616 -2.1360 -1.2029  0.0583
  2384G12c H00P44202  -0.971   8.851   9.632  2.1870 -2.7442  0.6292
  2384G12c C01W44203  -0.835   9.058   9.871 -0.1208  1.1612  1.5271
  2384G12c H00O44204  -0.795   9.096   9.964  0.3430 -0.7451  2.1266
  2384G12c C01X44205  -0.978   9.096   9.869 -0.7369 -0.9903  0.2278
  2384G12c H00N44206  -0.966   9.204   9.870 -3.7044 -0.2419 -7.3696
  2384G12c H00M44207  -1.033   9.061   9.782  4.5797 -4.1275 -2.0913
  2384G12c C01Y44208  -1.051   9.083  10.006  0.8261  1.0077  1.7638
  2384G12c C02D44209  -1.136   9.190  10.034 -0.5943 -0.0117  0.9510
  2384G12c H01944210  -1.152   9.254   9.949 -3.1164 -2.7433 -0.7077
  2384G12c C02C44211  -1.195   9.195  10.161 -0.5342  1.1836 -1.5400
  2384G12c H01A44212  -1.266   9.275  10.179 -0.3762  1.4566 -2.1175
  2384G12c C02B44213  -1.160   9.097  10.255 -0.4176  1.5212 -0.5792
  2384G12c O00E44214  -1.237   9.105  10.378  1.1777 -1.0727  0.0522
  2384G12c H01B44215  -1.235   9.020  10.420  9.3629  0.3519  3.7572
  2384G12c C02F44216  -1.085   8.991  10.223 -0.8961  1.6577  0.7730
  2384G12c O00F44217  -1.054   8.898  10.315 -0.6982 -1.0175 -0.8898
  2384G12c C02G44218  -1.073   8.773  10.265 -1.7324  0.2514  0.4392
  2384G12c H01744219  -1.162   8.760  10.204  1.5782  4.5115 -5.9684
  2384G12c H01644220  -0.985   8.735  10.213 -2.7910  0.9390 -1.9202
  2384G12c H01544221  -1.084   8.707  10.350  1.8915 -1.4742 -0.3395
  2384G12c C02E44222  -1.022   8.989  10.103 -0.6215 -0.3028  1.2837
  2384G12c H01844223  -0.939   8.920  10.090  0.1222  0.0888  3.7808
  2384G12c C01F44224  -0.484   9.175   9.722  0.0002  0.3990  0.6803
  2384G12c C01G44225  -0.525   9.279   9.811  1.0059 -1.4492 -0.5481
  2384G12c H00L44226  -0.579   9.269   9.904  1.5643 -1.7565 -0.2533
  2384G12c C01H44227  -0.453   9.402   9.822  1.1208 -0.8128 -1.5144
  2384G12c H00B44228  -0.483   9.466   9.903  3.4453  1.0721 -2.1110
  2384G12c C01I44229  -0.376   9.439   9.712 -0.0184 -0.2900  0.0751
  2384G12c C01U44230  -0.386   9.218   9.606  1.7874  0.1215 -0.3430
  2384G12c C00S44231   0.160   9.103   9.609  0.5971  0.4745  0.8223
  2384G12c C00K44232   0.054   9.295   9.512  0.0541  0.9069  0.5797
  2384G12c C00N44233  -0.271   9.128   9.612 -1.5543 -0.8618 -1.1134
  2384G12c C00044234  -0.373   9.348   9.600 -0.7617 -1.8861 -1.3343
  2384G12c C01J44235  -0.249   9.511   9.698 -2.4522 -1.9272 -0.3941
  2384G12c C01K44236  -0.201   9.612   9.793  0.3461  0.5052  1.4866
  2384G12c C01P44237  -0.283   9.717   9.854 -0.6667  1.0743 -0.8658
  2384G12c C01Q44238  -0.425   9.747   9.838  0.8976  0.6979 -0.4181
  2384G12c H00G44239  -0.458   9.762   9.940  1.4402  1.9150 -0.4207
  2384G12c C01R44240  -0.489   9.730   9.721 -0.2732  0.1457  1.3182
  2384G12c H00F44241  -0.408   9.716   9.650  4.1555 -5.7536  6.9360
  2384G12c C01S44242  -0.631   9.746   9.669 -0.5672 -2.3578 -0.4601
  2384G12c H00E44243  -0.613   9.731   9.562  2.8385 -0.8648 -0.1499
  2384G12c H00D44244  -0.710   9.678   9.702  0.4179 -5.0597 -3.4440
  2384G12c O00544245  -0.668   9.865   9.734 -1.0214 -0.0612  1.6117
  2384G12c H00C44246  -0.668   9.835   9.824 -3.3684  0.3147  1.7598
  2384G12c C01O44247  -0.228   9.808   9.955 -1.7743 -0.2802  1.1697
  2384G12c H00H44248  -0.281   9.893   9.997  1.6391  3.4296 -1.6415
  2384G12c C01N44249  -0.102   9.839   9.952  0.9536  1.1611  1.5393
  2384G12c O00644250  -0.061   9.965   9.999  0.9653  0.1510  0.0719
  2384G12c C01T44251   0.054   9.956  10.089 -1.4159  0.1829 -0.4779
  2384G12c H00K44252   0.139   9.993  10.031 -2.3993 -0.0796 -2.1017
  2384G12c H00J44253   0.086   9.868  10.145  3.3490  5.1910  5.3506
  2384G12c H00I44254   0.022  10.025  10.166 -0.0180 -2.4778  2.5965
  2384G12c C01M44255  -0.021   9.744   9.880 -0.1902  0.0307  0.8365
  2384G12c C02044256   0.082   9.430   9.545  1.8616  1.5117  0.5282
  2384G12c C02144257   0.211   9.491   9.538  1.2729  0.5830  0.9589
  2384G12c C01L44258  -0.067   9.641   9.807  0.7675  0.7226  0.2213
  2384G12c O00744259   0.113   9.749   9.928 -0.6118  0.2802  0.6800
  2384G12c C02244260   0.245   9.602   9.620  0.5662 -0.3948  0.6019
  2384G12c C02344261   0.326   9.413   9.544  0.3193  1.1333  0.2752
  2384G12c C00G44262   0.511   9.246   9.657 -0.7962  0.0525  1.2210
  2384G12c C00E44263   0.728   9.219   9.786 -0.0077 -1.5338 -1.0917
  2384G12c O00A44264   0.758   9.185   9.918 -0.1747  0.3207 -0.3149
  2384G12c C02444265   0.675   9.156  10.020 -0.3827  1.6989  1.4367
  2384G12c H00V44266   0.659   9.049  10.028 -2.4192  1.1581 -6.4787
  2384G12c H00U44267   0.698   9.186  10.123 -2.6733  4.3391  1.2356
  2384G12c H00T44268   0.589   9.214   9.986 -0.8968 -0.7856 -1.6244
  2394G12c C00D44269  10.844   3.931  13.282 -0.7321 -0.5394 -1.5528
  2394G12c O00B44270  10.832   4.018  13.180  0.4255 -0.4855  0.0487
  2394G12c C02544271  10.928   4.021  13.085  1.1695  0.2151 -0.4357
  2394G12c C02644272  10.909   3.908  12.992 -0.2478  0.5846 -0.4329
  2394G12c H00Y44273  10.843   3.828  13.025 -1.0021  2.0130  1.5950
  2394G12c H00X44274  11.004   3.861  13.017 -2.5199 -4.0186  0.0500
  2394G12c O00C44275  10.919   3.903  12.855 -0.4327  0.1894 -0.9885
  2394G12c H00W44276  10.828   3.893  12.830  0.7821  4.8251 -8.8753
  2394G12c C02744277  11.034   4.106  13.067 -0.0630  0.5526 -1.4723
  2394G12c O00D44278  11.134   4.090  12.976  0.6483 -0.1214 -0.5392
  2394G12c H00Z44279  11.197   4.031  13.014  1.9839 -4.0182 -7.8905
  2394G12c C02844280  11.028   4.236  13.133  0.2048  0.1428  1.5819
  2394G12c C02944281  11.142   4.302  13.155 -1.6578  0.4440 -0.9888
  2394G12c H01044282  11.238   4.255  13.137 -1.6137  2.4180 -7.4411
  2394G12c C02T44283  11.149   4.425  13.219  0.6054  0.8678 -0.1996
  2394G12c H01O44284  11.256   4.438  13.231  0.8228 -0.0689 -1.0630
  2394G12c C02S44285  11.043   4.506  13.252  0.8185  1.9552  0.1991
  2394G12c O00J44286  11.048   4.618  13.324 -0.7115  0.2138  1.6329
  2394G12c H01P44287  10.958   4.647  13.320 -0.9748  0.8308  7.5324
  2394G12c C02R44288  10.917   4.459  13.210  0.5137  0.0464  0.7591
  2394G12c O00I44289  10.800   4.538  13.239  0.0863 -0.5177  1.1475
  2394G12c C02Q44290  10.680   4.478  13.215  1.4108  0.4701 -0.3479
  2394G12c H01N44291  10.692   4.386  13.273  0.1186  3.5341  5.1438
  2394G12c H01R44292  10.699   4.465  13.109 -0.9928  3.0480 -1.1269
  2394G12c H01Q44293  10.599   4.543  13.249  2.8177  1.4583  1.1820
  2394G12c C02A44294  10.923   4.334  13.145  0.4177  1.1616  0.3686
  2394G12c H01144295  10.828   4.316  13.097 -0.8964 -1.3860  3.7315
  2394G12c C00C44296  10.962   3.852  13.297 -1.5147  0.1628  0.1379
  2394G12c H01244297  11.055   3.854  13.240 -1.8753 -2.6483 -0.6208
  2394G12c C00B44298  10.977   3.767  13.394  0.2322 -1.0513  1.4458
  2394G12c C00A44299  11.084   3.688  13.429 -0.2318 -0.9337 -0.4679
  2394G12c C00944300  11.183   3.633  13.343  0.4176  1.0142 -1.1768
  2394G12c C00844301  11.169   3.622  13.194 -0.6060  1.1627  0.6455
  2394G12c H01344302  11.142   3.708  13.135  0.5156 -1.3535 -3.7070
  2394G12c C00744303  11.227   3.504  13.137  0.5305  0.2975  0.5880
  2394G12c H01444304  11.259   3.468  13.040  3.1207  2.1483  0.7149
  2394G12c C00644305  11.256   3.383  13.218 -1.4136  2.0766 -1.0738
  2394G12c C00544306  11.270   3.409  13.354  1.3051  0.2424 -0.6136
  2394G12c C00444307  11.311   3.304  13.441 -0.8886 -0.6116 -0.8565
  2394G12c C00344308  11.278   3.311  13.577 -1.9249  0.3506  0.1070
  2394G12c C00244309  11.289   3.192  13.663  0.0427 -0.1405  2.1523
  2394G12c C00144310  11.240   3.147  13.785  0.8896 -1.8985 -0.1612
  2394G12c C00M44311  11.095   3.163  13.825  0.4582 -0.1166 -0.2988
  2394G12c C00L44312  11.039   3.295  13.832  0.0804 -1.7496  0.2060
  2394G12c C00R44313  10.897   3.303  13.818  2.5955 -1.0622 -0.0410
  2394G12c C00Q44314  10.780   3.218  13.844  0.5126 -1.0233  0.5871
  2394G12c C00V44315  10.657   3.286  13.826  0.1830 -1.0237  1.3943
  2394G12c C00U44316  10.643   3.420  13.777 -1.0066  0.2482  0.1519
  2394G12c C00T44317  10.749   3.469  13.718 -0.5351  0.0147  0.3878
  2394G12c C01644318  10.754   3.587  13.647 -0.4870 -0.9332  0.4918
  2394G12c C01544319  10.651   3.673  13.650 -0.0459 -0.3812 -0.4771
  2394G12c C01044320  10.525   3.627  13.708 -1.2397  0.8431  0.9241
  2394G12c C01144321  10.412   3.701  13.691  0.1284  0.6906  1.1221
  2394G12c H00544322  10.314   3.665  13.716 -0.2675 -0.4566 -1.7950
  2394G12c C01244323  10.402   3.821  13.622  1.7023 -0.0809  1.3770
  2394G12c C01744324  10.276   3.865  13.607  1.3872  0.2977  0.0714
  2394G12c O00244325  10.203   3.934  13.709  0.4292  1.0172 -1.1732
  2394G12c H00444326  10.119   3.898  13.684 -0.4277  1.3191  1.1426
  2394G12c C01844327  10.219   3.821  13.492  0.9847 -0.7643  1.8506
  2394G12c O00144328  10.261   3.755  13.375  0.3627 -0.4557 -0.6829
  2394G12c H00344329  10.189   3.723  13.322  2.0518 -7.1560  0.5873
  2394G12c C01944330  10.074   3.887  13.464  1.3548  0.1086 -0.5803
  2394G12c H00244331  10.117   3.987  13.460  1.3772  0.0325 -3.0055
  2394G12c H00144332  10.057   3.881  13.357  2.4324 -2.6524 -0.6491
  2394G12c O00044333   9.994   3.893  13.579 -0.9428 -0.4682 -0.1411
  2394G12c C01A44334   9.924   4.013  13.576 -2.1764 -2.8280 -2.0911
  2394G12c C02K44335   9.845   4.059  13.473  1.6575  0.9297 -1.0695
  2394G12c O00G44336   9.827   4.050  13.344 -0.3046  0.0439  0.2862
  2394G12c C02M44337   9.952   4.108  13.278 -0.3760 -0.3559 -2.4683
  2394G12c H01G44338  10.039   4.125  13.341 -1.5908  0.0240 -0.8832
  2394G12c H01F44339   9.920   4.178  13.201 -2.8510 -0.6471 -1.7339
  2394G12c H01E44340  10.009   4.038  13.216  6.9228  3.2527 -0.3659
  2394G12c C02J44341   9.747   4.154  13.515 -1.9942  1.0353 -1.2742
  2394G12c H01H44342   9.685   4.212  13.448 -0.2118  3.4313 -0.9228
  2394G12c C02I44343   9.740   4.218  13.648 -0.4636 -0.2895  1.1906
  2394G12c C02N44344   9.668   4.328  13.675  0.9276 -1.3308  1.0755
  2394G12c H01M44345   9.691   4.397  13.755  9.9411 -1.3005 -0.9314
  2394G12c C02O44346   9.558   4.353  13.608  0.7471  0.5197 -1.0379
  2394G12c H01L44347   9.518   4.283  13.537  0.1820 -1.5768  1.2746
  2394G12c C02P44348   9.501   4.498  13.613  1.0296 -1.5696  1.1824
  2394G12c H01K44349   9.426   4.522  13.688 -4.2956 -4.4434 -2.9154
  2394G12c H01J44350   9.564   4.583  13.639 -1.6507  1.4933 -1.9008
  2394G12c O00H44351   9.434   4.515  13.511  0.4890  1.4884  0.1177
  2394G12c H01I44352   9.350   4.486  13.541 -3.2168  1.1498 -8.9041
  2394G12c C02H44353   9.862   4.193  13.726  0.6204  1.5302  2.0860
  2394G12c H01C44354   9.892   4.240  13.819  1.0268  2.1183  1.6518
  2394G12c C02L44355   9.948   4.092  13.692 -1.1638 -1.0026  1.0556
  2394G12c H01D44356  10.014   4.082  13.777 -5.9770  4.1271  5.8345
  2394G12c C01344357  10.525   3.880  13.586 -0.3994  0.4773 -0.8437
  2394G12c H00044358  10.524   3.976  13.536  1.9036  0.6684 -0.5889
  2394G12c C01444359  10.645   3.789  13.572  2.0653 -0.2391  1.0581
  2394G12c C00F44360  10.751   3.829  13.483  1.0336  0.1850  0.4178
  2394G12c C00H44361  10.864   3.646  13.596 -0.3374  0.6406 -1.1088
  2394G12c C00I44362  10.982   3.597  13.635 -1.6470  1.9657  1.0069
  2394G12c C00J44363  10.970   3.488  13.730  1.2824 -0.2265  1.0996
  2394G12c C00Z44364  10.518   3.500  13.769 -1.0315  0.7215  0.8723
  2394G12c C00Y44365  10.393   3.425  13.787  1.1234 -0.9087  0.8020
  2394G12c H00644366  10.299   3.471  13.760  0.5312 -5.2503 -5.8768
  2394G12c C00X44367  10.404   3.295  13.827  1.8827 -1.4718 -0.2515
  2394G12c O00344368  10.305   3.206  13.866 -0.0457 -1.5838 -1.0526
  2394G12c C01B44369  10.241   3.239  13.993  1.2534  0.2779 -0.3054
  2394G12c H00944370  10.298   3.216  14.084  3.8451  0.9646 -1.7021
  2394G12c H00844371  10.152   3.179  14.013  4.2812 -2.6974  5.7235
  2394G12c H00744372  10.206   3.337  14.023 -3.6299 -2.4820  3.9568
  2394G12c C00W44373  10.524   3.224  13.838  0.3973  1.1194 -2.1301
  2394G12c O00444374  10.526   3.091  13.871  0.7762 -0.2122  1.2996
  2394G12c C01C44375  10.640   3.024  13.894  1.2314 -1.4858 -0.3317
  2394G12c H00A44376  10.635   2.941  13.963  4.8057 -8.3569 -7.4948
  2394G12c C00P44377  10.774   3.073  13.883 -0.6381 -0.0822  0.6361
  2394G12c C00O44378  10.901   2.991  13.885 -0.0640 -0.1368  1.5188
  2394G12c C01D44379  10.886   2.849  13.864  0.5426  1.1733 -0.1058
  2394G12c H00S44380  10.819   2.782  13.915 -2.0152  1.1231 -3.3470
  2394G12c C01E44381  10.978   2.757  13.802 -0.5088 -0.2229  0.3233
  2394G12c O00844382  10.952   2.632  13.794  1.2645  1.3787  0.6687
  2394G12c C01V44383  10.826   2.579  13.803 -0.5929 -0.3043  0.3452
  2394G12c C01Z44384  10.795   2.477  13.907 -1.3039 -0.2467  0.6706
  2394G12c H00R44385  10.825   2.388  13.852  1.0215 -2.5250  5.2417
  2394G12c H00Q44386  10.811   2.531  14.001 -0.8166 -1.0698  1.0770
  2394G12c O00944387  10.657   2.468  13.929 -0.6048  0.1999 -0.3532
  2394G12c H00P44388  10.640   2.376  13.927 -2.7570  0.5880 -0.3079
  2394G12c C01W44389  10.753   2.590  13.688 -0.5354  1.1538  0.1311
  2394G12c H00O44390  10.691   2.507  13.659  0.9345  0.1530 -0.2175
  2394G12c C01X44391  10.784   2.679  13.567  0.4357  1.1351 -0.7133
  2394G12c H00N44392  10.854   2.759  13.589  5.2976 -2.8188 -1.0833
  2394G12c H00M44393  10.861   2.627  13.510 -2.5309 -1.7392 -2.2719
  2394G12c C01Y44394  10.673   2.736  13.491  0.8898  1.0028  0.2815
  2394G12c C02D44395  10.710   2.829  13.380 -1.2582 -0.1131 -2.5407
  2394G12c H01944396  10.808   2.837  13.335  1.5926  4.4374  3.6754
  2394G12c C02C44397  10.591   2.906  13.326 -1.1880  0.5271 -1.5425
  2394G12c H01A44398  10.618   2.979  13.250  1.8065  0.2145 -0.8659
  2394G12c C02B44399  10.462   2.866  13.343 -2.9490  2.4774 -2.5835
  2394G12c O00E44400  10.369   2.921  13.259 -1.7671 -0.2785  1.4221
  2394G12c H01B44401  10.385   3.014  13.267  2.1577 -0.5062 -2.3070
  2394G12c C02F44402  10.439   2.789  13.463 -0.4760  1.1829 -0.4666
  2394G12c O00F44403  10.303   2.777  13.504  0.3501 -0.1249  0.8628
  2394G12c C02G44404  10.262   2.775  13.643  0.1419 -0.7969 -1.9589
  2394G12c H01744405  10.253   2.857  13.714 -1.7432 -0.9240 -2.0278
  2394G12c H01644406  10.328   2.702  13.692 -0.8828 -1.2269 -1.2076
  2394G12c H01544407  10.159   2.742  13.658  1.2495 -2.8049  2.1591
  2394G12c C02E44408  10.541   2.727  13.541 -0.8266  0.2866  1.0400
  2394G12c H01844409  10.510   2.662  13.622  2.1600 -1.0621  1.1425
  2394G12c C01F44410  11.097   2.818  13.777 -0.5684  1.2714  2.0300
  2394G12c C01G44411  11.197   2.750  13.707  2.1135 -0.4129  0.5134
  2394G12c H00L44412  11.176   2.645  13.711 -7.5077  1.0405  0.3505
  2394G12c C01H44413  11.297   2.819  13.637 -0.3711  0.1806  0.9443
  2394G12c H00B44414  11.363   2.755  13.581 -2.0193  2.0919 -3.3860
  2394G12c C01I44415  11.330   2.955  13.682 -1.0491 -0.9572 -0.5014
  2394G12c C01U44416  11.127   2.959  13.807  0.3663 -0.3469 -0.8087
  2394G12c C00S44417  10.862   3.402  13.722 -1.8190 -0.7200 -0.4314
  2394G12c C00K44418  11.081   3.388  13.742  0.4842 -0.2571  1.8957
  2394G12c C00N44419  11.023   3.031  13.848  0.2035 -0.6998  0.1531
  2394G12c C00044420  11.255   3.008  13.797 -0.2637  1.8681  1.2199
  2394G12c C01J44421  11.342   3.082  13.600  0.9707 -0.3122 -2.0927
  2394G12c C01K44422  11.374   3.069  13.462  1.2328 -0.5591 -0.1902
  2394G12c C01P44423  11.463   2.997  13.403  0.2331  1.3619 -0.9901
  2394G12c C01Q44424  11.559   2.916  13.478  0.6410 -0.6648  0.7050
  2394G12c H00G44425  11.534   2.813  13.461 -2.2342 -0.3037  2.3768
  2394G12c C01R44426  11.672   2.974  13.525  0.7914 -0.3292 -1.0923
  2394G12c H00F44427  11.745   2.894  13.531 -5.6378 -6.5064  3.7861
  2394G12c C01S44428  11.698   3.125  13.495 -0.1658 -0.2455 -0.8288
  2394G12c H00E44429  11.648   3.149  13.401 -1.1913  0.5192 -0.0885
  2394G12c H00D44430  11.807   3.119  13.490  0.0838  3.5513 -1.6431
  2394G12c O00544431  11.647   3.214  13.604  0.4278 -0.5287  0.7346
  2394G12c H00C44432  11.553   3.205  13.597  0.7765 -4.4748  0.3157
  2394G12c C01O44433  11.459   2.969  13.267  0.1661 -0.7416 -0.2917
  2394G12c H00H44434  11.501   2.872  13.243  1.2853  0.7604 -5.0445
  2394G12c C01N44435  11.367   3.044  13.177  0.2195  1.3348  0.7289
  2394G12c O00644436  11.366   3.023  13.028  0.1400 -0.5670  1.3332
  2394G12c C01T44437  11.367   3.138  12.922  0.1343 -0.2680  0.5439
  2394G12c H00K44438  11.396   3.233  12.966 -2.2019  2.2276 -3.1052
  2394G12c H00J44439  11.304   3.106  12.839 -1.6554 -0.4811  1.9557
  2394G12c H00I44440  11.458   3.127  12.862  0.8493  1.0698  1.3640
  2394G12c C01M44441  11.344   3.165  13.248  1.9948 -0.8306 -0.9748
  2394G12c C02044442  11.178   3.405  13.631  1.2139 -0.2964 -2.4322
  2394G12c C02144443  11.188   3.522  13.553 -0.7695  1.6002  1.0589
  2394G12c C01L44444  11.336   3.177  13.391  0.7987 -0.7948  0.7250
  2394G12c O00744445  11.289   3.259  13.161  0.3231  0.4782  0.2569
  2394G12c C02244446  11.234   3.528  13.425  0.3616  0.9398  0.6157
  2394G12c C02344447  11.091   3.630  13.555  0.2425 -0.1355 -0.1499
  2394G12c C00G44448  10.856   3.739  13.486 -0.9679 -0.1939 -0.7204
  2394G12c C00E44449  10.738   3.927  13.369 -0.0725 -1.0153  0.0871
  2394G12c O00A44450  10.636   4.013  13.349  0.4855  0.6560 -0.1130
  2394G12c C02444451  10.529   3.970  13.285  1.4550 -0.1047  0.1350
  2394G12c H00V44452  10.474   4.043  13.344  1.9080  2.4410 -2.4776
  2394G12c H00U44453  10.519   3.864  13.310 -6.2078 -1.1284 -5.3316
  2394G12c H00T44454  10.531   3.985  13.177  5.0150 -1.3452 -0.0462
  2404G12c C00D44455   0.965   5.569  12.531  0.3591 -0.5418 -0.1959
  2404G12c O00B44456   0.922   5.576  12.676  0.5448 -0.8390  1.5877
  2404G12c C02544457   0.899   5.460  12.747  0.5666 -1.6379  0.4728
  2404G12c C02644458   0.764   5.483  12.828 -0.1632  1.7451 -0.2042
  2404G12c H00Y44459   0.715   5.411  12.894  0.7779  1.2650 -0.0149
  2404G12c H00X44460   0.701   5.482  12.740  4.0033  2.2393 -3.3652
  2404G12c O00C44461   0.762   5.603  12.904 -1.3944 -0.8528 -0.4776
  2404G12c H00W44462   0.833   5.609  12.966 -1.1308  5.4290 -1.0381
  2404G12c C02744463   0.983   5.366  12.772  0.1429 -0.7978 -0.8700
  2404G12c O00D44464   1.097   5.355  12.685  0.5940 -0.7830 -0.7608
  2404G12c H00Z44465   1.057   5.400  12.612 -6.8641 -0.2077  3.2620
  2404G12c C02844466   0.953   5.268  12.865  0.5388  0.0587  0.2185
  2404G12c C02944467   0.868   5.149  12.856  2.4307 -1.1840  0.1091
  2404G12c H01044468   0.842   5.142  12.752 -0.5849  0.4590  0.6836
  2404G12c C02T44469   0.843   5.080  12.970  0.4992 -1.5070 -1.0016
  2404G12c H01O44470   0.766   5.006  12.955  0.0049 -0.9025 -1.4924
  2404G12c C02S44471   0.897   5.092  13.090 -1.5552 -1.7811  0.5702
  2404G12c O00J44472   0.880   5.023  13.192 -0.6972  0.2226 -2.1240
  2404G12c H01P44473   0.947   5.067  13.241 -2.4831  2.9961 -2.0452
  2404G12c C02R44474   0.991   5.198  13.110  1.4794 -0.7350  1.4003
  2404G12c O00I44475   1.012   5.243  13.236  0.6171  0.5059 -0.7989
  2404G12c C02Q44476   1.095   5.343  13.275  0.9981  0.6575 -0.1788
  2404G12c H01N44477   1.114   5.353  13.381 -0.5273 -5.8711  0.9698
  2404G12c H01R44478   1.184   5.354  13.213  1.2712 -2.2278 -0.3865
  2404G12c H01Q44479   1.034   5.420  13.228  0.3431  0.8490  0.9784
  2404G12c C02A44480   1.006   5.282  13.000 -0.3284 -1.2397 -0.0359
  2404G12c H01144481   1.052   5.379  13.010 -3.3267  0.0409  2.5806
  2404G12c C00C44482   0.964   5.452  12.451  0.6351  1.3620 -1.8806
  2404G12c H01244483   0.898   5.370  12.477 -0.1011  1.6517 -2.7894
  2404G12c C00B44484   1.071   5.440  12.369  1.5030  1.4374 -0.9910
  2404G12c C00A44485   1.076   5.332  12.274 -0.3138  1.3046  0.0440
  2404G12c C00944486   1.029   5.200  12.285  0.8484  0.0239  0.1647
  2404G12c C00844487   0.940   5.129  12.357  0.4574  0.6878 -1.1292
  2404G12c H01344488   0.854   5.166  12.412 -0.2965 -5.6317  2.5471
  2404G12c C00744489   0.955   4.982  12.370 -0.4104 -1.4798 -1.4743
  2404G12c H01444490   0.916   4.951  12.465  3.1270 -0.0827  0.5076
  2404G12c C00644491   1.058   4.914  12.286 -1.8491  0.4174 -0.4570
  2404G12c C00544492   1.123   4.985  12.191  0.7843  0.0190 -0.0023
  2404G12c C00444493   1.238   4.941  12.131 -0.4563  1.6953  0.4051
  2404G12c C00344494   1.323   5.028  12.065 -1.8674 -0.4348  0.6432
  2404G12c C00244495   1.459   4.964  12.014  1.0152 -0.5466 -0.5925
  2404G12c C00144496   1.587   5.019  11.971  0.2077 -1.0770 -1.9234
  2404G12c C00M44497   1.625   5.132  12.030  0.3439 -3.2969 -1.4433
  2404G12c C00L44498   1.570   5.255  12.041  1.2648 -0.8170 -1.3676
  2404G12c C00R44499   1.625   5.377  12.104 -0.8610 -0.3740  1.3346
  2404G12c C00Q44500   1.742   5.422  12.159  0.4044 -0.0391  0.0791
  2404G12c C00V44501   1.740   5.540  12.233 -0.9668 -0.0368  0.0061
  2404G12c C00U44502   1.633   5.616  12.270 -1.7313 -0.0624 -1.3988
  2404G12c C00T44503   1.516   5.558  12.238  0.3964 -0.6454  0.4814
  2404G12c C01644504   1.384   5.613  12.278 -0.4080  1.7980  0.8992
  2404G12c C01544505   1.392   5.722  12.360  0.1093 -0.8183 -1.0532
  2404G12c C01044506   1.515   5.791  12.387 -1.2638  1.1533  0.4650
  2404G12c C01144507   1.510   5.898  12.483 -2.0696 -0.0756  2.1582
  2404G12c H00544508   1.595   5.960  12.508 -4.7802  2.8814  4.4124
  2404G12c C01244509   1.377   5.957  12.508  0.4949  0.3914  1.0359
  2404G12c C01744510   1.348   6.080  12.579 -0.7177  0.1378 -1.3336
  2404G12c O00244511   1.227   6.087  12.655 -0.4911 -0.4508 -1.1527
  2404G12c H00444512   1.248   6.153  12.720  5.8389 -1.2260 -2.1130
  2404G12c C01844513   1.436   6.175  12.621 -0.0956  0.0738 -0.5564
  2404G12c O00144514   1.566   6.165  12.587 -1.0371 -0.7054  2.1842
  2404G12c H00344515   1.610   6.195  12.666  2.8571 -0.4277  0.0305
  2404G12c C01944516   1.410   6.279  12.726  0.4122 -0.5741 -0.5020
  2404G12c H00244517   1.364   6.363  12.675  1.2693 -0.1936 -0.6651
  2404G12c H00144518   1.376   6.241  12.822 -2.3378  4.6979  0.7776
  2404G12c O00044519   1.561   6.306  12.780  0.6287 -0.1117  0.3540
  2404G12c C01A44520   1.579   6.390  12.888  0.7138  0.3058  0.2951
  2404G12c C02K44521   1.702   6.406  12.939  0.3445  0.8467 -1.7687
  2404G12c O00G44522   1.820   6.354  12.882 -0.4144  0.1554  0.2805
  2404G12c C02M44523   1.859   6.424  12.770  0.8453 -1.2288  3.1993
  2404G12c H01G44524   1.962   6.462  12.774  0.6447 -0.3572  1.1530
  2404G12c H01F44525   1.794   6.511  12.766  0.4456 -1.5967  0.6642
  2404G12c H01E44526   1.843   6.332  12.713 -2.4707 -3.5099  7.6132
  2404G12c C02J44527   1.706   6.451  13.075 -0.6942  2.2835  1.3866
  2404G12c H01H44528   1.793   6.442  13.139 -0.3642  3.6468  1.1566
  2404G12c C02I44529   1.590   6.495  13.158  1.3234  1.7509  1.5333
  2404G12c C02N44530   1.616   6.519  13.297  0.8017 -0.0303  0.0594
  2404G12c H01M44531   1.547   6.487  13.373  2.8936-10.6390 -1.6324
  2404G12c C02O44532   1.732   6.578  13.329  0.2500 -1.1114 -1.1329
  2404G12c H01L44533   1.810   6.625  13.271 -1.5090  3.9207  0.3156
  2404G12c C02P44534   1.782   6.615  13.482  0.4268 -0.1993 -0.3918
  2404G12c H01K44535   1.865   6.545  13.496  0.5658 -1.0099 -4.7450
  2404G12c H01J44536   1.814   6.718  13.468  1.6221 -0.3739  0.8748
  2404G12c O00H44537   1.677   6.615  13.588  0.1645  2.2629  1.1367
  2404G12c H01I44538   1.608   6.559  13.554  0.5086  0.3019  3.5264
  2404G12c C02H44539   1.473   6.486  13.101 -0.5008 -0.2878 -0.2291
  2404G12c H01C44540   1.398   6.509  13.175  1.0420  5.6767 -0.2525
  2404G12c C02L44541   1.466   6.426  12.974 -0.4000  0.6330 -2.1523
  2404G12c H01D44542   1.370   6.398  12.931 -5.4052  2.6949  6.4631
  2404G12c C01344543   1.252   5.893  12.465 -1.8812  1.6960 -0.0109
  2404G12c H00044544   1.160   5.936  12.500 -3.5464  1.2940 -3.6585
  2404G12c C01444545   1.265   5.759  12.408  1.1186 -0.3807 -0.4843
  2404G12c C00F44546   1.146   5.672  12.411  0.2813  0.3717 -0.6290
  2404G12c C00H44547   1.267   5.528  12.270 -0.9463  1.0337  0.8886
  2404G12c C00I44548   1.272   5.421  12.168  0.0025 -1.6439  0.1876
  2404G12c C00J44549   1.402   5.380  12.104  1.1843  0.6527 -1.1781
  2404G12c C00Z44550   1.639   5.743  12.327 -0.7670  1.9555 -0.0624
  2404G12c C00Y44551   1.772   5.798  12.357  0.6070 -1.1315 -0.9926
  2404G12c H00644552   1.768   5.906  12.352 -4.5329 -1.0433  0.9907
  2404G12c C00X44553   1.873   5.712  12.353 -1.6047  0.8132  1.2468
  2404G12c O00344554   1.992   5.767  12.388 -1.0941  1.2245  0.4229
  2404G12c C01B44555   1.998   5.871  12.509  0.2808 -0.3292 -0.6364
  2404G12c H00944556   1.979   5.960  12.449  0.1536  1.3462  1.7816
  2404G12c H00844557   1.901   5.862  12.559 -1.7643 -2.1139 -4.7055
  2404G12c H00744558   2.100   5.874  12.545  0.6954  2.5246 -1.9029
  2404G12c C00W44559   1.862   5.581  12.290 -1.0454 -0.9921  1.5755
  2404G12c O00444560   1.974   5.506  12.294 -0.9378 -0.8126  1.3007
  2404G12c C01C44561   1.968   5.417  12.186  0.7105 -0.9511  1.3578
  2404G12c H00A44562   2.067   5.389  12.154  0.8697 -2.0154  2.7503
  2404G12c C00P44563   1.866   5.350  12.153 -1.3149  0.5155 -1.2711
  2404G12c C00O44564   1.873   5.203  12.139 -1.2746 -1.1643 -1.7257
  2404G12c C01D44565   1.960   5.130  12.213 -1.4107  1.9190  0.6288
  2404G12c H00S44566   2.028   5.191  12.270 -1.6415  3.7217 -0.9611
  2404G12c C01E44567   1.965   4.989  12.233  0.0236  1.5717  0.4193
  2404G12c O00844568   2.076   4.929  12.293  0.2096  0.5624 -0.8416
  2404G12c C01V44569   2.120   4.836  12.205 -0.0526 -0.1797 -1.6363
  2404G12c C01Z44570   2.207   4.891  12.086 -0.5614 -0.2862 -2.5913
  2404G12c H00R44571   2.160   4.989  12.099 -1.1909 -0.5926 -2.5758
  2404G12c H00Q44572   2.310   4.900  12.121  1.0213  2.4070 -7.4916
  2404G12c O00944573   2.170   4.861  11.954 -1.3399  0.2029  0.2050
  2404G12c H00P44574   2.121   4.780  11.944  4.6233 -3.6100 -0.2852
  2404G12c C01W44575   2.117   4.699  12.236 -0.4560  0.5647 -3.0534
  2404G12c H00O44576   2.152   4.624  12.166  0.2704 -4.5508  2.3214
  2404G12c C01X44577   2.091   4.631  12.380  0.9168 -0.7639  0.6083
  2404G12c H00N44578   2.001   4.660  12.434  2.4282  5.1715  0.2867
  2404G12c H00M44579   2.038   4.541  12.348 -1.0083  0.8485 -0.8719
  2404G12c C01Y44580   2.218   4.589  12.453 -0.0129 -0.7078  1.0828
  2404G12c C02D44581   2.209   4.490  12.562  0.0385  0.2224 -1.1273
  2404G12c H01944582   2.113   4.439  12.561 -2.0803  3.9856  0.3202
  2404G12c C02C44583   2.312   4.463  12.650 -0.0585  0.9245  1.5934
  2404G12c H01A44584   2.310   4.383  12.724  4.1736  0.2920  1.1296
  2404G12c C02B44585   2.430   4.535  12.632  1.5681  0.7749  0.4346
  2404G12c O00E44586   2.519   4.501  12.734  0.3402 -0.0377  0.3568
  2404G12c H01B44587   2.477   4.475  12.814  3.1524 -3.0294  0.9650
  2404G12c C02F44588   2.453   4.630  12.531  1.0238 -0.5876 -1.3375
  2404G12c O00F44589   2.579   4.699  12.540  1.0218 -0.4339 -0.3079
  2404G12c C02G44590   2.657   4.731  12.421  0.6580  1.0458 -1.6049
  2404G12c H01744591   2.619   4.827  12.386 -0.9414  1.5171  1.3347
  2404G12c H01644592   2.617   4.662  12.346  0.1021  1.4745 -1.7080
  2404G12c H01544593   2.765   4.723  12.430  0.3728 -0.7034  0.6870
  2404G12c C02E44594   2.332   4.649  12.445 -1.3544 -0.2899  0.7658
  2404G12c H01844595   2.362   4.722  12.372  5.0995 -0.9949  2.3920
  2404G12c C01F44596   1.856   4.923  12.174 -0.7703  1.6511  1.5718
  2404G12c C01G44597   1.805   4.789  12.210 -0.8788 -1.3893  1.3912
  2404G12c H00L44598   1.865   4.742  12.287 -0.8424  2.2703  3.6988
  2404G12c C01H44599   1.688   4.726  12.147  0.8527 -1.2341  0.3566
  2404G12c H00B44600   1.649   4.633  12.186 -5.4393  2.3101  3.1240
  2404G12c C01I44601   1.626   4.809  12.051 -0.5420 -1.3413  0.7056
  2404G12c C01U44602   1.790   4.977  12.067  0.1528  0.7512 -0.3493
  2404G12c C00S44603   1.514   5.427  12.173 -1.3671  1.1916  1.9679
  2404G12c C00K44604   1.427   5.257  12.042 -0.2906 -0.4572 -1.2159
  2404G12c C00N44605   1.761   5.119  12.092 -0.4659 -0.4663  1.0654
  2404G12c C00044606   1.691   4.922  11.985  0.2580 -0.3358  1.2596
  2404G12c C01J44607   1.479   4.828  12.041 -0.2459 -1.0172  0.4095
  2404G12c C01K44608   1.379   4.738  12.093  0.8393 -1.0955 -0.0912
  2404G12c C01P44609   1.363   4.596  12.092 -0.6057  0.5515 -0.0122
  2404G12c C01Q44610   1.450   4.502  12.031 -1.1801 -0.2122  0.0923
  2404G12c H00G44611   1.494   4.501  11.933 -2.0640 -4.3218 -0.3777
  2404G12c C01R44612   1.499   4.406  12.126  0.3376  0.1228  0.2553
  2404G12c H00F44613   1.562   4.324  12.095  2.5024 -0.6913  6.1625
  2404G12c C01S44614   1.498   4.411  12.289  0.5095 -0.4892  0.4081
  2404G12c H00E44615   1.409   4.438  12.346 -0.7474  0.6101 -2.0192
  2404G12c H00D44616   1.515   4.310  12.326 -0.3584 -4.7990 -9.4543
  2404G12c O00544617   1.627   4.450  12.331  0.6127  0.5739  0.5369
  2404G12c H00C44618   1.599   4.465  12.420 -4.6433 -4.8434  0.1348
  2404G12c C01O44619   1.236   4.533  12.122  0.3082  0.2836  1.3941
  2404G12c H00H44620   1.228   4.425  12.116  6.5932 -0.3617  1.2364
  2404G12c C01N44621   1.150   4.592  12.192 -0.4196  0.2350 -0.7973
  2404G12c O00644622   1.033   4.536  12.248  0.3895  0.5682  0.2466
  2404G12c C01T44623   1.044   4.499  12.389 -0.1310  0.9461 -0.2370
  2404G12c H00K44624   0.994   4.582  12.440 -0.4043  1.4641 -1.3404
  2404G12c H00J44625   1.151   4.494  12.409  0.6713  2.3897 -3.7453
  2404G12c H00I44626   1.009   4.406  12.434 -2.3229  1.1846 -1.3472
  2404G12c C01M44627   1.166   4.727  12.225  0.2877 -0.6621 -0.6085
  2404G12c C02044628   1.311   5.171  12.065  0.6023 -1.1598  0.6536
  2404G12c C02144629   1.193   5.215  12.106 -2.6931  1.0510  0.3505
  2404G12c C01L44630   1.263   4.805  12.150  0.0508 -0.1444  0.2190
  2404G12c O00744631   1.087   4.777  12.321  1.2961 -1.3140 -0.2979
  2404G12c C02244632   1.088   5.128  12.171 -0.8175 -1.4018 -2.4112
  2404G12c C02344633   1.165   5.340  12.172  0.0429  0.5031  1.2126
  2404G12c C00G44634   1.163   5.554  12.349  0.7614  0.8965 -1.4709
  2404G12c C00E44635   1.038   5.688  12.496 -2.1133 -0.3736  0.5471
  2404G12c O00A44636   0.990   5.801  12.538  0.8455  0.4449  0.5548
  2404G12c C02444637   0.847   5.794  12.494  0.3012 -0.1035  0.5300
  2404G12c H00V44638   0.797   5.751  12.581 -1.1027 -2.6104 -1.4400
  2404G12c H00U44639   0.801   5.727  12.421  0.4001 -3.2097  3.2186
  2404G12c H00T44640   0.803   5.887  12.459  4.6340  1.9758  0.2337
  2414G12c C00D44641   8.075   3.551  12.775 -0.2756 -0.2346  0.2196
  2414G12c O00B44642   7.997   3.478  12.691  0.2772  1.1094  0.5776
  2414G12c C02544643   7.901   3.399  12.758 -3.2821  0.3785  0.5033
  2414G12c C02644644   7.755   3.460  12.766 -1.1847  1.6734  0.5365
  2414G12c H00Y44645   7.785   3.550  12.819  2.3649 -0.7190  2.8016
  2414G12c H00X44646   7.689   3.415  12.840 -3.1576  4.0956  0.3105
  2414G12c O00C44647   7.705   3.452  12.625  0.7565  0.3995  0.0278
  2414G12c H00W44648   7.777   3.394  12.606  4.4009  5.7829 -3.8228
  2414G12c C02744649   7.924   3.265  12.715 -0.2227  1.0398  0.1585
  2414G12c O00D44650   8.049   3.238  12.669 -0.6186 -1.8746  0.4486
  2414G12c H00Z44651   8.111   3.310  12.661 -1.6599 -1.1766 -1.8527
  2414G12c C02844652   7.838   3.155  12.738 -2.0825 -1.7047 -0.2703
  2414G12c C02944653   7.901   3.056  12.818 -0.2090  0.6501 -0.6263
  2414G12c H01044654   7.998   3.094  12.847 -2.6280  6.7838  0.1223
  2414G12c C02T44655   7.845   2.920  12.843 -0.1219  0.9097  0.6608
  2414G12c H01O44656   7.908   2.865  12.912  0.8493  4.2578  2.5292
  2414G12c C02S44657   7.711   2.901  12.805 -1.1236  0.2494 -0.5021
  2414G12c O00J44658   7.665   2.772  12.804 -0.1873  0.2773  0.8890
  2414G12c H01P44659   7.704   2.715  12.868 -0.1708  1.0492  1.5699
  2414G12c C02R44660   7.665   2.996  12.723  0.3714  1.2146  1.9117
  2414G12c O00I44661   7.591   2.936  12.632  0.3784  0.2316  0.6437
  2414G12c C02Q44662   7.515   3.004  12.532 -1.1578 -1.8849  0.8340
  2414G12c H01N44663   7.573   3.020  12.441  0.5360 -2.2792  1.8350
  2414G12c H01R44664   7.469   3.084  12.590  0.2743  0.2122 -0.8121
  2414G12c H01Q44665   7.469   2.906  12.526 -0.4602 -2.2948  2.1295
  2414G12c C02A44666   7.699   3.124  12.708 -0.8546 -1.1312 -1.0080
  2414G12c H01144667   7.637   3.184  12.643 -0.9869 -2.4598 -2.1293
  2414G12c C00C44668   8.113   3.681  12.725 -1.2090 -1.6359 -0.0806
  2414G12c H01244669   8.070   3.694  12.627 -2.4765 -1.1227  0.5386
  2414G12c C00B44670   8.192   3.776  12.794  1.1135 -0.3838 -1.0521
  2414G12c C00A44671   8.244   3.910  12.739  0.6811  0.9528  1.6020
  2414G12c C00944672   8.316   3.928  12.610 -2.1302 -0.5782  1.4373
  2414G12c C00844673   8.341   3.853  12.490 -0.9200 -1.0676 -0.5175
  2414G12c H01344674   8.329   3.747  12.474  5.7153 -2.1220  0.0558
  2414G12c C00744675   8.436   3.895  12.400  0.6169 -1.0463 -0.3104
  2414G12c H01444676   8.471   3.839  12.314  2.7187 -4.4978  2.6181
  2414G12c C00644677   8.541   3.995  12.430 -0.6280  0.1055  0.0620
  2414G12c C00544678   8.521   4.053  12.572 -1.0798  1.9210  0.1026
  2414G12c C00444679   8.628   4.128  12.620 -0.5495  0.3582 -1.7605
  2414G12c C00344680   8.617   4.176  12.757 -0.1575  0.7239 -0.5335
  2414G12c C00244681   8.727   4.262  12.812  0.3302  0.8904  1.8951
  2414G12c C00144682   8.753   4.303  12.938  1.3327  0.0442 -1.0800
  2414G12c C00M44683   8.741   4.220  13.058 -0.9898  0.3031 -2.0275
  2414G12c C00L44684   8.635   4.127  13.059  0.0016 -0.8802 -1.8477
  2414G12c C00R44685   8.615   4.021  13.153 -0.1653  0.8522  0.4053
  2414G12c C00Q44686   8.703   3.984  13.258 -0.8687  0.2523  0.3305
  2414G12c C00V44687   8.645   3.885  13.338  0.0594 -0.0592 -0.7329
  2414G12c C00U44688   8.544   3.798  13.288  0.8693 -2.0736 -1.2862
  2414G12c C00T44689   8.466   3.836  13.188 -0.9854  0.9344  0.1834
  2414G12c C01644690   8.361   3.782  13.118  0.8684  0.2864  0.1923
  2414G12c C01544691   8.299   3.682  13.188 -0.5496 -0.0102 -0.4295
  2414G12c C01044692   8.341   3.659  13.317 -1.8727  0.6994 -0.1298
  2414G12c C01144693   8.253   3.587  13.397  0.7264  1.3047 -0.0826
  2414G12c H00544694   8.290   3.582  13.498 -5.5037 -0.6426  2.3827
  2414G12c C01244695   8.154   3.515  13.342 -0.2109  0.7210  0.6890
  2414G12c C01744696   8.079   3.402  13.425  0.0030 -0.5270 -0.8088
  2414G12c O00244697   7.944   3.423  13.432 -0.4724 -0.1794  0.0446
  2414G12c H00444698   7.955   3.501  13.379  2.3683 -1.1800 -0.8852
  2414G12c C01844699   8.140   3.308  13.495 -0.8599  1.1075  0.7433
  2414G12c O00144700   8.283   3.313  13.477  0.3076  0.2964  0.5990
  2414G12c H00344701   8.339   3.381  13.443 -1.8271  0.4822 -2.7751
  2414G12c C01944702   8.073   3.235  13.594 -0.3148  1.1054 -0.3746
  2414G12c H00244703   7.983   3.194  13.546 -0.5251  2.1826 -0.9185
  2414G12c H00144704   8.120   3.144  13.630  2.8195  2.0367 -1.9825
  2414G12c O00044705   8.040   3.315  13.694 -0.5210  0.1988  0.1431
  2414G12c C01A44706   8.022   3.244  13.814 -0.2587  0.6801 -0.8024
  2414G12c C02K44707   8.067   3.304  13.929 -1.6435 -0.6714 -0.9109
  2414G12c O00G44708   8.176   3.378  13.905  1.5347 -0.5886  0.0178
  2414G12c C02M44709   8.171   3.515  13.937 -0.2058 -1.6940 -0.2122
  2414G12c H01G44710   8.100   3.598  13.927  1.2518 -0.7726 -3.3441
  2414G12c H01F44711   8.259   3.573  13.911 -2.4741  3.4368  2.7347
  2414G12c H01E44712   8.211   3.521  14.038  7.0564 -0.8541 -2.9072
  2414G12c C02J44713   8.046   3.259  14.060 -0.5992 -0.0503  0.9425
  2414G12c H01H44714   8.084   3.323  14.138  0.6602  1.9385 -1.2433
  2414G12c C02I44715   7.945   3.171  14.090  0.5415  0.0688  0.4715
  2414G12c C02N44716   7.880   3.129  14.223 -0.7459 -0.4263 -0.4161
  2414G12c H01M44717   7.867   3.181  14.317 -1.1210 -1.2396 -0.0094
  2414G12c C02O44718   7.857   3.004  14.260  0.4557 -1.6610 -0.5058
  2414G12c H01L44719   7.851   2.936  14.177 -1.6199 -0.6781 -1.2117
  2414G12c C02P44720   7.786   2.978  14.403  0.6128 -1.1052 -0.0870
  2414G12c H01K44721   7.759   2.876  14.434 -6.4474  1.1990  2.2861
  2414G12c H01J44722   7.846   3.010  14.489  1.8180  4.4422 -2.7771
  2414G12c O00H44723   7.663   3.039  14.403  0.2732 -0.2291  0.3410
  2414G12c H01I44724   7.637   3.112  14.349 -7.4192  0.6150  4.4607
  2414G12c C02H44725   7.883   3.113  13.982  1.1699 -0.1369 -0.6522
  2414G12c H01C44726   7.791   3.063  14.007 -0.1019  2.9727  1.0885
  2414G12c C02L44727   7.923   3.149  13.851  0.6088  0.5728  0.4198
  2414G12c H01D44728   7.855   3.110  13.775 -3.7092  1.8625  3.4100
  2414G12c C01344729   8.116   3.529  13.209  1.7407 -1.0868  0.8588
  2414G12c H00044730   8.027   3.482  13.170  2.4738 -0.6269 -1.5001
  2414G12c C01444731   8.186   3.623  13.121 -0.2370  1.0254 -0.4613
  2414G12c C00F44732   8.173   3.630  12.988  0.7583 -1.2790  0.5499
  2414G12c C00H44733   8.305   3.824  12.995  1.4246  0.4805 -1.2579
  2414G12c C00I44734   8.346   3.950  12.941 -0.2497 -0.2167  1.1729
  2414G12c C00J44735   8.449   3.994  13.008 -0.2444  1.0663 -0.2111
  2414G12c C00Z44736   8.476   3.708  13.359  0.7306  0.9945 -0.3395
  2414G12c C00Y44737   8.512   3.700  13.501 -1.7799 -0.1849 -0.4658
  2414G12c H00644738   8.455   3.672  13.589 -0.5412 -2.0241 -0.2252
  2414G12c C00X44739   8.642   3.745  13.539 -0.0972 -1.6609  0.3007
  2414G12c O00344740   8.712   3.702  13.645  0.3252  0.0271  0.4506
  2414G12c C01B44741   8.648   3.770  13.747 -1.4939  0.8922 -0.2602
  2414G12c H00944742   8.572   3.706  13.792 -1.6887 -0.3488 -2.2780
  2414G12c H00844743   8.725   3.801  13.818 -2.3053 -1.8783  1.9178
  2414G12c H00744744   8.581   3.854  13.730 -3.5886 -1.2239 -2.9784
  2414G12c C00W44745   8.714   3.835  13.450 -1.0814 -0.3585  0.2773
  2414G12c O00444746   8.848   3.856  13.486  2.6204  1.3408  0.8786
  2414G12c C01C44747   8.910   3.903  13.375 -0.0117  0.7786 -0.3777
  2414G12c H00A44748   9.014   3.873  13.366  0.0673  1.2460 -1.1293
  2414G12c C00P44749   8.838   4.005  13.272 -0.1054 -0.0946 -0.9878
  2414G12c C00O44750   8.925   4.092  13.191 -0.3908 -0.9642 -1.9949
  2414G12c C01D44751   9.064   4.097  13.200  0.6087 -0.9527  2.0551
  2414G12c H00S44752   9.112   4.055  13.287  7.0919  5.7823  2.2536
  2414G12c C01E44753   9.167   4.142  13.097  0.0854 -1.0341  0.4414
  2414G12c O00844754   9.284   4.108  13.072 -0.5356  1.3656 -0.4306
  2414G12c C01V44755   9.389   4.199  13.061  2.1078  0.3054 -1.7827
  2414G12c C01Z44756   9.521   4.145  13.080 -0.6141 -0.0786 -0.9157
  2414G12c H00R44757   9.507   4.038  13.091 -2.5923 -0.4330 -5.8102
  2414G12c H00Q44758   9.590   4.174  13.000  6.3680 -3.1640  3.5143
  2414G12c O00944759   9.551   4.220  13.194  0.7703 -0.0799 -0.1510
  2414G12c H00P44760   9.626   4.277  13.195 -0.5304  1.6868  0.6924
  2414G12c C01W44761   9.355   4.334  13.069 -0.3485 -0.9438 -0.3394
  2414G12c H00O44762   9.252   4.353  13.095 -0.1693 -1.9411  1.1395
  2414G12c C01X44763   9.441   4.458  13.071  0.3791 -0.3227  1.6599
  2414G12c H00N44764   9.439   4.519  13.162  4.6969 -1.6763  2.8009
  2414G12c H00M44765   9.534   4.426  13.025  1.6841  4.5060  0.5837
  2414G12c C01Y44766   9.410   4.535  12.951 -1.4091 -0.3760 -0.5800
  2414G12c C02D44767   9.452   4.485  12.825 -1.1554  0.7945 -0.2269
  2414G12c H01944768   9.483   4.383  12.810  1.8993  1.7118 -0.5550
  2414G12c C02C44769   9.413   4.527  12.702  1.2381  2.0208 -0.3042
  2414G12c H01A44770   9.430   4.483  12.605 -1.1317  2.6027 -1.0135
  2414G12c C02B44771   9.367   4.654  12.690  2.1638 -0.4436  0.1683
  2414G12c O00E44772   9.330   4.724  12.568 -0.1151 -0.8207 -1.1391
  2414G12c H01B44773   9.273   4.800  12.574  0.9889 -0.0097 -0.6647
  2414G12c C02F44774   9.337   4.738  12.808  0.0558  2.2010 -1.1597
  2414G12c O00F44775   9.328   4.864  12.793  0.8511  0.7330 -0.3877
  2414G12c C02G44776   9.298   4.960  12.912  1.2807 -0.0101  0.7590
  2414G12c H01744777   9.383   4.974  12.979 -1.7065 -1.6903  5.0921
  2414G12c H01644778   9.279   5.049  12.852  9.7284  3.2239  2.1375
  2414G12c H01544779   9.201   4.934  12.954  1.5560 -1.1659  0.6924
  2414G12c C02E44780   9.351   4.679  12.937 -0.1321  1.3982  1.5148
  2414G12c H01844781   9.333   4.739  13.025 -1.6104  2.7279  0.3314
  2414G12c C01F44782   9.085   4.186  12.987  1.0380  0.1979  0.1853
  2414G12c C01G44783   9.149   4.202  12.858 -0.0013 -0.2898  0.6677
  2414G12c H00L44784   9.240   4.146  12.845 -0.8406 -1.5809  0.1900
  2414G12c C01H44785   9.079   4.304  12.765  1.6663 -0.8097  0.6113
  2414G12c H00B44786   9.118   4.281  12.667  1.6997 -4.3904  1.3778
  2414G12c C01I44787   8.936   4.330  12.794 -0.7644  1.0999  0.4004
  2414G12c C01U44788   8.954   4.236  13.011  0.7864  0.5859  2.2654
  2414G12c C00S44789   8.522   3.932  13.108 -0.5742  1.9603 -0.5988
  2414G12c C00K44790   8.542   4.093  12.967  0.5149  0.2172  0.4930
  2414G12c C00N44791   8.868   4.175  13.093  0.0262 -0.9213  2.5258
  2414G12c C00044792   8.894   4.337  12.920 -0.1965 -0.0641  0.4367
  2414G12c C01J44793   8.824   4.280  12.718  1.5075 -1.5538 -0.1176
  2414G12c C01K44794   8.828   4.257  12.568  0.7413  0.9097 -0.8966
  2414G12c C01P44795   8.913   4.304  12.450 -0.9424  0.5896 -0.8244
  2414G12c C01Q44796   8.967   4.443  12.477  1.7368  1.4387 -1.3128
  2414G12c H00G44797   9.003   4.475  12.574  0.8454  6.3755 -2.4389
  2414G12c C01R44798   8.975   4.538  12.383  0.1001  1.2478  1.0263
  2414G12c H00F44799   8.943   4.522  12.281  4.5271  2.2957 -0.6565
  2414G12c C01S44800   8.964   4.692  12.407 -0.3553  1.4000 -1.4188
  2414G12c H00E44801   8.873   4.700  12.347 -0.5291  0.1933 -1.3233
  2414G12c H00D44802   8.989   4.698  12.513 -1.0468 -1.9647 -0.9931
  2414G12c O00544803   9.087   4.732  12.337 -0.0423 -1.0728  0.6502
  2414G12c H00C44804   9.082   4.788  12.261  2.2843  1.2342  2.1433
  2414G12c C01O44805   8.938   4.221  12.342 -1.4782 -0.3550 -0.7701
  2414G12c H00H44806   8.988   4.246  12.249 -2.5876 -0.4060 -1.3870
  2414G12c C01N44807   8.840   4.126  12.312  1.5482  0.7858 -1.4479
  2414G12c O00644808   8.869   4.059  12.182  0.5598 -1.2013 -0.8737
  2414G12c C01T44809   8.853   4.159  12.069 -1.0850  0.4827  0.6370
  2414G12c H00K44810   8.916   4.247  12.080 -0.0106 -0.1130 -0.6259
  2414G12c H00J44811   8.882   4.133  11.967 -0.6639 -2.9581  1.5666
  2414G12c H00I44812   8.747   4.184  12.058 -3.8952 -8.5817  2.1643
  2414G12c C01M44813   8.736   4.103  12.392  1.4238 -0.9837 -0.4167
  2414G12c C02044814   8.513   4.133  12.837  0.9676 -0.5232  0.0370
  2414G12c C02144815   8.385   4.097  12.763 -1.1084  0.5010  0.1513
  2414G12c C01L44816   8.729   4.163  12.534 -2.7523  1.8397 -2.0144
  2414G12c O00744817   8.644   4.018  12.351 -0.4006 -0.3002 -1.0825
  2414G12c C02244818   8.412   4.021  12.648 -0.5602  0.1095  1.2141
  2414G12c C02344819   8.306   4.001  12.811 -0.4531 -1.2213  0.1942
  2414G12c C00G44820   8.228   3.742  12.928  0.4234 -0.3575  1.0403
  2414G12c C00E44821   8.105   3.522  12.913 -1.0826 -1.1051 -0.6757
  2414G12c O00A44822   8.090   3.387  12.957 -0.5117 -1.1116  1.1499
  2414G12c C02444823   8.195   3.306  12.974 -0.3454 -0.0294 -0.3374
  2414G12c H00V44824   8.210   3.258  13.071  2.5243 -0.0618 -0.7618
  2414G12c H00U44825   8.184   3.248  12.883 -3.1359 -0.6805  0.3614
  2414G12c H00T44826   8.300   3.332  12.965 -1.0484  4.0636  1.9112
  2424G12c C00D44827   3.484   9.855   3.723 -0.8656 -0.4027 -0.3877
  2424G12c O00B44828   3.428   9.822   3.848 -1.5349  0.1342  0.6401
  2424G12c C02544829   3.359   9.697   3.857 -1.8759  0.2787  0.1521
  2424G12c C02644830   3.441   9.578   3.827  0.7337  2.6566 -1.3773
  2424G12c H00Y44831   3.538   9.558   3.873  0.2626  5.9678  1.2943
  2424G12c H00X44832   3.427   9.521   3.735 -0.4416  1.0615 -0.2363
  2424G12c O00C44833   3.404   9.511   3.951 -0.0415 -0.5827  0.6481
  2424G12c H00W44834   3.387   9.575   4.018 -4.9500  0.7848 -1.6574
  2424G12c C02744835   3.225   9.717   3.850  0.9037 -0.2364  1.5683
  2424G12c O00D44836   3.164   9.821   3.857  0.8460  0.1116 -0.2040
  2424G12c H00Z44837   3.225   9.874   3.807  2.9289  0.3115  2.4561
  2424G12c C02844838   3.150   9.591   3.845 -0.2132  1.5261 -0.6436
  2424G12c C02944839   3.146   9.505   3.731  1.1899  0.8001  0.8026
  2424G12c H01044840   3.211   9.523   3.647  2.9748  1.1182  2.2125
  2424G12c C02T44841   3.054   9.404   3.712 -2.2048  0.7139  0.5771
  2424G12c H01O44842   3.062   9.379   3.607  3.7982  1.8499  0.5749
  2424G12c C02S44843   2.997   9.351   3.812 -0.3228  0.7536 -0.2862
  2424G12c O00J44844   2.908   9.252   3.772 -0.3650  0.5591  0.5980
  2424G12c H01P44845   2.820   9.266   3.803 -1.4880  2.7599 -3.2758
  2424G12c C02R44846   2.999   9.420   3.931  0.2156 -0.1705 -1.5730
  2424G12c O00I44847   2.895   9.385   4.005  0.9079  0.8262  0.0336
  2424G12c C02Q44848   2.914   9.381   4.135  0.6277 -0.5191 -0.7446
  2424G12c H01N44849   2.824   9.380   4.196  3.5226 -3.1710  3.8349
  2424G12c H01R44850   2.979   9.453   4.186  0.9735 -0.2835 -1.5018
  2424G12c H01Q44851   2.966   9.289   4.162  5.5585  0.4572 -5.8763
  2424G12c C02A44852   3.047   9.554   3.946 -1.9608 -0.3299 -0.0995
  2424G12c H01144853   3.008   9.599   4.036  2.1354  3.3741  0.0154
  2424G12c C00C44854   3.405   9.918   3.621  1.6457 -2.4632 -0.8634
  2424G12c H01244855   3.300   9.922   3.597  2.0318 -2.3148 -2.6001
  2424G12c C00B44856   3.475   9.989   3.515 -0.0659  0.2112 -0.9977
  2424G12c C00A44857   3.416  10.084   3.416 -0.3601 -0.3474  0.3652
  2424G12c C00944858   3.298  10.097   3.329  1.9050  2.5646 -0.7070
  2424G12c C00844859   3.169  10.036   3.328 -0.4298  0.0216 -0.0625
  2424G12c H01344860   3.158   9.966   3.410 -0.9719  0.3336  0.1304
  2424G12c C00744861   3.094  10.031   3.198  0.1644  1.0685 -0.3441
  2424G12c H01444862   3.012   9.962   3.186  1.4330 -0.3915 -0.7638
  2424G12c C00644863   3.162  10.092   3.090 -0.7127  0.4199 -0.9767
  2424G12c C00544864   3.274  10.186   3.096 -0.0996  1.0243 -0.5175
  2424G12c C00444865   3.343  10.240   2.996 -0.1670 -0.0711  0.5110
  2424G12c C00344866   3.469  10.305   3.022  1.1044  1.6530  0.3471
  2424G12c C00244867   3.545  10.348   2.909  0.9279 -0.6085  1.2518
  2424G12c C00144868   3.656  10.430   2.887  0.2953  1.0129 -0.0766
  2424G12c C00M44869   3.775  10.359   2.938 -1.5844  2.5934  0.5840
  2424G12c C00L44870   3.787  10.340   3.078 -0.3718 -1.4625  0.0975
  2424G12c C00R44871   3.893  10.267   3.125 -1.7080  1.1178 -0.3305
  2424G12c C00Q44872   4.012  10.214   3.058  0.7521 -0.3767 -1.5563
  2424G12c C00V44873   4.079  10.140   3.161  2.8432  0.0908 -0.5553
  2424G12c C00U44874   4.009  10.049   3.248  0.3049  0.5730  0.2630
  2424G12c C00T44875   3.892  10.080   3.285  2.9490 -1.2173 -0.3711
  2424G12c C01644876   3.813  10.008   3.379 -0.0108 -0.0289 -0.9240
  2424G12c C01544877   3.886   9.903   3.446  0.2431  0.1821  1.5693
  2424G12c C01044878   4.022   9.866   3.399 -2.0353  1.0294  0.0512
  2424G12c C01144879   4.086   9.769   3.472  0.7442  0.5557 -0.8634
  2424G12c H00544880   4.176   9.713   3.454  0.4927  0.5603 -2.1541
  2424G12c C01244881   4.033   9.709   3.585 -0.2696 -0.9092 -1.0745
  2424G12c C01744882   4.106   9.596   3.659 -1.1841  0.1524  1.9769
  2424G12c O00244883   4.191   9.516   3.579  0.2235 -0.1212 -1.1484
  2424G12c H00444884   4.216   9.442   3.632 -5.5044 -2.1806 -0.9531
  2424G12c C01844885   4.065   9.540   3.771  0.1833  0.6155 -2.6655
  2424G12c O00144886   4.117   9.408   3.794  0.5279 -2.3243  0.2351
  2424G12c H00344887   4.079   9.403   3.881  6.9160  4.3544  3.8974
  2424G12c C01944888   3.985   9.586   3.888 -0.0620  0.0903  0.2537
  2424G12c H00244889   3.995   9.689   3.923 -5.3825 -1.0930  6.0890
  2424G12c H00144890   3.880   9.556   3.888 -1.0815  3.3993  0.1485
  2424G12c O00044891   4.037   9.523   4.002 -1.7871  1.4387 -0.9599
  2424G12c C01A44892   4.025   9.547   4.129 -0.1284 -0.1151 -0.4635
  2424G12c C02K44893   4.108   9.661   4.188 -0.3421  0.4483 -1.1788
  2424G12c O00G44894   4.220   9.737   4.116  0.5005  0.3551 -0.5420
  2424G12c C02M44895   4.354   9.689   4.144  0.9305 -1.2150  1.0007
  2424G12c H01G44896   4.383   9.711   4.247  9.1137 -0.3796 -1.1704
  2424G12c H01F44897   4.432   9.761   4.121  1.2559 -1.9528 -0.2513
  2424G12c H01E44898   4.382   9.584   4.140  4.1149 -0.4307  1.0077
  2424G12c C02J44899   4.076   9.679   4.314 -1.0929  0.4508  0.0081
  2424G12c H01H44900   4.166   9.718   4.360 -0.3979 -1.0361 -0.0529
  2424G12c C02I44901   3.973   9.626   4.391 -2.1189 -0.7853 -0.2624
  2424G12c C02N44902   3.989   9.617   4.533 -0.6208  2.2618 -2.9849
  2424G12c H01M44903   4.000   9.522   4.583  6.5919  3.5674 -1.5836
  2424G12c C02O44904   4.072   9.699   4.583 -2.2282 -0.3759  0.3174
  2424G12c H01L44905   4.107   9.790   4.537-11.1695  4.0381  0.9939
  2424G12c C02P44906   4.149   9.673   4.704 -0.1474  0.5583  0.6842
  2424G12c H01K44907   4.158   9.564   4.702 -0.4226  0.3191  5.9412
  2424G12c H01J44908   4.248   9.704   4.669 -1.8163  2.0949 -2.9820
  2424G12c O00H44909   4.118   9.675   4.842  0.5911 -0.6293 -0.2593
  2424G12c H01I44910   4.024   9.682   4.842  0.5411 -1.1068 -1.2959
  2424G12c C02H44911   3.879   9.550   4.320  0.6487  0.3599 -1.5207
  2424G12c H01C44912   3.803   9.498   4.376  1.1055 -3.7818 -4.4494
  2424G12c C02L44913   3.904   9.506   4.190 -0.7606  0.4462 -1.9604
  2424G12c H01D44914   3.845   9.420   4.165  1.6460 -2.0537  0.6391
  2424G12c C01344915   3.899   9.744   3.631  0.0215  0.9869 -1.0306
  2424G12c H00044916   3.845   9.703   3.715  0.5150 -3.4323 -2.7565
  2424G12c C01444917   3.829   9.844   3.567 -0.3941 -0.8740 -0.7810
  2424G12c C00F44918   3.697   9.892   3.596 -0.5868  0.9201  1.0379
  2424G12c C00H44919   3.689  10.038   3.417  0.3572 -1.5715  2.2525
  2424G12c C00I44920   3.627  10.161   3.358 -0.2914  1.5260  0.6432
  2424G12c C00J44921   3.709  10.252   3.279  0.7651 -2.2979 -0.2300
  2424G12c C00Z44922   4.082   9.929   3.298  2.0581 -0.5589 -0.2927
  2424G12c C00Y44923   4.208   9.903   3.273  0.1731  0.1115  0.4197
  2424G12c H00644924   4.247   9.803   3.274 -2.0899 -0.8031  4.0385
  2424G12c C00X44925   4.284   9.993   3.204 -0.3918 -0.2127  0.4473
  2424G12c O00344926   4.408   9.958   3.169 -0.5715 -0.0863 -0.6883
  2424G12c C01B44927   4.441   9.827   3.163  0.7549  1.0488  0.7525
  2424G12c H00944928   4.427   9.737   3.102  2.3662  1.0204  0.4097
  2424G12c H00844929   4.546   9.852   3.151  2.0110  0.2190  7.9445
  2424G12c H00744930   4.443   9.807   3.270  1.4467  2.7357  1.0707
  2424G12c C00W44931   4.223  10.109   3.146  0.5241 -0.6994 -0.6170
  2424G12c O00444932   4.282  10.172   3.032  0.4173 -0.3164 -1.0933
  2424G12c C01C44933   4.210  10.167   2.925 -1.4642  2.1792  1.1306
  2424G12c H00A44934   4.264  10.161   2.832 -5.6067 -0.1006 -1.2769
  2424G12c C00P44935   4.076  10.221   2.928 -1.9567  1.2577 -1.2456
  2424G12c C00O44936   4.000  10.262   2.822  0.0048 -2.8289  0.3196
  2424G12c C01D44937   4.037  10.202   2.693 -0.8849 -0.4543  0.2634
  2424G12c H00S44938   4.105  10.119   2.704 -5.4871 -4.1035  3.0282
  2424G12c C01E44939   3.976  10.245   2.578  0.6450  0.6530 -0.8843
  2424G12c O00844940   3.995  10.174   2.455  0.2572  1.0726  0.4825
  2424G12c C01V44941   4.107  10.169   2.368 -0.6782  0.0059 -1.5205
  2424G12c C01Z44942   4.094  10.281   2.269  0.0982 -0.9096  2.2754
  2424G12c H00R44943   4.000  10.295   2.215  2.6861 -2.0983 -2.9116
  2424G12c H00Q44944   4.169  10.299   2.192  5.9781 -2.3981  7.2781
  2424G12c O00944945   4.107  10.401   2.338  0.1564  0.8563 -0.4486
  2424G12c H00P44946   4.050  10.387   2.412 -0.4464 -7.8248 -2.0521
  2424G12c C01W44947   4.220  10.089   2.389  0.9164 -0.3156  0.4757
  2424G12c H00O44948   4.255  10.043   2.480  7.1360  3.6127  0.3441
  2424G12c C01X44949   4.327  10.081   2.287  0.9692 -1.3124  2.4912
  2424G12c H00N44950   4.331   9.984   2.237 -0.4900 -1.9764  3.6255
  2424G12c H00M44951   4.315  10.164   2.218 -2.1802 -0.6000  3.8028
  2424G12c C01Y44952   4.474  10.104   2.343 -0.2972  1.1905 -0.2570
  2424G12c C02D44953   4.550   9.975   2.341 -0.7605 -0.6372 -0.2101
  2424G12c H01944954   4.510   9.897   2.278  5.6628 -3.1056 -1.6294
  2424G12c C02C44955   4.648   9.936   2.434  1.6702  0.9833  0.8400
  2424G12c H01A44956   4.702   9.842   2.430  0.8067  0.5164 -0.0934
  2424G12c C02B44957   4.676  10.040   2.536  1.4895  2.0787 -0.5781
  2424G12c O00E44958   4.771  10.031   2.619 -0.8696  0.7243 -1.1458
  2424G12c H01B44959   4.766  10.121   2.646 -2.2313  0.5501 -0.7760
  2424G12c C02F44960   4.611  10.159   2.546  1.3078  0.4625 -0.5396
  2424G12c O00F44961   4.648  10.256   2.635  0.7002  0.0396 -0.8273
  2424G12c C02G44962   4.561  10.236   2.751  0.8782 -0.5569 -0.1842
  2424G12c H01744963   4.608  10.215   2.847 -3.5646 -2.1535  1.7502
  2424G12c H01644964   4.530  10.133   2.733  3.5893 -1.3420 -0.5289
  2424G12c H01544965   4.480  10.304   2.777  2.0695  3.4942 -6.0364
  2424G12c C02E44966   4.506  10.181   2.452  0.4439 -1.4231  0.1675
  2424G12c H01844967   4.443  10.263   2.482  5.2593  3.0636 -1.4392
  2424G12c C01F44968   3.846  10.316   2.598  0.3903  0.4015  1.1677
  2424G12c C01G44969   3.726  10.302   2.506 -0.5749 -0.5666 -1.7051
  2424G12c H00L44970   3.742  10.201   2.471  0.6026 -0.1861 -2.2593
  2424G12c C01H44971   3.599  10.336   2.534 -0.8347  0.5871  0.4380
  2424G12c H00B44972   3.523  10.288   2.473 -1.7483  2.8364 -0.2535
  2424G12c C01I44973   3.564  10.382   2.672  0.0769 -1.3619  1.5198
  2424G12c C01U44974   3.811  10.403   2.716 -1.1667  0.7809  0.4064
  2424G12c C00S44975   3.834  10.199   3.235  0.0083  0.2098 -1.1015
  2424G12c C00K44976   3.670  10.313   3.160 -0.3473  0.1836 -0.1908
  2424G12c C00N44977   3.871  10.333   2.833 -1.2975 -1.9264  1.3434
  2424G12c C00044978   3.673  10.439   2.740 -1.2666 -1.0381  2.3005
  2424G12c C01J44979   3.489  10.324   2.779 -1.6886  2.2019  1.2564
  2424G12c C01K44980   3.354  10.287   2.755 -0.4472  1.5345  0.2576
  2424G12c C01P44981   3.282  10.274   2.636  0.1794  0.3747  0.6181
  2424G12c C01Q44982   3.312  10.380   2.537 -2.0666  0.4680 -0.0417
  2424G12c H00G44983   3.332  10.480   2.571 -2.1561  0.0185  1.3548
  2424G12c C01R44984   3.299  10.354   2.399  0.0077  1.3647  1.2535
  2424G12c H00F44985   3.259  10.263   2.355 -5.0877  4.7436 -1.8093
  2424G12c C01S44986   3.314  10.458   2.293  0.7714  1.3544 -0.6353
  2424G12c H00E44987   3.317  10.567   2.293 -5.8195  1.9947  5.9553
  2424G12c H00D44988   3.402  10.436   2.233  0.1585  0.4580 -1.2090
  2424G12c O00544989   3.181  10.451   2.241  0.0681  0.4979  0.5947
  2424G12c H00C44990   3.152  10.513   2.306 -5.0867 -0.7185 -0.3223
  2424G12c C01O44991   3.154  10.198   2.617 -0.0857 -0.5333 -2.2086
  2424G12c H00H44992   3.089  10.189   2.531 -0.8251  0.0871 -1.7254
  2424G12c C01N44993   3.111  10.131   2.732 -0.7219 -1.3514  0.4161
  2424G12c O00644994   2.988  10.063   2.726  0.1474  0.5906  0.0662
  2424G12c C01T44995   2.909  10.024   2.843  0.0501  1.1815  0.2224
  2424G12c H00K44996   2.832   9.964   2.794 -2.2062  0.3078  4.5496
  2424G12c H00J44997   2.898  10.107   2.914  0.4587  0.0176  1.6777
  2424G12c H00I44998   2.984   9.954   2.879 -0.9366 -1.5203 -2.7693
  2424G12c C01M44999   3.192  10.137   2.859  0.1432 -0.5670 -1.1273
  2424G12c C02045000   3.526  10.300   3.145 -0.6299  1.2512 -0.1465
  2424G12c C02145001   3.443  10.247   3.250 -0.8038  0.2467 -0.9695
  2424G12c C01L45002   3.299  10.226   2.860  0.0392 -2.2293  0.1134
  2424G12c O00745003   3.148  10.065   2.963  0.0570 -0.6438 -0.4075
  2424G12c C02245004   3.321  10.211   3.231  1.7492 -0.0153  0.1956
  2424G12c C02345005   3.491  10.184   3.365  1.9799 -1.0487 -0.4229
  2424G12c C00G45006   3.620   9.969   3.508 -0.4130  1.1444  1.1709
  2424G12c C00E45007   3.626   9.843   3.713  0.0698 -0.4951  0.1473
  2424G12c O00A45008   3.695   9.787   3.832  0.6393 -1.1260  1.2434
  2424G12c C02445009   3.710   9.885   3.922 -1.1435 -0.0683 -0.3337
  2424G12c H00V45010   3.758   9.871   4.019  0.3454 -1.7290 -1.2846
  2424G12c H00U45011   3.610   9.899   3.963  0.0058 -1.9048  3.3329
  2424G12c H00T45012   3.751   9.980   3.890 -3.2159  2.4060  3.8834
  2434G12c C00D45013   9.534   1.845  10.503  0.5125  0.4207 -0.5592
  2434G12c O00B45014   9.526   1.926  10.397 -1.5541  0.9324  0.0437
  2434G12c C02545015   9.555   2.066  10.414  1.1711 -0.4858  0.6966
  2434G12c C02645016   9.691   2.102  10.353 -1.1389 -1.6125  0.6493
  2434G12c H00Y45017   9.695   2.190  10.289  3.0713  0.6686  3.7474
  2434G12c H00X45018   9.724   2.026  10.283 -0.2053 -0.8111  0.2046
  2434G12c O00C45019   9.793   2.065  10.438  0.4503  1.6381 -0.3836
  2434G12c H00W45020   9.783   1.975  10.409 -4.0579 -0.4973  6.4885
  2434G12c C02745021   9.512   2.146  10.508  1.3375 -0.8207  2.4427
  2434G12c O00D45022   9.382   2.147  10.565 -2.4089  0.6861 -1.0941
  2434G12c H00Z45023   9.400   2.217  10.625 -2.6169  0.6888 -1.0359
  2434G12c C02845024   9.588   2.275  10.519 -0.0754  1.1977  0.8315
  2434G12c C02945025   9.709   2.306  10.604 -0.9391 -0.3196 -0.6529
  2434G12c H01045026   9.741   2.209  10.639 -3.7995 -0.2361  2.5197
  2434G12c C02T45027   9.765   2.428  10.654  0.5907  0.4252 -1.3206
  2434G12c H01O45028   9.831   2.434  10.740  1.0698  4.3520 -1.9147
  2434G12c C02S45029   9.709   2.542  10.587 -0.8917 -0.6696  0.1948
  2434G12c O00J45030   9.754   2.672  10.645 -0.9775 -1.7514  2.2733
  2434G12c H01P45031   9.710   2.723  10.579  1.1578 -1.4650  1.0448
  2434G12c C02R45032   9.621   2.527  10.476 -0.3752 -0.2758  0.5781
  2434G12c O00I45033   9.550   2.644  10.439 -1.0025  0.2269 -0.2029
  2434G12c C02Q45034   9.433   2.658  10.370  0.2762  0.9065 -1.2122
  2434G12c H01N45035   9.400   2.759  10.348 -4.2149 -0.5340 -1.5947
  2434G12c H01R45036   9.364   2.612  10.440  3.1219  2.5483  2.8625
  2434G12c H01Q45037   9.459   2.621  10.271  4.6503  1.1460 -0.2832
  2434G12c C02A45038   9.563   2.397  10.443 -1.0810 -1.6036  0.3656
  2434G12c H01145039   9.504   2.430  10.359  2.7944  4.0654 -0.3561
  2434G12c C00C45040   9.417   1.814  10.577 -0.4718  0.4117  1.9193
  2434G12c H01245041   9.352   1.895  10.546 -0.1760  2.4535  6.2192
  2434G12c C00B45042   9.422   1.721  10.680  0.9446 -1.0304  0.0534
  2434G12c C00A45043   9.325   1.699  10.781 -0.9004 -1.2873  0.9442
  2434G12c C00945044   9.251   1.796  10.852 -0.7090 -0.0830 -0.2135
  2434G12c C00845045   9.244   1.936  10.884 -0.1648 -0.7927  1.0292
  2434G12c H01345046   9.278   2.010  10.814 -1.2218 -0.9599  0.3360
  2434G12c C00745047   9.173   1.990  10.999 -0.3465  0.3953  2.5424
  2434G12c H01445048   9.158   2.096  10.986 -2.5570  0.1188  2.6299
  2434G12c C00645049   9.131   1.925  11.117  2.0673 -0.9114  0.4205
  2434G12c C00545050   9.157   1.789  11.096 -0.1637 -1.2886 -0.3383
  2434G12c C00445051   9.148   1.705  11.211  2.1254 -1.0947 -1.4653
  2434G12c C00345052   9.209   1.571  11.198 -0.0601  1.5880 -0.6327
  2434G12c C00245053   9.204   1.498  11.310 -0.3891  0.7462  0.8353
  2434G12c C00145054   9.259   1.364  11.350 -1.0458  0.0610 -0.0415
  2434G12c C00M45055   9.371   1.291  11.296  0.4925  0.3155 -1.4956
  2434G12c C00L45056   9.412   1.303  11.151 -0.9310 -0.9526 -1.4180
  2434G12c C00R45057   9.528   1.253  11.084  2.3470  0.3466  0.7017
  2434G12c C00Q45058   9.656   1.222  11.150  1.3590  1.6044  0.1345
  2434G12c C00V45059   9.770   1.226  11.056 -0.9913 -0.3285  0.9541
  2434G12c C00U45060   9.755   1.274  10.915  0.1969 -1.0169 -1.0595
  2434G12c C00T45061   9.636   1.334  10.878  1.0608 -0.7954  0.7554
  2434G12c C01645062   9.626   1.426  10.769  1.1629  1.9794 -0.0026
  2434G12c C01545063   9.749   1.461  10.714  0.2948  1.0413 -1.0877
  2434G12c C01045064   9.873   1.400  10.750 -1.5061 -1.0370  1.0676
  2434G12c C01145065   9.986   1.498  10.754 -0.4747 -0.8069  0.3491
  2434G12c H00545066  10.079   1.476  10.804  2.2322  5.2612 -1.6232
  2434G12c C01245067   9.984   1.613  10.674 -0.0717 -1.0952  0.7149
  2434G12c C01745068  10.104   1.672  10.624 -0.1216  1.1040 -0.2060
  2434G12c O00245069  10.175   1.699  10.745  0.0944 -1.5700  0.5544
  2434G12c H00445070  10.245   1.758  10.722  0.4643 -2.9441 -2.0640
  2434G12c C01845071  10.150   1.693  10.485  0.1109  1.8278 -0.7224
  2434G12c O00145072  10.090   1.596  10.408  1.6533 -1.3248 -1.6142
  2434G12c H00345073  10.011   1.564  10.447  0.9591 -0.5408 -2.3509
  2434G12c C01945074  10.252   1.776  10.406  1.7619 -1.2977 -0.1053
  2434G12c H00245075  10.330   1.702  10.388  1.6259 -0.3136 -5.3283
  2434G12c H00145076  10.183   1.800  10.326 -1.7059  4.1551  4.1334
  2434G12c O00045077  10.314   1.864  10.491  1.1839  1.2689  1.5107
  2434G12c C01A45078  10.290   1.994  10.446  0.3468  1.3560 -0.7711
  2434G12c C02K45079  10.394   2.090  10.471  0.6440  1.0701  0.8006
  2434G12c O00G45080  10.530   2.060  10.476 -0.5564 -0.8640 -0.8242
  2434G12c C02M45081  10.573   1.941  10.399  1.3142 -0.4782  0.3855
  2434G12c H01G45082  10.585   1.855  10.464 10.5769 -2.0933 -2.7739
  2434G12c H01F45083  10.648   1.948  10.321  3.0089  1.1276  2.1111
  2434G12c H01E45084  10.497   1.929  10.321  1.9350 -0.1548 -0.2788
  2434G12c C02J45085  10.362   2.225  10.504  0.0709 -0.7604  2.1733
  2434G12c H01H45086  10.432   2.307  10.516  1.7694 -1.8989  0.3624
  2434G12c C02I45087  10.233   2.272  10.498  2.1088  0.5706 -0.3735
  2434G12c C02N45088  10.191   2.413  10.539  0.8314 -1.1033 -0.6520
  2434G12c H01M45089  10.106   2.441  10.600 -2.5915 -0.3969 -5.4300
  2434G12c C02O45090  10.257   2.529  10.514  0.0845  0.2602  2.3926
  2434G12c H01L45091  10.358   2.521  10.477 -0.2162 -1.1942  1.8797
  2434G12c C02P45092  10.195   2.668  10.541 -0.7455  1.5216 -0.7150
  2434G12c H01K45093  10.238   2.750  10.483  3.8910  1.9587  3.0494
  2434G12c H01J45094  10.088   2.665  10.524 -1.4350 -0.3272  3.3751
  2434G12c O00H45095  10.255   2.708  10.656 -0.3306  0.1622  0.9607
  2434G12c H01I45096  10.333   2.665  10.625  2.4501  1.4874  5.5149
  2434G12c C02H45097  10.135   2.190  10.443 -0.9625 -0.8576  0.7648
  2434G12c H01C45098  10.052   2.241  10.396  2.0920  3.3227 -0.4856
  2434G12c C02L45099  10.159   2.048  10.415 -0.3269  1.3129 -0.4424
  2434G12c H01D45100  10.076   2.005  10.361 -1.5860  1.6065  1.2167
  2434G12c C01345101   9.867   1.644  10.620  1.5425 -0.4263  1.3446
  2434G12c H00045102   9.878   1.716  10.540 -2.8035  0.5294  1.4815
  2434G12c C01445103   9.738   1.575  10.631  1.2892  0.3760 -1.5369
  2434G12c C00F45104   9.625   1.640  10.588  1.3910 -0.7270  2.2783
  2434G12c C00H45105   9.502   1.496  10.748  0.4721 -1.2093  0.3122
  2434G12c C00I45106   9.396   1.467  10.825 -0.5848 -1.7530 -0.1752
  2434G12c C00J45107   9.414   1.372  10.939 -1.3847 -1.2106 -0.9620
  2434G12c C00Z45108   9.863   1.299  10.838 -1.0182  1.7108  0.1246
  2434G12c C00Y45109   9.976   1.221  10.867  1.0881 -0.6313 -0.7000
  2434G12c H00645110  10.046   1.213  10.784 -1.6312  2.5357 -3.4387
  2434G12c C00X45111  10.003   1.165  10.989 -0.5578  0.6784 -0.5722
  2434G12c O00345112  10.122   1.085  10.990 -1.0277 -0.4817 -0.3054
  2434G12c C01B45113  10.228   1.153  11.041 -0.6337 -0.2733  1.2548
  2434G12c H00945114  10.221   1.145  11.150  1.2391  0.8538  1.4769
  2434G12c H00845115  10.261   1.248  11.001  1.1405 -2.0977 -1.7279
  2434G12c H00745116  10.324   1.118  11.004  1.1144  1.8900  3.5350
  2434G12c C00W45117   9.896   1.176  11.090 -1.0471 -0.6775  1.9153
  2434G12c O00445118   9.901   1.119  11.212 -0.3415 -0.9677 -0.3359
  2434G12c C01C45119   9.834   1.193  11.309 -0.4554  1.2788  0.0539
  2434G12c H00A45120   9.910   1.258  11.348 -3.2124  4.6543  0.0059
  2434G12c C00P45121   9.694   1.214  11.286  1.8798  0.6032  1.1571
  2434G12c C00O45122   9.612   1.248  11.398 -0.0163  1.8938 -1.8750
  2434G12c C01D45123   9.680   1.253  11.528  0.3089 -1.3705 -0.8147
  2434G12c H00S45124   9.777   1.209  11.548  1.2463  2.2344  3.5653
  2434G12c C01E45125   9.631   1.337  11.642 -0.8512  0.2141 -0.5531
  2434G12c O00845126   9.709   1.375  11.745 -0.0557 -0.2098 -0.7734
  2434G12c C01V45127   9.702   1.317  11.861  1.0431 -1.0329 -0.5365
  2434G12c C01Z45128   9.817   1.391  11.927  0.4537  1.2017 -1.8609
  2434G12c H00R45129   9.841   1.353  12.026  3.7711  1.7122 -2.4081
  2434G12c H00Q45130   9.919   1.382  11.888  0.5739 -4.7124 -0.6683
  2434G12c O00945131   9.783   1.505  11.998 -0.7456 -0.3490 -0.8407
  2434G12c H00P45132   9.773   1.572  11.933  0.0248 -1.3358 -1.9929
  2434G12c C01W45133   9.630   1.229  11.930  0.1175 -0.6667 -0.2877
  2434G12c H00O45134   9.660   1.209  12.032 -4.3613  1.4775  1.5845
  2434G12c C01X45135   9.519   1.123  11.872 -1.0226  0.2576  0.7739
  2434G12c H00N45136   9.502   1.138  11.765 -0.0368  4.3384  1.0977
  2434G12c H00M45137   9.568   1.026  11.864 -1.1619 -0.4111  6.4679
  2434G12c C01Y45138   9.390   1.130  11.963 -0.6243 -0.7128  0.3154
  2434G12c C02D45139   9.276   1.199  11.919  0.1691 -0.7148 -0.0151
  2434G12c H01945140   9.279   1.252  11.825  1.4895  0.8033  0.8748
  2434G12c C02C45141   9.164   1.187  12.005  0.6543 -0.0070  0.5414
  2434G12c H01A45142   9.060   1.197  11.977  1.1110 -5.5851 -4.2209
  2434G12c C02B45143   9.166   1.104  12.116  0.9841 -0.5482 -0.9704
  2434G12c O00E45144   9.056   1.056  12.180 -2.6897  0.4400 -1.0223
  2434G12c H01B45145   8.993   1.008  12.127  0.1889 -2.5978 -1.8952
  2434G12c C02F45146   9.283   1.068  12.182 -1.4497  1.4902 -0.5696
  2434G12c O00F45147   9.284   1.006  12.308  0.5560 -0.5427 -0.7596
  2434G12c C02G45148   9.414   0.940  12.348  1.0732 -0.4323  0.9121
  2434G12c H01745149   9.493   0.978  12.413  4.1576  1.2687 -3.5623
  2434G12c H01645150   9.369   0.901  12.439 -4.6498  0.3748 -1.3603
  2434G12c H01545151   9.455   0.850  12.301  0.2102 -0.4590  0.1918
  2434G12c C02E45152   9.393   1.073  12.093 -1.5165 -1.2468  0.2012
  2434G12c H01845153   9.498   1.059  12.113 -0.4249  5.8475  0.5120
  2434G12c C01F45154   9.497   1.383  11.636 -0.5282 -1.9966  0.2090
  2434G12c C01G45155   9.432   1.475  11.719 -0.0425  0.0562 -1.0461
  2434G12c H00L45156   9.471   1.538  11.797  1.2005 -1.9746  0.0122
  2434G12c C01H45157   9.317   1.547  11.665  0.2731  0.2959 -1.8627
  2434G12c H00B45158   9.256   1.622  11.713 -0.7723 -3.3758  2.9372
  2434G12c C01I45159   9.248   1.506  11.540  0.2225 -0.1052 -1.3501
  2434G12c C01U45160   9.408   1.324  11.531 -0.4147  0.2692 -1.1989
  2434G12c C00S45161   9.528   1.288  10.950 -0.1497  0.6706  0.1718
  2434G12c C00K45162   9.359   1.402  11.072  1.2610  0.8104 -0.3099
  2434G12c C00N45163   9.481   1.278  11.408  0.5479  0.3074 -0.2673
  2434G12c C00045164   9.291   1.392  11.486  0.3498 -0.5336  0.9437
  2434G12c C01J45165   9.158   1.559  11.441  0.5784  0.3638  1.5430
  2434G12c C01K45166   9.089   1.672  11.450  2.0556 -1.8285  1.6819
  2434G12c C01P45167   9.026   1.733  11.577  1.7023  0.3463 -0.5584
  2434G12c C01Q45168   9.001   1.672  11.702  0.4474  1.1545  0.2088
  2434G12c H00G45169   8.959   1.574  11.686 -7.1216  3.4829  3.3948
  2434G12c C01R45170   9.027   1.733  11.828 -1.1789 -1.9018  0.5740
  2434G12c H00F45171   9.079   1.828  11.829 -0.5342 -2.2343 -0.3849
  2434G12c C01S45172   9.037   1.663  11.954  0.1463  0.4107  1.9237
  2434G12c H00E45173   8.963   1.733  11.993  1.9128  3.5776 -0.2151
  2434G12c H00D45174   8.995   1.562  11.949 -4.5988  2.3138  0.1756
  2434G12c O00545175   9.160   1.661  12.021 -1.0188 -0.2157 -0.3819
  2434G12c H00C45176   9.174   1.581  12.068  5.4056  0.2124 -1.1806
  2434G12c C01O45177   8.985   1.875  11.565  0.1424  0.7129 -0.2941
  2434G12c H00H45178   8.917   1.905  11.643 -2.9975 -0.8312 -2.3198
  2434G12c C01N45179   9.037   1.949  11.456  1.7029  0.6888  0.4532
  2434G12c O00645180   9.003   2.084  11.449 -0.3665  0.8485 -0.5306
  2434G12c C01T45181   8.898   2.154  11.500 -1.0626  1.8564  0.8703
  2434G12c H00K45182   8.943   2.251  11.523  3.0788  1.8716 -6.0149
  2434G12c H00J45183   8.797   2.147  11.460 -1.9840 -6.0338  3.7372
  2434G12c H00I45184   8.868   2.095  11.586  1.7412 -0.7407  0.1561
  2434G12c C01M45185   9.062   1.890  11.336  1.8061 -1.2160  0.2821
  2434G12c C02045186   9.266   1.510  11.082 -1.7653  0.6302 -0.1998
  2434G12c C02145187   9.223   1.581  10.969  0.8700 -0.7906 -0.0864
  2434G12c C01L45188   9.090   1.744  11.328  0.4107  0.2271  0.9921
  2434G12c O00745189   9.083   1.969  11.227  0.8290 -1.2923  1.1173
  2434G12c C02245190   9.182   1.724  10.970 -2.4918  1.7462  2.2997
  2434G12c C02345191   9.301   1.575  10.842 -0.4172 -0.3829 -1.7140
  2434G12c C00G45192   9.510   1.614  10.659 -1.3099  0.0986 -1.2626
  2434G12c C00E45193   9.640   1.758  10.514 -0.5507  1.1421  0.4831
  2434G12c O00A45194   9.738   1.780  10.414  1.0385 -0.8130  0.1187
  2434G12c C02445195   9.715   1.716  10.283 -0.6519  2.7288 -0.1497
  2434G12c H00V45196   9.796   1.647  10.261  1.0339  3.1921  4.0396
  2434G12c H00U45197   9.664   1.786  10.216 -2.1485  5.0966  3.2855
  2434G12c H00T45198   9.647   1.632  10.286  2.9416 -0.2645  0.6557
  2444G12c C00D45199   6.336   1.008   0.503 -1.3276 -1.6809  1.0464
  2444G12c O00B45200   6.325   0.921   0.611  0.1101 -1.1842 -0.2356
  2444G12c C02545201   6.356   0.781   0.589  0.2096 -0.2422 -2.0273
  2444G12c C02645202   6.262   0.668   0.554  0.2056  1.9651 -0.7400
  2444G12c H00Y45203   6.329   0.583   0.568  2.4116  4.1719  3.1334
  2444G12c H00X45204   6.233   0.667   0.449 -2.5254 10.5200 -0.4575
  2444G12c O00C45205   6.131   0.678   0.626 -0.4783 -0.2053  0.1967
  2444G12c H00W45206   6.088   0.749   0.582  1.6794  1.7207  1.0983
  2444G12c C02745207   6.478   0.759   0.629 -1.0161 -0.5165  0.5150
  2444G12c O00D45208   6.546   0.868   0.687 -0.0320  0.9854  0.9566
  2444G12c H00Z45209   6.485   0.936   0.661  0.5925  0.1795 -3.0157
  2444G12c C02845210   6.557   0.640   0.568 -1.9161  0.6298  0.6943
  2444G12c C02945211   6.677   0.625   0.632 -0.9970  0.9632  2.2408
  2444G12c H01045212   6.717   0.684   0.713  3.5553  1.7342 -0.3972
  2444G12c C02T45213   6.771   0.522   0.632  0.7792  0.7634 -0.7982
  2444G12c H01O45214   6.869   0.516   0.678  2.1361  5.6958 -2.6944
  2444G12c C02S45215   6.738   0.428   0.529 -0.4754 -1.6729  1.8448
  2444G12c O00J45216   6.821   0.341   0.475 -0.2868 -0.2461  1.3176
  2444G12c H01P45217   6.908   0.324   0.509 -1.0101 -5.1042  1.1115
  2444G12c C02R45218   6.615   0.442   0.451  0.8846  1.2347  0.4273
  2444G12c O00I45219   6.579   0.353   0.356 -0.3384  2.1019  0.2458
  2444G12c C02Q45220   6.604   0.431   0.236  0.7034  0.2709  0.9402
  2444G12c H01N45221   6.636   0.356   0.164  1.6794  0.8171  0.8052
  2444G12c H01R45222   6.700   0.478   0.219  3.7732 -6.3099 -1.8140
  2444G12c H01Q45223   6.506   0.468   0.205  0.5997 -2.5866 -2.4613
  2444G12c C02A45224   6.538   0.559   0.467 -0.9463  0.5917  0.6699
  2444G12c H01145225   6.463   0.583   0.393  3.5701 -2.7590 -5.5251
  2444G12c C00C45226   6.430   0.977   0.397 -0.3440 -1.1409 -0.3313
  2444G12c H01245227   6.511   0.908   0.420  1.3612  1.4065  1.5204
  2444G12c C00B45228   6.460   1.048   0.280 -0.1082 -0.7972 -0.0038
  2444G12c C00A45229   6.555   1.012   0.182  0.2299 -1.0252  0.4906
  2444G12c C00945230   6.651   0.913   0.175  1.0655  2.9986 -0.7879
  2444G12c C00845231   6.709   0.795   0.254 -0.8553  0.0305  0.4430
  2444G12c H01345232   6.652   0.710   0.288  6.6048 -5.2119  1.0810
  2444G12c C00745233   6.850   0.760   0.265 -0.0645  0.2828 -1.8483
  2444G12c H01445234   6.886   0.666   0.305  2.0309  1.6732 -0.3154
  2444G12c C00645235   6.947   0.844   0.202  1.8287  0.7448 -0.7918
  2444G12c C00545236   6.881   0.949   0.121  0.6359 -1.1323 -0.5924
  2444G12c C00445237   6.967   1.056   0.049  0.5120  1.0466  0.8469
  2444G12c C00345238   6.920   1.164  -0.031  1.1775 -0.2012 -1.1169
  2444G12c C00245239   7.013   1.269  -0.064 -1.5630 -0.3484 -0.1964
  2444G12c C00145240   7.005   1.410  -0.130 -0.3641  1.7447 -0.8782
  2444G12c C00M45241   6.906   1.503  -0.116 -0.3280  0.6606  0.1116
  2444G12c C00L45242   6.763   1.464  -0.105 -0.0802 -3.2932 -0.4785
  2444G12c C00R45243   6.680   1.548  -0.032  0.5294  0.7539  0.1379
  2444G12c C00Q45244   6.680   1.694  -0.011 -0.3467 -0.7105  0.3175
  2444G12c C00V45245   6.570   1.733   0.076 -0.8280 -3.0326  0.0354
  2444G12c C00U45246   6.496   1.637   0.140 -0.0537 -0.7220 -0.1551
  2444G12c C00T45247   6.510   1.507   0.130 -0.8920  0.4618  0.2088
  2444G12c C01645248   6.433   1.415   0.197 -0.9002 -1.2668  0.0040
  2444G12c C01545249   6.343   1.456   0.298 -1.6880  0.9456 -0.0600
  2444G12c C01045250   6.326   1.593   0.305  0.7413  0.6549  0.5251
  2444G12c C01145251   6.227   1.628   0.396  0.5641 -0.8732 -1.2851
  2444G12c H00545252   6.204   1.728   0.430  0.9964 -0.9484 -0.7684
  2444G12c C01245253   6.149   1.524   0.473  0.8941 -0.9512 -0.3368
  2444G12c C01745254   6.055   1.554   0.569  1.0541 -1.0282 -0.2320
  2444G12c O00245255   6.067   1.507   0.705 -0.0668 -0.2264  1.8215
  2444G12c H00445256   6.002   1.564   0.741 -3.9728 -0.8651 -3.5918
  2444G12c C01845257   5.956   1.638   0.528  0.3405  0.3758  1.0237
  2444G12c O00145258   5.947   1.662   0.393 -1.2866  0.4069 -0.9037
  2444G12c H00345259   5.873   1.705   0.353 -1.6604  1.4551  0.8654
  2444G12c C01945260   5.850   1.702   0.619  0.9765  0.7602  0.6327
  2444G12c H00245261   5.771   1.669   0.551  0.0911  5.7142 -0.8941
  2444G12c H00145262   5.886   1.801   0.593 -1.6444  1.2279 -1.3991
  2444G12c O00045263   5.806   1.667   0.747 -0.4681 -0.3212  0.3113
  2444G12c C01A45264   5.690   1.741   0.782 -0.5476  0.8909 -0.7905
  2444G12c C02K45265   5.608   1.686   0.879  0.6808 -0.4224  1.7687
  2444G12c O00G45266   5.587   1.565   0.936 -0.1999 -0.2653  0.8209
  2444G12c C02M45267   5.486   1.468   0.911  0.1842  0.1090 -0.1061
  2444G12c H01G45268   5.423   1.458   1.000 -3.3791  2.3326 -2.2392
  2444G12c H01F45269   5.524   1.383   0.855 -1.1434  0.3586 -1.4235
  2444G12c H01E45270   5.436   1.533   0.839  2.2558  1.9060  0.0291
  2444G12c C02J45271   5.503   1.772   0.938  0.0708  1.1818  0.4342
  2444G12c H01H45272   5.436   1.713   1.000 -0.5061 -0.8752 -2.0647
  2444G12c C02I45273   5.462   1.913   0.903 -1.0029  0.2058  0.5464
  2444G12c C02N45274   5.328   1.963   0.925  0.0660 -1.0788 -1.5934
  2444G12c H01M45275   5.259   1.969   0.842 -0.1721 -0.1981 -1.3408
  2444G12c C02O45276   5.309   2.032   1.039  0.4209 -0.0971 -2.4801
  2444G12c H01L45277   5.406   2.063   1.075  0.3425  2.3450 -4.2744
  2444G12c C02P45278   5.170   2.089   1.088  2.4831  0.2624  0.6705
  2444G12c H01K45279   5.184   2.118   1.192 -0.3314 -0.5535  1.3031
  2444G12c H01J45280   5.131   2.145   1.003  1.3187 -1.0025  0.3447
  2444G12c O00H45281   5.064   1.996   1.100  0.6482 -0.2975 -1.6204
  2444G12c H01I45282   5.086   1.938   1.172  0.1576  4.4256  2.5628
  2444G12c C02H45283   5.561   1.977   0.817  0.3433 -0.6522 -0.3630
  2444G12c H01C45284   5.551   2.070   0.765  3.4806  0.2344  0.5230
  2444G12c C02L45285   5.662   1.882   0.760  1.2682 -0.2470  1.3770
  2444G12c H01D45286   5.709   1.929   0.675 -1.1369 -2.0459 -1.0682
  2444G12c C01345287   6.189   1.392   0.468  1.9135  1.7827 -0.2090
  2444G12c H00045288   6.147   1.309   0.523 -0.2799  1.9822 -1.4987
  2444G12c C01445289   6.293   1.357   0.379  0.3078 -1.1805  1.1338
  2444G12c C00F45290   6.329   1.228   0.376 -0.1653  1.4607 -1.0734
  2444G12c C00H45291   6.461   1.284   0.167 -0.5155  0.8050 -0.4573
  2444G12c C00I45292   6.533   1.244   0.059  0.0249 -0.6922 -0.0900
  2444G12c C00J45293   6.588   1.344  -0.012 -0.9212  1.4609  0.5788
  2444G12c C00Z45294   6.407   1.688   0.231 -0.7475  3.1792  1.1079
  2444G12c C00Y45295   6.367   1.817   0.225 -0.2613 -0.1902  0.0042
  2444G12c H00645296   6.296   1.862   0.293 -0.8301 -5.8847  3.4961
  2444G12c C00X45297   6.435   1.917   0.164  0.1376  1.2312 -0.1489
  2444G12c O00345298   6.363   2.038   0.159 -0.3811 -2.1326  1.0300
  2444G12c C01B45299   6.448   2.139   0.121 -0.2442 -2.9453  1.3883
  2444G12c H00945300   6.488   2.136   0.020  8.5556 -1.2361  4.3720
  2444G12c H00845301   6.544   2.182   0.153 -3.0058  7.8887 -2.5823
  2444G12c H00745302   6.361   2.203   0.138  1.8612 -0.7789  4.7548
  2444G12c C00W45303   6.551   1.884   0.085  0.3941  0.3421 -1.5235
  2444G12c O00445304   6.645   1.977   0.059 -0.9469  1.8253 -0.6287
  2444G12c C01C45305   6.735   1.936  -0.028 -0.7596  1.1098  0.8969
  2444G12c H00A45306   6.721   1.960  -0.132 -2.4945  8.1159  2.4812
  2444G12c C00P45307   6.783   1.794  -0.040  0.3514 -0.0715 -0.4689
  2444G12c C00O45308   6.918   1.758  -0.048  1.2051  1.1981 -1.3429
  2444G12c C01D45309   7.017   1.860  -0.022 -0.3662  1.2996  0.3690
  2444G12c H00S45310   6.982   1.961  -0.025 -4.2159  0.1968  3.7622
  2444G12c C01E45311   7.146   1.817   0.037 -0.3585 -1.8050  2.0704
  2444G12c O00845312   7.239   1.906   0.098 -0.6481 -1.1160  1.0179
  2444G12c C01V45313   7.245   2.035   0.057 -0.8532  0.9156  0.4980
  2444G12c C01Z45314   7.358   2.097  -0.010 -1.4569  0.6007 -0.4556
  2444G12c H00R45315   7.416   2.110   0.081 -1.1276  0.6685 -0.6703
  2444G12c H00Q45316   7.398   2.026  -0.082 -2.7325  4.0709 -4.8710
  2444G12c O00945317   7.345   2.197  -0.121  1.1791 -0.8060  0.2111
  2444G12c H00P45318   7.275   2.172  -0.181  0.9543 -2.1610  1.0125
  2444G12c C01W45319   7.148   2.118   0.122 -0.5176  1.1636  0.7169
  2444G12c H00O45320   7.088   2.055   0.186  1.5929  3.3256  5.0169
  2444G12c C01X45321   7.095   2.262   0.085  1.0002 -0.1716 -0.5707
  2444G12c H00N45322   7.158   2.295   0.003  1.4780  3.0824  1.0441
  2444G12c H00M45323   6.987   2.277   0.081  0.9916 -0.2347 -0.5854
  2444G12c C01Y45324   7.131   2.356   0.187 -1.4912 -0.2489  0.1723
  2444G12c C02D45325   7.214   2.463   0.163 -0.2663  0.5735  1.2955
  2444G12c H01945326   7.261   2.478   0.067 -5.5995 -2.5429 -2.0075
  2444G12c C02C45327   7.237   2.566   0.264 -1.4991 -0.5706  0.6936
  2444G12c H01A45328   7.309   2.641   0.235  4.2866 -5.7821  0.6110
  2444G12c C02B45329   7.206   2.527   0.389 -1.2631 -0.4018 -1.4706
  2444G12c O00E45330   7.268   2.593   0.500 -1.2985 -0.6602 -0.3735
  2444G12c H01B45331   7.205   2.570   0.567 -1.8543  3.0011  0.5167
  2444G12c C02F45332   7.124   2.418   0.428 -1.2130  0.8074 -2.1840
  2444G12c O00F45333   7.095   2.403   0.565 -0.8849  1.7235 -1.3562
  2444G12c C02G45334   7.149   2.271   0.611  0.3100 -1.2603 -0.5753
  2444G12c H01745335   7.253   2.303   0.611 -0.7113  2.8950  4.7226
  2444G12c H01645336   7.124   2.191   0.541 -1.3770  3.1744 -5.3695
  2444G12c H01545337   7.141   2.237   0.714  0.5888  1.6179  0.4535
  2444G12c C02E45338   7.073   2.338   0.320 -1.5389  0.6830 -1.2951
  2444G12c H01845339   7.025   2.252   0.364  1.8985 -0.8976 -0.4720
  2444G12c C01F45340   7.165   1.676   0.047  0.7373 -0.0637  0.1877
  2444G12c C01G45341   7.282   1.609   0.101 -0.4622  0.3574 -1.6995
  2444G12c H00L45342   7.358   1.669   0.149 -0.5026 -5.6397  6.9417
  2444G12c C01H45343   7.272   1.467   0.111 -0.5432 -0.5072 -0.1866
  2444G12c H00B45344   7.332   1.393   0.162 -2.0078 -0.6589  1.3859
  2444G12c C01I45345   7.205   1.393   0.005 -0.4286 -0.2046 -2.1926
  2444G12c C01U45346   7.091   1.597  -0.036 -0.8591 -0.7814 -0.4667
  2444G12c C00S45347   6.564   1.476  -0.001 -1.0667 -0.2291  0.6580
  2444G12c C00K45348   6.723   1.329  -0.076 -1.6868  2.3147 -0.8747
  2444G12c C00N45349   6.968   1.631  -0.077  1.3738 -0.6272  0.3781
  2444G12c C00045350   7.127   1.478  -0.081  0.1956  0.3521 -1.5720
  2444G12c C01J45351   7.134   1.269   0.020 -0.6268  1.5292 -0.8018
  2444G12c C01K45352   7.209   1.130   0.023 -0.2366  0.1452  0.8269
  2444G12c C01P45353   7.352   1.108   0.037  0.2231  1.2361  1.0779
  2444G12c C01Q45354   7.471   1.196  -0.006 -0.0304  1.5492 -0.7004
  2444G12c H00G45355   7.500   1.221  -0.107 -1.5643  3.5476 -0.6621
  2444G12c C01R45356   7.556   1.231   0.094  0.1365 -1.8493  0.2233
  2444G12c H00F45357   7.516   1.211   0.193  6.8218 -3.0127  2.9451
  2444G12c C01S45358   7.702   1.260   0.072  1.3528  0.0970  1.0568
  2444G12c H00E45359   7.751   1.348   0.030 -0.4917  0.4624 -0.3759
  2444G12c H00D45360   7.764   1.282   0.159  1.8361 -1.6540  1.1817
  2444G12c O00545361   7.744   1.151   0.010 -0.1476 -0.3820 -0.2198
  2444G12c H00C45362   7.816   1.111   0.055  0.6666  2.0534  0.7044
  2444G12c C01O45363   7.379   0.987   0.096  0.3311 -1.0415  0.6186
  2444G12c H00H45364   7.481   0.953   0.104 -0.0967 -3.3503 -2.8643
  2444G12c C01N45365   7.288   0.883   0.098 -0.0619 -0.1874 -0.2793
  2444G12c O00645366   7.327   0.763   0.150  2.8651 -1.0541 -0.0836
  2444G12c C01T45367   7.433   0.699   0.093  0.3915  0.6107 -2.0571
  2444G12c H00K45368   7.393   0.680  -0.007  1.0092  2.0169 -2.5735
  2444G12c H00J45369   7.533   0.740   0.089  3.4837 -5.2405  5.0262
  2444G12c H00I45370   7.425   0.619   0.167 -1.3149  1.3656 -1.4082
  2444G12c C01M45371   7.155   0.905   0.124 -1.0471  0.5147 -0.6268
  2444G12c C02045372   6.778   1.185  -0.046 -0.5861 -0.0407  0.3385
  2444G12c C02145373   6.692   1.087   0.013  1.0794  1.3697  1.6228
  2444G12c C01L45374   7.113   1.040   0.076 -0.0004 -0.0970 -0.4345
  2444G12c O00745375   7.078   0.810   0.187  0.6709 -0.4759 -0.4574
  2444G12c C02245376   6.747   0.979   0.099 -0.8281 -0.5076 -1.1030
  2444G12c C02345377   6.559   1.104   0.065 -0.2272  0.2704  0.4207
  2444G12c C00G45378   6.412   1.190   0.268 -0.5443 -0.8340 -0.2973
  2444G12c C00E45379   6.282   1.141   0.487 -1.4277  0.9407 -0.3432
  2444G12c O00A45380   6.296   1.181   0.619 -1.0235 -0.0253  0.8126
  2444G12c C02445381   6.380   1.268   0.675  0.5856  1.0787 -2.2174
  2444G12c H00V45382   6.360   1.305   0.776  0.9131 -1.7755 -1.0724
  2444G12c H00U45383   6.398   1.338   0.593  5.9028 -0.4426 -2.5111
  2444G12c H00T45384   6.456   1.215   0.732  1.0260  6.4945  2.7351
  2454G12c C00D45385   8.781   9.754   3.589  0.0610  0.4758  0.6284
  2454G12c O00B45386   8.789   9.880   3.654 -1.3729 -0.8163 -0.5027
  2454G12c C02545387   8.916   9.934   3.695 -0.5798 -0.2677  2.0431
  2454G12c C02645388   9.028   9.927   3.576  2.3218 -1.7905  0.2383
  2454G12c H00Y45389   9.028   9.843   3.506 -3.1541  1.7371 -4.4887
  2454G12c H00X45390   9.113   9.886   3.631 -1.0255 -5.5504  2.8288
  2454G12c O00C45391   9.033  10.034   3.479  0.7211 -0.1072  0.1447
  2454G12c H00W45392   8.946  10.067   3.466 -1.8960 -5.0770  3.3573
  2454G12c C02745393   8.962   9.976   3.819  0.0210  0.9103 -0.1634
  2454G12c O00D45394   8.897   9.936   3.919  1.3842  0.1011 -0.7448
  2454G12c H00Z45395   8.860   9.849   3.920  1.4725  0.0485  2.0017
  2454G12c C02845396   9.084  10.036   3.856  2.1938 -0.6988 -0.1669
  2454G12c C02945397   9.106  10.161   3.800  0.7546  2.4017  0.7789
  2454G12c H01045398   9.034  10.192   3.725 -0.6073 -0.8899  0.6158
  2454G12c C02T45399   9.216  10.228   3.849 -0.1870  1.2131 -1.3301
  2454G12c H01O45400   9.188  10.328   3.820 -2.4038  0.0907 -3.2399
  2454G12c C02S45401   9.339  10.166   3.906  2.1138 -1.5524  1.7227
  2454G12c O00J45402   9.447  10.229   3.935 -0.4706  0.8537 -0.5021
  2454G12c H01P45403   9.494  10.150   3.915 -6.4753 -2.4116 -2.9112
  2454G12c C02R45404   9.326  10.025   3.923 -1.2747  1.6240  0.9285
  2454G12c O00I45405   9.415   9.951   3.986 -0.1558 -0.3402 -0.9662
  2454G12c C02Q45406   9.504   9.873   3.894  0.2817  0.8918  0.1519
  2454G12c H01N45407   9.453   9.789   3.847  7.4741 -0.3517 -6.4075
  2454G12c H01R45408   9.535   9.950   3.824  5.1994 -0.9502  0.1135
  2454G12c H01Q45409   9.590   9.808   3.913 -1.4266 -2.5731 -3.1984
  2454G12c C02A45410   9.204   9.971   3.919  1.7559  0.1553  0.5010
  2454G12c H01145411   9.179   9.871   3.953 -2.3883  0.5222 -1.1417
  2454G12c C00C45412   8.855   9.663   3.646  1.5034 -0.5305  0.3977
  2454G12c H01245413   8.904   9.703   3.734  2.3788 -1.5226  0.3646
  2454G12c C00B45414   8.843   9.524   3.578 -0.9814 -0.6804  0.6295
  2454G12c C00A45415   8.917   9.405   3.625  0.8411  0.0269 -0.8564
  2454G12c C00945416   9.042   9.399   3.685 -0.0525 -1.8923 -0.3844
  2454G12c C00845417   9.136   9.499   3.702  0.7607 -0.4400 -1.3919
  2454G12c H01345418   9.097   9.597   3.725  5.8593  1.3064  0.5504
  2454G12c C00745419   9.272   9.478   3.664 -0.7168  0.3290 -0.0695
  2454G12c H01445420   9.329   9.562   3.626 -0.4476 -1.2887 -3.3753
  2454G12c C00645421   9.322   9.343   3.620  0.3290 -0.7196 -1.8382
  2454G12c C00545422   9.227   9.243   3.610  0.3741 -0.3777 -0.8822
  2454G12c C00445423   9.256   9.118   3.545  1.6641 -0.6865 -1.2781
  2454G12c C00345424   9.151   9.040   3.497 -0.9785 -0.0308 -0.4112
  2454G12c C00245425   9.185   8.927   3.418  1.2445  2.2270  0.6672
  2454G12c C00145426   9.096   8.827   3.350  1.6194  0.6590 -1.1760
  2454G12c C00M45427   8.999   8.864   3.254  0.2195 -0.8713  0.0317
  2454G12c C00L45428   8.890   8.947   3.287  0.5543  2.2415  2.0095
  2454G12c C00R45429   8.814   9.028   3.203 -0.7462 -0.6710  0.1968
  2454G12c C00Q45430   8.783   9.008   3.067 -0.8477 -1.3202  0.6691
  2454G12c C00V45431   8.679   9.103   3.025  0.6399  0.3708  0.3744
  2454G12c C00U45432   8.628   9.207   3.101  0.6093 -0.9371 -0.6168
  2454G12c C00T45433   8.672   9.220   3.230 -1.1229 -1.0743  0.7888
  2454G12c C01645434   8.655   9.338   3.299  0.0224 -0.1229  1.0635
  2454G12c C01545435   8.576   9.441   3.258 -0.8911  0.7322 -0.1053
  2454G12c C01045436   8.517   9.426   3.127 -0.0011 -1.0570 -1.0397
  2454G12c C01145437   8.439   9.528   3.076 -0.2412  0.1778 -1.1586
  2454G12c H00545438   8.369   9.521   2.994 -0.0761 -1.2602 -1.1908
  2454G12c C01245439   8.421   9.644   3.153  0.5383 -1.4910  0.6521
  2454G12c C01745440   8.355   9.764   3.096 -0.1063  0.5795 -0.1622
  2454G12c O00245441   8.314   9.863   3.173 -0.6248  0.1331  0.3273
  2454G12c H00445442   8.221   9.877   3.175 -1.8324 -6.2923  1.0571
  2454G12c C01845443   8.358   9.797   2.967  0.5461 -0.3766 -0.5360
  2454G12c O00145444   8.415   9.710   2.874  0.9856 -0.4282  0.6205
  2454G12c H00345445   8.415   9.748   2.788  0.2262  3.9584  2.3854
  2454G12c C01945446   8.274   9.915   2.906  0.3152  0.0137 -0.8905
  2454G12c H00245447   8.173   9.877   2.921 -1.3199  4.6423  0.6263
  2454G12c H00145448   8.266  10.000   2.974  5.2351 -1.0045  1.1798
  2454G12c O00045449   8.312   9.944   2.777 -1.2105  0.5605 -0.3534
  2454G12c C01A45450   8.417  10.036   2.721 -0.0364  0.3263  0.6112
  2454G12c C02K45451   8.499  10.113   2.804  0.4027  0.5226 -0.2706
  2454G12c O00G45452   8.465  10.122   2.937  1.1268  1.7164  0.7457
  2454G12c C02M45453   8.555  10.158   3.046 -0.6800  1.1035 -0.4291
  2454G12c H01G45454   8.645  10.097   3.039 -2.4582 -1.9849  2.7698
  2454G12c H01F45455   8.498  10.142   3.137  0.5176 -3.5235 -0.3948
  2454G12c H01E45456   8.569  10.266   3.031 -2.9316  2.0574  3.7284
  2454G12c C02J45457   8.626  10.143   2.778 -0.7356  0.7096  1.5498
  2454G12c H01H45458   8.646  10.235   2.831 -1.7857  5.1832 -5.1963
  2454G12c C02I45459   8.698  10.080   2.671  1.5542 -0.6006  2.6229
  2454G12c C02N45460   8.849  10.062   2.684 -0.3623 -1.4286  0.8635
  2454G12c H01M45461   8.921  10.120   2.740  3.1786 -4.0709 -0.7629
  2454G12c C02O45462   8.917   9.971   2.594 -0.1545  0.3540 -2.0072
  2454G12c H01L45463   8.869   9.896   2.534 -1.0925  0.0767 -0.9211
  2454G12c C02P45464   9.058   9.992   2.612  0.4096 -1.5701  0.7683
  2454G12c H01K45465   9.116   9.918   2.666  0.5679  0.2031  3.1334
  2454G12c H01J45466   9.110   9.982   2.517  1.7515 -2.0072  1.5431
  2454G12c O00H45467   9.097  10.131   2.635  0.2513 -1.1913 -0.0958
  2454G12c H01I45468   9.021  10.185   2.617  2.3276 -0.4651 -8.1589
  2454G12c C02H45469   8.618  10.025   2.575 -0.5559  1.7988 -0.1668
  2454G12c H01C45470   8.665   9.974   2.492 -4.8454  1.6691 -2.6612
  2454G12c C02L45471   8.473  10.008   2.591  0.6659  2.8337 -0.2282
  2454G12c H01D45472   8.413   9.936   2.537  3.0413  1.5815 -1.2986
  2454G12c C01345473   8.517   9.671   3.247  0.1437 -0.5719 -2.7264
  2454G12c H00045474   8.504   9.778   3.260  4.7502 -0.2920  0.6296
  2454G12c C01445475   8.592   9.558   3.312  0.2142 -2.5981 -0.0182
  2454G12c C00F45476   8.681   9.597   3.422 -1.0681  0.8698  1.1449
  2454G12c C00H45477   8.745   9.362   3.407  0.0314 -0.8953 -0.1029
  2454G12c C00I45478   8.802   9.254   3.465  0.2852 -0.7199 -0.5959
  2454G12c C00J45479   8.796   9.119   3.400 -1.1900  0.4112 -1.2510
  2454G12c C00Z45480   8.552   9.320   3.056 -0.6226  1.0205  2.0414
  2454G12c C00Y45481   8.495   9.301   2.933 -2.4640  0.3630 -1.1780
  2454G12c H00645482   8.423   9.371   2.894 -1.7371  2.2879  0.8680
  2454G12c C00X45483   8.508   9.181   2.850 -1.0246 -1.6520 -0.2536
  2454G12c O00345484   8.448   9.181   2.737 -0.7359  1.3563  0.5288
  2454G12c C01B45485   8.481   9.092   2.625 -0.9857 -1.4397  0.1294
  2454G12c H00945486   8.563   9.136   2.567  0.3395 -3.1372  0.6577
  2454G12c H00845487   8.419   9.141   2.550 -3.8156  3.8380  5.5501
  2454G12c H00745488   8.492   8.984   2.617  0.8763 -0.9814 -8.1008
  2454G12c C00W45489   8.616   9.097   2.889 -0.1816  0.8829 -0.0958
  2454G12c O00445490   8.662   8.993   2.818  0.3643  0.2018  0.8255
  2454G12c C01C45491   8.791   8.961   2.843 -0.3512 -0.8987 -0.5869
  2454G12c H00A45492   8.863   8.992   2.768 -4.5504  2.4346 -3.4800
  2454G12c C00P45493   8.841   8.935   2.976 -0.3396 -0.3204  0.4746
  2454G12c C00O45494   8.936   8.837   3.011  0.7097 -0.3920 -0.1711
  2454G12c C01D45495   8.992   8.773   2.902  0.3819 -0.5887 -0.2685
  2454G12c H00S45496   8.936   8.759   2.811  0.4496 -2.3469 -0.0477
  2454G12c C01E45497   9.112   8.711   2.889  1.3594  0.2384 -0.5206
  2454G12c O00845498   9.164   8.634   2.781 -2.3551  0.3358  0.4846
  2454G12c C01V45499   9.231   8.517   2.780 -0.8554  0.1718 -0.3963
  2454G12c C01Z45500   9.365   8.521   2.688  0.0950 -0.3021 -0.1187
  2454G12c H00R45501   9.363   8.452   2.604 -0.7903  3.4680 -3.3109
  2454G12c H00Q45502   9.338   8.616   2.642 -1.9863  2.2960  5.9076
  2454G12c O00945503   9.482   8.542   2.767 -0.1278  1.2075 -0.3764
  2454G12c H00P45504   9.479   8.617   2.824  1.3717  1.1608 -0.2087
  2454G12c C01W45505   9.220   8.424   2.876  0.7858  1.5756  0.9826
  2454G12c H00O45506   9.123   8.439   2.920 -0.0966  0.1677 -0.4310
  2454G12c C01X45507   9.282   8.277   2.866 -0.3436 -0.1535  1.5720
  2454G12c H00N45508   9.381   8.256   2.906  0.1092 -0.0492  0.5218
  2454G12c H00M45509   9.245   8.244   2.963  0.1106 -0.9591  1.4798
  2454G12c C01Y45510   9.244   8.175   2.771  0.6892  0.1603 -1.3830
  2454G12c C02D45511   9.130   8.207   2.687 -0.5179 -1.5990 -1.0394
  2454G12c H01945512   9.107   8.313   2.689  1.2977 -1.1852  0.2624
  2454G12c C02C45513   9.052   8.092   2.614 -1.5732 -1.6466  0.2513
  2454G12c H01A45514   8.965   8.124   2.559 -2.9602 -0.4266  3.0671
  2454G12c C02B45515   9.113   7.956   2.604  0.1315  0.9422  0.3638
  2454G12c O00E45516   9.081   7.860   2.510 -0.1981  0.5452  0.4468
  2454G12c H01B45517   9.139   7.793   2.478 -1.1180 -1.7422  3.3630
  2454G12c C02F45518   9.213   7.923   2.703  1.4778 -1.1568 -0.5055
  2454G12c O00F45519   9.271   7.799   2.699  1.4829 -1.3041 -0.7653
  2454G12c C02G45520   9.333   7.747   2.800 -1.2454  0.0636 -0.8539
  2454G12c H01745521   9.245   7.686   2.825  0.6953 -2.4578  0.0480
  2454G12c H01645522   9.350   7.803   2.892 -0.2493  4.8141 -3.7683
  2454G12c H01545523   9.429   7.707   2.768 -0.6093 -1.3680  2.5858
  2454G12c C02E45524   9.267   8.036   2.784 -1.9613 -2.0615  0.8033
  2454G12c H01845525   9.370   8.021   2.813 -1.7615  1.6788  2.2792
  2454G12c C01F45526   9.183   8.722   3.013  0.4522  1.5035 -0.7299
  2454G12c C01G45527   9.327   8.739   3.011  0.2902  1.2305 -1.0361
  2454G12c H00L45528   9.359   8.764   2.911  2.0124  2.3704 -0.2272
  2454G12c C01H45529   9.394   8.791   3.132 -0.2958 -0.7172  1.5329
  2454G12c H00B45530   9.469   8.866   3.112 -0.8695 -1.2560 -3.1586
  2454G12c C01I45531   9.319   8.819   3.249  1.1065  0.6448 -1.4564
  2454G12c C01U45532   9.121   8.726   3.146  0.7450  1.3241  1.2512
  2454G12c C00S45533   8.733   9.106   3.286 -0.6718 -0.3330 -0.1628
  2454G12c C00K45534   8.916   9.037   3.394 -0.0334 -1.2288  0.5734
  2454G12c C00N45535   8.999   8.801   3.131 -0.5322 -2.7406  1.8353
  2454G12c C00045536   9.187   8.761   3.265  0.1223 -0.2204  0.9547
  2454G12c C01J45537   9.314   8.916   3.353  0.3198  0.6147  1.2450
  2454G12c C01K45538   9.426   8.978   3.425 -1.2534 -0.5571 -0.5728
  2454G12c C01P45539   9.553   8.938   3.460  1.7614  1.3599  1.0018
  2454G12c C01Q45540   9.600   8.791   3.444  1.9979 -0.1765  0.0740
  2454G12c H00G45541   9.520   8.728   3.408  0.7256  3.9576 -5.0487
  2454G12c C01R45542   9.723   8.745   3.427 -0.2707 -1.4918 -1.1712
  2454G12c H00F45543   9.798   8.823   3.427  1.6594 -3.1143 -6.3306
  2454G12c C01S45544   9.758   8.608   3.460  0.1226  0.5305 -0.7757
  2454G12c H00E45545   9.860   8.598   3.495  1.3751  7.5941 -1.6736
  2454G12c H00D45546   9.696   8.540   3.519  2.2105 -0.6767  0.0496
  2454G12c O00545547   9.765   8.569   3.333  1.6038 -0.2756  1.0335
  2454G12c H00C45548   9.675   8.563   3.304  2.6918 -2.1229 -2.3236
  2454G12c C01O45549   9.649   9.018   3.526 -1.0894  0.0306 -0.6336
  2454G12c H00H45550   9.743   8.977   3.561  0.3164  4.6934  1.5387
  2454G12c C01N45551   9.617   9.152   3.566  0.1998  1.8307  0.3381
  2454G12c O00645552   9.730   9.193   3.641 -0.4489  0.9122  0.0734
  2454G12c C01T45553   9.693   9.246   3.762 -1.7428  1.0856  1.5757
  2454G12c H00K45554   9.678   9.354   3.758  4.5810  2.2207  3.1283
  2454G12c H00J45555   9.792   9.234   3.807 -1.0075 -1.9997 -0.6856
  2454G12c H00I45556   9.609   9.202   3.815 -3.2260  1.7299 -0.1937
  2454G12c C01M45557   9.478   9.192   3.547 -1.5351  0.0620 -0.8954
  2454G12c C02045558   9.024   9.091   3.491 -0.2530 -0.9120 -1.7853
  2454G12c C02145559   9.009   9.189   3.594  1.8017  0.8334 -0.6486
  2454G12c C01L45560   9.389   9.094   3.503  0.4128 -0.1611 -0.6285
  2454G12c O00745561   9.446   9.319   3.593 -0.7836  0.8798 -0.6464
  2454G12c C02245562   9.095   9.265   3.652 -0.5546  0.6342 -2.5743
  2454G12c C02345563   8.895   9.277   3.572 -2.0066  1.3919  0.6190
  2454G12c C00G45564   8.764   9.493   3.462 -0.2086 -0.3478 -0.2595
  2454G12c C00E45565   8.704   9.733   3.467  1.1150  0.2434 -1.3832
  2454G12c O00A45566   8.644   9.850   3.402  0.6416  0.7816  0.6344
  2454G12c C02445567   8.741   9.883   3.306 -0.0394  0.4747  0.4877
  2454G12c H00V45568   8.834   9.933   3.334  1.4153 -0.8168 -1.8453
  2454G12c H00U45569   8.678   9.936   3.235 -1.0243 -3.8923 -2.0972
  2454G12c H00T45570   8.787   9.804   3.246 -0.1459  2.5596 -2.4195
  2464G12c C00D45571   1.962   9.991  10.725 -1.7177 -1.5199  0.3541
  2464G12c O00B45572   2.063  10.000  10.616 -0.4413  1.5631  0.4734
  2464G12c C02545573   2.191   9.955  10.651  1.0178 -0.7770  1.0776
  2464G12c C02645574   2.183   9.808  10.615  0.6282 -1.2189  0.9639
  2464G12c H00Y45575   2.124   9.788  10.705 -0.7642  0.7365  0.5324
  2464G12c H00X45576   2.271   9.746  10.629 -0.0830 -4.2560 -5.8482
  2464G12c O00C45577   2.099   9.752  10.520 -0.8031 -0.9513 -0.0735
  2464G12c H00W45578   2.112   9.798  10.439 -4.0823  4.2348  2.0160
  2464G12c C02745579   2.286  10.017  10.724  2.1337  1.6073 -0.8597
  2464G12c O00D45580   2.258  10.138  10.782 -0.2022 -0.9427 -0.3827
  2464G12c H00Z45581   2.353  10.142  10.782  0.1515 -1.0949 -8.5221
  2464G12c C02845582   2.399   9.929  10.752 -1.2343 -1.0855  1.4667
  2464G12c C02945583   2.439   9.876  10.873  0.6429  0.7996 -0.1418
  2464G12c H01045584   2.378   9.910  10.955 -1.6019 -1.9346 -0.5969
  2464G12c C02T45585   2.559   9.796  10.867 -0.0892 -0.7974  0.9068
  2464G12c H01O45586   2.591   9.756  10.963  1.0270 -0.0666  0.8482
  2464G12c C02S45587   2.641   9.811  10.761  1.5759 -0.3505  0.6476
  2464G12c O00J45588   2.761   9.764  10.751 -0.0952  0.8098  0.9941
  2464G12c H01P45589   2.755   9.751  10.657 -1.7633  1.5799  0.9940
  2464G12c C02R45590   2.610   9.872  10.633  1.1507 -1.0782  1.7968
  2464G12c O00I45591   2.692   9.848  10.530  0.9431  0.6338  1.5948
  2464G12c C02Q45592   2.757   9.964  10.479 -1.4041 -0.4595 -0.2401
  2464G12c H01N45593   2.851   9.979  10.531 -2.1945 -2.6585  1.9340
  2464G12c H01R45594   2.724  10.053  10.533  7.9065  2.2798  1.8460
  2464G12c H01Q45595   2.783   9.989  10.376 -1.6684 -1.9734 -0.6987
  2464G12c C02A45596   2.474   9.912  10.641  0.5755 -1.6993 -0.0467
  2464G12c H01145597   2.433   9.941  10.545 -0.1463 -0.0291  0.7428
  2464G12c C00C45598   1.887   9.881  10.711  1.5019 -1.2820  1.5319
  2464G12c H01245599   1.900   9.815  10.626 -8.1711 -1.0981 -0.6821
  2464G12c C00B45600   1.798   9.834  10.814 -1.7037 -0.9669  0.0593
  2464G12c C00A45601   1.699   9.724  10.797  0.2547  0.0927  2.4726
  2464G12c C00945602   1.603   9.703  10.693  2.0058  0.4699 -0.4892
  2464G12c C00845603   1.586   9.766  10.563 -0.5670  1.4586 -0.0373
  2464G12c H01345604   1.679   9.809  10.527  1.5998 -1.7817  1.4017
  2464G12c C00745605   1.458   9.753  10.496 -0.7501 -0.9384  0.1390
  2464G12c H01445606   1.422   9.800  10.406  1.2387  3.6385  1.5758
  2464G12c C00645607   1.343   9.701  10.560 -0.2881 -0.5863 -0.2814
  2464G12c C00545608   1.371   9.663  10.686 -0.3237 -0.0311  0.0113
  2464G12c C00445609   1.252   9.650  10.787 -0.5610 -0.3740  1.2839
  2464G12c C00345610   1.276   9.608  10.923  0.8711  1.0029  1.2679
  2464G12c C00245611   1.175   9.589  11.016  0.5370 -1.3516  1.3041
  2464G12c C00145612   1.167   9.553  11.150 -0.7307  0.0222  0.1958
  2464G12c C00M45613   1.246   9.603  11.246 -0.1147  0.2709 -0.6166
  2464G12c C00L45614   1.373   9.656  11.218 -0.5182  0.5520 -0.9408
  2464G12c C00R45615   1.441   9.745  11.306 -2.1224 -0.9533 -0.4763
  2464G12c C00Q45616   1.418   9.801  11.436  1.4900  0.1296  0.4442
  2464G12c C00V45617   1.514   9.898  11.479 -0.4550 -2.6118  0.7415
  2464G12c C00U45618   1.626   9.925  11.393  1.4562 -0.8398  0.5030
  2464G12c C00T45619   1.650   9.866  11.272 -2.3896  0.3612  0.3111
  2464G12c C01645620   1.735   9.900  11.176  0.3257 -0.2262  0.2774
  2464G12c C01545621   1.815  10.012  11.193 -0.1501 -1.1496 -1.3327
  2464G12c C01045622   1.800  10.075  11.321  1.5926  0.1534  0.3636
  2464G12c C01145623   1.868  10.198  11.348 -0.2209 -0.1601  0.2549
  2464G12c H00545624   1.846  10.273  11.423 -1.1404 -3.3917  3.3531
  2464G12c C01245625   1.984  10.233  11.273  1.8231  0.4192  0.5899
  2464G12c C01745626   2.078  10.341  11.305  1.2097  0.4095  1.8236
  2464G12c O00245627   2.156  10.266  11.400  1.3322  0.3897 -1.0438
  2464G12c H00445628   2.200  10.339  11.441 -1.0641  2.3967 -1.8812
  2464G12c C01845629   2.116  10.450  11.225  1.7670  0.3839 -0.4245
  2464G12c O00145630   2.031  10.493  11.132 -1.2780 -0.3864  0.5724
  2464G12c H00345631   1.947  10.457  11.108 -2.5224  2.4461  0.3930
  2464G12c C01945632   2.240  10.542  11.232  0.4681 -0.8975 -1.5924
  2464G12c H00245633   2.241  10.591  11.135 -5.9631  0.0053 -1.4255
  2464G12c H00145634   2.185  10.617  11.288  0.1566 -0.4231 -2.5228
  2464G12c O00045635   2.357  10.476  11.288  1.3290 -0.8024 -0.3661
  2464G12c C01A45636   2.471  10.470  11.199  2.3446  0.8045 -0.1423
  2464G12c C02K45637   2.517  10.339  11.178  1.3414  0.5715  1.2563
  2464G12c O00G45638   2.465  10.233  11.256 -0.0020 -1.4910 -0.2106
  2464G12c C02M45639   2.498  10.095  11.210 -0.1136 -0.9403  0.0421
  2464G12c H01G45640   2.483  10.020  11.289 -7.3835  1.3029  1.2130
  2464G12c H01F45641   2.414  10.073  11.143 -1.3729  0.9138  0.9864
  2464G12c H01E45642   2.595  10.094  11.161  0.2027 -4.1784  0.5706
  2464G12c C02J45643   2.611  10.324  11.069 -0.4720 -1.1670  0.3807
  2464G12c H01H45644   2.656  10.231  11.037 -1.6518 -0.5108 -3.4308
  2464G12c C02I45645   2.663  10.424  10.985  0.4125 -0.0821  0.4946
  2464G12c C02N45646   2.751  10.392  10.885 -0.2639 -0.1825 -0.4082
  2464G12c H01M45647   2.755  10.454  10.797 -5.4030 -2.2706 -2.3240
  2464G12c C02O45648   2.855  10.291  10.905  0.4187 -0.2553  0.0001
  2464G12c H01L45649   2.864  10.240  11.000 -7.0988  0.2599  1.3484
  2464G12c C02P45650   2.989  10.263  10.808  2.1201 -1.2446 -0.2826
  2464G12c H01K45651   3.018  10.357  10.762  0.3290 -3.6456 -6.8595
  2464G12c H01J45652   3.051  10.177  10.830  1.3182 -0.5817  5.4725
  2464G12c O00H45653   2.912  10.199  10.705 -0.9067 -0.8432  0.2022
  2464G12c H01I45654   2.964  10.165  10.633  2.6271  1.0840  1.6790
  2464G12c C02H45655   2.602  10.552  10.990 -0.1345  0.8805  1.1762
  2464G12c H01C45656   2.621  10.611  10.901 -1.3132 -6.5450 -4.5030
  2464G12c C02L45657   2.515  10.579  11.099  0.0866 -0.3629 -0.3847
  2464G12c H01D45658   2.475  10.677  11.121  2.4472  0.5074  0.1439
  2464G12c C01345659   1.989  10.158  11.147 -1.9646 -0.5808 -1.2804
  2464G12c H00045660   2.069  10.182  11.078  0.7379  3.5866  2.9767
  2464G12c C01445661   1.896  10.067  11.093  0.2817 -0.3873 -0.6250
  2464G12c C00F45662   1.900  10.000  10.962  1.4341 -1.5391 -0.0870
  2464G12c C00H45663   1.730   9.829  11.054  1.2147 -0.5671 -0.0578
  2464G12c C00I45664   1.641   9.711  11.028  0.9224 -0.7103  1.1700
  2464G12c C00J45665   1.557   9.684  11.126  0.0375  0.5324  1.4487
  2464G12c C00Z45666   1.711  10.036  11.430  0.2714  0.7551  1.8096
  2464G12c C00Y45667   1.672  10.097  11.541  1.3518  0.1843  0.5281
  2464G12c H00645668   1.689  10.204  11.546  2.3890  0.0899 -0.8557
  2464G12c C00X45669   1.600  10.034  11.644 -0.3356 -0.0126  1.5484
  2464G12c O00345670   1.606  10.074  11.776 -1.6349  0.0809  0.9465
  2464G12c C01B45671   1.524  10.184  11.804  0.4048  0.1639  0.1819
  2464G12c H00945672   1.491  10.165  11.906  1.7810 -0.3339  0.5332
  2464G12c H00845673   1.442  10.206  11.735  1.6971  0.1623 -1.3842
  2464G12c H00745674   1.577  10.278  11.811 -4.0800  2.7269  2.0745
  2464G12c C00W45675   1.513   9.947  11.604 -2.0513 -0.8054  0.0389
  2464G12c O00445676   1.445   9.875  11.707  0.7212 -0.7069  2.5752
  2464G12c C01C45677   1.335   9.792  11.663 -1.5554 -0.3813  0.5640
  2464G12c H00A45678   1.262   9.743  11.726  2.2425 -6.3440  0.7331
  2464G12c C00P45679   1.306   9.756  11.521 -0.6549  0.8580 -0.2731
  2464G12c C00O45680   1.181   9.724  11.468  0.2508  0.7049 -0.2540
  2464G12c C01D45681   1.058   9.758  11.539 -1.1729 -0.6087 -0.3324
  2464G12c H00S45682   1.044   9.772  11.645  4.7325 -1.1408  0.6487
  2464G12c C01E45683   0.936   9.755  11.477  0.6294 -0.4081 -0.4395
  2464G12c O00845684   0.813   9.819  11.518 -0.2564  0.3355  0.8011
  2464G12c C01V45685   0.803   9.928  11.598 -0.7383 -1.1151 -0.9847
  2464G12c C01Z45686   0.922  10.037  11.601  2.6553  0.7800  0.3074
  2464G12c H00R45687   0.975  10.018  11.508 -0.7291  8.5723 -3.6201
  2464G12c H00Q45688   0.856  10.123  11.594  2.6927  0.5471 -4.5618
  2464G12c O00945689   1.010  10.049  11.703 -0.0621  1.3364 -0.0585
  2464G12c H00P45690   0.988  10.131  11.745 -1.1890  0.2013  1.6180
  2464G12c C01W45691   0.691   9.969  11.638  1.0491 -2.1795 -0.0558
  2464G12c H00O45692   0.696  10.047  11.712  0.4317  1.8659 -4.0421
  2464G12c C01X45693   0.551   9.895  11.625  2.1459  0.7475  0.2126
  2464G12c H00N45694   0.520   9.791  11.618  3.7621 -0.0514  3.8389
  2464G12c H00M45695   0.513   9.904  11.727  1.0586 -0.9568 -0.0368
  2464G12c C01Y45696   0.447   9.975  11.540 -1.3485  0.4281  1.1080
  2464G12c C02D45697   0.356  10.051  11.602 -0.4465 -0.9543 -0.3597
  2464G12c H01945698   0.367  10.061  11.709 -7.0944 -0.0250  0.4301
  2464G12c C02C45699   0.282  10.145  11.510  0.6961 -1.2829 -0.2283
  2464G12c H01A45700   0.208  10.211  11.553 -1.1784 -2.0619 -2.1759
  2464G12c C02B45701   0.289  10.146  11.374 -0.7941 -0.5482  0.1818
  2464G12c O00E45702   0.230  10.242  11.293 -1.0834  0.2407 -0.8492
  2464G12c H01B45703   0.252  10.332  11.313 -1.5463 -0.1392  1.6173
  2464G12c C02F45704   0.379  10.056  11.314 -0.1825  0.1138 -0.2544
  2464G12c O00F45705   0.388  10.038  11.183  0.3912  0.2555 -0.4792
  2464G12c C02G45706   0.287  10.007  11.090 -0.6103  0.5123 -0.1295
  2464G12c H01745707   0.346  10.047  11.008  1.1253  3.3569  2.4044
  2464G12c H01645708   0.253   9.903  11.082 -2.6277  1.2932 -2.3094
  2464G12c H01545709   0.215  10.084  11.119  1.9202  2.8373  0.1281
  2464G12c C02E45710   0.464   9.985  11.403  0.6233 -0.2468  0.3919
  2464G12c H01845711   0.530   9.914  11.355 -0.5732 -0.1437 -1.4754
  2464G12c C01F45712   0.918   9.688  11.344 -1.6096 -0.2399 -0.4565
  2464G12c C01G45713   0.810   9.712  11.255 -0.5793  1.5578  0.0788
  2464G12c H00L45714   0.726   9.771  11.287 -0.5503 -0.6233  4.5571
  2464G12c C01H45715   0.822   9.664  11.113 -0.7421 -2.9653  0.9160
  2464G12c H00B45716   0.739   9.709  11.062  5.1046  7.9501 -0.4562
  2464G12c C01I45717   0.944   9.602  11.071  1.3075  0.5983  0.3217
  2464G12c C01U45718   1.014   9.614  11.294 -0.2006  0.2710 -0.5330
  2464G12c C00S45719   1.560   9.768  11.240 -0.6372 -0.6363 -0.3727
  2464G12c C00K45720   1.439   9.610  11.108  0.8869 -0.0566  1.5837
  2464G12c C00N45721   1.147   9.645  11.349 -1.3235 -1.4759 -0.0662
  2464G12c C00045722   1.031   9.568  11.168  0.7474 -1.4794  0.5449
  2464G12c C01J45723   1.044   9.600  10.958 -0.2123 -0.6468  0.9496
  2464G12c C01K45724   1.005   9.629  10.812 -0.8837  0.2823  0.4714
  2464G12c C01P45725   0.873   9.623  10.745  0.1016 -0.3804  1.0690
  2464G12c C01Q45726   0.768   9.571  10.815 -1.3740  1.2954  0.2129
  2464G12c H00G45727   0.730   9.476  10.849  1.7746  1.7446  5.5774
  2464G12c C01R45728   0.664   9.657  10.845  1.1863 -1.3350  0.8325
  2464G12c H00F45729   0.692   9.759  10.824  3.8921 -2.1129  0.4885
  2464G12c C01S45730   0.536   9.622  10.913 -0.3953 -0.6005 -0.8093
  2464G12c H00E45731   0.488   9.711  10.953  3.5535 -0.9136  5.2314
  2464G12c H00D45732   0.481   9.590  10.824 -2.1268  1.0372 -0.3590
  2464G12c O00545733   0.561   9.536  11.020 -0.1951 -1.5907  0.1262
  2464G12c H00C45734   0.479   9.526  11.067  2.1090 -1.7476  4.3885
  2464G12c C01O45735   0.862   9.696  10.622  1.9502  1.1470 -0.8113
  2464G12c H00H45736   0.777   9.693  10.556  4.5351 -1.0182 -4.2225
  2464G12c C01N45737   0.975   9.747  10.559  0.9454  0.3090  0.9431
  2464G12c O00645738   0.921   9.862  10.495 -0.8963  0.3781  0.1779
  2464G12c C01T45739   1.022   9.954  10.443 -1.6945 -0.1780  0.6677
  2464G12c H00K45740   0.942  10.026  10.462  0.9505  1.8275  4.9427
  2464G12c H00J45741   1.054   9.936  10.341 -2.3636 -0.6735  0.5438
  2464G12c H00I45742   1.110   9.973  10.504  0.1167 -3.9429 -0.5942
  2464G12c C01M45743   1.119   9.720  10.603  1.5639 -0.6834 -0.4523
  2464G12c C02045744   1.409   9.587  10.973 -0.8262 -0.2592 -0.5405
  2464G12c C02145745   1.525   9.587  10.877  0.1694  0.5411 -0.5581
  2464G12c C01L45746   1.127   9.663  10.736 -1.1055 -0.5062  1.6632
  2464G12c O00745747   1.224   9.765  10.526  0.8670 -1.2173  0.0096
  2464G12c C02245748   1.494   9.653  10.761 -0.0894 -1.5983 -0.2919
  2464G12c C02345749   1.651   9.651  10.905  0.9308 -0.0760 -0.8586
  2464G12c C00G45750   1.803   9.883  10.947  1.4807 -0.7696  0.2845
  2464G12c C00E45751   1.958  10.063  10.850 -0.2838  0.3486  0.0536
  2464G12c O00A45752   1.966  10.204  10.854  0.7668 -0.4557  0.6090
  2464G12c C02445753   1.988  10.252  10.715 -1.5466 -0.7919 -1.8741
  2464G12c H00V45754   2.080  10.216  10.668 -0.3203 -4.6100  3.0888
  2464G12c H00U45755   1.916  10.260  10.634  4.3994  4.1716 -7.2129
  2464G12c H00T45756   2.053  10.338  10.732 -1.0534 -1.9381  2.7519
  2474G12c C00D45757  10.336   4.690   8.839 -0.2413  0.2065 -1.6911
  2474G12c O00B45758  10.447   4.623   8.809 -0.1528 -0.6668 -0.8708
  2474G12c C02545759  10.550   4.591   8.897  1.2073 -0.5856  1.9816
  2474G12c C02645760  10.601   4.448   8.850 -0.9935 -0.8893  1.0371
  2474G12c H00Y45761  10.545   4.410   8.764 -1.3676  4.7459 -1.4132
  2474G12c H00X45762  10.606   4.403   8.949  3.1752  2.1016  2.3661
  2474G12c O00C45763  10.742   4.446   8.825 -0.3569  0.5537  0.3754
  2474G12c H00W45764  10.760   4.469   8.736 -2.1964  0.2123 -0.1114
  2474G12c C02745765  10.573   4.673   9.012 -0.4375  0.1417 -0.0593
  2474G12c O00D45766  10.510   4.787   9.052  0.7080 -0.6951  0.3192
  2474G12c H00Z45767  10.422   4.755   9.044  1.2501 -1.5273 -3.5567
  2474G12c C02845768  10.681   4.633   9.084  0.2867 -0.8538 -0.1716
  2474G12c C02945769  10.804   4.650   9.026 -1.3403 -0.8053  0.4151
  2474G12c H01045770  10.804   4.719   8.943  3.6446  1.3009  1.9619
  2474G12c C02T45771  10.927   4.622   9.073 -1.4792  1.3395 -0.9384
  2474G12c H01O45772  11.022   4.656   9.035 -0.7114 -0.1890 -0.4141
  2474G12c C02S45773  10.914   4.521   9.168  1.1585  0.2393  1.0196
  2474G12c O00J45774  11.033   4.486   9.228  0.4615  0.6240  1.8930
  2474G12c H01P45775  11.018   4.512   9.317 -7.9595 -0.4651  1.2059
  2474G12c C02R45776  10.798   4.498   9.252  1.0399  1.4974 -2.0777
  2474G12c O00I45777  10.800   4.387   9.331  1.8205 -0.2974  0.6233
  2474G12c C02Q45778  10.703   4.275   9.317 -0.1534  0.2460 -1.7823
  2474G12c H01N45779  10.682   4.258   9.212  3.9714 -1.9763 -2.3506
  2474G12c H01R45780  10.615   4.332   9.346  1.8628  0.2891  5.1749
  2474G12c H01Q45781  10.720   4.184   9.375 -3.9914  3.6967  5.4833
  2474G12c C02A45782  10.671   4.553   9.205  0.8189 -1.3263 -0.5592
  2474G12c H01145783  10.577   4.514   9.242  1.6070 -0.1445  2.8527
  2474G12c C00C45784  10.245   4.604   8.902  0.3630  0.2034  0.3667
  2474G12c H01245785  10.258   4.502   8.936 -1.3527 -2.1299 -5.3483
  2474G12c C00B45786  10.118   4.655   8.939  0.2436 -0.1871  1.2718
  2474G12c C00A45787  10.026   4.604   9.026  2.1907 -2.9953 -0.5677
  2474G12c C00945788   9.974   4.469   8.993  1.0709 -0.9890  0.4598
  2474G12c C00845789  10.012   4.365   8.911  0.7499  0.0279  0.9847
  2474G12c H01345790  10.113   4.359   8.872 -1.5089  3.1351 -6.2819
  2474G12c C00745791   9.930   4.258   8.881  0.6519  1.8284  0.1492
  2474G12c H01445792   9.976   4.187   8.814 -2.5076 -2.6072  2.3589
  2474G12c C00645793   9.797   4.272   8.916  0.0735  0.0920 -0.3923
  2474G12c C00545794   9.745   4.387   8.982  0.1386 -1.3207 -0.8691
  2474G12c C00445795   9.610   4.404   9.013  1.3614  1.2393 -1.6305
  2474G12c C00345796   9.581   4.533   9.065  0.2839  0.4148  0.2061
  2474G12c C00245797   9.443   4.552   9.061 -0.7823  3.0155  0.1970
  2474G12c C00145798   9.371   4.665   9.105  0.1995 -0.0459 -0.2216
  2474G12c C00M45799   9.406   4.794   9.031 -0.4595  0.9535 -0.2795
  2474G12c C00L45800   9.532   4.855   9.046 -0.0040  0.6956  0.4106
  2474G12c C00R45801   9.587   4.964   8.964  0.4002 -0.6588 -0.0748
  2474G12c C00Q45802   9.520   5.047   8.881 -1.4488 -1.2890  0.7202
  2474G12c C00V45803   9.604   5.140   8.803  0.0956  0.5999  1.1373
  2474G12c C00U45804   9.738   5.105   8.790 -1.0164  0.5257 -0.9113
  2474G12c C00T45805   9.813   5.015   8.875  1.5481  0.3718  0.2224
  2474G12c C01645806   9.926   4.955   8.844  0.6874  0.4573 -0.1500
  2474G12c C01545807   9.990   5.003   8.732 -0.8655 -0.8957  0.1490
  2474G12c C01045808   9.954   5.117   8.668  0.3481  2.0755 -0.0317
  2474G12c C01145809  10.038   5.176   8.564  0.8407  0.9827 -0.4785
  2474G12c H00545810  10.026   5.272   8.516 -3.5378  2.2718  2.8614
  2474G12c C01245811  10.153   5.101   8.520  0.5074  0.4683  1.4282
  2474G12c C01745812  10.248   5.145   8.410 -0.3259 -0.9210  0.2794
  2474G12c O00245813  10.253   5.054   8.305 -0.6679  0.6817 -0.7263
  2474G12c H00445814  10.279   5.092   8.223 -4.0497 -0.0957 -2.2405
  2474G12c C01845815  10.330   5.250   8.407 -1.3622 -1.4265 -0.9229
  2474G12c O00145816  10.382   5.274   8.279 -0.7871 -0.4813  0.5604
  2474G12c H00345817  10.368   5.365   8.260 -4.1543 -0.5980  2.1734
  2474G12c C01945818  10.346   5.357   8.519 -0.2549 -0.5107  1.1869
  2474G12c H00245819  10.284   5.321   8.600 -1.2488  6.0667  3.6144
  2474G12c H00145820  10.438   5.366   8.577  1.4382  4.0038 -1.8967
  2474G12c O00045821  10.295   5.482   8.465 -0.7335  0.8541  0.7782
  2474G12c C01A45822  10.303   5.596   8.523  0.8176  0.0519  2.5595
  2474G12c C02K45823  10.418   5.643   8.603  0.3358  1.8074 -0.8558
  2474G12c O00G45824  10.548   5.583   8.607 -0.4459 -1.2920 -0.1481
  2474G12c C02M45825  10.647   5.601   8.513  0.5489 -1.6658 -0.6657
  2474G12c H01G45826  10.686   5.698   8.543 -4.0533 -0.1918  1.0955
  2474G12c H01F45827  10.730   5.545   8.554  1.1972 -0.3693 -0.1831
  2474G12c H01E45828  10.630   5.557   8.415 -2.0692 -0.7158 -0.6762
  2474G12c C02J45829  10.401   5.769   8.676 -0.2455 -0.9500 -0.9928
  2474G12c H01H45830  10.477   5.805   8.744 -0.1837  2.4812 -2.7520
  2474G12c C02I45831  10.286   5.847   8.678  0.5576  0.6266  1.5598
  2474G12c C02N45832  10.254   5.969   8.747  0.9153  1.4367 -1.5200
  2474G12c H01M45833  10.234   6.055   8.686  1.7092 -0.2303 -4.2270
  2474G12c C02O45834  10.281   5.984   8.878  2.6923 -0.4610  0.1924
  2474G12c H01L45835  10.316   5.895   8.929  3.1966 -1.7902 -2.3917
  2474G12c C02P45836  10.282   6.136   8.930 -0.4602 -0.1751 -0.1895
  2474G12c H01K45837  10.224   6.141   9.022 -0.8013  1.4182 -0.4820
  2474G12c H01J45838  10.386   6.150   8.959 -0.4627 -2.8604  1.3213
  2474G12c O00H45839  10.239   6.230   8.831  0.6680  0.2711 -0.0643
  2474G12c H01I45840  10.218   6.316   8.863 -4.5315 -2.1392  3.7184
  2474G12c C02H45841  10.183   5.795   8.591  1.9385 -0.0871  0.6209
  2474G12c H01C45842  10.089   5.847   8.580 -0.2916 -2.9728  4.7150
  2474G12c C02L45843  10.200   5.703   8.501  0.2381  0.3131 -0.3738
  2474G12c H01D45844  10.136   5.652   8.429  0.6335 -2.7417  1.3457
  2474G12c C01345845  10.180   4.985   8.588  0.2184  1.5595  0.8690
  2474G12c H00045846  10.265   4.952   8.531 -2.5690  4.1798 -5.3343
  2474G12c C01445847  10.116   4.943   8.700  1.4775 -0.3778 -1.2469
  2474G12c C00F45848  10.162   4.836   8.786 -1.3448  0.2699  0.5754
  2474G12c C00H45849   9.967   4.847   8.924  0.6718  0.3667 -0.8212
  2474G12c C00I45850   9.883   4.801   9.038 -2.0847  0.8174  1.7636
  2474G12c C00J45851   9.764   4.862   9.059  1.3230  0.9481 -1.8629
  2474G12c C00Z45852   9.818   5.162   8.685  0.8129  1.2161  0.1186
  2474G12c C00Y45853   9.770   5.280   8.627  2.7957 -0.5448  1.7401
  2474G12c H00645854   9.841   5.348   8.584  2.0100 -1.3827 -0.9561
  2474G12c C00X45855   9.628   5.312   8.631 -2.4883 -0.5294 -1.5530
  2474G12c O00345856   9.612   5.429   8.559 -1.2256  0.8200  0.4780
  2474G12c C01B45857   9.520   5.407   8.434 -1.0146  0.4787  0.2833
  2474G12c H00945858   9.489   5.478   8.357 -0.5470  2.0463  1.5179
  2474G12c H00845859   9.591   5.337   8.388 -4.0837 -3.7154  1.5861
  2474G12c H00745860   9.444   5.348   8.486 -0.1003 -3.5408 -2.6521
  2474G12c C00W45861   9.540   5.247   8.725 -0.3857  0.4419  1.2030
  2474G12c O00445862   9.399   5.250   8.713  0.9998 -0.8473 -0.5946
  2474G12c C01C45863   9.342   5.192   8.825  0.7820  0.1846 -0.1445
  2474G12c H00A45864   9.265   5.251   8.872  2.5122  1.2830  1.3800
  2474G12c C00P45865   9.378   5.069   8.873  0.1489  0.3977 -0.6394
  2474G12c C00O45866   9.278   4.968   8.893 -0.0034 -0.7490  1.7178
  2474G12c C01D45867   9.149   4.985   8.841  0.9709  1.2132 -0.8375
  2474G12c H00S45868   9.135   5.070   8.776  3.1425  4.5156  2.8407
  2474G12c C01E45869   9.046   4.893   8.845  1.2621 -1.4344  0.7817
  2474G12c O00845870   8.924   4.943   8.803 -0.1621  0.2383 -0.8364
  2474G12c C01V45871   8.829   4.982   8.896 -1.2268  0.7960 -2.7081
  2474G12c C01Z45872   8.728   4.964   8.798  1.1697  2.5124 -1.9403
  2474G12c H00R45873   8.730   4.864   8.756 -0.3288  0.7990  1.8024
  2474G12c H00Q45874   8.636   5.006   8.839 -0.1411 -2.0251  0.0144
  2474G12c O00945875   8.710   5.064   8.708  0.6604 -0.7781 -0.8809
  2474G12c H00P45876   8.785   5.106   8.668 -2.2816  5.1908 -0.6953
  2474G12c C01W45877   8.836   4.994   9.037 -0.2677 -0.5096  0.8566
  2474G12c H00O45878   8.752   5.017   9.100  1.8419 -4.0385  5.2804
  2474G12c C01X45879   8.958   4.988   9.128 -2.1521 -0.6191  1.0549
  2474G12c H00N45880   8.925   4.968   9.230 -0.4241  4.3025  2.6916
  2474G12c H00M45881   9.039   4.917   9.110  1.1888  2.5053  3.1811
  2474G12c C01Y45882   9.025   5.129   9.132  1.4273  0.7681 -1.3281
  2474G12c C02D45883   9.161   5.162   9.168  1.2428  0.3553 -0.5549
  2474G12c H01945884   9.240   5.094   9.198  2.2220  1.5916 -0.3353
  2474G12c C02C45885   9.203   5.297   9.140  0.2846  1.8730 -1.0435
  2474G12c H01A45886   9.301   5.340   9.155  0.8142  0.0409  1.0735
  2474G12c C02B45887   9.113   5.388   9.138  0.8338 -1.1657  0.4345
  2474G12c O00E45888   9.155   5.522   9.152 -0.6583  0.4293 -0.7630
  2474G12c H01B45889   9.094   5.571   9.098 -0.2372  2.8185  0.8445
  2474G12c C02F45890   8.983   5.362   9.191 -0.0503  1.2718 -1.2318
  2474G12c O00F45891   8.935   5.475   9.239  0.5233  0.7698 -0.4500
  2474G12c C02G45892   8.878   5.560   9.135  2.3424 -0.3664 -1.5184
  2474G12c H01745893   8.816   5.617   9.204  0.4269 -3.3354 -0.7110
  2474G12c H01645894   8.817   5.504   9.064 -3.0890  2.3571  0.6859
  2474G12c H01545895   8.927   5.627   9.065  2.1644 -0.1388 -1.4251
  2474G12c C02E45896   8.946   5.231   9.180 -0.1982 -0.2132  1.2257
  2474G12c H01845897   8.839   5.235   9.194  0.3321 -1.6042  7.1261
  2474G12c C01F45898   9.085   4.765   8.911 -1.2604 -0.6355 -0.6432
  2474G12c C01G45899   9.018   4.630   8.894  1.4393  1.8347 -0.3684
  2474G12c H00L45900   8.935   4.594   8.836  1.7562 -2.0057  1.4130
  2474G12c C01H45901   9.085   4.512   8.952 -0.6080 -1.3062  1.5042
  2474G12c H00B45902   9.041   4.414   8.951 -3.5987 -0.0205  2.8513
  2474G12c C01I45903   9.207   4.518   9.023  1.4237  0.7863 -0.1699
  2474G12c C01U45904   9.191   4.759   9.002 -0.3273 -0.4337 -1.6611
  2474G12c C00S45905   9.724   4.966   8.973 -0.4014  0.7364 -0.9841
  2474G12c C00K45906   9.638   4.787   9.080 -0.6580  0.4300 -0.7599
  2474G12c C00N45907   9.289   4.859   8.979  0.7738 -0.3619 -0.0329
  2474G12c C00045908   9.235   4.645   9.072  2.0086 -0.0485  0.7826
  2474G12c C01J45909   9.335   4.453   9.024 -1.5652 -0.7987 -0.3603
  2474G12c C01K45910   9.366   4.324   8.964  0.6355 -0.3206  0.4994
  2474G12c C01P45911   9.288   4.207   8.915 -1.4860 -0.2411 -1.1598
  2474G12c C01Q45912   9.158   4.215   8.891 -0.1566  1.6740  1.2348
  2474G12c H00G45913   9.159   4.269   8.798 -2.1761 -1.9413 -1.0448
  2474G12c C01R45914   9.057   4.154   8.967  1.0960 -2.5088  0.9799
  2474G12c H00F45915   8.976   4.181   8.901 -2.0417 -2.7462  4.5142
  2474G12c C01S45916   9.059   4.127   9.113  0.5691 -1.4085 -0.6492
  2474G12c H00E45917   9.019   4.213   9.166  5.0322  1.0356 -1.0370
  2474G12c H00D45918   9.027   4.028   9.148 -4.1994 -0.6989 -2.4863
  2474G12c O00545919   9.179   4.123   9.179 -0.5542 -0.6302  0.3467
  2474G12c H00C45920   9.229   4.162   9.108  2.3927 -1.7968  1.7117
  2474G12c C01O45921   9.353   4.078   8.880 -1.9244  0.1219  0.5884
  2474G12c H00H45922   9.311   3.985   8.846  0.5523 -1.1406  0.7986
  2474G12c C01N45923   9.480   4.072   8.883 -0.2744 -0.8061 -0.3116
  2474G12c O00645924   9.558   3.960   8.840  0.5809  0.2461 -0.4727
  2474G12c C01T45925   9.545   3.836   8.896 -0.0029  0.7603  1.3951
  2474G12c H00K45926   9.457   3.785   8.856  1.7827 -1.6417  0.3878
  2474G12c H00J45927   9.598   3.837   8.991  2.3972 -2.2186  0.1806
  2474G12c H00I45928   9.621   3.822   8.819  1.3717 -2.6214  3.2517
  2474G12c C01M45929   9.555   4.190   8.927 -0.3935 -0.3769 -0.8613
  2474G12c C02045930   9.666   4.643   9.090 -0.3120  0.2871  0.5550
  2474G12c C02145931   9.809   4.600   9.106  2.0359 -0.4448  1.5867
  2474G12c C01L45932   9.503   4.310   8.971 -0.6840  1.9369 -2.1356
  2474G12c O00745933   9.701   4.178   8.900 -1.5549 -1.2817  0.7285
  2474G12c C02245934   9.842   4.482   9.025 -0.6125  0.6666 -0.9670
  2474G12c C02345935   9.918   4.680   9.081  0.3512  0.1383 -0.9803
  2474G12c C00G45936  10.074   4.776   8.879  0.2573  0.8468  0.4994
  2474G12c C00E45937  10.306   4.809   8.792 -0.2168 -0.4955 -0.6256
  2474G12c O00A45938  10.393   4.895   8.732  0.1048 -0.9904  1.4963
  2474G12c C02445939  10.432   4.996   8.826  1.6387  0.2649  1.3515
  2474G12c H00V45940  10.515   5.060   8.796  3.0323 -1.3877  1.6495
  2474G12c H00U45941  10.457   4.963   8.927 -0.1188  3.5328  2.9452
  2474G12c H00T45942  10.335   5.041   8.850  0.2049 -2.5736  1.0707
  2484G12c C00D45943   5.942  12.513  12.423  0.0530 -0.6092 -1.1375
  2484G12c O00B45944   6.002  12.397  12.468  0.4596 -0.7149  0.3213
  2484G12c C02545945   5.990  12.269  12.410  0.2342  2.1760  0.1665
  2484G12c C02645946   6.076  12.266  12.271  1.2783  0.3507  1.6738
  2484G12c H00Y45947   6.147  12.183  12.264 -0.1285 -0.5087 -6.2863
  2484G12c H00X45948   6.123  12.364  12.260  0.7100  0.0935 -5.0043
  2484G12c O00C45949   5.993  12.244  12.159  2.7010 -0.5940  0.8792
  2484G12c H00W45950   6.048  12.232  12.082 -0.0209 -4.2807 -0.6247
  2484G12c C02745951   5.936  12.171  12.486 -0.2358  0.0349 -0.3947
  2484G12c O00D45952   5.895  12.223  12.606 -0.1216 -0.4506  0.6828
  2484G12c H00Z45953   5.966  12.284  12.621 -1.7117  2.7255 -3.8196
  2484G12c C02845954   5.958  12.041  12.448 -0.4471 -0.0893  0.6983
  2484G12c C02945955   6.020  11.959  12.539 -1.1111  0.0452 -0.7370
  2484G12c H01045956   6.050  11.992  12.638  5.3005 -0.2321 -2.3836
  2484G12c C02T45957   6.029  11.822  12.495  0.7233 -0.1313  0.5881
  2484G12c H01O45958   6.062  11.741  12.558 -4.3418 -1.2199  2.0630
  2484G12c C02S45959   5.952  11.782  12.391  0.4716  0.8220  1.0799
  2484G12c O00J45960   5.961  11.666  12.345 -0.7817  0.7597 -0.3219
  2484G12c H01P45961   5.901  11.680  12.274  2.9064 10.3992 -2.2675
  2484G12c C02R45962   5.877  11.865  12.324 -0.5855 -0.1421  0.3027
  2484G12c O00I45963   5.820  11.828  12.208  0.9509 -2.1230 -1.4033
  2484G12c C02Q45964   5.721  11.897  12.128  1.0849 -0.1499  0.7393
  2484G12c H01N45965   5.732  11.970  12.048 -5.2620 -4.7338 -4.8738
  2484G12c H01R45966   5.649  11.951  12.190 -2.1508 -2.0430 -1.2368
  2484G12c H01Q45967   5.672  11.830  12.058 -5.3851  2.5605  2.3411
  2484G12c C02A45968   5.866  11.996  12.359 -0.8926 -0.4036  0.7873
  2484G12c H01145969   5.812  12.067  12.299  1.7794  1.5206  0.5515
  2484G12c C00C45970   5.860  12.518  12.305 -0.0600  0.0468  1.6166
  2484G12c H01245971   5.847  12.434  12.239  2.3476  3.8372 -4.0222
  2484G12c C00B45972   5.776  12.622  12.252  0.2198 -0.2037  0.8838
  2484G12c C00A45973   5.714  12.635  12.110  1.3263 -2.1026  0.6485
  2484G12c C00945974   5.787  12.605  11.992  0.5166 -0.5397  1.0969
  2484G12c C00845975   5.908  12.548  11.976 -1.2455  0.4277 -1.1030
  2484G12c H01345976   5.919  12.462  12.041  1.2996 -0.4237 -2.5876
  2484G12c C00745977   5.981  12.563  11.845  0.1414 -0.7920 -0.4599
  2484G12c H01445978   6.074  12.513  11.824  1.3469  1.8998 -1.7761
  2484G12c C00645979   5.930  12.642  11.742  0.7959  0.1305 -2.8205
  2484G12c C00545980   5.819  12.718  11.772  0.7208  0.6613 -1.5312
  2484G12c C00445981   5.799  12.836  11.709  2.1594 -1.2849 -0.7096
  2484G12c C00345982   5.723  12.938  11.773  0.0094  0.8715  0.9604
  2484G12c C00245983   5.707  13.059  11.705  1.8031  1.6821  0.2180
  2484G12c C00145984   5.658  13.181  11.715  0.5129  1.2313  2.3582
  2484G12c C00M45985   5.685  13.238  11.847 -0.1181 -0.1729  0.5711
  2484G12c C00L45986   5.644  13.172  11.962  0.7996 -0.6547 -1.2934
  2484G12c C00R45987   5.695  13.210  12.088  1.0904 -0.0113  0.4313
  2484G12c C00Q45988   5.772  13.323  12.128  0.2438  0.6784  0.7692
  2484G12c C00V45989   5.797  13.326  12.269  1.3175 -0.1363 -0.1937
  2484G12c C00U45990   5.781  13.211  12.354  0.5093  2.1620  0.0373
  2484G12c C00T45991   5.729  13.093  12.301 -1.8579 -1.4125  0.5552
  2484G12c C01645992   5.744  12.971  12.359  0.9176  1.5237  0.3001
  2484G12c C01545993   5.797  12.968  12.485 -1.1921  0.7530 -0.1802
  2484G12c C01045994   5.817  13.087  12.560 -0.3974  0.0508  1.4613
  2484G12c C01145995   5.859  13.086  12.705  0.2729  1.2161  1.6099
  2484G12c H00545996   5.891  13.181  12.746  0.0722  3.9118 -4.0533
  2484G12c C01245997   5.877  12.956  12.757  1.3159 -0.9726 -0.6720
  2484G12c C01745998   5.934  12.941  12.894 -2.1699 -0.0485 -1.1220
  2484G12c O00245999   6.040  12.840  12.916 -0.4551 -0.5415  0.3239
  2484G12c H00446000   6.090  12.908  12.960  6.3070 -0.6137 -6.2604
  2484G12c C01846001   5.895  13.035  12.991 -0.2170 -2.2690  1.7608
  2484G12c O00146002   5.781  13.111  12.989  0.1477 -1.0218 -0.3583
  2484G12c H00346003   5.758  13.180  12.929 -1.7330  1.9612  3.5398
  2484G12c C01946004   5.960  13.011  13.136 -0.4170 -0.8641 -2.8416
  2484G12c H00246005   6.061  12.999  13.098  1.0215  3.9544 -1.0150
  2484G12c H00146006   5.957  13.095  13.205  2.1901 -1.6085 -1.7894
  2484G12c O00046007   5.933  12.879  13.197  0.5922 -1.6520  0.4957
  2484G12c C01A46008   5.940  12.870  13.337  0.2220  0.5487 -1.6966
  2484G12c C02K46009   6.061  12.812  13.405 -1.0527  1.1524  0.1349
  2484G12c O00G46010   6.181  12.778  13.350 -1.3194 -0.0666 -0.1136
  2484G12c C02M46011   6.144  12.707  13.231  1.1498 -0.2945  2.3848
  2484G12c H01G46012   6.177  12.744  13.134 -0.1711 -2.7567  0.9382
  2484G12c H01F46013   6.041  12.673  13.237 -0.2198  3.3887  0.9279
  2484G12c H01E46014   6.211  12.620  13.235 -2.5260 -3.2708  2.1158
  2484G12c C02J46015   6.052  12.785  13.549 -0.5264  0.0855  0.5075
  2484G12c H01H46016   6.137  12.719  13.561  1.1668  2.7177  3.9755
  2484G12c C02I46017   5.940  12.755  13.619 -0.0378 -0.6373  0.4082
  2484G12c C02N46018   5.936  12.676  13.742  1.3533 -0.2603 -0.9046
  2484G12c H01M46019   5.957  12.571  13.727 -0.5819  0.1956 -9.9021
  2484G12c C02O46020   5.954  12.726  13.857 -1.6705 -0.1470 -0.8552
  2484G12c H01L46021   5.961  12.834  13.848 -4.3300  0.4955  3.6004
  2484G12c C02P46022   5.963  12.671  14.003  0.4524 -1.0553 -0.9520
  2484G12c H01K46023   5.933  12.758  14.062  2.9840 -2.1486  2.0806
  2484G12c H01J46024   6.042  12.600  14.028 -0.0757 -1.7569 -1.2615
  2484G12c O00H46025   5.859  12.595  13.991  0.6768 -0.1086  1.0927
  2484G12c H01I46026   5.795  12.637  13.936  1.1333  2.9011  2.7914
  2484G12c C02H46027   5.831  12.802  13.552 -1.7712  0.6404 -1.2249
  2484G12c H01C46028   5.738  12.755  13.580 -1.4586 -1.7262 -3.8740
  2484G12c C02L46029   5.832  12.829  13.408  1.7132 -0.6280  0.6050
  2484G12c H01D46030   5.745  12.843  13.345  3.0947 -7.9447 -3.5480
  2484G12c C01346031   5.860  12.850  12.667  0.0745 -1.0231  1.2590
  2484G12c H00046032   5.884  12.749  12.697  2.9559  1.2039  7.2482
  2484G12c C01446033   5.836  12.849  12.534 -0.8922  0.1595  1.8814
  2484G12c C00F46034   5.847  12.732  12.447  0.4196 -1.0879 -1.7221
  2484G12c C00H46035   5.716  12.856  12.273  0.0443 -0.9764  1.9845
  2484G12c C00I46036   5.638  12.864  12.164  1.5627  0.3813  1.3236
  2484G12c C00J46037   5.616  12.995  12.113  0.2806 -1.0216 -1.2760
  2484G12c C00Z46038   5.835  13.208  12.492  0.0825  0.4560  1.1543
  2484G12c C00Y46039   5.875  13.328  12.555 -2.0445 -1.4264  1.2606
  2484G12c H00646040   5.897  13.336  12.660 -0.0940  6.1862  0.5481
  2484G12c C00X46041   5.904  13.441  12.468  0.4790 -0.2023  1.6044
  2484G12c O00346042   5.958  13.540  12.538 -0.2185  0.0618 -1.7463
  2484G12c C01B46043   6.001  13.661  12.480 -0.2960 -1.5476  0.5831
  2484G12c H00946044   5.943  13.673  12.389 -2.1380 -4.8869  1.2497
  2484G12c H00846045   6.014  13.750  12.541 -2.3736 -2.5363  2.5217
  2484G12c H00746046   6.088  13.639  12.418 -3.1248 -0.9071 -3.8896
  2484G12c C00W46047   5.877  13.432  12.326  1.0540 -0.9062  1.9280
  2484G12c O00446048   5.947  13.511  12.244 -1.0952  0.7426  0.0515
  2484G12c C01C46049   5.888  13.541  12.134  0.1364  0.5875 -0.7409
  2484G12c H00A46050   5.924  13.636  12.097 -4.3655  2.3960 -0.7503
  2484G12c C00P46051   5.821  13.440  12.061 -0.6518 -0.9613 -1.1058
  2484G12c C00O46052   5.847  13.439  11.914  2.0046 -0.0191 -0.7932
  2484G12c C01D46053   5.936  13.517  11.850 -0.1938 -0.3588 -0.4767
  2484G12c H00S46054   5.948  13.602  11.915-11.6947 -1.4304  4.1625
  2484G12c C01E46055   5.981  13.503  11.714 -0.9544  0.7697 -0.8885
  2484G12c O00846056   6.095  13.550  11.655  0.8244  0.4521  0.9181
  2484G12c C01V46057   6.125  13.663  11.743  0.5273  0.4873  0.9807
  2484G12c C01Z46058   6.091  13.799  11.693 -0.2216  0.1060 -0.8064
  2484G12c H00R46059   5.983  13.788  11.684 -0.2580 -4.6781  3.1619
  2484G12c H00Q46060   6.104  13.876  11.770 -0.5089 -4.1685  3.7622
  2484G12c O00946061   6.146  13.853  11.576 -0.3624  0.8345  0.8302
  2484G12c H00P46062   6.224  13.801  11.562 -2.0117 -0.5300 -4.5175
  2484G12c C01W46063   6.237  13.647  11.812  0.3469 -0.1510 -0.0853
  2484G12c H00O46064   6.299  13.725  11.853  2.0091 -1.0392 -0.8169
  2484G12c C01X46065   6.313  13.519  11.813 -1.6366 -0.1725 -2.1935
  2484G12c H00N46066   6.362  13.492  11.907  1.1520 -2.6925 -4.2656
  2484G12c H00M46067   6.229  13.453  11.793 -1.9947  0.6389 -3.3883
  2484G12c C01Y46068   6.411  13.550  11.705  0.3590  0.9053 -1.0065
  2484G12c C02D46069   6.395  13.461  11.604 -1.4351 -1.5435 -0.5032
  2484G12c H01946070   6.336  13.371  11.618 -4.3857 -0.8618 -6.9138
  2484G12c C02C46071   6.492  13.480  11.496 -0.7804  1.0921 -1.3137
  2484G12c H01A46072   6.500  13.403  11.421  0.8831  1.7758 -1.8584
  2484G12c C02B46073   6.570  13.590  11.469  1.6213  1.3092  1.1260
  2484G12c O00E46074   6.678  13.565  11.383 -1.4178  1.5051  1.2335
  2484G12c H01B46075   6.728  13.640  11.411 -0.8591  1.3043  0.7627
  2484G12c C02F46076   6.578  13.677  11.575 -0.9877 -2.1635 -0.9352
  2484G12c O00F46077   6.647  13.803  11.549 -0.5764 -0.0325  2.3825
  2484G12c C02G46078   6.646  13.912  11.651  0.5242 -0.6299  0.0504
  2484G12c H01746079   6.567  13.984  11.628  1.7248  1.5198  2.3361
  2484G12c H01646080   6.742  13.965  11.650  1.4558 -2.2687 -1.9493
  2484G12c H01546081   6.649  13.893  11.758 -1.6439  1.9957  0.6532
  2484G12c C02E46082   6.506  13.653  11.699 -0.0169 -0.2241  0.8175
  2484G12c H01846083   6.529  13.688  11.798  4.2910  4.8843 -1.7663
  2484G12c C01F46084   5.903  13.420  11.629  1.3785 -0.7525  0.1171
  2484G12c C01G46085   5.930  13.397  11.492 -0.4166  1.6975  1.6620
  2484G12c H00L46086   6.024  13.445  11.471  0.5185  0.4525  2.9175
  2484G12c C01H46087   5.863  13.273  11.447  1.9206  1.1149  0.5964
  2484G12c H00B46088   5.911  13.209  11.374  4.6799  1.0897  2.3278
  2484G12c C01I46089   5.772  13.194  11.524 -1.8180 -0.5833  0.4699
  2484G12c C01U46090   5.789  13.357  11.686  0.0597  0.6236 -0.0121
  2484G12c C00S46091   5.667  13.106  12.174 -0.3478  1.0894  1.5294
  2484G12c C00K46092   5.615  13.032  11.969 -0.8404  2.7704 -1.3308
  2484G12c C00N46093   5.769  13.350  11.818 -0.3636 -1.6511  0.2658
  2484G12c C00046094   5.699  13.272  11.609 -0.2910  0.9217 -0.0886
  2484G12c C01J46095   5.731  13.050  11.555  0.0285 -0.1463  0.8889
  2484G12c C01K46096   5.820  12.951  11.506  0.5752  0.2792  0.0425
  2484G12c C01P46097   5.856  12.911  11.368  1.4746 -0.5027  0.7000
  2484G12c C01Q46098   5.760  12.937  11.255 -0.9102  2.8607 -1.2927
  2484G12c H00G46099   5.666  12.882  11.258 -1.3200  3.5783 -0.8122
  2484G12c C01R46100   5.754  13.055  11.199 -0.3287  0.2378 -0.1985
  2484G12c H00F46101   5.838  13.121  11.208 -1.9762  2.3514  0.1990
  2484G12c C01S46102   5.633  13.104  11.117  0.3954 -2.4245 -1.3095
  2484G12c H00E46103   5.584  13.017  11.073  1.2171 -2.2314 -2.6179
  2484G12c H00D46104   5.594  13.198  11.156 -0.0863 -2.6025 -1.3538
  2484G12c O00546105   5.684  13.154  11.008  0.0529  0.6725  0.3824
  2484G12c H00C46106   5.655  13.109  10.929 -2.1321  0.5085  1.2620
  2484G12c C01O46107   5.938  12.806  11.330 -1.1013  0.3095 -0.2205
  2484G12c H00H46108   5.966  12.770  11.232 -1.3524 -0.3232 -0.0609
  2484G12c C01N46109   6.014  12.739  11.428  0.3233 -0.3458 -0.8070
  2484G12c O00646110   6.128  12.667  11.417 -0.3806 -0.7920  0.1794
  2484G12c C01T46111   6.161  12.621  11.284  0.5991 -0.5087 -3.6245
  2484G12c H00K46112   6.211  12.524  11.279 -0.4881 -1.6668  3.4116
  2484G12c H00J46113   6.144  12.680  11.194 -0.7923  1.3866 -2.1665
  2484G12c H00I46114   6.069  12.562  11.278 -2.2642  3.1402  1.3227
  2484G12c C01M46115   5.968  12.767  11.555 -0.9382  1.1166 -0.6690
  2484G12c C02046116   5.659  12.913  11.893  0.3345 -0.3583 -0.5462
  2484G12c C02146117   5.643  12.775  11.938 -1.0797 -1.4212  0.7338
  2484G12c C01L46118   5.870  12.857  11.599  0.3295  1.5890 -0.8908
  2484G12c O00746119   6.011  12.687  11.647 -0.1238 -0.7738 -0.0989
  2484G12c C02246120   5.737  12.687  11.888  0.6855  0.6972 -0.5619
  2484G12c C02346121   5.636  12.751  12.079  1.5396 -2.0062 -1.2386
  2484G12c C00G46122   5.759  12.732  12.328 -0.5880 -0.3995 -0.5443
  2484G12c C00E46123   5.954  12.630  12.483 -1.6467 -0.0997  0.3374
  2484G12c O00A46124   6.046  12.650  12.578 -0.5408  0.3687 -0.8064
  2484G12c C02446125   6.169  12.684  12.518 -0.6921 -0.1643 -0.4068
  2484G12c H00V46126   6.180  12.735  12.423 -2.4119  0.3227 -0.3636
  2484G12c H00U46127   6.193  12.578  12.517 -1.7876 -0.4216 -3.6860
  2484G12c H00T46128   6.250  12.716  12.585  2.0305 -7.6793  0.4039
  2494G12c C00D46129   3.997   7.982   7.976 -1.6817 -1.1880  1.1098
  2494G12c O00B46130   4.006   8.117   8.007 -0.4929 -0.9327  0.0491
  2494G12c C02546131   3.935   8.213   7.945 -1.2383 -1.6972 -1.6068
  2494G12c C02646132   4.005   8.304   7.852  0.6950 -0.5412  0.3705
  2494G12c H00Y46133   3.937   8.293   7.768  2.3754  0.6141 -1.1948
  2494G12c H00X46134   4.110   8.273   7.846  0.5331 -0.9320 -0.5404
  2494G12c O00C46135   4.029   8.431   7.908  1.5288  0.7892  0.1072
  2494G12c H00W46136   3.954   8.487   7.897  4.0260  6.9349  9.0309
  2494G12c C02746137   3.809   8.238   7.977  0.5679  0.3589 -0.2526
  2494G12c O00D46138   3.740   8.327   7.902  0.2360  0.9139  0.6918
  2494G12c H00Z46139   3.654   8.363   7.917  2.2976  9.7884 -4.9166
  2494G12c C02846140   3.744   8.175   8.091 -0.9931  1.9313 -0.6311
  2494G12c C02946141   3.791   8.200   8.228  0.3848 -1.1844  0.2506
  2494G12c H01046142   3.874   8.269   8.223  0.5526 -1.0075  3.9237
  2494G12c C02T46143   3.744   8.136   8.338 -0.0102 -0.0975 -0.4687
  2494G12c H01O46144   3.735   8.158   8.444  8.2135  0.0105  0.5669
  2494G12c C02S46145   3.691   8.010   8.306 -0.2239 -0.5040 -1.5502
  2494G12c O00J46146   3.680   7.913   8.406  1.1216  0.0938  0.0855
  2494G12c H01P46147   3.651   7.861   8.333 -1.2066  2.0011 -0.3946
  2494G12c C02R46148   3.647   7.975   8.185  0.3613  3.0073  1.2289
  2494G12c O00I46149   3.617   7.851   8.189 -0.2444 -1.1290 -1.2556
  2494G12c C02Q46150   3.485   7.792   8.141 -0.5353 -0.2709 -0.0482
  2494G12c H01N46151   3.422   7.765   8.226 -1.4107 -0.5157 -0.7734
  2494G12c H01R46152   3.410   7.829   8.072 -2.2636  7.3244  5.2102
  2494G12c H01Q46153   3.522   7.711   8.078  0.2078  3.0967 -4.1446
  2494G12c C02A46154   3.668   8.055   8.065 -0.0741  2.1575 -0.5674
  2494G12c H01146155   3.677   8.030   7.960  1.5166  2.2677 -0.4759
  2494G12c C00C46156   3.998   7.909   8.099 -0.5319 -0.0657  0.0329
  2494G12c H01246157   4.020   7.944   8.199 -3.9422 -1.3585  1.3009
  2494G12c C00B46158   3.943   7.782   8.120 -0.5055  0.1048 -0.5081
  2494G12c C00A46159   3.906   7.714   8.247 -0.1812  2.1076  1.0894
  2494G12c C00946160   3.941   7.736   8.382  0.5801 -0.6548 -0.2357
  2494G12c C00846161   4.004   7.838   8.459  0.7277 -0.4831 -1.5399
  2494G12c H01346162   4.019   7.934   8.412  8.0184 -1.0979 -0.9181
  2494G12c C00746163   4.099   7.798   8.578  0.1954  0.1980 -0.3344
  2494G12c H01446164   4.167   7.871   8.618 -2.6381  4.3932 -2.7532
  2494G12c C00646165   4.096   7.648   8.610 -0.4023 -1.6299  0.4341
  2494G12c C00546166   3.997   7.572   8.546  0.1960  1.5720 -0.0008
  2494G12c C00446167   3.981   7.447   8.584  0.8480 -0.0416 -0.2663
  2494G12c C00346168   3.907   7.351   8.495  1.6311 -2.0595  0.5297
  2494G12c C00246169   3.903   7.215   8.530 -0.5046  0.9443  0.6917
  2494G12c C00146170   3.872   7.089   8.453  1.3352  0.9348 -2.0954
  2494G12c C00M46171   3.914   7.090   8.316  2.4384 -0.1402 -0.0244
  2494G12c C00L46172   3.837   7.159   8.211  0.6686  0.4412 -0.1310
  2494G12c C00R46173   3.877   7.169   8.066 -0.9891  0.4409 -1.0317
  2494G12c C00Q46174   3.973   7.095   7.982 -0.0319 -1.3172  1.3772
  2494G12c C00V46175   3.969   7.127   7.848 -0.1178  1.0029 -0.9605
  2494G12c C00U46176   3.935   7.263   7.813 -0.4648 -1.6855  0.4640
  2494G12c C00T46177   3.882   7.354   7.909 -1.1637  2.0764  0.1681
  2494G12c C01646178   3.905   7.488   7.903 -0.5719 -1.2115  0.5844
  2494G12c C01546179   3.943   7.540   7.774 -0.3260 -1.0635  0.3464
  2494G12c C01046180   3.973   7.463   7.667 -1.0949  0.2258  0.0155
  2494G12c C01146181   3.986   7.513   7.539  0.9760 -2.6505 -0.9271
  2494G12c H00546182   4.025   7.472   7.446  6.0936  1.9162 -1.0841
  2494G12c C01246183   3.956   7.644   7.516  0.4093  1.9010 -0.7949
  2494G12c C01746184   3.962   7.688   7.384 -0.0286 -2.8798 -0.9307
  2494G12c O00246185   4.095   7.689   7.330  0.7624 -0.5070  0.8877
  2494G12c H00446186   4.110   7.598   7.312  2.0377  0.2525 -2.0943
  2494G12c C01846187   3.852   7.745   7.331 -0.7647 -1.0441 -0.1650
  2494G12c O00146188   3.735   7.757   7.415 -1.2070  2.0155 -1.3148
  2494G12c H00346189   3.767   7.734   7.501  4.2227 -2.8217 -4.3256
  2494G12c C01946190   3.836   7.796   7.192  0.1531 -1.8483 -0.2862
  2494G12c H00246191   3.791   7.895   7.207  3.2105 -0.8402  2.8584
  2494G12c H00146192   3.921   7.820   7.128 -1.7883  1.3640 -1.8575
  2494G12c O00046193   3.713   7.742   7.143  0.3044  1.7390  0.0230
  2494G12c C01A46194   3.719   7.643   7.034 -1.6351 -0.9187 -0.5078
  2494G12c C02K46195   3.837   7.559   7.014  1.9842 -0.1744  0.3577
  2494G12c O00G46196   3.966   7.572   7.049 -0.4571 -1.3669  0.1593
  2494G12c C02M46197   4.045   7.619   6.945  0.6130 -1.0538  0.5693
  2494G12c H01G46198   3.983   7.678   6.878 -1.3826 -2.5052  1.0761
  2494G12c H01F46199   4.115   7.546   6.906  1.3206 -0.1211  0.0740
  2494G12c H01E46200   4.107   7.691   6.998  1.1245  0.0724 -1.5037
  2494G12c C02J46201   3.806   7.426   6.971  0.5608 -1.8494  0.9509
  2494G12c H01H46202   3.889   7.375   6.925 -2.7363  1.4276-10.4278
  2494G12c C02I46203   3.674   7.378   6.925  0.9317 -0.5481  0.8684
  2494G12c C02N46204   3.665   7.250   6.850  1.4554 -0.8489  0.5637
  2494G12c H01M46205   3.761   7.226   6.805  3.4145  0.2242  3.9676
  2494G12c C02O46206   3.568   7.166   6.837 -1.0935  0.8143  1.6072
  2494G12c H01L46207   3.467   7.185   6.871 -3.8050  3.1138 -6.6007
  2494G12c C02P46208   3.581   7.026   6.780 -0.1472  0.1518 -0.7860
  2494G12c H01K46209   3.544   7.023   6.677  4.8181  5.6765 -2.9907
  2494G12c H01J46210   3.686   6.997   6.782  0.9057  3.6870  2.0348
  2494G12c O00H46211   3.509   6.937   6.854 -0.7022  1.5083  0.0434
  2494G12c H01I46212   3.503   6.858   6.803 -3.9773  0.4778  1.8487
  2494G12c C02H46213   3.555   7.454   6.971  1.2098  0.4462  1.7770
  2494G12c H01C46214   3.460   7.415   6.936  1.5091  5.2370 -5.3959
  2494G12c C02L46215   3.590   7.591   7.012 -0.7615 -0.7875 -0.3291
  2494G12c H01D46216   3.513   7.667   7.015 -2.0446 -2.0399 -1.0516
  2494G12c C01346217   3.926   7.729   7.626  0.3321  0.8096 -1.3463
  2494G12c H00046218   3.917   7.832   7.595  4.1687 -0.5547 -7.9473
  2494G12c C01446219   3.935   7.680   7.762 -0.9367 -1.0864  0.8791
  2494G12c C00F46220   3.933   7.765   7.866 -0.6066  0.9193 -0.0489
  2494G12c C00H46221   3.876   7.571   8.003  0.7176  0.2682 -0.9196
  2494G12c C00I46222   3.828   7.520   8.126 -0.1890 -0.8686  0.9062
  2494G12c C00J46223   3.799   7.379   8.132  0.8832 -1.1283  0.7701
  2494G12c C00Z46224   3.975   7.323   7.692  1.6671 -0.6215 -0.4249
  2494G12c C00Y46225   3.995   7.224   7.594  0.0883 -0.5165 -0.2102
  2494G12c H00646226   3.994   7.268   7.495 -0.2981 -0.0619 -0.0020
  2494G12c C00X46227   4.033   7.090   7.619 -0.6926 -0.7891 -0.9328
  2494G12c O00346228   4.064   7.007   7.520 -0.8709 -1.5576  0.4662
  2494G12c C01B46229   4.178   7.052   7.442 -0.9082  0.4903  0.2097
  2494G12c H00946230   4.259   7.111   7.485  0.2085  1.1556 -2.6584
  2494G12c H00846231   4.160   7.082   7.339 -1.4800 -2.7391 -0.6742
  2494G12c H00746232   4.221   6.955   7.418 -0.8321  1.4258 -3.7535
  2494G12c C00W46233   4.036   7.052   7.754 -0.1351  1.1075 -0.1115
  2494G12c O00446234   4.113   6.944   7.805 -0.4394 -0.9231  0.1706
  2494G12c C01C46235   4.109   6.909   7.931  0.6362 -2.5270 -0.3771
  2494G12c H00A46236   4.163   6.815   7.931  0.2222 -3.3602  9.4291
  2494G12c C00P46237   4.052   6.987   8.032  1.1258  1.9679  0.6671
  2494G12c C00O46238   4.063   6.941   8.167  0.2810  1.4220  0.1226
  2494G12c C01D46239   4.151   6.824   8.183 -0.8503  0.1056  0.1647
  2494G12c H00S46240   4.208   6.771   8.109  1.2107 -4.0078  4.4735
  2494G12c C01E46241   4.182   6.779   8.331 -1.7168 -0.5242  0.2121
  2494G12c O00846242   4.261   6.690   8.349 -0.0351  0.3295 -0.5781
  2494G12c C01V46243   4.381   6.668   8.275 -0.1324  2.7352 -0.0537
  2494G12c C01Z46244   4.346   6.564   8.168  0.9421 -0.0937 -0.8337
  2494G12c H00R46245   4.348   6.456   8.178 -3.8090 -0.0670  2.3101
  2494G12c H00Q46246   4.253   6.578   8.113 -0.4268  8.3695  2.7069
  2494G12c O00946247   4.427   6.606   8.049 -0.8212  0.1409 -0.4163
  2494G12c H00P46248   4.519   6.621   8.065 -0.4032 -3.4317  1.1137
  2494G12c C01W46249   4.513   6.690   8.297  0.1101  0.6317  1.7260
  2494G12c H00O46250   4.583   6.633   8.238 -0.6660  3.2549 -1.9475
  2494G12c C01X46251   4.549   6.789   8.424 -0.3777  2.5578 -0.0506
  2494G12c H00N46252   4.631   6.859   8.408 -2.0290  4.5109 -0.2617
  2494G12c H00M46253   4.463   6.856   8.412 -2.5754  0.5402  3.6972
  2494G12c C01Y46254   4.564   6.702   8.534  0.9473 -0.2991 -1.1772
  2494G12c C02D46255   4.633   6.572   8.529 -0.7988 -2.2671 -1.2127
  2494G12c H01946256   4.678   6.531   8.440  0.7057  6.8712 -5.1743
  2494G12c C02C46257   4.653   6.502   8.643  0.3583  0.3850  0.2295
  2494G12c H01A46258   4.721   6.421   8.621  4.6686  3.8331  0.0309
  2494G12c C02B46259   4.585   6.549   8.774 -1.0907  0.5536  0.5643
  2494G12c O00E46260   4.600   6.500   8.897  2.0520  0.2230 -0.0449
  2494G12c H01B46261   4.546   6.552   8.954  2.6546  4.3316 -2.9743
  2494G12c C02F46262   4.539   6.691   8.778 -2.5234 -1.9106  0.3127
  2494G12c O00F46263   4.509   6.769   8.901  1.6656 -0.1039 -0.4645
  2494G12c C02G46264   4.379   6.736   8.981 -2.0023  0.7017 -0.8800
  2494G12c H01746265   4.368   6.819   9.051  7.2681  1.0312  0.7784
  2494G12c H01646266   4.377   6.665   9.064  0.9837  1.6523  0.0328
  2494G12c H01546267   4.298   6.710   8.912 -2.9575  2.8118 -0.5972
  2494G12c C02E46268   4.523   6.757   8.656 -0.2140 -1.4675 -1.9943
  2494G12c H01846269   4.469   6.850   8.666  0.3884 -1.2880 -0.2303
  2494G12c C01F46270   4.132   6.848   8.448 -0.0208 -0.3476  0.5714
  2494G12c C01G46271   4.195   6.870   8.578 -0.4436  1.0472  0.4522
  2494G12c H00L46272   4.290   6.819   8.580 -3.4406 -5.0795  0.1633
  2494G12c C01H46273   4.146   6.987   8.658 -1.5369  1.1800 -1.2980
  2494G12c H00B46274   4.225   7.007   8.730 -4.7530 -0.8222  2.9946
  2494G12c C01I46275   4.026   7.050   8.631 -0.3672  0.2788 -0.8483
  2494G12c C01U46276   4.018   6.919   8.420 -1.2305  0.4210  0.3840
  2494G12c C00S46277   3.830   7.296   8.014  0.6706  0.3685  0.4001
  2494G12c C00K46278   3.829   7.297   8.252 -0.2439 -0.5759 -0.1751
  2494G12c C00N46279   3.996   6.972   8.286 -0.1168 -0.4367 -0.3456
  2494G12c C00046280   3.945   6.993   8.526 -0.3121 -1.5274  0.9010
  2494G12c C01J46281   3.987   7.185   8.642  0.5050 -0.4551 -0.9594
  2494G12c C01K46282   4.048   7.263   8.739 -1.5995 -0.6537  0.5730
  2494G12c C01P46283   4.093   7.232   8.879  0.0124 -0.0750 -1.4927
  2494G12c C01Q46284   4.089   7.110   8.943  0.2368  1.5960  0.6205
  2494G12c H00G46285   4.158   7.028   8.937 -1.1914  0.1439  3.0372
  2494G12c C01R46286   3.978   7.075   9.017  0.1971  0.3960 -1.3552
  2494G12c H00F46287   3.969   6.968   9.031  2.1403 -0.5269 -6.2166
  2494G12c C01S46288   3.872   7.175   9.046  0.7785  0.1117 -0.5989
  2494G12c H00E46289   3.903   7.279   9.044 -3.2779  1.4718  1.4281
  2494G12c H00D46290   3.879   7.176   9.155 -3.7803 -0.2787 -0.1934
  2494G12c O00546291   3.737   7.147   9.006  0.1810 -0.1003  0.2786
  2494G12c H00C46292   3.729   7.084   8.935 -4.6210 -1.1143  1.5844
  2494G12c C01O46293   4.138   7.349   8.944  0.0247  1.5492  0.9291
  2494G12c H00H46294   4.173   7.319   9.042  4.3585 -2.6787 -1.7052
  2494G12c C01N46295   4.204   7.442   8.863  0.2463  0.4060 -1.7258
  2494G12c O00646296   4.309   7.507   8.937  0.6963 -0.1505  0.2816
  2494G12c C01T46297   4.285   7.647   8.958 -1.9960  1.4518 -1.5076
  2494G12c H00K46298   4.349   7.655   9.046 -1.2607 -2.9594 -1.5501
  2494G12c H00J46299   4.188   7.693   8.978 -4.4863 -3.2573 -2.1650
  2494G12c H00I46300   4.330   7.708   8.880  2.6540 -3.3575 -2.8049
  2494G12c C01M46301   4.145   7.482   8.743 -0.5741  0.1830  0.9940
  2494G12c C02046302   3.850   7.390   8.369  0.1734  1.7616  0.2176
  2494G12c C02146303   3.841   7.539   8.363 -1.1872  0.7873  0.7901
  2494G12c C01L46304   4.050   7.389   8.691  0.9495 -1.2200 -1.3214
  2494G12c O00746305   4.201   7.589   8.675 -0.5195 -1.5289 -0.2190
  2494G12c C02246306   3.902   7.613   8.453  0.6526 -1.1068  1.1896
  2494G12c C02346307   3.821   7.603   8.243 -1.3117 -0.2165 -0.7892
  2494G12c C00G46308   3.921   7.706   7.992 -0.1898  0.1124 -0.5223
  2494G12c C00E46309   3.971   7.899   7.863  0.4686 -1.2104 -0.7954
  2494G12c O00A46310   3.996   7.973   7.751  0.4546 -0.0595 -0.8701
  2494G12c C02446311   4.145   7.989   7.741 -0.9643  1.3211 -0.3982
  2494G12c H00V46312   4.206   7.900   7.723 -3.4839  0.2064 -4.1344
  2494G12c H00U46313   4.167   8.056   7.658  0.9531  0.0611 -0.9291
  2494G12c H00T46314   4.200   8.039   7.820  2.4276 -5.7735  2.1024
  2504G12c C00D46315   1.853   4.590   4.318 -1.3783  0.2635 -0.2686
  2504G12c O00B46316   1.943   4.570   4.225  1.2453  0.0860  0.3345
  2504G12c C02546317   1.954   4.454   4.135  0.1185 -1.9158  0.0140
  2504G12c C02646318   2.092   4.412   4.154  0.0940 -0.1717 -0.0102
  2504G12c H00Y46319   2.118   4.337   4.079 -4.9865 -0.6717 -1.5000
  2504G12c H00X46320   2.137   4.367   4.242 -0.5183  4.5756  2.8683
  2504G12c O00C46321   2.192   4.500   4.095  0.7538  1.1668 -0.4892
  2504G12c H00W46322   2.226   4.543   4.172  2.6305 -5.0627  2.4896
  2504G12c C02746323   1.848   4.406   4.058 -0.8616 -0.4240  0.2682
  2504G12c O00D46324   1.718   4.454   4.081  2.1443  1.0890 -0.2872
  2504G12c H00Z46325   1.720   4.548   4.090 -6.0742  1.6696 -0.3690
  2504G12c C02846326   1.875   4.291   3.976 -0.4461 -0.2068 -0.5460
  2504G12c C02946327   1.989   4.248   3.910 -1.9832  2.1682 -1.0832
  2504G12c H01046328   2.054   4.334   3.900  0.0067  1.2122  2.7485
  2504G12c C02T46329   1.989   4.120   3.836  0.0686  2.4286 -1.1824
  2504G12c H01O46330   2.048   4.103   3.748 -4.1137 -1.1895 -3.5360
  2504G12c C02S46331   1.892   4.017   3.866  0.8448  0.6378 -0.3357
  2504G12c O00J46332   1.897   3.896   3.797 -1.2666 -0.0158 -0.7313
  2504G12c H01P46333   1.838   3.822   3.798 -2.0092  0.5662  0.2407
  2504G12c C02R46334   1.800   4.058   3.956  0.0540  0.0909  0.9363
  2504G12c O00I46335   1.704   3.978   3.997 -1.1299 -0.6575 -0.3871
  2504G12c C02Q46336   1.668   3.970   4.134  0.2969 -1.0167  0.4066
  2504G12c H01N46337   1.752   3.999   4.197 -2.9399 -1.5901  5.2958
  2504G12c H01R46338   1.623   3.875   4.164  1.5843 -1.2336  1.7200
  2504G12c H01Q46339   1.593   4.022   4.193  0.4648 -2.9005  2.3734
  2504G12c C02A46340   1.770   4.197   3.990 -0.5937 -0.6556 -1.8028
  2504G12c H01146341   1.706   4.216   4.075 -1.4120 -8.0686 -0.4522
  2504G12c C00C46342   1.819   4.491   4.406 -0.5525  0.7335 -1.4321
  2504G12c H01246343   1.808   4.386   4.385 -8.7298  0.6906  1.0913
  2504G12c C00B46344   1.732   4.526   4.511  1.8038  2.3017  0.6963
  2504G12c C00A46345   1.686   4.438   4.616 -0.9273  0.5088  0.0024
  2504G12c C00946346   1.662   4.288   4.603  0.0515  1.4563  2.6210
  2504G12c C00846347   1.687   4.187   4.506  0.1513  0.4047  0.7636
  2504G12c H01346348   1.759   4.210   4.429  2.2584 -3.9344  1.3056
  2504G12c C00746349   1.652   4.056   4.547  0.0434 -0.0263  0.1074
  2504G12c H01446350   1.699   3.966   4.511  4.7262 -0.8381  7.2086
  2504G12c C00646351   1.574   4.034   4.663 -0.3833 -0.5056 -1.6133
  2504G12c C00546352   1.514   4.144   4.720  1.0013  0.2624  2.3194
  2504G12c C00446353   1.404   4.141   4.794 -0.2194  0.9780  0.8804
  2504G12c C00346354   1.356   4.263   4.861 -2.5125  0.7647  2.4773
  2504G12c C00246355   1.238   4.235   4.943  0.0729 -0.6646 -0.4489
  2504G12c C00146356   1.132   4.330   4.974  0.2921  0.8163 -1.0206
  2504G12c C00M46357   1.109   4.476   4.916  0.6407  0.0171  1.6694
  2504G12c C00L46358   1.209   4.564   4.886  1.0038  0.1593 -0.5599
  2504G12c C00R46359   1.194   4.685   4.807 -0.9968  0.9435 -0.1901
  2504G12c C00Q46360   1.084   4.756   4.772  0.4612 -1.1687 -1.2939
  2504G12c C00V46361   1.112   4.846   4.671 -0.7178 -0.5403 -1.2642
  2504G12c C00U46362   1.230   4.862   4.600  0.0683  0.6037  1.2870
  2504G12c C00T46363   1.347   4.808   4.658  1.9255 -0.5068  1.2035
  2504G12c C01646364   1.468   4.785   4.579 -0.7306 -0.4908  1.3635
  2504G12c C01546365   1.479   4.847   4.451 -0.9446  0.0063  0.2049
  2504G12c C01046366   1.358   4.910   4.407 -2.2123 -0.2222 -0.0442
  2504G12c C01146367   1.357   4.976   4.276 -2.4257 -1.5332  1.1451
  2504G12c H00546368   1.272   5.036   4.248  4.1189  8.3204 -0.2627
  2504G12c C01246369   1.480   4.986   4.196  2.2980  0.1624  0.1838
  2504G12c C01746370   1.497   5.052   4.070  0.0626 -1.7771  1.5593
  2504G12c O00246371   1.390   5.028   3.999 -0.1037  0.0705  0.0270
  2504G12c H00446372   1.418   5.070   3.919 -1.8676  3.2581  0.9873
  2504G12c C01846373   1.599   5.122   4.003  0.3706  0.1683 -1.0617
  2504G12c O00146374   1.717   5.167   4.066 -0.4494  1.0939 -1.5501
  2504G12c H00346375   1.768   5.215   4.003  2.7023 -2.0255 -1.5515
  2504G12c C01946376   1.597   5.201   3.865  1.2863 -1.6123 -0.1251
  2504G12c H00246377   1.540   5.294   3.863  5.4024  1.1338  2.0510
  2504G12c H00146378   1.686   5.254   3.831  1.9811 -3.7916 -1.8091
  2504G12c O00046379   1.539   5.092   3.794 -0.0370  0.1094 -0.3545
  2504G12c C01A46380   1.552   5.080   3.650  0.1693  1.3969 -1.2805
  2504G12c C02K46381   1.651   5.128   3.560 -0.0549 -0.8640 -1.2819
  2504G12c O00G46382   1.752   5.212   3.609 -1.0844  1.7281  0.1120
  2504G12c C02M46383   1.867   5.125   3.631  1.0455 -0.3617 -0.0253
  2504G12c H01G46384   1.902   5.117   3.734 -0.2395  5.6396  1.0607
  2504G12c H01F46385   1.971   5.157   3.626  0.9501 -0.1505 -0.7628
  2504G12c H01E46386   1.852   5.021   3.599 -2.6821 -1.1042  3.7025
  2504G12c C02J46387   1.650   5.100   3.421 -0.5189  0.0697  0.2378
  2504G12c H01H46388   1.716   5.164   3.365  4.1126 -1.7381  3.3454
  2504G12c C02I46389   1.558   5.022   3.371 -1.4992  0.3594 -0.7137
  2504G12c C02N46390   1.536   5.007   3.235 -0.4901  0.1112  0.0094
  2504G12c H01M46391   1.530   5.097   3.175 -3.8199  1.1059  1.7468
  2504G12c C02O46392   1.579   4.894   3.174 -1.0459  1.6590  0.5618
  2504G12c H01L46393   1.591   4.873   3.068  7.9501  2.3710  1.0053
  2504G12c C02P46394   1.690   4.812   3.236  1.5270  1.4778  0.6718
  2504G12c H01K46395   1.652   4.740   3.308  2.1073 -1.0844 -1.5178
  2504G12c H01J46396   1.685   4.742   3.153 -7.6638  2.7113 -0.3447
  2504G12c O00H46397   1.831   4.851   3.252  0.0536 -0.9387 -0.5219
  2504G12c H01I46398   1.849   4.793   3.324 -2.9747 -2.3214 -0.7856
  2504G12c C02H46399   1.456   4.975   3.457 -0.5431  1.6398 -0.2725
  2504G12c H01C46400   1.379   4.921   3.404  0.6942  1.5321 -2.0456
  2504G12c C02L46401   1.455   5.000   3.595 -1.0961 -0.2691 -0.2220
  2504G12c H01D46402   1.370   4.951   3.639 -1.1541  1.2704  1.4652
  2504G12c C01346403   1.574   4.881   4.230 -0.2062  0.8348  1.2940
  2504G12c H00046404   1.626   4.868   4.136 -1.4900 -4.5621  1.1718
  2504G12c C01446405   1.583   4.827   4.360  0.8720 -0.3790 -0.5958
  2504G12c C00F46406   1.670   4.720   4.390  0.0357  0.2734  0.1309
  2504G12c C00H46407   1.559   4.683   4.603 -0.3390 -0.9615 -1.0906
  2504G12c C00I46408   1.537   4.603   4.713  2.6353 -2.3031 -1.2694
  2504G12c C00J46409   1.418   4.628   4.794  0.3542  0.6073 -1.2413
  2504G12c C00Z46410   1.238   4.917   4.469  1.8153  0.9340 -1.9495
  2504G12c C00Y46411   1.113   4.966   4.418 -0.5222  1.4073 -0.3199
  2504G12c H00646412   1.085   5.019   4.328 -0.7603  0.0070 -1.0842
  2504G12c C00X46413   0.992   4.935   4.475  0.1710 -0.8115 -2.2071
  2504G12c O00346414   0.875   4.983   4.427 -0.0723 -0.4087 -0.4764
  2504G12c C01B46415   0.802   4.904   4.324 -1.6962 -0.3934 -0.6233
  2504G12c H00946416   0.712   4.958   4.295 -0.5995  1.5700 -0.4272
  2504G12c H00846417   0.778   4.837   4.407  2.6939 -1.8842 -0.4342
  2504G12c H00746418   0.849   4.847   4.244 -0.9039  2.5818 -2.3223
  2504G12c C00W46419   0.991   4.892   4.605 -2.1246 -1.2496 -0.8404
  2504G12c O00446420   0.872   4.894   4.668 -0.7444  0.9388  0.0134
  2504G12c C01C46421   0.840   4.832   4.780  1.1202  0.8378 -0.0848
  2504G12c H00A46422   0.774   4.889   4.844 -0.0099 -1.2209  0.5981
  2504G12c C00P46423   0.942   4.737   4.803 -0.1885  0.4926  0.4397
  2504G12c C00O46424   0.908   4.599   4.825  0.4905 -0.2287 -0.6656
  2504G12c C01D46425   0.771   4.541   4.791 -0.6418  2.1532 -0.4049
  2504G12c H00S46426   0.689   4.599   4.751 -0.2164 -0.7675 -5.8585
  2504G12c C01E46427   0.740   4.410   4.768  0.1673  0.4834 -2.2032
  2504G12c O00846428   0.625   4.392   4.697  0.9616  0.2152 -1.2258
  2504G12c C01V46429   0.511   4.329   4.771  1.0497 -0.1073 -1.1242
  2504G12c C01Z46430   0.449   4.225   4.670 -0.7448  3.0978  0.5527
  2504G12c H00R46431   0.494   4.194   4.575 -3.0697  4.5087 -1.0696
  2504G12c H00Q46432   0.436   4.143   4.740  2.7435 -3.2119 -5.5268
  2504G12c O00946433   0.329   4.264   4.601 -0.2195  0.3798  0.6674
  2504G12c H00P46434   0.317   4.320   4.676  5.6458 -0.8152  2.7831
  2504G12c C01W46435   0.441   4.374   4.873  1.8762 -1.8505 -1.2255
  2504G12c H00O46436   0.466   4.474   4.907 -3.1944 -0.9343  0.3829
  2504G12c C01X46437   0.319   4.316   4.927 -0.4102 -1.0987 -0.8683
  2504G12c H00N46438   0.316   4.214   4.890  1.5077  0.4956 -5.8369
  2504G12c H00M46439   0.299   4.324   5.034 -0.5311 -2.5256 -0.7766
  2504G12c C01Y46440   0.169   4.355   4.865 -0.1853  1.2458 -0.3106
  2504G12c C02D46441   0.138   4.490   4.846  0.3604 -0.1678  0.2903
  2504G12c H01946442   0.174   4.579   4.896  0.6491  0.2578 -0.6524
  2504G12c C02C46443   0.017   4.513   4.770 -0.1539  1.8845  1.2005
  2504G12c H01A46444  -0.005   4.617   4.747 -1.6657  0.6217 -3.5667
  2504G12c C02B46445  -0.080   4.416   4.727  1.0853  1.1054 -0.2997
  2504G12c O00E46446  -0.184   4.448   4.656  0.3323 -1.7126 -0.9047
  2504G12c H01B46447  -0.245   4.377   4.645  0.5105 -2.0964  0.5309
  2504G12c C02F46448  -0.043   4.281   4.744 -2.1141  0.7846 -0.7415
  2504G12c O00F46449  -0.127   4.168   4.713 -1.4283 -1.2197  0.9526
  2504G12c C02G46450  -0.079   4.057   4.662 -0.5192  0.0163 -0.8857
  2504G12c H01746451   0.023   4.084   4.634  1.3447 -3.3730  2.2495
  2504G12c H01646452  -0.070   3.962   4.714 -0.7987 -1.7403 -3.8978
  2504G12c H01546453  -0.116   4.065   4.559  7.5896  0.8720 -4.1090
  2504G12c C02E46454   0.081   4.252   4.815 -1.1433 -0.2788  0.5812
  2504G12c H01846455   0.136   4.162   4.838 -6.4945 -3.2493  2.7290
  2504G12c C01F46456   0.823   4.304   4.818 -1.1060  0.2127 -1.0787
  2504G12c C01G46457   0.820   4.149   4.788 -0.0559 -0.7852  0.2609
  2504G12c H00L46458   0.725   4.114   4.752  0.4366  2.0629 -4.1965
  2504G12c C01H46459   0.928   4.065   4.852 -1.7594 -1.4304  1.3995
  2504G12c H00B46460   0.956   3.964   4.828  1.3471  0.3037 -2.8975
  2504G12c C01I46461   1.032   4.132   4.932  0.1047  1.0268  0.3672
  2504G12c C01U46462   0.924   4.340   4.902 -0.8467 -0.1205 -0.3607
  2504G12c C00S46463   1.325   4.739   4.773 -0.5927 -0.8557  0.4678
  2504G12c C00K46464   1.344   4.522   4.871 -1.1367  1.0108  1.7787
  2504G12c C00N46465   0.979   4.483   4.873 -1.1898 -0.2212  1.4842
  2504G12c C00046466   1.011   4.256   4.979  1.9045 -0.6241 -0.5375
  2504G12c C01J46467   1.173   4.106   4.930  0.7467 -0.8943 -0.7795
  2504G12c C01K46468   1.242   3.981   4.897  0.3987  0.6626  0.7451
  2504G12c C01P46469   1.210   3.853   4.954  0.3418  0.1636  1.3306
  2504G12c C01Q46470   1.096   3.816   5.045 -0.0615  0.9250  0.4145
  2504G12c H00G46471   1.034   3.758   4.979  0.7707 -1.1170  1.3796
  2504G12c C01R46472   1.044   3.866   5.162  0.3362 -0.4883  1.1458
  2504G12c H00F46473   0.946   3.844   5.201  2.0298 -4.9813  3.1831
  2504G12c C01S46474   1.124   3.953   5.254 -0.9624 -1.0701 -0.9579
  2504G12c H00E46475   1.202   4.003   5.196 -1.6583 -3.6521 -4.3013
  2504G12c H00D46476   1.080   4.041   5.301  1.9238 -0.5126  0.8201
  2504G12c O00546477   1.172   3.864   5.356 -0.9051 -1.4659 -1.1332
  2504G12c H00C46478   1.116   3.846   5.429 -1.8208  3.2293 -0.5163
  2504G12c C01O46479   1.272   3.742   4.894  0.1714 -0.4889  0.2664
  2504G12c H00H46480   1.228   3.646   4.919 -1.8663  0.4839  0.5451
  2504G12c C01N46481   1.379   3.774   4.804  0.2455  1.6447  2.7534
  2504G12c O00646482   1.450   3.656   4.794 -0.8500  1.0198 -0.6712
  2504G12c C01T46483   1.579   3.677   4.841 -0.9411  0.9915  1.6521
  2504G12c H00K46484   1.593   3.731   4.935  5.5935 -2.3531  2.8576
  2504G12c H00J46485   1.608   3.580   4.880  2.0716 -0.4814 -3.7967
  2504G12c H00I46486   1.630   3.706   4.749 -2.8655 -0.5870  0.0384
  2504G12c C01M46487   1.422   3.902   4.782 -0.3946 -0.3182  0.3716
  2504G12c C02046488   1.418   4.392   4.853  0.8813  1.2300 -0.1076
  2504G12c C02146489   1.559   4.371   4.801 -0.0933 -1.3929 -0.8940
  2504G12c C01L46490   1.359   4.016   4.826 -0.6899 -0.8322 -0.2859
  2504G12c O00746491   1.514   3.916   4.685  0.3275 -0.4900  0.0145
  2504G12c C02246492   1.564   4.275   4.703 -1.2192 -2.2507  1.3587
  2504G12c C02346493   1.602   4.488   4.729 -0.1348 -0.3589 -0.9108
  2504G12c C00G46494   1.662   4.641   4.506  0.4081 -0.7971  1.0395
  2504G12c C00E46495   1.797   4.710   4.316  0.0501  2.3888  0.6091
  2504G12c O00A46496   1.841   4.796   4.224 -1.4211  1.9283  0.4645
  2504G12c C02446497   1.915   4.904   4.265  0.3253 -0.7421  1.2018
  2504G12c H00V46498   1.972   4.955   4.187  1.1102 -1.1698  1.4957
  2504G12c H00U46499   1.844   4.984   4.243  1.7574  2.0292  5.6997
  2504G12c H00T46500   1.926   4.889   4.372  1.5004 -0.6561  1.0985
  2514G12c C00D46501   2.346   0.261  12.095  0.0021 -1.3517 -0.0168
  2514G12c O00B46502   2.238   0.195  12.045 -0.0315 -1.1127  1.3362
  2514G12c C02546503   2.128   0.272  12.018 -0.7336  1.1671 -0.3185
  2514G12c C02646504   2.057   0.317  12.138  0.9165 -0.1805 -2.4611
  2514G12c H00Y46505   2.075   0.422  12.165  0.1192 -1.8772  6.0791
  2514G12c H00X46506   2.089   0.267  12.230  0.9628 -0.1890 -2.4802
  2514G12c O00C46507   1.932   0.257  12.122  0.2787 -0.1886  0.7042
  2514G12c H00W46508   1.930   0.213  12.038 -2.5223  1.6759 -0.3134
  2514G12c C02746509   2.092   0.300  11.896  0.9888  0.2994 -1.3743
  2514G12c O00D46510   2.164   0.240  11.801 -0.8440 -0.9657  0.6709
  2514G12c H00Z46511   2.229   0.181  11.837 -0.9659 -4.8933 -4.7629
  2514G12c C02846512   1.973   0.375  11.867  0.3440  0.4425 -1.0732
  2514G12c C02946513   1.948   0.504  11.918  1.0638  1.2256  0.7399
  2514G12c H01046514   2.038   0.544  11.960  1.1137  0.5925  1.2502
  2514G12c C02T46515   1.807   0.532  11.910 -0.9213  1.1831 -0.2161
  2514G12c H01O46516   1.766   0.621  11.954  0.9678  2.6670 -1.3698
  2514G12c C02S46517   1.709   0.454  11.868 -1.3318 -0.8814 -2.0871
  2514G12c O00J46518   1.575   0.507  11.863  0.2062 -0.3835  1.0428
  2514G12c H01P46519   1.538   0.531  11.946 -1.4702 -1.4865  0.6209
  2514G12c C02R46520   1.740   0.339  11.815  0.6269 -1.0377  0.2646
  2514G12c O00I46521   1.635   0.260  11.754  0.2180  1.5686  0.5389
  2514G12c C02Q46522   1.546   0.308  11.654  0.2804  0.3425 -1.6029
  2514G12c H01N46523   1.449   0.336  11.695 -0.6609 -2.6240 -1.6350
  2514G12c H01R46524   1.494   0.220  11.614 -1.3777  0.3981  0.3614
  2514G12c H01Q46525   1.589   0.345  11.561  3.3630  0.4743 -0.1823
  2514G12c C02A46526   1.873   0.301  11.791  0.3093  1.7567 -1.5061
  2514G12c H01146527   1.895   0.206  11.743 -2.2209  0.3807 -0.0706
  2514G12c C00C46528   2.410   0.353  12.010  0.5000  1.7566 -0.1927
  2514G12c H01246529   2.401   0.380  11.906  1.1079 -2.6788 -1.4890
  2514G12c C00B46530   2.495   0.436  12.078 -1.1033 -0.0801  0.9517
  2514G12c C00A46531   2.566   0.547  12.020  0.5004 -0.1350 -0.3621
  2514G12c C00946532   2.585   0.572  11.880 -0.3135 -0.4165  0.3240
  2514G12c C00846533   2.595   0.475  11.777  0.3794 -0.8192 -1.2907
  2514G12c H01346534   2.553   0.376  11.787  0.2848 -0.5316  1.8175
  2514G12c C00746535   2.689   0.457  11.670  0.3279 -0.4728  0.9284
  2514G12c H01446536   2.664   0.388  11.591  3.1167  0.8013 -1.1649
  2514G12c C00646537   2.777   0.566  11.670  0.4987 -0.3505 -0.6630
  2514G12c C00546538   2.780   0.663  11.767  0.4643  0.5366 -0.8888
  2514G12c C00446539   2.898   0.727  11.800  1.1609 -1.1821  0.4611
  2514G12c C00346540   2.912   0.793  11.926 -0.7858 -0.2885  0.4329
  2514G12c C00246541   3.039   0.856  11.941  0.6548  1.3265 -1.4842
  2514G12c C00146542   3.122   0.904  12.051  0.4351  0.4170 -0.8176
  2514G12c C00M46543   3.137   0.825  12.166  0.4387  0.2334  0.6918
  2514G12c C00L46544   3.018   0.773  12.238 -0.3471  0.5245 -0.5923
  2514G12c C00R46545   3.027   0.668  12.332  0.8882  0.9929 -0.7686
  2514G12c C00Q46546   3.116   0.607  12.410 -2.6053  0.4550  0.3374
  2514G12c C00V46547   3.081   0.487  12.481  1.3293  0.3384  1.1952
  2514G12c C00U46548   2.960   0.418  12.466  0.0335 -0.7376  1.1997
  2514G12c C00T46549   2.855   0.487  12.399  0.1189  0.0778  0.1953
  2514G12c C01646550   2.733   0.436  12.361 -1.4981 -0.5430  0.6850
  2514G12c C01546551   2.706   0.318  12.432  2.1928  0.1465 -1.6041
  2514G12c C01046552   2.810   0.243  12.499 -2.3188 -1.1835 -0.6499
  2514G12c C01146553   2.763   0.111  12.565  1.2060 -0.9612 -0.8453
  2514G12c H00546554   2.823   0.058  12.637  0.4209  0.1039  0.6106
  2514G12c C01246555   2.645   0.060  12.538 -0.2438 -0.2767  0.2876
  2514G12c C01746556   2.597  -0.066  12.608 -1.6776 -0.1217 -0.3006
  2514G12c O00246557   2.639  -0.094  12.733  0.4539 -0.1783  0.4761
  2514G12c H00446558   2.555  -0.121  12.768 -0.9441 -1.8267 -3.7729
  2514G12c C01846559   2.544  -0.177  12.551  0.3238  0.0037  0.7828
  2514G12c O00146560   2.520  -0.211  12.412  0.1623  0.2590 -0.3550
  2514G12c H00346561   2.546  -0.137  12.358  0.2425  2.0953  2.1315
  2514G12c C01946562   2.492  -0.287  12.617  1.1427  0.8057  0.2230
  2514G12c H00246563   2.405  -0.337  12.577  0.6174 -0.8895  3.3076
  2514G12c H00146564   2.562  -0.369  12.600 -0.7435 -2.4012  6.3823
  2514G12c O00046565   2.503  -0.313  12.769 -0.2533  2.3525 -0.0388
  2514G12c C01A46566   2.391  -0.274  12.843 -1.7601  1.2333 -0.1272
  2514G12c C02K46567   2.283  -0.199  12.789  0.4836 -0.0443 -0.1753
  2514G12c O00G46568   2.264  -0.132  12.669 -0.0932 -0.0402  0.9037
  2514G12c C02M46569   2.175  -0.194  12.582  0.6509  0.9531  0.3050
  2514G12c H01G46570   2.150  -0.149  12.487  2.2138 -2.0081 -1.5733
  2514G12c H01F46571   2.083  -0.190  12.641 -0.4579  7.1857 -1.4806
  2514G12c H01E46572   2.197  -0.301  12.584 -1.9952  0.3709  1.1258
  2514G12c C02J46573   2.190  -0.153  12.881  0.9806  0.8211 -1.2208
  2514G12c H01H46574   2.100  -0.118  12.833  0.1804  1.3407  0.6063
  2514G12c C02I46575   2.183  -0.203  13.020  0.7359 -1.4210 -0.6344
  2514G12c C02N46576   2.071  -0.197  13.121  1.0198  0.6311  0.2815
  2514G12c H01M46577   2.110  -0.143  13.206  5.9845 -6.4473  3.0435
  2514G12c C02O46578   1.942  -0.178  13.074 -1.0444  0.2244 -0.9342
  2514G12c H01L46579   1.930  -0.218  12.974  0.1827  2.2947 -1.9671
  2514G12c C02P46580   1.822  -0.128  13.155 -0.8224  1.2834  0.7393
  2514G12c H01K46581   1.848  -0.023  13.158  0.5064  1.5338 -7.4959
  2514G12c H01J46582   1.730  -0.163  13.107 -2.1325  5.1114  0.3215
  2514G12c O00H46583   1.844  -0.179  13.276 -0.6098  0.1375 -0.7328
  2514G12c H01I46584   1.862  -0.272  13.279  5.5099  1.0729 -1.5346
  2514G12c C02H46585   2.284  -0.280  13.064  0.0452 -0.8165 -1.9739
  2514G12c H01C46586   2.261  -0.289  13.169  6.0739  4.8297  0.2094
  2514G12c C02L46587   2.396  -0.315  12.975 -1.2736  0.1712 -1.0281
  2514G12c H01D46588   2.475  -0.376  13.016 -0.2120  1.3527 -1.3279
  2514G12c C01346589   2.577   0.118  12.449  0.5312  0.5607  1.6167
  2514G12c H00046590   2.490   0.060  12.419 -0.4775  3.7813 -2.1238
  2514G12c C01446591   2.592   0.250  12.392  0.6276 -0.3445 -0.7825
  2514G12c C00F46592   2.532   0.288  12.264  1.1356  0.4862 -0.4276
  2514G12c C00H46593   2.645   0.499  12.268 -2.5835 -0.8842 -0.2880
  2514G12c C00I46594   2.687   0.625  12.211 -0.0106 -0.0874 -0.0925
  2514G12c C00J46595   2.809   0.664  12.248 -0.0966 -1.3080  0.0982
  2514G12c C00Z46596   2.936   0.300  12.523  0.6371  0.3005  0.7102
  2514G12c C00Y46597   3.024   0.246  12.615  2.4450 -0.9341  0.3608
  2514G12c H00646598   3.001   0.153  12.665 -2.2410 -5.4429 -8.9004
  2514G12c C00X46599   3.151   0.300  12.627 -0.0432 -0.1435  0.3234
  2514G12c O00346600   3.260   0.225  12.667  1.1370  1.4902  0.5709
  2514G12c C01B46601   3.312   0.129  12.585 -0.1320  0.1901  0.1082
  2514G12c H00946602   3.315   0.037  12.643  3.4002  3.1790  5.0605
  2514G12c H00846603   3.400   0.188  12.558 -1.1549  1.1126 -1.3486
  2514G12c H00746604   3.250   0.118  12.495  2.0303 -6.3709 -0.7864
  2514G12c C00W46605   3.181   0.413  12.552  0.3673  0.8154  0.1857
  2514G12c O00446606   3.311   0.476  12.586  0.1203 -0.8506  0.4930
  2514G12c C01C46607   3.344   0.596  12.511 -0.1657 -0.3004  0.1513
  2514G12c H00A46608   3.384   0.670  12.578 -4.1544 -0.1387  2.5039
  2514G12c C00P46609   3.258   0.634  12.398 -1.5574  1.6979  0.1907
  2514G12c C00O46610   3.308   0.699  12.277 -0.2049 -1.0249 -0.9195
  2514G12c C01D46611   3.443   0.659  12.265  0.8670  0.3953  0.9868
  2514G12c H00S46612   3.494   0.605  12.344 -1.7892  0.3062  2.7014
  2514G12c C01E46613   3.514   0.693  12.147  1.5539  0.3140 -1.4347
  2514G12c O00846614   3.628   0.642  12.119  0.1838  0.6618  0.3324
  2514G12c C01V46615   3.653   0.514  12.166  1.6685 -1.1820  0.2095
  2514G12c C01Z46616   3.594   0.384  12.107  0.3594  1.0659  1.6625
  2514G12c H00R46617   3.664   0.360  12.027  1.9707  3.6736  2.2554
  2514G12c H00Q46618   3.580   0.305  12.181  1.3190 -2.4248 -1.6825
  2514G12c O00946619   3.465   0.425  12.046 -1.3379  0.7074  0.6996
  2514G12c H00P46620   3.446   0.385  11.962 -3.4594  2.5535  0.2577
  2514G12c C01W46621   3.742   0.492  12.252 -0.2050  0.2628 -0.6598
  2514G12c H00O46622   3.717   0.399  12.301  0.0388 -0.0015 -1.0303
  2514G12c C01X46623   3.841   0.583  12.319 -0.3509 -0.4427  0.6723
  2514G12c H00N46624   3.930   0.525  12.342 -0.4260 -2.1953 -3.0597
  2514G12c H00M46625   3.874   0.653  12.243  1.9995 -1.4716  0.7144
  2514G12c C01Y46626   3.806   0.625  12.450  1.0830 -1.4031 -0.7968
  2514G12c C02D46627   3.879   0.578  12.566  0.8634 -0.0192 -1.9033
  2514G12c H01946628   3.969   0.520  12.554  3.0214  1.8084  3.6654
  2514G12c C02C46629   3.847   0.620  12.697 -0.5879  0.7986  0.8075
  2514G12c H01A46630   3.901   0.589  12.785  0.4788  3.7242  1.2280
  2514G12c C02B46631   3.742   0.711  12.709 -0.9474 -0.0556 -0.3951
  2514G12c O00E46632   3.694   0.777  12.814 -0.5462  0.2267  0.8473
  2514G12c H01B46633   3.623   0.833  12.785  2.0511  3.4840  0.4486
  2514G12c C02F46634   3.688   0.779  12.601 -0.5682  0.0058  0.5705
  2514G12c O00F46635   3.573   0.844  12.591  0.1585  0.1398  0.0305
  2514G12c C02G46636   3.588   0.987  12.590 -0.2145  0.6853  2.5586
  2514G12c H01746637   3.662   1.038  12.651 -3.9144  1.2726  6.8911
  2514G12c H01646638   3.606   1.022  12.488  0.6580  0.1102  2.5124
  2514G12c H01546639   3.500   1.009  12.651 -3.4338 -5.3161  0.4493
  2514G12c C02E46640   3.719   0.730  12.478 -1.0682  0.2754  2.4576
  2514G12c H01846641   3.665   0.762  12.390 -1.9270 -2.1685  2.0660
  2514G12c C01F46642   3.447   0.763  12.046 -1.6467 -0.6647  0.3604
  2514G12c C01G46643   3.477   0.754  11.908  1.3643 -0.5803  0.8457
  2514G12c H00L46644   3.562   0.702  11.867 -1.8657 -4.5797 -1.0857
  2514G12c C01H46645   3.378   0.804  11.814  0.7772  0.9543 -0.3475
  2514G12c H00B46646   3.364   0.760  11.717  2.4515  4.2535 -2.1821
  2514G12c C01I46647   3.269   0.877  11.879  0.6870 -0.7023  0.5515
  2514G12c C01U46648   3.343   0.842  12.087 -0.6454 -0.8781  0.3778
  2514G12c C00S46649   2.890   0.606  12.328 -0.1523  0.6175  0.0534
  2514G12c C00K46650   2.898   0.751  12.175 -1.1118 -0.0911  1.5669
  2514G12c C00N46651   3.262   0.793  12.185  0.4048  2.2152 -0.2000
  2514G12c C00046652   3.264   0.920  11.998  1.3980  0.8916  1.6788
  2514G12c C01J46653   3.136   0.866  11.826 -1.4049  0.4272  0.3649
  2514G12c C01K46654   3.109   0.810  11.700 -0.3246  1.0611  1.1960
  2514G12c C01P46655   3.154   0.875  11.570 -0.4563  2.0871  0.5115
  2514G12c C01Q46656   3.212   0.998  11.559 -0.0629 -0.5998 -0.1763
  2514G12c H00G46657   3.289   1.029  11.491  3.3650  3.6288  5.2312
  2514G12c C01R46658   3.155   1.123  11.604 -0.2465 -2.0464 -0.3418
  2514G12c H00F46659   3.062   1.127  11.657 -0.7359  0.3567 -1.3377
  2514G12c C01S46660   3.217   1.252  11.569  1.1914 -0.5990  2.0417
  2514G12c H00E46661   3.194   1.331  11.640  1.1959  0.8133  0.4992
  2514G12c H00D46662   3.321   1.227  11.547  3.2261  4.9884  4.4102
  2514G12c O00546663   3.163   1.296  11.443 -1.9988 -0.0496 -1.0778
  2514G12c H00C46664   3.134   1.215  11.404 -0.5414 -0.8488 -0.5696
  2514G12c C01O46665   3.149   0.775  11.468  0.5285  0.4747  0.7276
  2514G12c H00H46666   3.195   0.768  11.370 -0.2916  0.9541  0.2988
  2514G12c C01N46667   3.086   0.652  11.497  0.7880 -1.4157  2.3100
  2514G12c O00646668   3.064   0.551  11.399  1.0450  0.4935  1.0487
  2514G12c C01T46669   3.080   0.404  11.444  1.0315  0.2999  0.8639
  2514G12c H00K46670   3.179   0.369  11.414  1.3036 -0.3256  2.4410
  2514G12c H00J46671   3.015   0.365  11.366 -1.7983  5.1797  0.5930
  2514G12c H00I46672   3.021   0.391  11.535 -0.0344  0.1148  0.1618
  2514G12c C01M46673   2.968   0.661  11.585  0.8456 -1.2034 -0.0788
  2514G12c C02046674   2.832   0.780  12.047 -0.0298  2.1111  1.1822
  2514G12c C02146675   2.700   0.735  12.003  0.4362 -0.3913 -0.0421
  2514G12c C01L46676   2.997   0.738  11.704  0.2590  0.2256 -0.9165
  2514G12c O00746677   2.870   0.572  11.575 -0.2736  0.2536 -0.7556
  2514G12c C02246678   2.687   0.672  11.878 -0.2517 -1.2209 -0.0512
  2514G12c C02346679   2.622   0.657  12.087 -1.2231 -0.1237 -0.3102
  2514G12c C00G46680   2.547   0.412  12.216 -0.8786  0.6240 -0.5993
  2514G12c C00E46681   2.434   0.210  12.197 -1.4146  0.4437  0.0865
  2514G12c O00A46682   2.408   0.073  12.231  0.4316 -0.1092 -0.3990
  2514G12c C02446683   2.468   0.007  12.118  0.5628  1.7587  0.3270
  2514G12c H00V46684   2.553   0.032  12.053 -0.8002 -9.7025 -7.4295
  2514G12c H00U46685   2.419  -0.033  12.029  3.5944 -2.3013  0.3534
  2514G12c H00T46686   2.489  -0.082  12.177  1.3382 -0.5460 -3.2324
  2524G12c C00D46687   2.497   4.065   6.988  0.2333  1.4604  1.2979
  2524G12c O00B46688   2.382   3.988   7.032  0.4883 -1.0031  0.8895
  2524G12c C02546689   2.392   3.958   7.166 -0.7615  0.5691  0.0771
  2524G12c C02646690   2.444   3.804   7.202  0.3778 -1.0943 -1.1162
  2524G12c H00Y46691   2.396   3.743   7.125 -3.7001 -2.6485  2.5101
  2524G12c H00X46692   2.430   3.766   7.303 -4.5901  0.0269 -1.2663
  2524G12c O00C46693   2.578   3.773   7.164 -0.2475 -0.5136 -1.1002
  2524G12c H00W46694   2.562   3.680   7.175 -2.3105  0.1893  2.4242
  2524G12c C02746695   2.319   4.046   7.255  0.2989  0.5793  0.2211
  2524G12c O00D46696   2.295   4.169   7.192  0.1921 -1.1239 -0.1482
  2524G12c H00Z46697   2.245   4.137   7.118  0.6289  1.5892 -1.7327
  2524G12c C02846698   2.298   4.010   7.399  0.4185 -0.3046  1.2217
  2524G12c C02946699   2.327   4.120   7.482 -0.1172  1.2441  0.2697
  2524G12c H01046700   2.392   4.203   7.456 -2.2704  2.3567 -1.6897
  2524G12c C02T46701   2.308   4.118   7.620 -0.5125  1.2524  1.5947
  2524G12c H01O46702   2.298   4.205   7.683  3.9495  1.9354  1.5262
  2524G12c C02S46703   2.259   3.996   7.667  0.3402  0.6289 -0.6178
  2524G12c O00J46704   2.266   3.979   7.805 -0.6526 -1.7345  1.3405
  2524G12c H01P46705   2.281   3.889   7.827 -4.3445 -3.2608 -1.7798
  2524G12c C02R46706   2.264   3.872   7.599  1.7376  0.6758  0.3758
  2524G12c O00I46707   2.246   3.743   7.668 -1.3258 -1.2299 -0.6906
  2524G12c C02Q46708   2.341   3.635   7.609  0.6318  0.6657  0.8891
  2524G12c H01N46709   2.432   3.631   7.669  0.2352 -2.1080  1.3912
  2524G12c H01R46710   2.321   3.528   7.618  6.6914 -0.4739  2.9085
  2524G12c H01Q46711   2.387   3.665   7.515  3.8511 -3.2918  1.0819
  2524G12c C02A46712   2.273   3.893   7.454 -0.0921  1.2418  1.8961
  2524G12c H01146713   2.244   3.812   7.388 -0.8839  4.6737 -2.1168
  2524G12c C00C46714   2.590   4.105   7.080 -1.0190 -0.0815  0.5598
  2524G12c H01246715   2.590   4.071   7.183 -0.2148 -0.2945  0.4928
  2524G12c C00B46716   2.697   4.171   7.058 -0.0616  0.2309  0.4619
  2524G12c C00A46717   2.797   4.205   7.148 -0.1040 -0.3802 -0.6556
  2524G12c C00946718   2.813   4.209   7.290 -0.6817  1.2054 -1.4806
  2524G12c C00846719   2.732   4.161   7.397 -0.4758 -0.8358 -0.3079
  2524G12c H01346720   2.662   4.081   7.381  2.8834 -4.0785  0.5558
  2524G12c C00746721   2.731   4.236   7.515  2.6255 -0.3926  0.8503
  2524G12c H01446722   2.675   4.216   7.604  1.2395 -0.2374  0.0218
  2524G12c C00646723   2.812   4.334   7.546 -1.3115  0.7041  0.7189
  2524G12c C00546724   2.903   4.365   7.444 -1.0563 -1.1153 -1.6580
  2524G12c C00446725   2.968   4.485   7.455 -1.4044 -0.1963 -0.1981
  2524G12c C00346726   3.028   4.537   7.331 -1.6408 -0.2019 -1.5637
  2524G12c C00246727   3.097   4.667   7.341  0.9892 -1.4696  0.7140
  2524G12c C00146728   3.161   4.754   7.239 -2.2587 -1.2821 -0.9356
  2524G12c C00M46729   3.131   4.779   7.097  0.1639  1.6724 -0.0909
  2524G12c C00L46730   3.078   4.667   7.024  0.6753 -0.0289 -1.8509
  2524G12c C00R46731   3.003   4.687   6.901 -0.8205 -1.1527  0.9879
  2524G12c C00Q46732   2.971   4.802   6.819  0.0951  2.9367  0.4171
  2524G12c C00V46733   2.894   4.763   6.704  1.4551  0.0872 -0.0625
  2524G12c C00U46734   2.830   4.630   6.689  0.7557 -1.4515 -0.1380
  2524G12c C00T46735   2.856   4.522   6.777 -0.6076  0.8808 -0.4641
  2524G12c C01646736   2.784   4.406   6.796 -1.5983  0.0183 -0.2972
  2524G12c C01546737   2.677   4.388   6.706 -0.5448 -0.2205  2.1838
  2524G12c C01046738   2.657   4.476   6.604 -0.3635  0.7391 -1.7860
  2524G12c C01146739   2.565   4.433   6.496 -1.5182 -0.5643 -0.1869
  2524G12c H00546740   2.570   4.512   6.422  2.2278 -1.9522 -1.5490
  2524G12c C01246741   2.524   4.296   6.481 -1.0874  0.2882  0.0722
  2524G12c C01746742   2.446   4.264   6.368  0.0615 -0.1293 -1.7793
  2524G12c O00246743   2.316   4.303   6.371  1.2386 -0.7035  0.3183
  2524G12c H00446744   2.290   4.244   6.302 -1.3765 -3.5216  3.5101
  2524G12c C01846745   2.513   4.201   6.269  0.9471  0.0944 -0.0692
  2524G12c O00146746   2.649   4.200   6.261 -0.8212  0.8073 -1.6120
  2524G12c H00346747   2.663   4.108   6.278 -5.9771  0.5852  2.5040
  2524G12c C01946748   2.457   4.174   6.141  0.0320  0.0915  0.2207
  2524G12c H00246749   2.385   4.252   6.118 -1.0899 -2.2189 -4.7735
  2524G12c H00146750   2.526   4.173   6.057 -1.1450 -0.3294 -0.7361
  2524G12c O00046751   2.381   4.047   6.147 -1.2918  1.3895  0.4233
  2524G12c C01A46752   2.407   3.945   6.048  0.4083 -1.0548  0.6624
  2524G12c C02K46753   2.396   3.812   6.086  1.2467 -0.5504 -0.9012
  2524G12c O00G46754   2.305   3.790   6.191  0.0940  1.2650  0.3954
  2524G12c C02M46755   2.156   3.818   6.196  0.7325 -0.1639 -0.6547
  2524G12c H01G46756   2.127   3.883   6.114 -5.9252 -2.2029 -0.2246
  2524G12c H01F46757   2.138   3.880   6.284  3.6338  3.9344 -2.8258
  2524G12c H01E46758   2.093   3.729   6.193 -3.3092  2.1719  4.9254
  2524G12c C02J46759   2.412   3.703   6.005  0.9827 -1.9318  1.2208
  2524G12c H01H46760   2.393   3.614   6.064  0.3302  1.2679  6.1156
  2524G12c C02I46761   2.463   3.719   5.866  0.0994  0.6884 -0.8417
  2524G12c C02N46762   2.513   3.606   5.784  0.0704  0.5910  0.8623
  2524G12c H01M46763   2.606   3.563   5.819  1.0220  2.6844  1.0086
  2524G12c C02O46764   2.506   3.601   5.656 -0.2513  0.6220  0.1089
  2524G12c H01L46765   2.433   3.655   5.597  5.0780  3.4529 -4.4146
  2524G12c C02P46766   2.587   3.517   5.563 -0.2065 -0.3546  0.3728
  2524G12c H01K46767   2.658   3.558   5.491  0.7350  1.1312  2.0874
  2524G12c H01J46768   2.646   3.443   5.617 -0.8360  1.2328  3.3702
  2524G12c O00H46769   2.510   3.423   5.496  0.1787  0.7810 -1.2349
  2524G12c H01I46770   2.542   3.340   5.463 -7.7721 -1.5897 -4.1302
  2524G12c C02H46771   2.433   3.842   5.820 -0.4113  0.9874 -1.3385
  2524G12c H01C46772   2.429   3.864   5.715  1.6430  3.2837 -0.9838
  2524G12c C02L46773   2.419   3.961   5.904  0.5779  1.1403  1.7186
  2524G12c H01D46774   2.399   4.058   5.861 -1.6731 -0.8791 -2.1197
  2524G12c C01346775   2.537   4.219   6.594  0.6022 -0.5342 -1.0408
  2524G12c H00046776   2.461   4.142   6.591 -1.4694  1.1309  3.2390
  2524G12c C01446777   2.605   4.265   6.711 -1.3070  0.6812  0.4383
  2524G12c C00F46778   2.624   4.182   6.816  0.1777 -0.2756 -0.1017
  2524G12c C00H46779   2.807   4.320   6.908 -0.9484  0.3332 -0.1193
  2524G12c C00I46780   2.924   4.333   6.982 -0.6514 -0.6576 -1.1668
  2524G12c C00J46781   2.980   4.468   6.970  1.4359  0.2422 -0.3716
  2524G12c C00Z46782   2.733   4.606   6.599  0.6690  1.5153 -0.0866
  2524G12c C00Y46783   2.711   4.702   6.498 -1.3369 -1.2745  0.5809
  2524G12c H00646784   2.625   4.701   6.432  1.9557  7.3453 -4.5953
  2524G12c C00X46785   2.787   4.819   6.485 -1.2762  0.4624 -1.5193
  2524G12c O00346786   2.760   4.888   6.376  0.0722  2.1784  0.1069
  2524G12c C01B46787   2.864   4.877   6.280  0.1180  0.4351 -0.0847
  2524G12c H00946788   2.961   4.900   6.324 -0.8931 -0.3015  2.6201
  2524G12c H00846789   2.836   4.936   6.192 -0.5559 -0.1858 -0.2934
  2524G12c H00746790   2.844   4.775   6.246  1.6488 -1.2748  3.8782
  2524G12c C00W46791   2.861   4.861   6.608  0.8812  3.0105  1.7970
  2524G12c O00446792   2.940   4.977   6.605 -0.1275 -0.6383 -0.0551
  2524G12c C01C46793   3.002   5.011   6.725 -1.7146  0.1354 -0.4332
  2524G12c H00A46794   3.087   5.075   6.746  1.1889 -3.3592 -1.0148
  2524G12c C00P46795   2.985   4.940   6.846 -0.4652 -1.7357  1.2216
  2524G12c C00O46796   3.002   4.977   6.987  0.7837 -0.2572  1.2780
  2524G12c C01D46797   2.992   5.117   7.016  2.1042  0.4158 -0.1425
  2524G12c H00S46798   2.973   5.178   6.928 -1.2110  1.8094  1.4291
  2524G12c C01E46799   2.990   5.177   7.147  0.3307 -2.2527 -0.7722
  2524G12c O00846800   2.940   5.298   7.201  1.0989  0.6006 -1.0588
  2524G12c C01V46801   2.885   5.387   7.107 -1.4726 -0.0015 -0.6822
  2524G12c C01Z46802   2.753   5.349   7.044  1.5854 -1.1340  1.1706
  2524G12c H00R46803   2.728   5.243   7.043 -3.4169 -0.0515  2.1177
  2524G12c H00Q46804   2.677   5.376   7.118  4.7587  0.4023  4.0407
  2524G12c O00946805   2.751   5.372   6.905 -0.8689 -0.7718  0.2437
  2524G12c H00P46806   2.822   5.340   6.852  1.7845  3.1742  1.2078
  2524G12c C01W46807   2.967   5.489   7.092  1.8909 -0.4315 -2.0150
  2524G12c H00O46808   3.067   5.463   7.122  0.6980  1.9114  4.9580
  2524G12c C01X46809   2.931   5.588   6.974  0.7511 -2.0911  0.0609
  2524G12c H00N46810   2.977   5.544   6.887 -3.1380  1.0811 -3.8550
  2524G12c H00M46811   2.822   5.596   6.980  0.8740 -0.7855  0.9512
  2524G12c C01Y46812   2.960   5.737   7.042  0.0608  2.5569 -0.4965
  2524G12c C02D46813   3.052   5.828   7.006  0.5645  0.4156 -2.1409
  2524G12c H01946814   3.093   5.840   6.906 -1.6177  3.5772 -2.7289
  2524G12c C02C46815   3.086   5.950   7.070  1.4200  0.4222  0.5860
  2524G12c H01A46816   3.179   5.998   7.042  0.5754  1.2959 -0.7915
  2524G12c C02B46817   3.011   5.969   7.179 -0.3317  1.5670 -1.6220
  2524G12c O00E46818   3.034   6.073   7.265  0.9349  0.0206  0.0561
  2524G12c H01B46819   2.978   6.064   7.341  5.2390 -2.9291  3.1438
  2524G12c C02F46820   2.894   5.889   7.214 -1.1614 -0.9373  0.0725
  2524G12c O00F46821   2.809   5.942   7.310  0.5250  0.7827  0.2776
  2524G12c C02G46822   2.702   6.020   7.240 -0.0203 -1.9727  1.8138
  2524G12c H01746823   2.721   6.052   7.138 -1.1695 -4.9916  0.5761
  2524G12c H01646824   2.670   6.122   7.260 -4.5073 -2.9845  0.4439
  2524G12c H01546825   2.620   5.948   7.236 -3.3464  1.7940 -3.5195
  2524G12c C02E46826   2.864   5.774   7.141 -0.0283 -1.1910 -0.6341
  2524G12c H01846827   2.801   5.702   7.191 -3.0421  2.7210  1.4436
  2524G12c C01F46828   3.050   5.102   7.238  0.6405  1.5051  0.3886
  2524G12c C01G46829   3.060   5.132   7.371 -0.2962  0.6636  0.1538
  2524G12c H00L46830   3.044   5.226   7.422 -2.5781  0.4364 -0.0605
  2524G12c C01H46831   3.058   5.016   7.469 -0.7155  0.3318 -0.4359
  2524G12c H00B46832   2.972   5.025   7.533 -1.9853  8.2118 -2.7198
  2524G12c C01I46833   3.102   4.889   7.420 -0.0958  0.6587 -2.0319
  2524G12c C01U46834   3.116   4.977   7.198  0.4992 -0.4217  0.1257
  2524G12c C00S46835   2.972   4.555   6.859  0.7590 -1.6664  1.0152
  2524G12c C00K46836   3.055   4.531   7.081  0.0120  1.7682  0.0338
  2524G12c C00N46837   3.073   4.914   7.084  0.2757 -0.0553  0.2207
  2524G12c C00046838   3.164   4.891   7.299 -1.3310  0.2311  0.1911
  2524G12c C01J46839   3.059   4.744   7.453 -0.1182 -0.9741 -1.1043
  2524G12c C01K46840   3.014   4.688   7.583 -1.1077  1.8127  1.7312
  2524G12c C01P46841   3.033   4.734   7.716  0.7120  0.0049  1.8362
  2524G12c C01Q46842   3.072   4.889   7.736 -0.4537  1.3100  1.8149
  2524G12c H00G46843   3.004   4.969   7.759  4.5422  4.7407  5.7330
  2524G12c C01R46844   3.207   4.895   7.755  1.8217  0.7626 -1.6692
  2524G12c H00F46845   3.239   4.993   7.787 -1.3139  0.6636  2.1876
  2524G12c C01S46846   3.306   4.780   7.734  0.6147  0.3036 -1.9792
  2524G12c H00E46847   3.399   4.826   7.767 -0.5135  0.3539  1.4399
  2524G12c H00D46848   3.255   4.710   7.801 -0.2280  2.0691 -0.7302
  2524G12c O00546849   3.325   4.717   7.614 -1.0555 -0.5146 -1.1365
  2524G12c H00C46850   3.288   4.631   7.614  1.9154 -1.8664 -0.5209
  2524G12c C01O46851   3.011   4.666   7.823 -0.4924  0.8522 -0.5517
  2524G12c H00H46852   3.032   4.710   7.919  0.8563  5.6622 -2.8698
  2524G12c C01N46853   2.941   4.553   7.820  0.3229  0.0934  0.3937
  2524G12c O00646854   2.933   4.485   7.930 -0.5930  1.2509 -1.3534
  2524G12c C01T46855   3.037   4.392   7.947  1.2616 -1.3510 -0.6627
  2524G12c H00K46856   3.023   4.297   7.999 -2.1824  0.7202  2.3586
  2524G12c H00J46857   3.078   4.375   7.847  2.9966  2.1684 -0.6148
  2524G12c H00I46858   3.090   4.476   7.992 -3.7531  3.0199 -2.4093
  2524G12c C01M46859   2.903   4.496   7.687 -1.5839  0.7408 -0.0434
  2524G12c C02046860   3.031   4.461   7.209  1.2422 -1.8634 -0.1618
  2524G12c C02146861   2.960   4.350   7.219  0.1216 -0.2121  0.5370
  2524G12c C01L46862   2.962   4.558   7.576 -1.3290  0.9961  0.0278
  2524G12c O00746863   2.841   4.381   7.675  1.2008  1.2626 -0.6665
  2524G12c C02246864   2.911   4.297   7.324 -0.9986 -1.0817  0.9516
  2524G12c C02346865   2.915   4.274   7.107 -1.0633 -0.4104 -1.4654
  2524G12c C00G46866   2.701   4.216   6.928  0.6161 -1.1147  0.9888
  2524G12c C00E46867   2.522   4.091   6.855  0.0605  1.6563 -0.9558
  2524G12c O00A46868   2.426   4.047   6.776 -0.2237 -1.3051 -0.5360
  2524G12c C02446869   2.297   4.129   6.771 -1.0478  1.9195 -0.5044
  2524G12c H00V46870   2.343   4.227   6.783  3.5127 -0.4371  2.6851
  2524G12c H00U46871   2.211   4.135   6.837 -2.2485  5.9527 -2.2598
  2524G12c H00T46872   2.251   4.132   6.672 -3.7757  1.5655  0.7010
  2534G12c C00D46873   8.536   8.430   4.843  1.3513  0.1364 -0.6479
  2534G12c O00B46874   8.626   8.456   4.742  0.5437 -0.7450  0.4643
  2534G12c C02546875   8.572   8.454   4.620  1.4816 -1.4294  0.3637
  2534G12c C02646876   8.454   8.542   4.582  0.2450  0.8063 -1.2393
  2534G12c H00Y46877   8.364   8.487   4.607 -0.0551  0.6480 -2.6336
  2534G12c H00X46878   8.438   8.583   4.483  0.3918  3.8495 -0.0475
  2534G12c O00C46879   8.452   8.665   4.656 -0.5559 -0.7851 -1.0977
  2534G12c H00W46880   8.476   8.673   4.747  4.1162 -3.4124 -1.9477
  2534G12c C02746881   8.622   8.366   4.546 -0.3271  1.1920 -1.0775
  2534G12c O00D46882   8.715   8.299   4.600  1.3991  1.8059 -1.3169
  2534G12c H00Z46883   8.734   8.340   4.683  1.1852  2.9547 -1.8258
  2534G12c C02846884   8.603   8.372   4.409  0.5158  0.3515 -1.3968
  2534G12c C02946885   8.632   8.483   4.345  0.7597  0.7849 -1.3034
  2534G12c H01046886   8.662   8.557   4.419 -0.1104 -2.5630  2.5955
  2534G12c C02T46887   8.603   8.498   4.211 -0.9569  0.7983  0.8074
  2534G12c H01O46888   8.626   8.571   4.135 -1.5386  5.9918  5.3049
  2534G12c C02S46889   8.515   8.390   4.159  0.8897  0.4179  0.9420
  2534G12c O00J46890   8.498   8.399   4.029 -1.4880 -0.6819 -0.3143
  2534G12c H01P46891   8.499   8.491   4.007  3.5089 -1.7810 -5.9580
  2534G12c C02R46892   8.467   8.273   4.222  0.0948  1.8438 -0.7634
  2534G12c O00I46893   8.369   8.191   4.190  1.3089 -0.7570 -0.4330
  2534G12c C02Q46894   8.249   8.202   4.254 -1.1734  0.2862 -1.2888
  2534G12c H01N46895   8.195   8.289   4.217 -2.8271  0.4756  1.4263
  2534G12c H01R46896   8.263   8.224   4.360  0.9105  4.1963 -2.2596
  2534G12c H01Q46897   8.200   8.105   4.242  0.8935 -1.2011  1.6959
  2534G12c C02A46898   8.521   8.263   4.352 -0.3613  0.7713 -0.0455
  2534G12c H01146899   8.471   8.190   4.415 -0.1414  2.2675  1.9193
  2534G12c C00C46900   8.435   8.332   4.836 -0.3065 -0.1817  0.8157
  2534G12c H01246901   8.403   8.277   4.749 -1.7187 -0.4116  1.4585
  2534G12c C00B46902   8.374   8.279   4.951 -0.2644 -0.7814 -0.6690
  2534G12c C00A46903   8.272   8.171   4.958  1.0637  0.9072 -0.1532
  2534G12c C00946904   8.166   8.141   4.860  0.5568 -0.8462  1.5217
  2534G12c C00846905   8.096   8.229   4.758 -1.1434  1.0632 -0.4104
  2534G12c H01346906   8.164   8.293   4.703  6.8010 -4.1772  2.3356
  2534G12c C00746907   7.946   8.250   4.744  0.1472  0.3386 -0.6268
  2534G12c H01446908   7.899   8.315   4.672 -2.9262  1.7516  2.4906
  2534G12c C00646909   7.883   8.164   4.839  0.3244 -0.1508 -0.3848
  2534G12c C00546910   7.950   8.074   4.919  0.8723  0.3945 -0.2867
  2534G12c C00446911   7.872   8.018   5.027  2.2419 -0.3761  0.0914
  2534G12c C00346912   7.915   8.004   5.156 -0.7451  0.5573 -2.4301
  2534G12c C00246913   7.823   7.966   5.263 -1.4784  0.3355 -0.3292
  2534G12c C00146914   7.824   7.966   5.401  0.4042  0.1364 -0.5135
  2534G12c C00M46915   7.901   8.050   5.494  0.8401  0.1716  0.8508
  2534G12c C00L46916   8.030   8.091   5.454  0.5633  1.5853 -0.9928
  2534G12c C00R46917   8.089   8.202   5.518  0.5810 -0.8954 -0.5840
  2534G12c C00Q46918   8.065   8.298   5.624  0.1567  0.4485 -1.1806
  2534G12c C00V46919   8.161   8.400   5.643 -0.4243 -0.6601  0.5951
  2534G12c C00U46920   8.266   8.424   5.552 -1.4280  1.0362  0.9640
  2534G12c C00T46921   8.289   8.349   5.451  2.1772  0.3143  0.9661
  2534G12c C01646922   8.365   8.373   5.327  1.6244  0.5707  0.1410
  2534G12c C01546923   8.442   8.481   5.326  0.6005 -0.4273 -0.5687
  2534G12c C01046924   8.459   8.538   5.457  0.3820 -1.1415 -0.6278
  2534G12c C01146925   8.554   8.626   5.463  0.1323 -1.4976  0.7220
  2534G12c H00546926   8.572   8.681   5.554 -1.2595  3.0611 -1.5768
  2534G12c C01246927   8.620   8.678   5.353  1.4423  0.3720  2.7142
  2534G12c C01746928   8.696   8.810   5.351 -0.1775  1.6525 -2.5529
  2534G12c O00246929   8.647   8.943   5.311 -1.0826  1.2872 -0.0202
  2534G12c H00446930   8.712   8.981   5.367  1.0016 -5.7334  2.9265
  2534G12c C01846931   8.801   8.788   5.437  0.9650  3.4289 -0.2409
  2534G12c O00146932   8.873   8.886   5.490  1.7461 -2.0415 -1.5331
  2534G12c H00346933   8.945   8.850   5.441  1.9424 -4.3119  0.3619
  2534G12c C01946934   8.864   8.656   5.502 -0.3036 -0.8446  0.3777
  2534G12c H00246935   8.848   8.667   5.609  5.0820  4.7410  0.8471
  2534G12c H00146936   8.803   8.567   5.487 -1.2560 -0.9631  4.5162
  2534G12c O00046937   9.005   8.642   5.462  0.8246  0.0164  2.2799
  2534G12c C01A46938   9.076   8.533   5.515 -0.6793 -0.4894  1.5173
  2534G12c C02K46939   9.214   8.538   5.556 -1.0902 -0.3252 -0.6908
  2534G12c O00G46940   9.286   8.642   5.508  1.7526 -1.4932  0.5178
  2534G12c C02M46941   9.242   8.781   5.546  1.1761  0.1188  2.2002
  2534G12c H01G46942   9.180   8.831   5.472 -0.7441  0.7799  4.2129
  2534G12c H01F46943   9.323   8.827   5.603  0.5850  3.3136  0.5939
  2534G12c H01E46944   9.159   8.755   5.611 -2.4531  2.2499 -1.3849
  2534G12c C02J46945   9.267   8.434   5.622 -1.3398 -0.0141  1.0326
  2534G12c H01H46946   9.368   8.461   5.647 -1.8356  2.7348  0.2926
  2534G12c C02I46947   9.202   8.339   5.692  0.4975 -0.8720 -0.4265
  2534G12c C02N46948   9.258   8.258   5.795 -0.5042 -0.4687 -1.1959
  2534G12c H01M46949   9.321   8.286   5.878 -2.4751 -3.9981  1.6103
  2534G12c C02O46950   9.273   8.127   5.756 -0.5605 -0.1576  1.0431
  2534G12c H01L46951   9.209   8.085   5.680 -3.0800 -6.5137  6.1432
  2534G12c C02P46952   9.358   8.031   5.848  0.8356  0.1525  0.4758
  2534G12c H01K46953   9.447   7.972   5.825 -0.4817 -1.5552 -0.3778
  2534G12c H01J46954   9.337   8.052   5.952  5.3263 -1.9809  1.9368
  2534G12c O00H46955   9.290   7.918   5.827 -1.4330  0.1977 -0.3065
  2534G12c H01I46956   9.231   7.917   5.902  2.4046  3.1082  2.9500
  2534G12c C02H46957   9.070   8.326   5.646 -0.5170 -0.6215  0.2463
  2534G12c H01C46958   9.015   8.264   5.715 -2.4848  2.2794  1.3952
  2534G12c C02L46959   9.004   8.413   5.539 -1.0776 -0.4571  0.9011
  2534G12c H01D46960   8.900   8.386   5.534 -0.4091 -2.6228 -3.6155
  2534G12c C01346961   8.598   8.624   5.221  1.6616  0.7480  0.2368
  2534G12c H00046962   8.656   8.678   5.146  3.1785  0.1441  0.9457
  2534G12c C01446963   8.511   8.510   5.203 -0.7262 -1.0989 -2.0805
  2534G12c C00F46964   8.493   8.455   5.081 -1.3342 -0.4184 -1.7168
  2534G12c C00H46965   8.337   8.304   5.201  1.3441  0.9175 -0.0319
  2534G12c C00I46966   8.254   8.193   5.194  0.5334 -0.9609 -1.8300
  2534G12c C00J46967   8.205   8.161   5.321  1.1590  2.7802  0.2840
  2534G12c C00Z46968   8.355   8.523   5.555 -0.0851  0.3801  1.2969
  2534G12c C00Y46969   8.368   8.589   5.686 -0.5500 -0.5778 -0.3866
  2534G12c H00646970   8.440   8.669   5.696 -5.0078  3.2036  6.0063
  2534G12c C00X46971   8.261   8.575   5.774  1.4064 -0.0522 -0.2231
  2534G12c O00346972   8.249   8.639   5.880  0.8047 -2.1344  0.0394
  2534G12c C01B46973   8.274   8.791   5.869  0.0309  1.5513  1.3689
  2534G12c H00946974   8.283   8.813   5.763 -2.3080  0.0062  0.8132
  2534G12c H00846975   8.362   8.818   5.927  2.8491 -5.1336  0.6277
  2534G12c H00746976   8.179   8.826   5.910 -0.3755  0.4212  1.4232
  2534G12c C00W46977   8.150   8.479   5.764 -0.3428 -0.5582 -1.9810
  2534G12c O00446978   8.039   8.491   5.836 -1.2521  0.7906  0.5947
  2534G12c C01C46979   7.941   8.413   5.813  1.5124 -0.0382  0.5582
  2534G12c H00A46980   7.863   8.408   5.887  1.8178 -0.1523  0.8685
  2534G12c C00P46981   7.951   8.307   5.705  0.9976 -1.2069  0.2368
  2534G12c C00O46982   7.830   8.235   5.659 -0.5152 -0.6442 -0.0082
  2534G12c C01D46983   7.712   8.325   5.671 -0.0288 -0.0344  0.7312
  2534G12c H00S46984   7.728   8.409   5.736  0.8073 -0.1095  0.6388
  2534G12c C01E46985   7.589   8.291   5.604 -0.0045 -2.9474  0.1469
  2534G12c O00846986   7.481   8.375   5.602  0.7802 -0.2542  0.6042
  2534G12c C01V46987   7.463   8.499   5.643  0.2658 -0.1468 -2.6349
  2534G12c C01Z46988   7.401   8.499   5.779 -1.3444 -0.2574 -0.3649
  2534G12c H00R46989   7.419   8.417   5.849  2.2813 -4.8327 -6.1119
  2534G12c H00Q46990   7.482   8.544   5.835 -0.2059 -3.9513  1.1073
  2534G12c O00946991   7.313   8.596   5.806 -1.1128  0.0796  0.2845
  2534G12c H00P46992   7.226   8.605   5.771 -2.6901 -0.9332  3.6920
  2534G12c C01W46993   7.468   8.606   5.571  1.8906 -0.4060  0.5972
  2534G12c H00O46994   7.433   8.703   5.605 -3.1486 -2.8189  2.7904
  2534G12c C01X46995   7.532   8.609   5.431  1.3854 -0.7234 -1.1409
  2534G12c H00N46996   7.539   8.513   5.379 -0.6505 -1.7867  0.5040
  2534G12c H00M46997   7.463   8.681   5.388 -0.2705 -4.1930 -4.5686
  2534G12c C01Y46998   7.683   8.661   5.425  1.2139  0.4869 -0.0097
  2534G12c C02D46999   7.703   8.767   5.522  0.5485  0.7254 -0.1935
  2534G12c H01947000   7.626   8.840   5.542  3.0206  4.5269 -3.9235
  2534G12c C02C47001   7.844   8.797   5.542 -0.3181 -2.0731 -0.5380
  2534G12c H01A47002   7.859   8.877   5.613 -2.5427 -1.0023 -1.2415
  2534G12c C02B47003   7.949   8.742   5.473 -0.3183 -1.5741 -0.6017
  2534G12c O00E47004   8.066   8.813   5.472  0.0392 -0.9958 -0.8562
  2534G12c H01B47005   8.118   8.819   5.551  1.2475 -2.7403 -1.5106
  2534G12c C02F47006   7.925   8.642   5.368  0.2839  0.2897 -0.0676
  2534G12c O00F47007   8.025   8.571   5.314  0.1334  1.4604  0.8686
  2534G12c C02G47008   8.027   8.466   5.221  1.7005 -0.5000  0.7612
  2534G12c H01747009   7.976   8.382   5.269 -1.9798 -1.0882 -3.7771
  2534G12c H01647010   8.131   8.446   5.195  1.8611 -0.7806  1.6084
  2534G12c H01547011   7.976   8.492   5.128  2.6434 -4.8066 -1.0749
  2534G12c C02E47012   7.791   8.600   5.345 -1.6965 -0.6027  0.5244
  2534G12c H01847013   7.784   8.533   5.261 -0.9491 -0.5838  0.4383
  2534G12c C01F47014   7.579   8.171   5.536  0.0428 -0.0771 -2.3837
  2534G12c C01G47015   7.484   8.143   5.436  0.5684  0.4855 -1.0146
  2534G12c H00L47016   7.413   8.209   5.388  1.6838  2.0391 -0.5460
  2534G12c C01H47017   7.488   8.023   5.347  1.0269  0.4175  2.0299
  2534G12c H00B47018   7.401   8.016   5.283  1.5120  2.1657  1.1568
  2534G12c C01I47019   7.602   7.965   5.346 -0.7509 -0.7048 -0.1998
  2534G12c C01U47020   7.667   8.067   5.559 -0.6194 -2.1567  1.0926
  2534G12c C00S47021   8.213   8.237   5.441 -0.8917 -0.5160 -0.5387
  2534G12c C00K47022   8.093   8.074   5.322 -0.2398 -0.8370 -0.8525
  2534G12c C00N47023   7.807   8.117   5.583  0.3641 -1.0129 -1.5923
  2534G12c C00047024   7.687   7.967   5.460 -0.4973  1.8354  0.0745
  2534G12c C01J47025   7.687   7.979   5.233  2.0402 -1.7219  1.4996
  2534G12c C01K47026   7.644   7.953   5.101 -1.3474  1.6346 -0.0014
  2534G12c C01P47027   7.511   7.916   5.029 -0.7822  0.9449 -1.0398
  2534G12c C01Q47028   7.394   7.865   5.097  1.4573  0.2154  0.7279
  2534G12c H00G47029   7.288   7.886   5.092  1.6963  1.3461  0.2691
  2534G12c C01R47030   7.404   7.778   5.191  0.4781  0.0932  0.9383
  2534G12c H00F47031   7.494   7.734   5.231  2.0912  3.8270  1.6329
  2534G12c C01S47032   7.299   7.706   5.265 -0.4082 -1.8104  0.4401
  2534G12c H00E47033   7.356   7.666   5.350  2.3185  4.3325  1.7594
  2534G12c H00D47034   7.219   7.775   5.289 -0.3015 -0.8236 -1.9516
  2534G12c O00547035   7.270   7.584   5.191 -0.6593  1.2839  0.6547
  2534G12c H00C47036   7.304   7.592   5.103 -1.7094  1.5583  0.2528
  2534G12c C01O47037   7.480   7.975   4.900 -0.0674  0.7942  1.3954
  2534G12c H00H47038   7.382   7.968   4.856  1.9678 -7.4098 -2.6311
  2534G12c C01N47039   7.570   8.063   4.833  0.9759 -0.1634 -0.5217
  2534G12c O00647040   7.520   8.118   4.720 -0.5162 -0.5176 -0.0966
  2534G12c C01T47041   7.420   8.065   4.637  1.0058  0.7454  0.2092
  2534G12c H00K47042   7.415   7.957   4.642 -3.6530  0.4091 -6.0191
  2534G12c H00J47043   7.432   8.111   4.539 -0.8103  2.3045  0.6986
  2534G12c H00I47044   7.318   8.080   4.670  0.4393  0.3378 -1.3199
  2534G12c C01M47045   7.678   8.097   4.906  1.5477  0.9864  1.0848
  2534G12c C02047046   8.047   8.039   5.186 -1.8610 -0.9829  0.0742
  2534G12c C02147047   8.127   8.053   5.069 -0.9359  1.4405 -1.1504
  2534G12c C01L47048   7.732   8.025   5.019 -0.9477  1.1611  0.8995
  2534G12c O00747049   7.754   8.168   4.817 -0.6451  0.8991 -0.3488
  2534G12c C02247050   8.089   8.054   4.932  0.0387 -0.2145 -0.4622
  2534G12c C02347051   8.243   8.118   5.081 -0.7135  0.1112 -0.0915
  2534G12c C00G47052   8.400   8.345   5.077  0.1671 -0.0647 -0.0471
  2534G12c C00E47053   8.559   8.499   4.956 -0.1910 -0.4234 -0.2234
  2534G12c O00A47054   8.605   8.635   4.927 -0.8358  0.2367  0.3180
  2534G12c C02447055   8.740   8.656   4.924  0.7895 -1.1426 -0.7973
  2534G12c H00V47056   8.775   8.682   4.825 -2.5532 -3.2540 -2.6240
  2534G12c H00U47057   8.780   8.575   4.987 -2.3704  2.1556  6.0375
  2534G12c H00T47058   8.760   8.745   4.984  2.4888 -2.1022  0.0859
  2544G12c C00D47059   5.309   3.347   8.476 -1.4201  0.0199  1.0214
  2544G12c O00B47060   5.383   3.307   8.591 -0.2751 -1.0030  0.7215
  2544G12c C02547061   5.509   3.346   8.626 -1.0338  0.6411  0.9564
  2544G12c C02647062   5.621   3.236   8.634  0.2034  0.7165 -0.2125
  2544G12c H00Y47063   5.615   3.164   8.716 -3.3367  2.5123  1.2165
  2544G12c H00X47064   5.719   3.279   8.611 -0.2108  1.1786 -1.1264
  2544G12c O00C47065   5.617   3.137   8.533  1.1186 -0.0403  1.3746
  2544G12c H00W47066   5.705   3.158   8.508  3.5123 -6.3323  3.3768
  2544G12c C02747067   5.508   3.471   8.677 -0.7074 -2.0419  3.1457
  2544G12c O00D47068   5.381   3.534   8.720  1.8360  1.3616 -0.6994
  2544G12c H00Z47069   5.299   3.489   8.719 -0.0096  4.4129  1.5491
  2544G12c C02847070   5.644   3.523   8.705 -0.4668 -1.2463  0.3025
  2544G12c C02947071   5.718   3.595   8.606  0.3819  0.1281 -1.7020
  2544G12c H01047072   5.670   3.612   8.511 -2.1248 -7.1427 -2.0622
  2544G12c C02T47073   5.839   3.659   8.635  0.5941  1.8785 -0.2370
  2544G12c H01O47074   5.904   3.700   8.558  3.1339  1.0219  1.4001
  2544G12c C02S47075   5.895   3.628   8.750 -0.0502  0.1113 -0.2249
  2544G12c O00J47076   6.024   3.668   8.772 -1.2753 -0.4088 -0.5962
  2544G12c H01P47077   6.054   3.587   8.810 -2.4346  0.8064  3.1474
  2544G12c C02R47078   5.828   3.570   8.855  1.7871 -1.7271 -0.1858
  2544G12c O00I47079   5.921   3.566   8.959  0.2268 -1.4087 -1.4517
  2544G12c C02Q47080   5.895   3.483   9.083  0.6866  0.3580 -0.1332
  2544G12c H01N47081   5.797   3.484   9.130 -0.7490  5.3439 -2.9229
  2544G12c H01R47082   5.873   3.377   9.070  2.9037  0.0292 -1.4835
  2544G12c H01Q47083   5.981   3.480   9.149 -0.2504 -1.0476  1.0691
  2544G12c C02A47084   5.720   3.499   8.819  0.4368 -0.6314 -0.6324
  2544G12c H01147085   5.670   3.458   8.905  0.4834  6.3204  3.0698
  2544G12c C00C47086   5.320   3.457   8.403  1.2691 -1.9483  0.8850
  2544G12c H01247087   5.405   3.502   8.453 -0.9061  0.6463  2.4325
  2544G12c C00B47088   5.248   3.492   8.293 -0.2984 -0.1603 -0.8567
  2544G12c C00A47089   5.275   3.602   8.193  0.7660  0.6751 -0.2750
  2544G12c C00947090   5.335   3.731   8.216 -0.7759  1.7361  1.6481
  2544G12c C00847091   5.382   3.785   8.339 -0.6361  0.7484  0.4441
  2544G12c H01347092   5.405   3.714   8.417  0.4379 -3.2636 -3.3011
  2544G12c C00747093   5.419   3.908   8.348  1.0361 -0.9891  1.7422
  2544G12c H01447094   5.493   3.932   8.423 -2.3224 -7.1283  7.6520
  2544G12c C00647095   5.339   3.990   8.263  0.1618  0.1120 -0.4629
  2544G12c C00547096   5.263   3.932   8.156  0.7328 -1.7389  0.0607
  2544G12c C00447097   5.153   3.995   8.109  0.2522  1.1065 -0.7686
  2544G12c C00347098   5.065   3.927   8.015  1.7421  0.1401  0.0875
  2544G12c C00247099   4.969   4.005   7.946 -1.5953 -0.0228  1.1211
  2544G12c C00147100   4.882   3.974   7.851  1.2301  0.3415 -1.3202
  2544G12c C00M47101   4.792   3.854   7.856  0.1769  1.0995  0.5908
  2544G12c C00L47102   4.849   3.722   7.869 -0.2551 -0.1121  0.1292
  2544G12c C00R47103   4.783   3.600   7.906 -0.3385 -0.4769  0.4631
  2544G12c C00Q47104   4.644   3.588   7.948 -0.0721 -1.1178  1.9824
  2544G12c C00V47105   4.619   3.460   7.994 -0.0294 -0.6381  0.1934
  2544G12c C00U47106   4.706   3.382   8.076  0.0938  1.7082  2.0465
  2544G12c C00T47107   4.833   3.404   8.069 -1.5818 -0.9598  0.7900
  2544G12c C01647108   4.924   3.368   8.162  0.6579  1.2635 -0.3031
  2544G12c C01547109   4.903   3.266   8.242 -1.0985 -1.2877  0.0200
  2544G12c C01047110   4.774   3.213   8.233 -1.9305 -1.6551 -0.2801
  2544G12c C01147111   4.736   3.086   8.295  1.4566 -1.3173  1.5799
  2544G12c H00547112   4.659   3.014   8.274  1.6916 -0.8687 -0.9846
  2544G12c C01247113   4.845   3.017   8.365 -0.3015  0.9863 -0.3366
  2544G12c C01747114   4.814   2.884   8.437  1.1926 -0.3785  0.4273
  2544G12c O00247115   4.688   2.848   8.458 -0.8421 -0.1007  0.0171
  2544G12c H00447116   4.665   2.894   8.537 -0.1181  1.5197 -0.6873
  2544G12c C01847117   4.920   2.786   8.475  0.2750  0.3579 -0.6757
  2544G12c O00147118   5.048   2.827   8.449 -0.3452 -0.1815  1.1785
  2544G12c H00347119   5.069   2.736   8.463 -6.1735 -1.4456  3.2714
  2544G12c C01947120   4.908   2.638   8.527 -0.9832 -0.9725 -1.4436
  2544G12c H00247121   4.836   2.558   8.540 -1.9542 -0.5876 -4.2391
  2544G12c H00147122   4.945   2.596   8.434 -1.2072 -1.6586 -1.2278
  2544G12c O00047123   5.016   2.617   8.638 -0.0181  1.5126 -0.7885
  2544G12c C01A47124   5.012   2.704   8.732  1.2488  0.2266  0.6310
  2544G12c C02K47125   5.138   2.703   8.789  0.8749 -0.1302  0.5681
  2544G12c O00G47126   5.229   2.602   8.755  1.1217  0.6512 -0.8040
  2544G12c C02M47127   5.320   2.653   8.657  1.0449 -0.6811 -1.7516
  2544G12c H01G47128   5.283   2.636   8.556  2.3868 -0.9185 -2.2238
  2544G12c H01F47129   5.416   2.600   8.657 -0.9776 -4.4753 -0.4656
  2544G12c H01E47130   5.365   2.751   8.675 -0.5435 -1.0566  5.7341
  2544G12c C02J47131   5.160   2.806   8.898  1.8140  0.3569  0.6899
  2544G12c H01H47132   5.253   2.767   8.938  2.7931 -0.2536 -2.0502
  2544G12c C02I47133   5.060   2.907   8.940 -1.2649  0.5588  0.3191
  2544G12c C02N47134   5.054   3.000   9.058 -1.0404 -0.6423 -0.2096
  2544G12c H01M47135   4.968   2.990   9.122 -0.3949  2.5001  1.2641
  2544G12c C02O47136   5.167   2.994   9.117  0.9799  0.4284  1.1685
  2544G12c H01L47137   5.258   2.964   9.066  0.1356 -3.5280  1.8387
  2544G12c C02P47138   5.212   2.990   9.256  0.3038  0.5869  0.8829
  2544G12c H01K47139   5.223   2.883   9.245 -1.3114  0.4186  0.7463
  2544G12c H01J47140   5.306   3.045   9.265 -0.3697  2.4020 -2.4651
  2544G12c O00H47141   5.106   2.983   9.349  0.2588  0.2888 -0.1181
  2544G12c H01I47142   5.045   2.914   9.328  2.0615 -1.6385  0.8328
  2544G12c C02H47143   4.942   2.895   8.863  1.9627 -0.4108 -0.5433
  2544G12c H01C47144   4.855   2.958   8.867 -0.2278 -3.3816  1.0459
  2544G12c C02L47145   4.916   2.799   8.761  1.8279  1.1227 -0.2306
  2544G12c H01D47146   4.826   2.821   8.706  2.2784  0.7413 -1.1229
  2544G12c C01347147   4.963   3.093   8.377  0.0238 -1.6454 -0.0125
  2544G12c H00047148   5.022   3.055   8.459  5.2612  4.4925 -0.6028
  2544G12c C01447149   4.999   3.203   8.299  0.1705  0.9511 -0.4749
  2544G12c C00F47150   5.117   3.280   8.334  0.0146  0.0312 -0.4535
  2544G12c C00H47151   5.066   3.414   8.150  0.2169 -2.0914 -1.6888
  2544G12c C00I47152   5.086   3.528   8.054  1.2893 -1.4934 -0.5738
  2544G12c C00J47153   4.992   3.562   7.955 -0.8914 -0.2275 -0.7801
  2544G12c C00Z47154   4.675   3.292   8.169 -0.3305 -0.4575 -1.5343
  2544G12c C00Y47155   4.536   3.261   8.175 -0.0062  0.0999  0.1742
  2544G12c H00647156   4.495   3.181   8.236 -1.9511 -0.3829 -1.7036
  2544G12c C00X47157   4.438   3.343   8.101  0.9461  2.3996 -0.0202
  2544G12c O00347158   4.312   3.287   8.115  1.8670 -0.3651  0.5681
  2544G12c C01B47159   4.214   3.380   8.170  0.2751 -0.2891 -0.0611
  2544G12c H00947160   4.157   3.406   8.081 -0.9851 -3.9313 -0.4048
  2544G12c H00847161   4.237   3.476   8.215  0.4897 -0.4710  0.2227
  2544G12c H00747162   4.147   3.311   8.221 -4.9414  5.5101  1.4314
  2544G12c C00W47163   4.487   3.419   8.000 -0.2931  0.3025 -0.8078
  2544G12c O00447164   4.386   3.473   7.929  0.8319  0.2730 -0.9472
  2544G12c C01C47165   4.391   3.615   7.898 -2.3513  0.8713  0.8608
  2544G12c H00A47166   4.310   3.674   7.938 -3.1360  2.9163 -3.5016
  2544G12c C00P47167   4.527   3.668   7.903  0.1828 -2.2906 -0.9561
  2544G12c C00O47168   4.540   3.816   7.924  1.9676  1.1737  0.6157
  2544G12c C01D47169   4.413   3.898   7.945 -1.3665 -0.7736 -0.7405
  2544G12c H00S47170   4.308   3.872   7.958 -0.1687 -5.7028  0.0344
  2544G12c C01E47171   4.428   4.032   7.979  1.5050  0.1419  0.1381
  2544G12c O00847172   4.308   4.084   8.036 -0.8977  0.7689 -1.2712
  2544G12c C01V47173   4.290   4.202   8.081  0.4008  0.8421  1.1114
  2544G12c C01Z47174   4.292   4.315   7.984  0.3441  0.8817  0.0234
  2544G12c H00R47175   4.198   4.371   7.979 -0.5503 -0.7423 -2.2689
  2544G12c H00Q47176   4.360   4.399   7.977 -2.0188  2.7824 -0.8562
  2544G12c O00947177   4.258   4.244   7.858  0.5853  0.9473 -0.2961
  2544G12c H00P47178   4.302   4.161   7.860  1.7432  1.5376 -0.5788
  2544G12c C01W47179   4.231   4.226   8.213  0.4473  1.0773  0.1009
  2544G12c H00O47180   4.228   4.151   8.290  4.4289  6.9710  6.5379
  2544G12c C01X47181   4.205   4.349   8.279 -1.2159  0.5900  0.1248
  2544G12c H00N47182   4.152   4.415   8.210 -0.3497 -1.1227 -2.2476
  2544G12c H00M47183   4.143   4.293   8.349  0.7506 -1.3027  0.4140
  2544G12c C01Y47184   4.342   4.394   8.312  0.0451  0.3403  0.9611
  2544G12c C02D47185   4.395   4.510   8.232  0.0984 -0.1270 -0.8544
  2544G12c H01947186   4.341   4.564   8.156 -1.0751  5.2884  3.4984
  2544G12c C02C47187   4.513   4.576   8.258  0.2816 -0.4178 -1.1491
  2544G12c H01A47188   4.512   4.676   8.217  0.0394 -1.1190 -2.9138
  2544G12c C02B47189   4.566   4.544   8.383 -0.8216  0.3888  0.6472
  2544G12c O00E47190   4.680   4.620   8.427  0.8413 -1.2617 -0.1826
  2544G12c H01B47191   4.716   4.569   8.499  4.7353 -0.6178 -1.5250
  2544G12c C02F47192   4.545   4.426   8.448  0.8837  0.2680 -1.4919
  2544G12c O00F47193   4.646   4.415   8.541  0.1258 -0.6132 -0.3974
  2544G12c C02G47194   4.687   4.284   8.587  0.0860 -1.3228 -0.2913
  2544G12c H01747195   4.791   4.279   8.620  0.4603  2.2357 -0.7592
  2544G12c H01647196   4.676   4.207   8.511  4.6992 -0.7031 -1.7660
  2544G12c H01547197   4.626   4.245   8.669  0.2458-11.4402 -4.1950
  2544G12c C02E47198   4.422   4.354   8.425  1.2519  0.3533  0.2625
  2544G12c H01847199   4.408   4.261   8.479  3.7252 -1.2794 -1.8197
  2544G12c C01F47200   4.549   4.099   7.976 -1.0719 -0.0750  0.6736
  2544G12c C01G47201   4.594   4.213   8.060  0.3234  0.0682 -1.9200
  2544G12c H00L47202   4.527   4.293   8.090 -4.8617 -5.4534  2.4404
  2544G12c C01H47203   4.736   4.254   8.042 -0.9523 -0.6906 -0.5382
  2544G12c H00B47204   4.745   4.359   8.065  5.1303 -2.6308  8.1447
  2544G12c C01I47205   4.829   4.174   7.964  0.5356 -0.2908  1.1997
  2544G12c C01U47206   4.657   4.038   7.904 -0.3915 -0.9751  1.0491
  2544G12c C00S47207   4.871   3.499   7.956  1.1992  1.6732 -0.5518
  2544G12c C00K47208   4.984   3.704   7.928  0.2188  0.6084 -0.0945
  2544G12c C00N47209   4.654   3.885   7.886 -0.4111  0.1180 -1.0741
  2544G12c C00047210   4.792   4.089   7.860  0.2971 -0.4858  1.6445
  2544G12c C01J47211   4.962   4.140   7.996 -0.7478 -1.6473 -0.4695
  2544G12c C01K47212   5.053   4.214   8.072  0.6102 -0.4037 -0.4309
  2544G12c C01P47213   5.044   4.347   8.117 -0.2422  0.4232  1.3498
  2544G12c C01Q47214   4.976   4.456   8.042 -0.7358 -1.0555 -1.1492
  2544G12c H00G47215   4.878   4.497   8.060 -2.0245 -4.2341 -0.6566
  2544G12c C01R47216   5.047   4.531   7.965  0.5799  0.6954  2.0102
  2544G12c H00F47217   5.139   4.494   7.922 -2.3392 -1.9060 -2.3413
  2544G12c C01S47218   4.977   4.643   7.894 -0.7650  1.3907  0.4414
  2544G12c H00E47219   4.948   4.612   7.794 -2.6946 -1.5384  1.8100
  2544G12c H00D47220   4.907   4.687   7.965  5.9732  3.4430  6.3463
  2544G12c O00547221   5.082   4.740   7.856 -0.1593  1.2173 -1.9404
  2544G12c H00C47222   5.170   4.710   7.872  0.9044  2.5338 -4.9568
  2544G12c C01O47223   5.145   4.392   8.210  0.2352  0.6415  0.3689
  2544G12c H00H47224   5.146   4.499   8.218  5.2308  1.0263 -3.2372
  2544G12c C01N47225   5.243   4.311   8.274 -0.0801 -0.4697  0.1095
  2544G12c O00647226   5.296   4.365   8.374 -1.1078 -2.1631 -0.0146
  2544G12c C01T47227   5.442   4.381   8.329  0.3472  3.6087 -0.2567
  2544G12c H00K47228   5.454   4.381   8.220 -2.3748  1.8950 -0.6021
  2544G12c H00J47229   5.526   4.315   8.350 -3.6935 -3.9484 -5.4610
  2544G12c H00I47230   5.476   4.481   8.357  4.5399  1.4351  3.1285
  2544G12c C01M47231   5.232   4.177   8.245 -0.2101 -0.2508 -1.9478
  2544G12c C02047232   5.090   3.789   7.979  0.3376  0.9457 -0.9827
  2544G12c C02147233   5.200   3.737   8.040 -0.9569 -1.5212  0.9151
  2544G12c C01L47234   5.138   4.133   8.144  1.4962 -0.2577  1.4219
  2544G12c O00747235   5.332   4.108   8.316  0.2261  0.4135  0.9771
  2544G12c C02247236   5.295   3.811   8.105 -0.6486  0.2341  0.6139
  2544G12c C02347237   5.211   3.594   8.070 -1.3648  0.9132 -0.7692
  2544G12c C00G47238   5.157   3.393   8.256  1.1234  0.9446  1.3568
  2544G12c C00E47239   5.207   3.255   8.438  0.4172  0.4939 -0.3782
  2544G12c O00A47240   5.220   3.133   8.484 -2.1930  0.7482 -0.0356
  2544G12c C02447241   5.322   3.056   8.415  0.6586  0.8599  0.6790
  2544G12c H00V47242   5.417   3.100   8.385  0.8240 -1.2914 -2.1500
  2544G12c H00U47243   5.281   3.030   8.317  2.1800 -0.3622  0.3420
  2544G12c H00T47244   5.350   2.960   8.457  3.5779 -0.6906 -4.3898
  2554G12c C00D47245   4.726   3.489  11.753  1.6747 -0.6505 -0.4072
  2554G12c O00B47246   4.726   3.361  11.802  0.2927  0.0657  0.5704
  2554G12c C02547247   4.787   3.368  11.929 -0.2466  0.9577  0.0331
  2554G12c C02647248   4.691   3.306  12.035  0.4455 -1.3572  0.0534
  2554G12c H00Y47249   4.751   3.232  12.087 -0.0552 -1.0341  1.1024
  2554G12c H00X47250   4.600   3.267  11.988 -4.3296  1.2784  6.4439
  2554G12c O00C47251   4.637   3.403  12.129  0.3792 -1.3333 -0.0652
  2554G12c H00W47252   4.696   3.442  12.191  1.3761  2.1510 -3.0058
  2554G12c C02747253   4.925   3.345  11.937 -0.1466 -0.3495 -1.5963
  2554G12c O00D47254   5.007   3.331  11.826 -0.5335  0.7952 -0.7440
  2554G12c H00Z47255   4.951   3.319  11.751 -0.1843 -2.0872 -0.6066
  2554G12c C02847256   4.993   3.350  12.058  0.5364 -1.1867 -0.0899
  2554G12c C02947257   4.970   3.466  12.130  0.6695  0.6385 -1.1946
  2554G12c H01047258   4.902   3.546  12.104 -0.2859  0.4207  0.6302
  2554G12c C02T47259   5.050   3.499  12.247 -1.5723  0.1579 -0.7558
  2554G12c H01O47260   5.030   3.595  12.292 -1.1701  1.6332 -3.6106
  2554G12c C02S47261   5.117   3.387  12.302  1.1512 -0.9183 -0.6884
  2554G12c O00J47262   5.195   3.392  12.417 -1.0793 -0.2362  2.3676
  2554G12c H01P47263   5.271   3.336  12.409  0.8842  2.7585 -3.6415
  2554G12c C02R47264   5.102   3.264  12.255  1.8408 -1.4866 -0.5073
  2554G12c O00I47265   5.157   3.171  12.344  0.0756  0.4263 -0.2675
  2554G12c C02Q47266   5.067   3.153  12.467  0.5551  0.8860 -0.8967
  2554G12c H01N47267   4.979   3.123  12.410 -1.3910  6.0458 -0.8760
  2554G12c H01R47268   5.043   3.229  12.541 -1.9756 -3.2361  2.8304
  2554G12c H01Q47269   5.114   3.082  12.535 -7.9230 -5.0449 -0.3548
  2554G12c C02A47270   5.068   3.247  12.115  0.1042 -0.9515  1.0405
  2554G12c H01147271   5.106   3.161  12.062 -0.7707 -0.4627 -0.4058
  2554G12c C00C47272   4.783   3.490  11.622  0.7490  0.4577 -0.1800
  2554G12c H01247273   4.792   3.402  11.561 -2.3352 -0.8674  1.1931
  2554G12c C00B47274   4.803   3.619  11.555  0.5852 -0.6198 -0.4056
  2554G12c C00A47275   4.851   3.631  11.417 -1.4719 -0.5423  0.0933
  2554G12c C00947276   4.933   3.535  11.348 -0.1625  3.0408 -0.2766
  2554G12c C00847277   5.016   3.428  11.378 -1.7410  1.2337 -1.0645
  2554G12c H01347278   5.016   3.363  11.464  2.5372  3.7379  1.0373
  2554G12c C00747279   5.106   3.371  11.272  1.7942  0.4077 -0.4631
  2554G12c H01447280   5.138   3.269  11.283 -2.5277 -1.1011 -1.0186
  2554G12c C00647281   5.152   3.453  11.165 -1.0357  1.7341  1.0534
  2554G12c C00547282   5.109   3.586  11.170 -0.6713 -0.5978 -1.2367
  2554G12c C00447283   5.181   3.699  11.132  0.0411 -1.1827 -0.7763
  2554G12c C00347284   5.156   3.826  11.172 -0.8389  0.4620  0.0294
  2554G12c C00247285   5.238   3.936  11.110 -1.1148  0.8244  0.4284
  2554G12c C00147286   5.216   4.089  11.104  0.2364 -1.7081 -0.5670
  2554G12c C00M47287   5.180   4.154  11.229 -0.4862  0.5400 -2.2237
  2554G12c C00L47288   5.076   4.104  11.312  1.5233  2.2052 -0.2746
  2554G12c C00R47289   5.014   4.173  11.431 -1.6917  0.3817 -0.0453
  2554G12c C00Q47290   5.065   4.279  11.509 -0.0072 -0.6036 -0.6863
  2554G12c C00V47291   4.995   4.292  11.635 -0.3052  1.4474  1.8470
  2554G12c C00U47292   4.888   4.201  11.668 -0.1235  1.1390 -0.4889
  2554G12c C00T47293   4.872   4.089  11.599 -1.5806  1.8253  0.0073
  2554G12c C01647294   4.803   3.977  11.633 -1.2910  0.4493 -0.4652
  2554G12c C01547295   4.766   3.969  11.775  0.0176 -0.1680  1.2509
  2554G12c C01047296   4.767   4.093  11.851 -0.2094 -0.1443  0.0904
  2554G12c C01147297   4.725   4.093  11.980  2.1040  0.8771 -0.9254
  2554G12c H00547298   4.681   4.185  12.016  6.3685  1.9207  1.9779
  2554G12c C01247299   4.669   3.976  12.045 -1.8502 -1.1863 -0.4430
  2554G12c C01747300   4.581   3.992  12.174 -0.2495 -0.0734 -0.9688
  2554G12c O00247301   4.629   4.000  12.305  0.7581 -0.6507  1.2756
  2554G12c H00447302   4.685   3.924  12.308 -2.8706 -3.5785 -0.4767
  2554G12c C01847303   4.450   3.996  12.167 -0.1724  0.9031 -0.0864
  2554G12c O00147304   4.397   4.005  12.039 -0.3737 -0.1821  0.7007
  2554G12c H00347305   4.302   4.004  12.042 -0.4323 -3.0504 -0.2528
  2554G12c C01947306   4.361   3.990  12.293  0.9247  1.4183 -0.1801
  2554G12c H00247307   4.407   3.997  12.392  3.2078 -1.7676 -0.9416
  2554G12c H00147308   4.317   4.090  12.300 -0.7688  0.4397  7.6487
  2554G12c O00047309   4.273   3.880  12.273 -0.3994 -0.5329 -0.7859
  2554G12c C01A47310   4.307   3.753  12.327 -0.8443  1.4449  1.2665
  2554G12c C02K47311   4.221   3.700  12.413  1.2494 -1.8784 -1.1604
  2554G12c O00G47312   4.102   3.776  12.438  0.9860 -1.2318 -1.3640
  2554G12c C02M47313   4.001   3.778  12.326  0.6025  0.3002 -1.0032
  2554G12c H01G47314   3.944   3.686  12.312 -3.8576  2.8257 -0.5035
  2554G12c H01F47315   3.908   3.829  12.353 -2.1389 -5.9441  2.2545
  2554G12c H01E47316   4.014   3.837  12.236  3.9335 -1.4564 -1.7307
  2554G12c C02J47317   4.227   3.575  12.450  1.3215  2.0920  0.1799
  2554G12c H01H47318   4.173   3.568  12.543  0.8878 -6.6755 -0.3520
  2554G12c C02I47319   4.321   3.483  12.425  0.1201  1.9895 -0.5176
  2554G12c C02N47320   4.324   3.361  12.494  0.4193  1.7250  0.6375
  2554G12c H01M47321   4.240   3.332  12.556  2.0126 -5.8223 -0.2545
  2554G12c C02O47322   4.419   3.272  12.490 -2.3310 -0.2045 -0.2863
  2554G12c H01L47323   4.494   3.293  12.415  2.6664  1.3550  4.7080
  2554G12c C02P47324   4.409   3.127  12.570 -0.4832 -1.9037 -0.9012
  2554G12c H01K47325   4.505   3.108  12.618  1.1118 -6.8577 -5.4954
  2554G12c H01J47326   4.336   3.151  12.647  0.4413  8.9896 -2.7101
  2554G12c O00H47327   4.361   3.057  12.468 -0.0770 -0.3085  0.1828
  2554G12c H01I47328   4.339   2.976  12.512 -1.3975  0.4974  1.0555
  2554G12c C02H47329   4.409   3.527  12.332 -0.3768  0.4434  1.2148
  2554G12c H01C47330   4.497   3.465  12.326  2.4872  3.5966  6.5621
  2554G12c C02L47331   4.399   3.660  12.289 -0.5280  0.9056  0.3464
  2554G12c H01D47332   4.475   3.698  12.223 -2.8483  1.4695 -2.1183
  2554G12c C01347333   4.684   3.849  11.963 -0.9174  0.1309 -2.2656
  2554G12c H00047334   4.629   3.778  12.023  0.0788 -3.0761 -5.0463
  2554G12c C01447335   4.715   3.852  11.826 -0.5468 -0.2027 -0.2010
  2554G12c C00F47336   4.706   3.742  11.754 -1.5410  1.0015  0.3639
  2554G12c C00H47337   4.793   3.870  11.563 -0.7405 -1.8132 -1.1240
  2554G12c C00I47338   4.839   3.872  11.433  0.2000 -0.9223  0.7579
  2554G12c C00J47339   4.895   3.990  11.379  0.4874 -1.4787 -2.3763
  2554G12c C00Z47340   4.826   4.207  11.794  2.0916  0.0321  0.3889
  2554G12c C00Y47341   4.851   4.328  11.859 -1.1427  0.5539  0.0273
  2554G12c H00647342   4.801   4.337  11.954  5.1673 -7.0424  4.6848
  2554G12c C00X47343   4.960   4.421  11.829 -0.1423 -1.0032 -0.6039
  2554G12c O00347344   4.968   4.526  11.915 -1.5451  0.7901 -0.5359
  2554G12c C01B47345   5.100   4.514  11.995  0.0460  0.3339 -1.1956
  2554G12c H00947346   5.181   4.485  11.928 -0.6865 -2.8731 -0.7901
  2554G12c H00847347   5.140   4.610  12.027  1.0897 -0.4463 -0.1151
  2554G12c H00747348   5.071   4.446  12.075  2.8155 -1.9229 -2.0149
  2554G12c C00W47349   5.034   4.404  11.715 -0.9221  1.2500  0.5115
  2554G12c O00447350   5.144   4.485  11.689  0.0530 -0.8130  0.6190
  2554G12c C01C47351   5.198   4.466  11.565  0.3478 -0.6610  0.4044
  2554G12c H00A47352   5.197   4.548  11.494  5.1203  1.3602  2.4937
  2554G12c C00P47353   5.188   4.353  11.487  0.6557 -0.0598  0.7321
  2554G12c C00O47354   5.294   4.343  11.387 -1.4107 -0.2272 -0.7933
  2554G12c C01D47355   5.414   4.427  11.390 -1.6765 -1.5421  0.7773
  2554G12c H00S47356   5.433   4.516  11.448  0.0899  0.5603 -2.8148
  2554G12c C01E47357   5.532   4.371  11.325 -0.2613 -2.3698  1.6127
  2554G12c O00847358   5.667   4.410  11.353  0.5628  0.0965 -0.1176
  2554G12c C01V47359   5.716   4.481  11.469 -0.7110 -0.8848 -1.0048
  2554G12c C01Z47360   5.764   4.394  11.588  0.6891 -0.1253  0.5769
  2554G12c H00R47361   5.817   4.435  11.674  0.3199 -2.8567  2.1505
  2554G12c H00Q47362   5.673   4.401  11.646  0.2382 -0.4866 -0.0774
  2554G12c O00947363   5.763   4.262  11.538 -0.0790 -1.0390  0.5900
  2554G12c H00P47364   5.748   4.284  11.447  2.8012 -2.8023 -0.3767
  2554G12c C01W47365   5.734   4.610  11.455 -0.4314  1.0346  0.0518
  2554G12c H00O47366   5.748   4.668  11.545  0.3658  4.6418 -2.2695
  2554G12c C01X47367   5.697   4.685  11.331 -0.7186  0.6429 -0.0027
  2554G12c H00N47368   5.635   4.620  11.270 -2.4706  2.6868 -0.4387
  2554G12c H00M47369   5.651   4.782  11.349  0.7932  2.1865 -3.9419
  2554G12c C01Y47370   5.814   4.725  11.239 -0.1988  0.9902 -0.1868
  2554G12c C02D47371   5.897   4.826  11.275 -0.0071  0.6510 -0.4036
  2554G12c H01947372   5.904   4.893  11.360  0.1024 -4.2832  3.7407
  2554G12c C02C47373   6.008   4.849  11.189 -0.7161  1.0016 -0.9008
  2554G12c H01A47374   6.059   4.942  11.209  0.5448 -0.7478  4.9153
  2554G12c C02B47375   5.995   4.794  11.057  0.6709  1.7991  1.4706
  2554G12c O00E47376   6.066   4.869  10.971  1.0426 -0.3564  0.5451
  2554G12c H01B47377   6.011   4.845  10.897 -2.6629  0.6058  2.8638
  2554G12c C02F47378   5.919   4.693  11.027  2.0335 -0.1270  0.1895
  2554G12c O00F47379   5.925   4.666  10.892 -1.3599 -0.4381 -1.4896
  2554G12c C02G47380   5.823   4.620  10.803 -0.2134  2.6869  1.1565
  2554G12c H01747381   5.726   4.671  10.796 -0.7028  1.4411 -1.6453
  2554G12c H01647382   5.874   4.618  10.707  0.4685 -4.5880  1.4135
  2554G12c H01547383   5.792   4.520  10.833  1.0913  2.7194  2.6826
  2554G12c C02E47384   5.826   4.649  11.122 -2.9095  2.6138 -1.9026
  2554G12c H01847385   5.772   4.572  11.069  7.7550 -9.1925  1.8528
  2554G12c C01F47386   5.507   4.271  11.231 -0.8156  0.3779  0.2131
  2554G12c C01G47387   5.605   4.178  11.194  1.1430 -0.5703 -0.4454
  2554G12c H00L47388   5.688   4.182  11.263  2.7011  1.2932 -2.3599
  2554G12c C01H47389   5.567   4.053  11.122  0.4011  0.3945  0.6563
  2554G12c H00B47390   5.652   3.995  11.090 -4.5305 -5.5776 -2.6066
  2554G12c C01I47391   5.436   4.026  11.076  0.4309 -0.4381  0.9643
  2554G12c C01U47392   5.378   4.237  11.182 -1.7865 -0.2927  0.4880
  2554G12c C00S47393   4.905   4.113  11.458 -0.2394  1.3343  1.6059
  2554G12c C00K47394   5.012   3.984  11.301 -0.0479 -0.8152 -0.0210
  2554G12c C00N47395   5.289   4.255  11.280  1.7073 -0.5539  0.6382
  2554G12c C00047396   5.349   4.136  11.076  2.1808 -0.5154  0.9034
  2554G12c C01J47397   5.356   3.908  11.055 -0.2965  0.7472  1.5130
  2554G12c C01K47398   5.391   3.774  11.008 -1.0743 -1.5541 -0.4637
  2554G12c C01P47399   5.492   3.725  10.933 -1.4436 -0.1547 -0.5141
  2554G12c C01Q47400   5.561   3.826  10.859 -0.8080  0.0835 -1.0635
  2554G12c H00G47401   5.494   3.903  10.825 -0.5627  0.9945  0.4720
  2554G12c C01R47402   5.687   3.818  10.821  1.8231  1.1108 -1.1145
  2554G12c H00F47403   5.700   3.893  10.744 -1.3479  2.3540 -0.5129
  2554G12c C01S47404   5.807   3.725  10.863  1.6856 -0.1101 -0.1413
  2554G12c H00E47405   5.809   3.643  10.791  0.5553 -1.4983  1.3665
  2554G12c H00D47406   5.908   3.765  10.878  1.9133 -1.3169  1.7906
  2554G12c O00547407   5.777   3.683  10.984  1.1163 -1.0972 -1.6361
  2554G12c H00C47408   5.691   3.700  11.019  1.7121 -6.3207  3.2031
  2554G12c C01O47409   5.512   3.592  10.897 -1.6377  0.3598 -1.8323
  2554G12c H00H47410   5.582   3.546  10.829 -4.6551 -3.3878 -2.5410
  2554G12c C01N47411   5.421   3.511  10.939 -0.3813 -0.5019  0.4556
  2554G12c O00647412   5.434   3.391  10.886  0.1064  1.0698  0.7284
  2554G12c C01T47413   5.534   3.283  10.928  0.0843 -0.1140 -0.4668
  2554G12c H00K47414   5.624   3.292  10.868 -2.2247  1.5062 -3.7987
  2554G12c H00J47415   5.460   3.203  10.928 -1.0037  0.8460  1.8308
  2554G12c H00I47416   5.550   3.322  11.029  2.9652 -1.0191 -0.5433
  2554G12c C01M47417   5.321   3.542  11.029  3.0399  0.7452  2.0476
  2554G12c C02047418   5.033   3.858  11.218 -0.7481  0.6735 -2.1288
  2554G12c C02147419   4.946   3.741  11.252  0.9469 -0.5379  1.8242
  2554G12c C01L47420   5.304   3.673  11.066  0.7195  0.3341  0.0520
  2554G12c O00747421   5.242   3.439  11.067  0.3748  0.3924  1.6130
  2554G12c C02247422   4.975   3.607  11.230 -1.6675  1.0210 -0.2628
  2554G12c C02347423   4.870   3.750  11.367 -1.4463  0.8451  1.2621
  2554G12c C00G47424   4.758   3.747  11.632 -0.4384 -0.1152  1.7891
  2554G12c C00E47425   4.675   3.610  11.809  2.1866  1.7584 -1.0983
  2554G12c O00A47426   4.575   3.589  11.904  0.6281  0.1204  0.9148
  2554G12c C02447427   4.431   3.595  11.877 -0.7544  0.8260  0.3137
  2554G12c H00V47428   4.428   3.646  11.781 -5.2906  3.1109  1.5291
  2554G12c H00U47429   4.342   3.611  11.936  1.9740  0.6036  4.7129
  2554G12c H00T47430   4.416   3.502  11.822 -1.3432  2.0074 -1.5683
  2564G12c C00D47431   8.101   5.157   1.403  0.5107 -0.7136  1.5168
  2564G12c O00B47432   8.220   5.154   1.483 -0.6870 -1.2551 -1.1865
  2564G12c C02547433   8.214   5.137   1.628 -0.1977  1.8635  1.9209
  2564G12c C02647434   8.223   4.987   1.662 -0.8964  0.3915 -0.8615
  2564G12c H00Y47435   8.234   4.939   1.565  7.6853 -3.4942  1.4871
  2564G12c H00X47436   8.132   4.936   1.692  0.3102 -1.0289  0.4933
  2564G12c O00C47437   8.355   4.963   1.737 -1.3641  1.6369 -0.8875
  2564G12c H00W47438   8.402   4.960   1.655 -3.6953 -3.8889 -2.2354
  2564G12c C02747439   8.209   5.248   1.713  0.1520 -1.6815 -1.1326
  2564G12c O00D47440   8.186   5.367   1.646 -0.3273 -0.3580 -0.6273
  2564G12c H00Z47441   8.105   5.347   1.602 -1.8990  5.3731 -0.7074
  2564G12c C02847442   8.201   5.233   1.869  1.4266 -1.6444 -1.0672
  2564G12c C02947443   8.240   5.350   1.940  1.8199  0.6609 -2.0676
  2564G12c H01047444   8.273   5.426   1.871  3.8867  2.0104  0.3459
  2564G12c C02T47445   8.276   5.344   2.083 -0.1423 -0.9395  0.2650
  2564G12c H01O47446   8.310   5.444   2.107  3.1079 -1.3466 -2.2805
  2564G12c C02S47447   8.268   5.241   2.173 -0.2260  0.1853 -0.2646
  2564G12c O00J47448   8.308   5.267   2.303  1.4870  0.7125  0.6193
  2564G12c H01P47449   8.355   5.197   2.345 -2.3488 -3.0897 -1.0018
  2564G12c C02R47450   8.209   5.124   2.106 -0.7087  1.6006  0.3783
  2564G12c O00I47451   8.175   5.018   2.182  0.8842 -1.1173  0.5258
  2564G12c C02Q47452   8.245   4.893   2.168  0.4655 -1.0615 -1.5330
  2564G12c H01N47453   8.345   4.936   2.158 -1.1259  5.9085  6.5875
  2564G12c H01R47454   8.188   4.845   2.088 -1.7592  3.8904 -3.0746
  2564G12c H01Q47455   8.262   4.868   2.273 12.0192 -3.2236 -3.1694
  2564G12c C02A47456   8.192   5.126   1.966  0.3642 -0.2617  0.4369
  2564G12c H01147457   8.150   5.038   1.919 -0.5574 -2.8074  5.5916
  2564G12c C00C47458   7.996   5.218   1.467  1.2814  1.3102 -0.4507
  2564G12c H01247459   7.992   5.214   1.575  6.1329 -0.1173 -0.2448
  2564G12c C00B47460   7.887   5.272   1.389  1.9031  1.1161 -1.0989
  2564G12c C00A47461   7.760   5.308   1.445  0.8509  0.4221 -2.2544
  2564G12c C00947462   7.671   5.283   1.557 -3.1883  0.0473 -2.7506
  2564G12c C00847463   7.687   5.174   1.651  2.9228  0.0253 -2.0541
  2564G12c H01347464   7.787   5.135   1.648  2.9296 -0.6473  2.9848
  2564G12c C00747465   7.555   5.144   1.718  2.0701  0.6365  0.2147
  2564G12c H01447466   7.562   5.056   1.780  1.0737  1.0835  0.9756
  2564G12c C00647467   7.443   5.227   1.691 -0.2462  1.4989  1.1494
  2564G12c C00547468   7.445   5.308   1.569 -0.3894  1.0566  1.0049
  2564G12c C00447469   7.321   5.358   1.520  1.2155  1.0049  1.2695
  2564G12c C00347470   7.327   5.445   1.408  1.0958 -2.4293  0.1314
  2564G12c C00247471   7.207   5.454   1.331  1.5829  0.5040 -1.9614
  2564G12c C00147472   7.173   5.493   1.194 -1.3103  1.5677  0.3718
  2564G12c C00M47473   7.246   5.464   1.071 -0.4020 -1.2250 -0.4679
  2564G12c C00L47474   7.387   5.486   1.062 -0.9310 -0.7853  0.1822
  2564G12c C00R47475   7.462   5.454   0.961 -0.7558  0.1092  1.8077
  2564G12c C00Q47476   7.410   5.362   0.856 -0.8388 -0.2182  0.0831
  2564G12c C00V47477   7.519   5.320   0.778  0.8132 -0.2225  1.0957
  2564G12c C00U47478   7.648   5.287   0.840 -0.2159  0.9509 -0.9654
  2564G12c C00T47479   7.690   5.343   0.956 -0.6169  1.2086 -0.4975
  2564G12c C01647480   7.797   5.298   1.027  0.1048 -0.5481 -0.1938
  2564G12c C01547481   7.880   5.199   0.978  0.5443 -0.0072  1.4958
  2564G12c C01047482   7.871   5.189   0.839 -0.8942  0.9344 -0.1144
  2564G12c C01147483   7.987   5.115   0.769 -1.5878  0.3194  0.2565
  2564G12c H00547484   7.988   5.103   0.662 -5.4055  3.1452 -0.2139
  2564G12c C01247485   8.097   5.082   0.850 -0.5960  1.1544  0.0554
  2564G12c C01747486   8.215   5.013   0.786  0.6046  1.4021  1.5866
  2564G12c O00247487   8.308   5.104   0.748 -0.6291 -0.2217 -0.7955
  2564G12c H00447488   8.257   5.183   0.758 -0.2423  0.1351 -1.6493
  2564G12c C01847489   8.227   4.874   0.777 -0.8618  0.7708  1.6515
  2564G12c O00147490   8.142   4.795   0.821 -0.5216 -1.8202  0.7952
  2564G12c H00347491   8.103   4.830   0.900  5.1894  4.6369  1.2312
  2564G12c C01947492   8.385   4.842   0.765  1.6501  0.2895 -0.0708
  2564G12c H00247493   8.416   4.852   0.661 -1.6096 -7.1375 -2.0513
  2564G12c H00147494   8.438   4.921   0.818  4.8672  0.1683 -3.0112
  2564G12c O00047495   8.436   4.757   0.851 -0.7535  0.1797 -1.1983
  2564G12c C01A47496   8.536   4.682   0.802 -0.2557  0.8865  0.6360
  2564G12c C02K47497   8.501   4.556   0.729  0.1022 -1.3606 -0.1885
  2564G12c O00G47498   8.375   4.502   0.724 -0.1597 -0.1767  1.3473
  2564G12c C02M47499   8.338   4.399   0.662  1.0720 -1.3607 -1.2766
  2564G12c H01G47500   8.400   4.311   0.651  1.0534 -1.8582  2.0764
  2564G12c H01F47501   8.299   4.422   0.563 -2.5105 -0.1854  0.2977
  2564G12c H01E47502   8.245   4.370   0.711 -1.6364  2.8895 -3.5415
  2564G12c C02J47503   8.615   4.476   0.686 -0.5740 -0.9133 -1.4277
  2564G12c H01H47504   8.579   4.374   0.675 -4.2038  0.1238  0.1759
  2564G12c C02I47505   8.754   4.512   0.692  1.2015 -1.2894  1.4968
  2564G12c C02N47506   8.845   4.409   0.647 -0.2153  0.3168  0.2739
  2564G12c H01M47507   8.802   4.311   0.632  0.8805  0.1360 -1.8835
  2564G12c C02O47508   8.972   4.440   0.610  0.4739 -1.1861  0.7131
  2564G12c H01L47509   8.975   4.548   0.600 -1.1776 -1.1728  0.3534
  2564G12c C02P47510   9.093   4.344   0.595  0.2044  0.4322  0.6175
  2564G12c H01K47511   9.183   4.357   0.655  0.8017  1.2120 -0.4297
  2564G12c H01J47512   9.065   4.240   0.614 -3.5548  1.1765 -0.4606
  2564G12c O00H47513   9.146   4.351   0.459 -1.4217 -0.0736  0.1385
  2564G12c H01I47514   9.083   4.389   0.400  1.6182 -1.7548 -4.4469
  2564G12c C02H47515   8.775   4.643   0.752 -0.6244  0.3702 -0.3015
  2564G12c H01C47516   8.869   4.695   0.743  1.2183 -3.3501 -4.8135
  2564G12c C02L47517   8.672   4.717   0.821  0.7814  0.6236  1.4850
  2564G12c H01D47518   8.678   4.814   0.870 -2.2646 -1.0120  5.4023
  2564G12c C01347519   8.101   5.098   0.977 -0.0793 -0.3113 -0.7538
  2564G12c H00047520   8.193   5.052   1.009 -1.3913 -2.5653 -0.0777
  2564G12c C01447521   7.991   5.153   1.048 -0.6942 -0.0184  1.8498
  2564G12c C00F47522   8.005   5.192   1.176 -1.4596 -0.6149 -1.7706
  2564G12c C00H47523   7.808   5.337   1.164  0.7769 -0.5221 -3.7165
  2564G12c C00I47524   7.701   5.412   1.229  1.1836  1.6997 -1.3330
  2564G12c C00J47525   7.600   5.453   1.145 -0.7457  0.0365 -1.1877
  2564G12c C00Z47526   7.754   5.237   0.775  0.3661  0.5065 -0.7210
  2564G12c C00Y47527   7.735   5.210   0.647 -0.2411 -1.6046  1.6061
  2564G12c H00647528   7.831   5.193   0.600 -1.3444  1.9015 -2.1729
  2564G12c C00X47529   7.612   5.211   0.576  0.6787  1.0154  0.5276
  2564G12c O00347530   7.603   5.191   0.430 -0.4696  1.5655  1.1653
  2564G12c C01B47531   7.718   5.169   0.352 -0.2897  0.5527 -0.3437
  2564G12c H00947532   7.678   5.135   0.257 -4.5540  0.4755  1.4055
  2564G12c H00847533   7.756   5.075   0.391 -2.4436  0.0963  0.7138
  2564G12c H00747534   7.794   5.244   0.330 -0.2260  0.2913 -1.0274
  2564G12c C00W47535   7.498   5.261   0.646 -1.1428  0.1821  0.1119
  2564G12c O00447536   7.370   5.260   0.586  0.2883  0.4408 -0.3817
  2564G12c C01C47537   7.301   5.219   0.698  0.1246 -0.9842 -0.4847
  2564G12c H00A47538   7.312   5.124   0.748 -0.7473  1.4441  4.6572
  2564G12c C00P47539   7.293   5.290   0.807 -2.7027  0.0950  0.1315
  2564G12c C00O47540   7.171   5.301   0.874  1.1293  0.3588  0.6290
  2564G12c C01D47541   7.068   5.207   0.848  0.0303 -0.4280  0.0656
  2564G12c H00S47542   7.085   5.103   0.824 -1.0963 -2.2203  6.1728
  2564G12c C01E47543   6.956   5.197   0.917  0.4982  0.7666  0.0097
  2564G12c O00847544   6.864   5.094   0.879  0.2842 -0.3920  1.2900
  2564G12c C01V47545   6.732   5.090   0.907 -0.8731 -1.5055 -0.2180
  2564G12c C01Z47546   6.670   5.223   0.861  0.0300 -1.4970  0.3994
  2564G12c H00R47547   6.738   5.244   0.779 -2.1815 -4.7979 -2.4152
  2564G12c H00Q47548   6.657   5.319   0.912  0.0580 -1.5267  0.4632
  2564G12c O00947549   6.540   5.228   0.810  1.5013  0.8849 -1.8900
  2564G12c H00P47550   6.467   5.252   0.866 -3.3234  0.1257 -7.3160
  2564G12c C01W47551   6.669   4.972   0.947  1.0726  0.0146  2.1921
  2564G12c H00O47552   6.703   4.870   0.955 -4.5268 -2.5929 -3.3986
  2564G12c C01X47553   6.521   4.964   0.956 -0.2695  0.8362  0.9663
  2564G12c H00N47554   6.501   4.958   1.063  1.0000 -5.7736  1.0075
  2564G12c H00M47555   6.494   5.069   0.945 -3.8491  0.2364  3.2776
  2564G12c C01Y47556   6.470   4.883   0.839  1.0073  0.3205  1.6383
  2564G12c C02D47557   6.381   4.780   0.846 -1.2561  0.4366 -1.4663
  2564G12c H01947558   6.323   4.778   0.937  0.0959 -1.4683 -0.6240
  2564G12c C02C47559   6.359   4.696   0.746  0.5647 -0.9576 -0.5927
  2564G12c H01A47560   6.292   4.611   0.737 -1.6075  0.3229  2.7072
  2564G12c C02B47561   6.413   4.710   0.623 -0.0389  0.7329 -0.9103
  2564G12c O00E47562   6.382   4.643   0.511 -0.6722 -0.6880 -0.7752
  2564G12c H01B47563   6.433   4.674   0.437 -2.9363  6.0244  0.1171
  2564G12c C02F47564   6.506   4.817   0.606 -1.6265  0.0454 -0.8447
  2564G12c O00F47565   6.555   4.849   0.491  0.8866 -2.4680 -0.0838
  2564G12c C02G47566   6.709   4.831   0.508 -0.8659  0.6225  0.5359
  2564G12c H01747567   6.742   4.760   0.433 -4.6653 -2.7593  1.8772
  2564G12c H01647568   6.757   4.914   0.456 -0.8550  1.8512  2.4390
  2564G12c H01547569   6.759   4.811   0.603  3.5563  7.2109 -0.0325
  2564G12c C02E47570   6.539   4.897   0.712  2.0542 -0.9280  1.5248
  2564G12c H01847571   6.604   4.983   0.704  0.9870 -0.0617  2.0448
  2564G12c C01F47572   6.939   5.277   1.036 -0.0549 -0.3208 -0.3495
  2564G12c C01G47573   6.863   5.244   1.142 -1.1658  1.0434  1.9129
  2564G12c H00L47574   6.779   5.176   1.136  2.8674 -3.9289 -3.4354
  2564G12c C01H47575   6.866   5.306   1.262 -0.7085  0.1653 -0.8509
  2564G12c H00B47576   6.803   5.274   1.345  0.7469  5.3178  2.4624
  2564G12c C01I47577   6.979   5.396   1.294  0.1098  0.5977 -0.6068
  2564G12c C01U47578   7.022   5.387   1.061  0.7785  0.0820  0.2779
  2564G12c C00S47579   7.600   5.431   1.009  1.2825  1.1419  0.5474
  2564G12c C00K47580   7.473   5.487   1.187 -0.4054  1.3835  0.7388
  2564G12c C00N47581   7.152   5.385   0.989 -0.7215 -0.4625  1.5293
  2564G12c C00047582   7.039   5.455   1.171  0.3962 -1.0858 -0.8041
  2564G12c C01J47583   7.076   5.430   1.400  1.3172  0.0142 -0.9176
  2564G12c C01K47584   7.058   5.357   1.527 -0.1325  0.1909 -0.5893
  2564G12c C01P47585   6.949   5.349   1.613 -0.9798  0.3857 -1.2327
  2564G12c C01Q47586   6.826   5.417   1.592  0.6141  0.9511 -1.1352
  2564G12c H00G47587   6.813   5.520   1.561  3.9632  1.3612 -1.4112
  2564G12c C01R47588   6.701   5.373   1.645  1.2076 -0.1049  0.4527
  2564G12c H00F47589   6.702   5.269   1.675  1.4592  0.6689  3.3223
  2564G12c C01S47590   6.572   5.459   1.651  0.7015  0.9833 -1.0499
  2564G12c H00E47591   6.499   5.405   1.591 -1.5234 -0.8038  3.0138
  2564G12c H00D47592   6.538   5.454   1.755  0.2072  2.7077 -1.1191
  2564G12c O00547593   6.588   5.590   1.582  0.8590 -0.0665  0.3542
  2564G12c H00C47594   6.591   5.577   1.488  0.9870 -4.2062  0.8677
  2564G12c C01O47595   6.984   5.268   1.713  0.1954  0.3698 -1.4304
  2564G12c H00H47596   6.905   5.237   1.778  2.5907 -2.8010  0.1171
  2564G12c C01N47597   7.093   5.182   1.739 -0.0684  0.0452  0.2329
  2564G12c O00647598   7.093   5.098   1.835 -0.3924  0.7863 -0.0045
  2564G12c C01T47599   6.998   4.990   1.829 -1.6693  1.0188  0.3973
  2564G12c H00K47600   6.980   4.965   1.724 -1.3773  6.5766 -1.1188
  2564G12c H00J47601   6.917   5.039   1.883 -2.0917  2.8505 -1.8094
  2564G12c H00I47602   7.032   4.894   1.868  2.2484  1.6690 -1.2088
  2564G12c C01M47603   7.212   5.218   1.680 -0.8412 -1.8741  0.7531
  2564G12c C02047604   7.453   5.449   1.334  0.5859  2.2035  0.0891
  2564G12c C02147605   7.559   5.438   1.422  0.7555  0.1254 -0.3747
  2564G12c C01L47606   7.187   5.297   1.561  0.1318 -0.3400 -0.2145
  2564G12c O00747607   7.328   5.191   1.756 -0.3420  0.7419 -0.6789
  2564G12c C02247608   7.556   5.390   1.550 -2.1135  0.0818  0.0525
  2564G12c C02347609   7.687   5.392   1.363 -1.0695  0.4879 -1.3334
  2564G12c C00G47610   7.895   5.259   1.245  0.9915  1.5374 -0.2362
  2564G12c C00E47611   8.108   5.139   1.261 -1.1963  0.1543 -0.4025
  2564G12c O00A47612   8.226   5.090   1.205  0.0544 -0.8896  0.2287
  2564G12c C02447613   8.240   4.943   1.229 -0.8022 -0.0396  0.5624
  2564G12c H00V47614   8.211   4.886   1.141  4.0249 -1.1200 -0.4825
  2564G12c H00U47615   8.346   4.932   1.255 -1.1693  5.5016  5.5410
  2564G12c H00T47616   8.213   4.918   1.331  1.1050  1.0952  1.3738
  2574G12c C00D47617   3.780  11.920   3.664 -1.1975 -0.1978  0.0126
  2574G12c O00B47618   3.809  11.998   3.770  0.1299 -0.0469  0.7769
  2574G12c C02547619   3.889  12.115   3.767 -2.7668  0.7268  0.4769
  2574G12c C02647620   4.044  12.099   3.742  0.6739 -0.0349 -0.4624
  2574G12c H00Y47621   4.092  12.154   3.823 -4.1512  2.2422  1.0939
  2574G12c H00X47622   4.063  12.131   3.639  7.7759  2.4650  1.3061
  2574G12c O00C47623   4.089  11.972   3.760  0.3921  0.1610  0.2003
  2574G12c H00W47624   4.030  11.939   3.826  0.3754  3.7164  2.0959
  2574G12c C02747625   3.832  12.228   3.769  0.8513  1.3205 -0.6020
  2574G12c O00D47626   3.701  12.252   3.766 -1.4047  0.1871 -1.2128
  2574G12c H00Z47627   3.653  12.281   3.842 -2.5668  1.0079 -2.2579
  2574G12c C02847628   3.921  12.345   3.761 -0.9742  0.6704 -0.3146
  2574G12c C02947629   3.985  12.400   3.865 -0.7456  0.0107 -1.4699
  2574G12c H01047630   3.927  12.396   3.956 -0.4249  1.4923 -1.1828
  2574G12c C02T47631   4.076  12.504   3.878 -0.2929 -0.5338 -0.0542
  2574G12c H01O47632   4.102  12.548   3.974 -3.2188  1.3279 -0.0285
  2574G12c C02S47633   4.125  12.528   3.748  1.5464  1.6571 -1.2764
  2574G12c O00J47634   4.246  12.598   3.739 -0.8369  0.3721  0.5891
  2574G12c H01P47635   4.236  12.684   3.702 -2.3812 -0.1999 -0.3992
  2574G12c C02R47636   4.042  12.495   3.632 -0.9374  0.9285  0.5987
  2574G12c O00I47637   4.065  12.532   3.507 -0.8809  0.6283  0.2445
  2574G12c C02Q47638   4.199  12.558   3.459  0.7098  0.5350  0.2440
  2574G12c H01N47639   4.241  12.657   3.478  2.4665 -0.3746  1.2459
  2574G12c H01R47640   4.255  12.479   3.509  1.1545  3.3408  4.4130
  2574G12c H01Q47641   4.201  12.559   3.350 -0.8330  0.4343  0.2123
  2574G12c C02A47642   3.950  12.398   3.638 -1.7916 -0.8838  0.2293
  2574G12c H01147643   3.895  12.346   3.562 -5.2432  4.3389 -1.1023
  2574G12c C00C47644   3.826  11.946   3.535  0.4014  0.1740  0.3652
  2574G12c H01247645   3.899  12.025   3.525  1.9538 -1.4601 -1.9145
  2574G12c C00B47646   3.773  11.874   3.429  0.3313 -0.7670  0.1790
  2574G12c C00A47647   3.828  11.898   3.304 -0.3071  0.4489  1.0127
  2574G12c C00947648   3.785  12.011   3.235  0.8033  0.3753 -0.0468
  2574G12c C00847649   3.728  12.137   3.275 -0.3420  0.1180 -0.5815
  2574G12c H01347650   3.719  12.169   3.378  1.5637  4.0720 -1.5554
  2574G12c C00747651   3.675  12.241   3.192  0.5026  0.6995 -0.4778
  2574G12c H01447652   3.625  12.335   3.209 -1.3603 -0.3618  0.0452
  2574G12c C00647653   3.646  12.195   3.065  0.8143  0.8876  0.0239
  2574G12c C00547654   3.703  12.065   3.015 -0.5805  0.8304  0.4797
  2574G12c C00447655   3.662  12.004   2.888 -2.9383 -0.7958 -1.2274
  2574G12c C00347656   3.682  11.869   2.866 -1.8238 -0.5796 -1.3861
  2574G12c C00247657   3.630  11.803   2.757 -0.2185 -1.4879  0.1367
  2574G12c C00147658   3.608  11.672   2.697  0.3140  1.6377 -0.3526
  2574G12c C00M47659   3.560  11.571   2.771  3.0391  2.1932 -0.0267
  2574G12c C00L47660   3.620  11.544   2.901  0.1410  0.7866  0.7987
  2574G12c C00R47661   3.576  11.448   2.995 -0.0331  0.7324  0.3704
  2574G12c C00Q47662   3.460  11.379   3.013  0.7095 -1.2073 -0.7364
  2574G12c C00V47663   3.433  11.328   3.146  0.9668 -0.9749 -0.6697
  2574G12c C00U47664   3.499  11.360   3.255 -0.4172 -0.5693 -1.0584
  2574G12c C00T47665   3.578  11.474   3.249  0.4210  1.1264 -0.4624
  2574G12c C01647666   3.631  11.542   3.357  0.5230 -0.8987  1.0201
  2574G12c C01547667   3.575  11.507   3.478  1.1315 -1.4901 -1.4169
  2574G12c C01047668   3.469  11.411   3.492 -0.7036 -1.1456  0.6558
  2574G12c C01147669   3.411  11.397   3.628  0.3747 -0.1992 -2.6432
  2574G12c H00547670   3.320  11.340   3.628 -0.0660  0.0402  3.8933
  2574G12c C01247671   3.485  11.448   3.743  0.4539 -1.8908 -0.0933
  2574G12c C01747672   3.433  11.431   3.878  0.3605 -0.2518  1.1452
  2574G12c O00247673   3.468  11.506   3.980  0.5214  0.3412 -0.0342
  2574G12c H00447674   3.446  11.587   4.023  1.4677  1.0377 -0.8402
  2574G12c C01847675   3.345  11.331   3.892 -0.1449 -0.7281  0.0284
  2574G12c O00147676   3.294  11.243   3.799  0.9183 -0.8487 -1.3151
  2574G12c H00347677   3.204  11.243   3.829  0.1600  0.7980 -3.5007
  2574G12c C01947678   3.282  11.285   4.000  2.5138  1.8626  1.2981
  2574G12c H00247679   3.370  11.230   4.032 -0.4122 -0.8520  5.2042
  2574G12c H00147680   3.274  11.356   4.082 -3.1659  1.8482  0.9633
  2574G12c O00047681   3.145  11.234   3.963  0.9717 -1.4251  0.4746
  2574G12c C01A47682   3.064  11.210   4.069  1.7967 -0.1421  0.9350
  2574G12c C02K47683   2.938  11.170   4.034  1.0843 -0.1875 -1.3802
  2574G12c O00G47684   2.917  11.101   3.912  2.0361  0.1138  0.0567
  2574G12c C02M47685   2.836  11.183   3.816 -0.0818  0.0078  0.9508
  2574G12c H01G47686   2.728  11.190   3.807 -0.5967 -0.2458  5.6824
  2574G12c H01F47687   2.859  11.286   3.843  2.9721 -0.5516  0.6730
  2574G12c H01E47688   2.856  11.144   3.716  3.5810 -2.4851  2.5551
  2574G12c C02J47689   2.833  11.157   4.139  0.8076  0.9994  0.1982
  2574G12c H01H47690   2.731  11.123   4.132  1.8102 -3.9949  5.6455
  2574G12c C02I47691   2.863  11.204   4.270 -0.3169 -0.2645 -0.3367
  2574G12c C02N47692   2.734  11.213   4.343 -0.2919 -1.1211  0.4702
  2574G12c H01M47693   2.723  11.110   4.374  3.7382  0.3151  7.9120
  2574G12c C02O47694   2.681  11.335   4.346 -0.7962 -0.7465 -0.7322
  2574G12c H01L47695   2.613  11.350   4.429  4.5767 -0.7593  4.0513
  2574G12c C02P47696   2.764  11.470   4.318  1.7335  0.6665  2.5984
  2574G12c H01K47697   2.684  11.544   4.307  3.9906  3.6629  5.6333
  2574G12c H01J47698   2.839  11.501   4.390  3.9739 -1.9848  1.5063
  2574G12c O00H47699   2.782  11.502   4.187 -2.2766  0.2182  0.6610
  2574G12c H01I47700   2.868  11.502   4.147 -4.5358 -0.7065 -4.5390
  2574G12c C02H47701   2.993  11.216   4.303 -1.2934 -0.0527 -0.4720
  2574G12c H01C47702   3.037  11.238   4.399 -6.6560  6.5895  0.8708
  2574G12c C02L47703   3.094  11.225   4.207 -1.4262 -0.0962  0.0070
  2574G12c H01D47704   3.197  11.236   4.239 -1.3452  0.7502 -0.5183
  2574G12c C01347705   3.597  11.522   3.717 -0.2097  1.4291  0.3999
  2574G12c H00047706   3.649  11.560   3.804  5.1214 -2.7857 -0.6835
  2574G12c C01447707   3.633  11.569   3.593  1.1006 -2.0709  0.7037
  2574G12c C00F47708   3.692  11.696   3.586 -0.4337 -0.6294  0.5141
  2574G12c C00H47709   3.720  11.653   3.343  0.2592 -0.5004 -0.3020
  2574G12c C00I47710   3.751  11.691   3.211 -0.2578 -0.7160 -0.0815
  2574G12c C00J47711   3.710  11.613   3.112 -1.0862  0.0133 -0.0408
  2574G12c C00Z47712   3.451  11.342   3.380 -0.6897  0.3222 -0.9795
  2574G12c C00Y47713   3.375  11.220   3.396  0.5557  1.4437  1.3047
  2574G12c H00647714   3.348  11.153   3.476 -0.5469  2.4502  1.7935
  2574G12c C00X47715   3.337  11.142   3.282  1.4075  0.2680 -0.1748
  2574G12c O00347716   3.246  11.036   3.278 -0.0902  0.0439  0.7806
  2574G12c C01B47717   3.265  10.949   3.172  1.6829  0.1953  0.9381
  2574G12c H00947718   3.210  10.949   3.078 -0.8327  3.1362  2.3251
  2574G12c H00847719   3.213  10.855   3.193  0.2328  0.2186 -2.1697
  2574G12c H00747720   3.370  10.942   3.143  2.1867 -3.6937  3.2314
  2574G12c C00W47721   3.341  11.210   3.162  1.1180 -0.5025 -0.0072
  2574G12c O00447722   3.264  11.174   3.058  0.7271  0.8657  0.1458
  2574G12c C01C47723   3.229  11.275   2.974 -0.7678 -0.2039 -0.0760
  2574G12c H00A47724   3.153  11.326   3.031  2.2223 -2.3860  6.3988
  2574G12c C00P47725   3.346  11.350   2.905  0.5367  1.0284 -0.2504
  2574G12c C00O47726   3.346  11.412   2.772  0.4965  0.6184 -0.7036
  2574G12c C01D47727   3.222  11.413   2.683  1.3649  0.4402 -2.2769
  2574G12c H00S47728   3.132  11.362   2.713  2.2551  3.6558  7.7486
  2574G12c C01E47729   3.184  11.526   2.595  0.2553 -0.2427 -0.7778
  2574G12c O00847730   3.051  11.574   2.555 -0.6594  0.3376 -0.0854
  2574G12c C01V47731   2.966  11.476   2.586  2.5773  0.1983  1.4999
  2574G12c C01Z47732   2.990  11.358   2.498 -0.7302  1.1566  0.3460
  2574G12c H00R47733   2.979  11.429   2.415 -0.2232 -0.3351 -1.0221
  2574G12c H00Q47734   3.085  11.314   2.469 -1.7795 -2.3731  2.0096
  2574G12c O00947735   2.899  11.255   2.486 -0.1468  0.0251  0.1767
  2574G12c H00P47736   2.905  11.200   2.410  0.5234 -1.1055  1.0178
  2574G12c C01W47737   2.897  11.478   2.711 -0.8571  1.1426  0.1634
  2574G12c H00O47738   2.836  11.398   2.749  2.6508  0.1274  4.0059
  2574G12c C01X47739   2.881  11.606   2.782 -1.9759  1.0123 -0.7130
  2574G12c H00N47740   2.959  11.669   2.742 -3.3232  0.5449 -4.2344
  2574G12c H00M47741   2.787  11.660   2.769 -2.6470 -1.2239 -6.6958
  2574G12c C01Y47742   2.908  11.568   2.946 -1.0192 -0.0718  0.4799
  2574G12c C02D47743   3.039  11.581   3.008 -1.0860 -0.3158  0.5272
  2574G12c H01947744   3.113  11.633   2.948 -3.0001  2.8275  0.7748
  2574G12c C02C47745   3.027  11.608   3.141  0.9705 -1.4479 -1.2925
  2574G12c H01A47746   3.122  11.592   3.191  0.2223 -0.5508  0.4368
  2574G12c C02B47747   2.904  11.584   3.215  0.1504 -0.4482 -1.3591
  2574G12c O00E47748   2.917  11.581   3.360  0.2187 -0.4481 -0.2408
  2574G12c H01B47749   2.835  11.613   3.393  0.8659  1.6745 -0.5445
  2574G12c C02F47750   2.781  11.553   3.163 -1.5573  0.1900  1.1203
  2574G12c O00F47751   2.666  11.549   3.217 -0.1057  0.0647 -0.9020
  2574G12c C02G47752   2.610  11.685   3.224 -0.4161  0.1762  1.9480
  2574G12c H01747753   2.672  11.711   3.310 -1.6058  3.9634  1.7494
  2574G12c H01647754   2.503  11.676   3.247 -1.2945 -2.2656 -2.5670
  2574G12c H01547755   2.623  11.750   3.138 -4.0009  1.8244  2.5329
  2574G12c C02E47756   2.789  11.532   3.014  0.0075 -0.3835  0.3453
  2574G12c H01847757   2.704  11.514   2.949  1.7584 -2.2104 -1.5218
  2574G12c C01F47758   3.287  11.604   2.554  1.8358 -0.2298  0.0238
  2574G12c C01G47759   3.261  11.736   2.497 -0.4037  1.1634  1.4470
  2574G12c H00L47760   3.155  11.757   2.488 -0.5765 -1.2948 -3.9799
  2574G12c C01H47761   3.342  11.841   2.526 -0.8636 -0.9179  0.1121
  2574G12c H00B47762   3.325  11.943   2.495 -0.1395  0.7875  4.8967
  2574G12c C01I47763   3.474  11.814   2.591  1.2718 -1.9711 -0.7639
  2574G12c C01U47764   3.427  11.571   2.601  0.2968 -0.0042  0.2750
  2574G12c C00S47765   3.635  11.492   3.130 -0.3479 -0.3644 -0.1474
  2574G12c C00K47766   3.695  11.643   2.978 -1.3775  0.5353  0.3135
  2574G12c C00N47767   3.436  11.510   2.720  0.7995 -0.7878  2.3667
  2574G12c C00047768   3.518  11.684   2.590  0.5135  1.3363  1.7465
  2574G12c C01J47769   3.568  11.900   2.671  0.3379  0.7387  0.0905
  2574G12c C01K47770   3.560  12.044   2.676  0.8170  0.5282  0.4501
  2574G12c C01P47771   3.528  12.131   2.568 -0.9698  0.6190 -0.5745
  2574G12c C01Q47772   3.556  12.096   2.425  0.3509 -1.4404 -1.1501
  2574G12c H00G47773   3.656  12.071   2.394 -0.4874 -2.9769 -2.7212
  2574G12c C01R47774   3.463  12.134   2.332  0.1968  1.6552  1.6536
  2574G12c H00F47775   3.377  12.187   2.371  1.4959  1.2461  5.2723
  2574G12c C01S47776   3.468  12.134   2.176  1.9790  0.1525 -0.9843
  2574G12c H00E47777   3.364  12.104   2.171  2.9599 -3.3302 -2.4320
  2574G12c H00D47778   3.478  12.239   2.150 -3.1273  1.4740  1.8432
  2574G12c O00547779   3.533  12.033   2.097 -0.6347  0.4426 -0.0230
  2574G12c H00C47780   3.537  12.049   2.003 -3.3995  3.2426  0.2560
  2574G12c C01O47781   3.506  12.279   2.587  0.6359 -0.0037  1.1985
  2574G12c H00H47782   3.476  12.359   2.521 -3.2414 -3.4177 -1.4346
  2574G12c C01N47783   3.505  12.315   2.724  0.4553  0.1428 -0.9307
  2574G12c O00647784   3.452  12.436   2.746 -0.3201  0.1286 -1.2505
  2574G12c C01T47785   3.440  12.509   2.870 -0.1157  0.3612 -0.1921
  2574G12c H00K47786   3.372  12.463   2.942  0.5140 -0.2441  0.0219
  2574G12c H00J47787   3.435  12.616   2.848 -4.3418 -0.3103 -3.0018
  2574G12c H00I47788   3.539  12.491   2.912 -0.5866  2.4718  1.9849
  2574G12c C01M47789   3.559  12.230   2.827  0.9333  1.3675 -0.7269
  2574G12c C02047790   3.741  11.786   2.962  0.5309 -0.7112 -0.1208
  2574G12c C02147791   3.806  11.854   3.078 -0.9318 -1.1588 -0.1312
  2574G12c C01L47792   3.604  12.095   2.793  0.5180  0.1058 -1.5194
  2574G12c O00747793   3.578  12.281   2.962  1.8288 -0.1975  0.6247
  2574G12c C02247794   3.772  11.985   3.103  1.1308 -1.0177  0.4339
  2574G12c C02347795   3.838  11.799   3.199 -1.8385 -0.5403 -1.9847
  2574G12c C00G47796   3.726  11.752   3.450  0.7293  2.2676  0.6753
  2574G12c C00E47797   3.715  11.796   3.697 -0.0209  0.9836 -1.5868
  2574G12c O00A47798   3.697  11.767   3.820  0.1166 -1.0009  1.0438
  2574G12c C02447799   3.831  11.722   3.894  1.1096  0.0686  0.0052
  2574G12c H00V47800   3.856  11.628   3.843 -0.0848 -1.4937  2.2155
  2574G12c H00U47801   3.816  11.665   3.985 -2.0394 -3.1071 -2.3549
  2574G12c H00T47802   3.915  11.786   3.868  1.0924  1.5304  3.3028
  2584G12c C00D47803  13.007   4.818   3.057 -0.7979 -1.1805 -0.3456
  2584G12c O00B47804  13.091   4.711   3.062  0.5217 -0.6091  0.2784
  2584G12c C02547805  13.207   4.720   3.141 -0.0385 -0.8294  1.1125
  2584G12c C02647806  13.323   4.818   3.110 -0.2670  0.3449 -1.2449
  2584G12c H00Y47807  13.369   4.768   3.025 -1.3349 -0.9313 -1.0969
  2584G12c H00X47808  13.389   4.821   3.197 -3.0961  2.5082  0.9431
  2584G12c O00C47809  13.278   4.943   3.112 -0.0372 -0.1814 -0.1990
  2584G12c H00W47810  13.197   4.904   3.139 -2.9446  2.7676 -3.9648
  2584G12c C02747811  13.193   4.621   3.232  0.1869 -0.3028 -0.3181
  2584G12c O00D47812  13.088   4.547   3.241  0.0955 -0.5382 -0.3689
  2584G12c H00Z47813  13.114   4.468   3.284  6.3349 -0.5514 -3.5615
  2584G12c C02847814  13.292   4.637   3.341  1.1079  1.3768 -1.1337
  2584G12c C02947815  13.235   4.639   3.474  0.3118 -0.8852 -0.0445
  2584G12c H01047816  13.135   4.606   3.495  0.5503 -0.8338  1.2088
  2584G12c C02T47817  13.330   4.651   3.585  0.3887 -0.4439 -1.0097
  2584G12c H01O47818  13.272   4.662   3.676 -2.8444  1.1300 -3.1667
  2584G12c C02S47819  13.472   4.628   3.570  0.4296 -3.2014  0.0989
  2584G12c O00J47820  13.550   4.619   3.691 -0.6370  0.4346  0.8023
  2584G12c H01P47821  13.639   4.586   3.691  0.3804  2.9920  0.2117
  2584G12c C02R47822  13.519   4.623   3.442  1.7521  1.1903 -1.6085
  2584G12c O00I47823  13.646   4.572   3.429  1.0166 -0.1516  1.0856
  2584G12c C02Q47824  13.612   4.420   3.417  1.3224 -0.9278 -1.1620
  2584G12c H01N47825  13.549   4.425   3.328  0.3347 -0.4304 -0.4471
  2584G12c H01R47826  13.705   4.363   3.417  1.9682  0.0700 -2.2958
  2584G12c H01Q47827  13.546   4.412   3.503  7.7281  3.7556  4.8458
  2584G12c C02A47828  13.432   4.650   3.330  1.5525  1.2280  0.4671
  2584G12c H01147829  13.484   4.626   3.239  1.2873  0.6761  0.4600
  2584G12c C00C47830  12.990   4.898   3.157 -1.0651  0.0621 -1.8265
  2584G12c H01247831  13.053   4.890   3.245 -5.3432 -3.1541  1.1416
  2584G12c C00B47832  12.862   4.957   3.179  0.8911 -1.0884  2.2953
  2584G12c C00A47833  12.818   5.051   3.283  0.8418  1.0584 -0.6600
  2584G12c C00947834  12.860   5.053   3.430 -2.0014 -0.0795 -1.0189
  2584G12c C00847835  12.948   4.982   3.521  0.3012  0.6570 -0.1445
  2584G12c H01347836  13.015   4.913   3.472  2.9208  3.0909 -0.1131
  2584G12c C00747837  12.898   4.959   3.661  0.1827  0.1462 -0.0152
  2584G12c H01447838  12.971   4.912   3.726 -4.0422 -4.0795  2.0105
  2584G12c C00647839  12.780   5.024   3.705 -0.5288  0.2124  0.2720
  2584G12c C00547840  12.697   5.100   3.613  0.7442  0.4746  1.2439
  2584G12c C00447841  12.564   5.142   3.645  0.1621 -0.3554 -0.9822
  2584G12c C00347842  12.479   5.191   3.546 -0.3635  0.1236 -0.3219
  2584G12c C00247843  12.364   5.268   3.582  0.2071 -1.1070  0.0001
  2584G12c C00147844  12.244   5.293   3.502  0.3144 -1.0702 -1.0579
  2584G12c C00M47845  12.194   5.237   3.378  0.6294  0.2854 -1.3163
  2584G12c C00L47846  12.290   5.168   3.300  0.1825  1.1449 -0.7865
  2584G12c C00R47847  12.260   5.105   3.170 -1.1339  0.2290  0.6771
  2584G12c C00Q47848  12.136   5.044   3.124  1.3323  0.0359 -0.1696
  2584G12c C00V47849  12.164   4.965   3.007  0.0262 -0.6063 -1.6200
  2584G12c C00U47850  12.297   4.938   2.955 -0.0660  0.5370 -0.7598
  2584G12c C00T47851  12.412   4.991   3.008 -1.8447  0.1728 -1.1443
  2584G12c C01647852  12.546   4.946   2.994 -1.1250 -1.7692 -2.3231
  2584G12c C01547853  12.567   4.852   2.887 -1.8479 -0.1663  0.8000
  2584G12c C01047854  12.460   4.788   2.829 -1.3136 -1.0404 -0.6033
  2584G12c C01147855  12.493   4.689   2.732 -1.7710  0.4186 -0.4347
  2584G12c H00547856  12.406   4.637   2.693 -1.6370 -0.0963 -0.0586
  2584G12c C01247857  12.624   4.633   2.744  1.6117 -1.3963 -0.9001
  2584G12c C01747858  12.682   4.523   2.647  0.5402 -0.5150  0.1368
  2584G12c O00247859  12.777   4.568   2.572  1.5029  0.0043 -0.2174
  2584G12c H00447860  12.807   4.650   2.606 -0.4440  1.6670 -2.3527
  2584G12c C01847861  12.638   4.398   2.654  0.6917  0.4803 -0.9331
  2584G12c O00147862  12.518   4.365   2.717 -0.4011  0.0559  0.8639
  2584G12c H00347863  12.494   4.439   2.771 -0.2854  1.5736 -1.0820
  2584G12c C01947864  12.706   4.286   2.589  0.5258  0.7010  0.1518
  2584G12c H00247865  12.775   4.294   2.505  1.8984  0.0430  1.1938
  2584G12c H00147866  12.777   4.268   2.670 -0.1501 -0.2529  0.5395
  2584G12c O00047867  12.602   4.174   2.567 -1.2572  0.2814  0.5030
  2584G12c C01A47868  12.625   4.074   2.481 -0.2734 -1.6341  0.7323
  2584G12c C02K47869  12.619   4.071   2.345  1.9633 -0.5673 -1.3939
  2584G12c O00G47870  12.567   4.177   2.268 -0.6626 -0.4615  0.3475
  2584G12c C02M47871  12.493   4.294   2.315  0.9578  0.9446  1.6226
  2584G12c H01G47872  12.449   4.305   2.414  1.1050 -6.9436  2.9051
  2584G12c H01F47873  12.435   4.333   2.231  4.4447 -2.4339 -2.6436
  2584G12c H01E47874  12.576   4.364   2.315  2.0142 -0.2703  0.5677
  2584G12c C02J47875  12.691   3.998   2.263 -0.0977  0.5291 -1.2228
  2584G12c H01H47876  12.640   3.999   2.168  6.5949  2.7619 -5.1212
  2584G12c C02I47877  12.784   3.897   2.307  1.4694  1.2632  1.3952
  2584G12c C02N47878  12.859   3.808   2.218  0.7859  1.1690  1.9556
  2584G12c H01M47879  12.796   3.729   2.179 -3.9158  2.2206  6.6951
  2584G12c C02O47880  12.986   3.819   2.236  1.0706 -0.2910  0.2941
  2584G12c H01L47881  13.028   3.893   2.302 -7.1833  0.4455  5.3787
  2584G12c C02P47882  13.089   3.755   2.147 -0.7777  0.6225  1.1551
  2584G12c H01K47883  13.039   3.723   2.056 -4.0855  5.0129  1.2390
  2584G12c H01J47884  13.176   3.817   2.127  3.9443 -1.4236 11.6360
  2584G12c O00H47885  13.129   3.637   2.207  0.3330 -0.4098  0.3275
  2584G12c H01I47886  13.221   3.658   2.205  1.3765 -3.5650 -9.2092
  2584G12c C02H47887  12.810   3.910   2.448  2.1616  1.7007 -0.7937
  2584G12c H01C47888  12.868   3.850   2.516 -1.6137 -0.0294  0.9833
  2584G12c C02L47889  12.703   3.960   2.524 -0.2418  0.3908 -0.3963
  2584G12c H01D47890  12.693   3.937   2.629 -2.3492  2.8249  0.0022
  2584G12c C01347891  12.725   4.692   2.835  1.0531  0.4868 -1.0994
  2584G12c H00047892  12.818   4.650   2.872 -0.2975 -4.7967 -3.1935
  2584G12c C01447893  12.697   4.811   2.884  0.4856 -0.2978 -3.5199
  2584G12c C00F47894  12.791   4.864   2.970  0.0623 -0.2907 -0.4682
  2584G12c C00H47895  12.648   5.011   3.072 -1.2547  2.1385 -0.0054
  2584G12c C00I47896  12.613   5.102   3.181  0.3340  2.0723 -1.9922
  2584G12c C00J47897  12.479   5.137   3.188  2.0447  0.0999  1.2355
  2584G12c C00Z47898  12.325   4.836   2.859 -0.5652 -1.0942  0.6062
  2584G12c C00Y47899  12.221   4.782   2.784 -1.5301  0.6715 -0.4891
  2584G12c H00647900  12.241   4.740   2.687 -5.8612  0.0156 -1.1944
  2584G12c C00X47901  12.088   4.802   2.824  0.4179 -0.8017  0.8158
  2584G12c O00347902  12.000   4.747   2.742 -0.0382 -0.3126  1.1846
  2584G12c C01B47903  11.906   4.838   2.678 -0.1039  0.5286 -1.4018
  2584G12c H00947904  11.959   4.897   2.603 -2.8058  2.3429 -1.9575
  2584G12c H00847905  11.851   4.899   2.748 -1.7834 -1.3521 -1.0273
  2584G12c H00747906  11.822   4.803   2.617  1.0496 -3.7773 -0.6781
  2584G12c C00W47907  12.056   4.897   2.933 -0.1890  0.0979 -0.9977
  2584G12c O00447908  11.923   4.910   2.977  0.2757 -0.6196 -1.1494
  2584G12c C01C47909  11.903   4.959   3.112 -0.6586 -1.0686 -0.7602
  2584G12c H00A47910  11.809   5.009   3.130 -1.0001 -2.4414  1.5080
  2584G12c C00P47911  12.008   5.034   3.187  1.2679 -0.3925 -0.5929
  2584G12c C00O47912  11.970   5.104   3.317 -0.3781  0.5047  0.4317
  2584G12c C01D47913  11.853   5.038   3.396 -1.6209 -0.8623  1.0822
  2584G12c H00S47914  11.776   4.973   3.357 -0.2078 -2.1122  0.3869
  2584G12c C01E47915  11.829   5.057   3.531  0.1410 -1.2116  1.4753
  2584G12c O00847916  11.713   4.994   3.597  0.1017 -1.2852 -0.5255
  2584G12c C01V47917  11.604   4.977   3.522  1.7626  1.3875 -0.6077
  2584G12c C01Z47918  11.557   5.109   3.469  1.2818 -1.0323 -0.4257
  2584G12c H00R47919  11.484   5.113   3.388  0.5455  1.6597  0.3361
  2584G12c H00Q47920  11.512   5.178   3.541 -3.1256 -1.8505 -2.2336
  2584G12c O00947921  11.635   5.210   3.398 -1.4061  0.0879  0.2838
  2584G12c H00P47922  11.570   5.263   3.355 -1.8607  0.8776  1.9104
  2584G12c C01W47923  11.517   4.872   3.536  0.1002  0.1643  0.5163
  2584G12c H00O47924  11.538   4.773   3.573  2.5659  0.9962  1.4414
  2584G12c C01X47925  11.361   4.875   3.516  0.7035 -0.0881  0.9972
  2584G12c H00N47926  11.296   4.918   3.592  0.1714 -1.9625  1.6334
  2584G12c H00M47927  11.358   4.954   3.442  2.0807 -0.2317  0.7590
  2584G12c C01Y47928  11.312   4.755   3.430  0.6209  0.6980 -0.5524
  2584G12c C02D47929  11.362   4.739   3.294  1.8567  0.1119  0.6601
  2584G12c H01947930  11.428   4.815   3.254 -1.5687  2.2358 -1.1940
  2584G12c C02C47931  11.309   4.642   3.220 -0.4744 -0.8961  0.0517
  2584G12c H01A47932  11.345   4.638   3.118  2.4158  3.3960  0.7981
  2584G12c C02B47933  11.217   4.549   3.247  0.6987 -1.5491  1.0013
  2584G12c O00E47934  11.161   4.451   3.157 -0.6302  1.1004 -0.8171
  2584G12c H01B47935  11.091   4.408   3.203 -3.4524  3.4206 -2.7973
  2584G12c C02F47936  11.193   4.520   3.381  1.1594 -1.2958  0.3335
  2584G12c O00F47937  11.094   4.429   3.418 -0.2898  0.1104 -0.6468
  2584G12c C02G47938  11.144   4.297   3.453  0.6743  1.1773  0.1547
  2584G12c H01747939  11.248   4.288   3.484 -0.9005  4.6695  7.4946
  2584G12c H01647940  11.110   4.235   3.370  5.5780  1.8899 -2.5801
  2584G12c H01547941  11.099   4.288   3.552 -1.3402 -1.1668 -0.9249
  2584G12c C02E47942  11.256   4.629   3.477  0.3912  0.4024  0.7521
  2584G12c H01847943  11.262   4.624   3.585 -1.4242 -3.8207  0.7602
  2584G12c C01F47944  11.923   5.139   3.614 -0.5683  0.7224  0.9386
  2584G12c C01G47945  11.943   5.129   3.753 -0.3977  0.6843  0.4153
  2584G12c H00L47946  11.862   5.078   3.803 -0.2843 -3.9928 -3.7993
  2584G12c C01H47947  12.075   5.185   3.811  0.0849 -0.9911 -0.9169
  2584G12c H00B47948  12.090   5.182   3.917 -6.9118  0.6815  0.4024
  2584G12c C01I47949  12.182   5.242   3.724 -1.3420  0.7031  0.7966
  2584G12c C01U47950  12.019   5.214   3.528 -1.4225  0.5012 -1.0634
  2584G12c C00S47951  12.383   5.083   3.106  0.7482 -0.6334  1.0426
  2584G12c C00K47952  12.426   5.170   3.315 -0.5039  1.3139 -0.3566
  2584G12c C00N47953  12.058   5.192   3.390 -0.1842 -0.5081  0.4490
  2584G12c C00047954  12.143   5.269   3.588 -1.2507 -0.7739  0.1413
  2584G12c C01J47955  12.329   5.253   3.715 -0.8814 -0.9495 -0.5133
  2584G12c C01K47956  12.411   5.213   3.821 -0.1300  0.0594  0.4044
  2584G12c C01P47957  12.408   5.259   3.950  1.3158 -0.7227 -0.5025
  2584G12c C01Q47958  12.331   5.375   3.990 -0.1176  2.2339  1.1180
  2584G12c H00G47959  12.317   5.462   3.928 -0.7014 -1.1457 -3.7793
  2584G12c C01R47960  12.260   5.404   4.099 -0.5732 -0.1526  0.5221
  2584G12c H00F47961  12.216   5.501   4.117 -0.4452  0.0035  0.0229
  2584G12c C01S47962  12.243   5.310   4.219 -0.9388  0.5235  1.3250
  2584G12c H00E47963  12.152   5.340   4.272 -4.8575  2.5187 -5.8494
  2584G12c H00D47964  12.196   5.223   4.172  1.5576  0.2939 -0.8761
  2584G12c O00547965  12.336   5.316   4.317  0.8153 -0.2611 -1.7964
  2584G12c H00C47966  12.283   5.351   4.387 -2.3680 -0.5514 -3.9443
  2584G12c C01O47967  12.488   5.212   4.045 -0.2507 -0.9578  0.1935
  2584G12c H00H47968  12.476   5.213   4.153  0.7413  2.3129  0.3370
  2584G12c C01N47969  12.620   5.143   4.011 -0.4053  0.1017  0.1909
  2584G12c O00647970  12.696   5.146   4.111 -0.7270  0.7561 -0.8064
  2584G12c C01T47971  12.694   5.032   4.192  2.0738 -1.8241  0.4987
  2584G12c H00K47972  12.746   4.942   4.161  0.7787 -3.4420  2.8453
  2584G12c H00J47973  12.608   4.987   4.240  2.4599 -2.7256  0.3486
  2584G12c H00I47974  12.754   5.045   4.283 -2.5512  2.3534  3.2632
  2584G12c C01M47975  12.626   5.106   3.875 -0.5509  1.6360 -1.6897
  2584G12c C02047976  12.527   5.204   3.413  0.0861 -0.7606  0.4462
  2584G12c C02147977  12.662   5.200   3.390 -0.5273  1.2768 -0.2410
  2584G12c C01L47978  12.533   5.155   3.771  1.1412 -1.3926 -0.9957
  2584G12c O00747979  12.746   5.045   3.829 -1.3625  0.3077 -0.2434
  2584G12c C02247980  12.744   5.130   3.481 -0.0073  1.3555 -0.6694
  2584G12c C02347981  12.699   5.134   3.276 -2.0941 -0.2627  0.1828
  2584G12c C00G47982  12.768   4.953   3.067  0.1811  0.7424  1.2929
  2584G12c C00E47983  12.925   4.820   2.949 -1.3900 -2.5372  1.6107
  2584G12c O00A47984  12.979   4.782   2.831  0.9450  2.0584 -0.3414
  2584G12c C02447985  13.105   4.816   2.787  0.4075  1.7227 -0.6725
  2584G12c H00V47986  13.118   4.907   2.847  3.5746  0.6207  0.4248
  2584G12c H00U47987  13.093   4.822   2.679 -0.7255  5.7688 -0.4289
  2584G12c H00T47988  13.186   4.750   2.819  0.1507  2.8923  2.5663
  2594G12c C00D47989   5.239   9.674   2.368  0.3111  0.6117  2.0822
  2594G12c O00B47990   5.142   9.576   2.337  0.3388  2.0125 -0.6652
  2594G12c C02547991   5.105   9.533   2.204  1.6364 -0.5774  0.7783
  2594G12c C02647992   5.053   9.627   2.113  0.1252  0.7259  1.7407
  2594G12c H00Y47993   5.086   9.726   2.080  5.6696 -0.0100  4.4855
  2594G12c H00X47994   4.968   9.658   2.174 -5.8044 -2.0252 -4.5565
  2594G12c O00C47995   4.975   9.556   2.013  0.6362  0.1056 -1.1842
  2594G12c H00W47996   4.917   9.615   1.968 -0.6958 -4.4638 -5.9520
  2594G12c C02747997   5.142   9.410   2.183  0.8227 -0.4229  0.4121
  2594G12c O00D47998   5.096   9.350   2.070  0.3431  1.0028  1.3212
  2594G12c H00Z47999   5.068   9.260   2.072  1.0543  0.3942 -5.5837
  2594G12c C02848000   5.211   9.325   2.284 -1.2887  0.3796  0.6085
  2594G12c C02948001   5.167   9.309   2.423 -0.1332  0.0523  0.4927
  2594G12c H01048002   5.073   9.332   2.471  0.8493 -3.8159  4.6277
  2594G12c C02T48003   5.233   9.249   2.529 -1.0915 -0.1212  2.9499
  2594G12c H01O48004   5.198   9.240   2.631  0.8614 -4.0356  3.3574
  2594G12c C02S48005   5.349   9.194   2.505 -0.3162 -1.2727  0.0078
  2594G12c O00J48006   5.411   9.158   2.610  0.9903 -0.5904  0.5418
  2594G12c H01P48007   5.485   9.213   2.630 -2.4764  4.4961  0.2869
  2594G12c C02R48008   5.407   9.211   2.374  0.8967  0.1898  0.1311
  2594G12c O00I48009   5.523   9.175   2.356 -1.1884  1.3956  0.0750
  2594G12c C02Q48010   5.613   9.268   2.294 -1.0880  0.2104  0.9741
  2594G12c H01N48011   5.630   9.368   2.334  8.3648  1.2898 -4.3931
  2594G12c H01R48012   5.584   9.287   2.191 -3.0557  3.8393  2.0963
  2594G12c H01Q48013   5.697   9.200   2.301  1.4578  2.7435 -2.9661
  2594G12c C02A48014   5.344   9.272   2.259  0.2710 -0.2406 -0.0014
  2594G12c H01148015   5.357   9.300   2.156 -6.0591 -5.7510 -2.7243
  2594G12c C00C48016   5.368   9.632   2.391  0.0259  0.7959  0.2736
  2594G12c H01248017   5.410   9.534   2.378  1.6209  1.6279 -1.1489
  2594G12c C00B48018   5.463   9.713   2.449 -0.1262  1.4610 -0.0734
  2594G12c C00A48019   5.577   9.656   2.513 -1.4054 -0.6343 -0.2136
  2594G12c C00948020   5.596   9.530   2.576 -0.2676  0.0845  0.8901
  2594G12c C00848021   5.493   9.436   2.612 -0.5873 -1.6358  0.8593
  2594G12c H01348022   5.400   9.415   2.562  2.0305 -3.5298 -3.4949
  2594G12c C00748023   5.525   9.360   2.737 -1.1885 -1.1573 -0.5779
  2594G12c H01448024   5.436   9.308   2.769 -0.2165 -2.3026  0.2812
  2594G12c C00648025   5.614   9.418   2.826  0.4972 -0.2539 -2.2872
  2594G12c C00548026   5.703   9.515   2.790 -0.5521 -0.4313  0.4778
  2594G12c C00448027   5.782   9.587   2.885  0.2693  0.1969 -0.1987
  2594G12c C00348028   5.829   9.711   2.858  0.5341 -0.9107  0.0184
  2594G12c C00248029   5.908   9.774   2.966  1.9305 -0.2941 -0.0614
  2594G12c C00148030   5.988   9.902   2.964 -0.5841  0.9317  0.0750
  2594G12c C00M48031   5.921  10.032   2.915  0.6125 -2.1572 -0.8263
  2594G12c C00L48032   5.820  10.025   2.826  1.3626  0.4131 -0.7523
  2594G12c C00R48033   5.763  10.146   2.764 -0.1423  0.2569 -0.6896
  2594G12c C00Q48034   5.712  10.262   2.826 -0.3885  0.8688 -0.9781
  2594G12c C00V48035   5.610  10.333   2.756  0.3595 -0.3453 -0.0582
  2594G12c C00U48036   5.542  10.277   2.652 -0.8394  0.7878  0.8871
  2594G12c C00T48037   5.586  10.164   2.600  1.2991  0.1978 -0.1908
  2594G12c C01648038   5.510  10.079   2.536  0.1974  2.2774  0.5657
  2594G12c C01548039   5.395  10.130   2.482  1.7978 -0.0075  0.0300
  2594G12c C01048040   5.377  10.276   2.477 -0.7721 -0.2817  1.7139
  2594G12c C01148041   5.270  10.321   2.400 -1.0094  0.0083 -1.2889
  2594G12c H00548042   5.283  10.427   2.384 -0.1314 -0.0276 -0.8505
  2594G12c C01248043   5.173  10.246   2.342 -0.8776 -1.3403  1.5765
  2594G12c C01748044   5.054  10.301   2.278 -0.9975  0.6212  1.1357
  2594G12c O00248045   4.936  10.253   2.319  0.1302  0.1376  0.3692
  2594G12c H00448046   4.871  10.301   2.271  5.0883  0.3256 -7.0279
  2594G12c C01848047   5.053  10.371   2.166 -2.2119 -0.6033  0.1309
  2594G12c O00148048   5.169  10.346   2.094  2.7284 -2.1121 -0.0888
  2594G12c H00348049   5.238  10.296   2.136  4.0077 -0.0483  0.2976
  2594G12c C01948050   4.954  10.448   2.110 -0.5742 -0.3199  0.7377
  2594G12c H00248051   5.002  10.542   2.138  1.2119 -2.0373  3.6506
  2594G12c H00148052   4.973  10.430   2.004 -2.7502 -4.2442  0.9273
  2594G12c O00048053   4.819  10.421   2.144 -1.6349  0.6857 -0.8998
  2594G12c C01A48054   4.743  10.395   2.041  0.2688 -0.3319  0.4546
  2594G12c C02K48055   4.634  10.478   2.001  1.3063  0.0064  0.0087
  2594G12c O00G48056   4.602  10.583   2.076 -0.8548 -1.0182 -0.2319
  2594G12c C02M48057   4.528  10.558   2.195 -0.0256  0.4235 -0.4680
  2594G12c H01G48058   4.593  10.479   2.233 -2.0398  0.2555  2.8096
  2594G12c H01F48059   4.424  10.527   2.199  1.1220 -3.5746  5.7429
  2594G12c H01E48060   4.535  10.655   2.243 -0.4599 -2.4305  5.8380
  2594G12c C02J48061   4.551  10.419   1.900  0.1434  0.3182 -0.4990
  2594G12c H01H48062   4.447  10.424   1.930  1.0448 -0.4334  2.9905
  2594G12c C02I48063   4.584  10.286   1.847 -0.8851  0.5117 -1.1716
  2594G12c C02N48064   4.574  10.277   1.714 -1.0563  1.2976  2.0797
  2594G12c H01M48065   4.641  10.328   1.647  1.4747 -2.9507  1.1771
  2594G12c C02O48066   4.457  10.236   1.649 -0.2369  1.4108  0.4857
  2594G12c H01L48067   4.387  10.188   1.715  1.2165  0.0469  1.0528
  2594G12c C02P48068   4.446  10.232   1.498  1.6327 -0.0852 -0.5668
  2594G12c H01K48069   4.478  10.323   1.447  1.3492  0.1372 -0.3449
  2594G12c H01J48070   4.354  10.193   1.456 -1.8205  6.2652  0.4841
  2594G12c O00H48071   4.540  10.128   1.486 -0.9250  0.8592 -1.4053
  2594G12c H01I48072   4.626  10.151   1.457 -0.1833 -1.8658 -1.5683
  2594G12c C02H48073   4.697  10.233   1.883  1.0717  1.0125 -0.5495
  2594G12c H01C48074   4.692  10.131   1.848 -3.1239 -0.3100  3.4674
  2594G12c C02L48075   4.763  10.272   1.985 -1.3792  1.1647  0.6391
  2594G12c H01D48076   4.837  10.204   2.023 -0.7076  3.2337  3.1786
  2594G12c C01348077   5.187  10.113   2.361 -0.3368 -0.3757  1.0347
  2594G12c H00048078   5.125  10.052   2.297 -5.9268  3.9555  1.9198
  2594G12c C01448079   5.303  10.046   2.425  0.4613 -0.1998  1.9238
  2594G12c C00F48080   5.331   9.916   2.419  0.5754  2.5962 -1.4964
  2594G12c C00H48081   5.542   9.947   2.509 -0.1696 -1.0179  0.4970
  2594G12c C00I48082   5.667   9.895   2.534 -2.4967 -1.6609  0.9267
  2594G12c C00J48083   5.746   9.980   2.607 -0.6114  0.0511  0.3388
  2594G12c C00Z48084   5.452  10.352   2.568  0.3456 -1.4241  1.8397
  2594G12c C00Y48085   5.439  10.482   2.583 -0.3937  0.5013  0.9845
  2594G12c H00648086   5.371  10.541   2.524  2.9231  1.4595 -2.0642
  2594G12c C00X48087   5.472  10.526   2.713  0.1043  0.7107 -1.1422
  2594G12c O00348088   5.433  10.644   2.738  1.1690 -0.2238 -0.2281
  2594G12c C01B48089   5.346  10.658   2.852  0.8323  1.4130 -0.7684
  2594G12c H00948090   5.242  10.653   2.819  0.4056  4.7613 -0.0863
  2594G12c H00848091   5.356  10.556   2.890  2.3014  3.1102  3.8034
  2594G12c H00748092   5.348  10.742   2.921 -3.8340  1.0610 -0.0173
  2594G12c C00W48093   5.559  10.458   2.796  1.1929 -0.2890 -0.2979
  2594G12c O00448094   5.608  10.520   2.906  0.9592 -0.1746  0.2239
  2594G12c C01C48095   5.684  10.443   2.991 -0.3503  0.3736  0.0231
  2594G12c H00A48096   5.721  10.494   3.079 -0.7421 -3.3390  2.4696
  2594G12c C00P48097   5.740  10.309   2.966  0.6745  0.5050 -0.9118
  2594G12c C00O48098   5.799  10.212   3.054 -0.8317 -0.2605 -0.3044
  2594G12c C01D48099   5.788  10.234   3.197  1.0174 -1.0406 -0.8649
  2594G12c H00S48100   5.741  10.328   3.222  2.7861 -0.8508  1.9367
  2594G12c C01E48101   5.821  10.147   3.298  1.0847 -0.0035  0.1000
  2594G12c O00848102   5.782  10.168   3.430  0.3121 -0.0834 -0.4723
  2594G12c C01V48103   5.828  10.274   3.506  0.4616  0.0657  0.5916
  2594G12c C01Z48104   5.975  10.291   3.478 -1.3647  1.4997  1.0131
  2594G12c H00R48105   6.033  10.208   3.519  1.5556  3.2983  0.6556
  2594G12c H00Q48106   5.998  10.276   3.372 -3.4083  1.7642  0.5139
  2594G12c O00948107   6.007  10.419   3.517 -2.0273  0.6141  0.7680
  2594G12c H00P48108   5.919  10.453   3.518 -2.5194  0.8145 -8.2210
  2594G12c C01W48109   5.760  10.300   3.632  0.5540  1.3633  1.1305
  2594G12c H00O48110   5.655  10.275   3.627  0.6178  1.4154 -1.7005
  2594G12c C01X48111   5.811  10.390   3.753 -0.5293  0.7675 -1.3369
  2594G12c H00N48112   5.750  10.368   3.840 -4.4353  3.8161 -3.1239
  2594G12c H00M48113   5.919  10.383   3.735  0.0528  0.5230  1.9780
  2594G12c C01Y48114   5.769  10.530   3.707  0.1185  0.9994  0.1776
  2594G12c C02D48115   5.860  10.626   3.704 -1.2418 -1.1215  1.7681
  2594G12c H01948116   5.964  10.621   3.734  0.6332  3.6108 -3.0093
  2594G12c C02C48117   5.823  10.754   3.662  2.1414 -1.7760  0.3677
  2594G12c H01A48118   5.909  10.814   3.636 -1.2733  3.3668  0.3089
  2594G12c C02B48119   5.689  10.790   3.629  0.6544 -0.3321  1.0910
  2594G12c O00E48120   5.664  10.910   3.582 -1.1876  0.1571  0.5006
  2594G12c H01B48121   5.590  10.880   3.532 -1.6135 -1.5579  2.1182
  2594G12c C02F48122   5.591  10.699   3.652  0.7080 -0.5092 -1.3509
  2594G12c O00F48123   5.461  10.748   3.667 -0.0710  0.0260 -0.6220
  2594G12c C02G48124   5.376  10.680   3.758 -0.6518 -0.5532 -0.4799
  2594G12c H01748125   5.450  10.701   3.836  3.1266  1.0110 -4.3332
  2594G12c H01648126   5.342  10.587   3.715  2.4378 -1.7220 -0.5036
  2594G12c H01548127   5.295  10.746   3.791  0.8651 -1.9585  7.1360
  2594G12c C02E48128   5.632  10.572   3.696  0.3912  0.9635 -0.3180
  2594G12c H01848129   5.547  10.517   3.735 -2.8023  4.7597 -1.5899
  2594G12c C01F48130   5.895  10.038   3.265  1.5757 -0.3147  1.1497
  2594G12c C01G48131   5.936   9.935   3.355 -0.7866  0.7534 -0.2395
  2594G12c H00L48132   5.929   9.970   3.458 -7.9496 -1.3023  0.2906
  2594G12c C01H48133   6.007   9.815   3.308  0.3878 -0.3832  0.4225
  2594G12c H00B48134   6.006   9.729   3.373  3.5959 -2.9642 -2.7450
  2594G12c C01I48135   6.010   9.797   3.172  0.2069 -0.8870  2.5000
  2594G12c C01U48136   5.949  10.019   3.134 -0.6896 -0.6320  1.0010
  2594G12c C00S48137   5.704  10.098   2.653  0.1561  0.6579 -1.1235
  2594G12c C00K48138   5.821   9.933   2.730  0.1142  0.1650  1.3020
  2594G12c C00N48139   5.880  10.098   3.037 -0.5352  1.2007 -0.6215
  2594G12c C00048140   6.030   9.906   3.095  0.5931 -0.9319  0.3729
  2594G12c C01J48141   5.937   9.702   3.093  0.7618  0.8806 -0.9455
  2594G12c C01K48142   5.902   9.566   3.116 -0.3625  0.3651 -0.1755
  2594G12c C01P48143   5.966   9.480   3.210  1.1197 -0.3932  1.1547
  2594G12c C01Q48144   6.091   9.516   3.284  0.2385  0.8127  0.4596
  2594G12c H00G48145   6.141   9.594   3.228 -3.4279  1.0037 -2.7486
  2594G12c C01R48146   6.138   9.448   3.399  0.6561  0.2270  0.1826
  2594G12c H00F48147   6.085   9.374   3.458 -0.3214 -0.7020 -1.7943
  2594G12c C01S48148   6.263   9.501   3.472 -0.1329 -0.1314  0.1575
  2594G12c H00E48149   6.347   9.547   3.419 -0.6704  7.4689  5.1665
  2594G12c H00D48150   6.209   9.573   3.532 -5.7185 -2.8997 -1.2472
  2594G12c O00548151   6.301   9.435   3.588 -0.8719  0.3946 -0.7282
  2594G12c H00C48152   6.300   9.342   3.572 -3.7717 -0.2071  2.3592
  2594G12c C01O48153   5.889   9.364   3.234  0.1760  1.0183 -0.5111
  2594G12c H00H48154   5.923   9.282   3.297  2.2469 -0.2936 -3.2452
  2594G12c C01N48155   5.773   9.334   3.168  0.3662  0.5057 -3.4455
  2594G12c O00648156   5.687   9.229   3.199  0.8658 -0.9440  0.0796
  2594G12c C01T48157   5.752   9.099   3.159 -0.4876 -2.6254  0.9996
  2594G12c H00K48158   5.753   9.120   3.052  4.7019 -3.6084  0.7177
  2594G12c H00J48159   5.693   9.011   3.184 -2.6898 -1.2229  0.8253
  2594G12c H00I48160   5.849   9.114   3.206 -1.5962  3.9062  1.7326
  2594G12c C01M48161   5.728   9.393   3.041 -0.7263  0.2452  1.6654
  2594G12c C02048162   5.829   9.782   2.735  1.0728 -0.6510 -0.0653
  2594G12c C02148163   5.776   9.693   2.632 -1.3567  2.2843 -0.1877
  2594G12c C01L48164   5.811   9.523   3.021  0.8950 -0.6777  0.3586
  2594G12c O00748165   5.647   9.338   2.945 -0.5070  0.8046  1.0637
  2594G12c C02248166   5.719   9.562   2.663  0.6365 -0.5326  0.7574
  2594G12c C02348167   5.686   9.749   2.533 -0.3477 -0.8156 -0.6375
  2594G12c C00G48168   5.449   9.859   2.456  1.7467  1.7358 -0.9013
  2594G12c C00E48169   5.227   9.815   2.378  1.9624  0.4376 -0.3465
  2594G12c O00A48170   5.098   9.844   2.348 -0.7996 -1.1864  1.0098
  2594G12c C02448171   4.999   9.890   2.447 -0.2910 -0.5834  1.2904
  2594G12c H00V48172   4.930   9.952   2.390  2.1529  3.7104  2.7310
  2594G12c H00U48173   4.954   9.801   2.490 -6.5111  3.7442  4.4954
  2594G12c H00T48174   5.022   9.932   2.545  2.3035  1.6815 -0.2190
  2604G12c C00D48175   6.570   5.734   6.998  0.0262  1.2015 -0.0987
  2604G12c O00B48176   6.640   5.615   6.989  0.7150  1.2825  1.0284
  2604G12c C02548177   6.631   5.563   6.870  0.7327  0.9995 -0.2435
  2604G12c C02648178   6.762   5.568   6.758  0.1765 -1.4477 -1.8924
  2604G12c H00Y48179   6.845   5.498   6.772  0.8817  0.5284  6.6251
  2604G12c H00X48180   6.782   5.675   6.759 -0.6610 -1.2360  2.6763
  2604G12c O00C48181   6.741   5.595   6.611  0.1895  0.5352  0.0575
  2604G12c H00W48182   6.696   5.678   6.610 -4.1351 -1.6532  1.5261
  2604G12c C02748183   6.525   5.468   6.850  0.6546  0.4430  0.9011
  2604G12c O00D48184   6.446   5.469   6.963 -1.0311 -1.1822 -1.1579
  2604G12c H00Z48185   6.489   5.501   7.041 -1.6955 -0.8396 -0.9288
  2604G12c C02848186   6.505   5.377   6.731  0.0040  0.3297  0.7714
  2604G12c C02948187   6.546   5.240   6.790  0.2921 -1.3114  1.2554
  2604G12c H01048188   6.567   5.242   6.896 -4.5855  3.5064  2.3721
  2604G12c C02T48189   6.546   5.128   6.718 -2.2005 -0.5921  0.5340
  2604G12c H01O48190   6.594   5.036   6.748  0.0232  0.2497 -0.3010
  2604G12c C02S48191   6.541   5.156   6.575 -0.2832 -0.2543 -1.6256
  2604G12c O00J48192   6.624   5.070   6.504  1.1258  0.6933  0.1618
  2604G12c H01P48193   6.608   5.071   6.411  7.4756  1.8719 -1.1625
  2604G12c C02R48194   6.499   5.289   6.518 -0.9991  0.6960 -0.6826
  2604G12c O00I48195   6.513   5.318   6.383  0.0931 -0.1831 -0.2422
  2604G12c C02Q48196   6.449   5.238   6.284  0.5397 -0.3860 -0.0408
  2604G12c H01N48197   6.345   5.210   6.304  0.4043 -6.1159 -6.6475
  2604G12c H01R48198   6.504   5.150   6.250 -3.4998 -2.4091 -1.7960
  2604G12c H01Q48199   6.453   5.321   6.213  0.8076 -0.8101 -0.5260
  2604G12c C02A48200   6.483   5.403   6.597 -0.5436 -3.1321 -0.8327
  2604G12c H01148201   6.418   5.479   6.556  2.9939 -1.2757 -3.3611
  2604G12c C00C48202   6.569   5.782   7.131 -1.6371  1.7178  0.4356
  2604G12c H01248203   6.621   5.708   7.190  0.3653 -0.0790 -3.3660
  2604G12c C00B48204   6.513   5.898   7.166  0.3514 -0.1424  1.5389
  2604G12c C00A48205   6.538   5.964   7.288  0.9485 -2.0947 -0.6849
  2604G12c C00948206   6.568   5.899   7.411  0.1667  1.1086 -1.1106
  2604G12c C00848207   6.586   5.768   7.451  1.4343  1.4346  0.2054
  2604G12c H01348208   6.605   5.686   7.383 -0.5554  2.8915 -2.2080
  2604G12c C00748209   6.533   5.726   7.563  1.1549 -0.2171 -0.6482
  2604G12c H01448210   6.539   5.621   7.585  3.3915 -0.1216 -0.6487
  2604G12c C00648211   6.461   5.816   7.644 -0.4264  0.1195 -1.2468
  2604G12c C00548212   6.445   5.949   7.616  0.5649  0.1081  1.9489
  2604G12c C00448213   6.340   6.037   7.686  1.0493 -0.2192 -1.3363
  2604G12c C00348214   6.323   6.167   7.634 -1.1072 -0.2109  0.3794
  2604G12c C00248215   6.230   6.249   7.691  0.3562  1.0512  0.3307
  2604G12c C00148216   6.182   6.375   7.663  1.8634  0.9646 -0.7164
  2604G12c C00M48217   6.089   6.392   7.534 -0.2442  1.7311  1.3066
  2604G12c C00L48218   6.166   6.378   7.419  1.1294 -0.3576  0.6678
  2604G12c C00R48219   6.086   6.353   7.290 -0.8594  0.1623 -0.9989
  2604G12c C00Q48220   5.950   6.370   7.255 -0.6728 -0.6277 -0.6201
  2604G12c C00V48221   5.934   6.346   7.123  2.4614  0.0213 -0.4629
  2604G12c C00U48222   6.034   6.267   7.052  0.5971  0.0638  1.7304
  2604G12c C00T48223   6.163   6.244   7.089  0.6161  0.2140 -1.1195
  2604G12c C01648224   6.236   6.124   7.058 -1.3770 -0.1756 -1.8512
  2604G12c C01548225   6.201   6.059   6.936  0.0181  2.5563 -0.1556
  2604G12c C01048226   6.083   6.099   6.872  0.4449  1.8077  0.0380
  2604G12c C01148227   6.025   6.007   6.776 -1.4866  0.1783  0.3908
  2604G12c H00548228   5.928   6.011   6.728 -2.7848  4.3172  3.0692
  2604G12c C01248229   6.087   5.886   6.724 -0.3867 -0.4958 -1.1303
  2604G12c C01748230   6.030   5.794   6.635 -0.0221  1.4756  1.4985
  2604G12c O00248231   5.972   5.841   6.517 -1.4452  0.6638  0.2612
  2604G12c H00448232   6.001   5.930   6.506  6.4785 -1.5838 -0.3501
  2604G12c C01848233   6.028   5.655   6.661 -0.9177  0.4710 -2.2790
  2604G12c O00148234   5.927   5.587   6.593  1.2570  1.4532  0.0437
  2604G12c H00348235   5.863   5.655   6.579  1.3893  0.9782 -3.2502
  2604G12c C01948236   6.088   5.574   6.790 -0.3130 -1.0751  0.4895
  2604G12c H00248237   6.037   5.478   6.783  4.1766 -3.3243 -9.3845
  2604G12c H00148238   6.195   5.591   6.781  0.0595  3.1456  8.6062
  2604G12c O00048239   6.028   5.641   6.903 -0.0935 -1.8073 -0.9710
  2604G12c C01A48240   6.083   5.682   7.016  0.0871 -1.2534 -1.4189
  2604G12c C02K48241   6.178   5.603   7.087 -0.3355 -0.9091  0.4075
  2604G12c O00G48242   6.236   5.479   7.080 -0.6388 -1.3214 -0.2750
  2604G12c C02M48243   6.167   5.360   7.083 -0.5717  1.4413 -0.1604
  2604G12c H01G48244   6.071   5.391   7.043 -1.4897  0.0588  0.9464
  2604G12c H01F48245   6.127   5.321   7.177  0.7447  2.5927  0.8995
  2604G12c H01E48246   6.226   5.275   7.046 -2.0393  1.9260 -3.8789
  2604G12c C02J48247   6.200   5.651   7.218  0.0546 -0.1121 -0.5369
  2604G12c H01H48248   6.254   5.586   7.285  4.4777  6.0306  2.3977
  2604G12c C02I48249   6.158   5.783   7.270 -0.8081 -1.2529 -0.1414
  2604G12c C02N48250   6.207   5.844   7.397  2.3367 -1.6984  1.3725
  2604G12c H01M48251   6.314   5.854   7.408  1.8399 -0.2903  6.1870
  2604G12c C02O48252   6.117   5.886   7.496 -0.0946  0.0359  0.4425
  2604G12c H01L48253   6.164   5.907   7.591  5.9331 -4.1354 -1.3504
  2604G12c C02P48254   5.952   5.892   7.524 -0.1722 -1.2155 -1.2039
  2604G12c H01K48255   5.914   5.949   7.609  0.6967 -2.2679 -0.0942
  2604G12c H01J48256   5.926   5.965   7.448  8.7705  3.1807 -0.7538
  2604G12c O00H48257   5.874   5.776   7.533  0.3888  0.1869 -0.0303
  2604G12c H01I48258   5.914   5.719   7.469  2.6448  0.2244  1.2999
  2604G12c C02H48259   6.065   5.862   7.194 -1.1437 -0.9770  1.0364
  2604G12c H01C48260   6.059   5.969   7.207 -3.5140 -0.0983 -5.4941
  2604G12c C02L48261   6.031   5.804   7.067 -2.1646 -1.1337 -1.3893
  2604G12c H01D48262   5.970   5.874   7.012  1.8372  4.1468  0.4141
  2604G12c C01348263   6.222   5.886   6.775  0.6486  1.3879 -0.2576
  2604G12c H00048264   6.260   5.798   6.724  3.0783  4.7450 -4.5711
  2604G12c C01448265   6.271   5.947   6.890  0.0078 -1.1694  0.6829
  2604G12c C00F48266   6.377   5.912   6.960 -0.4163  0.6562 -0.2419
  2604G12c C00H48267   6.345   6.093   7.131  2.5921 -0.6803  0.2337
  2604G12c C00I48268   6.393   6.170   7.241 -0.5669 -0.7948  1.6034
  2604G12c C00J48269   6.305   6.271   7.281 -0.5677 -0.2296 -0.1164
  2604G12c C00Z48270   6.000   6.193   6.931  0.0954  0.5254  1.5416
  2604G12c C00Y48271   5.872   6.229   6.872  0.4361  0.6641 -1.4164
  2604G12c H00648272   5.830   6.186   6.782  3.9762 -1.5433 -2.0955
  2604G12c C00X48273   5.777   6.332   6.939  2.3508  0.6241  1.7150
  2604G12c O00348274   5.655   6.351   6.890  0.5543  0.8743  0.2547
  2604G12c C01B48275   5.643   6.407   6.762  0.3256  1.3409  0.7793
  2604G12c H00948276   5.629   6.513   6.781  4.4019  1.6116  2.9592
  2604G12c H00848277   5.549   6.353   6.751  2.4562 -3.1228  3.1206
  2604G12c H00748278   5.727   6.362   6.709  2.2410  4.5933  0.8995
  2604G12c C00W48279   5.818   6.366   7.062 -1.2711 -1.8976 -0.0388
  2604G12c O00448280   5.751   6.465   7.109  1.4137 -0.9188 -0.1950
  2604G12c C01C48281   5.723   6.460   7.240  1.7542  1.0668 -0.8616
  2604G12c H00A48282   5.651   6.535   7.270  0.2754 -2.6181  5.7896
  2604G12c C00P48283   5.833   6.424   7.337  1.3521 -0.1869  0.1354
  2604G12c C00O48284   5.835   6.433   7.485 -0.5073  0.3255  0.2786
  2604G12c C01D48285   5.713   6.449   7.559  0.6191  0.2263  0.4064
  2604G12c H00S48286   5.636   6.489   7.496 -1.0293  2.9357  3.9893
  2604G12c C01E48287   5.710   6.417   7.693 -1.3722  0.2500 -2.8440
  2604G12c O00848288   5.604   6.417   7.776  0.2037  1.1912  0.7909
  2604G12c C01V48289   5.481   6.420   7.715  0.0314  0.2269  1.3775
  2604G12c C01Z48290   5.403   6.287   7.735 -0.4097  2.7607  0.3848
  2604G12c H00R48291   5.487   6.232   7.692  1.3433  2.2926  4.1960
  2604G12c H00Q48292   5.392   6.271   7.842 -4.5688  2.4402 -0.0161
  2604G12c O00948293   5.328   6.238   7.631 -1.8547 -0.5916 -0.2630
  2604G12c H00P48294   5.239   6.237   7.661 -2.6642  3.6009 -2.2348
  2604G12c C01W48295   5.432   6.524   7.642  1.4661 -0.6634 -1.1352
  2604G12c H00O48296   5.507   6.601   7.642 -1.2754  2.3401  5.2571
  2604G12c C01X48297   5.291   6.547   7.586 -1.0430  1.2757 -0.7764
  2604G12c H00N48298   5.281   6.640   7.529  3.7420  1.3415 -1.7268
  2604G12c H00M48299   5.260   6.447   7.554 -4.1383  1.4495  1.5679
  2604G12c C01Y48300   5.213   6.572   7.728 -1.7696  1.0440 -0.4198
  2604G12c C02D48301   5.148   6.451   7.773  1.9961 -0.9150 -0.2498
  2604G12c H01948302   5.180   6.354   7.740  4.8222  0.1442 -0.7724
  2604G12c C02C48303   5.097   6.448   7.898 -0.9988 -0.1886 -2.0106
  2604G12c H01A48304   5.031   6.375   7.944  0.1113  1.2987  2.0692
  2604G12c C02B48305   5.089   6.570   7.972 -0.3004 -0.2496  1.0405
  2604G12c O00E48306   5.040   6.586   8.103  0.3670  0.3842  0.6067
  2604G12c H01B48307   5.058   6.676   8.085  1.1099  0.6637  2.6165
  2604G12c C02F48308   5.171   6.681   7.939 -0.5966  1.4736  1.3444
  2604G12c O00F48309   5.188   6.770   8.025  0.4131 -0.5044 -1.5454
  2604G12c C02G48310   5.290   6.751   8.111  0.1399  1.3999  1.5003
  2604G12c H01748311   5.349   6.836   8.077  0.1909 -1.5107 -6.8789
  2604G12c H01648312   5.343   6.657   8.126  0.3962 -0.5272 -8.0435
  2604G12c H01548313   5.305   6.801   8.206 -5.0583  0.3594  3.0235
  2604G12c C02E48314   5.216   6.687   7.806 -0.2087  0.3828 -0.2668
  2604G12c H01848315   5.286   6.767   7.784  4.6201 -2.3943  3.9978
  2604G12c C01F48316   5.827   6.387   7.761 -1.5963 -0.3885  0.4003
  2604G12c C01G48317   5.829   6.321   7.877 -0.1017  0.5982  1.0003
  2604G12c H00L48318   5.735   6.326   7.930 -4.2318 -1.6236 -5.4084
  2604G12c C01H48319   5.955   6.272   7.923  0.8005  0.4421 -0.0396
  2604G12c H00B48320   5.917   6.203   7.996 -0.3966 -0.6126 -1.6431
  2604G12c C01I48321   6.069   6.285   7.857  1.1202  0.2942  0.1018
  2604G12c C01U48322   5.956   6.410   7.712 -0.2946 -0.7463 -0.5133
  2604G12c C00S48323   6.192   6.324   7.210  2.2761 -0.9131 -0.7168
  2604G12c C00K48324   6.277   6.280   7.413 -1.3322  1.6471  0.6077
  2604G12c C00N48325   5.953   6.420   7.563 -0.1522  1.6675 -0.5459
  2604G12c C00048326   6.083   6.392   7.764 -0.3952 -2.7436  0.0963
  2604G12c C01J48327   6.181   6.197   7.820  0.1313  0.1272 -0.5275
  2604G12c C01K48328   6.246   6.094   7.894  0.9979 -0.4726 -0.4454
  2604G12c C01P48329   6.235   6.059   8.034 -0.4614  0.8000 -0.6451
  2604G12c C01Q48330   6.181   6.155   8.135  0.1137 -0.4644  1.5711
  2604G12c H00G48331   6.095   6.156   8.201  3.9321  3.7680  6.8373
  2604G12c C01R48332   6.238   6.266   8.156 -0.1971  0.1515  0.0540
  2604G12c H00F48333   6.331   6.290   8.108  1.5545 -2.3902  2.0317
  2604G12c C01S48334   6.194   6.408   8.211 -0.3084  1.0988  0.8304
  2604G12c H00E48335   6.256   6.484   8.164  1.3984 -3.4943 -4.9005
  2604G12c H00D48336   6.086   6.425   8.213  0.2974  6.4614 -2.3203
  2604G12c O00548337   6.232   6.415   8.353  1.2908  0.4960 -0.8786
  2604G12c H00C48338   6.244   6.322   8.366  1.3702  0.4172 -1.5253
  2604G12c C01O48339   6.273   5.922   8.058  1.4262  1.4938 -1.0922
  2604G12c H00H48340   6.279   5.915   8.165  6.4802  2.1053 -1.2346
  2604G12c C01N48341   6.300   5.819   7.972 -0.2145 -1.1641 -1.4291
  2604G12c O00648342   6.299   5.689   8.010 -1.6130 -0.3543  1.0779
  2604G12c C01T48343   6.172   5.627   8.051  0.4439  1.3241 -0.9482
  2604G12c H00K48344   6.205   5.540   8.108  1.8520  0.9459 -2.3105
  2604G12c H00J48345   6.081   5.620   7.991 -2.6845 -5.1889  3.9293
  2604G12c H00I48346   6.157   5.696   8.134 -3.8947  1.3695 -1.6344
  2604G12c C01M48347   6.331   5.855   7.844  0.2121  2.2762 -0.6936
  2604G12c C02048348   6.370   6.188   7.497  0.7990  0.4464 -1.6608
  2604G12c C02148349   6.476   6.101   7.454  0.9318 -0.9414 -0.1829
  2604G12c C01L48350   6.308   5.995   7.813  0.7967 -0.4828 -0.9298
  2604G12c O00748351   6.387   5.773   7.750  1.3224 -0.8854 -0.4580
  2604G12c C02248352   6.514   5.997   7.505 -1.6365 -0.7909 -0.0481
  2604G12c C02348353   6.480   6.088   7.317  0.2539  1.0406 -1.0416
  2604G12c C00G48354   6.393   5.966   7.095 -0.6709 -0.3233 -0.4977
  2604G12c C00E48355   6.471   5.807   6.911  0.8741  0.5787 -0.4584
  2604G12c O00A48356   6.468   5.776   6.771 -0.1332 -1.8712  0.4726
  2604G12c C02448357   6.551   5.845   6.681  0.5133  0.7966  0.7494
  2604G12c H00V48358   6.648   5.797   6.698 -2.2209 -5.2414  0.5535
  2604G12c H00U48359   6.548   5.954   6.681  3.4206  0.9807 -3.8817
  2604G12c H00T48360   6.532   5.817   6.578 -0.9211  0.9448  0.9613
  2614G12c C00D48361  13.377  10.116   1.511 -0.9438  0.0761 -1.5546
  2614G12c O00B48362  13.375  10.143   1.378 -0.3114  0.2486  0.1291
  2614G12c C02548363  13.461  10.064   1.289  0.5737  0.0399 -1.5284
  2614G12c C02648364  13.583  10.131   1.241 -0.0387  0.4550 -1.1257
  2614G12c H00Y48365  13.570  10.183   1.147 -5.2262 -2.1472 -1.9994
  2614G12c H00X48366  13.641  10.047   1.203 -2.2951 -1.0967 -1.2164
  2614G12c O00C48367  13.628  10.193   1.362  1.0751 -0.8459 -0.8217
  2614G12c H00W48368  13.568  10.251   1.405  2.8379  0.5763 -0.1831
  2614G12c C02748369  13.397   9.972   1.215  0.7820  0.9609 -1.8898
  2614G12c O00D48370  13.286   9.920   1.272  0.2166 -0.5057 -0.2020
  2614G12c H00Z48371  13.242   9.988   1.321 -4.9471 -7.3469  5.8828
  2614G12c C02848372  13.440   9.890   1.106 -0.4056  1.7629 -1.1768
  2614G12c C02948373  13.458   9.944   0.988 -0.9959  0.8617 -0.4518
  2614G12c H01048374  13.425  10.046   0.999 -2.0366  0.4426  0.5291
  2614G12c C02T48375  13.466   9.859   0.878 -0.8063  1.0539  0.2191
  2614G12c H01O48376  13.421   9.908   0.792  0.1730  1.2628 -0.1822
  2614G12c C02S48377  13.483   9.710   0.910  0.8807 -0.2063  0.8529
  2614G12c O00J48378  13.514   9.625   0.801 -1.1393 -0.5221 -0.1741
  2614G12c H01P48379  13.549   9.542   0.830 -3.0518 -1.2105  0.2463
  2614G12c C02R48380  13.516   9.660   1.039  0.1592 -0.5374  0.7748
  2614G12c O00I48381  13.533   9.525   1.070  0.1514  0.4827 -0.6602
  2614G12c C02Q48382  13.412   9.420   1.074  1.9017 -1.6544 -0.5266
  2614G12c H01N48383  13.476   9.340   1.111 -5.1974 -4.8247  6.3261
  2614G12c H01R48384  13.367   9.407   0.975 -1.7742 -4.5879  1.3861
  2614G12c H01Q48385  13.313   9.426   1.119  2.1019  1.4138 -0.3457
  2614G12c C02A48386  13.459   9.743   1.136 -0.5925  1.9860  0.8218
  2614G12c H01148387  13.476   9.704   1.235 -0.0151  0.9496  0.3187
  2614G12c C00C48388  13.388   9.982   1.552 -0.3078 -1.6591  0.3265
  2614G12c H01248389  13.426   9.910   1.481  4.5578  0.5061  0.5372
  2614G12c C00B48390  13.379   9.952   1.689 -1.0768  0.7252  1.2383
  2614G12c C00A48391  13.433   9.829   1.750 -0.3373 -0.4758 -1.5394
  2614G12c C00948392  13.489   9.716   1.695 -0.0998 -0.6097 -1.3710
  2614G12c C00848393  13.508   9.663   1.571 -0.1847 -0.3686 -1.3943
  2614G12c H01348394  13.526   9.730   1.489  1.5387 -0.7997 -1.3888
  2614G12c C00748395  13.502   9.524   1.554  0.4389  0.0430 -0.9754
  2614G12c H01448396  13.500   9.468   1.462  4.1920 -1.8812  0.0025
  2614G12c C00648397  13.444   9.433   1.649  0.1578  1.0686 -1.0385
  2614G12c C00548398  13.405   9.496   1.763  1.0357  1.1272 -1.8160
  2614G12c C00448399  13.342   9.424   1.872 -0.2255 -0.6562 -0.5791
  2614G12c C00348400  13.305   9.488   2.000 -1.2718  1.2197 -0.0257
  2614G12c C00248401  13.236   9.407   2.095 -0.5794 -0.1005 -0.4461
  2614G12c C00148402  13.153   9.430   2.219  0.5646  0.9958 -0.0065
  2614G12c C00M48403  13.084   9.561   2.225 -0.2483 -1.5158 -0.8825
  2614G12c C00L48404  13.148   9.673   2.214  0.2616 -0.6679  0.2066
  2614G12c C00R48405  13.058   9.797   2.193 -0.5109  0.8166  1.4532
  2614G12c C00Q48406  12.922   9.825   2.218 -1.1911 -0.7187  1.6324
  2614G12c C00V48407  12.888   9.958   2.189  0.3917  0.4703 -0.4856
  2614G12c C00U48408  12.962  10.037   2.091  0.7530 -0.8481  0.1025
  2614G12c C00T48409  13.073   9.987   2.042  0.2441 -0.3096 -1.0441
  2614G12c C01648410  13.147  10.052   1.951  0.2804  1.1458  1.7086
  2614G12c C01548411  13.103  10.175   1.904 -1.2752 -0.8608 -0.7018
  2614G12c C01048412  12.994  10.232   1.960  0.5291 -0.3140 -1.2269
  2614G12c C01148413  12.982  10.370   1.946 -0.7546  0.6493 -0.0657
  2614G12c H00548414  12.916  10.434   2.002 -0.2060 -1.1782  2.7624
  2614G12c C01248415  13.046  10.433   1.832  2.4361  1.7321  0.5754
  2614G12c C01748416  13.005  10.567   1.769  0.9369 -0.2183  0.6023
  2614G12c O00248417  12.889  10.581   1.699 -0.1357  0.8339 -0.4829
  2614G12c H00448418  12.884  10.675   1.712 -7.5870  0.4747  1.5088
  2614G12c C01848419  13.096  10.676   1.775 -0.2837 -1.5404  0.9367
  2614G12c O00148420  13.220  10.667   1.858  1.2856  1.6179 -1.2730
  2614G12c H00348421  13.184  10.620   1.932 -1.7771  4.5452 -0.7542
  2614G12c C01948422  13.084  10.788   1.671  1.0349  1.3924 -0.9493
  2614G12c H00248423  13.192  10.791   1.653  1.8589 -3.8245  2.1084
  2614G12c H00148424  13.036  10.738   1.588 -2.6985 -1.3713  2.6630
  2614G12c O00048425  12.977  10.880   1.716 -0.8785  0.9540  0.6803
  2614G12c C01A48426  12.984  11.001   1.679  1.2964 -1.0976 -0.3054
  2614G12c C02K48427  12.940  11.094   1.777  0.0439 -0.2711  0.1512
  2614G12c O00G48428  12.946  11.049   1.908 -0.3727  0.9745 -0.8985
  2614G12c C02M48429  13.057  11.060   1.976  0.5223  1.0811 -0.7438
  2614G12c H01G48430  13.018  11.118   2.059  0.5554 -2.9054  2.1948
  2614G12c H01F48431  13.132  11.135   1.951  2.0077  0.6149  2.1400
  2614G12c H01E48432  13.095  10.972   2.027 -6.7339 -0.9105  1.9372
  2614G12c C02J48433  12.876  11.202   1.729  0.9128  0.5798  0.2962
  2614G12c H01H48434  12.834  11.271   1.801  1.8122  6.0600 -4.0275
  2614G12c C02I48435  12.881  11.244   1.594  2.9444  0.8387 -0.6013
  2614G12c C02N48436  12.797  11.345   1.567  1.1639 -0.2658  1.1414
  2614G12c H01M48437  12.804  11.452   1.582  1.4251 -0.4543  2.4974
  2614G12c C02O48438  12.679  11.318   1.515  1.6843  1.3347  1.7522
  2614G12c H01L48439  12.650  11.217   1.487 -1.7319  3.2742 -2.2934
  2614G12c C02P48440  12.617  11.418   1.428  0.7857 -1.4611  0.0879
  2614G12c H01K48441  12.703  11.476   1.393  0.6835 -2.5356 -1.9932
  2614G12c H01J48442  12.543  11.390   1.353 -1.5262  5.7032 -0.6046
  2614G12c O00H48443  12.556  11.520   1.497  0.9154 -0.9253 -1.2338
  2614G12c H01I48444  12.527  11.589   1.440 -2.5273 -0.8298  0.4908
  2614G12c C02H48445  12.945  11.154   1.502  0.5125  1.3333  0.1355
  2614G12c H01C48446  12.946  11.184   1.398 -0.3773 -2.3917 -0.9980
  2614G12c C02L48447  12.992  11.024   1.537 -0.7668  0.2553  0.8244
  2614G12c H01D48448  13.033  10.946   1.475  2.1731  2.7490 -0.5166
  2614G12c C01348449  13.115  10.355   1.748  1.7644 -1.8602  0.3954
  2614G12c H00048450  13.111  10.386   1.645  2.3675  4.9857  2.1931
  2614G12c C01448451  13.168  10.240   1.795  0.4289  1.2929  1.2601
  2614G12c C00F48452  13.262  10.165   1.727  0.5922 -0.4991  2.1481
  2614G12c C00H48453  13.252   9.987   1.885 -0.8468  0.3239 -1.4245
  2614G12c C00I48454  13.298   9.871   1.947 -0.3387 -0.3622 -1.0825
  2614G12c C00J48455  13.248   9.835   2.068 -1.1633  0.3278 -0.9092
  2614G12c C00Z48456  12.917  10.162   2.049 -0.4167 -0.4990 -0.9790
  2614G12c C00Y48457  12.793  10.210   2.099  1.0676 -1.4574 -0.9545
  2614G12c H00648458  12.760  10.302   2.054 -7.1483 -1.1914  4.5267
  2614G12c C00X48459  12.699  10.134   2.166 -0.1616  0.0746  1.4144
  2614G12c O00348460  12.587  10.211   2.213  0.7368 -0.1542  0.0312
  2614G12c C01B48461  12.591  10.228   2.361 -0.3048 -0.3246 -1.3192
  2614G12c H00948462  12.700  10.233   2.370 -0.7147  4.9035  3.8881
  2614G12c H00848463  12.558  10.139   2.415  0.9474  0.9909  1.7481
  2614G12c H00748464  12.558  10.329   2.384  4.4704  1.4690 -1.8500
  2614G12c C00W48465  12.762  10.007   2.217 -0.2439  0.0087 -1.1384
  2614G12c O00448466  12.668   9.945   2.276 -1.1702 -0.0374  0.9787
  2614G12c C01C48467  12.679   9.820   2.282 -2.0897 -0.3148  0.1402
  2614G12c H00A48468  12.602   9.770   2.339 -0.1733  2.2269  5.2222
  2614G12c C00P48469  12.799   9.741   2.246  0.3499  0.1428 -0.2485
  2614G12c C00O48470  12.801   9.606   2.235 -0.3170 -0.6508  1.1209
  2614G12c C01D48471  12.689   9.532   2.241  0.7609 -1.8901 -1.6955
  2614G12c H00S48472  12.594   9.564   2.281 -0.0791 -0.7275 -4.4807
  2614G12c C01E48473  12.690   9.401   2.182 -0.5733 -0.2350  0.2703
  2614G12c O00848474  12.579   9.376   2.103 -0.3719  0.9839  0.8442
  2614G12c C01V48475  12.546   9.243   2.057  0.0501  1.2881 -2.2323
  2614G12c C01Z48476  12.506   9.242   1.912  0.2541  1.4124  1.6355
  2614G12c H00R48477  12.570   9.170   1.862 -3.1923 -3.7601  4.1672
  2614G12c H00Q48478  12.416   9.192   1.879  0.0202  3.2167 -0.5438
  2614G12c O00948479  12.585   9.346   1.861 -1.7379 -2.1953  0.1650
  2614G12c H00P48480  12.648   9.363   1.928 -1.9794 -0.6451 -0.0008
  2614G12c C01W48481  12.540   9.140   2.140  2.4031  1.1499  0.3432
  2614G12c H00O48482  12.570   9.154   2.243  0.9138  1.7690  0.7022
  2614G12c C01X48483  12.487   8.997   2.128  0.4584 -1.1045 -0.1018
  2614G12c H00N48484  12.429   8.961   2.214 -7.2550  4.4319 -2.3880
  2614G12c H00M48485  12.386   8.998   2.085 -0.3091  0.1069  1.6425
  2614G12c C01Y48486  12.560   8.861   2.099  0.0698 -0.1643 -1.9561
  2614G12c C02D48487  12.524   8.751   2.016  0.5189 -0.9522 -2.1935
  2614G12c H01948488  12.425   8.778   1.984 -0.0346  3.6462  2.6125
  2614G12c C02C48489  12.597   8.632   1.995  1.4856  0.7050  1.3786
  2614G12c H01A48490  12.551   8.553   1.938 -0.3585  4.3389 -2.3795
  2614G12c C02B48491  12.723   8.641   2.057  0.4561  2.8750  0.2825
  2614G12c O00E48492  12.812   8.541   2.059 -0.0560 -0.5921 -1.5280
  2614G12c H01B48493  12.791   8.497   2.140  2.5542  2.4526  0.9444
  2614G12c C02F48494  12.768   8.743   2.130  0.4720  1.8803  1.1040
  2614G12c O00F48495  12.861   8.738   2.230 -1.1762  0.2704  1.1357
  2614G12c C02G48496  12.835   8.659   2.334  1.8552 -0.3862  1.3963
  2614G12c H01748497  12.735   8.626   2.365  1.8284  2.6297  4.7991
  2614G12c H01648498  12.879   8.701   2.424  0.1184 -4.4698  4.3445
  2614G12c H01548499  12.878   8.574   2.281  2.5024  3.3987 -4.5840
  2614G12c C02E48500  12.683   8.842   2.154 -0.8263  1.0915  0.7883
  2614G12c H01848501  12.692   8.914   2.234 -7.3896  1.3698  1.5032
  2614G12c C01F48502  12.826   9.340   2.165 -0.2379 -2.6857 -2.0920
  2614G12c C01G48503  12.850   9.221   2.092 -0.5927  1.1390 -0.1435
  2614G12c H00L48504  12.770   9.149   2.086 -0.4619  0.3646  5.3839
  2614G12c C01H48505  12.993   9.178   2.055  1.7833 -0.0051  0.4209
  2614G12c H00B48506  13.017   9.103   1.981 -0.7125  0.7731 -1.2545
  2614G12c C01I48507  13.088   9.240   2.121 -1.4443 -0.0824  1.4479
  2614G12c C01U48508  12.934   9.389   2.219  0.3094 -1.3725 -0.2169
  2614G12c C00S48509  13.135   9.893   2.132  1.7890 -0.0934  0.0862
  2614G12c C00K48510  13.235   9.700   2.099 -1.3616 -0.5990 -0.2400
  2614G12c C00N48511  12.929   9.528   2.252 -0.3687 -1.8882  0.8668
  2614G12c C00048512  13.065   9.312   2.240  0.3375  0.5428 -0.3193
  2614G12c C01J48513  13.218   9.269   2.067  0.8329 -0.8070  0.6985
  2614G12c C01K48514  13.284   9.197   1.962  1.1755  0.5845  1.0277
  2614G12c C01P48515  13.283   9.055   1.943 -1.9284  0.4918 -1.0866
  2614G12c C01Q48516  13.229   8.949   2.013  1.0100  0.1957 -0.2759
  2614G12c H00G48517  13.122   8.942   2.021  0.3212  6.2867 -1.3133
  2614G12c C01R48518  13.291   8.842   2.058 -0.1152 -0.5177  0.3456
  2614G12c H00F48519  13.231   8.758   2.089  2.7671 -0.4484  7.0610
  2614G12c C01S48520  13.436   8.815   2.061 -2.0954  0.7925 -1.6061
  2614G12c H00E48521  13.463   8.912   2.103 -5.7990  1.2750 -0.1790
  2614G12c H00D48522  13.462   8.825   1.956  0.5731 -2.6600 -1.3709
  2614G12c O00548523  13.468   8.711   2.144 -0.5408 -1.4648  0.4314
  2614G12c H00C48524  13.398   8.648   2.144 -0.8391 -1.3001 -4.7811
  2614G12c C01O48525  13.324   8.997   1.816  1.5449  1.1047 -1.2392
  2614G12c H00H48526  13.280   8.900   1.797 -2.2649  2.9892 -2.6602
  2614G12c C01N48527  13.398   9.071   1.728  0.1785  0.5425 -0.3281
  2614G12c O00648528  13.420   8.988   1.604  2.8989  0.0134 -0.9466
  2614G12c C01T48529  13.505   9.032   1.509  0.4802  0.1107  0.9705
  2614G12c H00K48530  13.514   8.938   1.454  3.6396  0.9319 -0.0312
  2614G12c H00J48531  13.468   9.114   1.449 -0.3543 -1.9857 -1.4565
  2614G12c H00I48532  13.595   9.051   1.568  1.8107 -4.8500  0.7345
  2614G12c C01M48533  13.412   9.222   1.751  0.9745 -0.2499 -0.1194
  2614G12c C02048534  13.310   9.626   2.008 -1.1270  0.7903  1.3239
  2614G12c C02148535  13.402   9.673   1.909  0.6553 -1.0915  0.0765
  2614G12c C01L48536  13.351   9.276   1.868  2.9651 -2.1207  0.7907
  2614G12c O00748537  13.443   9.297   1.652 -0.3421 -0.9340 -0.9954
  2614G12c C02248538  13.448   9.607   1.794 -1.5489  0.4434  0.4012
  2614G12c C02348539  13.388   9.800   1.880  0.2730 -0.5979 -1.8101
  2614G12c C00G48540  13.314  10.037   1.774 -1.3721  1.0575 -0.5252
  2614G12c C00E48541  13.330  10.213   1.601  0.3024  0.5677 -1.0439
  2614G12c O00A48542  13.322  10.366   1.580  0.8131 -0.3517  0.4599
  2614G12c C02448543  13.377  10.452   1.654 -0.2393 -0.9445 -0.5106
  2614G12c H00V48544  13.412  10.542   1.603 -2.7201  0.9082  0.9491
  2614G12c H00U48545  13.330  10.500   1.740 -2.6927 -1.1695 -1.6647
  2614G12c H00T48546  13.458  10.392   1.696 -1.9713 -1.1394  2.6998
  2624G12c C00D48547   1.018   2.500   0.816 -0.4431  0.7142 -0.4917
  2624G12c O00B48548   1.002   2.364   0.839  0.1394  0.4128  0.1843
  2624G12c C02548549   1.066   2.270   0.752  1.8257 -0.3548 -0.6634
  2624G12c C02648550   1.217   2.279   0.746  0.2278  1.2642 -1.7929
  2624G12c H00Y48551   1.223   2.353   0.666 -3.1223  0.4169 -2.9130
  2624G12c H00X48552   1.293   2.215   0.701 -4.7880 -4.8133 -2.2136
  2624G12c O00C48553   1.277   2.314   0.873 -2.4231 -0.6201 -0.4165
  2624G12c H00W48554   1.367   2.331   0.848 -3.6707  5.2773 -1.7281
  2624G12c C02748555   0.989   2.169   0.707  1.0682 -0.1726 -0.7678
  2624G12c O00D48556   0.862   2.198   0.738  0.0545 -0.6683  1.9371
  2624G12c H00Z48557   0.864   2.288   0.765  1.9210 -0.5791  1.5408
  2624G12c C02848558   1.045   2.039   0.705 -0.7466 -0.2607  2.3245
  2624G12c C02948559   1.063   2.002   0.575 -0.7219  0.2125 -0.3688
  2624G12c H01048560   1.075   2.082   0.504 -2.6300  1.3648  0.5688
  2624G12c C02T48561   1.095   1.863   0.553  0.6743  0.8758 -1.8118
  2624G12c H01O48562   1.119   1.833   0.452  1.5045  0.2786 -1.4487
  2624G12c C02S48563   1.123   1.779   0.668  0.9652 -0.7917 -0.8086
  2624G12c O00J48564   1.162   1.651   0.662 -0.3805 -0.0096 -0.9611
  2624G12c H01P48565   1.178   1.592   0.734  2.8994  0.5070 -1.2127
  2624G12c C02R48566   1.088   1.816   0.799  0.0756 -0.2476 -0.4584
  2624G12c O00I48567   1.096   1.724   0.913 -0.9141 -0.9437  0.1247
  2624G12c C02Q48568   0.953   1.658   0.908 -1.2374  1.5998  0.7223
  2624G12c H01N48569   0.872   1.728   0.889 -3.9244 -1.1489  1.5445
  2624G12c H01R48570   0.930   1.610   0.812 -1.7343  5.7262 -1.3090
  2624G12c H01Q48571   0.953   1.575   0.979  0.1937 -0.1856 -1.2794
  2624G12c C02A48572   1.064   1.957   0.819 -0.5978  0.2676 -1.8004
  2624G12c H01148573   1.022   1.993   0.912 -0.9565  0.5830 -2.0832
  2624G12c C00C48574   1.064   2.548   0.705 -1.0099 -1.3576  0.2215
  2624G12c H01248575   1.042   2.478   0.626 -1.1503 -0.7350 -0.3055
  2624G12c C00B48576   1.125   2.668   0.672  0.1927 -0.1339 -0.5589
  2624G12c C00A48577   1.203   2.710   0.552 -0.9634 -0.8773  0.1708
  2624G12c C00948578   1.275   2.616   0.462 -0.1605  0.2631 -1.0837
  2624G12c C00848579   1.279   2.500   0.400  0.7361  0.0959  0.0145
  2624G12c H01348580   1.193   2.440   0.377 -3.5332  6.1911 -1.0276
  2624G12c C00748581   1.408   2.461   0.340  0.5616 -0.0184  1.4735
  2624G12c H01448582   1.394   2.366   0.290 -0.6697 -2.3843  5.9676
  2624G12c C00648583   1.501   2.556   0.290  1.3007 -2.3450 -2.0494
  2624G12c C00548584   1.487   2.686   0.325  1.2705 -0.3227 -0.0528
  2624G12c C00448585   1.573   2.793   0.320 -1.1691  0.3008  0.1341
  2624G12c C00348586   1.553   2.922   0.394 -0.1982  1.6295  1.7231
  2624G12c C00248587   1.661   3.016   0.369  0.1496 -0.5237 -0.3100
  2624G12c C00148588   1.664   3.151   0.421  1.2239 -2.3844  0.4092
  2624G12c C00M48589   1.637   3.192   0.566  0.1243  1.5706 -0.9967
  2624G12c C00L48590   1.520   3.137   0.628 -0.5064 -0.3759 -1.4372
  2624G12c C00R48591   1.493   3.162   0.754  0.3521  0.9768  0.3503
  2624G12c C00Q48592   1.568   3.213   0.872  0.2977  0.9576  0.6325
  2624G12c C00V48593   1.489   3.191   0.994 -0.6594 -0.2926 -0.8778
  2624G12c C00U48594   1.372   3.107   0.999 -0.1953 -0.3129 -0.2713
  2624G12c C00T48595   1.319   3.050   0.892 -1.2213 -0.2103  0.2656
  2624G12c C01648596   1.218   2.953   0.881 -2.5469  2.9320  1.9927
  2624G12c C01548597   1.168   2.925   1.007  1.5058 -0.9347 -0.3677
  2624G12c C01048598   1.214   2.980   1.124  0.7370  0.3605  0.1994
  2624G12c C01148599   1.154   2.933   1.251 -0.4924 -1.5914 -0.6250
  2624G12c H00548600   1.213   2.949   1.340 -4.1070  6.2301  0.8399
  2624G12c C01248601   1.049   2.841   1.257  1.4492 -0.5349 -1.6509
  2624G12c C01748602   0.997   2.786   1.369 -0.3669  1.4558  1.4290
  2624G12c O00248603   1.072   2.697   1.436  1.2739 -0.6634  0.1940
  2624G12c H00448604   1.010   2.667   1.499 -5.3205  3.3670 -3.7845
  2624G12c C01848605   0.875   2.806   1.420 -0.7008  0.2366 -1.0549
  2624G12c O00148606   0.850   2.750   1.534 -0.1920 -1.0567  1.3148
  2624G12c H00348607   0.788   2.817   1.559 -0.1859  2.3496 -6.3962
  2624G12c C01948608   0.775   2.891   1.341  1.9344 -0.9176  0.0625
  2624G12c H00248609   0.778   2.966   1.262 -1.3612  0.4333  1.1114
  2624G12c H00148610   0.736   2.794   1.309  1.8883 -2.9658  5.8199
  2624G12c O00048611   0.675   2.920   1.456  0.6040  0.5052  0.1390
  2624G12c C01A48612   0.648   3.024   1.524 -0.9322 -1.6126 -0.0922
  2624G12c C02K48613   0.623   3.009   1.657 -0.4142 -1.7467  0.9507
  2624G12c O00G48614   0.657   2.889   1.726 -0.1806 -1.1416  0.1249
  2624G12c C02M48615   0.579   2.852   1.849  0.3091  1.5214  0.2653
  2624G12c H01G48616   0.631   2.855   1.945  3.0802  1.2020 -1.1563
  2624G12c H01F48617   0.600   2.745   1.851 -0.9538  1.2930  2.4230
  2624G12c H01E48618   0.477   2.870   1.815  1.2620  0.7241 -3.2323
  2624G12c C02J48619   0.548   3.127   1.726 -0.4356  0.0837 -0.9609
  2624G12c H01H48620   0.496   3.078   1.806 -1.7271  1.1317 -1.1375
  2624G12c C02I48621   0.538   3.252   1.693  1.0037 -0.6366  1.2336
  2624G12c C02N48622   0.463   3.359   1.781  1.9662 -0.3149  0.8666
  2624G12c H01M48623   0.406   3.347   1.872 -5.3510 -3.3034 -3.5995
  2624G12c C02O48624   0.453   3.480   1.727  0.7246  1.2996 -0.5310
  2624G12c H01L48625   0.508   3.516   1.641  0.5967  2.8981  0.0417
  2624G12c C02P48626   0.366   3.603   1.779  0.1426 -0.6059  0.1034
  2624G12c H01K48627   0.319   3.671   1.708 -0.0192 -2.7792 -1.9682
  2624G12c H01J48628   0.292   3.587   1.857 -0.2354  1.4798  0.1833
  2624G12c O00H48629   0.477   3.688   1.817 -1.1001 -0.8249 -0.0267
  2624G12c H01I48630   0.471   3.677   1.911  1.4652 -2.1410  0.0254
  2624G12c C02H48631   0.590   3.269   1.573 -0.4008  1.5029 -1.4420
  2624G12c H01C48632   0.573   3.366   1.531 -5.0444  1.5873  0.3982
  2624G12c C02L48633   0.637   3.166   1.483  3.2066  1.2128  0.1303
  2624G12c H01D48634   0.690   3.200   1.396  0.9350  5.3985  0.2384
  2624G12c C01348635   1.018   2.779   1.139  0.4029  0.0894  0.2641
  2624G12c H00048636   0.950   2.699   1.162 -5.8494  4.7447 -0.6331
  2624G12c C01448637   1.081   2.811   1.020  0.4950  0.7000 -0.1028
  2624G12c C00F48638   1.075   2.713   0.911  0.1025 -0.4215 -0.5551
  2624G12c C00H48639   1.190   2.876   0.767  1.7414  0.3431 -1.2532
  2624G12c C00I48640   1.242   2.930   0.654 -0.0647 -0.4561 -0.2370
  2624G12c C00J48641   1.319   3.050   0.651 -0.0873  1.0907  0.0349
  2624G12c C00Z48642   1.326   3.071   1.124 -0.1470 -0.3123  0.5522
  2624G12c C00Y48643   1.348   3.148   1.235 -1.9518  0.5680 -0.2094
  2624G12c H00648644   1.304   3.167   1.332  1.6892  4.4619  0.8327
  2624G12c C00X48645   1.468   3.224   1.246 -0.9209 -0.3708  1.2107
  2624G12c O00348646   1.532   3.230   1.370 -0.7259 -0.0532 -1.0093
  2624G12c C01B48647   1.555   3.357   1.422  1.4825 -0.2160  0.1153
  2624G12c H00948648   1.477   3.428   1.396  1.2349  1.8435  5.8878
  2624G12c H00848649   1.572   3.370   1.529 -1.1006  2.0216  0.2927
  2624G12c H00748650   1.645   3.366   1.361 -1.5619 -4.2856 -5.4822
  2624G12c C00W48651   1.544   3.237   1.124  1.2333 -0.7704  0.9326
  2624G12c O00448652   1.663   3.306   1.128  0.6136  0.6143  1.1095
  2624G12c C01C48653   1.739   3.324   1.009 -1.7006 -0.8375 -0.2261
  2624G12c H00A48654   1.831   3.380   1.007  1.2826 -5.4557 -0.8639
  2624G12c C00P48655   1.702   3.271   0.878 -1.7162  0.5135  0.8374
  2624G12c C00O48656   1.796   3.264   0.768  0.3457 -0.3820 -1.9654
  2624G12c C01D48657   1.924   3.261   0.791  1.2790  1.9282  1.0692
  2624G12c H00S48658   1.959   3.276   0.892  3.0186 -3.7676  1.5180
  2624G12c C01E48659   2.029   3.256   0.693  0.5108 -0.6325  0.5031
  2624G12c O00848660   2.164   3.275   0.704  1.2787 -0.4756  1.1497
  2624G12c C01V48661   2.199   3.322   0.839 -1.3957  1.5403  0.0525
  2624G12c C01Z48662   2.217   3.474   0.834  0.3500 -0.2505 -0.2133
  2624G12c H00R48663   2.273   3.510   0.748  2.9319 -2.3557  0.5118
  2624G12c H00Q48664   2.114   3.508   0.826  1.5411  3.6799 -0.0139
  2624G12c O00948665   2.264   3.523   0.964  0.3295 -0.6784 -1.7873
  2624G12c H00P48666   2.346   3.478   0.957  2.1184  2.0775  0.2695
  2624G12c C01W48667   2.280   3.238   0.916 -0.8452 -1.6749 -0.2655
  2624G12c H00O48668   2.357   3.280   0.978 -2.1024  2.4621 -1.3317
  2624G12c C01X48669   2.331   3.095   0.886  0.6002 -0.6795 -1.1227
  2624G12c H00N48670   2.306   3.076   0.781 -4.8852 -6.4973  0.9632
  2624G12c H00M48671   2.436   3.075   0.862  0.9395  1.9161 -1.9774
  2624G12c C01Y48672   2.276   3.015   1.006 -1.4033 -0.3568 -1.0246
  2624G12c C02D48673   2.153   3.032   1.057  2.2480  0.4624 -0.2786
  2624G12c H01948674   2.089   3.101   1.005 -0.5586 -1.0131  1.0698
  2624G12c C02C48675   2.110   2.942   1.158 -0.6150  0.2131  0.0511
  2624G12c H01A48676   2.003   2.928   1.157 -0.8038  0.2454 -7.2546
  2624G12c C02B48677   2.201   2.858   1.230  0.2604 -1.1365  1.5773
  2624G12c O00E48678   2.142   2.794   1.340 -0.8538 -0.8310  1.2007
  2624G12c H01B48679   2.052   2.813   1.362 -0.8517 -0.7405  1.1319
  2624G12c C02F48680   2.333   2.865   1.192 -2.4097  0.6742  0.7294
  2624G12c O00F48681   2.411   2.766   1.258  0.7468 -1.3748  0.4922
  2624G12c C02G48682   2.540   2.790   1.264  0.3061 -0.6987 -0.6545
  2624G12c H01748683   2.557   2.751   1.364  0.3192  3.7480  1.1939
  2624G12c H01648684   2.566   2.896   1.267  6.2869 -2.0014 -0.7805
  2624G12c H01548685   2.623   2.732   1.223 -0.2890 -3.6211  2.0808
  2624G12c C02E48686   2.377   2.943   1.085 -1.9953  1.3948 -2.3062
  2624G12c H01848687   2.477   2.928   1.048 -0.2622 -0.7348  2.9274
  2624G12c C01F48688   1.983   3.219   0.561 -0.6412  0.6355 -0.4825
  2624G12c C01G48689   2.075   3.165   0.449 -1.3139 -0.5228  0.4244
  2624G12c H00L48690   2.178   3.172   0.479  0.1340  1.2535 -4.4381
  2624G12c C01H48691   2.022   3.062   0.356  0.7543 -0.5554  1.7105
  2624G12c H00B48692   2.073   2.974   0.320 -0.8866  0.1569 -2.7483
  2624G12c C01I48693   1.872   3.074   0.346 -0.1259  0.3881 -3.4476
  2624G12c C01U48694   1.843   3.229   0.526 -0.1378 -0.0822 -0.0786
  2624G12c C00S48695   1.368   3.115   0.769 -0.2357  0.0316 -0.1852
  2624G12c C00K48696   1.446   3.038   0.570  0.1841  0.0040  0.5837
  2624G12c C00N48697   1.756   3.236   0.632 -0.4637  0.3681 -0.5277
  2624G12c C00048698   1.797   3.182   0.401 -0.3502  0.6727 -1.4805
  2624G12c C01J48699   1.774   2.976   0.302 -1.1810  0.3718 -0.0068
  2624G12c C01K48700   1.795   2.856   0.223  0.1229  1.3680 -0.8993
  2624G12c C01P48701   1.878   2.834   0.109 -1.1530  1.3484  0.2866
  2624G12c C01Q48702   1.954   2.944   0.048 -0.7618 -1.9798  1.8465
  2624G12c H00G48703   1.983   3.036   0.097 -2.4693 -0.2078 -0.3030
  2624G12c C01R48704   2.008   2.929  -0.079 -2.3690  1.5847  1.0625
  2624G12c H00F48705   1.964   2.859  -0.150  5.4616 -4.0662  1.1318
  2624G12c C01S48706   2.130   2.997  -0.133  0.0922  0.9237  0.2115
  2624G12c H00E48707   2.107   3.079  -0.201  1.7716  2.5669  1.5191
  2624G12c H00D48708   2.203   3.034  -0.060  1.1314  0.8815 -0.8051
  2624G12c O00548709   2.193   2.884  -0.210  0.5243 -0.3419 -0.3410
  2624G12c H00C48710   2.105   2.850  -0.223 -1.1315  1.7732  4.2564
  2624G12c C01O48711   1.892   2.697   0.066  0.1196  0.8681 -0.8670
  2624G12c H00H48712   1.973   2.680  -0.003  1.8248 -1.7321  1.6521
  2624G12c C01N48713   1.807   2.601   0.096  0.4151  2.4278  0.4162
  2624G12c O00648714   1.802   2.491   0.014 -0.1883  0.1854  2.0330
  2624G12c C01T48715   1.920   2.424  -0.033  1.7485  1.0395  1.5171
  2624G12c H00K48716   1.970   2.458  -0.123  0.3510  1.2673  0.8054
  2624G12c H00J48717   1.852   2.348  -0.072 -1.0484  0.9415  6.1872
  2624G12c H00I48718   1.977   2.369   0.042 -6.0272 -2.2184  5.6771
  2624G12c C01M48719   1.704   2.635   0.195  1.2718  0.3320  2.1380
  2624G12c C02048720   1.439   2.949   0.465 -0.1987  0.1483  1.6258
  2624G12c C02148721   1.347   2.841   0.441  0.2830 -1.0738  0.7658
  2624G12c C01L48722   1.699   2.764   0.260  2.6621 -0.3948 -0.4371
  2624G12c O00748723   1.607   2.538   0.220  0.2607 -0.0042 -0.0133
  2624G12c C02248724   1.362   2.714   0.403 -0.1198  0.6973  0.7304
  2624G12c C02348725   1.258   2.837   0.552  0.4714  1.6204 -0.8326
  2624G12c C00G48726   1.125   2.753   0.779  1.3993  0.5258 -0.3970
  2624G12c C00E48727   1.003   2.581   0.925  0.0118 -0.4354 -0.0514
  2624G12c O00A48728   0.949   2.554   1.046  0.8126 -1.3007  0.2268
  2624G12c C02448729   0.798   2.537   1.050  1.1255 -0.2689  0.0191
  2624G12c H00V48730   0.733   2.624   1.065  1.4942 -0.2785  1.7132
  2624G12c H00U48731   0.774   2.456   1.118 -2.7282  3.6252  3.6550
  2624G12c H00T48732   0.748   2.491   0.965  0.4640  1.3780 -0.5181
  2634G12c C00D48733   4.882   6.321   1.274 -0.4274  0.3833 -1.0303
  2634G12c O00B48734   4.882   6.428   1.371  2.3652 -0.1595 -0.1595
  2634G12c C02548735   4.980   6.434   1.467  0.0103  0.8899 -0.5027
  2634G12c C02648736   4.929   6.346   1.576 -1.8078  0.5985  2.0040
  2634G12c H00Y48737   4.841   6.282   1.573 -1.3771 -0.0213  2.3527
  2634G12c H00X48738   4.870   6.421   1.629  0.5424  1.7383  3.0716
  2634G12c O00C48739   5.004   6.252   1.651  0.5525 -1.4424  0.2450
  2634G12c H00W48740   5.026   6.292   1.734 -1.4485  0.5472 -0.1186
  2634G12c C02748741   5.091   6.516   1.486 -0.6308 -0.2102  0.9097
  2634G12c O00D48742   5.128   6.608   1.399 -0.0555  0.6816 -0.4681
  2634G12c H00Z48743   5.104   6.556   1.324  4.8994 -6.7745  2.5370
  2634G12c C02848744   5.184   6.496   1.590 -0.6155  0.7134 -1.4622
  2634G12c C02948745   5.184   6.590   1.692 -0.0326 -1.4396  0.9335
  2634G12c H01048746   5.150   6.691   1.672  2.1208 -0.5218  1.7299
  2634G12c C02T48747   5.288   6.592   1.787  0.1805  1.3454 -0.9292
  2634G12c H01O48748   5.333   6.669   1.849  1.1387 -2.6949  3.7397
  2634G12c C02S48749   5.373   6.469   1.805 -0.9265 -0.6436  0.5914
  2634G12c O00J48750   5.477   6.476   1.905 -0.4611  0.3695  1.0205
  2634G12c H01P48751   5.548   6.414   1.913  0.5439  1.8618  5.1468
  2634G12c C02R48752   5.349   6.361   1.711 -0.7142 -1.0869 -0.1695
  2634G12c O00I48753   5.406   6.240   1.733  0.1542  0.0932 -1.0985
  2634G12c C02Q48754   5.316   6.182   1.828 -0.1841 -0.9547 -0.2879
  2634G12c H01N48755   5.347   6.103   1.896 -5.7002 -2.2862  0.9827
  2634G12c H01R48756   5.209   6.190   1.850  0.5508 -5.1937  6.3850
  2634G12c H01Q48757   5.356   6.230   1.917 -3.3142  1.9313 -0.3260
  2634G12c C02A48758   5.256   6.377   1.608  0.0697  0.5566  2.0800
  2634G12c H01148759   5.251   6.292   1.541 -0.5667  3.4388 -1.7192
  2634G12c C00C48760   4.935   6.202   1.282 -1.4727  1.7940  1.4545
  2634G12c H01248761   4.997   6.183   1.368 -1.3578 -0.3495  0.9197
  2634G12c C00B48762   4.923   6.111   1.176 -0.7527 -2.2995 -0.0962
  2634G12c C00A48763   5.000   5.999   1.120  0.6921  1.5166 -3.1303
  2634G12c C00948764   5.133   5.945   1.148  0.4936 -0.0597  1.1834
  2634G12c C00848765   5.251   6.014   1.195 -1.0448 -2.2696  1.0491
  2634G12c H01348766   5.239   6.085   1.276 -2.9349  3.6831 -4.0829
  2634G12c C00748767   5.376   6.019   1.142 -0.9393  0.4915  2.3116
  2634G12c H01448768   5.444   6.070   1.209 -1.3699 -2.4175  5.1027
  2634G12c C00648769   5.393   5.949   1.022 -1.6088  0.8022 -0.5549
  2634G12c C00548770   5.294   5.872   0.961  0.5557  0.5186 -0.6407
  2634G12c C00448771   5.301   5.828   0.823 -0.3522 -0.6675 -0.6336
  2634G12c C00348772   5.185   5.785   0.757  0.9416  0.1014  2.0442
  2634G12c C00248773   5.202   5.739   0.630  0.6693  2.4854  0.6375
  2634G12c C00148774   5.116   5.693   0.521 -0.3561  1.6186  0.8397
  2634G12c C00M48775   4.996   5.781   0.469 -0.0615 -0.7205 -0.8392
  2634G12c C00L48776   4.927   5.853   0.571  0.1155  0.6056  0.4697
  2634G12c C00R48777   4.813   5.941   0.554 -2.7849  2.5197 -0.3649
  2634G12c C00Q48778   4.775   6.018   0.439 -0.6568  1.0634  0.3626
  2634G12c C00V48779   4.676   6.125   0.479 -0.3739  0.2872  2.0456
  2634G12c C00U48780   4.628   6.157   0.609 -0.0676 -0.1832  0.0231
  2634G12c C00T48781   4.692   6.088   0.715  0.6679  1.2419  1.0496
  2634G12c C01648782   4.694   6.113   0.852 -1.3735 -0.7704  0.1523
  2634G12c C01548783   4.613   6.219   0.880  1.1916  0.4608  1.1315
  2634G12c C01048784   4.527   6.278   0.780  0.4711 -1.4206 -1.5640
  2634G12c C01148785   4.425   6.367   0.838  0.2610  1.8003  0.1127
  2634G12c H00548786   4.348   6.409   0.775  1.4415  3.6260 -0.1252
  2634G12c C01248787   4.412   6.379   0.983 -0.7051 -2.0953 -1.4038
  2634G12c C01748788   4.287   6.418   1.040 -0.3994 -1.4394 -0.8824
  2634G12c O00248789   4.271   6.539   1.089 -1.0236  0.3495 -1.3394
  2634G12c H00448790   4.358   6.563   1.061  0.2064 -2.5633 -0.2189
  2634G12c C01848791   4.192   6.329   1.061  0.5619  1.8726 -0.5154
  2634G12c O00148792   4.179   6.209   0.992 -0.1881  1.5230 -0.9763
  2634G12c H00348793   4.230   6.146   1.040 -1.7776  2.2445  1.7871
  2634G12c C01948794   4.066   6.353   1.136  1.1314 -0.4393 -0.5406
  2634G12c H00248795   4.036   6.455   1.163  1.1564  0.0304 -2.1954
  2634G12c H00148796   4.004   6.294   1.068  5.5731  0.4931 -5.7792
  2634G12c O00048797   4.095   6.294   1.258  1.1239 -1.2728  0.4414
  2634G12c C01A48798   4.008   6.200   1.321 -0.8071 -0.7331  0.1559
  2634G12c C02K48799   4.031   6.204   1.458 -1.8514  0.4444 -0.5218
  2634G12c O00G48800   4.137   6.286   1.488  0.7724 -0.0381 -0.4581
  2634G12c C02M48801   4.190   6.231   1.610 -1.3386 -0.6379 -0.9403
  2634G12c H01G48802   4.144   6.276   1.697 -1.3609  1.1836 -1.8549
  2634G12c H01F48803   4.299   6.239   1.601 -0.5340 -2.0933  5.1660
  2634G12c H01E48804   4.185   6.122   1.618 -1.1961 -0.3525  3.9649
  2634G12c C02J48805   3.962   6.110   1.532  1.4059 -0.3797  0.8416
  2634G12c H01H48806   3.956   6.143   1.635  2.9723  1.3813  0.4069
  2634G12c C02I48807   3.886   6.018   1.486  1.1423  2.2005 -0.8978
  2634G12c C02N48808   3.798   5.938   1.568  1.1678  0.6218  0.3970
  2634G12c H01M48809   3.718   5.977   1.628 -0.1811  0.5277 -1.3103
  2634G12c C02O48810   3.790   5.799   1.560  0.0076 -0.6161 -0.4683
  2634G12c H01L48811   3.845   5.757   1.477 -2.5634 -2.0290 -1.5065
  2634G12c C02P48812   3.703   5.682   1.642 -0.7875 -0.3263  0.7502
  2634G12c H01K48813   3.610   5.720   1.686 -5.9813 -2.4712 -7.2154
  2634G12c H01J48814   3.665   5.584   1.611  4.1880 -2.3662  0.6115
  2634G12c O00H48815   3.795   5.632   1.758  0.0082  0.3886 -0.7222
  2634G12c H01I48816   3.884   5.662   1.744  0.3955  1.1542  2.7888
  2634G12c C02H48817   3.878   6.010   1.342  2.1464 -0.0802 -1.4890
  2634G12c H01C48818   3.832   5.929   1.288  4.6385 -2.9549  0.5035
  2634G12c C02L48819   3.944   6.100   1.260  0.5214 -0.1197 -0.5282
  2634G12c H01D48820   3.973   6.104   1.156  2.2259  1.7740  0.0012
  2634G12c C01348821   4.518   6.350   1.060  1.7221  1.4237 -1.1647
  2634G12c H00048822   4.530   6.385   1.161 -2.2388 -1.9337  0.5749
  2634G12c C01448823   4.622   6.276   1.007 -0.1600  0.2943  1.3166
  2634G12c C00F48824   4.738   6.262   1.097 -0.2935 -0.1794  0.2543
  2634G12c C00H48825   4.790   6.066   0.957 -0.0773  0.1326  0.6088
  2634G12c C00I48826   4.866   5.975   0.906  1.4989 -1.1221  0.2068
  2634G12c C00J48827   4.855   5.925   0.779 -0.2036  2.2982  1.2101
  2634G12c C00Z48828   4.552   6.260   0.646 -0.7868 -1.3132 -1.2354
  2634G12c C00Y48829   4.514   6.355   0.544  1.5617 -0.9884 -0.9167
  2634G12c H00648830   4.435   6.419   0.579 -0.8833 -5.3216  1.9526
  2634G12c C00X48831   4.547   6.331   0.404 -0.3710 -2.8998  0.4657
  2634G12c O00348832   4.532   6.404   0.292 -0.7084 -0.3973  0.7396
  2634G12c C01B48833   4.651   6.496   0.278  2.2423 -0.3373  1.2388
  2634G12c H00948834   4.647   6.564   0.363 -1.7511  5.5258 -3.2328
  2634G12c H00848835   4.618   6.544   0.186 -1.5358  2.4425  3.8971
  2634G12c H00748836   4.755   6.483   0.308  1.7678 -8.0516  0.5819
  2634G12c C00W48837   4.627   6.215   0.374 -0.0172 -0.1866 -0.6961
  2634G12c O00448838   4.674   6.186   0.240 -0.6885 -0.8451  0.1931
  2634G12c C01C48839   4.757   6.093   0.200 -0.4348 -1.6208  1.1080
  2634G12c H00A48840   4.773   6.049   0.102  3.1100  4.8679 -1.5013
  2634G12c C00P48841   4.843   6.028   0.305 -1.2785 -0.5276  0.5130
  2634G12c C00O48842   4.961   5.959   0.277  0.2255  0.2480  1.1048
  2634G12c C01D48843   5.035   5.997   0.175 -1.5165  0.0158  1.6135
  2634G12c H00S48844   5.014   6.090   0.123 -1.2386 -0.2037  1.1066
  2634G12c C01E48845   5.173   5.964   0.151  0.7494 -0.1711  0.4676
  2634G12c O00848846   5.239   6.072   0.084  1.1917 -0.6409 -1.5618
  2634G12c C01V48847   5.202   6.104  -0.048  0.6076  0.6683 -0.9949
  2634G12c C01Z48848   5.282   6.242  -0.094  0.2298  0.7395  0.2219
  2634G12c H00R48849   5.206   6.309  -0.135  0.9011 -1.9506 -5.9294
  2634G12c H00Q48850   5.321   6.306  -0.015  1.2252 -0.6403  0.8619
  2634G12c O00948851   5.401   6.190  -0.153  0.5213  0.0155  0.4421
  2634G12c H00P48852   5.386   6.187  -0.246  3.5215  3.5973 -0.2710
  2634G12c C01W48853   5.105   6.034  -0.112 -0.7566  1.0779 -0.3962
  2634G12c H00O48854   5.104   5.928  -0.088  2.4746  0.3343 -3.1746
  2634G12c C01X48855   5.055   6.083  -0.251 -0.5614  0.0892  1.0943
  2634G12c H00N48856   5.095   6.181  -0.275  3.7109 -1.3087  2.1448
  2634G12c H00M48857   5.055   6.022  -0.342 -3.0743  2.7630 -0.8059
  2634G12c C01Y48858   4.908   6.128  -0.240 -0.7339  0.4364 -0.4049
  2634G12c C02D48859   4.808   6.043  -0.174  0.2036  2.2456  0.6990
  2634G12c H01948860   4.866   5.952  -0.171 -2.4837  0.4488  0.7367
  2634G12c C02C48861   4.680   6.098  -0.154 -0.0254 -0.0847 -0.1940
  2634G12c H01A48862   4.593   6.046  -0.114 -0.5853 -0.9856 -2.5043
  2634G12c C02B48863   4.664   6.229  -0.145  1.0570 -0.9280  0.2479
  2634G12c O00E48864   4.552   6.289  -0.088  0.7271  1.3944  1.4511
  2634G12c H01B48865   4.563   6.382  -0.079 -1.8090  2.8354 -6.5106
  2634G12c C02F48866   4.752   6.323  -0.208  0.1506  0.3030 -0.5739
  2634G12c O00F48867   4.708   6.463  -0.169 -0.2982  0.2273  0.9463
  2634G12c C02G48868   4.788   6.568  -0.267  1.1678 -1.7639  0.1634
  2634G12c H01748869   4.775   6.671  -0.300  3.0035 -0.7821  2.3811
  2634G12c H01648870   4.824   6.524  -0.360  1.3194  4.8727 -3.1671
  2634G12c H01548871   4.889   6.576  -0.228  1.9577 -3.2085 -1.5304
  2634G12c C02E48872   4.872   6.269  -0.245  1.1215  0.3730  0.7416
  2634G12c H01848873   4.916   6.342  -0.312  0.2837  1.8054  1.7193
  2634G12c C01F48874   5.241   5.879   0.231  0.2307 -0.8691 -1.4682
  2634G12c C01G48875   5.373   5.867   0.233  2.0336  2.0435 -1.7713
  2634G12c H00L48876   5.445   5.919   0.172  4.1182 -1.7831 -2.7019
  2634G12c C01H48877   5.413   5.803   0.362  0.5068  1.1836 -0.0070
  2634G12c H00B48878   5.515   5.800   0.396  0.5245 -1.4914 -0.1847
  2634G12c C01I48879   5.336   5.714   0.430  1.4516  2.1188 -0.2857
  2634G12c C01U48880   5.153   5.803   0.308  0.1735 -1.5427  1.7548
  2634G12c C00S48881   4.765   5.969   0.685 -0.8572  0.9155 -0.5127
  2634G12c C00K48882   4.951   5.843   0.709  1.0678  0.9690  0.6803
  2634G12c C00N48883   5.034   5.865   0.350  0.5282  0.0389  0.2500
  2634G12c C00048884   5.202   5.696   0.390  0.0354  2.6740  0.9931
  2634G12c C01J48885   5.347   5.700   0.578 -1.0186  0.1160  0.0400
  2634G12c C01K48886   5.460   5.731   0.656 -0.7998  1.7366  0.6461
  2634G12c C01P48887   5.605   5.690   0.634  1.7866 -1.6846 -1.2425
  2634G12c C01Q48888   5.634   5.601   0.535  0.8547  0.9597 -0.8259
  2634G12c H00G48889   5.583   5.506   0.546 -0.1124  0.8545 -5.2219
  2634G12c C01R48890   5.738   5.622   0.473 -1.0248 -0.1273  0.8483
  2634G12c H00F48891   5.796   5.710   0.496 -0.0906 -0.3391 -0.6613
  2634G12c C01S48892   5.815   5.541   0.379  0.9530 -0.0044 -0.4747
  2634G12c H00E48893   5.867   5.618   0.321  5.0635 -2.2769  0.0043
  2634G12c H00D48894   5.882   5.497   0.454  4.3146 -3.8183 -5.3549
  2634G12c O00548895   5.746   5.443   0.299  1.1956 -0.4085 -1.1312
  2634G12c H00C48896   5.665   5.465   0.341  4.4094  0.4172  5.3252
  2634G12c C01O48897   5.697   5.735   0.708 -0.5243 -0.8999 -1.8040
  2634G12c H00H48898   5.804   5.728   0.715 -0.2689  4.3732  2.5358
  2634G12c C01N48899   5.660   5.841   0.807 -1.1340  0.0865 -0.2977
  2634G12c O00648900   5.772   5.879   0.874 -0.2767  1.3898  2.1339
  2634G12c C01T48901   5.782   5.874   1.018  0.2249 -0.0921  2.4489
  2634G12c H00K48902   5.729   5.785   1.053 -1.8810  0.5291  0.9225
  2634G12c H00J48903   5.716   5.945   1.069 -4.5148 -1.3296 -1.5381
  2634G12c H00I48904   5.884   5.876   1.055  1.7827  1.5552 -1.6008
  2634G12c C01M48905   5.529   5.872   0.844  1.0383 -0.8726  0.2487
  2634G12c C02048906   5.063   5.812   0.807 -0.2752 -1.3533 -1.2410
  2634G12c C02148907   5.054   5.824   0.955  1.3432  1.1583 -0.9035
  2634G12c C01L48908   5.425   5.824   0.762  0.1575 -0.4527 -2.4013
  2634G12c O00748909   5.505   5.948   0.949 -0.2965  0.3919 -1.1532
  2634G12c C02248910   5.163   5.856   1.025  0.0284 -0.3892 -0.1945
  2634G12c C02348911   4.962   5.929   1.003 -1.3622 -0.1747  0.0488
  2634G12c C00G48912   4.815   6.145   1.080  1.4607  0.5231  0.1057
  2634G12c C00E48913   4.771   6.345   1.201 -0.4019  0.2471  0.9312
  2634G12c O00A48914   4.716   6.469   1.209 -0.1897 -0.8978  1.6741
  2634G12c C02448915   4.738   6.578   1.119 -1.1636  0.9828 -1.5275
  2634G12c H00V48916   4.788   6.644   1.190  0.9373 -7.4111  5.7222
  2634G12c H00U48917   4.775   6.505   1.046  1.5746  1.5258 -0.7620
  2634G12c H00T48918   4.666   6.651   1.083  1.7883  4.2942 -1.0399
  2644G12c C00D48919   9.281   8.806   4.143  0.9688  0.7492  0.0728
  2644G12c O00B48920   9.391   8.736   4.165 -1.7233 -0.6573  0.9937
  2644G12c C02548921   9.375   8.592   4.164 -0.5687 -0.6427 -0.5329
  2644G12c C02648922   9.446   8.524   4.046  0.1769 -0.3570 -0.3931
  2644G12c H00Y48923   9.376   8.456   3.997 -5.8478  1.9879  4.3191
  2644G12c H00X48924   9.532   8.468   4.082 -2.9602 -3.2256  2.9985
  2644G12c O00C48925   9.477   8.608   3.947 -1.3279 -0.4184 -1.6584
  2644G12c H00W48926   9.473   8.694   3.984 -1.5506 -0.9367 -0.4563
  2644G12c C02748927   9.304   8.524   4.269  0.1702 -1.4256 -0.0956
  2644G12c O00D48928   9.278   8.599   4.382 -1.0194 -0.6980  0.5670
  2644G12c H00Z48929   9.341   8.668   4.376  0.2620 -2.0159 -2.5032
  2644G12c C02848930   9.309   8.387   4.285  0.9255  3.3344 -1.3991
  2644G12c C02948931   9.234   8.305   4.194 -1.6532  0.2296  0.8697
  2644G12c H01048932   9.153   8.320   4.123 -0.1888 -4.0670 -1.9143
  2644G12c C02T48933   9.260   8.152   4.203  0.2379 -0.7602 -0.2979
  2644G12c H01O48934   9.191   8.075   4.173 -1.4157  1.0181 -1.1097
  2644G12c C02S48935   9.365   8.112   4.271 -0.7413 -0.0133 -0.2868
  2644G12c O00J48936   9.404   7.984   4.268 -0.5491 -0.0530 -2.0028
  2644G12c H01P48937   9.375   7.952   4.353  2.8227  1.8449 -0.0399
  2644G12c C02R48938   9.431   8.199   4.349  0.2087  0.2607 -0.7924
  2644G12c O00I48939   9.512   8.145   4.429  1.1077 -1.0643  0.8971
  2644G12c C02Q48940   9.638   8.176   4.429  0.2257  1.0721  0.8683
  2644G12c H01N48941   9.711   8.148   4.354 -7.9486  1.0359 -8.0556
  2644G12c H01R48942   9.659   8.283   4.426  2.2681  0.6830 -3.4958
  2644G12c H01Q48943   9.700   8.132   4.507  1.7043 -4.6879 -3.2019
  2644G12c C02A48944   9.408   8.336   4.361 -0.5877 -0.7008 -0.9428
  2644G12c H01148945   9.446   8.403   4.437-10.7208  0.2186  4.1596
  2644G12c C00C48946   9.160   8.751   4.094 -0.9908  0.5829  1.6337
  2644G12c H01248947   9.165   8.664   4.030  2.6452  1.5776  0.4440
  2644G12c C00B48948   9.035   8.799   4.118  1.5562 -0.2200  0.0108
  2644G12c C00A48949   8.916   8.716   4.089 -0.6704  0.7972 -0.5242
  2644G12c C00948950   8.879   8.622   3.982 -0.6674  0.1121 -0.3085
  2644G12c C00848951   8.962   8.506   3.929 -0.8720  0.4836 -0.0583
  2644G12c H01348952   9.043   8.469   3.989  0.1841 -1.2375 -2.4230
  2644G12c C00748953   8.906   8.464   3.795  1.1487 -1.5581 -0.1689
  2644G12c H01448954   8.963   8.384   3.751  4.3814 -0.3869  1.6895
  2644G12c C00648955   8.777   8.531   3.731  0.6017 -1.2684 -0.4398
  2644G12c C00548956   8.719   8.637   3.797 -0.6665 -1.6128  1.1079
  2644G12c C00448957   8.597   8.692   3.758 -1.6844 -0.7717 -1.0375
  2644G12c C00348958   8.542   8.787   3.854 -1.3181 -0.0679  1.5831
  2644G12c C00248959   8.419   8.835   3.804  0.0872  0.4863  0.9128
  2644G12c C00148960   8.369   8.963   3.847 -0.2515 -0.8409 -0.0019
  2644G12c C00M48961   8.417   9.077   3.911  0.5625  1.6739  0.8106
  2644G12c C00L48962   8.481   9.067   4.028 -0.2273  0.8310 -0.8290
  2644G12c C00R48963   8.546   9.184   4.087 -0.8114  0.1964  0.8070
  2644G12c C00Q48964   8.546   9.313   4.059 -0.4224 -1.3063  1.8653
  2644G12c C00V48965   8.642   9.386   4.135 -0.5838 -1.3439 -0.0406
  2644G12c C00U48966   8.761   9.333   4.189  0.7471  0.1339  0.0390
  2644G12c C00T48967   8.777   9.193   4.199  0.7347  1.4193 -0.3677
  2644G12c C01648968   8.898   9.132   4.188  0.4182 -2.1133 -1.4098
  2644G12c C01548969   9.012   9.210   4.201  0.9230  0.4471  0.3895
  2644G12c C01048970   8.992   9.348   4.224  0.4496 -0.9693  0.2431
  2644G12c C01148971   9.099   9.423   4.277  0.7579 -0.7978 -0.2439
  2644G12c H00548972   9.089   9.529   4.287  0.4651 -0.4424 -3.5074
  2644G12c C01248973   9.225   9.363   4.273  0.2210 -1.5708 -0.4223
  2644G12c C01748974   9.339   9.448   4.319  1.6240  0.7601  0.5118
  2644G12c O00248975   9.394   9.429   4.441  0.3872 -1.3189  0.9692
  2644G12c H00448976   9.347   9.443   4.522 -0.6082 10.7824 -0.7600
  2644G12c C01848977   9.407   9.519   4.217  0.2440 -1.1431 -1.4092
  2644G12c O00148978   9.355   9.536   4.089 -0.1527 -1.1137 -0.4142
  2644G12c H00348979   9.421   9.555   4.024 -0.1685 -8.9227 -3.2527
  2644G12c C01948980   9.550   9.586   4.233  1.3753  0.5876 -1.0697
  2644G12c H00248981   9.560   9.694   4.223  0.3455  0.9508  1.6435
  2644G12c H00148982   9.562   9.556   4.336 -2.6367  0.0566 -0.6796
  2644G12c O00048983   9.651   9.500   4.154 -0.1014 -1.7169  0.2519
  2644G12c C01A48984   9.733   9.426   4.226 -0.0289 -0.6112 -0.4088
  2644G12c C02K48985   9.866   9.460   4.235  0.3443 -1.3092 -0.1280
  2644G12c O00G48986   9.931   9.539   4.147 -0.0746  0.3761 -0.2046
  2644G12c C02M48987   9.953   9.453   4.016  1.9300 -1.9987  0.1596
  2644G12c H01G48988   9.998   9.358   4.046  0.5442 -2.8769 -0.4902
  2644G12c H01F48989  10.030   9.511   3.966 -2.8505  2.3252 -2.6234
  2644G12c H01E48990   9.887   9.474   3.933 -0.8139  4.5355  3.6337
  2644G12c C02J48991   9.920   9.415   4.365  0.3945 -1.1736  1.2077
  2644G12c H01H48992   9.987   9.493   4.401 -3.6544  2.0923  2.0734
  2644G12c C02I48993   9.889   9.286   4.427  2.2519  0.8947 -0.8437
  2644G12c C02N48994   9.985   9.250   4.528 -0.6186  0.7234  1.6349
  2644G12c H01M48995  10.081   9.205   4.508 -2.0840 -1.0134 -1.9920
  2644G12c C02O48996   9.960   9.277   4.667  0.7551  0.4392  1.3945
  2644G12c H01L48997   9.876   9.345   4.676 -0.0095  0.5257 -4.3169
  2644G12c C02P48998  10.070   9.256   4.759 -1.8654 -0.9285  0.8810
  2644G12c H01K48999  10.058   9.306   4.856 -7.1781 -3.4702  1.6573
  2644G12c H01J49000  10.069   9.150   4.784 -2.1883 -0.7775  1.5200
  2644G12c O00H49001  10.197   9.301   4.715 -0.3588  0.4685  0.4602
  2644G12c H01I49002  10.267   9.238   4.720 -2.4269 -2.3857 -3.2924
  2644G12c C02H49003   9.745   9.244   4.403  0.6810  0.9162  0.8914
  2644G12c H01C49004   9.677   9.180   4.457 -3.5282  5.2614  1.0373
  2644G12c C02L49005   9.675   9.315   4.298 -1.4400  0.2447 -3.5955
  2644G12c H01D49006   9.585   9.262   4.271 -2.7432  2.1170 -2.9417
  2644G12c C01349007   9.224   9.230   4.255  0.0021 -0.7736  0.1002
  2644G12c H00049008   9.332   9.233   4.254 -0.0194  0.7529 -3.7578
  2644G12c C01449009   9.126   9.138   4.210  0.4305  0.7508 -0.0628
  2644G12c C00F49010   9.150   9.012   4.171 -0.3273  0.9827  1.0418
  2644G12c C00H49011   8.906   9.002   4.144 -1.1757  0.1003  0.1241
  2644G12c C00I49012   8.780   8.917   4.153 -0.6041 -0.5428 -0.3219
  2644G12c C00J49013   8.659   8.989   4.146  1.0808  0.9805  0.9472
  2644G12c C00Z49014   8.869   9.406   4.195  1.2394 -0.3675  0.4678
  2644G12c C00Y49015   8.863   9.545   4.144 -0.4020 -0.8703  2.1743
  2644G12c H00649016   8.958   9.570   4.100 -1.5739 -4.2513 -2.6537
  2644G12c C00X49017   8.742   9.600   4.134 -0.0585  0.4316  0.2869
  2644G12c O00349018   8.711   9.731   4.104  0.1066  0.9648 -0.5246
  2644G12c C01B49019   8.772   9.810   4.211 -0.3599  1.2290  0.0067
  2644G12c H00949020   8.863   9.869   4.197 -0.3121  2.2919  3.9895
  2644G12c H00849021   8.785   9.767   4.311  0.2168 -0.1116 -0.6360
  2644G12c H00749022   8.732   9.911   4.224 -1.2403  0.5791  2.6946
  2644G12c C00W49023   8.621   9.525   4.154 -1.2814  1.8096 -0.0923
  2644G12c O00449024   8.504   9.595   4.110 -1.2226  2.0668  0.3872
  2644G12c C01C49025   8.457   9.537   3.987  0.8262  0.4636  0.1129
  2644G12c H00A49026   8.450   9.591   3.894 -3.0218 -1.2091 -0.6487
  2644G12c C00P49027   8.449   9.397   3.979 -0.1877  0.5704  0.1787
  2644G12c C00O49028   8.373   9.334   3.865 -0.9169  1.1911  1.3435
  2644G12c C01D49029   8.303   9.405   3.768  1.2376  0.6005 -0.0075
  2644G12c H00S49030   8.275   9.509   3.770 -2.1945 -0.1493  6.2970
  2644G12c C01E49031   8.283   9.360   3.634 -1.4093  0.2192 -0.2954
  2644G12c O00849032   8.243   9.441   3.531 -0.6436  1.0184  0.0746
  2644G12c C01V49033   8.110   9.453   3.496 -0.7570 -0.0229  0.2845
  2644G12c C01Z49034   8.116   9.566   3.397  0.4452  1.4496 -0.0898
  2644G12c H00R49035   8.016   9.552   3.357  1.2070 -5.2495 -0.1813
  2644G12c H00Q49036   8.166   9.662   3.409 -1.8026  2.0975  6.0462
  2644G12c O00949037   8.151   9.534   3.272  0.3623 -0.1312 -0.0219
  2644G12c H00P49038   8.183   9.445   3.273 -0.1708 -0.3260  0.4661
  2644G12c C01W49039   8.005   9.399   3.558 -0.9993  0.2173 -1.9160
  2644G12c H00O49040   8.036   9.330   3.635 -2.6884  1.1311 -0.3940
  2644G12c C01X49041   7.852   9.398   3.536  1.8885  0.6402  1.4109
  2644G12c H00N49042   7.806   9.375   3.632 -0.2972  2.3210  0.8191
  2644G12c H00M49043   7.830   9.503   3.513 -0.1399 -0.1064 -0.2955
  2644G12c C01Y49044   7.814   9.285   3.439  0.2049  0.6949 -0.2443
  2644G12c C02D49045   7.870   9.307   3.314  1.9515 -0.6564 -0.4670
  2644G12c H01949046   7.958   9.369   3.302 -0.3467  2.8255  0.0307
  2644G12c C02C49047   7.836   9.222   3.210 -0.9850 -0.3654  0.6741
  2644G12c H01A49048   7.877   9.227   3.110  0.8653  2.3271  1.5132
  2644G12c C02B49049   7.746   9.112   3.236  1.9742 -1.1221 -0.0736
  2644G12c O00E49050   7.706   9.033   3.121  0.2819  0.4140 -0.2959
  2644G12c H01B49051   7.696   8.942   3.146 -2.5744  2.0337  5.2888
  2644G12c C02F49052   7.686   9.084   3.361  0.8222  0.8285 -1.2477
  2644G12c O00F49053   7.594   8.986   3.358  0.3121  0.7432 -0.8642
  2644G12c C02G49054   7.609   8.854   3.407  0.8950  0.1302  1.7988
  2644G12c H01749055   7.635   8.845   3.512 -1.3600 -6.6840  2.0255
  2644G12c H01649056   7.647   8.767   3.354 -0.6751  1.3616 -1.5132
  2644G12c H01549057   7.506   8.826   3.384  3.1924 -1.5725 -9.0775
  2644G12c C02E49058   7.730   9.163   3.475 -0.4254 -0.7040 -0.6454
  2644G12c H01849059   7.668   9.167   3.563 -2.6411 -1.2718 -2.1326
  2644G12c C01F49060   8.272   9.222   3.610  0.1043 -0.8149 -0.1437
  2644G12c C01G49061   8.259   9.147   3.488 -1.2852  2.1761 -1.2008
  2644G12c H00L49062   8.251   9.185   3.387 -1.3901 -0.6362 -2.2942
  2644G12c C01H49063   8.296   8.998   3.487 -0.6600  0.4239  0.5582
  2644G12c H00B49064   8.277   8.945   3.395 -4.4710 -4.7529  4.0459
  2644G12c C01I49065   8.330   8.937   3.612  0.3101 -0.4649 -0.4165
  2644G12c C01U49066   8.294   9.148   3.733  1.4030 -1.2958  1.6046
  2644G12c C00S49067   8.668   9.127   4.150  0.0116  0.5344 -0.4465
  2644G12c C00K49068   8.555   8.956   4.052  1.0376  0.1100  1.2574
  2644G12c C00N49069   8.371   9.193   3.835 -1.2394 -1.4909 -1.3756
  2644G12c C00049070   8.292   9.011   3.729 -0.1408 -0.2482  0.4175
  2644G12c C01J49071   8.380   8.816   3.669 -0.1559 -0.4030 -0.0630
  2644G12c C01K49072   8.422   8.719   3.588  0.3545 -1.0026  1.0199
  2644G12c C01P49073   8.348   8.660   3.488 -2.1375 -0.2542  1.6261
  2644G12c C01Q49074   8.217   8.697   3.460  0.5410 -0.1928 -0.5243
  2644G12c H00G49075   8.147   8.743   3.528 -0.8645 -2.3731 -0.4449
  2644G12c C01R49076   8.145   8.633   3.360 -1.4346  1.8293  0.3457
  2644G12c H00F49077   8.210   8.575   3.296 -4.1678 -0.0862 -0.7965
  2644G12c C01S49078   8.006   8.648   3.311  0.1754 -0.2254  1.3316
  2644G12c H00E49079   7.997   8.725   3.235 -3.9807  0.8388  2.7562
  2644G12c H00D49080   7.973   8.555   3.263  5.9727 -0.2470 -3.2028
  2644G12c O00549081   7.903   8.637   3.397 -1.5508 -1.5219 -0.8012
  2644G12c H00C49082   7.891   8.557   3.446 -1.3021  2.8043  6.9909
  2644G12c C01O49083   8.418   8.564   3.400  0.7509  0.6420 -0.4241
  2644G12c H00H49084   8.383   8.483   3.338  0.1050  0.3552  0.3116
  2644G12c C01N49085   8.555   8.542   3.424 -0.1477 -0.0571 -0.7929
  2644G12c O00649086   8.625   8.458   3.335 -1.2828 -0.2078 -0.3544
  2644G12c C01T49087   8.770   8.459   3.342 -0.1933  0.5242  0.3302
  2644G12c H00K49088   8.820   8.500   3.430 -6.6593 -1.9109  5.4689
  2644G12c H00J49089   8.779   8.353   3.317 -4.0718 -2.8914 10.8505
  2644G12c H00I49090   8.803   8.501   3.247 -0.1939  5.3250  2.3018
  2644G12c C01M49091   8.599   8.560   3.556  0.1216  0.0496  0.7350
  2644G12c C02049092   8.587   8.826   3.984 -1.3546 -0.7736 -1.1222
  2644G12c C02149093   8.708   8.771   4.013 -0.1097  1.8945  0.6384
  2644G12c C01L49094   8.524   8.645   3.647 -1.2230 -0.0030  0.2761
  2644G12c O00749095   8.711   8.486   3.609 -0.3813  0.3418 -1.1319
  2644G12c C02249096   8.766   8.676   3.926  0.7552 -0.1107 -2.0642
  2644G12c C02349097   8.788   8.783   4.119  0.0825 -0.6067  1.5915
  2644G12c C00G49098   9.032   8.935   4.156 -0.8889  0.8259 -1.5332
  2644G12c C00E49099   9.287   8.942   4.146  0.2781 -0.0263 -0.3932
  2644G12c O00A49100   9.394   9.018   4.152 -0.1299  1.0598 -0.4343
  2644G12c C02449101   9.456   9.016   4.023  0.6606  0.4826 -0.5670
  2644G12c H00V49102   9.502   9.114   4.012 -2.9293  2.9326  4.0660
  2644G12c H00U49103   9.413   8.967   3.935  8.8850 -4.5386 -2.3335
  2644G12c H00T49104   9.535   8.941   4.029 -0.8207 -0.9513  2.7101
  2654G12c C00D49105   5.780   1.625   5.370 -1.0304  0.4147 -0.4975
  2654G12c O00B49106   5.804   1.633   5.243 -0.4106 -0.3096 -0.5943
  2654G12c C02549107   5.736   1.592   5.130  0.9441 -1.2934  0.5336
  2654G12c C02649108   5.627   1.703   5.109  0.4213 -0.1167  0.6968
  2654G12c H00Y49109   5.656   1.807   5.098 -1.0351  0.5568  2.9423
  2654G12c H00X49110   5.548   1.659   5.171  0.4738  1.6666  2.0614
  2654G12c O00C49111   5.565   1.698   4.989 -0.3559 -2.4340 -0.0763
  2654G12c H00W49112   5.495   1.636   5.002 -3.9638  1.8305  2.5573
  2654G12c C02749113   5.749   1.482   5.053  0.1043 -1.0347 -0.8400
  2654G12c O00D49114   5.859   1.400   5.077  0.4932  0.6927  1.5217
  2654G12c H00Z49115   5.822   1.320   5.041  0.4161  3.8210 -6.4581
  2654G12c C02849116   5.651   1.445   4.943 -1.2282 -1.4864  1.3708
  2654G12c C02949117   5.542   1.362   4.959  0.4208 -0.0926  1.4016
  2654G12c H01049118   5.526   1.320   5.058  2.8597  0.0798  1.9089
  2654G12c C02T49119   5.469   1.334   4.846 -2.1099  1.4766 -0.9104
  2654G12c H01O49120   5.375   1.281   4.848 -3.1227  3.2567 -0.2943
  2654G12c C02S49121   5.518   1.367   4.713  0.1628  1.2987 -1.7684
  2654G12c O00J49122   5.443   1.327   4.610 -0.3318  0.8322 -1.1789
  2654G12c H01P49123   5.461   1.376   4.531 -4.2777  4.3862 -0.0677
  2654G12c C02R49124   5.610   1.465   4.692  2.4270 -0.0809 -0.9460
  2654G12c O00I49125   5.622   1.521   4.548  0.6210 -0.6721 -0.9100
  2654G12c C02Q49126   5.613   1.666   4.512  0.5871  1.1795  0.6281
  2654G12c H01N49127   5.676   1.689   4.427  0.0777  2.6298  0.6339
  2654G12c H01R49128   5.511   1.702   4.495  1.0917  2.0828 -0.4765
  2654G12c H01Q49129   5.663   1.699   4.603 -2.1111 -3.8627  4.2256
  2654G12c C02A49130   5.669   1.515   4.807  0.7068 -0.6762 -1.6538
  2654G12c H01149131   5.733   1.600   4.787 -1.5415 -0.0731 -6.9639
  2654G12c C00C49132   5.812   1.737   5.443  0.9951  0.0950  1.1914
  2654G12c H01249133   5.839   1.822   5.383  5.4957  1.8357  5.2877
  2654G12c C00B49134   5.799   1.733   5.584  0.8625 -0.0600 -0.2749
  2654G12c C00A49135   5.790   1.838   5.681  2.3366 -2.7936  1.5979
  2654G12c C00949136   5.839   1.975   5.673  0.9631  0.2625  0.0068
  2654G12c C00849137   5.927   2.049   5.593  0.3887  1.9027 -0.0931
  2654G12c H01349138   5.927   1.984   5.506 -7.5618  2.5973 -0.9589
  2654G12c C00749139   6.004   2.169   5.644 -0.8193  1.1817  0.6154
  2654G12c H01449140   6.054   2.229   5.569 -1.1923 -3.1669 -3.3696
  2654G12c C00649141   5.987   2.225   5.778 -0.0251 -0.4844 -0.1190
  2654G12c C00549142   5.911   2.145   5.851  0.1715 -0.0671 -1.1162
  2654G12c C00449143   5.928   2.156   5.997 -0.6233  1.2087 -0.0532
  2654G12c C00349144   5.907   2.039   6.071  1.1297 -0.5543 -1.8182
  2654G12c C00249145   5.943   2.047   6.208 -1.5654 -0.4882 -1.0992
  2654G12c C00149146   5.899   1.958   6.324 -1.9581  0.3478  0.7408
  2654G12c C00M49147   5.938   1.824   6.311 -0.4130  0.4805 -0.0547
  2654G12c C00L49148   5.889   1.743   6.199 -0.3765  0.5699 -0.2234
  2654G12c C00R49149   5.925   1.608   6.166  0.7080  0.4795  0.4721
  2654G12c C00Q49150   6.019   1.517   6.230  0.2791 -0.2563  0.1536
  2654G12c C00V49151   6.035   1.403   6.150 -0.4508  0.9972 -1.7746
  2654G12c C00U49152   5.955   1.366   6.041  0.4231 -0.6611  1.6037
  2654G12c C00T49153   5.857   1.446   5.982  0.4804  0.1871  0.6303
  2654G12c C01649154   5.826   1.451   5.844 -1.5337 -2.2942  0.1374
  2654G12c C01549155   5.869   1.352   5.768 -0.9202  0.1859  1.3764
  2654G12c C01049156   5.917   1.230   5.837  1.4064  1.8646  0.2415
  2654G12c C01149157   5.925   1.112   5.764 -0.1798  0.9646 -0.5001
  2654G12c H00549158   5.989   1.026   5.768 -3.8254 -2.1575 -5.1668
  2654G12c C01249159   5.868   1.097   5.639  0.8490 -0.4320  0.4694
  2654G12c C01749160   5.850   0.975   5.594 -0.0826  0.1720  0.5275
  2654G12c O00249161   5.949   0.928   5.528 -0.1646  0.0915  1.2338
  2654G12c H00449162   5.992   1.009   5.548  1.0455 -1.1328  3.8802
  2654G12c C01849163   5.757   0.892   5.641 -1.2133 -0.6794  0.1240
  2654G12c O00149164   5.667   0.962   5.705 -0.3052  0.8385  0.4093
  2654G12c H00349165   5.597   0.897   5.703  4.1733 -4.2987 -1.0083
  2654G12c C01949166   5.723   0.751   5.574 -1.0808 -0.6756 -0.5774
  2654G12c H00249167   5.763   0.752   5.473  0.4590 -1.5299  0.0017
  2654G12c H00149168   5.775   0.677   5.635 -0.5851 -1.3535 -1.8110
  2654G12c O00049169   5.573   0.750   5.556 -1.2636  0.3998 -0.7127
  2654G12c C01A49170   5.510   0.739   5.429  1.0953 -0.8238  0.7252
  2654G12c C02K49171   5.453   0.849   5.370 -3.3823 -0.0593  1.6453
  2654G12c O00G49172   5.433   0.965   5.445 -0.6013  0.6257 -0.8655
  2654G12c C02M49173   5.328   0.955   5.550 -1.5959  0.1187 -0.2500
  2654G12c H01G49174   5.246   0.910   5.494 -1.1304 -1.6691  0.4983
  2654G12c H01F49175   5.320   1.044   5.613  4.4502 -2.7003  5.0401
  2654G12c H01E49176   5.365   0.895   5.632 -1.4662  0.3967 -0.1026
  2654G12c C02J49177   5.422   0.859   5.231  1.2186 -0.2658 -0.2469
  2654G12c H01H49178   5.361   0.938   5.188 -5.9324 -4.6676  0.9825
  2654G12c C02I49179   5.458   0.741   5.154  0.9730 -0.3762 -0.1624
  2654G12c C02N49180   5.407   0.756   5.014  0.9109  0.4350 -0.7326
  2654G12c H01M49181   5.364   0.844   4.968 -6.7899 -2.3028  0.4394
  2654G12c C02O49182   5.395   0.645   4.938  0.4733 -3.0793 -0.3175
  2654G12c H01L49183   5.424   0.550   4.981  1.0814 -1.7735  2.2538
  2654G12c C02P49184   5.336   0.658   4.788  0.8841  1.5002  1.1441
  2654G12c H01K49185   5.318   0.744   4.723 -5.8394  3.1915  4.6522
  2654G12c H01J49186   5.362   0.565   4.739  2.2944  0.8313  3.0953
  2654G12c O00H49187   5.203   0.646   4.814 -0.4887  1.1004  0.9540
  2654G12c H01I49188   5.174   0.602   4.736 -1.1677  7.3964 -2.6806
  2654G12c C02H49189   5.508   0.623   5.221 -0.3348 -0.0288 -0.0419
  2654G12c H01C49190   5.522   0.518   5.198  5.7554  0.3718  0.9986
  2654G12c C02L49191   5.527   0.616   5.356  1.5476  0.4828  0.6378
  2654G12c H01D49192   5.563   0.537   5.420  0.8094  0.9783  1.6718
  2654G12c C01349193   5.845   1.228   5.569  1.1119 -0.3509 -0.1521
  2654G12c H00049194   5.834   1.227   5.461 -1.0714 -2.2770  0.0496
  2654G12c C01449195   5.842   1.361   5.629 -1.0308  0.1459  0.0262
  2654G12c C00F49196   5.794   1.480   5.574 -0.7579 -0.2520 -0.7129
  2654G12c C00H49197   5.787   1.586   5.789  0.3481 -1.0574 -1.8503
  2654G12c C00I49198   5.763   1.695   5.874  0.3405 -1.3495  0.5106
  2654G12c C00J49199   5.784   1.690   6.008  0.4304  1.0569  1.0837
  2654G12c C00Z49200   5.961   1.250   5.973 -1.0173 -1.1959  0.3122
  2654G12c C00Y49201   6.046   1.154   6.038  0.3080 -0.6867  0.6044
  2654G12c H00649202   6.062   1.050   6.014  1.2798 -1.0311  2.6627
  2654G12c C00X49203   6.136   1.195   6.147 -0.9742  0.2032 -1.7624
  2654G12c O00349204   6.217   1.099   6.186  0.7762  0.7919  0.6160
  2654G12c C01B49205   6.358   1.118   6.213 -0.2562 -0.3593 -0.7462
  2654G12c H00949206   6.393   1.184   6.292 -0.7566  0.6616 -1.3583
  2654G12c H00849207   6.402   1.025   6.247 -2.6805 -1.2696  0.0721
  2654G12c H00749208   6.407   1.181   6.139 -0.7205  0.2234 -0.5661
  2654G12c C00W49209   6.127   1.305   6.199  0.3880 -0.7581  0.9271
  2654G12c O00449210   6.244   1.356   6.260 -0.4471  0.2003  0.0647
  2654G12c C01C49211   6.211   1.451   6.351 -0.6496 -0.3214 -1.0419
  2654G12c H00A49212   6.269   1.453   6.443  0.7871  2.3667 -1.9602
  2654G12c C00P49213   6.122   1.552   6.331 -0.2159  0.2812  0.4012
  2654G12c C00O49214   6.143   1.671   6.388  2.6174 -0.0208  0.4994
  2654G12c C01D49215   6.256   1.699   6.470 -0.4773  0.0486 -0.3631
  2654G12c H00S49216   6.347   1.642   6.462  3.4547  5.3126  3.2848
  2654G12c C01E49217   6.280   1.816   6.538  0.0921 -1.9777  1.6750
  2654G12c O00849218   6.418   1.852   6.588 -1.1788  0.2248  0.2904
  2654G12c C01V49219   6.546   1.805   6.530 -0.2372 -0.4091 -0.4978
  2654G12c C01Z49220   6.543   1.811   6.379  1.5962  0.7495 -0.3140
  2654G12c H00R49221   6.622   1.744   6.344  3.4000  1.2302  2.6613
  2654G12c H00Q49222   6.452   1.773   6.333  2.0150  4.7564 -4.9194
  2654G12c O00949223   6.570   1.942   6.355 -1.1587  0.0499 -2.0299
  2654G12c H00P49224   6.644   1.911   6.304 -0.1836 -0.9409 -0.0851
  2654G12c C01W49225   6.651   1.755   6.591  0.0431 -1.9722 -0.0508
  2654G12c H00O49226   6.753   1.719   6.582 -0.5692 -4.3889  2.0507
  2654G12c C01X49227   6.660   1.727   6.739  0.2519 -0.0367 -0.0073
  2654G12c H00N49228   6.755   1.773   6.765 -0.4092  3.7819 -3.7956
  2654G12c H00M49229   6.563   1.770   6.765  1.4729  4.4387 -2.2370
  2654G12c C01Y49230   6.620   1.578   6.790  1.8075  1.7574 -0.4484
  2654G12c C02D49231   6.634   1.566   6.933 -1.4925  0.4606 -1.6636
  2654G12c H01949232   6.636   1.654   6.995 -1.5752 -2.8706  3.3056
  2654G12c C02C49233   6.661   1.439   6.980 -0.8071  0.4238 -0.0003
  2654G12c H01A49234   6.705   1.431   7.078  5.1320  4.6328 -2.0557
  2654G12c C02B49235   6.658   1.325   6.889  0.6130 -0.4641 -0.3028
  2654G12c O00E49236   6.703   1.192   6.918  0.3703  0.3721  0.4682
  2654G12c H01B49237   6.697   1.128   6.849  2.9962  1.4115 -0.7745
  2654G12c C02F49238   6.643   1.334   6.752 -0.3918 -0.1886  1.0853
  2654G12c O00F49239   6.645   1.229   6.670 -0.2808  1.0024 -0.1854
  2654G12c C02G49240   6.563   1.261   6.547  0.0835  2.5314 -0.8173
  2654G12c H01749241   6.550   1.167   6.495  2.3351  2.7342 -1.7971
  2654G12c H01649242   6.642   1.300   6.484  0.5884 -0.6099 -2.2018
  2654G12c H01549243   6.480   1.319   6.587 -5.3186 -5.3848  0.6366
  2654G12c C02E49244   6.629   1.466   6.707 -0.2582  0.5710 -0.9129
  2654G12c H01849245   6.612   1.508   6.609  1.4094  5.6697  0.8459
  2654G12c C01F49246   6.199   1.933   6.504  1.2396 -1.9381 -0.1596
  2654G12c C01G49247   6.260   2.061   6.507  0.3178 -0.1537  1.5596
  2654G12c H00L49248   6.361   2.097   6.522 -0.3827  1.0592  3.7556
  2654G12c C01H49249   6.169   2.160   6.452 -1.0062  0.3922 -0.8666
  2654G12c H00B49250   6.199   2.263   6.464 -1.8402  0.2978  2.6986
  2654G12c C01I49251   6.038   2.123   6.395  0.2876 -0.1007 -1.4189
  2654G12c C01U49252   6.076   1.905   6.447  0.8520  2.1860 -1.2512
  2654G12c C00S49253   5.822   1.560   6.073  0.5029 -0.8233  0.0449
  2654G12c C00K49254   5.845   1.787   6.076 -0.9515 -0.1183  1.3883
  2654G12c C00N49255   6.047   1.777   6.380 -0.5881 -0.4055  0.5081
  2654G12c C00049256   5.972   2.001   6.437 -0.2780 -1.8372 -0.9681
  2654G12c C01J49257   6.012   2.160   6.260 -1.3659  0.0533 -0.7538
  2654G12c C01K49258   6.035   2.285   6.181  0.2512  1.2848  1.1170
  2654G12c C01P49259   6.060   2.424   6.221  0.7707  0.0910  0.6758
  2654G12c C01Q49260   6.050   2.468   6.369 -1.4493 -1.3087 -0.6803
  2654G12c H00G49261   6.118   2.514   6.439 -1.4798 -3.1070  0.5553
  2654G12c C01R49262   5.947   2.431   6.452  0.0440 -0.0957 -2.1297
  2654G12c H00F49263   5.963   2.435   6.558  0.1973 -1.4415 -2.0959
  2654G12c C01S49264   5.817   2.354   6.386  0.5675 -0.3569  0.9234
  2654G12c H00E49265   5.781   2.356   6.283  4.1787  0.2510 -0.4075
  2654G12c H00D49266   5.828   2.258   6.438 -0.9549  0.0034  1.9400
  2654G12c O00549267   5.719   2.440   6.455 -0.3488  1.7396 -0.6746
  2654G12c H00C49268   5.630   2.434   6.426 -1.7053  4.2762  2.6667
  2654G12c C01O49269   6.097   2.528   6.131  0.3639  0.2848  0.2874
  2654G12c H00H49270   6.114   2.627   6.172 -0.8310  1.1112 -1.1505
  2654G12c C01N49271   6.102   2.495   5.986 -0.0097  0.2229 -0.9448
  2654G12c O00649272   6.133   2.584   5.901  0.3609 -0.0202  1.1620
  2654G12c C01T49273   6.161   2.726   5.934  0.3972 -0.7701  0.1977
  2654G12c H00K49274   6.261   2.754   5.967  2.0730 -1.1108 -4.1239
  2654G12c H00J49275   6.073   2.754   5.990 -3.8867 -4.4091 -4.1947
  2654G12c H00I49276   6.154   2.774   5.836 -2.7441 -2.7398 -0.5971
  2654G12c C01M49277   6.061   2.358   5.951 -0.8732  1.7995 -2.1006
  2654G12c C02049278   5.852   1.912   6.015 -0.5180  0.5782  1.4071
  2654G12c C02149279   5.778   1.939   5.890 -1.5357 -0.7878 -3.2855
  2654G12c C01L49280   5.999   2.273   6.046  1.0301  1.0747 -0.1096
  2654G12c O00749281   6.055   2.337   5.811 -0.4007  0.1520 -1.1470
  2654G12c C02249282   5.813   2.038   5.798 -1.4688  0.1464 -0.2094
  2654G12c C02349283   5.750   1.820   5.803 -0.6386  0.0902  0.9031
  2654G12c C00G49284   5.780   1.596   5.651  0.4075 -0.0516  1.5337
  2654G12c C00E49285   5.751   1.496   5.433 -1.1350  1.4938  1.3482
  2654G12c O00A49286   5.741   1.380   5.340  0.1473  1.5150  0.1618
  2654G12c C02449287   5.606   1.347   5.325 -0.4897  1.1693 -0.7054
  2654G12c H00V49288   5.595   1.281   5.240 -2.5689 -2.4748  2.2609
  2654G12c H00U49289   5.529   1.423   5.309 -5.5548 -2.6392  3.7328
  2654G12c H00T49290   5.564   1.269   5.389  2.5377 -2.0130 -2.4441
  2664G12c C00D49291  12.221   6.999  11.363  0.8393  2.0076 -1.6849
  2664G12c O00B49292  12.305   7.003  11.269  0.9793  0.5082  1.5770
  2664G12c C02549293  12.287   6.913  11.167  2.2222  0.0175  1.6176
  2664G12c C02649294  12.387   6.799  11.186  1.5502  0.1226  1.0253
  2664G12c H00Y49295  12.337   6.722  11.244 -1.6067  2.5258  1.6177
  2664G12c H00X49296  12.472   6.831  11.248  0.4709  0.5970  2.2793
  2664G12c O00C49297  12.423   6.777  11.067  0.1818 -0.5187 -0.4299
  2664G12c H00W49298  12.450   6.847  11.009  0.4820 -1.8629 -1.9308
  2664G12c C02749299  12.179   6.919  11.086 -0.4729  2.7612  0.5954
  2664G12c O00D49300  12.118   6.801  11.028  0.5653 -0.2712 -0.6288
  2664G12c H00Z49301  12.031   6.825  11.001  0.3707 -2.2089 -1.8427
  2664G12c C02849302  12.124   7.044  11.024  1.3693 -0.1295 -0.4298
  2664G12c C02949303  12.197   7.170  11.043  0.7475  0.2570  0.9510
  2664G12c H01049304  12.295   7.147  11.080  1.5851  0.0832 -1.2758
  2664G12c C02T49305  12.149   7.298  10.998  0.9457  0.4532  0.4131
  2664G12c H01O49306  12.214   7.384  11.008  4.5472 -2.3996  3.0319
  2664G12c C02S49307  12.068   7.276  10.879 -0.7147 -0.6995 -0.3811
  2664G12c O00J49308  12.066   7.383  10.785 -0.0550  0.2220 -0.7582
  2664G12c H01P49309  11.989   7.391  10.731 -0.4642 -3.1334 -0.7768
  2664G12c C02R49310  11.995   7.154  10.848  0.3979 -0.4636  0.1677
  2664G12c O00I49311  11.928   7.181  10.726  0.0150 -0.2473  0.0828
  2664G12c C02Q49312  11.861   7.070  10.674  0.4104 -1.2112  2.2103
  2664G12c H01N49313  11.822   7.125  10.589  0.1318  4.3095  5.6470
  2664G12c H01R49314  11.952   7.014  10.652  1.4280  2.3132 -3.6266
  2664G12c H01Q49315  11.787   7.001  10.714 -1.2694  1.3517  3.6108
  2664G12c C02A49316  12.021   7.042  10.924 -0.3443  0.5036 -0.1546
  2664G12c H01149317  11.964   6.952  10.907 -0.8630 -0.2246  4.7490
  2664G12c C00C49318  12.085   6.962  11.368 -1.0288  1.9596 -0.3800
  2664G12c H01249319  12.037   6.931  11.276 -0.7829 -2.5969  0.9257
  2664G12c C00B49320  12.016   6.952  11.490 -0.4408 -0.9364 -0.9195
  2664G12c C00A49321  11.876   6.922  11.494 -0.0137 -0.7988 -0.0499
  2664G12c C00949322  11.773   6.948  11.395 -0.7614  1.7360 -1.1879
  2664G12c C00849323  11.741   7.019  11.274 -0.8450  0.7472  0.2464
  2664G12c H01349324  11.822   7.044  11.207  1.8534  0.7228  3.3754
  2664G12c C00749325  11.605   7.051  11.245 -0.9759  0.8747 -1.2417
  2664G12c H01449326  11.594   7.089  11.145 -1.4095  3.9926 -0.0684
  2664G12c C00649327  11.510   7.052  11.341  1.3875 -1.0441  1.5353
  2664G12c C00549328  11.537   6.997  11.467 -0.9820  0.8419 -0.8755
  2664G12c C00449329  11.457   7.000  11.583  0.9756 -0.2292  0.0761
  2664G12c C00349330  11.496   6.944  11.710 -0.1514 -1.3726 -2.7474
  2664G12c C00249331  11.400   6.974  11.822  0.4528 -1.9671  1.3230
  2664G12c C00149332  11.391   6.976  11.968  1.0877 -1.6023 -1.5556
  2664G12c C00M49333  11.516   7.027  12.028  0.5630  0.4514 -0.3072
  2664G12c C00L49334  11.640   6.993  11.989  1.5269  0.3343 -1.7200
  2664G12c C00R49335  11.761   7.046  12.054 -0.6982  0.9473 -0.5903
  2664G12c C00Q49336  11.797   7.135  12.163  1.1066  1.5993 -1.0034
  2664G12c C00V49337  11.937   7.164  12.170  1.4110  1.1645 -0.2019
  2664G12c C00U49338  12.035   7.118  12.068  0.8949  0.3609 -0.6777
  2664G12c C00T49339  11.997   7.041  11.961 -0.8859  0.0639 -1.4314
  2664G12c C01649340  12.081   7.030  11.853  0.4146 -1.0583 -2.0237
  2664G12c C01549341  12.197   7.096  11.836 -0.3753 -0.7935  1.2573
  2664G12c C01049342  12.254   7.130  11.972  0.4648  0.8312 -0.0685
  2664G12c C01149343  12.388   7.132  11.994 -0.3626 -0.1772 -1.4057
  2664G12c H00549344  12.415   7.155  12.096  2.3545  3.2252 -2.7808
  2664G12c C01249345  12.485   7.136  11.886 -0.2714  2.0834  0.2597
  2664G12c C01749346  12.614   7.187  11.916  0.5116 -1.2624  2.6490
  2664G12c O00249347  12.619   7.321  11.880  0.8770 -0.1993 -0.9695
  2664G12c H00449348  12.545   7.378  11.891 -1.4317 -3.5321  2.0799
  2664G12c C01849349  12.701   7.110  11.954  1.1756 -0.0823  0.2624
  2664G12c O00149350  12.685   6.973  11.965 -1.8826  1.0206 -0.4223
  2664G12c H00349351  12.700   6.930  11.882  1.8786 -3.7321  2.3926
  2664G12c C01949352  12.825   7.179  11.969  0.7394  1.5219  0.2242
  2664G12c H00249353  12.808   7.286  11.980 -2.3516  1.2706 -1.6251
  2664G12c H00149354  12.840   7.140  12.070 -6.1039  2.7237  1.9124
  2664G12c O00049355  12.918   7.164  11.874 -0.4325  0.7139  0.9649
  2664G12c C01A49356  13.046   7.239  11.882 -1.2691  0.0507  1.0219
  2664G12c C02K49357  13.144   7.237  11.772  0.4093 -0.2580  0.5754
  2664G12c O00G49358  13.109   7.148  11.674  0.5655  0.4976 -0.7368
  2664G12c C02M49359  13.131   7.005  11.697  0.1421 -0.1240 -0.2668
  2664G12c H01G49360  13.132   6.941  11.609 -1.6420  4.6079 -3.9181
  2664G12c H01F49361  13.215   6.987  11.763 -3.4408 -2.2406  4.0320
  2664G12c H01E49362  13.038   6.953  11.723  1.3194 -2.4632 -0.6153
  2664G12c C02J49363  13.252   7.308  11.793  2.0070  0.5036 -2.1325
  2664G12c H01H49364  13.324   7.288  11.716  0.1287 -3.5216 -2.9837
  2664G12c C02I49365  13.310   7.381  11.896 -1.9581 -1.7514  0.5237
  2664G12c C02N49366  13.453   7.444  11.890 -0.1877  1.5624 -1.3277
  2664G12c H01M49367  13.486   7.545  11.907  1.6010  0.6939  0.5213
  2664G12c C02O49368  13.548   7.358  11.882  0.5462  0.2555 -0.7835
  2664G12c H01L49369  13.522   7.257  11.856  4.0491 -1.9285  3.3857
  2664G12c C02P49370  13.690   7.402  11.912 -0.5312  0.2466  0.6009
  2664G12c H01K49371  13.750   7.311  11.919 -0.6902 -0.2817 -3.6065
  2664G12c H01J49372  13.720   7.449  11.818 -5.2845 -0.7959 -1.5550
  2664G12c O00H49373  13.703   7.484  12.024  1.1652 -0.6101 -0.2747
  2664G12c H01I49374  13.764   7.462  12.093  1.0897  3.8934  1.3854
  2664G12c C02H49375  13.223   7.385  11.999  0.0448 -0.5950 -0.6330
  2664G12c H01C49376  13.246   7.443  12.087  0.8453 -2.4133  0.3894
  2664G12c C02L49377  13.090   7.312  12.006 -0.4693 -0.2732 -0.1789
  2664G12c H01D49378  13.014   7.296  12.080 -2.9944 -3.9622 -3.3576
  2664G12c C01349379  12.420   7.106  11.753 -1.3070 -0.8103  0.1916
  2664G12c H00049380  12.503   7.080  11.688 -0.6524  1.8966 -0.1120
  2664G12c C01449381  12.278   7.070  11.738 -1.1998  0.6265 -0.0949
  2664G12c C00F49382  12.222   7.036  11.618 -0.9967  0.6125 -0.3764
  2664G12c C00H49383  12.029   6.960  11.736 -2.0767 -0.7963 -0.9513
  2664G12c C00I49384  11.890   6.899  11.736  0.0118 -0.4492 -0.2331
  2664G12c C00J49385  11.832   6.906  11.872  1.1170 -0.6393  0.6909
  2664G12c C00Z49386  12.168   7.138  12.081 -0.6474  1.0585  0.5058
  2664G12c C00Y49387  12.210   7.202  12.199 -0.4202  0.8915  0.0617
  2664G12c H00649388  12.311   7.227  12.227  1.8185 -0.7748 -5.9502
  2664G12c C00X49389  12.133   7.213  12.308  1.4581  0.6745  0.6499
  2664G12c O00349390  12.205   7.257  12.423  0.6958  0.2164 -1.0087
  2664G12c C01B49391  12.145   7.239  12.555 -0.7128 -0.4062  0.8635
  2664G12c H00949392  12.245   7.243  12.598 -1.1693  0.0703  1.9083
  2664G12c H00849393  12.068   7.301  12.601 -1.6704 -2.1198  1.6155
  2664G12c H00749394  12.120   7.134  12.571  6.5850 -2.0610  2.9680
  2664G12c C00W49395  11.993   7.215  12.288 -0.5001  0.5270 -0.5238
  2664G12c O00449396  11.904   7.263  12.385 -0.5860 -0.9932  0.2581
  2664G12c C01C49397  11.775   7.297  12.339  1.0101  0.4600 -1.3729
  2664G12c H00A49398  11.738   7.385  12.389  0.1423 -0.6510 -0.0209
  2664G12c C00P49399  11.711   7.237  12.216 -0.7871 -0.4994  0.1706
  2664G12c C00O49400  11.569   7.241  12.185  1.4061 -0.6050 -0.3942
  2664G12c C01D49401  11.518   7.365  12.210  0.6775  0.5509  0.1085
  2664G12c H00S49402  11.566   7.443  12.268  4.9743 -1.8380 -0.0414
  2664G12c C01E49403  11.393   7.412  12.147 -1.2775  0.1224  0.5203
  2664G12c O00849404  11.336   7.530  12.159 -0.1409 -1.5912  0.2474
  2664G12c C01V49405  11.267   7.570  12.261  1.0759  1.5242 -1.5121
  2664G12c C01Z49406  11.333   7.682  12.326  0.4751 -2.3765 -1.2768
  2664G12c H00R49407  11.256   7.699  12.401 -1.6034 -0.9693 -3.6095
  2664G12c H00Q49408  11.441   7.688  12.336  0.7383 -1.1841 -4.1632
  2664G12c O00949409  11.293   7.801  12.265 -1.9418 -1.1361  0.4728
  2664G12c H00P49410  11.271   7.779  12.176  1.3506 -0.2124 -0.6027
  2664G12c C01W49411  11.181   7.494  12.329 -0.5877 -0.1004 -0.7107
  2664G12c H00O49412  11.149   7.413  12.264  1.4733 -0.9110 -0.7483
  2664G12c C01X49413  11.123   7.488  12.459 -0.3981  1.6078  0.6246
  2664G12c H00N49414  11.074   7.577  12.500  3.8724  6.2234 -3.6002
  2664G12c H00M49415  11.041   7.416  12.458 -2.0642  3.2842 -5.9802
  2664G12c C01Y49416  11.219   7.463  12.581 -0.3441  1.8112 -1.3805
  2664G12c C02D49417  11.266   7.332  12.609  0.3808 -1.5459  1.0628
  2664G12c H01949418  11.240   7.245  12.551  3.1271 -5.2745  5.0102
  2664G12c C02C49419  11.339   7.316  12.721 -0.1345 -0.7992 -0.4021
  2664G12c H01A49420  11.386   7.227  12.762  1.6617 -0.4309 -1.5900
  2664G12c C02B49421  11.405   7.426  12.770  0.0991  1.1632 -0.2497
  2664G12c O00E49422  11.518   7.403  12.846 -0.3711  0.1238  0.1089
  2664G12c H01B49423  11.589   7.466  12.848 -2.2048  2.4343 -2.9330
  2664G12c C02F49424  11.365   7.561  12.751  0.6687  0.4531 -0.0210
  2664G12c O00F49425  11.403   7.666  12.836 -1.0950  1.0862  0.4278
  2664G12c C02G49426  11.306   7.735  12.904 -0.0296  1.2353  1.4321
  2664G12c H01749427  11.279   7.826  12.852  2.5785  1.3064  0.1047
  2664G12c H01649428  11.222   7.667  12.917  1.6637 -0.2059  5.7323
  2664G12c H01549429  11.375   7.745  12.988  2.7458 -0.1431 -0.5777
  2664G12c C02E49430  11.276   7.577  12.645  1.1169  2.1140 -0.7889
  2664G12c H01849431  11.208   7.660  12.650 -2.2173 -0.6387  2.6095
  2664G12c C01F49432  11.329   7.315  12.062  0.5996 -0.6149 -1.1099
  2664G12c C01G49433  11.228   7.342  11.955  1.0125 -0.1308  0.8217
  2664G12c H00L49434  11.238   7.442  11.917 -0.5135  0.1568  1.1606
  2664G12c C01H49435  11.180   7.248  11.861  0.3409  2.5268 -1.2480
  2664G12c H00B49436  11.153   7.276  11.761  4.0663  1.6581 -2.5884
  2664G12c C01I49437  11.212   7.120  11.884 -0.5074  1.0361  2.2757
  2664G12c C01U49438  11.352   7.176  12.078 -0.0703 -0.4045 -0.6578
  2664G12c C00S49439  11.871   7.000  11.983 -1.0525  2.0750  0.6063
  2664G12c C00K49440  11.689   6.894  11.882 -1.7421  0.5874 -1.7479
  2664G12c C00N49441  11.495   7.148  12.105  0.0315  0.6320 -0.2553
  2664G12c C00049442  11.277   7.074  11.998 -0.1731 -0.9959 -0.3327
  2664G12c C01J49443  11.273   7.037  11.785 -0.5410 -0.5147  0.4600
  2664G12c C01K49444  11.216   7.068  11.651  0.6073  1.1643  0.2486
  2664G12c C01P49445  11.087   7.085  11.609  0.3083  0.5053 -0.5824
  2664G12c C01Q49446  10.966   7.058  11.696 -0.5613 -0.9111  0.5221
  2664G12c H00G49447  10.933   7.083  11.795  6.8175  2.5853  2.3838
  2664G12c C01R49448  10.880   6.979  11.633  0.6202  1.3808  0.6912
  2664G12c H00F49449  10.916   6.939  11.539  0.1008 -0.4310  1.2389
  2664G12c C01S49450  10.723   6.937  11.662  1.2361 -0.6215 -0.8618
  2664G12c H00E49451  10.655   7.018  11.638  3.5913  0.3895 -4.4957
  2664G12c H00D49452  10.682   6.846  11.619  4.0346 -3.0380  1.3395
  2664G12c O00549453  10.702   6.888  11.800  0.1990  1.0831  1.8101
  2664G12c H00C49454  10.791   6.860  11.814  2.0042 -0.8581 -9.2098
  2664G12c C01O49455  11.070   7.158  11.491  1.9890 -0.0061 -1.9032
  2664G12c H00H49456  10.983   7.215  11.462 -0.3356 -2.2370  0.4561
  2664G12c C01N49457  11.174   7.170  11.406 -0.5052 -0.4814  0.6170
  2664G12c O00649458  11.133   7.237  11.300 -1.2020 -0.3843 -0.7928
  2664G12c C01T49459  11.217   7.311  11.212  1.6286  0.9685  2.0002
  2664G12c H00K49460  11.325   7.327  11.219  1.8408  3.6655 -4.1751
  2664G12c H00J49461  11.172   7.410  11.222  5.4377  2.6651  3.3042
  2664G12c H00I49462  11.207   7.309  11.104 -3.1875 -3.5145  2.3127
  2664G12c C01M49463  11.290   7.106  11.432 -1.0421 -0.9076 -1.0243
  2664G12c C02049464  11.625   6.882  11.750 -2.1493 -1.3986 -1.2093
  2664G12c C02149465  11.693   6.875  11.622 -0.1557  1.8288 -0.9632
  2664G12c C01L49466  11.318   7.049  11.556 -1.1679  0.3306  0.6782
  2664G12c O00749467  11.372   7.083  11.318 -0.1642 -0.9334 -0.1532
  2664G12c C02249468  11.663   6.923  11.481  1.1864  1.1384 -0.6815
  2664G12c C02349469  11.833   6.856  11.610 -1.2076  1.9218 -1.2244
  2664G12c C00G49470  12.091   6.977  11.612 -1.3499  2.4125  0.3399
  2664G12c C00E49471  12.276   7.051  11.488 -0.0176  0.2248  1.7245
  2664G12c O00A49472  12.386   7.141  11.494  0.8572  1.5812 -0.7200
  2664G12c C02449473  12.371   7.277  11.431  0.3651  0.1753  0.0689
  2664G12c H00V49474  12.448   7.349  11.458  2.0087  0.8838 -5.8777
  2664G12c H00U49475  12.290   7.304  11.499 -0.6433 -4.0746  0.7426
  2664G12c H00T49476  12.343   7.297  11.328  2.5693  1.9964 -0.2018
  2674G12c C00D49477   5.983   1.530   9.128 -1.2149 -0.9880 -0.3128
  2674G12c O00B49478   5.889   1.527   9.233  1.1880 -0.6574  0.6872
  2674G12c C02549479   5.934   1.482   9.364  0.2940  1.9536  0.0392
  2674G12c C02649480   6.006   1.349   9.368  0.6458 -0.4781  0.4390
  2674G12c H00Y49481   6.093   1.346   9.303 -1.7593 -2.7828 -2.8104
  2674G12c H00X49482   5.952   1.265   9.326 -2.0430  4.0213 -5.9804
  2674G12c O00C49483   6.076   1.320   9.487  0.6252 -1.8745 -0.4469
  2674G12c H00W49484   6.046   1.382   9.551 -2.3805 -2.6268 -1.0670
  2674G12c C02749485   5.922   1.584   9.454 -0.7223  0.4120 -0.4893
  2674G12c O00D49486   5.975   1.605   9.579  0.7340 -0.1226 -0.4393
  2674G12c H00Z49487   5.894   1.626   9.624  0.3664  6.5946 -3.5625
  2674G12c C02849488   5.826   1.682   9.412  0.2160 -0.2441 -0.2956
  2674G12c C02949489   5.885   1.810   9.409  0.1710  1.3678 -0.0796
  2674G12c H01049490   5.992   1.823   9.407 -0.0198  4.1883 -7.6069
  2674G12c C02T49491   5.808   1.929   9.373  0.6862  1.2064  0.0122
  2674G12c H01O49492   5.848   2.027   9.349  0.2217  1.4552  0.2277
  2674G12c C02S49493   5.670   1.890   9.352 -0.1114  0.8228 -1.3162
  2674G12c O00J49494   5.566   2.000   9.334  0.4970 -1.1429  0.7724
  2674G12c H01P49495   5.601   2.074   9.285 -4.3091  2.0156  1.7530
  2674G12c C02R49496   5.601   1.759   9.356 -1.4210 -2.3899  0.3636
  2674G12c O00I49497   5.479   1.738   9.302 -0.6323  0.0674  0.4437
  2674G12c C02Q49498   5.363   1.744   9.386  0.7720  1.0179 -0.3533
  2674G12c H01N49499   5.300   1.667   9.342 -3.7722  5.0547 -1.3459
  2674G12c H01R49500   5.322   1.836   9.344 -0.9594  1.2641  1.7407
  2674G12c H01Q49501   5.385   1.757   9.492 -0.9500 -2.3864  0.5066
  2674G12c C02A49502   5.684   1.658   9.382 -0.0832  0.2664 -0.3378
  2674G12c H01149503   5.661   1.554   9.398  2.7774 -0.6015 -1.4729
  2674G12c C00C49504   6.022   1.414   9.058  0.4479  0.3417  0.1639
  2674G12c H01249505   6.002   1.314   9.091 -4.9376  0.5110 -2.0974
  2674G12c C00B49506   6.107   1.426   8.943 -1.0599 -0.5504  0.3922
  2674G12c C00A49507   6.173   1.330   8.855  0.3849  1.1065 -1.0987
  2674G12c C00949508   6.170   1.192   8.856 -1.4838 -0.6492 -1.0997
  2674G12c C00849509   6.114   1.088   8.941 -1.2000  0.2679  0.5730
  2674G12c H01349510   6.034   1.077   9.013  2.5980  0.5091  5.1445
  2674G12c C00749511   6.160   0.961   8.896 -1.2220 -1.5172 -1.0411
  2674G12c H01449512   6.129   0.872   8.949  1.8318 -2.1677 -0.2416
  2674G12c C00649513   6.293   0.932   8.834 -2.1670 -0.9883 -0.7598
  2674G12c C00549514   6.325   1.033   8.742 -0.7323  0.6063 -0.5277
  2674G12c C00449515   6.420   1.021   8.641 -1.4087  0.5292  1.3827
  2674G12c C00349516   6.463   1.133   8.578  1.2028  1.6685 -0.8993
  2674G12c C00249517   6.590   1.131   8.505 -0.0065 -0.5327  0.0517
  2674G12c C00149518   6.666   1.234   8.432  0.0861 -0.6629 -0.2034
  2674G12c C00M49519   6.692   1.377   8.485  0.5324 -0.4649  0.6067
  2674G12c C00L49520   6.578   1.441   8.546  0.5124  1.2456  1.7352
  2674G12c C00R49521   6.615   1.562   8.617  0.4671  1.1287  0.5781
  2674G12c C00Q49522   6.733   1.646   8.642 -1.3761  0.6198  1.2684
  2674G12c C00V49523   6.689   1.771   8.712  0.2457  1.0757 -0.0809
  2674G12c C00U49524   6.580   1.776   8.795  1.6375 -0.3777  0.8935
  2674G12c C00T49525   6.484   1.672   8.784  0.8433  0.9328  0.4148
  2674G12c C01649526   6.352   1.679   8.845 -0.9196 -0.6380 -0.9424
  2674G12c C01549527   6.344   1.775   8.950  0.9893  0.5147  0.9441
  2674G12c C01049528   6.437   1.875   8.964 -1.0795 -0.8505  0.1301
  2674G12c C01149529   6.430   1.980   9.063  1.9620 -0.0743  0.2797
  2674G12c H00549530   6.496   2.066   9.059  7.8260 -4.1385  2.7251
  2674G12c C01249531   6.327   1.966   9.183 -0.7172 -1.2421  0.3611
  2674G12c C01749532   6.327   2.064   9.305 -0.1619  0.5314  1.4003
  2674G12c O00249533   6.203   2.102   9.357  0.4731 -1.8840 -0.6153
  2674G12c H00449534   6.208   2.121   9.450 11.3207 -3.8084 -0.1499
  2674G12c C01849535   6.437   2.132   9.335  1.6679 -1.6610  1.5682
  2674G12c O00149536   6.554   2.115   9.257  0.3487  0.7254 -0.3269
  2674G12c H00349537   6.506   2.063   9.194 -3.7640  2.1800  1.3641
  2674G12c C01949538   6.445   2.232   9.451 -0.0396 -1.1657 -0.2882
  2674G12c H00249539   6.534   2.195   9.500 -1.3965  1.1256  4.2269
  2674G12c H00149540   6.462   2.329   9.405  1.2743  2.4526  7.1522
  2674G12c O00049541   6.328   2.261   9.521  0.0531 -0.8864  0.3215
  2674G12c C01A49542   6.382   2.344   9.609 -0.3078 -3.0549 -1.1957
  2674G12c C02K49543   6.457   2.309   9.722  1.8284  1.2380  0.8143
  2674G12c O00G49544   6.474   2.179   9.718 -0.3714 -0.1498  0.4172
  2674G12c C02M49545   6.380   2.119   9.802  0.7198 -0.9182 -0.8136
  2674G12c H01G49546   6.426   2.116   9.901  3.3290  7.0037 -1.4465
  2674G12c H01F49547   6.347   2.017   9.782 -3.3487 -0.3835  2.4867
  2674G12c H01E49548   6.279   2.160   9.800  3.0729  5.6092  0.9782
  2674G12c C02J49549   6.510   2.411   9.808  1.0455  0.8741  0.2602
  2674G12c H01H49550   6.551   2.390   9.906 -2.3695 -2.6714  1.0741
  2674G12c C02I49551   6.519   2.543   9.759  1.0097 -0.9717 -0.2224
  2674G12c C02N49552   6.562   2.648   9.854  0.9328  0.7609  1.1754
  2674G12c H01M49553   6.646   2.622   9.918  0.4283  4.4647  3.5273
  2674G12c C02O49554   6.477   2.747   9.893  0.1662  0.5479 -1.0434
  2674G12c H01L49555   6.378   2.722   9.857 -1.0470 -0.8654  2.9635
  2674G12c C02P49556   6.500   2.857  10.003  2.3186 -0.6372 -1.5887
  2674G12c H01K49557   6.467   2.834  10.105 -2.1489  1.8112 -2.3615
  2674G12c H01J49558   6.608   2.861   9.995  2.4484 -3.8747 -2.1044
  2674G12c O00H49559   6.473   2.985   9.948  0.5387 -1.6126  0.9860
  2674G12c H01I49560   6.522   3.025   9.877  4.5343  1.7934  5.3089
  2674G12c C02H49561   6.461   2.579   9.629  0.1618  1.2117  0.4692
  2674G12c H01C49562   6.462   2.679   9.589  4.7367  0.9252 -0.4126
  2674G12c C02L49563   6.386   2.478   9.570  1.3370 -0.1627 -0.5490
  2674G12c H01D49564   6.303   2.524   9.518  1.0231  0.2686  0.3199
  2674G12c C01349565   6.232   1.855   9.158 -0.9824  0.2200  0.7317
  2674G12c H00049566   6.160   1.844   9.237  0.4468 -4.6473  1.5058
  2674G12c C01449567   6.235   1.774   9.034 -1.5972  0.7599  1.8637
  2674G12c C00F49568   6.146   1.666   9.019  1.6121  0.4316 -0.8339
  2674G12c C00H49569   6.276   1.564   8.842  0.2655 -1.5924 -1.0226
  2674G12c C00I49570   6.292   1.473   8.728 -0.7191  0.0891 -0.6350
  2674G12c C00J49571   6.402   1.501   8.643  1.0716 -0.0478  1.4757
  2674G12c C00Z49572   6.556   1.878   8.891  1.5730 -1.7192  0.3122
  2674G12c C00Y49573   6.647   1.991   8.881  1.6165 -0.8731  0.0945
  2674G12c H00649574   6.643   2.087   8.931 -2.3797 -1.3458  0.8153
  2674G12c C00X49575   6.749   1.985   8.783 -1.1389 -0.6437 -1.2823
  2674G12c O00349576   6.826   2.121   8.779  0.2929  0.5075 -0.2054
  2674G12c C01B49577   6.721   2.218   8.708 -0.3412 -0.9130  1.6508
  2674G12c H00949578   6.773   2.290   8.645 -3.5894  0.5693  0.5400
  2674G12c H00849579   6.651   2.278   8.765 -0.2830  0.3578  0.4097
  2674G12c H00749580   6.661   2.156   8.641  1.7526 -0.3099 -0.9002
  2674G12c C00W49581   6.786   1.869   8.720 -0.6667 -0.6941  1.1395
  2674G12c O00449582   6.906   1.866   8.663  1.2878 -0.2706 -0.1445
  2674G12c C01C49583   6.948   1.742   8.622  0.0993  1.3463 -0.7679
  2674G12c H00A49584   7.049   1.733   8.587 -0.5644 -4.9381 -1.5904
  2674G12c C00P49585   6.868   1.626   8.619 -0.3418  0.8787  0.8625
  2674G12c C00O49586   6.909   1.505   8.557  0.6517 -1.5788 -0.0157
  2674G12c C01D49587   7.059   1.482   8.553 -0.7513  0.3026 -0.8730
  2674G12c H00S49588   7.133   1.553   8.586  1.7577 -2.0333 -1.3007
  2674G12c C01E49589   7.093   1.340   8.568 -1.2823  0.0997 -1.3014
  2674G12c O00849590   7.227   1.302   8.582 -1.2658  0.6358  0.0818
  2674G12c C01V49591   7.307   1.220   8.492  0.7383 -0.1950  1.6931
  2674G12c C01Z49592   7.426   1.193   8.591 -1.3001 -1.1647 -0.4004
  2674G12c H00R49593   7.477   1.115   8.534 -0.5659  0.9408 -2.6875
  2674G12c H00Q49594   7.499   1.273   8.598  2.7061 -4.8472  1.9684
  2674G12c O00949595   7.384   1.167   8.723  0.1513 -0.6284  0.6651
  2674G12c H00P49596   7.373   1.249   8.769  1.7989  3.6007 -5.8431
  2674G12c C01W49597   7.276   1.169   8.369  0.2660  0.8386  0.3601
  2674G12c H00O49598   7.179   1.197   8.332 -1.2860  0.2450  3.7402
  2674G12c C01X49599   7.345   1.043   8.329  1.5874  0.8037  1.0318
  2674G12c H00N49600   7.384   0.962   8.389  2.8499  1.4700  1.1336
  2674G12c H00M49601   7.268   1.003   8.263  3.2350 -7.0637  3.4475
  2674G12c C01Y49602   7.458   1.057   8.237 -2.2410  1.6911 -0.6745
  2674G12c C02D49603   7.575   0.979   8.238  0.0125 -2.1200  1.0795
  2674G12c H01949604   7.581   0.925   8.331  5.6220 -4.1735 -0.2869
  2674G12c C02C49605   7.645   0.950   8.129 -1.6421  0.3502  1.7757
  2674G12c H01A49606   7.714   0.868   8.117 -0.8304  1.7356 -6.3844
  2674G12c C02B49607   7.637   1.033   8.021  0.9417  0.2639  0.6208
  2674G12c O00E49608   7.700   1.009   7.907  0.1549  0.2711  0.6219
  2674G12c H01B49609   7.695   1.098   7.874  1.7187  0.0001 -0.4045
  2674G12c C02F49610   7.520   1.108   8.011 -1.3052 -1.1041 -0.8699
  2674G12c O00F49611   7.520   1.205   7.911  0.0174 -0.5615 -0.2246
  2674G12c C02G49612   7.407   1.298   7.894 -0.4390 -0.7445  1.2651
  2674G12c H01749613   7.428   1.364   7.810  2.2626 -3.4819 -0.3284
  2674G12c H01649614   7.402   1.357   7.985  5.3892 -0.0563  1.3138
  2674G12c H01549615   7.300   1.281   7.881 -0.6877 -0.6756  3.1022
  2674G12c C02E49616   7.430   1.135   8.122  0.8442  0.6867  1.0341
  2674G12c H01849617   7.360   1.216   8.112 -1.5980 -1.5852 -1.3863
  2674G12c C01F49618   6.999   1.242   8.554 -1.9694 -0.3347  0.4485
  2674G12c C01G49619   7.012   1.098   8.576  0.9556 -0.0331  0.0151
  2674G12c H00L49620   7.107   1.069   8.617  1.0387 -2.0781 -1.5549
  2674G12c C01H49621   6.918   0.995   8.529  0.0335  0.3991 -1.9660
  2674G12c H00B49622   6.924   0.898   8.577 -0.2269  1.4150  0.1733
  2674G12c C01I49623   6.796   1.038   8.479  0.9260 -0.1013 -0.2491
  2674G12c C01U49624   6.884   1.266   8.477 -0.6006 -0.5344 -1.0467
  2674G12c C00S49625   6.491   1.594   8.680  1.3702 -0.3215 -0.1851
  2674G12c C00K49626   6.447   1.395   8.575 -0.4815 -0.1018  1.0196
  2674G12c C00N49627   6.831   1.397   8.505  0.4343 -1.0505 -1.3381
  2674G12c C00049628   6.790   1.171   8.437 -0.7734 -0.3133  0.5173
  2674G12c C01J49629   6.664   1.016   8.530 -0.2840  0.5054  0.2386
  2674G12c C01K49630   6.618   0.886   8.561 -0.0291  0.0676 -0.6645
  2674G12c C01P49631   6.669   0.750   8.544  0.0845  0.1050  0.7483
  2674G12c C01Q49632   6.773   0.733   8.446 -2.6164 -0.5490  0.2164
  2674G12c H00G49633   6.745   0.759   8.345 -3.7380  5.0312  1.8084
  2674G12c C01R49634   6.883   0.664   8.461  0.5990  0.3702  1.5839
  2674G12c H00F49635   6.963   0.632   8.395  0.7787  2.4741  0.7339
  2674G12c C01S49636   6.951   0.615   8.593 -0.4203  0.3084  0.1062
  2674G12c H00E49637   7.058   0.594   8.598  0.1820  3.4600  6.1914
  2674G12c H00D49638   6.906   0.694   8.653  5.6613  4.2733 -0.0704
  2674G12c O00549639   6.943   0.476   8.599  0.7783 -0.2654 -0.0468
  2674G12c H00C49640   6.880   0.456   8.531 -9.3724  3.7971  6.8878
  2674G12c C01O49641   6.620   0.650   8.616  1.1827  0.6420 -0.3157
  2674G12c H00H49642   6.656   0.561   8.567  0.8456  0.1644  0.2991
  2674G12c C01N49643   6.510   0.663   8.719  1.4211  0.0580 -0.1171
  2674G12c O00649644   6.430   0.559   8.763 -0.5046  0.0576  0.1154
  2674G12c C01T49645   6.523   0.439   8.740  0.4202  0.4151 -0.0773
  2674G12c H00K49646   6.618   0.461   8.788  1.9500 -3.0003 -1.3558
  2674G12c H00J49647   6.469   0.357   8.788  0.7110  0.5711  0.5196
  2674G12c H00I49648   6.543   0.406   8.638 -5.1707 -8.0674  0.9720
  2674G12c C01M49649   6.456   0.797   8.731 -0.2734  0.6576 -0.7060
  2674G12c C02049650   6.387   1.263   8.595 -1.0309 -0.1347  0.9120
  2674G12c C02149651   6.255   1.269   8.647  0.3095  2.5612  1.7781
  2674G12c C01L49652   6.503   0.903   8.648  0.5229 -1.1408 -1.4412
  2674G12c O00749653   6.339   0.803   8.801  0.6650 -0.0888  2.0749
  2674G12c C02249654   6.240   1.153   8.745 -1.2547  1.4892  0.6428
  2674G12c C02349655   6.194   1.376   8.721  1.0410  1.8566 -0.2791
  2674G12c C00G49656   6.172   1.549   8.939  0.6653  0.9892  0.3388
  2674G12c C00E49657   6.025   1.658   9.102  0.6929 -0.5423 -0.4840
  2674G12c O00A49658   5.945   1.758   9.147 -2.1305  0.7714 -1.5529
  2674G12c C02449659   5.822   1.772   9.075 -0.1369 -1.0346 -0.3892
  2674G12c H00V49660   5.802   1.745   8.971 -2.0812  3.4120 -1.2810
  2674G12c H00U49661   5.769   1.861   9.106  1.1066 -2.2629  5.9835
  2674G12c H00T49662   5.750   1.704   9.121  4.3289 -5.4566  0.5314
  2684G12c C00D49663   6.612   9.065   4.575 -1.4639  0.5624  0.2290
  2684G12c O00B49664   6.576   9.050   4.703  0.1419  0.9651 -0.6896
  2684G12c C02549665   6.486   8.943   4.735  0.1415  0.9785 -1.1848
  2684G12c C02649666   6.535   8.812   4.668  0.2259 -0.0053 -0.9758
  2684G12c H00Y49667   6.534   8.729   4.739 -1.7016  0.9653  0.1793
  2684G12c H00X49668   6.641   8.811   4.643 -0.0803 -4.4755 -2.5416
  2684G12c O00C49669   6.471   8.757   4.553  0.5054 -0.0313  0.1662
  2684G12c H00W49670   6.458   8.830   4.494  1.8595 -3.7778 -5.0393
  2684G12c C02749671   6.380   8.974   4.800 -1.9379 -0.5867 -0.2438
  2684G12c O00D49672   6.395   9.090   4.884  0.6919 -1.3505 -0.2456
  2684G12c H00Z49673   6.475   9.139   4.868 -0.7449  0.0300 -3.7748
  2684G12c C02849674   6.244   8.898   4.765  0.9277 -0.1826  0.7641
  2684G12c C02949675   6.124   8.973   4.706 -0.3325  1.3247 -1.7377
  2684G12c H01049676   6.119   9.078   4.684 -0.9215  0.7867 -4.4248
  2684G12c C02T49677   6.024   8.898   4.666 -0.9150  0.4286 -1.0362
  2684G12c H01O49678   5.942   8.966   4.646 -0.9344 -0.0466 -2.6665
  2684G12c C02S49679   6.012   8.754   4.661  0.0972  1.4739 -0.9938
  2684G12c O00J49680   5.891   8.705   4.641 -1.5304 -0.8771  1.4186
  2684G12c H01P49681   5.844   8.759   4.579  2.4897 -0.4495 -1.5166
  2684G12c C02R49682   6.101   8.683   4.739 -0.7126  1.0710 -0.7958
  2684G12c O00I49683   6.059   8.563   4.803  0.1841 -0.5291  0.5715
  2684G12c C02Q49684   6.055   8.582   4.943  0.8898 -0.4189  0.8027
  2684G12c H01N49685   5.989   8.659   4.982  0.5475  0.2000 -0.9422
  2684G12c H01R49686   6.151   8.602   4.990 -0.7143 -0.9029  4.4296
  2684G12c H01Q49687   6.020   8.483   4.972  0.2303 -1.5405 -3.4877
  2684G12c C02A49688   6.220   8.752   4.775 -2.1124 -0.2657 -0.2911
  2684G12c H01149689   6.294   8.678   4.804  1.2343  2.1018 -2.4081
  2684G12c C00C49690   6.502   9.101   4.492 -0.0997  0.6944  0.0405
  2684G12c H01249691   6.413   9.115   4.551  1.2658  0.8746  2.1001
  2684G12c C00B49692   6.517   9.132   4.354 -0.7146 -0.8177  0.4807
  2684G12c C00A49693   6.415   9.123   4.256  1.7791 -0.5332  0.6429
  2684G12c C00949694   6.288   9.067   4.245  0.9788 -1.6631 -1.6151
  2684G12c C00849695   6.231   8.958   4.323  0.7841 -0.9246  1.7087
  2684G12c H01349696   6.222   8.955   4.431  4.6653  0.8044  2.1622
  2684G12c C00749697   6.126   8.880   4.271 -0.7530  1.2617 -0.5824
  2684G12c H01449698   6.081   8.813   4.342  0.2284  1.1671 -0.0418
  2684G12c C00649699   6.095   8.888   4.125 -0.1047 -1.1527 -0.1391
  2684G12c C00549700   6.166   8.979   4.049  0.3009 -0.8211  0.0075
  2684G12c C00449701   6.166   8.961   3.909 -0.4752 -1.1760 -0.5531
  2684G12c C00349702   6.282   9.008   3.858  0.6075 -0.8495 -1.5559
  2684G12c C00249703   6.287   8.970   3.713  0.0674 -0.9226  0.4733
  2684G12c C00149704   6.375   9.025   3.625  0.7820 -0.2763 -1.5527
  2684G12c C00M49705   6.522   9.019   3.642  0.2955  0.8638 -0.7058
  2684G12c C00L49706   6.576   9.115   3.721 -0.9611 -0.4675  0.1231
  2684G12c C00R49707   6.708   9.115   3.768 -0.7387  1.0481 -0.1021
  2684G12c C00Q49708   6.812   9.026   3.723  0.3652 -0.2168  0.6397
  2684G12c C00V49709   6.931   9.041   3.804 -0.9012 -0.6142  0.3272
  2684G12c C00U49710   6.943   9.085   3.935  0.1348 -1.2850  1.2384
  2684G12c C00T49711   6.821   9.135   3.995 -1.3510 -1.1641  0.1493
  2684G12c C01649712   6.801   9.148   4.124  1.4090  0.7851  0.9642
  2684G12c C01549713   6.905   9.136   4.201  0.9884  0.4938 -0.8146
  2684G12c C01049714   7.040   9.120   4.155 -0.8864  0.1335 -0.0661
  2684G12c C01149715   7.146   9.163   4.242  3.9795 -0.9082  0.6324
  2684G12c H00549716   7.254   9.164   4.236  4.4929  0.0255  6.5969
  2684G12c C01249717   7.115   9.212   4.379  1.6068 -0.5001 -0.4270
  2684G12c C01749718   7.215   9.294   4.453 -1.0131  1.2151 -0.9457
  2684G12c O00249719   7.218   9.418   4.475  1.4758 -0.0938 -1.1435
  2684G12c H00449720   7.247   9.480   4.411 -3.1458 -1.3466 -4.6918
  2684G12c C01849721   7.339   9.242   4.493  1.1286 -0.4663  1.0064
  2684G12c O00149722   7.377   9.116   4.462  0.4900 -1.0003 -0.0105
  2684G12c H00349723   7.324   9.054   4.510 -3.4429 -1.8419 -4.9772
  2684G12c C01949724   7.450   9.327   4.569 -0.9610 -0.7713 -1.1138
  2684G12c H00249725   7.433   9.432   4.591 -4.9059 -0.2141 -6.0082
  2684G12c H00149726   7.442   9.301   4.675  1.4289  1.4050 -0.3288
  2684G12c O00049727   7.597   9.318   4.535  0.1791 -1.1293 -0.7100
  2684G12c C01A49728   7.686   9.214   4.574  2.7414  0.0439 -1.0087
  2684G12c C02K49729   7.721   9.181   4.705 -0.2405 -0.4251 -0.7346
  2684G12c O00G49730   7.675   9.250   4.823  0.9306  0.8647 -1.4488
  2684G12c C02M49731   7.635   9.158   4.925  0.3260 -0.6470 -2.0875
  2684G12c H01G49732   7.698   9.178   5.012  0.0397 -0.3293 -1.9548
  2684G12c H01F49733   7.643   9.051   4.903  1.9649 -0.2138 -3.7644
  2684G12c H01E49734   7.529   9.182   4.919  0.4617 -0.1974 -2.7367
  2684G12c C02J49735   7.828   9.079   4.715  1.3934  2.9621  0.6041
  2684G12c H01H49736   7.862   9.031   4.806  5.4493 -1.0864 -2.8168
  2684G12c C02I49737   7.881   9.022   4.600  0.5842  1.4872  3.0168
  2684G12c C02N49738   7.982   8.925   4.620 -0.2940  0.2749  0.4909
  2684G12c H01M49739   8.034   8.899   4.711 -5.9143 -3.2985  3.0008
  2684G12c C02O49740   8.042   8.856   4.524 -0.1645 -1.5476 -0.9370
  2684G12c H01L49741   8.013   8.859   4.420 -4.1980 -1.3623  0.0868
  2684G12c C02P49742   8.138   8.751   4.557 -0.1964  1.4686 -0.0745
  2684G12c H01K49743   8.225   8.785   4.501  1.8154 -1.2989  1.2663
  2684G12c H01J49744   8.174   8.759   4.660 -2.0983  3.4210  0.4786
  2684G12c O00H49745   8.088   8.617   4.516  0.8381  0.8756 -0.0689
  2684G12c H01I49746   8.064   8.575   4.597  0.8159  1.7932  0.4186
  2684G12c C02H49747   7.827   9.055   4.478 -0.2423 -0.8087 -0.4930
  2684G12c H01C49748   7.858   9.004   4.388  7.3230  0.5501  1.0450
  2684G12c C02L49749   7.749   9.159   4.454 -0.1215 -1.1702  0.3351
  2684G12c H01D49750   7.725   9.185   4.352  2.6762 -0.3150 -0.1576
  2684G12c C01349751   6.993   9.192   4.424 -0.4595 -0.2299  0.8994
  2684G12c H00049752   6.994   9.207   4.531 -1.4270  1.0478  0.7419
  2684G12c C01449753   6.889   9.136   4.336 -0.9077  1.3035  0.4706
  2684G12c C00F49754   6.755   9.110   4.388 -0.6223 -0.0543  1.2570
  2684G12c C00H49755   6.676   9.148   4.162  0.8787  0.5731  0.3067
  2684G12c C00I49756   6.571   9.171   4.068 -1.3346 -1.1236  0.0555
  2684G12c C00J49757   6.596   9.207   3.931  1.6104  0.2661 -0.6165
  2684G12c C00Z49758   7.053   9.072   4.015 -0.0007  1.3356 -0.3610
  2684G12c C00Y49759   7.170   9.018   3.971  0.8177 -0.3314 -0.1897
  2684G12c H00649760   7.270   9.036   4.007  1.8720  2.9170 -4.3607
  2684G12c C00X49761   7.166   8.992   3.822 -0.6726 -0.6417 -0.7702
  2684G12c O00349762   7.274   8.943   3.764 -0.5088  0.9256 -0.3769
  2684G12c C01B49763   7.357   9.026   3.674 -0.8575 -0.0134 -0.9149
  2684G12c H00949764   7.372   9.125   3.717 -4.3578 -0.8604  2.5901
  2684G12c H00849765   7.326   9.031   3.570 -6.6720 -0.1372  0.5956
  2684G12c H00749766   7.458   8.986   3.666  2.5338  6.7908  3.5733
  2684G12c C00W49767   7.050   8.999   3.742  0.7529 -0.0773 -0.6667
  2684G12c O00449768   7.051   8.937   3.621  2.7324 -0.1712 -0.4847
  2684G12c C01C49769   6.940   8.896   3.571 -0.2345  0.7439  0.2378
  2684G12c H00A49770   6.956   8.920   3.466  2.2851  1.2943  0.7179
  2684G12c C00P49771   6.815   8.927   3.621 -0.3299  1.0870 -0.0577
  2684G12c C00O49772   6.706   8.873   3.540  0.7835 -1.2543  1.0091
  2684G12c C01D49773   6.736   8.771   3.440 -0.0624 -1.3936  0.5461
  2684G12c H00S49774   6.825   8.716   3.414 -1.3183 -4.6602  2.8221
  2684G12c C01E49775   6.620   8.725   3.371  0.4685  0.7313 -0.5045
  2684G12c O00849776   6.634   8.623   3.292 -1.2569 -0.0728  0.3666
  2684G12c C01V49777   6.629   8.506   3.377 -1.0252 -1.0567  0.7180
  2684G12c C01Z49778   6.698   8.383   3.339 -1.6149 -0.0982  0.1947
  2684G12c H00R49779   6.646   8.288   3.332  2.6078 -2.3670 -2.5952
  2684G12c H00Q49780   6.753   8.391   3.245  1.0337  5.2712  1.9818
  2684G12c O00949781   6.794   8.383   3.427 -0.5163  1.5532 -0.0682
  2684G12c H00P49782   6.764   8.444   3.493  5.1718  5.5205 -0.7832
  2684G12c C01W49783   6.559   8.496   3.493 -0.3272 -0.3336  1.1689
  2684G12c H00O49784   6.494   8.578   3.521  0.5337  0.3207  1.2456
  2684G12c C01X49785   6.545   8.382   3.587  0.3319 -1.3298  0.5765
  2684G12c H00N49786   6.442   8.352   3.569 -0.9408  3.1048 -0.0586
  2684G12c H00M49787   6.613   8.300   3.564  0.9922 -0.3424 -1.1368
  2684G12c C01Y49788   6.564   8.401   3.744  0.1424  0.9433  0.5309
  2684G12c C02D49789   6.594   8.521   3.809  1.6242  1.9409  0.9695
  2684G12c H01949790   6.592   8.614   3.754 -2.1497 -1.0123 -4.3613
  2684G12c C02C49791   6.618   8.518   3.939 -0.4692 -0.7346 -0.0732
  2684G12c H01A49792   6.622   8.612   3.991 -2.0764 -0.6323 -0.1301
  2684G12c C02B49793   6.585   8.413   4.010 -0.3381  0.1294 -2.6317
  2684G12c O00E49794   6.550   8.441   4.141 -1.5901  1.1847  1.0276
  2684G12c H01B49795   6.591   8.381   4.202  0.3899  5.4606  4.1975
  2684G12c C02F49796   6.552   8.292   3.947 -0.2122 -0.7298 -0.3249
  2684G12c O00F49797   6.544   8.179   4.021  0.0381 -0.7014 -0.6469
  2684G12c C02G49798   6.451   8.087   3.997 -0.1579  0.5058 -0.0704
  2684G12c H01749799   6.355   8.139   3.992  0.2403  2.8419  8.4501
  2684G12c H01649800   6.415   8.023   4.077 -1.7626 -1.9935 -2.6899
  2684G12c H01549801   6.452   8.020   3.911  8.0786 -0.6802  0.5580
  2684G12c C02E49802   6.543   8.275   3.808  0.0410  0.5924  0.4956
  2684G12c H01849803   6.549   8.173   3.773 -3.8804  0.3364  0.3494
  2684G12c C01F49804   6.479   8.774   3.382 -1.1974 -1.1718  0.0970
  2684G12c C01G49805   6.351   8.734   3.341  0.2484 -0.6236  1.5559
  2684G12c H00L49806   6.361   8.665   3.259 -3.7622  0.4430  0.0992
  2684G12c C01H49807   6.228   8.767   3.412 -1.0789  0.0972  0.5731
  2684G12c H00B49808   6.144   8.767   3.344 -0.0747 -4.9501 -0.9079
  2684G12c C01I49809   6.228   8.868   3.516  0.2715  0.1190 -0.4353
  2684G12c C01U49810   6.472   8.893   3.466 -1.2062  0.0499  1.7988
  2684G12c C00S49811   6.724   9.172   3.895  0.8885  0.6651  0.5020
  2684G12c C00K49812   6.507   9.141   3.835 -2.0806  1.5530 -1.2599
  2684G12c C00N49813   6.570   8.916   3.559  2.0415 -0.4236 -0.3436
  2684G12c C00049814   6.346   8.942   3.501 -0.1135 -0.0221  0.2171
  2684G12c C01J49815   6.194   8.877   3.656 -0.0806  0.7388  0.2130
  2684G12c C01K49816   6.084   8.801   3.717 -0.0806 -0.6601  0.5899
  2684G12c C01P49817   5.982   8.708   3.668 -2.0076  0.2450 -0.9018
  2684G12c C01Q49818   6.000   8.653   3.537  0.8066  0.2954  0.7491
  2684G12c H00G49819   5.938   8.704   3.466 -1.0237  3.8185  4.6744
  2684G12c C01R49820   6.013   8.533   3.493  0.7653 -0.9484 -0.3221
  2684G12c H00F49821   6.067   8.491   3.576 -2.4166 -1.7950  1.4038
  2684G12c C01S49822   5.982   8.495   3.355  1.0057  1.8949 -1.1368
  2684G12c H00E49823   6.006   8.587   3.303  3.5965  0.8276 -1.9345
  2684G12c H00D49824   6.047   8.421   3.308 -2.0419  0.5400 -3.3686
  2684G12c O00549825   5.851   8.450   3.306  0.4912  0.0417  1.8687
  2684G12c H00C49826   5.817   8.380   3.359  2.0980 -2.5160 -0.2922
  2684G12c C01O49827   5.879   8.673   3.761  0.8879 -0.7248 -0.0541
  2684G12c H00H49828   5.803   8.607   3.722 -3.6162  4.6666 -0.9072
  2684G12c C01N49829   5.873   8.728   3.894  0.0838  0.7514 -0.5459
  2684G12c O00649830   5.784   8.688   3.973 -0.3695 -0.4299  0.8255
  2684G12c C01T49831   5.646   8.743   3.956  1.0628  0.0499  0.3105
  2684G12c H00K49832   5.639   8.733   3.848 -4.7311  0.1432  0.5688
  2684G12c H00J49833   5.628   8.844   3.993 -4.8832  0.2751 -2.7563
  2684G12c H00I49834   5.571   8.668   3.977  1.0273 -0.1879 -0.6501
  2684G12c C01M49835   5.987   8.799   3.934  1.6169 -0.9810  0.0650
  2684G12c C02049836   6.383   9.094   3.910  0.5718  0.2516 -1.4268
  2684G12c C02149837   6.343   9.147   4.045 -0.3889  0.5327 -0.3056
  2684G12c C01L49838   6.095   8.851   3.857  0.2018 -0.9974  0.7687
  2684G12c O00749839   5.992   8.818   4.061 -1.2582  1.3914 -0.6620
  2684G12c C02249840   6.244   9.083   4.104 -0.2273 -1.0724  1.0267
  2684G12c C02349841   6.448   9.152   4.126 -1.4115  2.4759 -0.2322
  2684G12c C00G49842   6.643   9.126   4.299  0.6223  0.3538 -0.1927
  2684G12c C00E49843   6.740   9.069   4.524  1.4592  0.7349  0.5995
  2684G12c O00A49844   6.844   9.060   4.602 -1.2432  0.2951 -1.2669
  2684G12c C02449845   6.844   9.100   4.738 -0.5682  0.5284 -0.3781
  2684G12c H00V49846   6.833   9.208   4.728  3.2451  1.3734  3.1357
  2684G12c H00U49847   6.942   9.087   4.785 -1.7580  3.4874  3.1984
  2684G12c H00T49848   6.766   9.070   4.807 -4.1746  5.2453 -2.1426
  2694G12c C00D49849   1.881  12.595   6.347 -0.7567  0.2360  0.7237
  2694G12c O00B49850   1.834  12.725   6.319  0.2201 -0.6143 -0.3406
  2694G12c C02549851   1.916  12.835   6.303 -0.9502  2.0860  0.6625
  2694G12c C02649852   1.985  12.861   6.158  0.7969 -0.5417  0.4603
  2694G12c H00Y49853   1.975  12.761   6.117 -0.2840  0.0823 -0.8389
  2694G12c H00X49854   2.092  12.868   6.176  1.7745  8.6525 -5.5864
  2694G12c O00C49855   1.922  12.941   6.058 -0.2962 -0.7010  0.5937
  2694G12c H00W49856   1.830  12.918   6.060 -0.6761  0.6794 -0.2947
  2694G12c C02749857   1.949  12.905   6.407  1.6571 -0.2504  0.4858
  2694G12c O00D49858   1.903  12.855   6.532  0.4262 -0.6660 -0.2909
  2694G12c H00Z49859   1.880  12.763   6.527  0.5422 -0.8450  1.8165
  2694G12c C02849860   2.018  13.027   6.398  1.0605  1.1639  0.9213
  2694G12c C02949861   1.996  13.128   6.279  0.5367  1.0614  0.6730
  2694G12c H01049862   1.909  13.105   6.219  0.8980  2.0363 -0.2282
  2694G12c C02T49863   2.115  13.196   6.233  1.4481  1.7047 -0.1954
  2694G12c H01O49864   2.121  13.266   6.151  4.9035  0.8815 -0.7571
  2694G12c C02S49865   2.215  13.198   6.330  0.7266 -0.0580 -1.5474
  2694G12c O00J49866   2.342  13.232   6.301  1.1802 -0.4814  0.1697
  2694G12c H01P49867   2.406  13.225   6.370  1.7496  8.6964  1.1648
  2694G12c C02R49868   2.203  13.166   6.454 -1.1310  0.6631 -0.7235
  2694G12c O00I49869   2.309  13.182   6.525  0.0079  0.0832  1.2324
  2694G12c C02Q49870   2.295  13.259   6.665 -0.8117  1.0997  0.3719
  2694G12c H01N49871   2.391  13.299   6.634  2.5026 -4.6372  2.3536
  2694G12c H01R49872   2.299  13.184   6.745 -1.8465 -0.1991 -0.7685
  2694G12c H01Q49873   2.218  13.336   6.668 -5.0150 -2.9541  2.8565
  2694G12c C02A49874   2.118  13.056   6.487 -0.1721 -0.3263 -0.5057
  2694G12c H01149875   2.117  13.016   6.587  1.2376 -3.5177 -1.7055
  2694G12c C00C49876   1.778  12.504   6.332  1.1891  0.2358 -0.1456
  2694G12c H01249877   1.703  12.536   6.260 -2.0372 -6.3988 -0.1342
  2694G12c C00B49878   1.768  12.379   6.406 -1.0792  2.8403 -0.2301
  2694G12c C00A49879   1.645  12.290   6.405 -0.1469  0.4756 -0.9281
  2694G12c C00949880   1.507  12.335   6.406  0.7134  0.4008  0.9337
  2694G12c C00849881   1.461  12.460   6.425  0.4812 -1.2928  0.6720
  2694G12c H01349882   1.466  12.535   6.347 -3.6671 -2.8178 -1.2042
  2694G12c C00749883   1.319  12.464   6.445 -1.5856  0.8305 -1.4159
  2694G12c H01449884   1.303  12.571   6.443  4.0089  1.8092 -4.7069
  2694G12c C00649885   1.260  12.349   6.521  0.6105 -0.0352  0.2296
  2694G12c C00549886   1.327  12.217   6.534  0.0586 -1.5932 -0.4678
  2694G12c C00449887   1.285  12.119   6.630 -0.0200 -0.4460  1.5693
  2694G12c C00349888   1.380  12.023   6.662 -1.0417  0.2455 -0.0078
  2694G12c C00249889   1.349  11.934   6.774  0.6666  1.0050 -0.1375
  2694G12c C00149890   1.432  11.837   6.829  0.1688  0.4345  0.6482
  2694G12c C00M49891   1.566  11.842   6.859 -0.0774  1.0633 -0.8525
  2694G12c C00L49892   1.667  11.915   6.797 -1.9428 -0.8308 -0.3299
  2694G12c C00R49893   1.787  11.947   6.847 -0.4017 -0.7070 -2.0999
  2694G12c C00Q49894   1.861  11.919   6.971  0.5258  1.0480  1.3231
  2694G12c C00V49895   1.975  12.001   6.964  0.8584  0.4639 -2.3954
  2694G12c C00U49896   2.018  12.094   6.875  1.0334  0.0977  0.6099
  2694G12c C00T49897   1.943  12.111   6.757 -0.7816  0.3763 -1.8225
  2694G12c C01649898   1.966  12.199   6.650 -0.1255 -0.5504 -1.1871
  2694G12c C01549899   2.061  12.306   6.677  1.7803  0.0957 -0.7137
  2694G12c C01049900   2.155  12.274   6.786 -0.2597  1.7069  0.0687
  2694G12c C01149901   2.265  12.368   6.812 -0.5701  0.2234 -0.9070
  2694G12c H00549902   2.334  12.362   6.895 -1.8768  7.6808  1.0608
  2694G12c C01249903   2.299  12.456   6.707  1.2122 -0.6096  0.2375
  2694G12c C01749904   2.431  12.523   6.714 -1.0554 -2.1389  0.3125
  2694G12c O00249905   2.543  12.466   6.637  2.6516 -0.2935 -1.4628
  2694G12c H00449906   2.633  12.476   6.663  3.5155  0.0615 -4.3404
  2694G12c C01849907   2.431  12.650   6.769 -0.9829  1.7937 -0.1453
  2694G12c O00149908   2.334  12.691   6.837  0.1727  0.6621  0.5885
  2694G12c H00349909   2.298  12.623   6.892 -4.1924  1.7167 -0.7368
  2694G12c C01949910   2.527  12.764   6.771 -0.8285  0.1496  0.9098
  2694G12c H00249911   2.603  12.765   6.693 -1.6410  1.6998  0.1194
  2694G12c H00149912   2.486  12.864   6.784 -0.9650 -0.1941  3.3990
  2694G12c O00049913   2.570  12.759   6.902 -0.9207 -0.4595  0.0303
  2694G12c C01A49914   2.669  12.854   6.918 -0.2086  1.6439 -0.0025
  2694G12c C02K49915   2.793  12.823   6.870 -0.7993  0.3558  1.3139
  2694G12c O00G49916   2.820  12.705   6.822  0.3738 -0.4376  1.7740
  2694G12c C02M49917   2.948  12.681   6.763  1.1577  0.6944  0.5381
  2694G12c H01G49918   3.053  12.687   6.790  2.1945  0.8783 -3.1942
  2694G12c H01F49919   2.960  12.745   6.675  0.0648 -1.0344 -0.8820
  2694G12c H01E49920   2.956  12.580   6.725  2.0948  0.2958  1.7728
  2694G12c C02J49921   2.902  12.922   6.898 -0.3719 -1.3610  2.2578
  2694G12c H01H49922   3.007  12.931   6.873 -1.0259 -1.3986 -0.7549
  2694G12c C02I49923   2.868  13.049   6.965  1.2720 -0.1649 -0.0895
  2694G12c C02N49924   2.982  13.124   7.033  0.0444 -0.4261  0.2620
  2694G12c H01M49925   3.086  13.096   7.041  3.0405  7.9290 -3.4924
  2694G12c C02O49926   2.960  13.249   7.075  0.2490 -1.1826 -0.7375
  2694G12c H01L49927   2.866  13.295   7.099  3.4942  4.3856  2.4211
  2694G12c C02P49928   3.067  13.349   7.134  1.8808  0.8972 -0.9554
  2694G12c H01K49929   3.096  13.413   7.051  0.3722 -1.2548 -3.2041
  2694G12c H01J49930   3.026  13.422   7.204 -2.3737  0.3333 -2.7039
  2694G12c O00H49931   3.200  13.296   7.190  0.4393 -0.3097  0.0041
  2694G12c H01I49932   3.254  13.373   7.203  2.6468 -1.6177 -1.0531
  2694G12c C02H49933   2.737  13.095   6.963  0.7950  0.4008  1.8101
  2694G12c H01C49934   2.704  13.197   6.971 -6.8420 -1.2013 -3.5434
  2694G12c C02L49935   2.647  12.993   6.953 -0.8033 -1.2518 -1.2496
  2694G12c H01D49936   2.544  13.021   6.972  0.7171  3.8981  0.0146
  2694G12c C01349937   2.220  12.453   6.578  0.0770 -0.9068 -1.6882
  2694G12c H00049938   2.274  12.506   6.501  3.2412 -0.0479  1.0064
  2694G12c C01449939   2.095  12.377   6.574  0.6296  1.6305 -0.4641
  2694G12c C00F49940   1.997  12.415   6.485  0.3898  0.5869 -0.9063
  2694G12c C00H49941   1.884  12.219   6.552  1.1924 -0.1766 -0.3538
  2694G12c C00I49942   1.776  12.133   6.542 -1.1989 -1.4242  0.1598
  2694G12c C00J49943   1.754  12.038   6.643 -0.5767 -1.5466  0.6871
  2694G12c C00Z49944   2.134  12.173   6.886 -0.7700 -1.4218 -0.1747
  2694G12c C00Y49945   2.216  12.171   7.003  0.2530 -0.7860 -1.5257
  2694G12c H00649946   2.301  12.232   7.031 -0.7830  1.1125 -2.3811
  2694G12c C00X49947   2.172  12.076   7.105  0.1166 -0.8889 -0.0484
  2694G12c O00349948   2.245  12.083   7.226 -0.4830 -0.9607  1.0996
  2694G12c C01B49949   2.176  12.170   7.322 -1.1048 -2.0962 -0.0578
  2694G12c H00949950   2.169  12.274   7.289  0.8193 -0.5175  4.1907
  2694G12c H00849951   2.114  12.157   7.411  0.7808  3.8004  2.4042
  2694G12c H00749952   2.271  12.186   7.373 -2.0458 -2.2997  1.7905
  2694G12c C00W49953   2.048  12.001   7.082  0.5339  0.1234 -1.6896
  2694G12c O00449954   2.035  11.912   7.182  0.4662 -1.2883 -0.0780
  2694G12c C01C49955   1.949  11.802   7.160 -0.4783 -0.8096 -0.3506
  2694G12c H00A49956   1.978  11.699   7.171 -0.0146 -1.1006 -3.8814
  2694G12c C00P49957   1.829  11.828   7.079 -0.1262  0.1613 -0.6004
  2694G12c C00O49958   1.685  11.795   7.101 -1.9435 -0.5565  1.5870
  2694G12c C01D49959   1.650  11.785   7.249  1.3567 -1.3995 -0.4039
  2694G12c H00S49960   1.730  11.784   7.321  2.2517  2.8749 -1.2044
  2694G12c C01E49961   1.512  11.817   7.276 -0.2362  1.1203 -0.2626
  2694G12c O00849962   1.475  11.877   7.401 -0.4329 -1.1949  0.1278
  2694G12c C01V49963   1.554  11.987   7.429  0.4770 -0.3644  0.0256
  2694G12c C01Z49964   1.488  12.129   7.411  3.0264 -0.5004  0.5356
  2694G12c H00R49965   1.428  12.177   7.488 -3.1889  0.7733 -4.6976
  2694G12c H00Q49966   1.561  12.208   7.394  0.4267  1.4079 -2.1894
  2694G12c O00949967   1.414  12.120   7.297  0.6177 -0.8770 -0.0383
  2694G12c H00P49968   1.362  12.042   7.286 -5.5686  2.9492 -0.5107
  2694G12c C01W49969   1.668  11.955   7.498 -0.8318  0.8179  0.2942
  2694G12c H00O49970   1.700  11.852   7.494 -1.2580  0.7057 -0.2803
  2694G12c C01X49971   1.769  12.063   7.557 -0.4555  0.3130  0.6089
  2694G12c H00N49972   1.859  12.107   7.514 -3.4176  0.7431 -5.7756
  2694G12c H00M49973   1.697  12.142   7.576 -0.2227  2.0601 -4.8231
  2694G12c C01Y49974   1.802  12.036   7.702 -0.8513 -0.0258  0.5760
  2694G12c C02D49975   1.939  11.999   7.742 -0.6539 -1.0114 -1.5573
  2694G12c H01949976   2.008  11.979   7.661 -2.7929 -2.6529 -3.0575
  2694G12c C02C49977   1.962  11.981   7.876 -0.0759 -1.8379  0.7069
  2694G12c H01A49978   2.063  11.970   7.915  2.4795  3.6431 -3.7235
  2694G12c C02B49979   1.862  11.996   7.976  1.7564 -1.0964 -0.1968
  2694G12c O00E49980   1.888  11.968   8.109  0.5259 -0.2032 -0.0450
  2694G12c H01B49981   1.896  12.049   8.158 -5.1762  0.6932 -0.1483
  2694G12c C02F49982   1.738  12.071   7.952  0.5135  0.8008 -0.3692
  2694G12c O00F49983   1.643  12.055   8.061 -0.9394  0.4059  0.2709
  2694G12c C02G49984   1.516  12.001   8.019 -2.0784  0.9403  0.6614
  2694G12c H01749985   1.551  11.898   8.033  1.5417  1.7061 -1.9852
  2694G12c H01649986   1.493  11.998   7.913  4.4667  0.4612 -0.9596
  2694G12c H01549987   1.450  11.987   8.105  1.9951 -0.3143  3.7638
  2694G12c C02E49988   1.722  12.093   7.812 -0.4153 -1.2573  0.7840
  2694G12c H01849989   1.631  12.151   7.808 -1.1589 -2.2161 -8.0472
  2694G12c C01F49990   1.413  11.811   7.183 -0.8831 -1.2816 -1.6392
  2694G12c C01G49991   1.280  11.856   7.212  0.0748 -0.0289 -1.6004
  2694G12c H00L49992   1.242  11.843   7.312  4.9178  1.0043  0.4705
  2694G12c C01H49993   1.205  11.918   7.108  0.6692  1.6196  0.3260
  2694G12c H00B49994   1.105  11.940   7.141 -1.0915 -2.0672 -2.1851
  2694G12c C01I49995   1.241  11.891   6.973  0.2436 -0.8107 -1.8432
  2694G12c C01U49996   1.441  11.779   7.043 -0.0204  0.8454 -0.9656
  2694G12c C00S49997   1.850  12.010   6.742  0.6218 -0.1027  0.4829
  2694G12c C00K49998   1.634  11.979   6.680  0.4769 -0.9488 -2.0364
  2694G12c C00N49999   1.575  11.800   7.002 -0.8826  0.2708 -0.4537
  2694G12c C00050000   1.361  11.811   6.949  0.5851 -0.4347 -1.4191
  2694G12c C01J50001   1.233  11.962   6.855 -0.6047 -0.3491 -2.2749
  2694G12c C01K50002   1.139  12.082   6.844 -1.4368  0.9654  1.1342
  2694G12c C01P50003   1.019  12.124   6.896  0.5421 -0.0935 -2.3198
  2694G12c C01Q50004   0.952  12.051   7.002  1.0565  0.0715  2.4763
  2694G12c H00G50005   0.933  11.944   7.006  5.0582 -1.5375 -7.3688
  2694G12c C01R50006   0.887  12.137   7.095  1.5457 -0.7295 -0.6890
  2694G12c H00F50007   0.899  12.244   7.088 -1.6160 -0.4096 -1.7998
  2694G12c C01S50008   0.758  12.081   7.167  0.8067 -0.0223 -0.5303
  2694G12c H00E50009   0.792  12.115   7.265 -2.0665  0.9898  0.1619
  2694G12c H00D50010   0.667  12.111   7.116 -0.7194 -4.9799 -0.9202
  2694G12c O00550011   0.766  11.957   7.222  0.2663  0.4770 -0.1076
  2694G12c H00C50012   0.682  11.922   7.197  1.1138 -5.4509  4.2174
  2694G12c C01O50013   0.953  12.248   6.861 -1.4695  1.4536  1.5601
  2694G12c H00H50014   0.848  12.250   6.883 -2.3821  1.2145 -2.3205
  2694G12c C01N50015   1.006  12.324   6.768 -0.4450  0.6849  1.3048
  2694G12c O00650016   0.943  12.437   6.727  0.2183 -0.8030  1.7845
  2694G12c C01T50017   0.799  12.452   6.715  0.9119  0.5318  1.9566
  2694G12c H00K50018   0.769  12.435   6.611 -2.6218 -1.6201  3.2445
  2694G12c H00J50019   0.747  12.377   6.774  0.4327  2.7249  4.4096
  2694G12c H00I50020   0.773  12.545   6.765 -1.5389 -0.6196  2.8955
  2694G12c C01M50021   1.124  12.281   6.703  0.5652  0.2205 -0.2509
  2694G12c C02050022   1.521  12.021   6.609  1.3684  1.2611  2.6378
  2694G12c C02150023   1.550  12.110   6.503 -2.2457 -0.4005  0.4115
  2694G12c C01L50024   1.193  12.153   6.731 -0.3480  0.2353  0.6175
  2694G12c O00750025   1.161  12.370   6.607 -0.5132  0.3026 -0.1786
  2694G12c C02250026   1.453  12.213   6.470  2.4160 -0.3962 -1.1595
  2694G12c C02350027   1.670  12.170   6.463 -0.8778  0.0577  0.4324
  2694G12c C00G50028   1.882  12.336   6.476  2.7233  1.9320  0.3323
  2694G12c C00E50029   1.994  12.550   6.422 -0.6393  0.5072  1.2620
  2694G12c O00A50030   2.086  12.647   6.439  0.5406  0.4926 -0.5730
  2694G12c C02450031   2.162  12.669   6.318 -0.0667 -0.3208 -0.0745
  2694G12c H00V50032   2.194  12.772   6.302  5.9837 -2.8287 -7.3352
  2694G12c H00U50033   2.099  12.670   6.229 -4.4948 -2.1724  2.9098
  2694G12c H00T50034   2.262  12.639   6.286 -0.4462 -5.6358  3.1506
  2704G12c C00D50035  12.429   4.142  10.115  0.2458 -1.2384 -0.1123
  2704G12c O00B50036  12.352   4.181  10.010 -1.7335 -0.1038  0.3706
  2704G12c C02550037  12.222   4.208  10.028 -0.7460 -0.2025 -0.5132
  2704G12c C02650038  12.186   4.351  10.039  0.2898 -0.5573  0.9489
  2704G12c H00Y50039  12.110   4.371   9.963  1.8776 -2.8832 -1.2974
  2704G12c H00X50040  12.278   4.410  10.036  0.2316 -0.5600 -1.4728
  2704G12c O00C50041  12.154   4.414  10.145  0.2266  0.3992 -1.5134
  2704G12c H00W50042  12.199   4.491  10.116  0.5902  1.2158  1.0564
  2704G12c C02750043  12.132   4.108  10.049  0.9139  0.0155  0.6148
  2704G12c O00D50044  12.123   3.972  10.038  0.5548 -0.7590 -0.5931
  2704G12c H00Z50045  12.095   3.954  10.127 -0.3793  2.0238 -0.2739
  2704G12c C02850046  12.005   4.137  10.109  0.4072  0.3066  1.2909
  2704G12c C02950047  11.875   4.105  10.043 -1.1061  0.8779  1.4853
  2704G12c H01050048  11.886   4.088   9.937  0.5786 -0.3330  1.8272
  2704G12c C02T50049  11.743   4.120  10.113 -0.7752  0.7756  0.0851
  2704G12c H01O50050  11.641   4.126  10.077 -2.2130  5.3103  4.2599
  2704G12c C02S50051  11.750   4.204  10.220 -0.4265 -0.3116 -0.0798
  2704G12c O00J50052  11.645   4.202  10.313 -0.0876 -1.3605  0.7587
  2704G12c H01P50053  11.691   4.255  10.376  2.5456  8.0131 -7.7225
  2704G12c C02R50054  11.870   4.250  10.287  0.5510  1.8565  2.9903
  2704G12c O00I50055  11.841   4.336  10.389 -0.5934 -1.1595 -0.1274
  2704G12c C02Q50056  11.927   4.330  10.501 -0.5562  1.3088  0.3789
  2704G12c H01N50057  12.033   4.305  10.495 -2.2235 -9.2968  4.1227
  2704G12c H01R50058  11.875   4.269  10.575  1.5761 -1.5102 -0.3573
  2704G12c H01Q50059  11.917   4.438  10.511  2.5040  1.5381  1.4677
  2704G12c C02A50060  11.993   4.212  10.224 -0.2582  0.2386  0.1413
  2704G12c H01150061  12.075   4.246  10.285  2.6411 -1.7794 -2.4395
  2704G12c C00C50062  12.380   4.085  10.235  0.2312 -1.0205 -1.7322
  2704G12c H01250063  12.273   4.072  10.249  0.2389  3.1010  3.5708
  2704G12c C00B50064  12.455   4.032  10.334 -0.4810  0.7483 -0.7676
  2704G12c C00A50065  12.418   3.931  10.433  1.0002 -1.3289 -0.3087
  2704G12c C00950066  12.317   3.938  10.540  0.7188 -0.5555 -0.3522
  2704G12c C00850067  12.245   4.054  10.603 -1.1658  1.9292 -0.1212
  2704G12c H01350068  12.252   4.155  10.565  6.6962  1.4729 -0.7579
  2704G12c C00750069  12.198   4.070  10.732  0.7612  1.7446 -1.2480
  2704G12c H01450070  12.159   4.164  10.768 -0.6946  0.4660  0.6314
  2704G12c C00650071  12.231   3.964  10.816 -3.0301  0.3324  0.8940
  2704G12c C00550072  12.294   3.848  10.756 -0.3878  0.0889  0.1806
  2704G12c C00450073  12.361   3.749  10.849  0.3810 -0.0498 -0.1075
  2704G12c C00350074  12.486   3.680  10.801 -0.0506  0.3949  0.9824
  2704G12c C00250075  12.563   3.595  10.905  0.7925 -0.3187 -0.9194
  2704G12c C00150076  12.696   3.556  10.923 -0.3191  0.3743 -1.1521
  2704G12c C00M50077  12.813   3.627  10.872 -0.1548  0.1795  0.3445
  2704G12c C00L50078  12.802   3.721  10.761 -0.7630  2.7659  1.1835
  2704G12c C00R50079  12.910   3.789  10.702 -0.5726  0.3637 -0.0669
  2704G12c C00Q50080  13.043   3.838  10.741 -0.4690  1.5054 -0.9066
  2704G12c C00V50081  13.096   3.937  10.650  1.9170 -2.1504  2.3947
  2704G12c C00U50082  13.026   3.991  10.534 -0.0448 -0.1563  0.8762
  2704G12c C00T50083  12.906   3.933  10.491 -0.0905  0.4664 -0.5874
  2704G12c C01650084  12.828   3.974  10.388  0.6991  0.7502 -1.1823
  2704G12c C01550085  12.869   4.077  10.311 -0.0118 -0.5035 -1.3456
  2704G12c C01050086  12.994   4.134  10.345  1.4333 -0.7143 -0.5535
  2704G12c C01150087  13.049   4.235  10.257  1.3787 -0.0860  1.0931
  2704G12c H00550088  13.146   4.273  10.287  1.9153  4.4384 -5.3742
  2704G12c C01250089  12.980   4.286  10.153  0.6801  0.3150  1.7043
  2704G12c C01750090  13.035   4.380  10.052 -1.0861  0.4088  0.3072
  2704G12c O00250091  12.951   4.407   9.948  1.3305 -0.2023 -0.1899
  2704G12c H00450092  12.892   4.333   9.956  1.8513 -0.8867 -2.3802
  2704G12c C01850093  13.166   4.419  10.058 -1.1766  0.4986  0.2122
  2704G12c O00150094  13.257   4.369  10.154 -0.0518 -1.1366  0.6300
  2704G12c H00350095  13.315   4.311  10.105  0.9574 -3.2846  4.1739
  2704G12c C01950096  13.220   4.521   9.961  0.0321 -0.0271  0.3886
  2704G12c H00250097  13.170   4.500   9.866  0.5951  0.9155 -0.1241
  2704G12c H00150098  13.154   4.607   9.966 -4.3085 -3.0865 -1.0938
  2704G12c O00050099  13.366   4.538   9.984  0.1077  0.2090  0.0550
  2704G12c C01A50100  13.398   4.645   9.903  0.8539 -0.3331  1.0568
  2704G12c C02K50101  13.422   4.763   9.965 -0.5298 -0.3942  2.1002
  2704G12c O00G50102  13.417   4.785  10.102 -0.5513 -0.2810  0.2565
  2704G12c C02M50103  13.479   4.902  10.149  1.4866  0.1321 -0.1238
  2704G12c H01G50104  13.428   4.992  10.115  2.6151  0.6360 -0.4945
  2704G12c H01F50105  13.455   4.918  10.255  5.7455 -3.0188  1.4295
  2704G12c H01E50106  13.586   4.922  10.160  2.0431 -3.2210  0.9718
  2704G12c C02J50107  13.479   4.867   9.882 -0.5448 -1.2126  0.4588
  2704G12c H01H50108  13.484   4.963   9.931 -0.7588 -1.1193  0.3016
  2704G12c C02I50109  13.482   4.851   9.742  1.3192  0.2487  0.1112
  2704G12c C02N50110  13.497   4.955   9.664  2.3188  0.4568 -0.6066
  2704G12c H01M50111  13.435   4.968   9.576 -1.6424  2.9683  2.3983
  2704G12c C02O50112  13.572   5.063   9.707  0.6563  1.4704 -0.0301
  2704G12c H01L50113  13.652   5.053   9.779  2.9507 -3.1171 -2.9785
  2704G12c C02P50114  13.596   5.196   9.655  1.1993 -0.9296 -0.3877
  2704G12c H01K50115  13.699   5.214   9.686  1.8216 -3.6596 -0.7521
  2704G12c H01J50116  13.579   5.211   9.549 -4.1274  3.8739  0.9132
  2704G12c O00H50117  13.516   5.289   9.735 -0.3017 -0.6287  0.1932
  2704G12c H01I50118  13.455   5.234   9.782  1.7880  1.1908  5.4120
  2704G12c C02H50119  13.447   4.722   9.682  1.2531 -1.8066 -1.0548
  2704G12c H01C50120  13.464   4.700   9.578  8.7287  5.5402 -2.0033
  2704G12c C02L50121  13.422   4.617   9.770  0.0516 -2.7297 -0.0893
  2704G12c H01D50122  13.436   4.517   9.732 -7.0204 -3.9161 -0.2444
  2704G12c C01350123  12.837   4.246  10.144  0.0785  2.3290  0.8173
  2704G12c H00050124  12.770   4.278  10.065 -3.0375 -3.0271  1.0271
  2704G12c C01450125  12.786   4.147  10.230  0.1595 -0.2237  1.0865
  2704G12c C00F50126  12.646   4.112  10.219 -0.1249 -0.4486  2.1317
  2704G12c C00H50127  12.694   3.953  10.393  0.1419 -1.5977  0.9739
  2704G12c C00I50128  12.654   3.843  10.471  1.1843  1.6866 -0.0714
  2704G12c C00J50129  12.730   3.785  10.551 -1.1046 -1.6697  0.2464
  2704G12c C00Z50130  13.055   4.111  10.473  1.1088 -1.0610 -0.6520
  2704G12c C00Y50131  13.162   4.199  10.523 -0.6417 -0.0692 -0.6709
  2704G12c H00650132  13.187   4.294  10.478  3.5511 -0.4508  0.6692
  2704G12c C00X50133  13.222   4.174  10.655  2.9028  0.8850  3.5813
  2704G12c O00350134  13.295   4.285  10.703  0.1169 -0.2485 -0.6905
  2704G12c C01B50135  13.279   4.308  10.851 -1.5677  0.5586  1.1262
  2704G12c H00950136  13.214   4.393  10.870  2.0517  3.0938  2.7304
  2704G12c H00850137  13.378   4.333  10.886  2.8177 -4.2483 -6.3426
  2704G12c H00750138  13.261   4.212  10.901  0.4278 -1.5644 -2.0294
  2704G12c C00W50139  13.187   4.045  10.710 -0.9261  0.5251  0.3779
  2704G12c O00450140  13.245   3.997  10.830  0.6635  0.7472  1.4338
  2704G12c C01C50141  13.231   3.882  10.896  2.3599 -1.6787 -0.4266
  2704G12c H00A50142  13.289   3.870  10.986  0.9730 -0.6783  0.6139
  2704G12c C00P50143  13.092   3.830  10.874  1.0291  1.0795 -2.0569
  2704G12c C00O50144  13.023   3.755  10.980 -0.0216  1.0564 -0.4226
  2704G12c C01D50145  13.044   3.803  11.112 -0.7347 -0.1467  0.9485
  2704G12c H00S50146  13.116   3.883  11.120 -0.1046 -0.4353 -1.4663
  2704G12c C01E50147  12.979   3.767  11.228  0.3708  1.8383  0.9159
  2704G12c O00850148  13.016   3.819  11.342 -0.0649  0.2955 -0.3396
  2704G12c C01V50149  13.107   3.730  11.410 -0.4269  0.9807  1.0471
  2704G12c C01Z50150  13.206   3.639  11.322  0.5523 -0.0477  0.3004
  2704G12c H00R50151  13.154   3.600  11.234 -3.8827  4.8215  0.5119
  2704G12c H00Q50152  13.294   3.683  11.276  2.3198  1.0288  4.5440
  2704G12c O00950153  13.310   3.620  11.420  0.6025  0.0971  0.2001
  2704G12c H00P50154  13.347   3.707  11.419  1.3956 -0.1724  2.4244
  2704G12c C01W50155  13.057   3.698  11.525 -2.0783 -1.0149 -1.5154
  2704G12c H00O50156  13.098   3.604  11.560  4.1221  2.1054  0.3020
  2704G12c C01X50157  12.976   3.778  11.620 -0.7911 -0.0389  1.5005
  2704G12c H00N50158  12.995   3.801  11.725 -3.1965  2.8332  1.3784
  2704G12c H00M50159  13.004   3.882  11.602  0.4086  0.2016  4.4751
  2704G12c C01Y50160  12.829   3.731  11.648  0.6896 -0.5914 -0.3918
  2704G12c C02D50161  12.732   3.810  11.669  1.5114 -0.2275  2.4397
  2704G12c H01950162  12.735   3.918  11.657 -3.1751  0.2617  4.5569
  2704G12c C02C50163  12.598   3.779  11.665 -0.5041 -1.2492 -0.4540
  2704G12c H01A50164  12.522   3.855  11.676 -2.6293 -2.8160 -3.5911
  2704G12c C02B50165  12.577   3.643  11.655  0.1070  0.1849  0.4726
  2704G12c O00E50166  12.449   3.593  11.651 -0.7693  2.3026 -0.1377
  2704G12c H01B50167  12.455   3.518  11.708  0.2966  3.5840  1.5039
  2704G12c C02F50168  12.686   3.553  11.622 -0.5319  0.0148  0.3687
  2704G12c O00F50169  12.649   3.432  11.619  0.0161  0.1813  2.1694
  2704G12c C02G50170  12.582   3.370  11.521 -1.6200  2.0629  0.5620
  2704G12c H01750171  12.591   3.263  11.503  1.0841  2.4900 -0.7838
  2704G12c H01650172  12.473   3.374  11.512 -2.0591 -1.1214  3.4687
  2704G12c H01550173  12.609   3.402  11.420  1.5987 -3.1616 -0.4035
  2704G12c C02E50174  12.803   3.599  11.604 -0.4115 -0.1997 -2.8559
  2704G12c H01850175  12.862   3.548  11.530  1.6303  0.9885 -2.0865
  2704G12c C01F50176  12.861   3.690  11.199 -1.0770 -0.7543  2.2413
  2704G12c C01G50177  12.753   3.694  11.300 -2.5459 -0.6493  1.0371
  2704G12c H00L50178  12.797   3.740  11.387 -2.3721 -3.9710  2.7751
  2704G12c C01H50179  12.627   3.642  11.280 -2.4911 -1.2261 -0.8372
  2704G12c H00B50180  12.555   3.663  11.358  1.1254 -3.3372  3.3429
  2704G12c C01I50181  12.616   3.584  11.142  0.4233  1.8355  0.6589
  2704G12c C01U50182  12.844   3.624  11.078  0.7727 -1.3215 -0.4264
  2704G12c C00S50183  12.861   3.832  10.570  0.4533 -0.2627 -0.7742
  2704G12c C00K50184  12.685   3.719  10.669 -0.6235 -0.2124  0.4360
  2704G12c C00N50185  12.905   3.670  10.975 -0.4136 -0.3524 -0.3695
  2704G12c C00050186  12.724   3.555  11.056 -0.8983 -1.1304 -0.3848
  2704G12c C01J50187  12.512   3.615  11.043  0.2959  0.9601 -0.4167
  2704G12c C01K50188  12.380   3.663  11.069  2.1726  0.8427 -0.6888
  2704G12c C01P50189  12.299   3.649  11.188  0.1262 -2.0880 -0.0107
  2704G12c C01Q50190  12.328   3.545  11.284  0.2058  1.6595 -1.9364
  2704G12c H00G50191  12.414   3.534  11.347  1.6582 -0.1863 -4.1500
  2704G12c C01R50192  12.272   3.431  11.217 -0.8961  0.7327 -0.8809
  2704G12c H00F50193  12.176   3.433  11.168 -1.0742  0.1174 -0.5633
  2704G12c C01S50194  12.319   3.276  11.221 -0.6136 -0.1493 -0.2656
  2704G12c H00E50195  12.279   3.206  11.294 -2.4816 -1.1734 -2.1932
  2704G12c H00D50196  12.288   3.255  11.119 -0.1496  4.2823 -1.4440
  2704G12c O00550197  12.459   3.282  11.249  1.0557 -0.5021 -1.2785
  2704G12c H00C50198  12.473   3.376  11.244  0.1709 -0.0766  2.6518
  2704G12c C01O50199  12.221   3.761  11.231 -0.0552 -0.0470  0.5132
  2704G12c H00H50200  12.171   3.756  11.327  6.2936 -3.3008  4.0014
  2704G12c C01N50201  12.211   3.883  11.157  1.8532  2.3571  1.5565
  2704G12c O00650202  12.126   3.982  11.202 -0.9496  1.0596  0.6822
  2704G12c C01T50203  12.153   4.034  11.322  1.0837 -0.9807 -0.6760
  2704G12c H00K50204  12.062   4.073  11.366  0.8958 -1.5989 -0.5070
  2704G12c H00J50205  12.247   4.087  11.303  1.5857  2.1489  8.4007
  2704G12c H00I50206  12.188   3.949  11.381 -3.0382 -2.5742 -0.3565
  2704G12c C01M50207  12.257   3.870  11.028  0.4175  0.5446 -0.7049
  2704G12c C02050208  12.539   3.704  10.675  0.6357  0.8227 -1.5596
  2704G12c C02150209  12.451   3.763  10.583  1.2806  0.5234 -2.4262
  2704G12c C01L50210  12.334   3.751  10.979  0.8846 -1.8386 -1.1358
  2704G12c O00750211  12.212   3.977  10.951  0.9350  0.1602  0.9100
  2704G12c C02250212  12.330   3.820  10.615 -1.9315  0.1072 -1.0550
  2704G12c C02350213  12.510   3.844  10.482 -0.4846  0.4897  0.2980
  2704G12c C00G50214  12.600   4.037  10.320  0.7926  1.0564  0.6512
  2704G12c C00E50215  12.573   4.140  10.101 -0.6675 -0.6874 -0.3556
  2704G12c O00A50216  12.624   4.190   9.985 -0.7864 -1.5088 -1.4436
  2704G12c C02450217  12.606   4.118   9.873 -0.8646 -0.0757  1.7133
  2704G12c H00V50218  12.499   4.123   9.854 -0.7578 -3.6124 -0.3472
  2704G12c H00U50219  12.656   4.023   9.893 -4.6352 -2.7847 -0.9776
  2704G12c H00T50220  12.635   4.147   9.772  1.5145 -0.4045  2.2628
  2714G12c C00D50221   1.315   4.747  10.276  0.2587  1.0529  0.0282
  2714G12c O00B50222   1.256   4.829  10.182  0.6831 -0.4367 -0.3092
  2714G12c C02550223   1.278   4.969  10.216 -0.0726 -1.1519 -0.3270
  2714G12c C02650224   1.407   5.041  10.162  0.0777  0.0708  0.4720
  2714G12c H00Y50225   1.408   5.049  10.053  0.4768  2.4377  0.6248
  2714G12c H00X50226   1.495   4.981  10.184  4.6062  4.6821 -3.9995
  2714G12c O00C50227   1.441   5.153  10.228  0.4629 -0.5288 -1.5645
  2714G12c H00W50228   1.431   5.219  10.161  1.8342  0.0901 -1.1698
  2714G12c C02750229   1.169   5.043  10.257 -0.4770 -0.3656  1.7789
  2714G12c O00D50230   1.040   4.998  10.306 -0.1810  0.1432 -0.8328
  2714G12c H00Z50231   1.058   4.910  10.333 -3.2936 -0.9996 -2.2720
  2714G12c C02850232   1.170   5.182  10.243  0.2956  0.0142  0.7225
  2714G12c C02950233   1.132   5.251  10.124  1.2638  0.4877 -0.3092
  2714G12c H01050234   1.123   5.182  10.042  2.1797 -4.4427  3.4613
  2714G12c C02T50235   1.130   5.383  10.123  0.2100 -0.8985  0.3005
  2714G12c H01O50236   1.107   5.419  10.023 -3.8099 -3.8029  0.0800
  2714G12c C02S50237   1.142   5.469  10.236  0.4248  0.5872  0.3287
  2714G12c O00J50238   1.146   5.600  10.211  2.4450  0.4799  0.3095
  2714G12c H01P50239   1.170   5.625  10.299  1.1186 -1.5624  1.2776
  2714G12c C02R50240   1.139   5.399  10.355 -1.3810 -1.0838 -0.0580
  2714G12c O00I50241   1.116   5.472  10.480 -0.0118  1.1223 -0.3336
  2714G12c C02Q50242   1.046   5.413  10.586  1.2892 -1.0685 -0.5824
  2714G12c H01N50243   1.097   5.328  10.630  3.2212  2.3204  4.1073
  2714G12c H01R50244   0.958   5.393  10.526 -1.8844  6.1509  1.1894
  2714G12c H01Q50245   1.010   5.490  10.654  1.6617  1.2345 -2.9061
  2714G12c C02A50246   1.174   5.268  10.362  0.0211 -0.6666  0.5211
  2714G12c H01150247   1.183   5.215  10.456 -1.9711 -3.0242 -0.5578
  2714G12c C00C50248   1.442   4.693  10.244 -0.0767 -1.3843  0.6140
  2714G12c H01250249   1.477   4.722  10.145  2.6935  2.1734  2.5188
  2714G12c C00B50250   1.494   4.619  10.351  0.0517 -1.6171 -0.2895
  2714G12c C00A50251   1.609   4.527  10.347 -0.2867 -0.1431 -1.3724
  2714G12c C00950252   1.652   4.446  10.246  0.5658 -1.1356 -1.9610
  2714G12c C00850253   1.648   4.399  10.115 -0.2409  0.7012  0.4509
  2714G12c H01350254   1.589   4.459  10.048  3.7429  0.3468 -3.6652
  2714G12c C00750255   1.706   4.282  10.055 -0.5020 -1.1905  0.6685
  2714G12c H01450256   1.685   4.265   9.951 -5.2954 -2.5565  1.7695
  2714G12c C00650257   1.789   4.194  10.134  2.9332  0.4205 -1.0158
  2714G12c C00550258   1.831   4.261  10.245 -0.7835 -0.1522 -0.9127
  2714G12c C00450259   1.920   4.196  10.340 -0.7274 -2.3167 -0.0935
  2714G12c C00350260   1.937   4.265  10.467  0.2492 -0.8292  0.5527
  2714G12c C00250261   2.030   4.201  10.552  0.1799 -1.3349 -0.4745
  2714G12c C00150262   2.045   4.201  10.696 -1.3187  0.4183 -1.1073
  2714G12c C00M50263   1.954   4.222  10.793  1.4539  0.1027 -0.1450
  2714G12c C00L50264   1.862   4.341  10.785  0.0284 -0.7927 -1.1214
  2714G12c C00R50265   1.742   4.340  10.859 -1.1011  0.5813 -0.3176
  2714G12c C00Q50266   1.684   4.254  10.957 -0.0028 -1.6273  0.6305
  2714G12c C00V50267   1.552   4.302  10.979  0.5718 -0.4612  0.3007
  2714G12c C00U50268   1.474   4.394  10.906 -0.9086 -0.5951  2.0964
  2714G12c C00T50269   1.533   4.453  10.795  0.5474  0.4803 -0.0369
  2714G12c C01650270   1.463   4.534  10.703 -2.0949 -0.6693  0.2627
  2714G12c C01550271   1.323   4.554  10.718 -0.1606 -1.2068 -0.0705
  2714G12c C01050272   1.278   4.520  10.852 -0.6506  0.4191 -0.7215
  2714G12c C01150273   1.151   4.562  10.880  1.8134  0.5039  1.0151
  2714G12c H00550274   1.102   4.516  10.965 -1.4870  1.8414 -0.0836
  2714G12c C01250275   1.082   4.632  10.786  2.3116  0.1402  1.7003
  2714G12c C01750276   0.955   4.680  10.808 -1.5419 -0.6642  0.4368
  2714G12c O00250277   0.855   4.580  10.826  0.8485 -0.9344 -0.2582
  2714G12c H00450278   0.763   4.586  10.847  1.0781 -7.3414  4.1220
  2714G12c C01850279   0.924   4.810  10.851  0.0131  0.2622  0.1601
  2714G12c O00150280   0.787   4.833  10.863 -0.8012 -0.2790  0.5844
  2714G12c H00350281   0.781   4.891  10.788 -7.1203 -3.9609 -2.1811
  2714G12c C01950282   1.016   4.926  10.876  0.0949 -0.6336 -0.8779
  2714G12c H00250283   0.978   4.978  10.964  0.9356 -5.3008  2.4425
  2714G12c H00150284   1.105   4.877  10.913 -1.3045 -0.5829  2.8199
  2714G12c O00050285   1.060   5.006  10.741  0.1166 -0.6324  0.4703
  2714G12c C01A50286   1.191   5.030  10.736 -0.3031 -0.2567  0.2550
  2714G12c C02K50287   1.256   5.116  10.835  0.3915 -0.6446 -1.3899
  2714G12c O00G50288   1.220   5.159  10.961 -0.2666  0.0321  1.0146
  2714G12c C02M50289   1.102   5.233  10.965  1.8179 -0.1413 -1.4215
  2714G12c H01G50290   1.068   5.275  11.059  1.7736 -1.3675 -0.8834
  2714G12c H01F50291   1.130   5.296  10.880  2.0566 -2.1078 -2.8226
  2714G12c H01E50292   1.012   5.176  10.945  2.3053 -0.1078 -3.9493
  2714G12c C02J50293   1.387   5.156  10.821  0.3027  0.1799 -0.0630
  2714G12c H01H50294   1.412   5.187  10.921  0.9631  0.9340 -0.4578
  2714G12c C02I50295   1.476   5.122  10.711  1.0413 -1.7631 -0.0521
  2714G12c C02N50296   1.603   5.175  10.666 -0.2443 -0.9542  0.1820
  2714G12c H01M50297   1.657   5.183  10.573 -4.1653 -4.3073 -2.5439
  2714G12c C02O50298   1.662   5.267  10.737  0.3044  1.7370  0.6150
  2714G12c H01L50299   1.635   5.311  10.832 -0.3135  2.7914 -0.0435
  2714G12c C02P50300   1.797   5.326  10.702 -0.9600 -1.5189  0.1248
  2714G12c H01K50301   1.867   5.367  10.775 -3.8914  2.9919  0.5471
  2714G12c H01J50302   1.849   5.251  10.641 -3.0901 -5.0860  2.4753
  2714G12c O00H50303   1.764   5.426  10.603  0.6186  0.1658 -0.2570
  2714G12c H01I50304   1.704   5.485  10.646 -4.3466 -3.0961 -2.3833
  2714G12c C02H50305   1.393   5.069  10.598 -1.8158 -0.0775  0.6128
  2714G12c H01C50306   1.423   5.049  10.496 -1.1353 -0.1126  0.8166
  2714G12c C02L50307   1.250   5.053  10.603  0.5512 -0.4075  0.0833
  2714G12c H01D50308   1.190   5.025  10.518 -2.1659 -3.5188  2.8812
  2714G12c C01350309   1.111   4.643  10.652  0.0310 -0.6559  0.8482
  2714G12c H00050310   1.046   4.684  10.576 -0.0677 -3.0401 -0.3983
  2714G12c C01450311   1.251   4.624  10.619 -0.6650 -0.2831 -0.5217
  2714G12c C00F50312   1.316   4.663  10.511 -0.4213 -1.3986  0.9566
  2714G12c C00H50313   1.535   4.586  10.598  1.3687  1.1184  0.0225
  2714G12c C00I50314   1.662   4.553  10.587  1.0224  0.8054 -0.4643
  2714G12c C00J50315   1.734   4.484  10.693 -0.9368 -0.4773 -0.8776
  2714G12c C00Z50316   1.346   4.431  10.940  1.1205 -1.0203 -1.1625
  2714G12c C00Y50317   1.298   4.392  11.062  0.1564  0.7902 -0.3018
  2714G12c H00650318   1.229   4.459  11.113 -0.7352 -0.5822  0.3156
  2714G12c C00X50319   1.360   4.286  11.124  0.2961 -0.0330  1.7495
  2714G12c O00350320   1.311   4.218  11.225 -0.3745  0.6451 -0.1273
  2714G12c C01B50321   1.172   4.196  11.198  0.5820  0.4351  1.2655
  2714G12c H00950322   1.136   4.117  11.265  0.8770 -1.4695 -0.7428
  2714G12c H00850323   1.096   4.274  11.196 -2.4589 -2.3629  2.3801
  2714G12c H00750324   1.169   4.156  11.097  2.8429 -4.1221  2.8410
  2714G12c C00W50325   1.492   4.244  11.085 -0.9177 -0.5445  2.1877
  2714G12c O00450326   1.531   4.143  11.150  0.0800 -0.3647 -1.4354
  2714G12c C01C50327   1.651   4.089  11.118 -0.3544  0.5622  1.7851
  2714G12c H00A50328   1.706   4.038  11.195  2.6060  4.0203  2.0991
  2714G12c C00P50329   1.748   4.139  11.024 -0.0034 -1.6397 -1.2482
  2714G12c C00O50330   1.875   4.074  10.994  0.4408 -0.1157  0.2039
  2714G12c C01D50331   1.922   3.946  11.056  0.2926  0.7813  0.7300
  2714G12c H00S50332   1.852   3.888  11.115 -2.7890  3.4417 -0.2060
  2714G12c C01E50333   2.056   3.887  11.020  0.6852 -1.2114  0.7995
  2714G12c O00850334   2.094   3.792  11.108 -0.9576 -0.5545 -1.0766
  2714G12c C01V50335   2.220   3.779  11.147 -1.1826 -1.1459  0.7491
  2714G12c C01Z50336   2.226   3.742  11.299 -0.3080 -0.5040  0.9375
  2714G12c H00R50337   2.326   3.700  11.304 -1.4480 -3.4502 -0.2278
  2714G12c H00Q50338   2.219   3.833  11.359  5.0886 -0.5121  1.8446
  2714G12c O00950339   2.109   3.659  11.307 -0.5421  1.2479 -0.0324
  2714G12c H00P50340   2.123   3.569  11.281 -0.8208  0.6289  1.9526
  2714G12c C01W50341   2.318   3.843  11.078  1.1390 -1.0214  0.5142
  2714G12c H00O50342   2.311   3.880  10.977 -3.2290  4.3557  2.5131
  2714G12c C01X50343   2.440   3.908  11.141  0.4454 -0.4485 -0.4576
  2714G12c H00N50344   2.524   3.839  11.145  0.0038 -1.0562 -1.4184
  2714G12c H00M50345   2.469   3.959  11.050 -2.1362 -2.1280 -2.2933
  2714G12c C01Y50346   2.464   4.024  11.233 -0.4754 -1.4288  0.0592
  2714G12c C02D50347   2.483   4.154  11.189 -0.6338 -0.0611  0.8305
  2714G12c H01950348   2.453   4.204  11.098 -4.0765  3.4194  3.6924
  2714G12c C02C50349   2.551   4.239  11.261  0.1390  1.3622 -0.6291
  2714G12c H01A50350   2.562   4.346  11.247 -0.8625  1.4640 -0.6592
  2714G12c C02B50351   2.595   4.215  11.392 -0.6263 -2.1175  0.0908
  2714G12c O00E50352   2.685   4.277  11.462 -0.2929  0.5487 -1.3370
  2714G12c H01B50353   2.729   4.235  11.534 -3.6534  3.9068  2.9141
  2714G12c C02F50354   2.575   4.081  11.442 -0.5603 -2.5388  0.5401
  2714G12c O00F50355   2.623   4.040  11.559  0.0029 -0.6762  1.4902
  2714G12c C02G50356   2.737   4.000  11.524  0.0922  1.5679 -0.8312
  2714G12c H01750357   2.743   3.906  11.579 -4.3399 -1.2567 -4.8097
  2714G12c H01650358   2.792   4.078  11.576 -2.9287 -0.4186  5.9124
  2714G12c H01550359   2.756   3.972  11.420 -3.9185  4.3273 -2.4158
  2714G12c C02E50360   2.505   3.989  11.360 -1.4922 -0.3076 -1.8596
  2714G12c H01850361   2.482   3.886  11.385 -3.1428 -0.6015 -4.3937
  2714G12c C01F50362   2.100   3.907  10.886 -1.4238 -0.4713 -0.4643
  2714G12c C01G50363   2.150   3.814  10.786 -0.2264 -1.4928 -0.6809
  2714G12c H00L50364   2.136   3.707  10.784 -1.5701 -1.3371 -5.6147
  2714G12c C01H50365   2.144   3.868  10.647  0.6444 -0.1036 -0.3501
  2714G12c H00B50366   2.111   3.793  10.577 -0.9197 -3.4470  3.7740
  2714G12c C01I50367   2.133   4.010  10.618 -1.4514  0.1158 -0.4998
  2714G12c C01U50368   2.074   4.036  10.843 -0.7109 -0.5027 -0.5713
  2714G12c C00S50369   1.677   4.458  10.811  1.7494  0.8413 -1.5658
  2714G12c C00K50370   1.825   4.386  10.660  1.6134 -0.2913 -0.2297
  2714G12c C00N50371   1.967   4.119  10.896  0.8093 -2.2048 -0.9893
  2714G12c C00050372   2.129   4.097  10.729  1.2865 -0.3571  0.1569
  2714G12c C01J50373   2.107   4.091  10.503  0.4714  0.8033  0.7980
  2714G12c C01K50374   2.098   4.033  10.362  2.1644 -0.9185 -1.3418
  2714G12c C01P50375   2.193   3.951  10.297  0.3149 -0.5158 -1.1376
  2714G12c C01Q50376   2.317   3.902  10.367 -0.2458 -1.0608  0.0432
  2714G12c H00G50377   2.341   3.936  10.466  2.0679  4.2419 -2.1369
  2714G12c C01R50378   2.353   3.776  10.348 -1.9605 -0.4684  0.6381
  2714G12c H00F50379   2.320   3.709  10.269  5.6279  0.2732 -3.6871
  2714G12c C01S50380   2.439   3.707  10.442 -0.1506 -0.3139 -1.3462
  2714G12c H00E50381   2.431   3.613  10.388  2.7773  0.0171 -2.4386
  2714G12c H00D50382   2.546   3.724  10.452  0.0214 -2.1300  0.2670
  2714G12c O00550383   2.388   3.652  10.572 -1.2410 -0.0205 -1.9176
  2714G12c H00C50384   2.320   3.596  10.538  2.7973 -9.0402  3.0838
  2714G12c C01O50385   2.141   3.899  10.174 -0.9384  0.5720  0.4255
  2714G12c H00H50386   2.198   3.822  10.124 -0.3138  0.0029  1.9847
  2714G12c C01N50387   2.030   3.935  10.111 -0.7127  0.2184  1.1027
  2714G12c O00650388   1.988   3.862  10.003  0.6175 -1.9015  0.5740
  2714G12c C01T50389   1.968   3.713  10.008 -0.2725 -0.6676  0.7333
  2714G12c H00K50390   1.864   3.681  10.015 -0.0895 -0.9046  2.7599
  2714G12c H00J50391   2.017   3.664  10.092  0.4242  2.1807  2.0796
  2714G12c H00I50392   1.988   3.698   9.902  1.7730 -2.5620  1.3569
  2714G12c C01M50393   1.963   4.037  10.168  0.2569 -0.4648  1.1190
  2714G12c C02050394   1.863   4.384  10.515 -0.3237 -1.0465  1.9907
  2714G12c C02150395   1.799   4.458  10.406  1.5277  0.0241 -0.5697
  2714G12c C01L50396   1.991   4.084  10.292 -0.4941  0.8377 -0.0389
  2714G12c O00750397   1.861   4.087  10.090 -1.2328 -1.0325 -0.1517
  2714G12c C02250398   1.777   4.400  10.289 -0.9800 -0.1393  0.7128
  2714G12c C02350399   1.702   4.546  10.448  1.8374  0.7797  0.0178
  2714G12c C00G50400   1.450   4.623  10.488 -0.4273 -1.2191 -1.4738
  2714G12c C00E50401   1.241   4.708  10.390  1.7637 -1.5119  0.2873
  2714G12c O00A50402   1.106   4.726  10.384  0.7984  0.7724  0.0199
  2714G12c C02450403   1.050   4.646  10.288 -2.1748 -1.2045  1.5846
  2714G12c H00V50404   1.069   4.703  10.198  5.2224 -5.2341  0.1495
  2714G12c H00U50405   0.952   4.638  10.336 -1.4086 -0.5528  3.3149
  2714G12c H00T50406   1.092   4.545  10.281  1.7424  0.5230 -9.4310
  2724G12c C00D50407  10.202   7.063   8.630  1.7142  0.2085  2.1175
  2724G12c O00B50408  10.093   7.143   8.587 -0.9377  1.1997  0.6537
  2724G12c C02550409  10.001   7.192   8.673  0.8808  1.4112 -0.8398
  2724G12c C02650410  10.026   7.336   8.722  1.5715 -0.8165  1.3306
  2724G12c H00Y50411  10.109   7.349   8.653  3.6011  3.3188  4.3821
  2724G12c H00X50412   9.936   7.370   8.670 -4.3836 -8.8762  5.2140
  2724G12c O00C50413  10.083   7.333   8.853 -0.6103 -0.1563  0.9229
  2724G12c H00W50414  10.090   7.426   8.869 -5.8747  1.3527 -3.7408
  2724G12c C02750415   9.876   7.144   8.673 -0.2968  0.9070 -0.1463
  2724G12c O00D50416   9.845   7.025   8.624 -0.2753  0.9355  0.5929
  2724G12c H00Z50417   9.909   6.970   8.582  4.3636  0.7292  7.2068
  2724G12c C02850418   9.753   7.205   8.727  1.9669 -0.3235 -0.1077
  2724G12c C02950419   9.766   7.281   8.843 -0.1997  0.4195  0.9391
  2724G12c H01050420   9.863   7.302   8.887 -0.7426  0.5741  2.0959
  2724G12c C02T50421   9.666   7.325   8.925 -1.1254  2.2873 -0.3632
  2724G12c H01O50422   9.674   7.390   9.011 -0.6962  0.4566  1.0148
  2724G12c C02S50423   9.529   7.294   8.891 -1.8285  0.9908 -0.3971
  2724G12c O00J50424   9.441   7.350   8.943  1.0141  0.1071  1.3280
  2724G12c H01P50425   9.376   7.392   8.889  4.3930  0.6106 -2.5749
  2724G12c C02R50426   9.506   7.206   8.781 -0.2934  1.9009  0.8677
  2724G12c O00I50427   9.378   7.206   8.731 -0.6944  0.8602 -1.6371
  2724G12c C02Q50428   9.357   7.168   8.603  0.6400 -0.1862  1.2458
  2724G12c H01N50429   9.440   7.212   8.547  3.4813 -3.5119  2.6352
  2724G12c H01R50430   9.270   7.232   8.590 -0.6607 -1.9212  1.2232
  2724G12c H01Q50431   9.327   7.066   8.581  1.0140  0.7317 -4.1910
  2724G12c C02A50432   9.620   7.174   8.699 -1.6629 -0.8601 -0.0731
  2724G12c H01150433   9.598   7.126   8.605  4.0634  0.0917 -2.0882
  2724G12c C00C50434  10.223   7.024   8.766  0.3614  1.1613  0.0775
  2724G12c H01250435  10.163   7.077   8.839 -2.4717  2.7940 -3.2648
  2724G12c C00B50436  10.314   6.929   8.798 -1.4329 -1.4902 -0.0651
  2724G12c C00A50437  10.327   6.864   8.926  0.4127  1.2910  0.6428
  2724G12c C00950438  10.340   6.933   9.059  1.1169  1.1280  1.7967
  2724G12c C00850439  10.324   7.059   9.103 -2.0697  1.7011  0.7666
  2724G12c H01350440  10.272   7.122   9.032 -0.2642  4.7257  2.0054
  2724G12c C00750441  10.355   7.086   9.238  0.9179 -0.1317 -0.5378
  2724G12c H01450442  10.299   7.170   9.276  1.7833  0.5992 -0.8737
  2724G12c C00650443  10.426   6.994   9.313  0.1196  1.2181 -0.7860
  2724G12c C00550444  10.451   6.881   9.257  0.6410 -0.0640 -0.4913
  2724G12c C00450445  10.551   6.794   9.297 -0.8758 -0.2846  1.8643
  2724G12c C00350446  10.574   6.674   9.238  0.8771  0.3831  2.3068
  2724G12c C00250447  10.681   6.592   9.298 -2.0097  0.6383  2.7268
  2724G12c C00150448  10.757   6.485   9.242 -0.3630 -0.6521 -1.5173
  2724G12c C00M50449  10.788   6.444   9.104 -1.2923 -0.0828  0.1508
  2724G12c C00L50450  10.698   6.457   9.007 -0.4777  1.1246 -1.3538
  2724G12c C00R50451  10.736   6.482   8.866  0.2782 -0.8566 -0.2029
  2724G12c C00Q50452  10.869   6.479   8.797 -1.3357  0.5001  0.9126
  2724G12c C00V50453  10.881   6.516   8.655  0.1770  0.6435  1.6496
  2724G12c C00U50454  10.768   6.580   8.589  0.3448  0.2039  0.7218
  2724G12c C00T50455  10.651   6.603   8.672 -0.3769  0.9854 -0.3832
  2724G12c C01650456  10.566   6.710   8.647 -0.6061 -0.4397  0.2993
  2724G12c C01550457  10.560   6.753   8.513 -0.6606  0.8309  1.7261
  2724G12c C01050458  10.659   6.718   8.421 -0.7062  1.5312 -2.0864
  2724G12c C01150459  10.659   6.764   8.301  0.0847 -0.0302 -1.0053
  2724G12c H00550460  10.750   6.727   8.255  2.9302  1.4204  3.1162
  2724G12c C01250461  10.590   6.884   8.263  0.6224 -0.5499  0.4646
  2724G12c C01750462  10.651   6.948   8.149 -1.8180 -1.3702 -0.8992
  2724G12c O00250463  10.790   6.967   8.136  0.1523  1.4511  0.7315
  2724G12c H00450464  10.796   6.986   8.228 -1.6615  3.7365  0.4404
  2724G12c C01850465  10.591   6.979   8.046  1.2412  0.6718  2.5096
  2724G12c O00150466  10.658   7.036   7.948 -1.0215 -0.0918  0.2365
  2724G12c H00350467  10.715   6.966   7.918 -2.5024  0.5258 -4.5222
  2724G12c C01950468  10.432   6.990   8.033  0.7701  0.3818  0.6737
  2724G12c H00250469  10.375   7.053   8.100 -0.3080 -0.8633  0.9536
  2724G12c H00150470  10.413   7.016   7.929  5.9950 -1.6548 -0.9785
  2724G12c O00050471  10.372   6.859   8.026  0.2839  0.4880 -1.5146
  2724G12c C01A50472  10.405   6.770   7.925  0.5165  0.7858  1.9793
  2724G12c C02K50473  10.433   6.784   7.787 -1.8412 -1.9558  1.8841
  2724G12c O00G50474  10.429   6.907   7.734 -1.2253 -0.1570  1.0714
  2724G12c C02M50475  10.321   6.894   7.653  1.2532  0.5967 -1.9130
  2724G12c H01G50476  10.240   6.831   7.691  2.2739  1.2059  1.3576
  2724G12c H01F50477  10.290   6.972   7.721 -3.5073  0.3264 -3.5572
  2724G12c H01E50478  10.319   6.971   7.575 -3.4330 -3.7720 -6.5794
  2724G12c C02J50479  10.481   6.668   7.728 -0.1058  0.2333 -0.4263
  2724G12c H01H50480  10.539   6.671   7.637  1.7954 -2.6437  0.6410
  2724G12c C02I50481  10.483   6.546   7.798  0.0132 -0.8891 -0.8378
  2724G12c C02N50482  10.574   6.453   7.768 -0.2828 -1.3535 -0.9475
  2724G12c H01M50483  10.673   6.463   7.725  2.9501  2.4044  6.5543
  2724G12c C02O50484  10.530   6.339   7.729  0.5835  0.0295  0.7244
  2724G12c H01L50485  10.429   6.309   7.754 -0.4714 -0.3429 -3.5813
  2724G12c C02P50486  10.635   6.223   7.681  0.2496  0.0412 -2.1021
  2724G12c H01K50487  10.571   6.154   7.626 -3.4087  2.1208 -0.6355
  2724G12c H01J50488  10.729   6.253   7.636  2.0987 -0.9482  0.9750
  2724G12c O00H50489  10.674   6.186   7.812 -0.4843 -1.0140  1.2921
  2724G12c H01I50490  10.582   6.200   7.829  0.3457  2.6907  3.3790
  2724G12c C02H50491  10.436   6.521   7.923  1.7573  0.8761 -0.5638
  2724G12c H01C50492  10.414   6.417   7.940  2.5359  0.2782 -2.9662
  2724G12c C02L50493  10.389   6.646   7.975 -1.1900  1.4695 -0.8993
  2724G12c H01D50494  10.350   6.646   8.075 -3.0030 -2.4263 -1.5248
  2724G12c C01350495  10.484   6.935   8.353 -1.0725  0.7070  0.8397
  2724G12c H00050496  10.448   7.035   8.335 -6.8032 -1.5197 -1.1550
  2724G12c C01450497  10.472   6.854   8.471  0.2124  0.5642  0.3369
  2724G12c C00F50498  10.373   6.902   8.564 -0.1741  0.5657  0.2829
  2724G12c C00H50499  10.469   6.757   8.741  1.0917 -1.3984  0.7697
  2724G12c C00I50500  10.454   6.673   8.851  0.1954  1.3490  0.1384
  2724G12c C00J50501  10.520   6.554   8.880  1.1039 -1.0086  1.1952
  2724G12c C00Z50502  10.771   6.630   8.464 -0.1878  0.4567  3.1923
  2724G12c C00Y50503  10.896   6.620   8.411  0.2557  0.1386 -1.3223
  2724G12c H00650504  10.902   6.684   8.325 -1.8478  4.1974  1.3835
  2724G12c C00X50505  11.009   6.539   8.461 -1.0349 -1.6078  0.2714
  2724G12c O00350506  11.116   6.538   8.377  0.3865  1.8016 -0.2862
  2724G12c C01B50507  11.109   6.517   8.225 -1.6108  0.5166  0.0437
  2724G12c H00950508  11.008   6.505   8.185 -0.9742  4.7914 -3.1568
  2724G12c H00850509  11.156   6.613   8.206 -1.2226 -0.9300 -8.6354
  2724G12c H00750510  11.161   6.421   8.225  0.5573  1.5820 -3.1580
  2724G12c C00W50511  10.995   6.499   8.582 -2.1114 -1.4156 -0.3811
  2724G12c O00450512  11.109   6.459   8.644  1.3537  1.3095 -0.0018
  2724G12c C01C50513  11.099   6.387   8.757  2.3003 -0.2088  0.0343
  2724G12c H00A50514  11.152   6.293   8.756 -1.9149 -2.7349 -0.8075
  2724G12c C00P50515  10.988   6.414   8.855 -1.4865 -2.0217 -1.1745
  2724G12c C00O50516  11.027   6.400   8.999 -0.0160  0.8747  1.6782
  2724G12c C01D50517  11.172   6.398   9.028 -1.0133 -1.3320 -1.2630
  2724G12c H00S50518  11.241   6.378   8.947 -0.7238 -0.9671 -1.1083
  2724G12c C01E50519  11.229   6.436   9.157 -0.6540 -0.3208  0.2253
  2724G12c O00850520  11.375   6.446   9.175  0.0495  0.4354  0.4114
  2724G12c C01V50521  11.458   6.390   9.081 -1.1890  0.0289 -2.1687
  2724G12c C01Z50522  11.541   6.267   9.162  0.0647 -1.3550 -1.2137
  2724G12c H00R50523  11.647   6.243   9.170 -1.1259 -6.7586  0.2830
  2724G12c H00Q50524  11.494   6.254   9.259  3.9220 -2.4138  0.6166
  2724G12c O00950525  11.452   6.170   9.107 -0.0400  0.1305 -1.1292
  2724G12c H00P50526  11.465   6.088   9.152 -0.4995  0.5572 -0.1965
  2724G12c C01W50527  11.476   6.427   8.955  0.8666  1.2029  1.2409
  2724G12c H00O50528  11.434   6.521   8.921 -2.9423 -0.8396  0.0536
  2724G12c C01X50529  11.564   6.359   8.857 -1.9227 -0.5726 -0.1803
  2724G12c H00N50530  11.632   6.422   8.800 -0.4476 -2.6092 -0.7619
  2724G12c H00M50531  11.637   6.284   8.889 -1.9186 -1.3679 -1.9803
  2724G12c C01Y50532  11.462   6.317   8.755 -2.2701 -0.0523 -1.1382
  2724G12c C02D50533  11.429   6.394   8.645 -1.0447  0.3984  1.1582
  2724G12c H01950534  11.442   6.501   8.651  0.1722  0.1761  2.7315
  2724G12c C02C50535  11.342   6.347   8.553 -1.2361 -0.4514 -0.5485
  2724G12c H01A50536  11.333   6.417   8.471 -0.4902  1.2872  0.8384
  2724G12c C02B50537  11.293   6.216   8.546 -1.8829 -0.3641 -1.4753
  2724G12c O00E50538  11.209   6.176   8.445 -0.5661 -0.4129 -1.2604
  2724G12c H01B50539  11.156   6.104   8.475 -2.6556  1.8095  0.5598
  2724G12c C02F50540  11.336   6.129   8.656 -1.0792  0.2638  0.5312
  2724G12c O00F50541  11.273   6.020   8.665 -0.2879 -0.5451  0.5149
  2724G12c C02G50542  11.346   5.920   8.598 -1.2716 -0.5455  0.1754
  2724G12c H01750543  11.280   5.854   8.541 -3.5723  4.7821 -3.7751
  2724G12c H01650544  11.420   5.883   8.668  2.2464 -1.3314 -3.7616
  2724G12c H01550545  11.392   5.952   8.505 -0.5499 -0.5776  0.5157
  2724G12c C02E50546  11.402   6.191   8.767 -0.2870  0.9512 -0.7975
  2724G12c H01850547  11.384   6.128   8.853  0.8279 -2.8789 -3.2309
  2724G12c C01F50548  11.126   6.463   9.249 -0.2983 -1.1273  0.0321
  2724G12c C01G50549  11.125   6.546   9.375 -0.6892 -0.8687  2.7212
  2724G12c H00L50550  11.221   6.581   9.410 -1.0695 -0.0089  2.9144
  2724G12c C01H50551  11.017   6.589   9.453  2.2353  0.6195  0.2190
  2724G12c H00B50552  11.042   6.650   9.539  0.9935  0.1585  0.9118
  2724G12c C01I50553  10.889   6.565   9.404  0.7228  0.2333  0.6102
  2724G12c C01U50554  10.993   6.422   9.223  0.2959 -1.1259 -0.3103
  2724G12c C00S50555  10.624   6.527   8.792  0.6475 -1.2932  0.5507
  2724G12c C00K50556  10.582   6.549   9.012 -1.6358  0.2905  0.4654
  2724G12c C00N50557  10.934   6.424   9.090  0.1687  0.7462  0.8066
  2724G12c C00050558  10.884   6.454   9.316  1.3598 -0.4437  2.2927
  2724G12c C01J50559  10.763   6.637   9.397  2.6266 -0.3737 -1.9786
  2724G12c C01K50560  10.744   6.768   9.459 -0.1725 -0.2193  0.0817
  2724G12c C01P50561  10.787   6.806   9.595 -0.5263 -0.9770  0.9218
  2724G12c C01Q50562  10.880   6.736   9.682 -1.4494 -0.2703 -0.8607
  2724G12c H00G50563  10.981   6.755   9.715 -2.9345 -4.5975  7.4262
  2724G12c C01R50564  10.821   6.618   9.717 -0.2118  0.4016  1.3100
  2724G12c H00F50565  10.732   6.596   9.660 -1.3793 -0.1453  3.2940
  2724G12c C01S50566  10.884   6.519   9.811 -1.4147  1.0462 -0.4899
  2724G12c H00E50567  10.814   6.435   9.798  0.7120 -0.3989 -3.1399
  2724G12c H00D50568  10.979   6.481   9.774 -4.5506 -3.1549 -4.9118
  2724G12c O00550569  10.927   6.558   9.948  1.2289  0.4356  0.0286
  2724G12c H00C50570  11.015   6.552   9.980  0.5113  4.8382  3.4183
  2724G12c C01O50571  10.739   6.932   9.645 -1.0688  1.3995  1.4788
  2724G12c H00H50572  10.804   6.966   9.724  3.5486 -8.2672  2.4225
  2724G12c C01N50573  10.634   7.005   9.591 -0.2212 -0.5624 -0.4712
  2724G12c O00650574  10.595   7.121   9.653 -0.4345  0.3684 -1.2810
  2724G12c C01T50575  10.466   7.129   9.711  0.2860 -0.5293  0.0698
  2724G12c H00K50576  10.384   7.141   9.640 -2.2897 -3.6302  2.3673
  2724G12c H00J50577  10.432   7.209   9.777 -1.9555 -0.3474 -1.2444
  2724G12c H00I50578  10.440   7.025   9.731  5.5260 -0.9523  5.9556
  2724G12c C01M50579  10.577   6.948   9.482 -0.8747 -1.0900 -0.7573
  2724G12c C02050580  10.536   6.647   9.104 -0.6175 -0.1200  1.0130
  2724G12c C02150581  10.410   6.712   9.074  0.3073 -0.1642  1.1282
  2724G12c C01L50582  10.628   6.840   9.412  0.2854  0.6334  1.0507
  2724G12c O00750583  10.477   7.011   9.434  0.4797  0.0325 -1.3555
  2724G12c C02250584  10.366   6.826   9.150  2.1248  0.8000  0.3302
  2724G12c C02350585  10.390   6.746   8.943 -1.9401  0.0755  0.4194
  2724G12c C00G50586  10.390   6.865   8.699  0.7613  0.5066  0.0526
  2724G12c C00E50587  10.268   6.992   8.529  1.7488 -0.2905 -2.3046
  2724G12c O00A50588  10.248   7.009   8.394 -0.4621  0.5062 -2.0135
  2724G12c C02450589  10.156   6.911   8.349  0.1290  2.7385  0.6085
  2724G12c H00V50590  10.088   6.909   8.264 -1.2135 -2.1454  1.6414
  2724G12c H00U50591  10.209   6.819   8.327 -0.8234  3.2976 -4.6136
  2724G12c H00T50592  10.073   6.909   8.420 -4.0542 -5.8374 -3.7923
  2734G12c C00D50593  12.222   4.312   1.187 -1.7336 -0.2372 -0.4723
  2734G12c O00B50594  12.323   4.226   1.152 -1.7706  1.9225  0.0695
  2734G12c C02550595  12.314   4.081   1.163 -0.7197  0.2525 -0.0842
  2734G12c C02650596  12.392   4.030   1.047 -1.4372 -1.4196 -0.4366
  2734G12c H00Y50597  12.307   3.973   1.010 -3.3128  0.9831  0.0559
  2734G12c H00X50598  12.432   3.930   1.059 -0.6008 -0.3879  8.5324
  2734G12c O00C50599  12.481   4.099   0.973 -0.4548 -1.2403 -0.4596
  2734G12c H00W50600  12.531   4.178   0.991  0.6346 -0.7380 -5.0342
  2734G12c C02750601  12.259   4.019   1.269  0.0629  0.0814 -0.2816
  2734G12c O00D50602  12.243   4.111   1.378 -0.5115 -1.6329 -0.7192
  2734G12c H00Z50603  12.209   4.192   1.344 -0.9971 -0.9772  1.2719
  2734G12c C02850604  12.257   3.875   1.281 -1.0789  0.4100  0.1922
  2734G12c C02950605  12.282   3.821   1.407 -1.3246  0.8727 -0.7428
  2734G12c H01050606  12.310   3.906   1.469 -1.9763  3.7805 -4.2742
  2734G12c C02T50607  12.310   3.682   1.441  0.1850  0.6827  0.3412
  2734G12c H01O50608  12.346   3.654   1.538  0.2766 -2.8668 -0.6331
  2734G12c C02S50609  12.299   3.587   1.339  0.0468 -0.8363 -0.4635
  2734G12c O00J50610  12.310   3.450   1.381 -0.1519 -0.1762 -0.2936
  2734G12c H01P50611  12.271   3.382   1.328  4.9667  0.1728 -5.0278
  2734G12c C02R50612  12.245   3.619   1.213  0.8026  0.8194 -0.9573
  2734G12c O00I50613  12.240   3.549   1.090  1.1244  0.9674 -0.0892
  2734G12c C02Q50614  12.377   3.492   1.051  1.8242  1.0138  0.1072
  2734G12c H01N50615  12.446   3.575   1.063 -0.0654  2.3582  2.0394
  2734G12c H01R50616  12.403   3.426   0.968 -0.7604 -5.0019  3.6667
  2734G12c H01Q50617  12.382   3.399   1.109 -5.2791 -0.8530 -1.7571
  2734G12c C02A50618  12.255   3.766   1.186 -0.5824 -0.7510 -0.9881
  2734G12c H01150619  12.262   3.787   1.080 -1.4128 -2.9097 -1.4905
  2734G12c C00C50620  12.097   4.268   1.164 -0.6706 -0.1677  0.3905
  2734G12c H01250621  12.074   4.181   1.105  4.5703  0.6459 -3.1596
  2734G12c C00B50622  11.994   4.354   1.199  2.1477  0.1747 -2.2297
  2734G12c C00A50623  11.857   4.334   1.160 -0.6615 -0.3705 -0.1621
  2734G12c C00950624  11.794   4.237   1.076  2.0914 -1.5371 -0.1361
  2734G12c C00850625  11.833   4.164   0.961  0.3089  0.7292  1.1682
  2734G12c H01350626  11.933   4.124   0.967 -1.5174 -3.6586  4.9600
  2734G12c C00750627  11.739   4.132   0.849 -2.3819  0.2232  2.0038
  2734G12c H01450628  11.751   4.108   0.745  2.1518 -2.1156  2.9311
  2734G12c C00650629  11.624   4.208   0.838  0.6894  0.5639  1.1379
  2734G12c C00550630  11.583   4.280   0.952 -0.0410 -0.7228  1.1370
  2734G12c C00450631  11.471   4.371   0.946  1.5538 -0.1937 -0.0464
  2734G12c C00350632  11.447   4.474   1.039  1.1198  2.0101  0.3038
  2734G12c C00250633  11.343   4.567   1.004  0.5034  0.1466 -0.5897
  2734G12c C00150634  11.272   4.670   1.083  0.2645 -0.9835 -0.0308
  2734G12c C00M50635  11.371   4.766   1.150  1.1513 -0.6890  0.7750
  2734G12c C00L50636  11.479   4.733   1.230 -1.5624  0.1153  0.6354
  2734G12c C00R50637  11.575   4.826   1.284  0.4542  0.9416 -0.7414
  2734G12c C00Q50638  11.586   4.958   1.278  0.0784 -0.6202 -1.4474
  2734G12c C00V50639  11.715   5.006   1.319  0.2489  2.7396  0.3902
  2734G12c C00U50640  11.831   4.917   1.343 -1.6998 -0.2267 -1.1770
  2734G12c C00T50641  11.823   4.789   1.336 -0.7915 -1.1660 -0.5879
  2734G12c C01650642  11.924   4.692   1.295 -0.4265 -0.7042  0.3587
  2734G12c C01550643  12.052   4.742   1.317 -0.9186  1.0962  0.1791
  2734G12c C01050644  12.059   4.875   1.365 -1.1266  0.7997  0.8200
  2734G12c C01150645  12.184   4.944   1.375  0.1633  0.3338 -0.6959
  2734G12c H00550646  12.214   5.046   1.397  1.9253  0.4112 -3.1910
  2734G12c C01250647  12.303   4.859   1.349  1.5944  0.9311  0.7889
  2734G12c C01750648  12.434   4.898   1.404 -1.1642 -0.1886 -0.4383
  2734G12c O00250649  12.442   4.924   1.529 -0.5835  0.1366 -1.1760
  2734G12c H00450650  12.473   5.012   1.538  1.2472 -0.2555 -3.1337
  2734G12c C01850651  12.548   4.898   1.329  0.6628 -1.5766  0.5667
  2734G12c O00150652  12.535   4.839   1.196 -0.4260 -1.0802  0.3103
  2734G12c H00350653  12.495   4.755   1.210 -1.1613 -0.7844  0.0372
  2734G12c C01950654  12.674   4.923   1.410 -1.5450 -0.6066  0.0000
  2734G12c H00250655  12.682   4.903   1.517  4.5321 -5.9131 -1.1588
  2734G12c H00150656  12.744   4.851   1.368  0.3728  0.8324  0.6465
  2734G12c O00050657  12.692   5.060   1.411 -0.2497  0.7333  0.5596
  2734G12c C01A50658  12.758   5.110   1.310  0.0461 -0.8803  0.3607
  2734G12c C02K50659  12.690   5.209   1.227 -0.2587  0.4103 -0.7834
  2734G12c O00G50660  12.626   5.309   1.308 -1.2932 -0.6737  0.5390
  2734G12c C02M50661  12.515   5.255   1.371  0.0370 -1.2959  0.1055
  2734G12c H01G50662  12.553   5.268   1.472  5.4385 -1.2053 -1.7404
  2734G12c H01F50663  12.488   5.151   1.351  2.4293 -2.6252  3.3357
  2734G12c H01E50664  12.430   5.320   1.353  2.3413  1.7405 -0.1637
  2734G12c C02J50665  12.755   5.266   1.102  0.8510 -0.0958 -0.0390
  2734G12c H01H50666  12.717   5.367   1.100  0.1941 -0.3328  0.2304
  2734G12c C02I50667  12.861   5.209   1.041  1.5532 -1.1088 -1.5102
  2734G12c C02N50668  12.906   5.265   0.935 -0.5231  0.3194 -0.1480
  2734G12c H01M50669  13.011   5.289   0.938 -0.1634 -1.2510  0.4058
  2734G12c C02O50670  12.832   5.252   0.816 -1.4112 -0.4795  0.0230
  2734G12c H01L50671  12.736   5.205   0.803  0.1471 -2.8033 -3.7965
  2734G12c C02P50672  12.905   5.293   0.693  1.5242  0.4608 -0.6881
  2734G12c H01K50673  12.832   5.265   0.617 -4.2026 -2.0510  5.2405
  2734G12c H01J50674  12.901   5.401   0.687 -1.0829  0.3783 -0.7075
  2734G12c O00H50675  13.035   5.237   0.692 -0.1174  0.4707 -0.7958
  2734G12c H01I50676  13.088   5.315   0.702  2.6854 -1.2441 -1.9617
  2734G12c C02H50677  12.897   5.084   1.096 -0.7071  0.0739 -0.9008
  2734G12c H01C50678  12.977   5.026   1.052 -2.0192 -3.6189  1.2715
  2734G12c C02L50679  12.851   5.032   1.227  0.8368 -1.6774 -0.8152
  2734G12c H01D50680  12.916   4.950   1.253 -1.0110 -2.7857  0.4136
  2734G12c C01350681  12.279   4.723   1.313  0.6374  0.5830 -1.1121
  2734G12c H00050682  12.381   4.689   1.323  1.3572  3.5851  2.9960
  2734G12c C01450683  12.157   4.655   1.288  0.6960 -0.6854  1.0709
  2734G12c C00F50684  12.143   4.527   1.278  0.4146  0.4183 -0.8870
  2734G12c C00H50685  11.901   4.562   1.271 -1.3439  1.3152  1.0590
  2734G12c C00I50686  11.769   4.521   1.265 -0.5264  0.2958  0.9509
  2734G12c C00J50687  11.671   4.620   1.283 -0.7084 -0.5958 -0.9411
  2734G12c C00Z50688  11.954   4.964   1.385  0.5889  0.0064 -0.1716
  2734G12c C00Y50689  11.962   5.092   1.424 -0.1497 -1.9249  1.0111
  2734G12c H00650690  12.058   5.126   1.459 -0.9002 -2.7990  4.1029
  2734G12c C00X50691  11.869   5.191   1.395  0.8256  1.0191  2.2893
  2734G12c O00350692  11.913   5.323   1.414 -1.0535  1.4822  0.2196
  2734G12c C01B50693  11.989   5.348   1.539 -0.1274  0.3310  0.8233
  2734G12c H00950694  12.095   5.337   1.519 -1.4654 -4.8730 -4.9844
  2734G12c H00850695  11.974   5.440   1.595 -0.5864 -0.7214  2.4935
  2734G12c H00750696  11.954   5.292   1.626 -1.3873  3.0947  2.1713
  2734G12c C00W50697  11.732   5.152   1.329 -1.5951 -0.1523 -1.3484
  2734G12c O00450698  11.642   5.246   1.285 -1.1764 -0.5415 -0.6491
  2734G12c C01C50699  11.565   5.194   1.188 -0.0443 -0.4360  0.8614
  2734G12c H00A50700  11.605   5.209   1.089  1.4159 -8.2446 -0.0365
  2734G12c C00P50701  11.518   5.059   1.201 -1.3187 -0.0834 -1.2599
  2734G12c C00O50702  11.413   5.026   1.103  0.9938  0.0922 -0.8643
  2734G12c C01D50703  11.347   5.114   1.022 -1.0598 -0.9077 -1.7359
  2734G12c H00S50704  11.354   5.217   1.053  4.5972 -2.0727  1.6166
  2734G12c C01E50705  11.256   5.102   0.914 -0.3432 -2.6578  0.9026
  2734G12c O00850706  11.262   5.218   0.837  0.1136 -0.7959  0.6849
  2734G12c C01V50707  11.139   5.297   0.827 -1.3373 -0.9957 -0.4995
  2734G12c C01Z50708  11.061   5.297   0.696  0.5700 -2.0443 -1.4185
  2734G12c H00R50709  11.117   5.221   0.643  0.6355 -6.1952  4.2169
  2734G12c H00Q50710  10.957   5.264   0.694 -1.0964  1.9739  4.9703
  2734G12c O00950711  11.075   5.442   0.654 -1.6493 -0.5915  0.1338
  2734G12c H00P50712  11.069   5.482   0.739 -2.2973 -0.6369  0.1108
  2734G12c C01W50713  11.162   5.415   0.898 -0.0285 -0.6932  0.4415
  2734G12c H00O50714  11.256   5.447   0.940 -0.9174  3.4358 -0.4766
  2734G12c C01X50715  11.042   5.485   0.946  0.5896 -0.3822 -0.8863
  2734G12c H00N50716  10.957   5.422   0.975  0.2353  1.9003  3.4218
  2734G12c H00M50717  11.100   5.523   1.030 -2.9947  3.7058 -0.1060
  2734G12c C01Y50718  10.986   5.617   0.878 -2.0520  0.6573  0.1547
  2734G12c C02D50719  11.077   5.705   0.809 -0.1789  0.8953 -1.2092
  2734G12c H01950720  11.179   5.685   0.779 -1.3702  1.0684 -5.5804
  2734G12c C02C50721  11.019   5.832   0.773  0.2368 -0.0925 -0.4380
  2734G12c H01A50722  11.069   5.909   0.716 -1.4561  0.2752 -1.4636
  2734G12c C02B50723  10.889   5.864   0.802  0.3574 -1.7719 -0.7318
  2734G12c O00E50724  10.839   5.980   0.781  0.2585  0.6709  1.0957
  2734G12c H01B50725  10.748   5.952   0.783 -0.3101  2.4779  1.8959
  2734G12c C02F50726  10.787   5.774   0.840  1.8151 -0.4853  0.4795
  2734G12c O00F50727  10.660   5.805   0.861  1.5909  0.2812 -1.1251
  2734G12c C02G50728  10.580   5.773   0.737  0.7930  0.3040  0.4915
  2734G12c H01750729  10.636   5.752   0.646 -1.2726 -1.7781 -0.3649
  2734G12c H01650730  10.488   5.714   0.746 -0.6990  2.8613  2.9352
  2734G12c H01550731  10.525   5.867   0.742 -3.3894 -2.0818  3.3276
  2734G12c C02E50732  10.844   5.643   0.884  0.0452  0.0395  1.7346
  2734G12c H01850733  10.785   5.568   0.935 -5.8519  1.9692 -1.7542
  2734G12c C01F50734  11.232   4.958   0.894 -1.4284  0.0438 -0.8477
  2734G12c C01G50735  11.211   4.900   0.772 -0.1877 -2.2874  1.0402
  2734G12c H00L50736  11.251   4.970   0.700 -0.8383 -5.8250 -2.9938
  2734G12c C01H50737  11.193   4.755   0.743 -0.2576 -1.7779 -1.3314
  2734G12c H00B50738  11.194   4.733   0.637 -0.5120 -3.1187 -1.0599
  2734G12c C01I50739  11.210   4.676   0.857  1.1316 -0.7682 -1.5352
  2734G12c C01U50740  11.237   4.862   1.001  0.7417 -2.9570 -0.7201
  2734G12c C00S50741  11.682   4.747   1.337  1.4082  0.9043 -0.7553
  2734G12c C00K50742  11.536   4.618   1.232 -0.8486 -0.0204 -0.2109
  2734G12c C00N50743  11.347   4.897   1.089  0.0791  0.1648 -0.1860
  2734G12c C00050744  11.196   4.731   0.988  1.8271  2.4191  0.3628
  2734G12c C01J50745  11.273   4.548   0.876 -0.0235 -0.2956 -0.2816
  2734G12c C01K50746  11.294   4.449   0.777 -0.9188  0.9855 -1.5393
  2734G12c C01P50747  11.215   4.411   0.660 -1.3001  0.5674 -0.9179
  2734G12c C01Q50748  11.084   4.479   0.642 -0.2428  0.5712 -2.2613
  2734G12c H00G50749  11.026   4.501   0.730  3.6984  1.2211  0.3108
  2734G12c C01R50750  11.035   4.486   0.520 -1.0363  0.5479 -0.2495
  2734G12c H00F50751  11.095   4.487   0.430 -0.6771  0.0700 -0.0159
  2734G12c C01S50752  10.895   4.551   0.490  1.4370  0.5303 -0.2125
  2734G12c H00E50753  10.839   4.563   0.582  1.6135 -2.9066  0.3754
  2734G12c H00D50754  10.906   4.655   0.456  5.3265  0.8521  1.7826
  2734G12c O00550755  10.822   4.495   0.374  0.5684  0.6113 -0.9895
  2734G12c H00C50756  10.855   4.406   0.374  2.9973  1.4817  0.0828
  2734G12c C01O50757  11.238   4.288   0.604  0.1948 -0.9618  1.1866
  2734G12c H00H50758  11.201   4.255   0.509 -0.9333  3.2057  0.0470
  2734G12c C01N50759  11.342   4.201   0.636 -0.1987 -0.2312  0.3079
  2734G12c O00650760  11.369   4.086   0.559  0.4949 -1.4759  1.1284
  2734G12c C01T50761  11.479   4.048   0.496  1.2965  0.1296  0.7071
  2734G12c H00K50762  11.564   4.113   0.514 -0.9585  4.0106 -1.9143
  2734G12c H00J50763  11.497   4.003   0.399  3.7632  0.5596  0.9422
  2734G12c H00I50764  11.514   3.957   0.545  3.6112 -1.4070 -3.6055
  2734G12c C01M50765  11.421   4.237   0.749  0.9194 -0.4649  1.4797
  2734G12c C02050766  11.534   4.493   1.146 -0.8009  0.2642  1.0650
  2734G12c C02150767  11.637   4.376   1.159 -1.0741 -1.8474  1.2251
  2734G12c C01L50768  11.399   4.364   0.819 -0.4919 -2.5129  0.2961
  2734G12c O00750769  11.527   4.164   0.756 -0.7609  0.0231 -0.5694
  2734G12c C02250770  11.658   4.282   1.073  1.0796 -1.2338  0.4720
  2734G12c C02350771  11.753   4.386   1.235  1.1079 -0.6819 -0.3463
  2734G12c C00G50772  12.015   4.481   1.253  0.2567  2.0504 -0.9214
  2734G12c C00E50773  12.253   4.438   1.249 -0.4854  0.1559 -0.2209
  2734G12c O00A50774  12.382   4.467   1.296 -0.0118 -0.9071 -0.3595
  2734G12c C02450775  12.439   4.418   1.423  1.4506 -2.0961  0.7660
  2734G12c H00V50776  12.377   4.353   1.485  0.3146  1.8166  3.9548
  2734G12c H00U50777  12.534   4.371   1.396  3.3966  1.5207  0.9999
  2734G12c H00T50778  12.438   4.506   1.488  0.3216  1.5510 -3.8970
  2744G12c C00D50779   9.164   9.128   0.313  0.8034  1.2386 -0.7535
  2744G12c O00B50780   9.147   9.082   0.441 -0.3807  1.1372  1.5904
  2744G12c C02550781   9.048   8.985   0.448 -0.0435  1.2371  0.2731
  2744G12c C02650782   8.917   9.044   0.469 -0.4209 -0.0389 -1.2025
  2744G12c H00Y50783   8.900   9.148   0.498 -0.8764  1.2152 -5.6017
  2744G12c H00X50784   8.870   8.996   0.554 -1.2946  1.6261 -0.7178
  2744G12c O00C50785   8.848   9.049   0.343 -1.0379 -1.2126 -1.2833
  2744G12c H00W50786   8.896   8.985   0.294  1.5105 -3.6764  4.0360
  2744G12c C02750787   9.052   8.844   0.487 -0.5276 -0.7113  1.8895
  2744G12c O00D50788   9.167   8.789   0.456 -0.2387 -1.1261 -0.8875
  2744G12c H00Z50789   9.252   8.805   0.493 -1.7215  2.5048  1.2049
  2744G12c C02850790   8.949   8.763   0.529 -1.4863 -0.7881  1.3001
  2744G12c C02950791   8.987   8.683   0.626  0.2585 -0.5304  1.1940
  2744G12c H01050792   9.093   8.684   0.647  0.2621  3.6072  1.3224
  2744G12c C02T50793   8.904   8.590   0.668 -1.4699  1.7300 -1.2463
  2744G12c H01O50794   8.942   8.533   0.751 -7.4654 -0.2321  0.4393
  2744G12c C02S50795   8.772   8.576   0.621 -1.0121  1.3031  1.5957
  2744G12c O00J50796   8.695   8.471   0.673 -0.2644  0.4663 -0.6932
  2744G12c H01P50797   8.644   8.477   0.752 -0.7404 -0.8320 -0.8830
  2744G12c C02R50798   8.724   8.650   0.512  0.0831  0.1878  0.4542
  2744G12c O00I50799   8.632   8.600   0.415 -1.1264 -0.8983 -1.4126
  2744G12c C02Q50800   8.513   8.551   0.448 -0.7172 -0.7851 -1.7136
  2744G12c H01N50801   8.461   8.627   0.507 -1.5972 -4.2107  2.0796
  2744G12c H01R50802   8.447   8.520   0.367 -1.7128 -0.2629 -1.1118
  2744G12c H01Q50803   8.513   8.462   0.510  5.6376  2.1766  3.0585
  2744G12c C02A50804   8.815   8.752   0.480  1.6593 -1.0752 -0.7186
  2744G12c H01150805   8.768   8.800   0.395  2.9841 -1.9345 -1.9633
  2744G12c C00C50806   9.067   9.211   0.271  0.3942  0.1932 -0.6844
  2744G12c H01250807   9.002   9.262   0.341  4.5834  0.4097  3.2866
  2744G12c C00B50808   9.040   9.230   0.130  0.7915  0.4483  1.8601
  2744G12c C00A50809   8.962   9.325   0.058 -0.0457  0.2943 -0.5575
  2744G12c C00950810   8.830   9.378   0.105  1.3968 -1.8849 -0.3204
  2744G12c C00850811   8.761   9.340   0.213 -2.5277 -0.0150  0.4825
  2744G12c H01350812   8.809   9.321   0.307  0.9065 -4.2835 -1.9233
  2744G12c C00750813   8.623   9.322   0.204  0.7755 -0.3264  1.3640
  2744G12c H01450814   8.556   9.301   0.286  1.5768  5.0066  3.6027
  2744G12c C00650815   8.562   9.335   0.089  1.2787  0.3140 -0.1579
  2744G12c C00550816   8.629   9.377  -0.030  0.4894 -1.0036 -1.2232
  2744G12c C00450817   8.583   9.363  -0.167  0.1958 -0.2312  0.2059
  2744G12c C00350818   8.668   9.388  -0.282  0.7606  0.6034  1.0636
  2744G12c C00250819   8.628   9.345  -0.416  1.2744 -1.4857  0.8184
  2744G12c C00150820   8.683   9.374  -0.558 -0.4032  0.1642  1.0868
  2744G12c C00M50821   8.797   9.276  -0.602  0.8205 -1.4063  0.2146
  2744G12c C00L50822   8.898   9.244  -0.504  0.5584 -1.5457 -0.1330
  2744G12c C00R50823   8.994   9.133  -0.501  0.4398 -2.0283 -0.1370
  2744G12c C00Q50824   9.002   9.023  -0.588 -0.2594 -0.1740  0.5471
  2744G12c C00V50825   9.084   8.919  -0.532 -1.9317  0.2696 -0.4922
  2744G12c C00U50826   9.116   8.919  -0.393 -0.4149  0.4127  0.1777
  2744G12c C00T50827   9.104   9.022  -0.308 -0.6398  0.4169 -0.2335
  2744G12c C01650828   9.142   9.036  -0.175  0.8811 -1.0818  0.3236
  2744G12c C01550829   9.206   8.929  -0.129  0.1841  1.0598  0.2659
  2744G12c C01050830   9.233   8.819  -0.205 -1.7506 -0.1123  0.1353
  2744G12c C01150831   9.277   8.716  -0.134 -0.7827 -0.4991  0.5300
  2744G12c H00550832   9.282   8.628  -0.197  0.1216  1.4326 -2.2021
  2744G12c C01250833   9.343   8.706  -0.006  0.3873  0.2891  0.8288
  2744G12c C01750834   9.420   8.594   0.050  0.1301 -0.1472 -0.2722
  2744G12c O00250835   9.365   8.468   0.045  0.5259  1.2576 -0.3261
  2744G12c H00450836   9.395   8.462   0.135  1.5226 -0.6206 -0.7523
  2744G12c C01850837   9.540   8.616   0.124  0.8838 -0.0137 -1.3779
  2744G12c O00150838   9.594   8.743   0.116 -0.4655  0.8810 -0.6665
  2744G12c H00350839   9.687   8.756   0.106 -0.3266  0.8129  0.5162
  2744G12c C01950840   9.621   8.494   0.178 -0.2203  0.6070  1.3206
  2744G12c H00250841   9.573   8.404   0.140 -3.4265 -1.3350  8.9451
  2744G12c H00150842   9.700   8.485   0.103 -3.0029  7.1465 -2.8546
  2744G12c O00050843   9.673   8.507   0.307  0.7072  0.3723 -0.0946
  2744G12c C01A50844   9.599   8.487   0.423 -0.7653  0.5314  0.3688
  2744G12c C02K50845   9.653   8.397   0.517 -2.2007  0.0399 -1.4194
  2744G12c O00G50846   9.787   8.364   0.519  1.4394  0.2947 -1.2086
  2744G12c C02M50847   9.900   8.469   0.511  1.7537  1.3151 -0.6711
  2744G12c H01G50848   9.888   8.525   0.417 -2.1179  6.1698  2.4703
  2744G12c H01F50849   9.942   8.525   0.594 -1.4785 -1.2438  2.8499
  2744G12c H01E50850   9.989   8.408   0.525  3.1602  3.9503  2.3015
  2744G12c C02J50851   9.570   8.314   0.602  1.4900 -1.3359  0.1659
  2744G12c H01H50852   9.623   8.243   0.664  3.0238  3.6057  4.8827
  2744G12c C02I50853   9.427   8.336   0.592 -1.5787 -0.3880  0.4698
  2744G12c C02N50854   9.356   8.241   0.655 -0.2415  0.4798 -0.5468
  2744G12c H01M50855   9.262   8.206   0.614  0.0204  1.2065 -1.7971
  2744G12c C02O50856   9.394   8.186   0.786 -1.6731  0.5255 -0.2457
  2744G12c H01L50857   9.500   8.176   0.804  0.0045 -1.6860 -9.0637
  2744G12c C02P50858   9.298   8.100   0.866  0.8823 -0.6576 -1.9282
  2744G12c H01K50859   9.199   8.147   0.867  4.4437  7.7364 -1.0309
  2744G12c H01J50860   9.280   8.011   0.806  4.4205 -4.0842  1.7944
  2744G12c O00H50861   9.354   8.090   0.995  1.4459 -2.2377  0.1880
  2744G12c H01I50862   9.409   8.013   1.005 -0.4333 -3.2586  3.0785
  2744G12c C02H50863   9.381   8.426   0.501 -0.5689  0.7951  0.7745
  2744G12c H01C50864   9.273   8.431   0.491 -0.3991 -2.1403 -4.8202
  2744G12c C02L50865   9.462   8.508   0.423  0.3654 -0.2252 -0.5238
  2744G12c H01D50866   9.425   8.591   0.363  0.3639 -4.4763 -6.9189
  2744G12c C01350867   9.342   8.838   0.051 -0.1109  1.1730  1.3656
  2744G12c H00050868   9.365   8.826   0.156  6.5183 -1.6913 -0.1591
  2744G12c C01450869   9.259   8.942   0.001  0.6019  0.2066  0.4314
  2744G12c C00F50870   9.212   9.063   0.077 -1.2060  2.2340 -0.2778
  2744G12c C00H50871   9.097   9.139  -0.107  0.3488 -0.8952 -1.1243
  2744G12c C00I50872   9.025   9.253  -0.164 -1.5163 -1.0868  0.4628
  2744G12c C00J50873   9.013   9.241  -0.308  0.2028  2.3409  2.5061
  2744G12c C00Z50874   9.197   8.813  -0.344 -2.2091 -0.7660 -0.0906
  2744G12c C00Y50875   9.240   8.704  -0.428  0.8798 -0.2926  0.0784
  2744G12c H00650876   9.321   8.639  -0.398 -1.0329 -4.8346 -3.9560
  2744G12c C00X50877   9.190   8.694  -0.555  0.3956 -0.2063 -0.8865
  2744G12c O00350878   9.193   8.594  -0.654 -2.0530  0.2913 -0.3030
  2744G12c C01B50879   9.183   8.455  -0.629 -1.1330 -2.0987 -0.4442
  2744G12c H00950880   9.287   8.436  -0.603 -1.6775  1.0085  4.8785
  2744G12c H00850881   9.173   8.393  -0.717  0.5388  0.2806 -2.3563
  2744G12c H00750882   9.121   8.435  -0.541  3.6552 -4.5253  2.5818
  2744G12c C00W50883   9.130   8.814  -0.616  1.5270  0.7069 -0.3743
  2744G12c O00450884   9.084   8.807  -0.750  0.8083 -0.0695  1.6984
  2744G12c C01C50885   8.961   8.860  -0.766 -0.2121  0.1709  0.1587
  2744G12c H00A50886   8.892   8.801  -0.825 -4.3339  4.8073 -0.0244
  2744G12c C00P50887   8.939   8.991  -0.708  1.3424 -0.6618  0.8152
  2744G12c C00O50888   8.820   9.061  -0.744  0.0222  0.9814  0.1236
  2744G12c C01D50889   8.746   9.006  -0.858 -0.1699 -0.6171  0.6917
  2744G12c H00S50890   8.774   8.925  -0.924  2.1765 -2.1444  3.4788
  2744G12c C01E50891   8.610   9.040  -0.876  1.0131  0.2412 -1.4046
  2744G12c O00850892   8.534   9.001  -0.989  0.9390  0.3842 -0.2058
  2744G12c C01V50893   8.569   9.018  -1.121  0.5319 -1.1638 -0.2875
  2744G12c C01Z50894   8.460   8.945  -1.205 -0.0407  0.4305  1.7605
  2744G12c H00R50895   8.489   8.887  -1.293 -0.8213 -4.3711  4.4982
  2744G12c H00Q50896   8.416   8.882  -1.129  1.7060  0.8684  3.1702
  2744G12c O00950897   8.363   9.041  -1.267 -0.2143 -0.9244 -1.2600
  2744G12c H00P50898   8.285   8.989  -1.273 -3.3199  2.4950  5.0183
  2744G12c C01W50899   8.659   9.099  -1.166 -1.3307 -0.1703 -0.8952
  2744G12c H00O50900   8.704   9.163  -1.091 -7.2484  2.9051  0.3562
  2744G12c C01X50901   8.670   9.117  -1.321  0.4024  0.0071  1.5714
  2744G12c H00N50902   8.636   9.036  -1.386 -1.0911  3.6677 -2.5285
  2744G12c H00M50903   8.609   9.190  -1.375 -1.5870 -2.8896 -0.2947
  2744G12c C01Y50904   8.825   9.134  -1.344 -2.1704  1.2669  0.1621
  2744G12c C02D50905   8.887   9.085  -1.455  0.0390  0.0107  0.4163
  2744G12c H01950906   8.828   9.013  -1.511 -1.9123  1.1788  0.9263
  2744G12c C02C50907   9.036   9.090  -1.459  0.8351  0.4801 -1.6649
  2744G12c H01A50908   9.096   9.043  -1.536 -2.7283 -4.9840 -1.3995
  2744G12c C02B50909   9.112   9.143  -1.352  1.1666  0.5621  1.6619
  2744G12c O00E50910   9.246   9.147  -1.359 -0.4661  0.4793 -0.0943
  2744G12c H01B50911   9.272   9.158  -1.269  3.2970  1.9087 -1.2607
  2744G12c C02F50912   9.048   9.174  -1.238 -1.0269  1.5815  1.1361
  2744G12c O00F50913   9.121   9.205  -1.117 -0.6565 -0.1782 -0.4588
  2744G12c C02G50914   9.091   9.110  -1.001  1.0694 -0.2208  0.3757
  2744G12c H01750915   8.993   9.069  -1.024  0.6876 -0.7657  2.8779
  2744G12c H01650916   9.161   9.035  -1.039  0.5073 -0.8369  0.5603
  2744G12c H01550917   9.115   9.170  -0.914  2.8811 -0.3417 -0.0086
  2744G12c C02E50918   8.911   9.182  -1.242 -1.8942 -0.5254 -0.5816
  2744G12c H01850919   8.868   9.220  -1.151 -4.6373 -2.5295 -0.9850
  2744G12c C01F50920   8.547   9.118  -0.775 -0.4573 -0.2431  1.0123
  2744G12c C01G50921   8.421   9.105  -0.747  0.6312  1.2723 -0.5074
  2744G12c H00L50922   8.355   9.031  -0.789  2.6403 -1.2096  0.5988
  2744G12c C01H50923   8.383   9.162  -0.614 -1.0721  0.0050 -0.7126
  2744G12c H00B50924   8.293   9.139  -0.560 -0.1509 -1.1096  0.3650
  2744G12c C01I50925   8.470   9.265  -0.545  1.0288  1.5359  1.2689
  2744G12c C01U50926   8.631   9.208  -0.713  0.1917 -3.6896  0.9209
  2744G12c C00S50927   9.067   9.139  -0.384  1.5609  0.1842 -0.7635
  2744G12c C00K50928   8.909   9.306  -0.367 -0.3612  0.3031 -1.5490
  2744G12c C00N50929   8.764   9.183  -0.691 -0.1469 -2.1864 -0.0908
  2744G12c C00050930   8.573   9.319  -0.629 -0.3823 -0.4880  2.0534
  2744G12c C01J50931   8.505   9.273  -0.412 -2.2394  0.7563  1.8820
  2744G12c C01K50932   8.403   9.253  -0.313  0.0037 -1.0771 -0.8922
  2744G12c C01P50933   8.259   9.256  -0.315 -0.5786  0.7720  0.2490
  2744G12c C01Q50934   8.192   9.322  -0.421  1.2626  2.5106  1.9359
  2744G12c H00G50935   8.249   9.398  -0.474  1.2792  1.4621  0.4296
  2744G12c C01R50936   8.069   9.302  -0.434  0.1415 -0.1776  0.9179
  2744G12c H00F50937   8.008   9.233  -0.378 -2.9390  7.4910  8.0416
  2744G12c C01S50938   7.995   9.381  -0.537  1.4163 -0.9367 -2.4247
  2744G12c H00E50939   7.925   9.313  -0.587  1.4040 -2.9629  0.2477
  2744G12c H00D50940   7.943   9.458  -0.480  1.6593  2.8373 -7.0119
  2744G12c O00550941   8.031   9.448  -0.643  0.2084 -0.5778 -0.8674
  2744G12c H00C50942   7.999   9.427  -0.729  5.3233  4.5847 -4.4267
  2744G12c C01O50943   8.193   9.237  -0.196  1.3050 -0.9405 -0.9438
  2744G12c H00H50944   8.086   9.234  -0.204  0.1201  8.3702  3.6995
  2744G12c C01N50945   8.258   9.219  -0.075  0.8384 -0.7336  0.7451
  2744G12c O00650946   8.167   9.200   0.002 -0.7497 -0.3689  0.5425
  2744G12c C01T50947   8.202   9.163   0.148 -0.7016 -2.0620 -2.2064
  2744G12c H00K50948   8.297   9.170   0.199 -1.3477 -0.2524 -1.2010
  2744G12c H00J50949   8.161   9.062   0.161  0.4971 -2.3497 -0.5693
  2744G12c H00I50950   8.134   9.239   0.186 -2.2688 -3.6699 -1.6945
  2744G12c C01M50951   8.390   9.262  -0.068 -0.9873 -1.3031  2.5795
  2744G12c C02050952   8.819   9.388  -0.269 -0.1322 -0.4145  0.0134
  2744G12c C02150953   8.863   9.413  -0.125  0.3332  0.6941 -0.5472
  2744G12c C01L50954   8.458   9.298  -0.185  0.4055  0.7664 -0.1766
  2744G12c O00750955   8.439   9.305   0.054  0.7307  1.5291  1.0315
  2744G12c C02250956   8.767   9.398  -0.016 -1.6778  0.4262  0.5014
  2744G12c C02350957   8.976   9.347  -0.073  0.3760  1.2064 -0.4771
  2744G12c C00G50958   9.107   9.142   0.041  0.8268  1.1033  2.2002
  2744G12c C00E50959   9.245   9.077   0.214  0.5082 -0.5046 -0.2816
  2744G12c O00A50960   9.359   9.022   0.259  0.1546 -0.6307 -0.3070
  2744G12c C02450961   9.437   9.075   0.358  1.1703  2.0873 -0.4845
  2744G12c H00V50962   9.486   9.169   0.331 -3.6320  4.6015 -1.0013
  2744G12c H00U50963   9.493   9.012   0.427  1.0185  0.7462 -1.5827
  2744G12c H00T50964   9.367   9.129   0.422 -0.3550 -1.7083  1.1987
  2754G12c C00D50965  10.601   2.447   7.797  1.8936 -0.2227 -2.0692
  2754G12c O00B50966  10.668   2.376   7.893 -0.3838  0.8733  1.2696
  2754G12c C02550967  10.693   2.240   7.850 -0.9780 -1.7918 -0.4958
  2754G12c C02650968  10.808   2.216   7.769 -0.1730 -0.0364  1.4431
  2754G12c H00Y50969  10.895   2.271   7.805  0.4071  0.5634 -0.8064
  2754G12c H00X50970  10.800   2.269   7.674 -2.9260 -2.5839  0.1662
  2754G12c O00C50971  10.841   2.084   7.702 -0.0056 -0.9007  1.2408
  2754G12c H00W50972  10.776   2.015   7.697  0.5193 -1.2139 -5.2204
  2754G12c C02750973  10.631   2.147   7.905  0.8489  1.0910  1.2861
  2754G12c O00D50974  10.630   2.008   7.869 -1.0747  1.1109 -0.3448
  2754G12c H00Z50975  10.692   1.959   7.920 -3.3445 -0.9023  0.6066
  2754G12c C02850976  10.531   2.182   8.022  0.4323 -0.0853  0.3228
  2754G12c C02950977  10.558   2.254   8.137  0.1579 -0.0915  2.1840
  2754G12c H01050978  10.666   2.262   8.135  0.2846 -0.1886  5.2570
  2754G12c C02T50979  10.462   2.270   8.243  0.0062 -1.5232 -0.9993
  2754G12c H01O50980  10.497   2.331   8.325 -3.5972 -1.2749  0.4381
  2754G12c C02S50981  10.339   2.218   8.241  1.9887  0.1411 -1.6859
  2754G12c O00J50982  10.242   2.248   8.343  0.9705  0.4437  0.1109
  2754G12c H01P50983  10.165   2.287   8.305  2.2454  2.6021 -0.3279
  2754G12c C02R50984  10.301   2.163   8.110 -1.2660 -0.5335 -0.4921
  2754G12c O00I50985  10.170   2.128   8.098 -0.6596  0.2387  1.2215
  2754G12c C02Q50986  10.092   2.173   7.988 -1.7344  0.4890 -0.6182
  2754G12c H01N50987  10.128   2.107   7.909  5.1648  0.1870  2.3729
  2754G12c H01R50988  10.104   2.281   7.978 -3.7721  0.7939 -0.0507
  2754G12c H01Q50989  10.001   2.138   8.037  1.3322 -1.9171  3.7969
  2754G12c C02A50990  10.388   2.184   8.003 -0.7473 -0.9090 -0.0572
  2754G12c H01150991  10.334   2.179   7.909  1.6619 -1.5518 -1.4732
  2754G12c C00C50992  10.494   2.388   7.736 -0.5772  2.2650  0.0110
  2754G12c H01250993  10.465   2.284   7.737 -0.7592  2.2969  3.7897
  2754G12c C00B50994  10.402   2.460   7.651  0.0751 -0.4735  0.6610
  2754G12c C00A50995  10.283   2.414   7.591 -2.1338  0.0822  0.1707
  2754G12c C00950996  10.200   2.295   7.603  0.1394  1.5503  0.2552
  2754G12c C00850997  10.230   2.172   7.657 -0.2584 -0.0907  0.4888
  2754G12c H01350998  10.306   2.137   7.725  0.6763 -1.8713 -1.4071
  2754G12c C00750999  10.157   2.065   7.628  1.0490 -0.5337 -0.1057
  2754G12c H01451000  10.213   1.975   7.646  3.8070  0.9713 -0.8162
  2754G12c C00651001  10.068   2.081   7.507  0.0909  1.7116 -0.1934
  2754G12c C00551002  10.042   2.213   7.471  0.4544 -0.6600 -0.6414
  2754G12c C00451003   9.980   2.245   7.355  1.6334 -0.4647 -2.0838
  2754G12c C00351004   9.980   2.377   7.321  0.7970 -1.0544 -1.7373
  2754G12c C00251005   9.932   2.392   7.184 -0.6293  0.4279  0.5252
  2754G12c C00151006   9.913   2.504   7.091  0.5169 -0.3509 -0.0632
  2754G12c C00M51007  10.005   2.615   7.085  1.5278 -0.9191  0.1777
  2754G12c C00L51008  10.079   2.677   7.197 -0.2820 -0.3064  0.3430
  2754G12c C00R51009  10.183   2.780   7.190 -1.0657 -0.0354 -0.1607
  2754G12c C00Q51010  10.250   2.839   7.080  0.5308  0.6678 -2.3601
  2754G12c C00V51011  10.360   2.913   7.127  0.2108 -1.7638 -0.5878
  2754G12c C00U51012  10.418   2.908   7.258 -0.5082  0.5579  0.3333
  2754G12c C00T51013  10.372   2.817   7.338  0.5684 -0.0370  0.1248
  2754G12c C01651014  10.424   2.769   7.455  0.2246  0.7472  0.5472
  2754G12c C01551015  10.552   2.825   7.487  1.0212 -0.3328  0.5823
  2754G12c C01051016  10.596   2.942   7.411 -0.1909  0.1738  0.7074
  2754G12c C01151017  10.698   3.008   7.461 -1.1614 -0.7349 -0.9147
  2754G12c H00551018  10.745   3.076   7.392 -6.6527  0.7240 -3.4219
  2754G12c C01251019  10.784   2.945   7.561  0.7624 -0.4140  0.7049
  2754G12c C01751020  10.899   3.006   7.570 -0.3235 -0.2590  1.9308
  2754G12c O00251021  10.971   3.030   7.449  1.1148  0.8213 -0.2949
  2754G12c H00451022  11.034   2.964   7.423  0.9929  1.6848 -2.9929
  2754G12c C01851023  10.936   3.079   7.674  0.0342 -0.7704 -0.6809
  2754G12c O00151024  10.859   3.100   7.781  1.1618  1.2556  0.5968
  2754G12c H00351025  10.827   3.028   7.833 -1.2501  2.5317  0.9486
  2754G12c C01951026  11.064   3.148   7.694 -0.2145 -0.2216 -0.1797
  2754G12c H00251027  11.088   3.186   7.594 -2.0402  2.0572  0.2020
  2754G12c H00151028  11.023   3.239   7.737 -2.0756 -1.2808  0.3115
  2754G12c O00051029  11.166   3.061   7.762 -0.7601 -0.7103 -0.4379
  2754G12c C01A51030  11.126   2.970   7.838  0.1376 -0.8805  1.1824
  2754G12c C02K51031  11.122   2.832   7.798 -0.4301  1.6038 -2.1311
  2754G12c O00G51032  11.102   2.806   7.660 -0.5884 -1.2444 -0.5114
  2754G12c C02M51033  11.209   2.712   7.608 -0.4752  1.4989  0.6441
  2754G12c H01G51034  11.179   2.607   7.600 -2.2999  2.2996 -4.9626
  2754G12c H01F51035  11.301   2.711   7.666  1.5995 -6.6490 -2.0960
  2754G12c H01E51036  11.227   2.723   7.502  7.3762 -0.8683  1.4499
  2754G12c C02J51037  11.100   2.733   7.893  0.1188  1.2700  1.4729
  2754G12c H01H51038  11.091   2.634   7.850  4.3042  4.5289 -8.4777
  2754G12c C02I51039  11.064   2.778   8.027  0.1299  0.7919 -0.8258
  2754G12c C02N51040  11.023   2.678   8.120  1.5987 -0.8216 -0.0520
  2754G12c H01M51041  10.988   2.593   8.063 -2.2858  2.1008 -2.2938
  2754G12c C02O51042  11.056   2.646   8.244 -0.6504 -0.7387  1.0922
  2754G12c H01L51043  11.030   2.552   8.291 -3.5827 -0.5555 -0.0144
  2754G12c C02P51044  11.154   2.727   8.344  0.9759  0.4092 -2.2062
  2754G12c H01K51045  11.202   2.667   8.422  2.9742  2.3247 -1.9131
  2754G12c H01J51046  11.212   2.806   8.295  5.1390 -0.5927  0.7395
  2754G12c O00H51047  11.095   2.791   8.449 -0.8500 -0.4200 -0.4499
  2754G12c H01I51048  11.072   2.877   8.417  0.6740 -1.1199 -3.6669
  2754G12c C02H51049  11.098   2.915   8.066  0.6860 -0.4561 -1.1414
  2754G12c H01C51050  11.043   2.948   8.153  0.3863 -5.5136  0.7586
  2754G12c C02L51051  11.123   3.006   7.968 -0.3835 -0.7328 -0.1596
  2754G12c H01D51052  11.141   3.104   8.008 -0.5121  1.9049 -6.1573
  2754G12c C01351053  10.747   2.834   7.619  0.8027 -0.5164 -1.6178
  2754G12c H00051054  10.831   2.794   7.674  3.8231  2.4657 -3.8343
  2754G12c C01451055  10.629   2.770   7.587  1.3957 -0.3823  0.0840
  2754G12c C00F51056  10.571   2.653   7.653  0.3135 -0.5457  1.0831
  2754G12c C00H51057  10.378   2.651   7.514  1.0381 -0.9512  0.3430
  2754G12c C00I51058  10.251   2.621   7.488  0.7824 -0.7011  0.4970
  2754G12c C00J51059  10.177   2.702   7.404  0.2384 -1.0673 -0.6561
  2754G12c C00Z51060  10.533   2.974   7.290  1.7886  0.5530  0.1473
  2754G12c C00Y51061  10.568   3.085   7.196  1.7161 -0.3680 -0.3713
  2754G12c H00651062  10.647   3.148   7.236  0.8636 -1.1868  2.7975
  2754G12c C00X51063  10.514   3.100   7.072 -0.2111 -0.5395 -0.3465
  2754G12c O00351064  10.554   3.223   7.025  0.4269  0.0773  0.1521
  2754G12c C01B51065  10.598   3.278   6.885 -1.6356  0.8285  0.7424
  2754G12c H00951066  10.558   3.372   6.847 -0.9257  1.3709  1.3390
  2754G12c H00851067  10.703   3.304   6.872 -1.8702 -0.6258 -5.8020
  2754G12c H00751068  10.614   3.202   6.808  0.6985  1.6905  0.3305
  2754G12c C00W51069  10.413   3.019   7.027 -0.1928 -0.6797 -0.3543
  2754G12c O00451070  10.387   3.026   6.897  0.5034  0.0647  1.0982
  2754G12c C01C51071  10.286   2.922   6.859  1.0344 -0.8326 -0.7893
  2754G12c H00A51072  10.255   2.920   6.756  1.9727  1.3765 -1.1697
  2754G12c C00P51073  10.233   2.819   6.951  0.0221  0.4681  3.0095
  2754G12c C00O51074  10.163   2.700   6.888  0.6815 -0.7557 -0.6686
  2754G12c C01D51075  10.192   2.662   6.761 -1.1359 -0.2083 -3.0053
  2754G12c H00S51076  10.275   2.719   6.721  2.8936  2.0328  6.9376
  2754G12c C01E51077  10.164   2.521   6.717 -1.1834  0.1931 -0.3544
  2754G12c O00851078  10.252   2.469   6.617 -0.5419 -0.9747 -0.9403
  2754G12c C01V51079  10.312   2.344   6.624 -1.9468 -0.8080  0.4309
  2754G12c C01Z51080  10.288   2.230   6.517  0.3805 -0.2348 -0.8424
  2754G12c H00R51081  10.293   2.125   6.549  3.2304  0.4919  1.3595
  2754G12c H00Q51082  10.182   2.223   6.494  0.3858  4.7934 -2.9721
  2754G12c O00951083  10.340   2.278   6.389  0.1967 -0.1357 -2.2178
  2754G12c H00P51084  10.343   2.373   6.388 -3.8378  0.1982  1.7746
  2754G12c C01W51085  10.390   2.312   6.724 -0.4169 -0.9537 -1.9424
  2754G12c H00O51086  10.410   2.206   6.734 -1.2039 -0.8713  0.9247
  2754G12c C01X51087  10.458   2.384   6.834 -1.1358  0.4710 -0.4683
  2754G12c H00N51088  10.414   2.476   6.871 -0.2230  1.1519 -1.0697
  2754G12c H00M51089  10.474   2.323   6.922  1.6942  1.6263 -0.1283
  2754G12c C01Y51090  10.604   2.420   6.793  1.3971  0.7731 -0.7091
  2754G12c C02D51091  10.696   2.315   6.764  1.1203 -0.1008  0.4768
  2754G12c H01951092  10.683   2.208   6.774  8.2064 -0.8909  4.7867
  2754G12c C02C51093  10.836   2.360   6.762 -0.4036  0.5740  0.0566
  2754G12c H01A51094  10.918   2.290   6.762 -0.4385  0.4194 -3.9647
  2754G12c C02B51095  10.875   2.501   6.771  0.9027  0.3304  0.1986
  2754G12c O00E51096  11.004   2.521   6.745  0.8052  0.6922 -2.9079
  2754G12c H01B51097  11.075   2.461   6.762 -1.7229 -2.3061 -2.4299
  2754G12c C02F51098  10.769   2.591   6.780 -0.7713 -1.7835 -0.1056
  2754G12c O00F51099  10.824   2.716   6.810  0.1561 -0.2011  0.7066
  2754G12c C02G51100  10.744   2.788   6.890 -1.4777  0.8921  0.9678
  2754G12c H01751101  10.718   2.730   6.978 -1.9238 -2.7379 -1.4563
  2754G12c H01651102  10.676   2.845   6.826 -1.2149  0.0324 -0.0874
  2754G12c H01551103  10.779   2.882   6.933 -4.7759 -0.2435  6.8006
  2754G12c C02E51104  10.644   2.554   6.810 -1.4806  1.6875 -0.6085
  2754G12c H01851105  10.586   2.612   6.880  3.4027  3.0291  2.5851
  2754G12c C01F51106  10.074   2.437   6.786  0.3141 -0.0929 -0.7766
  2754G12c C01G51107  10.045   2.302   6.776  2.0402 -0.7474 -0.1629
  2754G12c H00L51108  10.087   2.255   6.689 -7.0549 -6.3769 -2.1106
  2754G12c C01H51109   9.956   2.225   6.867  3.9692  1.0099 -1.7282
  2754G12c H00B51110   9.953   2.117   6.858  0.2491  0.5710  2.8710
  2754G12c C01I51111   9.908   2.308   6.971 -0.9045  1.1453 -2.3404
  2754G12c C01U51112  10.012   2.511   6.891  1.8869  0.7071  0.5726
  2754G12c C00S51113  10.242   2.775   7.319 -0.0374 -1.8914  0.0496
  2754G12c C00K51114  10.083   2.629   7.326 -2.3646  0.7229 -1.9124
  2754G12c C00N51115  10.073   2.611   6.957  0.2687  1.2082 -0.6112
  2754G12c C00051116   9.927   2.438   6.974 -0.5821  0.0206  1.0892
  2754G12c C01J51117   9.882   2.281   7.108  0.9092  0.5098 -0.9564
  2754G12c C01K51118   9.875   2.147   7.152 -0.2989  1.0815 -0.2755
  2754G12c C01P51119   9.820   2.035   7.084  0.8781  1.3795 -0.2022
  2754G12c C01Q51120   9.718   2.018   6.982 -0.5931  1.0285 -0.5677
  2754G12c H00G51121   9.650   2.085   7.031 -0.7810  2.4803 -2.7801
  2754G12c C01R51122   9.729   1.979   6.850  0.9001 -0.8603  0.9603
  2754G12c H00F51123   9.832   1.969   6.820  1.2703  2.2699  0.9636
  2754G12c C01S51124   9.633   2.002   6.734  0.5794  0.0316  0.2840
  2754G12c H00E51125   9.685   2.027   6.642  1.3708  1.8485  1.2105
  2754G12c H00D51126   9.588   1.904   6.718 -1.6531  1.6915 -4.3422
  2754G12c O00551127   9.514   2.093   6.744 -0.0871 -0.1133  0.8104
  2754G12c H00C51128   9.546   2.175   6.777  1.6840  1.9960 -5.3466
  2754G12c C01O51129   9.872   1.905   7.115 -0.8682  0.4358  0.2324
  2754G12c H00H51130   9.841   1.819   7.057  2.9338  1.2556 -3.2637
  2754G12c C01N51131   9.933   1.871   7.236  0.2213  0.2921 -1.1502
  2754G12c O00651132   9.978   1.748   7.258 -1.0559 -1.9159  1.1118
  2754G12c C01T51133   9.893   1.674   7.348 -0.9158  0.0999 -0.3622
  2754G12c H00K51134   9.952   1.590   7.385 -0.1031 -0.8457 -3.6333
  2754G12c H00J51135   9.847   1.607   7.276  5.5091 -4.9762 -0.1807
  2754G12c H00I51136   9.808   1.723   7.395 -4.5673 -3.8299 -2.5379
  2754G12c C01M51137   9.958   1.994   7.318  0.2285  2.1323 -0.9765
  2754G12c C02051138  10.050   2.493   7.387 -0.3381  1.3109  1.7180
  2754G12c C02151139  10.074   2.449   7.525  0.3827  0.9487  0.8073
  2754G12c C01L51140   9.937   2.135   7.278  0.7294  1.1820  0.1093
  2754G12c O00751141  10.034   1.966   7.436 -0.4328 -0.3627 -0.6698
  2754G12c C02251142  10.083   2.320   7.542 -0.6815 -1.5628  0.5866
  2754G12c C02351143  10.200   2.512   7.564 -0.1171  0.5373  0.6956
  2754G12c C00G51144  10.449   2.599   7.615 -2.6405 -0.2318  0.5489
  2754G12c C00E51145  10.625   2.593   7.768  0.4006 -1.0139 -1.7007
  2754G12c O00A51146  10.704   2.674   7.852 -0.7215 -0.1668 -0.2714
  2754G12c C02451147  10.722   2.651   7.986 -0.5872  1.0061  0.2071
  2754G12c H00V51148  10.734   2.742   8.046  2.0789  2.1273 -1.9140
  2754G12c H00U51149  10.792   2.569   8.006  0.7827  2.6322  2.4424
  2754G12c H00T51150  10.629   2.599   8.004  0.6699  0.1395  5.0789
  2764G12c C00D51151   7.493   6.713  10.058  0.2602  1.4701  1.4478
  2764G12c O00B51152   7.576   6.664   9.955 -0.2372  0.4328 -0.6567
  2764G12c C02551153   7.625   6.538   9.926 -0.7931 -0.8390  1.1678
  2764G12c C02651154   7.725   6.488  10.016 -0.5519  0.7318 -0.2259
  2764G12c H00Y51155   7.722   6.394  10.071  1.8842  1.9293  2.0940
  2764G12c H00X51156   7.700   6.565  10.089  1.2085  1.9831 -0.8937
  2764G12c O00C51157   7.873   6.491   9.995  1.8325  0.1131 -0.4900
  2764G12c H00W51158   7.893   6.442   9.916 -1.0641  0.2138 -1.3177
  2764G12c C02751159   7.545   6.480   9.839 -0.6323 -0.0788  0.0413
  2764G12c O00D51160   7.429   6.525   9.789  0.0725  0.8880  1.3144
  2764G12c H00Z51161   7.396   6.598   9.839 -0.9656  2.6075 -1.7541
  2764G12c C02851162   7.592   6.360   9.788  1.1790  1.8060 -2.0134
  2764G12c C02951163   7.717   6.340   9.724 -0.2853  0.2785 -2.7983
  2764G12c H01051164   7.777   6.429   9.712  5.6051 -2.0937  5.0604
  2764G12c C02T51165   7.743   6.203   9.678 -1.0016 -1.1452 -0.4113
  2764G12c H01O51166   7.846   6.180   9.653  0.9755  3.8578  2.4300
  2764G12c C02S51167   7.652   6.098   9.683 -0.1632  0.1636 -0.3201
  2764G12c O00J51168   7.695   5.972   9.641 -1.7309  0.6431  0.1076
  2764G12c H01P51169   7.744   5.915   9.698  0.7855 -1.4651 -3.9739
  2764G12c C02R51170   7.528   6.111   9.735 -1.1163  0.8029 -0.4286
  2764G12c O00I51171   7.445   6.007   9.745  0.4280  0.8234 -0.4465
  2764G12c C02Q51172   7.340   6.019   9.845  1.2589 -1.0903  1.7423
  2764G12c H01N51173   7.318   5.919   9.885  1.6390 -1.3135  1.3951
  2764G12c H01R51174   7.245   6.035   9.794  0.9836  1.1008  2.8746
  2764G12c H01Q51175   7.354   6.106   9.909  2.2674  2.6563 -3.3052
  2764G12c C02A51176   7.499   6.255   9.772  0.7434  0.5586 -0.5585
  2764G12c H01151177   7.394   6.275   9.790  0.0230 -0.6610 -3.1777
  2764G12c C00C51178   7.407   6.623  10.111  1.6802  1.6936 -0.8752
  2764G12c H01251179   7.375   6.524  10.084 -3.7041  3.2812 -0.9269
  2764G12c C00B51180   7.336   6.651  10.221  0.5315 -0.0381  1.3520
  2764G12c C00A51181   7.279   6.539  10.286 -0.6081 -0.9681  0.1382
  2764G12c C00951182   7.183   6.439  10.252 -0.2139  0.7041 -0.1092
  2764G12c C00851183   7.089   6.442  10.154 -0.0793  1.4511  0.5827
  2764G12c H01351184   7.127   6.476  10.059 -0.7779  3.5072  1.0124
  2764G12c C00751185   6.960   6.381  10.157 -1.3477 -0.3711 -2.7290
  2764G12c H01451186   6.888   6.372  10.077  1.3211 -5.7443 -4.7682
  2764G12c C00651187   6.922   6.354  10.293 -0.0314  0.5898  1.3284
  2764G12c C00551188   7.014   6.384  10.391  0.4444 -1.3649 -1.3427
  2764G12c C00451189   6.961   6.388  10.524 -0.1541  1.7216 -1.6832
  2764G12c C00351190   7.041   6.430  10.637  2.1080 -0.8714 -0.3763
  2764G12c C00251191   6.959   6.441  10.761 -0.1232  0.6386 -0.5846
  2764G12c C00151192   7.015   6.486  10.883 -0.0971  0.5700  1.0954
  2764G12c C00M51193   7.068   6.617  10.909  0.8837 -0.8574  0.2822
  2764G12c C00L51194   7.166   6.657  10.825 -2.4968 -1.4532  0.9487
  2764G12c C00R51195   7.210   6.794  10.805 -0.2969 -1.0241 -2.1553
  2764G12c C00Q51196   7.179   6.913  10.871 -0.2258 -0.7354 -1.2619
  2764G12c C00V51197   7.211   7.038  10.806 -1.1767 -0.7359 -0.6158
  2764G12c C00U51198   7.264   7.032  10.674 -0.8821 -1.6839 -2.2824
  2764G12c C00T51199   7.304   6.918  10.624  1.7214 -1.3393  0.0222
  2764G12c C01651200   7.336   6.897  10.490 -0.8258  0.7439  0.5920
  2764G12c C01551201   7.403   7.006  10.430  1.3296  1.3422 -0.8694
  2764G12c C01051202   7.405   7.134  10.493  0.1306 -0.3961  0.5309
  2764G12c C01151203   7.470   7.249  10.418  0.2979  0.0941  1.8121
  2764G12c H00551204   7.462   7.346  10.465  1.6695  0.4268  1.3742
  2764G12c C01251205   7.529   7.226  10.289  0.0317 -0.3882  0.0179
  2764G12c C01751206   7.574   7.350  10.218 -0.7151 -0.6884 -0.0623
  2764G12c O00251207   7.521   7.476  10.223  0.1556 -0.6871 -0.9705
  2764G12c H00451208   7.432   7.446  10.216 -0.8008  1.5097  0.7744
  2764G12c C01851209   7.683   7.343  10.143  0.2577 -0.8183  0.3698
  2764G12c O00151210   7.755   7.231  10.126  0.4367 -0.3939  0.5893
  2764G12c H00351211   7.846   7.244  10.148  0.7384 -2.4257  0.6993
  2764G12c C01951212   7.753   7.467  10.108  1.4485  1.4633  3.4745
  2764G12c H00251213   7.753   7.482  10.000  3.6881  0.8271  3.3673
  2764G12c H00151214   7.726   7.557  10.163 -2.1333  5.7371 -4.4375
  2764G12c O00051215   7.883   7.444  10.133  0.6068  0.3518  0.2964
  2764G12c C01A51216   7.976   7.541  10.170  0.6865  2.0999 -1.5114
  2764G12c C02K51217   8.107   7.504  10.121 -0.6553 -1.4114 -0.5700
  2764G12c O00G51218   8.138   7.388  10.059  1.0828  1.6539 -0.2997
  2764G12c C02M51219   8.124   7.265  10.120 -1.1855 -0.5033  0.1605
  2764G12c H01G51220   8.135   7.290  10.225 -0.7516 -2.9360  0.7166
  2764G12c H01F51221   8.169   7.167  10.101 -4.0587 -1.8921  0.2952
  2764G12c H01E51222   8.022   7.255  10.156 -0.4184 -1.1500  2.2204
  2764G12c C02J51223   8.210   7.597  10.141  0.3088  0.5585  1.2058
  2764G12c H01H51224   8.315   7.573  10.140 -0.9029 -5.9399  2.7837
  2764G12c C02I51225   8.163   7.718  10.206 -0.8669 -1.8343 -0.5586
  2764G12c C02N51226   8.262   7.807  10.250 -0.1660 -1.0050  1.2717
  2764G12c H01M51227   8.284   7.897  10.194 -0.6663 -3.8308 -3.7725
  2764G12c C02O51228   8.308   7.791  10.374  0.9002  1.2991  0.2905
  2764G12c H01L51229   8.331   7.693  10.414 -9.2500  0.9132  6.9371
  2764G12c C02P51230   8.359   7.910  10.439  0.3218  0.5394 -1.2227
  2764G12c H01K51231   8.449   7.924  10.378 -0.0432 -4.7440 -3.2249
  2764G12c H01J51232   8.291   7.984  10.399 -0.6440  1.3467  1.7645
  2764G12c O00H51233   8.422   7.896  10.574  0.7604  0.6129  1.4045
  2764G12c H01I51234   8.512   7.914  10.551  0.0424  5.8607  1.9489
  2764G12c C02H51235   8.034   7.772  10.221 -0.4529  0.1873 -0.0135
  2764G12c H01C51236   8.027   7.875  10.250  0.4602  1.6955 -4.6926
  2764G12c C02L51237   7.936   7.663  10.231  1.0561  0.1744  0.9561
  2764G12c H01D51238   7.837   7.690  10.265  0.4198  0.1939 -0.8472
  2764G12c C01351239   7.515   7.101  10.223  0.4647 -0.1007  1.0364
  2764G12c H00051240   7.523   7.106  10.116 -2.2024 -3.5686  0.5888
  2764G12c C01451241   7.461   6.990  10.304 -0.4099 -0.1889 -0.1457
  2764G12c C00F51242   7.451   6.869  10.236 -0.8454 -0.6873 -0.9853
  2764G12c C00H51243   7.343   6.772  10.429 -0.0915  1.5047  0.0771
  2764G12c C00I51244   7.318   6.664  10.504 -0.2850 -0.1168 -1.3645
  2764G12c C00J51245   7.285   6.678  10.640 -0.7188  1.9744  0.6505
  2764G12c C00Z51246   7.329   7.139  10.616 -1.5474  0.2548  0.5786
  2764G12c C00Y51247   7.273   7.264  10.646  0.4325  0.3619  1.4834
  2764G12c H00651248   7.283   7.360  10.597 -6.1572  1.3950  1.7326
  2764G12c C00X51249   7.204   7.287  10.767 -0.9977 -1.3529  2.1505
  2764G12c O00351250   7.176   7.414  10.810  0.2098  0.0114 -1.6693
  2764G12c C01B51251   7.047   7.435  10.864  0.9139  0.0466 -0.0509
  2764G12c H00951252   6.970   7.358  10.860 -2.9530  3.7231 -0.0694
  2764G12c H00851253   7.044   7.469  10.967 -2.4741 -2.3925  0.6962
  2764G12c H00751254   7.046   7.525  10.802 -6.3813  1.1734  1.2988
  2764G12c C00W51255   7.191   7.170  10.863  1.5837  1.3610  0.2315
  2764G12c O00451256   7.162   7.183  10.999 -1.6732 -0.2585  0.6305
  2764G12c C01C51257   7.101   7.064  11.047 -0.3635  0.3941  1.5318
  2764G12c H00A51258   7.129   7.066  11.151  2.7111  4.0403  0.7342
  2764G12c C00P51259   7.087   6.929  10.982  0.8686  1.1746  0.1173
  2764G12c C00O51260   6.991   6.824  11.010  1.6584  0.9137 -0.5271
  2764G12c C01D51261   6.874   6.874  11.083  1.6107 -1.6181  0.6867
  2764G12c H00S51262   6.882   6.978  11.113 -4.5209 -0.7262 -0.1939
  2764G12c C01E51263   6.743   6.809  11.054  0.6315 -1.8269  1.0670
  2764G12c O00851264   6.650   6.902  11.063 -0.7003 -1.0859  0.4700
  2764G12c C01V51265   6.610   6.958  10.930  0.4370 -0.7922  1.0717
  2764G12c C01Z51266   6.459   7.001  10.918 -0.3421 -0.9515  0.6761
  2764G12c H00R51267   6.439   6.957  10.820  1.2441  3.0669 -1.5900
  2764G12c H00Q51268   6.467   7.105  10.888  7.0488 -0.8977  2.0666
  2764G12c O00951269   6.391   6.957  11.026  1.8269 -0.0940  0.2871
  2764G12c H00P51270   6.413   6.871  11.057 -0.7667 -2.1602 -3.2961
  2764G12c C01W51271   6.694   6.972  10.820 -0.2725  0.4940 -0.4976
  2764G12c H00O51272   6.796   6.962  10.853 -0.5150  0.9538  0.4168
  2764G12c C01X51273   6.678   7.016  10.678 -0.6205 -1.0718 -0.0865
  2764G12c H00N51274   6.585   7.071  10.671 -1.2944 -1.4323  4.4858
  2764G12c H00M51275   6.746   7.099  10.658 -1.3062 -0.9376 -1.9003
  2764G12c C01Y51276   6.725   6.953  10.552  1.3167 -0.2414  0.1576
  2764G12c C02D51277   6.858   6.917  10.525  0.5439  0.0965 -1.0002
  2764G12c H01951278   6.921   6.923  10.612 -3.0672  9.2042  1.5013
  2764G12c C02C51279   6.910   6.870  10.403 -1.0396  0.0613  0.1512
  2764G12c H01A51280   7.007   6.823  10.397 -1.1514 -0.1265 -0.2046
  2764G12c C02B51281   6.798   6.849  10.311 -0.1480  0.3146 -1.0479
  2764G12c O00E51282   6.808   6.745  10.240  0.3809 -0.0328 -0.1487
  2764G12c H01B51283   6.725   6.715  10.206  1.9058 -1.2274 -2.9631
  2764G12c C02F51284   6.660   6.890  10.330 -0.0445  0.8993  0.5080
  2764G12c O00F51285   6.562   6.863  10.242  0.2999 -0.8435  0.4665
  2764G12c C02G51286   6.494   6.747  10.232 -0.2736  0.3334 -0.2889
  2764G12c H01751287   6.433   6.759  10.143 -3.7117 -0.6434  1.8571
  2764G12c H01651288   6.549   6.656  10.209 -2.6269  0.5588 -8.3655
  2764G12c H01551289   6.423   6.736  10.314 -0.6516 -2.7393 -0.9726
  2764G12c C02E51290   6.626   6.954  10.445  0.4527 -1.5923 -0.3723
  2764G12c H01851291   6.521   6.972  10.461  0.1911  0.7704 -4.0064
  2764G12c C01F51292   6.742   6.677  11.016  0.3986  2.2899  0.6945
  2764G12c C01G51293   6.644   6.594  10.984 -0.4169 -1.5874  0.5183
  2764G12c H00L51294   6.550   6.647  10.993 -0.0939  0.0275 -4.0425
  2764G12c C01H51295   6.661   6.468  10.912  0.4228 -0.0101  0.1804
  2764G12c H00B51296   6.586   6.426  10.845 -2.9479 -0.2395  3.9340
  2764G12c C01I51297   6.792   6.421  10.898 -0.0877  0.1305  0.6889
  2764G12c C01U51298   6.870   6.620  10.999 -1.9853  0.5937  0.3135
  2764G12c C00S51299   7.269   6.811  10.686  0.2101 -0.6877  0.5116
  2764G12c C00K51300   7.205   6.591  10.707 -1.3049 -1.6877  0.8302
  2764G12c C00N51301   6.984   6.699  10.979 -0.5790  0.9028 -0.7300
  2764G12c C00051302   6.891   6.497  10.952 -0.6395  1.0409  0.0569
  2764G12c C01J51303   6.844   6.366  10.787  1.1597 -1.0821  0.0258
  2764G12c C01K51304   6.764   6.325  10.666 -0.5439 -0.1224 -0.5464
  2764G12c C01P51305   6.622   6.273  10.667 -1.2863 -3.9704  0.2885
  2764G12c C01Q51306   6.583   6.194  10.784  1.1319 -2.1890 -0.6287
  2764G12c H00G51307   6.645   6.120  10.833 -3.3878 -7.1689 -2.1096
  2764G12c C01R51308   6.441   6.184  10.791  0.8633 -2.0355 -0.6183
  2764G12c H00F51309   6.378   6.263  10.753  1.0908 -0.6286  1.8560
  2764G12c C01S51310   6.359   6.073  10.851  0.4441 -0.1142 -0.7907
  2764G12c H00E51311   6.386   5.970  10.828 -0.5760 -0.2342 -1.4592
  2764G12c H00D51312   6.436   6.091  10.927 -4.0747  2.2852  3.5461
  2764G12c O00551313   6.234   6.131  10.865 -0.3286  1.2622  0.5470
  2764G12c H00C51314   6.224   6.134  10.958  0.0865  0.2038  0.6342
  2764G12c C01O51315   6.554   6.248  10.550  1.0510 -0.4629  1.7586
  2764G12c H00H51316   6.495   6.158  10.541 -0.5976  0.8611 -1.5613
  2764G12c C01N51317   6.600   6.274  10.422 -0.7447  0.1572  0.1733
  2764G12c O00651318   6.538   6.223  10.299  0.0953  0.0797 -0.9989
  2764G12c C01T51319   6.416   6.133  10.310 -1.7337 -0.0644 -1.3087
  2764G12c H00K51320   6.402   6.066  10.395  0.5953 -2.4514 -2.7321
  2764G12c H00J51321   6.319   6.182  10.314 -1.2476  1.1572 -3.7757
  2764G12c H00I51322   6.410   6.095  10.208 -3.4757  0.2358 -1.3300
  2764G12c C01M51323   6.736   6.310  10.435 -0.2497 -1.2404 -1.1383
  2764G12c C02051324   7.157   6.494  10.616  2.4860  0.4245  1.6041
  2764G12c C02151325   7.220   6.452  10.500  0.0489 -0.8154 -0.4850
  2764G12c C01L51326   6.826   6.347  10.543  0.1340 -0.0995  1.2599
  2764G12c O00751327   6.794   6.311  10.312 -1.6790  0.7224 -0.5933
  2764G12c C02251328   7.151   6.406  10.376 -0.2778 -0.8144 -0.2762
  2764G12c C02351329   7.295   6.546  10.431  0.4992 -0.5585  1.2154
  2764G12c C00G51330   7.375   6.768  10.298 -0.3778  0.5109 -1.5485
  2764G12c C00E51331   7.529   6.842  10.120  0.2919 -0.0175  0.9114
  2764G12c O00A51332   7.631   6.928  10.097 -0.7163  1.9567 -0.2156
  2764G12c C02451333   7.752   6.878  10.024  2.2813 -0.7440 -0.4169
  2764G12c H00V51334   7.706   6.876   9.925  0.9332  0.6292  0.1666
  2764G12c H00U51335   7.840   6.941  10.009  0.1044  4.0234  5.0805
  2764G12c H00T51336   7.793   6.780  10.051  0.1716 -2.4200 -2.9669
  2774G12c C00D51337   7.533   7.482   5.888 -0.3076 -0.5375 -0.4557
  2774G12c O00B51338   7.658   7.507   5.959 -0.0439 -0.4814 -0.6580
  2774G12c C02551339   7.645   7.563   6.077  0.1119 -0.5099 -0.5244
  2774G12c C02651340   7.685   7.719   6.051 -1.5187  0.0197 -1.0340
  2774G12c H00Y51341   7.790   7.748   6.047 -2.2012  3.1522  2.0011
  2774G12c H00X51342   7.653   7.779   6.136 -3.0073  0.4156 -1.8638
  2774G12c O00C51343   7.620   7.768   5.933  1.1474 -1.7517 -0.5707
  2774G12c H00W51344   7.640   7.704   5.865 -5.1426 -1.3953 -3.1197
  2774G12c C02751345   7.626   7.494   6.199  0.6096 -0.0981 -0.7699
  2774G12c O00D51346   7.658   7.365   6.232 -0.8126  0.6302 -1.7538
  2774G12c H00Z51347   7.587   7.348   6.292  4.5953 -1.1382  4.7486
  2774G12c C02851348   7.592   7.586   6.327 -0.8296  2.2280  0.2433
  2774G12c C02951349   7.508   7.529   6.426  1.0721 -0.5504 -0.6029
  2774G12c H01051350   7.486   7.424   6.419 -0.8712 -0.2731  0.6733
  2774G12c C02T51351   7.488   7.595   6.539  0.0951  0.2729 -0.3771
  2774G12c H01O51352   7.422   7.551   6.611  1.4570  3.3919  2.9759
  2774G12c C02S51353   7.560   7.706   6.567 -0.2524 -0.3992  0.4018
  2774G12c O00J51354   7.541   7.752   6.690  0.2715 -0.4284  0.1171
  2774G12c H01P51355   7.462   7.700   6.692  0.2559 -0.4135 -0.1104
  2774G12c C02R51356   7.666   7.748   6.479 -0.3517  0.1255 -0.2224
  2774G12c O00I51357   7.762   7.850   6.492 -0.0618 -1.0090 -1.3542
  2774G12c C02Q51358   7.757   7.936   6.599 -1.2062 -0.5418  0.9346
  2774G12c H01N51359   7.784   7.875   6.685 -0.3124 -6.2473 -3.1142
  2774G12c H01R51360   7.658   7.980   6.605  1.3004  5.5193  2.2018
  2774G12c H01Q51361   7.811   8.029   6.580 -0.5149 -1.8354 -4.2015
  2774G12c C02A51362   7.671   7.690   6.353  0.8301 -0.2785 -0.9193
  2774G12c H01151363   7.753   7.732   6.295 -1.9629 -2.0895 -6.5916
  2774G12c C00C51364   7.416   7.539   5.943  0.4135  1.8188 -0.7437
  2774G12c H01251365   7.414   7.590   6.038 -0.3753 -1.3974  1.0381
  2774G12c C00B51366   7.298   7.535   5.878  1.9783 -0.0378 -0.3863
  2774G12c C00A51367   7.175   7.588   5.928 -0.5580  1.0716  0.8172
  2774G12c C00951368   7.127   7.578   6.071  0.1830  1.0237 -0.6325
  2774G12c C00851369   7.152   7.510   6.196 -0.0482 -0.6084  0.9137
  2774G12c H01351370   7.250   7.465   6.208  0.5949 -0.2491 -2.6700
  2774G12c C00751371   7.053   7.467   6.293 -1.3821  0.6560 -1.0856
  2774G12c H01451372   7.084   7.394   6.367  5.5117 -0.3140 -4.5395
  2774G12c C00651373   6.919   7.476   6.262  0.3703 -0.9435 -0.5906
  2774G12c C00551374   6.895   7.537   6.140 -1.2690 -0.2463 -0.4461
  2774G12c C00451375   6.764   7.514   6.088  0.0286  0.9297 -1.9468
  2774G12c C00351376   6.733   7.549   5.960 -3.0602  0.3641  0.4693
  2774G12c C00251377   6.605   7.495   5.897 -0.3872  1.3351  1.4966
  2774G12c C00151378   6.542   7.506   5.763 -0.6561  1.0117 -0.6542
  2774G12c C00M51379   6.595   7.454   5.637 -1.0051 -0.7266  2.2740
  2774G12c C00L51380   6.741   7.474   5.616 -0.8407 -1.8862  1.0106
  2774G12c C00R51381   6.807   7.410   5.509 -0.4263 -0.5173  2.2906
  2774G12c C00Q51382   6.773   7.306   5.420 -2.1555  0.0556 -2.0997
  2774G12c C00V51383   6.889   7.267   5.352 -0.7802  0.4334  0.3559
  2774G12c C00U51384   7.016   7.301   5.391 -0.2459 -0.5407 -0.8068
  2774G12c C00T51385   7.042   7.390   5.486  0.2881  1.0978 -1.3792
  2774G12c C01651386   7.165   7.418   5.541 -0.0754 -0.6121  2.2449
  2774G12c C01551387   7.274   7.350   5.495  0.7470  0.0396 -0.9188
  2774G12c C01051388   7.269   7.263   5.382  0.9576 -1.2299  0.1768
  2774G12c C01151389   7.376   7.202   5.326 -0.9353  0.3840 -0.6614
  2774G12c H00551390   7.370   7.161   5.226 -0.8074 -1.7922  0.1921
  2774G12c C01251391   7.508   7.213   5.377 -0.6935  0.8507 -0.3733
  2774G12c C01751392   7.620   7.159   5.300  0.1148 -0.0247 -0.0320
  2774G12c O00251393   7.660   7.249   5.205  0.3512  1.3847 -0.4334
  2774G12c H00451394   7.726   7.193   5.167  2.6574  4.1469 -0.5963
  2774G12c C01851395   7.651   7.036   5.341 -0.9398  0.2692 -1.2975
  2774G12c O00151396   7.597   6.971   5.444  0.1431  1.3143  0.9596
  2774G12c H00351397   7.637   6.886   5.432 -4.8941 -1.3658  1.5356
  2774G12c C01951398   7.775   6.979   5.264  0.6708  0.6344 -0.1695
  2774G12c H00251399   7.823   7.054   5.202 -5.0909 -0.7047 -6.8154
  2774G12c H00151400   7.858   6.915   5.295  0.5214 -0.2917 -1.6346
  2774G12c O00051401   7.695   6.899   5.172  0.6060 -0.5055  0.2347
  2774G12c C01A51402   7.765   6.808   5.099 -0.7067 -1.9236 -0.7702
  2774G12c C02K51403   7.864   6.835   4.996 -1.7868 -0.4225  0.4493
  2774G12c O00G51404   7.890   6.962   4.974 -0.3187 -1.0549  0.4066
  2774G12c C02M51405   8.012   6.980   4.910 -0.7932 -0.4486  0.2424
  2774G12c H01G51406   8.080   6.931   4.981  4.1474  6.0173  0.4045
  2774G12c H01F51407   8.055   7.076   4.939 -1.2616 -0.5710  1.3938
  2774G12c H01E51408   8.021   6.961   4.804 -3.4640  8.5949 -2.0385
  2774G12c C02J51409   7.905   6.731   4.916 -0.7153  0.0601  0.3674
  2774G12c H01H51410   7.981   6.758   4.844  1.8003 -9.8096 -1.3509
  2774G12c C02I51411   7.884   6.597   4.940  0.3718 -1.2702 -1.1389
  2774G12c C02N51412   7.966   6.499   4.896  0.2733 -0.5384  3.2180
  2774G12c H01M51413   7.985   6.413   4.959  1.5718 -0.8132  2.4848
  2774G12c C02O51414   8.043   6.506   4.785 -1.3732  0.1695 -0.9120
  2774G12c H01L51415   8.031   6.601   4.736 -7.7486 -0.7156 -1.4859
  2774G12c C02P51416   8.121   6.401   4.705  0.6932  0.4492  0.5871
  2774G12c H01K51417   8.228   6.419   4.710  0.4243  3.1103 -1.6952
  2774G12c H01J51418   8.087   6.302   4.733 -7.3549  2.3526 -1.2309
  2774G12c O00H51419   8.071   6.447   4.570 -0.4111  0.5917 -1.4572
  2774G12c H01I51420   8.120   6.416   4.496 -1.1322  1.5107 -2.3302
  2774G12c C02H51421   7.778   6.561   5.027 -0.3644  0.6447  0.2939
  2774G12c H01C51422   7.745   6.462   5.055 -3.3469  2.4683  3.6494
  2774G12c C02L51423   7.735   6.669   5.115  1.2103 -0.1464 -1.3422
  2774G12c H01D51424   7.648   6.671   5.178  0.3058  1.8994 -2.5802
  2774G12c C01351425   7.510   7.285   5.501 -1.0149  1.1563  0.2979
  2774G12c H00051426   7.608   7.272   5.543  1.6657  0.3155 -5.6698
  2774G12c C01451427   7.398   7.353   5.565  1.7875  0.7425 -1.1684
  2774G12c C00F51428   7.399   7.407   5.690  0.2565 -1.1454 -0.5499
  2774G12c C00H51429   7.175   7.488   5.664  0.0046 -0.0414 -0.1856
  2774G12c C00I51430   7.060   7.547   5.712 -0.2982  1.4079  0.8745
  2774G12c C00J51431   6.942   7.526   5.651 -1.5608  0.3456 -0.6065
  2774G12c C00Z51432   7.129   7.242   5.337 -0.0135  0.9238  0.5029
  2774G12c C00Y51433   7.104   7.142   5.242 -0.3500  1.5438  1.0289
  2774G12c H00651434   7.185   7.097   5.186 -3.8883 -5.0073  0.6574
  2774G12c C00X51435   6.965   7.107   5.205  1.2129  0.6332 -0.9413
  2774G12c O00351436   6.933   7.020   5.114 -0.0530 -0.6583 -0.3183
  2774G12c C01B51437   7.028   6.911   5.105  0.0470 -0.6613  0.9051
  2774G12c H00951438   7.133   6.942   5.099 -0.9631  3.9397  4.6113
  2774G12c H00851439   7.003   6.816   5.059 -0.4556 -1.7337  3.3098
  2774G12c H00751440   7.043   6.859   5.199 -1.8621 -2.8758  0.0342
  2774G12c C00W51441   6.867   7.158   5.267  0.9075  0.2157 -1.5146
  2774G12c O00451442   6.752   7.085   5.249 -0.5808  0.0490 -1.3711
  2774G12c C01C51443   6.646   7.134   5.292  1.2427 -1.3922  0.8605
  2774G12c H00A51444   6.551   7.120   5.243 -1.3551 -0.6161  5.4268
  2774G12c C00P51445   6.640   7.232   5.401 -0.3458  1.7762 -0.8064
  2774G12c C00O51446   6.529   7.241   5.497  1.2334 -2.0573  0.1225
  2774G12c C01D51447   6.427   7.149   5.485  1.6805  0.7061 -0.4960
  2774G12c H00S51448   6.424   7.091   5.394  1.7409  0.6378 -0.4540
  2774G12c C01E51449   6.328   7.129   5.577  0.0690 -1.3057  0.7855
  2774G12c O00851450   6.231   7.038   5.582  1.5695  1.5986 -0.8245
  2774G12c C01V51451   6.244   6.928   5.512 -0.6598  0.3730  0.1187
  2774G12c C01Z51452   6.268   6.789   5.578 -1.1675  0.8110  1.0220
  2774G12c H00R51453   6.195   6.772   5.657 -1.8331  5.9446  1.6935
  2774G12c H00Q51454   6.231   6.712   5.510 -2.1041 -2.7207  5.3253
  2774G12c O00951455   6.404   6.781   5.606  0.9205 -0.4841  1.5451
  2774G12c H00P51456   6.446   6.725   5.543  1.9926 -2.7844  4.1933
  2774G12c C01W51457   6.234   6.931   5.379  0.0991 -0.1077  1.6045
  2774G12c H00O51458   6.256   6.844   5.319  4.7723  1.1355  1.3045
  2774G12c C01X51459   6.179   7.052   5.287  0.2837  0.2094 -0.2905
  2774G12c H00N51460   6.074   7.025   5.275  0.7545 -2.1308  0.5677
  2774G12c H00M51461   6.151   7.135   5.353 -3.4522 -2.6165  1.8990
  2774G12c C01Y51462   6.254   7.087   5.161  2.2496 -0.9287  1.2877
  2774G12c C02D51463   6.251   7.215   5.129 -1.1963 -1.0408 -0.3378
  2774G12c H01951464   6.211   7.292   5.194 -2.4019 -1.1508 -0.9228
  2774G12c C02C51465   6.310   7.234   5.000  0.4659  0.4637 -2.0899
  2774G12c H01A51466   6.315   7.340   4.979  0.4176  1.9629  4.3493
  2774G12c C02B51467   6.375   7.128   4.941 -0.0606  0.0438 -0.8020
  2774G12c O00E51468   6.434   7.162   4.831 -0.0600 -0.0528 -2.1461
  2774G12c H01B51469   6.510   7.216   4.849 -0.4196  0.8860 -3.3554
  2774G12c C02F51470   6.385   7.004   4.984  1.1722 -0.2392  0.0034
  2774G12c O00F51471   6.452   6.913   4.911  1.2199  0.0910 -1.5529
  2774G12c C02G51472   6.537   6.845   4.973  0.2223  1.1372 -0.0665
  2774G12c H01751473   6.640   6.831   4.938  0.5956  4.7599 -0.5727
  2774G12c H01651474   6.527   6.742   4.938  2.6796 -0.7830  4.4593
  2774G12c H01551475   6.523   6.840   5.081 -1.0753 -3.4395 -0.3399
  2774G12c C02E51476   6.290   6.962   5.077  0.6882  2.4437  1.1248
  2774G12c H01851477   6.292   6.858   5.105  6.0583  2.0822 -0.0163
  2774G12c C01F51478   6.316   7.226   5.678  1.8340  0.3678 -1.4462
  2774G12c C01G51479   6.260   7.196   5.811  0.0845  1.2042 -0.0681
  2774G12c H00L51480   6.193   7.113   5.830  3.3973 -3.0638 -5.5316
  2774G12c C01H51481   6.324   7.258   5.925 -0.9764 -0.4376 -0.5971
  2774G12c H00B51482   6.310   7.213   6.022  0.9876 -2.7244 -1.3190
  2774G12c C01I51483   6.420   7.363   5.900  0.7379 -0.4293  0.3446
  2774G12c C01U51484   6.390   7.337   5.672  0.7097 -0.7627 -2.5646
  2774G12c C00S51485   6.928   7.436   5.553 -0.8497  0.4734  0.1009
  2774G12c C00K51486   6.821   7.551   5.711  1.0951 -0.7381  1.4483
  2774G12c C00N51487   6.506   7.343   5.587 -1.7089  0.0639 -1.1436
  2774G12c C00051488   6.415   7.427   5.785 -1.2202  0.4041 -0.5028
  2774G12c C01J51489   6.538   7.409   5.981 -0.6343  0.1099 -0.6139
  2774G12c C01K51490   6.538   7.444   6.126 -0.2522  0.2609  0.3045
  2774G12c C01P51491   6.427   7.462   6.228  2.0569  0.9385  1.4829
  2774G12c C01Q51492   6.287   7.485   6.189 -0.9273 -1.1460  0.3370
  2774G12c H00G51493   6.233   7.455   6.101 -3.2433 -3.5384  2.5252
  2774G12c C01R51494   6.203   7.574   6.256  0.8829 -1.0463  0.0297
  2774G12c H00F51495   6.110   7.606   6.212  1.5681  2.9882  1.3310
  2774G12c C01S51496   6.242   7.666   6.356  1.8088 -0.2995 -0.8475
  2774G12c H00E51497   6.336   7.653   6.411  1.3653 -7.3992 -1.3483
  2774G12c H00D51498   6.259   7.767   6.319  4.3618 -0.6460 -0.7167
  2774G12c O00551499   6.150   7.641   6.467 -1.9924  1.3263 -1.1666
  2774G12c H00C51500   6.152   7.551   6.495  1.7749  3.2747  6.0820
  2774G12c C01O51501   6.460   7.421   6.350  0.1278  2.6413  0.2600
  2774G12c H00H51502   6.371   7.403   6.409  5.2927  1.2775  8.5245
  2774G12c C01N51503   6.592   7.406   6.389 -0.2408 -1.4221 -0.6180
  2774G12c O00651504   6.639   7.399   6.514  0.8036  0.3674  0.2480
  2774G12c C01T51505   6.572   7.340   6.628  0.4290  0.2944  0.0272
  2774G12c H00K51506   6.592   7.234   6.640 -5.1795 -1.5921 -4.7363
  2774G12c H00J51507   6.601   7.389   6.721  6.9341 -0.8930 -1.1794
  2774G12c H00I51508   6.464   7.331   6.610  0.7837 -7.1914  0.1451
  2774G12c C01M51509   6.695   7.438   6.302 -0.7020  0.2839  0.7633
  2774G12c C02051510   6.826   7.593   5.858 -0.4566 -0.0303 -0.8392
  2774G12c C02151511   6.951   7.625   5.919  0.0062 -0.8785 -1.8263
  2774G12c C01L51512   6.659   7.455   6.167 -0.7658  2.0267 -0.2976
  2774G12c O00751513   6.822   7.436   6.348 -0.6719  0.4278  0.5304
  2774G12c C02251514   6.980   7.603   6.053 -1.1142 -0.5847  0.9392
  2774G12c C02351515   7.078   7.625   5.834 -1.9279  0.1396 -0.6990
  2774G12c C00G51516   7.295   7.479   5.745  1.6408 -0.6117 -1.0235
  2774G12c C00E51517   7.517   7.396   5.767  0.8477  1.0612 -0.1532
  2774G12c O00A51518   7.632   7.328   5.741  1.4928 -0.5772  0.4692
  2774G12c C02451519   7.682   7.218   5.832 -0.8477  0.2213 -0.0394
  2774G12c H00V51520   7.727   7.151   5.759 -3.2156 -2.4863  0.8360
  2774G12c H00U51521   7.749   7.261   5.906 -0.6317  3.4199 -2.0271
  2774G12c H00T51522   7.601   7.164   5.881 -2.1182 -0.0127 -2.3402
  2784G12c C00D51523   0.038   7.635   4.683  0.2258  0.6185  1.1261
  2784G12c O00B51524  -0.050   7.635   4.587 -1.5276 -0.0822 -0.7274
  2784G12c C02551525  -0.025   7.534   4.489  1.1849  0.7649  0.6726
  2784G12c C02651526  -0.039   7.396   4.555 -0.2778 -0.5727  1.2116
  2784G12c H00Y51527  -0.074   7.418   4.656  3.4509  3.6310  1.7390
  2784G12c H00X51528   0.064   7.365   4.540 -1.8395 -4.3293 -2.7470
  2784G12c O00C51529  -0.147   7.289   4.520  0.1627 -0.3210  0.5610
  2784G12c H00W51530  -0.206   7.278   4.592  4.0380  0.9236  4.1618
  2784G12c C02751531   0.019   7.577   4.372  0.0045 -1.8535  0.3714
  2784G12c O00D51532  -0.015   7.711   4.343  0.3152  1.3043  0.9184
  2784G12c H00Z51533  -0.104   7.733   4.367  0.0985  2.1433 -0.6042
  2784G12c C02851534   0.082   7.491   4.286 -1.3798 -0.7506 -0.0466
  2784G12c C02951535   0.211   7.496   4.237  0.3233  0.6592  1.6115
  2784G12c H01051536   0.264   7.578   4.282 -2.6214  3.6893 -0.1256
  2784G12c C02T51537   0.258   7.380   4.167 -0.0087 -0.6381  1.3859
  2784G12c H01O51538   0.365   7.370   4.157  0.0139  1.3957 -0.9652
  2784G12c C02S51539   0.173   7.261   4.153 -1.9967  1.4029 -0.7151
  2784G12c O00J51540   0.213   7.144   4.117  0.3666  0.4373 -0.2116
  2784G12c H01P51541   0.146   7.140   4.051  1.6158  0.5262 -1.5313
  2784G12c C02R51542   0.047   7.275   4.183 -1.4468 -0.5821 -0.7459
  2784G12c O00I51543  -0.023   7.157   4.160  0.3414 -0.3116  0.1113
  2784G12c C02Q51544  -0.124   7.180   4.077 -0.4232  0.7487 -0.1336
  2784G12c H01N51545  -0.120   7.079   4.036 -1.9010 -1.5039  4.8575
  2784G12c H01R51546  -0.104   7.248   3.995  2.6478  3.0289  2.3928
  2784G12c H01Q51547  -0.196   7.225   4.146 -3.6580 -0.6121 -2.4927
  2784G12c C02A51548  -0.000   7.380   4.248 -1.5092  1.3463  0.3620
  2784G12c H01151549  -0.102   7.396   4.282 -3.0306  6.6317 -5.6798
  2784G12c C00C51550   0.169   7.577   4.677  2.0535  0.8858  0.4949
  2784G12c H01251551   0.191   7.537   4.579 -0.2512 -0.1738  0.3719
  2784G12c C00B51552   0.248   7.553   4.794  0.4955 -0.3324  0.7248
  2784G12c C00A51553   0.364   7.457   4.817 -0.4063  0.4910  0.0865
  2784G12c C00951554   0.384   7.323   4.761 -1.5621  0.6154 -0.8774
  2784G12c C00851555   0.330   7.260   4.652  1.6981  0.7552 -0.2604
  2784G12c H01351556   0.282   7.322   4.578  3.8513  1.9720 -0.6809
  2784G12c C00751557   0.357   7.124   4.640  0.5183 -0.0154 -0.9934
  2784G12c H01451558   0.289   7.071   4.575  3.2849 -5.1044 -0.0502
  2784G12c C00651559   0.443   7.044   4.732 -0.9312  0.3099  0.8516
  2784G12c C00551560   0.500   7.125   4.822 -0.2394  0.2683 -0.5961
  2784G12c C00451561   0.554   7.078   4.941 -0.5488  0.5675 -1.8610
  2784G12c C00351562   0.575   7.162   5.064  0.0978 -0.4066 -1.1818
  2784G12c C00251563   0.625   7.092   5.175  0.0640 -0.8477 -0.8631
  2784G12c C00151564   0.667   7.150   5.307  1.6945  0.9633  2.6033
  2784G12c C00M51565   0.591   7.255   5.378  1.0218 -1.1486 -1.3977
  2784G12c C00L51566   0.518   7.361   5.322 -2.3559 -0.1725 -0.2361
  2784G12c C00R51567   0.436   7.468   5.382 -1.5758  0.8379 -1.2694
  2784G12c C00Q51568   0.366   7.453   5.503  0.5694 -1.8622  2.0472
  2784G12c C00V51569   0.253   7.530   5.509  0.7785  0.1932  0.9692
  2784G12c C00U51570   0.208   7.611   5.403 -1.0438  2.0179 -0.6435
  2784G12c C00T51571   0.270   7.605   5.275 -0.3124 -0.7475 -0.0215
  2784G12c C01651572   0.216   7.652   5.161  0.7429 -1.8328 -0.3370
  2784G12c C01551573   0.100   7.710   5.166 -0.4836 -1.0348 -3.1538
  2784G12c C01051574   0.042   7.740   5.294  1.3411  0.9069  0.5467
  2784G12c C01151575  -0.055   7.845   5.291 -0.3330  0.0835  0.2263
  2784G12c H00551576  -0.125   7.855   5.372 -0.5795  0.7040 -0.0610
  2784G12c C01251577  -0.113   7.898   5.174  1.6282 -0.7878 -0.8187
  2784G12c C01751578  -0.232   7.994   5.175  2.1895 -0.4972 -0.7821
  2784G12c O00251579  -0.222   8.130   5.131 -1.0944 -1.5400  1.0835
  2784G12c H00451580  -0.141   8.170   5.156 -1.4925  1.8381 -2.5794
  2784G12c C01851581  -0.351   7.920   5.172 -0.9071 -1.0781 -0.6144
  2784G12c O00151582  -0.348   7.784   5.152  0.2966  1.0850 -1.4701
  2784G12c H00351583  -0.409   7.749   5.089 -2.7333 -4.1710  3.9568
  2784G12c C01951584  -0.498   7.969   5.152 -0.7696  0.3169  1.3351
  2784G12c H00251585  -0.509   8.012   5.252 -0.0063 -2.7186  2.7864
  2784G12c H00151586  -0.493   8.061   5.094  1.7417 -1.4685 -1.4316
  2784G12c O00051587  -0.603   7.880   5.142 -0.9629  0.6838  0.0751
  2784G12c C01A51588  -0.694   7.883   5.234 -0.9362  0.8358  1.2173
  2784G12c C02K51589  -0.680   7.760   5.323  0.7632 -0.5067  0.8364
  2784G12c O00G51590  -0.594   7.664   5.309 -0.2732  0.9476  0.1005
  2784G12c C02M51591  -0.508   7.644   5.425 -0.0837 -0.4112 -0.8580
  2784G12c H01G51592  -0.570   7.673   5.510  5.0617  0.0699  2.9299
  2784G12c H01F51593  -0.414   7.699   5.430  1.4154 -2.2795 -5.1570
  2784G12c H01E51594  -0.485   7.558   5.488  2.8078  1.8900  1.3550
  2784G12c C02J51595  -0.788   7.754   5.418  1.2091 -0.2398  0.5894
  2784G12c H01H51596  -0.819   7.661   5.465 -6.8321  1.5992 -0.2779
  2784G12c C02I51597  -0.907   7.841   5.402  0.6639  0.5322 -0.4851
  2784G12c C02N51598  -1.005   7.837   5.516 -0.3860 -1.1065  1.0119
  2784G12c H01M51599  -1.104   7.795   5.504 -2.3113  3.6334 -0.7303
  2784G12c C02O51600  -0.963   7.881   5.638 -0.2949 -0.4475  1.0054
  2784G12c H01L51601  -0.861   7.916   5.627  0.3086  0.2014  7.0719
  2784G12c C02P51602  -1.029   7.854   5.782  0.2547 -0.4504 -1.3959
  2784G12c H01K51603  -1.017   7.935   5.854 -1.5752 -2.2834  1.0579
  2784G12c H01J51604  -1.135   7.826   5.787 -1.0909  2.1188 -8.9059
  2784G12c O00H51605  -1.000   7.715   5.833  0.0032  1.6924  0.8146
  2784G12c H01I51606  -0.939   7.730   5.904  2.9325 -2.9579 -0.4850
  2784G12c C02H51607  -0.894   7.953   5.317  3.1086  0.8049  1.1796
  2784G12c H01C51608  -0.985   8.004   5.289  1.1665 -1.8470  2.5106
  2784G12c C02L51609  -0.787   7.972   5.226 -0.3884 -2.1169  1.3964
  2784G12c H01D51610  -0.780   8.052   5.153 -6.6737 -2.6381 -0.0149
  2784G12c C01351611  -0.046   7.846   5.061  0.1794  0.1254 -0.0133
  2784G12c H00051612  -0.068   7.902   4.971 -0.8787 -3.1977 -1.9383
  2784G12c C01451613   0.049   7.749   5.050 -1.4957 -0.4218  0.3340
  2784G12c C00F51614   0.092   7.700   4.922  0.1828  1.3183  1.1222
  2784G12c C00H51615   0.284   7.618   5.040  0.7594 -0.3459 -0.3594
  2784G12c C00I51616   0.403   7.537   5.043 -1.1230 -2.0502 -0.0322
  2784G12c C00J51617   0.455   7.505   5.161 -1.0771 -0.9233  1.7785
  2784G12c C00Z51618   0.103   7.692   5.415  0.5245 -2.2327 -0.3141
  2784G12c C00Y51619   0.059   7.714   5.555 -0.9247 -1.2216 -0.3898
  2784G12c H00651620  -0.017   7.790   5.546  4.5532  4.3134 -3.0605
  2784G12c C00X51621   0.121   7.653   5.677  0.9038 -0.1409  0.1078
  2784G12c O00351622   0.070   7.697   5.805 -0.8012  1.3925 -0.3160
  2784G12c C01B51623  -0.085   7.702   5.819 -0.9419  1.4465  1.5363
  2784G12c H00951624  -0.145   7.619   5.781  5.0822 -1.8672 -1.3393
  2784G12c H00851625  -0.118   7.776   5.747  0.3876 -0.6530 -1.2949
  2784G12c H00751626  -0.102   7.750   5.916 -0.0114 -0.5725  2.7204
  2784G12c C00W51627   0.211   7.551   5.649  0.3211 -0.2439  0.4325
  2784G12c O00451628   0.212   7.466   5.752 -0.2528 -0.3210 -1.4359
  2784G12c C01C51629   0.347   7.421   5.744 -0.5335 -0.9135  1.3143
  2784G12c H00A51630   0.421   7.468   5.807 -4.2992  0.4219  4.9591
  2784G12c C00P51631   0.389   7.365   5.622  0.2838 -1.0996 -1.3262
  2784G12c C00O51632   0.436   7.236   5.591 -0.5367  1.0679 -0.1759
  2784G12c C01D51633   0.391   7.122   5.671  0.8392 -2.0146 -0.3983
  2784G12c H00S51634   0.335   7.131   5.763 -0.7696 -3.9083 -1.1395
  2784G12c C01E51635   0.392   6.981   5.631 -0.1826 -1.1411 -0.6276
  2784G12c O00851636   0.299   6.887   5.692 -0.4475 -0.9731  0.1669
  2784G12c C01V51637   0.352   6.839   5.807 -1.3523 -0.7316  0.2713
  2784G12c C01Z51638   0.459   6.907   5.884 -0.9316 -1.2904 -1.8659
  2784G12c H00R51639   0.515   6.986   5.834  0.4009  1.6649  3.8474
  2784G12c H00Q51640   0.422   6.929   5.984  1.7877  0.6913 -1.2589
  2784G12c O00951641   0.573   6.820   5.888 -0.7183 -0.8097 -0.7126
  2784G12c H00P51642   0.605   6.797   5.975  5.4226  0.3660 -2.4116
  2784G12c C01W51643   0.276   6.749   5.885 -0.7518 -0.6035  1.1091
  2784G12c H00O51644   0.214   6.693   5.816 -3.8574  4.0839 -0.2097
  2784G12c C01X51645   0.290   6.681   6.016 -0.4166 -1.2809  1.7312
  2784G12c H00N51646   0.340   6.587   6.039  0.1451 -0.2138  5.0707
  2784G12c H00M51647   0.331   6.763   6.075 -1.1133  0.7294 -0.4863
  2784G12c C01Y51648   0.144   6.653   6.071  0.9367 -0.3512 -0.6902
  2784G12c C02D51649   0.093   6.521   6.073  1.6866  1.0118  0.0137
  2784G12c H01951650   0.152   6.439   6.036  4.1019 -2.1534  9.4144
  2784G12c C02C51651  -0.046   6.498   6.083 -0.9312 -0.2188  1.9497
  2784G12c H01A51652  -0.077   6.397   6.105 -6.2247  1.4472  2.8799
  2784G12c C02B51653  -0.121   6.601   6.156 -0.9140  0.3861  1.7119
  2784G12c O00E51654  -0.209   6.560   6.246 -0.0735 -0.8960 -0.0735
  2784G12c H01B51655  -0.292   6.604   6.232  0.8770  0.5425 -1.3504
  2784G12c C02F51656  -0.052   6.713   6.184 -0.4274 -1.3206 -1.3066
  2784G12c O00F51657  -0.100   6.816   6.271  0.4300 -0.3102 -0.1410
  2784G12c C02G51658  -0.151   6.923   6.185 -1.1595  1.1657  0.0211
  2784G12c H01751659  -0.080   6.967   6.115  1.9600  2.3253  3.7852
  2784G12c H01651660  -0.161   6.996   6.265  0.2825 -1.1318  2.3596
  2784G12c H01551661  -0.256   6.902   6.165 -1.1640 -0.9602  2.0197
  2784G12c C02E51662   0.080   6.748   6.143 -0.1752  0.3152  1.2905
  2784G12c H01851663   0.121   6.848   6.139 -0.9477  0.5651 -1.3969
  2784G12c C01F51664   0.494   6.954   5.540  0.4735  0.3840 -1.9335
  2784G12c C01G51665   0.506   6.828   5.492 -0.7586 -1.7451 -0.7123
  2784G12c H00L51666   0.444   6.758   5.545  3.3543 -1.8307  4.4899
  2784G12c C01H51667   0.586   6.807   5.377 -0.1386  0.8282  0.0878
  2784G12c H00B51668   0.558   6.714   5.330 -0.3920 -1.4890  4.6020
  2784G12c C01I51669   0.666   6.907   5.314 -0.6670 -1.0665 -1.0557
  2784G12c C01U51670   0.579   7.061   5.498 -0.5769  0.3676  1.0544
  2784G12c C00S51671   0.382   7.536   5.274 -0.7479 -0.9663  0.0774
  2784G12c C00K51672   0.525   7.389   5.179  1.7697  0.6011  2.0077
  2784G12c C00N51673   0.531   7.190   5.487  0.4272  1.2003  1.9106
  2784G12c C00051674   0.683   7.030   5.393  1.3252 -0.3828 -1.1737
  2784G12c C01J51675   0.625   6.948   5.183 -2.3958 -0.8737 -0.1132
  2784G12c C01K51676   0.614   6.851   5.061  0.9104 -0.0564 -0.2690
  2784G12c C01P51677   0.659   6.720   5.042 -0.5132  0.0952  0.3417
  2784G12c C01Q51678   0.734   6.652   5.147  1.8318  0.0906  1.0604
  2784G12c H00G51679   0.828   6.693   5.183  0.9668  5.1502 -2.0671
  2784G12c C01R51680   0.676   6.550   5.223 -0.0995  0.7821  1.2174
  2784G12c H00F51681   0.743   6.498   5.289 -1.4449 -2.3199  0.2063
  2784G12c C01S51682   0.533   6.506   5.195  0.9372  1.2107 -0.2148
  2784G12c H00E51683   0.454   6.573   5.227  2.1023  3.1755 -1.3533
  2784G12c H00D51684   0.516   6.479   5.091 -1.2362  6.4793 -1.3679
  2784G12c O00551685   0.519   6.395   5.277 -0.5831  0.5283  1.1681
  2784G12c H00C51686   0.561   6.400   5.361  0.4633  2.2568  0.5709
  2784G12c C01O51687   0.648   6.648   4.924 -0.6570  0.4969 -0.3283
  2784G12c H00H51688   0.660   6.541   4.909 -0.7590  0.4890 -0.3565
  2784G12c C01N51689   0.599   6.719   4.816 -0.6204  1.3678  2.4709
  2784G12c O00651690   0.564   6.638   4.704 -0.4078 -0.3182  0.7814
  2784G12c C01T51691   0.665   6.541   4.638  1.5450  0.9029  0.6318
  2784G12c H00K51692   0.618   6.561   4.542  1.2954 -0.3206  0.4956
  2784G12c H00J51693   0.633   6.437   4.634 -0.0034  1.4177 -5.9881
  2784G12c H00I51694   0.770   6.568   4.654  5.1171 -6.7672 -5.9890
  2784G12c C01M51695   0.538   6.854   4.835  0.2217  0.1544 -0.7095
  2784G12c C02051696   0.527   7.291   5.064  1.2004 -0.3854  0.8369
  2784G12c C02151697   0.527   7.353   4.939 -0.2478  0.6435 -0.7350
  2784G12c C01L51698   0.555   6.932   4.956  1.5953  0.4705  1.1455
  2784G12c O00751699   0.473   6.909   4.733  0.4990 -0.4434  0.1881
  2784G12c C02251700   0.496   7.267   4.828  1.4415  0.8890  1.2994
  2784G12c C02351701   0.436   7.460   4.929 -0.5972  0.1175 -1.5253
  2784G12c C00G51702   0.206   7.617   4.919 -1.9782  0.5875  1.7543
  2784G12c C00E51703   0.011   7.711   4.794  0.4219 -0.0285 -0.6006
  2784G12c O00A51704  -0.101   7.772   4.818  1.2796  1.0893 -0.3580
  2784G12c C02451705  -0.217   7.666   4.830 -0.3071 -0.6288 -1.4237
  2784G12c H00V51706  -0.218   7.616   4.733 -1.7993  0.4830 -2.0077
  2784G12c H00U51707  -0.210   7.587   4.905 -0.5522  0.4499 -0.2605
  2784G12c H00T51708  -0.305   7.727   4.851  2.7717  2.9176  1.8719
  2794G12c C00D51709   8.511  10.881   9.548 -0.0700 -1.2693 -0.4947
  2794G12c O00B51710   8.384  10.827   9.609  0.1968  1.0928  0.0638
  2794G12c C02551711   8.272  10.891   9.617 -0.0341 -0.6155 -0.2892
  2794G12c C02651712   8.173  10.810   9.526  0.6173 -1.4519 -0.3949
  2794G12c H00Y51713   8.243  10.742   9.477  4.7906  3.7835 -2.1798
  2794G12c H00X51714   8.161  10.844   9.423  4.8540 -2.3105 -1.2542
  2794G12c O00C51715   8.052  10.756   9.580 -0.3751 -2.1060  0.0271
  2794G12c H00W51716   7.985  10.802   9.532  4.1522 -0.5737 -5.3645
  2794G12c C02751717   8.254  11.019   9.667 -0.4992 -0.3179  0.2426
  2794G12c O00D51718   8.347  11.080   9.748  0.7554 -0.4292 -1.2246
  2794G12c H00Z51719   8.432  11.094   9.711  2.4417  0.6142  2.7791
  2794G12c C02851720   8.144  11.102   9.646 -0.0130 -1.1614  0.8928
  2794G12c C02951721   8.092  11.113   9.523  1.6158 -0.9763  1.7573
  2794G12c H01051722   8.150  11.046   9.462  0.7632 -2.1365  2.2013
  2794G12c C02T51723   7.962  11.174   9.501  2.2431 -1.2134  1.2475
  2794G12c H01O51724   7.928  11.171   9.399  4.0199 -4.1013  0.7002
  2794G12c C02S51725   7.907  11.263   9.600 -0.3044 -1.1700 -0.9310
  2794G12c O00J51726   7.782  11.318   9.566 -0.8663  0.0585 -0.0458
  2794G12c H01P51727   7.756  11.371   9.640 -9.7955 -0.8204 -2.0265
  2794G12c C02R51728   7.965  11.272   9.731  0.2733 -0.8784 -1.2950
  2794G12c O00I51729   7.891  11.346   9.827 -0.4825 -0.4768 -0.5381
  2794G12c C02Q51730   7.949  11.345   9.940 -1.0758 -2.0990 -0.1939
  2794G12c H01N51731   7.909  11.408  10.020  0.8461 -3.9000  2.2633
  2794G12c H01R51732   8.045  11.385   9.907 -2.0007 -5.1454 -7.5141
  2794G12c H01Q51733   7.921  11.246   9.974 -0.4653 -1.9872  0.6651
  2794G12c C02A51734   8.079  11.177   9.755  0.3302 -0.6090  0.0893
  2794G12c H01151735   8.147  11.167   9.839 -0.4675  2.8006  1.1909
  2794G12c C00C51736   8.639  10.849   9.588  1.0818 -0.5542 -0.6492
  2794G12c H01251737   8.664  10.784   9.670 -5.5572  0.6295  2.6270
  2794G12c C00B51738   8.748  10.885   9.513  1.9624  0.9302  0.7541
  2794G12c C00A51739   8.873  10.811   9.529  0.5064  0.9421  0.3807
  2794G12c C00951740   8.908  10.739   9.646  0.7032  0.4118  0.1899
  2794G12c C00851741   8.849  10.686   9.768  1.4847 -0.0737 -0.8799
  2794G12c H01351742   8.745  10.659   9.780  1.5712  0.3369  1.0919
  2794G12c C00751743   8.935  10.685   9.890 -0.1279 -0.1346 -0.4381
  2794G12c H01451744   8.912  10.648   9.988  1.4094  2.4761  0.9633
  2794G12c C00651745   9.072  10.711   9.883  0.6373 -0.2100  1.0478
  2794G12c C00551746   9.134  10.739   9.757  0.6663  0.6889  0.6212
  2794G12c C00451747   9.256  10.803   9.764 -0.3915  0.5912 -2.2910
  2794G12c C00351748   9.292  10.889   9.649  0.9790 -0.1633  0.1444
  2794G12c C00251749   9.413  10.962   9.662  0.8374 -1.6637 -1.0772
  2794G12c C00151750   9.496  11.062   9.567  2.0491 -0.7317 -0.0339
  2794G12c C00M51751   9.416  11.154   9.502 -1.4536 -0.7537  0.7389
  2794G12c C00L51752   9.324  11.116   9.414 -0.6225 -1.5021  1.6186
  2794G12c C00R51753   9.237  11.219   9.343  0.6719  0.2415 -0.3219
  2794G12c C00Q51754   9.242  11.367   9.348  0.2985  0.3867  1.0797
  2794G12c C00V51755   9.128  11.432   9.312 -0.8407 -0.9718 -0.4968
  2794G12c C00U51756   8.991  11.369   9.295  0.0264 -1.0648 -0.5800
  2794G12c C00T51757   8.991  11.227   9.281 -0.2104 -2.0881 -0.1591
  2794G12c C01651758   8.872  11.163   9.288  0.3335  1.9906 -0.2025
  2794G12c C01551759   8.760  11.231   9.305  0.3985 -0.0781  0.4884
  2794G12c C01051760   8.758  11.363   9.255 -0.4554 -1.6716  0.4622
  2794G12c C01151761   8.650  11.407   9.182 -0.3870  0.3230 -0.7568
  2794G12c H00551762   8.643  11.495   9.120 -3.4751 -2.1301 -4.0992
  2794G12c C01251763   8.526  11.345   9.214 -0.4346 -0.9450 -1.1754
  2794G12c C01751764   8.417  11.393   9.152  0.8034  0.0148  1.4198
  2794G12c O00251765   8.341  11.289   9.076 -0.7326 -0.1495  0.2988
  2794G12c H00451766   8.365  11.215   9.129 -1.9327 -1.1830 -0.5591
  2794G12c C01851767   8.365  11.529   9.136  1.0946  2.0864  0.7686
  2794G12c O00151768   8.242  11.530   9.082  0.4439  0.7951 -0.8136
  2794G12c H00351769   8.231  11.595   9.014  0.4459  1.2561 -0.3812
  2794G12c C01951770   8.410  11.651   9.209 -0.4705 -1.3951  0.2107
  2794G12c H00251771   8.360  11.633   9.304 -6.0244  0.3273 -2.1991
  2794G12c H00151772   8.512  11.673   9.240 -1.5158  0.0116  2.8190
  2794G12c O00051773   8.380  11.780   9.153  0.1674 -1.0433 -1.5538
  2794G12c C01A51774   8.461  11.880   9.188 -0.1896 -0.0714  0.6834
  2794G12c C02K51775   8.521  11.959   9.072  0.3220  0.6787  0.6759
  2794G12c O00G51776   8.477  11.927   8.939 -0.6116  1.7732  0.3963
  2794G12c C02M51777   8.437  12.018   8.857 -0.0740  0.3742 -0.6731
  2794G12c H01G51778   8.450  11.981   8.755  2.9789 -2.4721  0.6393
  2794G12c H01F51779   8.514  12.094   8.870 -0.0865 -0.0427  2.2240
  2794G12c H01E51780   8.331  12.044   8.863 -0.6813 -1.8674 -1.5495
  2794G12c C02J51781   8.635  12.037   9.114  0.3555 -0.3007 -0.9445
  2794G12c H01H51782   8.699  12.103   9.057 -2.8239  4.5546  0.8281
  2794G12c C02I51783   8.660  12.068   9.249 -1.0186 -0.2864 -0.3955
  2794G12c C02N51784   8.791  12.106   9.303 -0.6610 -0.8982 -1.0628
  2794G12c H01M51785   8.890  12.081   9.270 -0.2529  2.3522 -2.4510
  2794G12c C02O51786   8.800  12.207   9.410  0.2150  1.4792  2.4621
  2794G12c H01L51787   8.721  12.249   9.470 -0.2379 -0.4546  3.2537
  2794G12c C02P51788   8.929  12.258   9.486 -0.4127  0.9942  1.4684
  2794G12c H01K51789   8.909  12.353   9.536 -2.2723  0.3488  1.9705
  2794G12c H01J51790   8.926  12.170   9.550  2.0549  2.0411  3.1176
  2794G12c O00H51791   9.011  12.265   9.357  2.5082 -0.8520 -0.9816
  2794G12c H01I51792   8.988  12.340   9.304  0.1144  0.9823  2.3826
  2794G12c C02H51793   8.579  12.015   9.355 -1.4335 -0.1599  0.1933
  2794G12c H01C51794   8.584  12.032   9.462 -3.3174  5.8694 -0.5302
  2794G12c C02L51795   8.474  11.936   9.325  0.9761  0.5025 -0.1680
  2794G12c H01D51796   8.420  11.883   9.402  0.6058  3.5718  1.8000
  2794G12c C01351797   8.529  11.247   9.314  1.1969  0.7930 -1.2676
  2794G12c H00051798   8.430  11.239   9.357  3.0822  5.0371  4.5414
  2794G12c C01451799   8.639  11.168   9.345  0.3751  1.8616  1.1273
  2794G12c C00F51800   8.632  11.038   9.393  0.1686 -0.7640 -0.0351
  2794G12c C00H51801   8.875  11.042   9.348 -1.7824 -1.1237  1.4077
  2794G12c C00I51802   8.991  10.975   9.368 -2.2046  1.0958  0.2463
  2794G12c C00J51803   9.120  11.034   9.341  0.4877  1.1696  1.1774
  2794G12c C00Z51804   8.874  11.441   9.274 -0.3227 -1.4596 -0.7427
  2794G12c C00Y51805   8.889  11.581   9.227 -0.7235 -0.7369 -0.3426
  2794G12c H00651806   8.801  11.630   9.188 -2.7317  2.0502  6.8827
  2794G12c C00X51807   9.022  11.636   9.237  0.3218  0.8435  1.4567
  2794G12c O00351808   9.029  11.765   9.203 -0.2949 -0.2762 -0.2427
  2794G12c C01B51809   9.094  11.785   9.077 -0.1035  0.6122 -0.6687
  2794G12c H00951810   9.092  11.890   9.049 -1.4230  1.6785  3.0871
  2794G12c H00851811   9.076  11.710   9.000  0.3522 -2.5862  2.2038
  2794G12c H00751812   9.202  11.793   9.073 -0.1762  0.6312 -3.8873
  2794G12c C00W51813   9.132  11.576   9.293 -0.3708  1.5660  0.5922
  2794G12c O00451814   9.256  11.634   9.284 -1.2470  2.0856 -0.2238
  2794G12c C01C51815   9.338  11.594   9.376 -0.7854  0.4240  0.6510
  2794G12c H00A51816   9.423  11.662   9.370 -3.8525  4.1705 -4.2188
  2794G12c C00P51817   9.339  11.460   9.419  0.7334  0.6211 -0.1993
  2794G12c C00O51818   9.418  11.424   9.527 -0.1893  0.0431 -0.9191
  2794G12c C01D51819   9.441  11.509   9.639 -2.4100 -0.2797 -0.7169
  2794G12c H00S51820   9.429  11.616   9.634  3.3015  0.5588  0.2317
  2794G12c C01E51821   9.497  11.474   9.769 -0.0611  1.1567  0.1133
  2794G12c O00851822   9.502  11.549   9.888  0.1602  0.0671  0.2067
  2794G12c C01V51823   9.392  11.585   9.970  0.1429 -0.8706  2.0972
  2794G12c C01Z51824   9.459  11.700  10.045  1.0694 -0.0068  0.5524
  2794G12c H00R51825   9.407  11.721  10.139 -3.4420 -3.1599 -1.0279
  2794G12c H00Q51826   9.565  11.713  10.024  1.3930 -5.6169 -2.1902
  2794G12c O00951827   9.367  11.781   9.967 -0.7470  0.7386  0.0030
  2794G12c H00P51828   9.403  11.788   9.880 -0.6187  6.1708  0.3446
  2794G12c C01W51829   9.274  11.521  10.000 -0.6194 -1.1196  0.7423
  2794G12c H00O51830   9.211  11.576  10.069 -1.9919 -4.5380  2.3624
  2794G12c C01X51831   9.209  11.377   9.960 -0.9488  1.2988 -0.1804
  2794G12c H00N51832   9.120  11.382   9.897 -1.5751 -3.3727  0.1063
  2794G12c H00M51833   9.283  11.333   9.893  4.1212  1.8777  4.7010
  2794G12c C01Y51834   9.240  11.301  10.093 -2.0262 -0.2749  0.4823
  2794G12c C02D51835   9.357  11.303  10.167  0.4734  1.5246  0.8741
  2794G12c H01951836   9.454  11.342  10.141  2.9400 -2.8978  2.7174
  2794G12c C02C51837   9.345  11.253  10.301 -1.1118 -0.0970 -1.1831
  2794G12c H01A51838   9.415  11.290  10.374 -4.7693 -1.6093  3.3488
  2794G12c C02B51839   9.215  11.224  10.363 -0.0070 -0.0813  0.0984
  2794G12c O00E51840   9.204  11.247  10.504  0.3383 -0.2977  1.0082
  2794G12c H01B51841   9.148  11.196  10.561 -2.6021  5.2082  3.3962
  2794G12c C02F51842   9.098  11.214  10.283 -1.1265 -0.5562 -1.8093
  2794G12c O00F51843   8.961  11.170  10.310  0.7266 -0.7257 -1.1314
  2794G12c C02G51844   8.874  11.291  10.348 -0.2395 -1.3545  0.1680
  2794G12c H01751845   8.909  11.376  10.290 -1.9332 -2.2190 -2.1726
  2794G12c H01651846   8.891  11.329  10.449  0.7064  1.7331 -1.1115
  2794G12c H01551847   8.774  11.248  10.353 -0.1550 -1.3504  5.1219
  2794G12c C02E51848   9.120  11.257  10.161  0.6445  0.9088  0.8603
  2794G12c H01851849   9.032  11.241  10.100  0.3086  2.2475  0.9715
  2794G12c C01F51850   9.551  11.343   9.780  1.1567  0.1238 -0.3053
  2794G12c C01G51851   9.599  11.303   9.913  0.6963  1.0520  0.1619
  2794G12c H00L51852   9.625  11.354  10.004  4.6741  1.8691 -1.3063
  2794G12c C01H51853   9.601  11.157   9.914  0.2176 -1.7277 -1.6264
  2794G12c H00B51854   9.576  11.129  10.015 -1.7804 -3.2062 -2.5098
  2794G12c C01I51855   9.557  11.082   9.804 -0.8815  0.3036  0.8459
  2794G12c C01U51856   9.543  11.258   9.676 -0.0688  1.0127 -0.8520
  2794G12c C00S51857   9.118  11.154   9.302  0.2776  0.0374  0.2095
  2794G12c C00K51858   9.228  11.012   9.432 -1.0439  1.0868 -2.0927
  2794G12c C00N51859   9.456  11.289   9.565  0.1176  0.1644  0.1985
  2794G12c C00051860   9.567  11.127   9.676 -0.9220  0.5918  1.7659
  2794G12c C01J51861   9.472  10.974   9.791  0.8734  1.4086 -1.3892
  2794G12c C01K51862   9.439  10.885   9.905  0.0796 -0.2890 -1.0603
  2794G12c C01P51863   9.517  10.850  10.015  0.9025 -0.5689  1.5478
  2794G12c C01Q51864   9.660  10.889  10.022 -1.1064  0.8963 -0.9448
  2794G12c H00G51865   9.705  10.880   9.924  1.6499  1.3284  0.2394
  2794G12c C01R51866   9.728  10.958  10.128  0.8766  0.2808 -0.2764
  2794G12c H00F51867   9.820  11.011  10.109  1.3021 -0.9280 -1.6370
  2794G12c C01S51868   9.683  11.011  10.258 -0.9189  0.5285 -0.0925
  2794G12c H00E51869   9.764  11.057  10.316  1.0891  0.6974 -2.9234
  2794G12c H00D51870   9.613  11.092  10.238  0.3545  0.6565 -4.4629
  2794G12c O00551871   9.660  10.895  10.352 -1.5123  0.4718  0.4980
  2794G12c H00C51872   9.566  10.881  10.352 -1.3139 -1.0694  2.8072
  2794G12c C01O51873   9.469  10.795  10.131  1.4465 -0.0337 -0.6524
  2794G12c H00H51874   9.541  10.778  10.210  2.1472 -0.4944 -1.3831
  2794G12c C01N51875   9.330  10.771  10.130  0.7199 -0.6694 -0.5853
  2794G12c O00651876   9.254  10.725  10.241  0.0169 -0.5374  0.9423
  2794G12c C01T51877   9.213  10.830  10.321  1.8372 -0.6479  0.8579
  2794G12c H00K51878   9.128  10.863  10.260  3.0972  2.0998  0.5461
  2794G12c H00J51879   9.258  10.924  10.290 -0.8110  0.6060  0.6503
  2794G12c H00I51880   9.200  10.825  10.429  4.0031 -3.5202  1.0433
  2794G12c C01M51881   9.265  10.759  10.011  1.5675  0.9509 -0.2996
  2794G12c C02051882   9.212  10.899   9.531 -1.3058  0.8228 -0.4395
  2794G12c C02151883   9.102  10.807   9.529 -0.2187  0.1873 -0.8163
  2794G12c C01L51884   9.313  10.826   9.891 -0.2222  0.4318  0.6346
  2794G12c O00751885   9.140  10.705   9.994 -0.6992 -0.6945  0.0272
  2794G12c C02251886   9.053  10.731   9.637  0.4809 -1.3602 -1.4092
  2794G12c C02351887   8.981  10.855   9.455  1.1328 -0.4576  0.0937
  2794G12c C00G51888   8.748  10.993   9.422  0.7099 -0.2129  0.0701
  2794G12c C00E51889   8.508  10.971   9.438  0.0191  1.6123 -0.9353
  2794G12c O00A51890   8.381  11.002   9.375  0.5241 -0.2304  0.1707
  2794G12c C02451891   8.378  10.976   9.242  0.3357  0.6150 -0.2176
  2794G12c H00V51892   8.396  10.868   9.239 -5.4739 -0.7777  4.5805
  2794G12c H00U51893   8.466  11.026   9.201  0.5136  2.7167  2.6228
  2794G12c H00T51894   8.294  10.998   9.175 -0.0732 -1.7537 -0.5362
  2804G12c C00D51895   3.845   4.528   2.099  1.2304 -1.2299  1.1324
  2804G12c O00B51896   3.743   4.616   2.062 -0.8535 -0.1150  0.6402
  2804G12c C02551897   3.698   4.612   1.927 -0.7649  0.7178 -0.7553
  2804G12c C02651898   3.788   4.572   1.819 -1.6814 -0.1480 -0.8979
  2804G12c H00Y51899   3.773   4.599   1.714 -2.4347 -1.9231 -1.2669
  2804G12c H00X51900   3.825   4.470   1.813 -2.5191 -0.3291 -3.7697
  2804G12c O00C51901   3.907   4.647   1.843  0.4931 -1.1687 -1.2602
  2804G12c H00W51902   3.995   4.613   1.844  0.7403 -0.6655 -3.1848
  2804G12c C02751903   3.572   4.658   1.929 -0.6325  0.3087  1.2443
  2804G12c O00D51904   3.509   4.647   2.049  0.6388 -0.2355 -0.9296
  2804G12c H00Z51905   3.528   4.731   2.086 -0.4715 -0.9464  1.3458
  2804G12c C02851906   3.501   4.656   1.812  0.1380 -1.0839 -0.0137
  2804G12c C02951907   3.498   4.774   1.727 -0.0157  0.9610  2.4396
  2804G12c H01051908   3.512   4.875   1.760  2.3313  1.1978  0.8531
  2804G12c C02T51909   3.430   4.779   1.600 -1.1289 -0.5414 -1.7407
  2804G12c H01O51910   3.398   4.861   1.538  2.6089  0.9222 -1.8345
  2804G12c C02S51911   3.354   4.673   1.564  0.7470 -0.4708 -0.7957
  2804G12c O00J51912   3.276   4.677   1.457  0.7599  0.0056 -0.6301
  2804G12c H01P51913   3.203   4.622   1.432 -0.9240  1.6215  0.5222
  2804G12c C02R51914   3.365   4.548   1.633 -0.2465  0.0363  1.5036
  2804G12c O00I51915   3.291   4.431   1.596  0.2756  1.4438  0.4110
  2804G12c C02Q51916   3.236   4.404   1.454  0.6027  1.4275 -0.6155
  2804G12c H01N51917   3.149   4.469   1.441 -1.7531 -1.1486  1.6314
  2804G12c H01R51918   3.226   4.296   1.448 -6.1845  1.3721  4.7162
  2804G12c H01Q51919   3.296   4.456   1.380 -2.5151  3.0551 -2.0984
  2804G12c C02A51920   3.445   4.540   1.748  0.0934 -0.9125 -0.3252
  2804G12c H01151921   3.434   4.455   1.813 -3.3017 -0.2645  0.0170
  2804G12c C00C51922   3.837   4.380   2.096 -0.0051 -0.6523 -0.7286
  2804G12c H01251923   3.740   4.344   2.064 -2.8885  7.5357 -2.3025
  2804G12c C00B51924   3.926   4.294   2.141 -1.1649  0.3289  0.0734
  2804G12c C00A51925   3.899   4.155   2.185 -1.0595 -0.4471 -0.3346
  2804G12c C00951926   3.783   4.102   2.274  0.4651 -0.6823 -1.0228
  2804G12c C00851927   3.675   4.169   2.325  0.3224 -0.7238  0.6667
  2804G12c H01351928   3.688   4.257   2.264 -0.1437 -2.2787 -1.7628
  2804G12c C00751929   3.603   4.101   2.435  1.0052 -0.2890  1.0439
  2804G12c H01451930   3.538   4.166   2.493 -1.4434 -4.4492  3.2412
  2804G12c C00651931   3.672   3.995   2.509  1.3099  0.2850  0.6140
  2804G12c C00551932   3.796   3.959   2.452 -0.9093 -0.5359 -0.4066
  2804G12c C00451933   3.871   3.860   2.537  0.6563  1.2750  0.6635
  2804G12c C00351934   4.008   3.830   2.479 -0.0624  0.4515 -1.5175
  2804G12c C00251935   4.083   3.753   2.558 -0.0305  0.1633 -0.5133
  2804G12c C00151936   4.217   3.708   2.547 -1.4241  0.4750 -1.3918
  2804G12c C00M51937   4.325   3.796   2.536  0.6139  0.8719  0.5716
  2804G12c C00L51938   4.324   3.879   2.425 -0.8975 -0.6104 -1.2853
  2804G12c C00R51939   4.412   3.985   2.418  0.8811  1.5476 -0.1666
  2804G12c C00Q51940   4.520   4.048   2.497  0.4213 -1.0575 -2.1055
  2804G12c C00V51941   4.535   4.189   2.494 -1.3966  0.6012  1.1829
  2804G12c C00U51942   4.465   4.271   2.409 -0.1231 -0.3967 -0.1977
  2804G12c C00T51943   4.379   4.226   2.311  1.6676  0.3853  0.1082
  2804G12c C01651944   4.287   4.302   2.241 -0.6055 -0.1176  1.3408
  2804G12c C01551945   4.307   4.429   2.231  0.6833 -0.0036 -0.2909
  2804G12c C01051946   4.424   4.494   2.285  0.3701 -0.3569 -0.2143
  2804G12c C01151947   4.458   4.622   2.243 -0.8312 -0.2352  0.7881
  2804G12c H00551948   4.551   4.654   2.287 -1.6726  5.3057 -1.0310
  2804G12c C01251949   4.388   4.696   2.155  0.3433 -1.3144 -0.8648
  2804G12c C01751950   4.476   4.776   2.079  0.7353  1.0108 -0.4553
  2804G12c O00251951   4.526   4.891   2.120 -1.5091  0.5632 -0.0886
  2804G12c H00451952   4.543   4.870   2.211 -0.7943 -0.9460 -0.5693
  2804G12c C01851953   4.513   4.721   1.963 -0.3664  0.0591  0.1636
  2804G12c O00151954   4.453   4.620   1.901  0.6797  0.9842  0.0982
  2804G12c H00351955   4.498   4.593   1.822 -3.7720 -2.8636 -1.3762
  2804G12c C01951956   4.647   4.778   1.904 -0.4542 -1.6130 -0.7652
  2804G12c H00251957   4.648   4.879   1.945  3.3799 -2.8244  2.4259
  2804G12c H00151958   4.723   4.718   1.954  3.9701  3.6567 -0.6515
  2804G12c O00051959   4.631   4.812   1.769  1.1922 -0.3687 -0.5590
  2804G12c C01A51960   4.677   4.740   1.665 -0.4352  1.4067  1.3396
  2804G12c C02K51961   4.706   4.804   1.544  1.4305  0.1470  1.4607
  2804G12c O00G51962   4.649   4.929   1.509 -1.4291  0.0393 -0.3954
  2804G12c C02M51963   4.686   5.016   1.400  1.1609  1.2395 -0.6377
  2804G12c H01G51964   4.795   5.007   1.407  1.1184 -1.9612 -3.2306
  2804G12c H01F51965   4.654   5.118   1.421 -3.9828 -0.4149  0.1634
  2804G12c H01E51966   4.637   4.984   1.309  4.0552 -3.9933 -0.5683
  2804G12c C02J51967   4.802   4.759   1.455 -1.1316  0.3414 -0.9304
  2804G12c H01H51968   4.825   4.817   1.367 -2.6831  0.0728 -1.5378
  2804G12c C02I51969   4.858   4.624   1.486  0.4024  0.4640 -2.3683
  2804G12c C02N51970   4.966   4.563   1.389 -0.4467  1.4049 -1.6057
  2804G12c H01M51971   4.993   4.595   1.289 -3.4685  3.5050 -1.8185
  2804G12c C02O51972   5.044   4.449   1.436 -0.2843  0.3040 -0.0900
  2804G12c H01L51973   4.995   4.387   1.510  0.1849  4.0285  3.4728
  2804G12c C02P51974   5.176   4.375   1.375  0.6123  1.8491  1.8549
  2804G12c H01K51975   5.258   4.383   1.445  0.2141 -0.9752  2.7412
  2804G12c H01J51976   5.140   4.278   1.339  0.5427  1.7735  2.1294
  2804G12c O00H51977   5.197   4.413   1.230  0.8549 -0.2738  0.6095
  2804G12c H01I51978   5.236   4.351   1.169  0.8654  1.3110 -1.0394
  2804G12c C02H51979   4.827   4.569   1.607 -2.3710 -0.1595 -1.0282
  2804G12c H01C51980   4.847   4.466   1.634 -1.9415 -1.5588 -6.2237
  2804G12c C02L51981   4.730   4.617   1.695 -2.4755 -0.6818 -0.0003
  2804G12c H01D51982   4.747   4.559   1.784 -4.2744  1.4939  1.8264
  2804G12c C01351983   4.269   4.634   2.104 -0.6724 -0.5668  0.9510
  2804G12c H00051984   4.224   4.687   2.021  3.6385 -2.4719 -2.7827
  2804G12c C01451985   4.220   4.514   2.167  0.3188 -0.5600  2.4569
  2804G12c C00F51986   4.085   4.469   2.141  0.6096  1.6271 -1.2048
  2804G12c C00H51987   4.161   4.250   2.205  0.4424 -0.5329 -1.8734
  2804G12c C00I51988   4.139   4.110   2.223 -1.1971  0.6913  0.9716
  2804G12c C00J51989   4.250   4.021   2.269  0.5332  0.0040 -0.3626
  2804G12c C00Z51990   4.483   4.417   2.403  0.0858 -1.2164  1.3150
  2804G12c C00Y51991   4.588   4.456   2.478 -1.0280  0.6533 -1.0190
  2804G12c H00651992   4.621   4.558   2.465 -1.0700  0.4268 -2.9552
  2804G12c C00X51993   4.676   4.388   2.553 -2.4469 -1.5478 -1.1306
  2804G12c O00351994   4.801   4.442   2.603  2.0001 -1.6406  1.3595
  2804G12c C01B51995   4.923   4.381   2.578 -0.9325 -0.0131 -0.0046
  2804G12c H00951996   4.972   4.342   2.668 -0.3611  2.7379  0.9366
  2804G12c H00851997   5.011   4.424   2.529 -0.0891  2.9037  3.7845
  2804G12c H00751998   4.930   4.279   2.540 -0.8653 -2.1128  5.2311
  2804G12c C00W51999   4.638   4.253   2.581  1.5190  0.6902  0.9318
  2804G12c O00452000   4.732   4.185   2.651 -0.4674  0.3781  0.2265
  2804G12c C01C52001   4.698   4.052   2.658 -0.5292  1.6000 -0.0442
  2804G12c H00A52002   4.742   4.006   2.745 -0.4057 -3.1897 -2.4732
  2804G12c C00P52003   4.589   3.973   2.604 -0.8899  1.6677  0.2188
  2804G12c C00O52004   4.518   3.878   2.684 -0.9080  0.9251  1.7080
  2804G12c C01D52005   4.567   3.849   2.829 -0.1515 -0.4558 -0.2236
  2804G12c H00S52006   4.623   3.915   2.893 -2.5027  3.9540 -2.4514
  2804G12c C01E52007   4.486   3.778   2.923  0.1751 -1.0952  2.2077
  2804G12c O00852008   4.512   3.820   3.053 -0.1836  0.4377  0.8631
  2804G12c C01V52009   4.411   3.875   3.126 -2.5750 -0.2956  1.4465
  2804G12c C01Z52010   4.420   3.815   3.260  1.2260 -0.4345 -0.1374
  2804G12c H00R52011   4.468   3.884   3.329  1.9063 -1.4010  0.3684
  2804G12c H00Q52012   4.480   3.724   3.261  1.0817 -0.5748 -2.4653
  2804G12c O00952013   4.316   3.773   3.347  1.8638  1.9741 -0.6274
  2804G12c H00P52014   4.362   3.744   3.424  2.4584  4.3967 -0.0123
  2804G12c C01W52015   4.314   3.962   3.099 -1.0001 -0.1239  0.2792
  2804G12c H00O52016   4.312   3.979   2.992  1.7985 -0.8053  0.0868
  2804G12c C01X52017   4.215   4.058   3.158 -0.5323 -0.2227  1.0600
  2804G12c H00N52018   4.112   4.032   3.134 -1.7084  2.3431  3.1029
  2804G12c H00M52019   4.243   4.013   3.254 -4.5680 -1.8160  1.6125
  2804G12c C01Y52020   4.265   4.192   3.215 -0.3700 -0.0311 -0.9444
  2804G12c C02D52021   4.163   4.273   3.258  1.3529  0.7906  0.9124
  2804G12c H01952022   4.066   4.228   3.253  0.8941  1.0550  5.1600
  2804G12c C02C52023   4.200   4.387   3.345  0.6387 -0.6852  0.7690
  2804G12c H01A52024   4.128   4.451   3.393 -1.9533 -2.4585 -0.5807
  2804G12c C02B52025   4.335   4.408   3.375  0.1000  2.1675  0.5474
  2804G12c O00E52026   4.368   4.536   3.409 -0.9246 -0.2205 -0.1772
  2804G12c H01B52027   4.452   4.574   3.388 -3.3582  5.6942 -0.3182
  2804G12c C02F52028   4.446   4.325   3.315  1.0009 -2.2796 -0.2893
  2804G12c O00F52029   4.550   4.380   3.353 -1.2765  1.0738  0.5159
  2804G12c C02G52030   4.654   4.328   3.264  0.6777  2.0051 -1.4916
  2804G12c H01752031   4.666   4.220   3.255 -1.2758  1.4816  1.3099
  2804G12c H01652032   4.622   4.355   3.164 -3.4372 -3.7121 -1.9714
  2804G12c H01552033   4.759   4.351   3.248  1.7678 -3.2647 -2.8083
  2804G12c C02E52034   4.403   4.221   3.232 -0.2997 -0.3545 -0.0968
  2804G12c H01852035   4.444   4.126   3.201  2.3412  0.7240 -0.0740
  2804G12c C01F52036   4.374   3.718   2.878  2.0796  0.2102  0.7634
  2804G12c C01G52037   4.267   3.660   2.948  1.0024  0.7732 -0.7740
  2804G12c H00L52038   4.278   3.666   3.055 -2.7478 -2.9886 -0.0627
  2804G12c C01H52039   4.142   3.652   2.890 -0.9061 -0.2755  1.5579
  2804G12c H00B52040   4.061   3.643   2.962 -3.6761  1.4774 -1.1875
  2804G12c C01I52041   4.131   3.659   2.750 -0.3801 -0.3027  0.5810
  2804G12c C01U52042   4.349   3.706   2.741  1.0124  0.1827 -0.1836
  2804G12c C00S52043   4.366   4.087   2.316  0.6480  1.6578 -0.7436
  2804G12c C00K52044   4.208   3.922   2.352 -0.3840 -0.8100 -0.1279
  2804G12c C00N52045   4.394   3.811   2.659  1.2166 -0.6538  0.1378
  2804G12c C00052046   4.250   3.640   2.675  1.2292  0.0009 -0.1879
  2804G12c C01J52047   4.023   3.693   2.680  1.1594  0.3198  1.8111
  2804G12c C01K52048   3.889   3.707   2.727  0.1012 -0.7785  0.3471
  2804G12c C01P52049   3.819   3.618   2.801  0.8536 -0.8981  0.8743
  2804G12c C01Q52050   3.893   3.498   2.815 -0.5853 -0.7063 -1.6489
  2804G12c H00G52051   3.966   3.481   2.738  2.3284 -4.0907  1.6659
  2804G12c C01R52052   3.853   3.419   2.904  0.7164 -1.4432  0.2981
  2804G12c H00F52053   3.758   3.440   2.951 -1.2631  2.1130 -4.8150
  2804G12c C01S52054   3.913   3.279   2.896 -0.2089 -1.4773 -0.3606
  2804G12c H00E52055   3.999   3.241   2.842  0.4681  2.1549 -2.0012
  2804G12c H00D52056   3.961   3.276   2.994 -2.8245  2.1214  1.1696
  2804G12c O00552057   3.828   3.183   2.906  0.1361 -0.5307  1.6679
  2804G12c H00C52058   3.845   3.120   2.838  2.8204  2.8075 -0.9117
  2804G12c C01O52059   3.696   3.672   2.857 -0.5883  1.8945  0.3598
  2804G12c H00H52060   3.648   3.612   2.933 -4.2460  2.1728 -1.6299
  2804G12c C01N52061   3.634   3.769   2.786  0.1118  0.7414  1.0884
  2804G12c O00652062   3.503   3.787   2.825 -0.1461  0.0149  0.0970
  2804G12c C01T52063   3.495   3.858   2.952  0.2074  0.7786 -0.2953
  2804G12c H00K52064   3.565   3.804   3.016 -2.4243  2.9773  4.6926
  2804G12c H00J52065   3.528   3.952   2.909  1.4920  2.0862  3.3454
  2804G12c H00I52066   3.406   3.886   3.007  3.6017  0.9538  5.5318
  2804G12c C01M52067   3.693   3.842   2.693 -0.1753 -0.1373 -1.1430
  2804G12c C02052068   4.066   3.899   2.362 -0.3993 -0.1804  0.5796
  2804G12c C02152069   3.968   3.953   2.281 -0.8673  1.1792  2.0312
  2804G12c C01L52070   3.820   3.803   2.650 -0.5462  0.6293  0.4956
  2804G12c O00752071   3.624   3.938   2.626  0.0899  0.9534 -1.9366
  2804G12c C02252072   3.847   3.995   2.334  0.1489 -0.0575 -2.0324
  2804G12c C02352073   4.006   4.071   2.193  0.1210  2.2546  0.1991
  2804G12c C00G52074   4.061   4.333   2.157 -1.2079 -0.1759  0.7602
  2804G12c C00E52075   3.977   4.562   2.122 -3.1815 -0.0357  1.4627
  2804G12c O00A52076   3.997   4.692   2.101 -0.4894  0.5058  0.6754
  2804G12c C02452077   3.950   4.793   2.194 -0.4510  0.0920 -0.2367
  2804G12c H00V52078   3.911   4.718   2.263 -7.9526  2.4807 -1.3537
  2804G12c H00U52079   3.891   4.856   2.126  1.7281 -0.5337 -2.7769
  2804G12c H00T52080   4.032   4.859   2.222 -0.6864  0.5699 -0.6708
  2814G12c C00D52081   9.551   8.891   1.704 -0.8584 -0.0047  1.0820
  2814G12c O00B52082   9.652   8.882   1.783  0.5100 -0.3723 -0.0025
  2814G12c C02552083   9.732   9.002   1.794 -1.8828 -0.7209  0.3426
  2814G12c C02652084   9.819   9.048   1.680  0.3575  0.8219  0.3047
  2814G12c H00Y52085   9.842   8.987   1.592  3.7393  3.8349 -1.0213
  2814G12c H00X52086   9.917   9.082   1.712  0.5978  0.1445  0.2915
  2814G12c O00C52087   9.776   9.169   1.645  0.4716  0.9729 -1.0280
  2814G12c H00W52088   9.689   9.182   1.612  0.0430 -1.0339 -0.7280
  2814G12c C02752089   9.733   9.060   1.917  1.1906 -0.4734 -0.0060
  2814G12c O00D52090   9.683   8.985   2.026  0.3314  0.1581 -0.4899
  2814G12c H00Z52091   9.635   8.928   1.968  0.2658  0.1218 -0.4007
  2814G12c C02852092   9.777   9.194   1.923 -1.3144 -0.9753 -0.5129
  2814G12c C02952093   9.699   9.317   1.905 -0.0314 -0.7992  3.2093
  2814G12c H01052094   9.607   9.315   1.849  0.7067 -2.0744  2.0171
  2814G12c C02T52095   9.767   9.449   1.907  1.6476 -0.9145 -0.3058
  2814G12c H01O52096   9.712   9.539   1.885 -1.7734 -4.0282 -5.2363
  2814G12c C02S52097   9.874   9.456   1.990  0.8477 -0.4965  1.5485
  2814G12c O00J52098   9.934   9.581   1.967 -0.3864  0.6627  0.8264
  2814G12c H01P52099   9.978   9.610   1.888  1.5084 -4.1002 -0.0456
  2814G12c C02R52100   9.950   9.341   1.990 -0.1419  0.1479  0.0006
  2814G12c O00I52101  10.083   9.363   2.001 -0.6383 -0.3092 -0.3091
  2814G12c C02Q52102  10.127   9.341   2.133 -0.1354 -1.2457  1.1058
  2814G12c H01N52103  10.079   9.257   2.182  0.6265 -1.9270  0.6883
  2814G12c H01R52104  10.236   9.344   2.128 -0.1652  1.1185  0.9991
  2814G12c H01Q52105  10.105   9.425   2.200  0.1117  3.5153 -4.3704
  2814G12c C02A52106   9.913   9.220   1.945 -0.4401  1.3684 -0.6385
  2814G12c H01152107   9.992   9.161   1.902  1.8572  4.5906 -1.0507
  2814G12c C00C52108   9.568   8.920   1.572 -0.2748 -0.9032  1.6615
  2814G12c H01252109   9.653   8.967   1.524 -1.2165 -0.5297  0.3103
  2814G12c C00B52110   9.478   8.889   1.457 -0.1769  0.7668 -1.0245
  2814G12c C00A52111   9.486   8.926   1.326  0.2065  1.2603 -0.0110
  2814G12c C00952112   9.574   9.027   1.258 -0.6594  0.2823  0.4175
  2814G12c C00852113   9.673   9.135   1.292 -0.1607 -0.6395 -2.7580
  2814G12c H01352114   9.698   9.142   1.396  0.4094  4.5936 -3.1143
  2814G12c C00752115   9.706   9.242   1.199 -1.7757  0.1104 -0.1374
  2814G12c H01452116   9.778   9.317   1.230 -0.3898  0.1659 -3.2793
  2814G12c C00652117   9.630   9.266   1.077  0.3387 -0.0407 -1.3965
  2814G12c C00552118   9.533   9.171   1.053  0.3549  0.5415  0.5142
  2814G12c C00452119   9.440   9.179   0.948 -0.0517 -1.1363  0.0745
  2814G12c C00352120   9.338   9.094   0.923 -0.8417  0.2424  2.0548
  2814G12c C00252121   9.245   9.136   0.813  0.8960  0.3509 -1.2631
  2814G12c C00152122   9.102   9.097   0.791 -1.3334  0.0181  0.3741
  2814G12c C00M52123   9.011   9.060   0.904 -0.1430  0.9375  0.8812
  2814G12c C00L52124   9.042   8.984   1.008  0.5540  0.7384 -0.5794
  2814G12c C00R52125   8.949   8.964   1.125  1.4345  0.3663 -0.3777
  2814G12c C00Q52126   8.815   9.003   1.162 -0.1229 -0.1216  0.1650
  2814G12c C00V52127   8.787   8.985   1.300  0.9023  1.2752 -2.0973
  2814G12c C00U52128   8.879   8.912   1.382  1.0355 -0.6634  2.5568
  2814G12c C00T52129   9.007   8.883   1.336 -0.7214 -0.4871 -0.0317
  2814G12c C01652130   9.107   8.856   1.429  0.1781  1.3861 -1.2886
  2814G12c C01552131   9.073   8.820   1.559 -0.9285 -2.1695  0.2738
  2814G12c C01052132   8.939   8.839   1.593  0.8704 -0.4652  0.4750
  2814G12c C01152133   8.900   8.775   1.711  0.0085 -0.0446  1.0420
  2814G12c H00552134   8.798   8.779   1.747  0.1901  3.2050  1.3829
  2814G12c C01252135   8.993   8.701   1.800  1.1539  0.3264 -2.3916
  2814G12c C01752136   8.920   8.621   1.918 -1.3144 -1.1171 -0.2189
  2814G12c O00252137   8.801   8.638   1.956  0.9566 -0.2218  0.6632
  2814G12c H00452138   8.748   8.579   2.006  0.8526 -0.1174  0.6805
  2814G12c C01852139   8.992   8.528   1.973 -0.1896  0.6008 -0.5659
  2814G12c O00152140   9.128   8.507   1.964  0.0343 -1.4334  1.3242
  2814G12c H00352141   9.158   8.587   1.924  3.5380 -2.7978  1.0987
  2814G12c C01952142   8.930   8.410   2.052  0.4588 -0.6295  1.4989
  2814G12c H00252143   8.913   8.338   1.972  1.3520  0.7867 -0.0261
  2814G12c H00152144   9.006   8.364   2.115  0.5226 -0.0881  1.8261
  2814G12c O00052145   8.810   8.458   2.123 -0.5630  1.2471 -1.2998
  2814G12c C01A52146   8.691   8.397   2.138 -1.2272  0.1916 -1.7603
  2814G12c C02K52147   8.592   8.412   2.264 -2.0373  0.4084  0.9850
  2814G12c O00G52148   8.611   8.510   2.367 -1.2784 -0.3072 -0.8081
  2814G12c C02M52149   8.730   8.588   2.386  0.9478  0.4095  1.4099
  2814G12c H01G52150   8.817   8.544   2.434  2.1424 -1.9315 -2.6831
  2814G12c H01F52151   8.710   8.656   2.468  3.9006 -1.1875  3.5291
  2814G12c H01E52152   8.787   8.614   2.297 -3.0363  2.3687 -0.6986
  2814G12c C02J52153   8.464   8.355   2.260 -0.6915  0.8336 -0.2320
  2814G12c H01H52154   8.396   8.375   2.342  1.8021  2.7852  1.4465
  2814G12c C02I52155   8.420   8.281   2.147  0.1686  0.1059  0.2916
  2814G12c C02N52156   8.289   8.235   2.176  0.4063  0.1129 -0.7900
  2814G12c H01M52157   8.255   8.223   2.278  1.6607  1.9276 -0.1324
  2814G12c C02O52158   8.201   8.228   2.080 -1.0600 -0.2134  0.6456
  2814G12c H01L52159   8.227   8.230   1.976 -0.6413  5.0886  0.6994
  2814G12c C02P52160   8.051   8.199   2.091 -1.0951  0.3636 -0.0435
  2814G12c H01K52161   8.022   8.227   1.990 -2.8196  1.0366  0.6169
  2814G12c H01J52162   7.998   8.112   2.131 -1.0318 -1.9472 -4.6167
  2814G12c O00H52163   8.011   8.290   2.180  1.2806  1.2252 -1.1225
  2814G12c H01I52164   8.066   8.366   2.168  1.4630  1.6402  2.0951
  2814G12c C02H52165   8.512   8.277   2.030  0.6647  1.1280 -1.8377
  2814G12c H01C52166   8.467   8.248   1.936  2.2829  6.6373 -4.5258
  2814G12c C02L52167   8.641   8.321   2.026 -0.6787 -1.1096 -0.3389
  2814G12c H01D52168   8.696   8.330   1.933  1.3865  5.2308  1.2045
  2814G12c C01352169   9.134   8.699   1.766  2.8221 -0.2900 -2.0138
  2814G12c H00052170   9.225   8.682   1.822  0.3914  2.8997  3.2981
  2814G12c C01452171   9.176   8.788   1.651  0.7018  1.4461  1.4647
  2814G12c C00F52172   9.308   8.815   1.630 -1.4023 -2.0335  0.8481
  2814G12c C00H52173   9.244   8.856   1.394 -1.1378  2.2631  0.3510
  2814G12c C00I52174   9.268   8.860   1.262 -0.9687  1.1532 -0.4027
  2814G12c C00J52175   9.170   8.862   1.170  1.3708 -1.1561  0.4988
  2814G12c C00Z52176   8.842   8.891   1.510  2.2743  0.0333 -0.1054
  2814G12c C00Y52177   8.710   8.927   1.559  0.6252 -0.8076  0.1702
  2814G12c H00652178   8.662   8.894   1.650  4.1217  2.0519  3.2201
  2814G12c C00X52179   8.621   8.995   1.470  1.2088 -0.4062 -0.3974
  2814G12c O00352180   8.490   9.028   1.497 -0.3427 -0.1025  1.5519
  2814G12c C01B52181   8.422   8.929   1.574  0.5358  1.7241  0.0373
  2814G12c H00952182   8.469   8.844   1.523  2.4542  1.7845  1.6477
  2814G12c H00852183   8.317   8.924   1.546 -0.5476 -0.7768  4.2235
  2814G12c H00752184   8.442   8.912   1.680  0.9375 -0.3904 -0.3415
  2814G12c C00W52185   8.653   9.014   1.338 -1.0252 -0.5096  0.7637
  2814G12c O00452186   8.577   9.085   1.261 -0.1956 -0.6411 -0.2071
  2814G12c C01C52187   8.617   9.156   1.154 -0.5296  1.1525 -1.9383
  2814G12c H00A52188   8.547   9.235   1.129 -1.9734  0.9342  1.1861
  2814G12c C00P52189   8.743   9.111   1.083  0.1910  1.2086  0.9649
  2814G12c C00O52190   8.790   9.184   0.971  0.6526  0.5628  0.2673
  2814G12c C01D52191   8.731   9.324   0.955 -0.8701 -0.9076 -1.9685
  2814G12c H00S52192   8.649   9.351   1.019  1.8601  6.2615 -1.0073
  2814G12c C01E52193   8.789   9.432   0.889  0.6333 -0.8410 -1.0002
  2814G12c O00852194   8.711   9.540   0.927  0.3445  0.2883  0.3796
  2814G12c C01V52195   8.806   9.658   0.925  0.7733  0.8415  0.1079
  2814G12c C01Z52196   8.790   9.755   0.811  0.2436 -0.1727  1.4912
  2814G12c H00R52197   8.858   9.757   0.726 -2.0814  4.0526 -0.3998
  2814G12c H00Q52198   8.715   9.713   0.744  4.6222 -2.3060 -2.2918
  2814G12c O00952199   8.764   9.890   0.857  0.7114 -0.8707 -1.3509
  2814G12c H00P52200   8.688   9.930   0.817 -3.1361 -3.9914  2.4306
  2814G12c C01W52201   8.921   9.662   1.014 -0.3363 -0.5158 -0.8647
  2814G12c H00O52202   8.927   9.593   1.096 -1.5996  0.3127 -0.0531
  2814G12c C01X52203   9.040   9.762   0.991  0.1192  0.3863  1.8038
  2814G12c H00N52204   9.111   9.759   0.908 -5.4739 -2.9138 -3.3380
  2814G12c H00M52205   8.977   9.849   0.969  3.5218  2.5823  0.3384
  2814G12c C01Y52206   9.092   9.813   1.119  1.0627  0.8525  0.9398
  2814G12c C02D52207   9.140   9.720   1.209 -1.2418 -0.9949  1.6034
  2814G12c H01952208   9.187   9.629   1.175 -0.7077  2.5375 -8.7896
  2814G12c C02C52209   9.163   9.780   1.329 -1.8824 -0.1668 -0.7944
  2814G12c H01A52210   9.189   9.720   1.415  3.9592 -3.3848 -4.4381
  2814G12c C02B52211   9.150   9.921   1.355  0.2302 -0.3784 -2.2334
  2814G12c O00E52212   9.175   9.970   1.479 -0.0822 -1.0662 -0.3084
  2814G12c H01B52213   9.152  10.058   1.505 -3.0938 -1.0471 -2.8042
  2814G12c C02F52214   9.098   9.999   1.268 -1.9290  0.3573  0.2620
  2814G12c O00F52215   9.084  10.140   1.297  0.9451  0.2932 -1.0198
  2814G12c C02G52216   8.954  10.177   1.292  0.9692  0.7297  0.8130
  2814G12c H01752217   8.878  10.133   1.357  0.8947  5.3256  4.0907
  2814G12c H01652218   8.923  10.192   1.189  3.9828  0.3752 -0.1941
  2814G12c H01552219   8.945  10.274   1.341 -0.3846  0.5101  1.0310
  2814G12c C02E52220   9.061   9.950   1.144 -0.9186 -1.0515  1.0625
  2814G12c H01852221   9.006  10.017   1.079  2.1452 -4.0500 -5.1056
  2814G12c C01F52222   8.904   9.396   0.810 -0.2999 -0.2625 -0.4315
  2814G12c C01G52223   8.985   9.487   0.747 -0.5475 -0.1241  0.7855
  2814G12c H00L52224   8.954   9.588   0.724  3.3845  1.8611  3.5837
  2814G12c C01H52225   9.108   9.448   0.706  0.3560  1.6480  1.1798
  2814G12c H00B52226   9.163   9.501   0.630  1.0149  0.1829  0.6138
  2814G12c C01I52227   9.141   9.308   0.692 -0.9745 -1.7870  1.1872
  2814G12c C01U52228   8.954   9.267   0.809  0.2272  0.1887  1.1659
  2814G12c C00S52229   9.039   8.888   1.209  1.1366  0.3872  0.0492
  2814G12c C00K52230   9.175   8.948   1.047 -1.6385  0.1074 -0.4698
  2814G12c C00N52231   8.906   9.159   0.898 -0.3752 -0.5629 -0.2586
  2814G12c C00052232   9.042   9.204   0.722 -0.6752  0.2949  0.2032
  2814G12c C01J52233   9.265   9.261   0.746  2.2773  1.2243  1.1234
  2814G12c C01K52234   9.388   9.325   0.729  0.1899 -1.3559 -2.1533
  2814G12c C01P52235   9.465   9.411   0.626 -0.4477  2.0750  0.3618
  2814G12c C01Q52236   9.399   9.468   0.514  1.2423 -2.0495  0.8758
  2814G12c H00G52237   9.377   9.401   0.432 -3.4156  0.7871 -0.3758
  2814G12c C01R52238   9.404   9.604   0.490 -0.5851 -1.0784 -0.5042
  2814G12c H00F52239   9.460   9.670   0.554 -2.3900 -0.8429  0.8869
  2814G12c C01S52240   9.348   9.658   0.358  0.4661  0.5535 -0.9200
  2814G12c H00E52241   9.319   9.745   0.418  0.4762  0.2148 -0.4178
  2814G12c H00D52242   9.423   9.697   0.289 -0.0884 -3.2579 -3.8373
  2814G12c O00552243   9.217   9.600   0.311 -0.4813 -0.6032 -0.0967
  2814G12c H00C52244   9.148   9.664   0.302 -2.7093 -2.3819  3.1030
  2814G12c C01O52245   9.597   9.451   0.646 -0.4848 -0.0674 -1.2021
  2814G12c H00H52246   9.630   9.519   0.569  2.6814  1.8184  1.6855
  2814G12c C01N52247   9.664   9.419   0.754 -0.4235  1.1050 -1.0320
  2814G12c O00652248   9.769   9.500   0.777  0.5797 -0.0573  1.1118
  2814G12c C01T52249   9.897   9.442   0.799 -0.4316  0.2439  0.6136
  2814G12c H00K52250   9.902   9.349   0.742  0.7790  2.0637 -2.3115
  2814G12c H00J52251   9.906   9.433   0.907  0.0484  0.2213  0.5730
  2814G12c H00I52252   9.963   9.509   0.745 -1.8068  1.8808  0.9230
  2814G12c C01M52253   9.591   9.351   0.868  1.5599  0.2939  0.2734
  2814G12c C02052254   9.312   8.992   1.012  1.1785  1.6368  0.9136
  2814G12c C02152255   9.420   8.960   1.093 -0.3813  0.9493  2.3827
  2814G12c C01L52256   9.468   9.277   0.848  1.6472  1.1707 -1.2769
  2814G12c O00752257   9.658   9.349   0.990 -1.3970 -0.1347 -0.4415
  2814G12c C02252258   9.524   9.044   1.118  1.5277 -0.4576 -1.2000
  2814G12c C02352259   9.395   8.890   1.222  0.3460 -1.2824 -0.2477
  2814G12c C00G52260   9.348   8.855   1.492 -1.4237  0.4945  0.6185
  2814G12c C00E52261   9.409   8.861   1.737  1.0095  0.9575 -0.8074
  2814G12c O00A52262   9.349   8.842   1.864  1.0938 -0.2250 -0.7104
  2814G12c C02452263   9.278   8.963   1.904 -0.8612 -0.4835  0.6790
  2814G12c H00V52264   9.193   8.991   1.841 -1.9638  3.8908  3.7991
  2814G12c H00U52265   9.355   9.040   1.910 -1.1263 -0.4047  3.8883
  2814G12c H00T52266   9.234   8.923   1.995  0.5041  2.1915  2.6114
  2824G12c C00D52267   3.166   5.755   2.520  1.2902  0.8599  0.6930
  2824G12c O00B52268   3.277   5.665   2.511  1.3678  0.7688 -0.5981
  2824G12c C02552269   3.262   5.525   2.570  0.3651  2.2289  0.0353
  2824G12c C02652270   3.219   5.407   2.465 -0.6296  0.2827 -0.5485
  2824G12c H00Y52271   3.124   5.386   2.516  0.7131 -2.6661  0.8397
  2824G12c H00X52272   3.306   5.341   2.471 -4.1866 -4.6873 -0.1747
  2824G12c O00C52273   3.207   5.496   2.348  0.9995 -1.5131  0.4765
  2824G12c H00W52274   3.254   5.476   2.269 -6.5734 -3.6619 -3.9467
  2824G12c C02752275   3.295   5.484   2.691  1.0819 -0.8683 -0.6900
  2824G12c O00D52276   3.295   5.348   2.745  0.0369  0.2043 -0.9541
  2824G12c H00Z52277   3.277   5.357   2.837 -1.8413  7.2488 -1.6806
  2824G12c C02852278   3.336   5.584   2.795  0.1560  0.8288  0.0858
  2824G12c C02952279   3.419   5.708   2.772 -0.6496  0.3979 -1.4305
  2824G12c H01052280   3.434   5.730   2.668 -1.2950 -0.3041 -1.6773
  2824G12c C02T52281   3.487   5.751   2.879 -1.0560 -0.7313  0.5921
  2824G12c H01O52282   3.553   5.836   2.877 -3.9695  1.6468  1.5255
  2824G12c C02S52283   3.449   5.716   3.006  1.0081  0.7674  0.1321
  2824G12c O00J52284   3.552   5.754   3.080  0.0512 -0.2631  1.9038
  2824G12c H01P52285   3.539   5.673   3.127 -1.1480 -1.5700 -0.5908
  2824G12c C02R52286   3.362   5.616   3.034  0.1305 -0.9025 -0.7714
  2824G12c O00I52287   3.333   5.552   3.147  1.5925 -1.1974 -0.4540
  2824G12c C02Q52288   3.231   5.626   3.226  0.7556 -0.3434 -1.0579
  2824G12c H01N52289   3.139   5.644   3.172  0.2916  3.0498  0.6727
  2824G12c H01R52290   3.232   5.721   3.280 -0.8321 -2.5178  2.9885
  2824G12c H01Q52291   3.211   5.564   3.313  3.1282 -1.4947 -1.3085
  2824G12c C02A52292   3.299   5.548   2.926  0.8185 -2.0889  1.0539
  2824G12c H01152293   3.234   5.463   2.939  0.3979 -2.4399 -2.7409
  2824G12c C00C52294   3.214   5.890   2.514 -0.0418  1.0943 -1.3359
  2824G12c H01252295   3.320   5.913   2.518  1.3622 -3.1918 -7.0567
  2824G12c C00B52296   3.134   5.993   2.457  1.5350  0.6457 -0.3377
  2824G12c C00A52297   3.180   6.140   2.446  1.2991 -0.1095 -1.3447
  2824G12c C00952298   3.298   6.244   2.478  0.7728 -0.5460  1.0728
  2824G12c C00852299   3.419   6.221   2.556  0.0525  1.0108 -0.8477
  2824G12c H01352300   3.445   6.117   2.559 -7.0203 -1.1291 -3.4165
  2824G12c C00752301   3.488   6.336   2.614 -1.3573 -0.1812  1.0443
  2824G12c H01452302   3.579   6.323   2.670  0.7586  0.8340 -2.0630
  2824G12c C00652303   3.429   6.461   2.606 -0.2572  0.8329 -0.4216
  2824G12c C00552304   3.301   6.473   2.543 -1.3594  0.0452  0.4874
  2824G12c C00452305   3.213   6.590   2.569  0.4501 -0.1270  1.4567
  2824G12c C00352306   3.079   6.596   2.511 -1.8855 -0.4335 -1.0556
  2824G12c C00252307   2.987   6.707   2.544 -0.0832 -1.6343  0.5818
  2824G12c C00152308   2.856   6.734   2.523  0.0344 -0.9107 -0.2040
  2824G12c C00M52309   2.748   6.645   2.523  1.9402 -0.6373  0.3863
  2824G12c C00L52310   2.766   6.521   2.464  0.5038  2.0263  0.2615
  2824G12c C00R52311   2.667   6.409   2.479  0.8838 -0.1536  0.4841
  2824G12c C00Q52312   2.547   6.393   2.557  1.3480  1.9170  1.4679
  2824G12c C00V52313   2.475   6.272   2.542 -0.2994 -1.1522  0.0931
  2824G12c C00U52314   2.557   6.164   2.512  0.2460 -0.6211  2.0004
  2824G12c C00T52315   2.678   6.169   2.456  1.0310 -0.0830 -1.2605
  2824G12c C01652316   2.772   6.066   2.452 -1.7499  0.2468 -0.2774
  2824G12c C01552317   2.721   5.939   2.474  0.9266  0.1986  1.0784
  2824G12c C01052318   2.580   5.923   2.497 -0.2111 -0.9654 -0.1495
  2824G12c C01152319   2.527   5.797   2.487 -1.0140 -2.1072 -0.8199
  2824G12c H00552320   2.421   5.773   2.492 -2.2962  3.3877  5.9946
  2824G12c C01252321   2.606   5.688   2.482 -1.2215  1.5901  0.4363
  2824G12c C01752322   2.552   5.565   2.456  1.0679 -2.0137 -0.3896
  2824G12c O00252323   2.509   5.522   2.566 -0.5711  0.8876  0.5334
  2824G12c H00452324   2.477   5.584   2.630 -2.7805  4.5521 -3.8372
  2824G12c C01852325   2.564   5.508   2.342  0.6963  0.8067 -0.3148
  2824G12c O00152326   2.593   5.576   2.228  1.0519 -0.3921 -0.0005
  2824G12c H00352327   2.598   5.670   2.221  0.4727 -0.1040  2.7165
  2824G12c C01952328   2.517   5.369   2.324  0.4141 -0.8592  0.6617
  2824G12c H00252329   2.563   5.307   2.401 -3.0655  2.3619  5.6709
  2824G12c H00152330   2.411   5.342   2.324  0.4976 -1.1898  1.3337
  2824G12c O00052331   2.568   5.323   2.212 -1.6947 -0.1354  0.6332
  2824G12c C01A52332   2.599   5.197   2.197  1.0193  0.2263  0.4059
  2824G12c C02K52333   2.725   5.163   2.149 -0.8215 -0.3237  1.1202
  2824G12c O00G52334   2.810   5.263   2.109  0.6013  0.6571 -1.2044
  2824G12c C02M52335   2.898   5.305   2.213  0.2049 -0.7613 -1.8288
  2824G12c H01G52336   2.873   5.407   2.242  6.7767  0.2695  1.2794
  2824G12c H01F52337   2.999   5.321   2.175  1.2621 -4.8205 -0.9662
  2824G12c H01E52338   2.904   5.291   2.321 -3.8311 -0.4274 -1.5044
  2824G12c C02J52339   2.765   5.028   2.148 -0.7972  2.2916 -0.2727
  2824G12c H01H52340   2.871   5.007   2.143 -1.1445 -2.1408  5.6921
  2824G12c C02I52341   2.685   4.929   2.213  0.8236 -0.5576  1.4205
  2824G12c C02N52342   2.716   4.782   2.214 -1.3446 -1.0064  0.6228
  2824G12c H01M52343   2.696   4.708   2.290  0.1524 -0.6410  1.4084
  2824G12c C02O52344   2.766   4.738   2.103  0.7798  0.0788 -2.7596
  2824G12c H01L52345   2.802   4.802   2.024 -3.8899  2.5801 -3.0584
  2824G12c C02P52346   2.773   4.585   2.103  1.1905 -2.4938 -0.3155
  2824G12c H01K52347   2.704   4.546   2.178 -3.9840 -3.3080 -5.2038
  2824G12c H01J52348   2.739   4.554   2.005 -0.6258  1.8917 -1.1921
  2824G12c O00H52349   2.895   4.550   2.111 -0.8717 -1.5733 -0.7172
  2824G12c H01I52350   2.944   4.619   2.153 -2.4867 -4.5525  6.8165
  2824G12c C02H52351   2.549   4.967   2.256  0.3165  0.7154 -0.3246
  2824G12c H01C52352   2.489   4.888   2.298  1.2410  0.0112 -0.3238
  2824G12c C02L52353   2.510   5.103   2.249 -0.7729  1.4081 -0.5661
  2824G12c H01D52354   2.421   5.114   2.309  1.4220  3.5768  2.4740
  2824G12c C01352355   2.743   5.690   2.479 -1.3599 -0.4691 -1.7254
  2824G12c H00052356   2.783   5.589   2.473  1.8796  0.2687  3.5096
  2824G12c C01452357   2.802   5.822   2.466  0.9213 -1.5284 -0.9193
  2824G12c C00F52358   2.941   5.839   2.465 -0.3287 -1.9199  0.1155
  2824G12c C00H52359   2.903   6.087   2.408 -0.2841 -0.7366  1.2568
  2824G12c C00I52360   2.950   6.226   2.396 -0.4423 -0.1713  0.5067
  2824G12c C00J52361   2.851   6.319   2.410 -1.1907 -1.1793  1.2499
  2824G12c C00Z52362   2.502   6.036   2.516 -0.6150 -0.2033  1.5037
  2824G12c C00Y52363   2.364   6.018   2.550 -0.3477  0.6237  0.0696
  2824G12c H00652364   2.300   5.931   2.553 -2.5727  2.0116 -3.5859
  2824G12c C00X52365   2.300   6.126   2.611 -1.7773  0.1138 -0.6055
  2824G12c O00352366   2.196   6.103   2.697  1.4538 -0.8417 -1.2173
  2824G12c C01B52367   2.173   6.184   2.821  1.9691  2.0610 -0.7694
  2824G12c H00952368   2.157   6.292   2.812  0.7284  1.4926 -7.7451
  2824G12c H00852369   2.241   6.173   2.906 -3.7125 -0.8280  3.7546
  2824G12c H00752370   2.068   6.164   2.841  2.3108 -1.7035 -2.4188
  2824G12c C00W52371   2.341   6.257   2.590  0.3757 -0.4278 -2.7223
  2824G12c O00452372   2.248   6.358   2.619  0.4017  0.1899 -0.5205
  2824G12c C01C52373   2.327   6.462   2.671 -0.0976  1.2694 -0.2239
  2824G12c H00A52374   2.271   6.546   2.709  0.6647  0.2151  3.3885
  2824G12c C00P52375   2.477   6.484   2.657  0.3270  0.1962 -0.1550
  2824G12c C00O52376   2.541   6.603   2.698  0.2862  1.7135 -2.6078
  2824G12c C01D52377   2.509   6.664   2.822  0.4228 -1.2988 -0.0668
  2824G12c H00S52378   2.423   6.631   2.879  3.4183 -0.8069  5.0144
  2824G12c C01E52379   2.569   6.772   2.886 -0.7819  0.1337  0.1039
  2824G12c O00852380   2.510   6.826   3.004 -1.0084  0.2585 -0.2154
  2824G12c C01V52381   2.467   6.955   2.976 -0.4840 -2.1286  2.0521
  2824G12c C01Z52382   2.325   6.957   2.922 -0.2194 -0.9758  0.7649
  2824G12c H00R52383   2.314   6.934   2.816 -2.8783 -0.0961  0.8194
  2824G12c H00Q52384   2.256   6.880   2.956 -5.2686  4.2688  3.1903
  2824G12c O00952385   2.250   7.063   2.971 -0.6723 -0.5118  0.5350
  2824G12c H00P52386   2.166   7.081   2.931 -1.2905 -5.1692 -0.4312
  2824G12c C01W52387   2.540   7.073   3.004 -0.5260  2.6207 -0.0193
  2824G12c H00O52388   2.648   7.069   3.003 -0.6080 -0.1177 -0.7649
  2824G12c C01X52389   2.501   7.213   2.987  0.7754  0.7170 -0.5163
  2824G12c H00N52390   2.396   7.229   2.961 -1.1628 -1.1033  5.2654
  2824G12c H00M52391   2.485   7.239   3.092  7.2573  0.0213  0.8742
  2824G12c C01Y52392   2.581   7.313   2.910 -0.4990 -0.3439 -1.0887
  2824G12c C02D52393   2.676   7.275   2.799 -1.5726 -0.3554 -0.3384
  2824G12c H01952394   2.663   7.173   2.764 -1.7361  0.8449 -3.9944
  2824G12c C02C52395   2.759   7.369   2.734 -0.4884  0.8633 -0.6046
  2824G12c H01A52396   2.840   7.338   2.670 -2.2032 -1.9569 -1.4644
  2824G12c C02B52397   2.766   7.500   2.771  1.3717  0.7028  0.3343
  2824G12c O00E52398   2.849   7.585   2.710  0.2377 -1.0324 -0.2650
  2824G12c H01B52399   2.797   7.659   2.680  4.7500  1.1418 -3.2257
  2824G12c C02F52400   2.659   7.532   2.866 -1.2755 -2.8260  0.1704
  2824G12c O00F52401   2.644   7.671   2.888  0.9068 -0.0384  0.3336
  2824G12c C02G52402   2.585   7.747   2.776 -1.3253 -0.6987  0.9526
  2824G12c H01752403   2.573   7.855   2.785-10.2200 -1.4291  3.1759
  2824G12c H01652404   2.483   7.711   2.792 -1.4755  0.7917  3.7879
  2824G12c H01552405   2.595   7.728   2.669  2.4145  2.2674  0.6736
  2824G12c C02E52406   2.566   7.454   2.943  0.3876  1.3783 -0.2626
  2824G12c H01852407   2.490   7.461   3.019  0.4759 -1.5970  0.1663
  2824G12c C01F52408   2.687   6.829   2.835 -0.5207 -0.0428  1.0017
  2824G12c C01G52409   2.794   6.901   2.900  0.2655  0.1681  1.3405
  2824G12c H00L52410   2.803   6.924   3.005 -2.3727  0.9451  1.4386
  2824G12c C01H52411   2.915   6.932   2.820 -1.7466  0.6193  0.9719
  2824G12c H00B52412   3.000   6.986   2.859 -3.9403  4.2952  0.9708
  2824G12c C01I52413   2.936   6.882   2.682 -1.0477  0.3731  2.5522
  2824G12c C01U52414   2.708   6.789   2.700 -1.1085  0.8339  2.1690
  2824G12c C00S52415   2.719   6.302   2.417  0.1734 -1.5662 -0.3968
  2824G12c C00K52416   2.884   6.454   2.429  0.0665 -0.6288 -0.4805
  2824G12c C00N52417   2.647   6.674   2.635  1.4555 -0.0844 -1.5488
  2824G12c C00052418   2.819   6.833   2.629 -0.6881 -0.7490 -2.1889
  2824G12c C01J52419   3.043   6.805   2.630  0.3625  0.4948  2.0144
  2824G12c C01K52420   3.187   6.817   2.660  0.0164 -0.2984  0.0376
  2824G12c C01P52421   3.249   6.940   2.702  1.0047  0.1706  0.3497
  2824G12c C01Q52422   3.187   7.057   2.691 -0.8746 -0.5964 -1.2396
  2824G12c H00G52423   3.115   7.062   2.610  3.1273  2.3633 -4.8568
  2824G12c C01R52424   3.246   7.167   2.750 -0.6716 -1.8366  0.5190
  2824G12c H00F52425   3.276   7.142   2.851  2.5969  2.0231  0.6355
  2824G12c C01S52426   3.203   7.288   2.707  0.1911  0.0139 -1.2247
  2824G12c H00E52427   3.273   7.356   2.658  2.3531  2.4920  4.8711
  2824G12c H00D52428   3.110   7.282   2.649  1.8583  0.8080 -4.1008
  2824G12c O00552429   3.189   7.346   2.839  1.4140  0.2048  0.2829
  2824G12c H00C52430   3.125   7.323   2.904  1.9055  3.9693  2.2271
  2824G12c C01O52431   3.379   6.921   2.761 -0.2283 -1.2947  0.8862
  2824G12c H00H52432   3.443   7.000   2.798  2.3742 -2.7280 -0.4327
  2824G12c C01N52433   3.463   6.803   2.750  0.1567 -0.9363 -1.1131
  2824G12c O00652434   3.586   6.768   2.784  1.9939 -2.1249 -0.3414
  2824G12c C01T52435   3.626   6.814   2.915  0.3578 -0.8117  0.4137
  2824G12c H00K52436   3.701   6.743   2.948  0.6148 -1.7146 -1.9669
  2824G12c H00J52437   3.686   6.905   2.915  1.5201 -1.5516  2.8745
  2824G12c H00I52438   3.531   6.818   2.970  0.4208 -4.9845  0.9383
  2824G12c C01M52439   3.387   6.681   2.709 -0.8796  0.4559  0.4573
  2824G12c C02052440   3.042   6.477   2.446  1.3862 -0.5895 -0.0788
  2824G12c C02152441   3.125   6.373   2.404 -1.6666  1.3440 -0.2011
  2824G12c C01L52442   3.256   6.699   2.650  0.2822  0.2088  0.4637
  2824G12c O00752443   3.461   6.564   2.689 -1.2479 -0.0122 -1.0037
  2824G12c C02252444   3.256   6.377   2.452  0.5965  0.4825  0.3428
  2824G12c C02352445   3.089   6.235   2.387  0.1907 -0.4385 -0.0988
  2824G12c C00G52446   2.991   5.980   2.438  1.0981 -0.1116  1.0432
  2824G12c C00E52447   3.027   5.734   2.493 -1.4416  1.0893  0.6904
  2824G12c O00A52448   2.985   5.604   2.512 -0.5618  1.0433 -0.2672
  2824G12c C02452449   2.968   5.573   2.655 -1.1413 -0.5618 -0.6666
  2824G12c H00V52450   2.866   5.597   2.686  0.7338  3.6928  2.7877
  2824G12c H00U52451   2.996   5.654   2.722 -2.9650 -0.4080 -0.0636
  2824G12c H00T52452   3.022   5.485   2.689  0.0342  0.3258 -0.2104
  2834G12c C00D52453   8.285   1.524  10.139  0.3546  0.3594 -0.7586
  2834G12c O00B52454   8.382   1.618  10.104  2.0217  0.4298  0.4126
  2834G12c C02552455   8.413   1.673   9.982  0.5537 -0.2402  0.9950
  2834G12c C02652456   8.446   1.546   9.896 -0.3119 -0.6353 -0.2109
  2834G12c H00Y52457   8.422   1.452   9.945 -1.0193 -0.7544 -0.7819
  2834G12c H00X52458   8.555   1.556   9.900  0.3961 -3.0767 -6.9615
  2834G12c O00C52459   8.388   1.559   9.751 -0.5176 -0.4122  1.0960
  2834G12c H00W52460   8.349   1.645   9.746  0.6850  0.0603 -1.2554
  2834G12c C02752461   8.436   1.813   9.952 -2.4325  0.8419 -0.9921
  2834G12c O00D52462   8.519   1.845   9.851  0.1625  0.3069 -1.0502
  2834G12c H00Z52463   8.613   1.837   9.845  0.1975 -0.1616 -0.0898
  2834G12c C02852464   8.406   1.922  10.047  1.0294 -0.1669 -0.6588
  2834G12c C02952465   8.382   1.927  10.187 -0.0032  0.7046 -1.4959
  2834G12c H01052466   8.382   1.831  10.236 -5.0515 -0.2005 -2.9313
  2834G12c C02T52467   8.353   2.035  10.265 -1.4721  2.1337  0.9672
  2834G12c H01O52468   8.355   2.037  10.373  1.5366 -1.9679  1.0974
  2834G12c C02S52469   8.368   2.167  10.210  0.0949  0.1182 -0.3023
  2834G12c O00J52470   8.347   2.269  10.302 -0.5218 -0.5978 -0.6691
  2834G12c H01P52471   8.307   2.341  10.256  2.0968  1.5496  0.2652
  2834G12c C02R52472   8.365   2.170  10.061  1.4181 -0.4229  0.3799
  2834G12c O00I52473   8.371   2.284  10.001  0.8894  0.4579  0.3697
  2834G12c C02Q52474   8.411   2.308   9.870  0.5147 -0.1087 -1.8032
  2834G12c H01N52475   8.455   2.226   9.813  2.6979  1.3480 -2.2750
  2834G12c H01R52476   8.484   2.386   9.889 -1.8091  1.8987 -0.8398
  2834G12c H01Q52477   8.340   2.358   9.804 -3.1673 -2.5721  0.0778
  2834G12c C02A52478   8.378   2.049   9.986  0.1572 -1.2432 -1.2046
  2834G12c H01152479   8.373   2.063   9.879  4.0117  2.1720 -1.0305
  2834G12c C00C52480   8.164   1.521  10.066 -0.2821  0.5183 -1.1861
  2834G12c H01252481   8.139   1.603  10.001 -3.4676  1.8900  1.5909
  2834G12c C00B52482   8.067   1.434  10.103  0.6840  0.7729 -0.3398
  2834G12c C00A52483   7.941   1.414  10.040 -0.1399 -0.2846 -0.3010
  2834G12c C00952484   7.852   1.495   9.957  0.2918 -1.1823  0.1109
  2834G12c C00852485   7.859   1.625   9.908  1.0244  0.1043 -1.5059
  2834G12c H01352486   7.964   1.648   9.898  1.6544 -2.3809 -0.8200
  2834G12c C00752487   7.760   1.722   9.910  1.2260 -0.0402  2.9519
  2834G12c H01452488   7.765   1.829   9.893  2.3481 -0.9378 -3.5154
  2834G12c C00652489   7.623   1.682   9.942 -0.8685  1.1542  1.4403
  2834G12c C00552490   7.607   1.545   9.974  0.0124 -0.7523  2.2753
  2834G12c C00452491   7.492   1.504  10.050  1.5176 -0.3140 -0.3218
  2834G12c C00352492   7.506   1.388  10.147 -0.6667 -0.0742  0.3309
  2834G12c C00252493   7.375   1.333  10.202  0.9993 -0.7569 -0.6802
  2834G12c C00152494   7.336   1.216  10.286  0.0992  1.2737 -1.5884
  2834G12c C00M52495   7.420   1.169  10.391 -1.6957  0.7211  0.4917
  2834G12c C00L52496   7.565   1.127  10.350  0.5771 -1.0040  0.0044
  2834G12c C00R52497   7.649   1.080  10.452 -0.2379 -1.0318  1.3973
  2834G12c C00Q52498   7.625   1.037  10.585 -0.6996  0.2203 -0.7014
  2834G12c C00V52499   7.758   1.040  10.650 -0.2770 -0.2110  1.2340
  2834G12c C00U52500   7.879   1.077  10.591  0.8531 -1.0451 -0.8998
  2834G12c C00T52501   7.891   1.122  10.471 -1.0863 -1.6592 -0.0899
  2834G12c C01652502   7.989   1.195  10.409  0.8063 -0.3808  0.2253
  2834G12c C01552503   8.108   1.213  10.487  0.6205  1.0988  1.8201
  2834G12c C01052504   8.096   1.191  10.625 -0.1993  0.4239 -0.8607
  2834G12c C01152505   8.225   1.187  10.684 -0.5089  0.4363  0.4837
  2834G12c H00552506   8.242   1.146  10.782  1.4847 -2.0771 -0.8554
  2834G12c C01252507   8.322   1.265  10.630 -1.1554 -1.3293 -0.0308
  2834G12c C01752508   8.443   1.307  10.710 -1.9325  0.2883 -0.3984
  2834G12c O00252509   8.447   1.441  10.721 -0.5347  1.4031 -0.6078
  2834G12c H00452510   8.401   1.456  10.640  2.6710  4.0451 -2.0494
  2834G12c C01852511   8.498   1.208  10.781  0.5569 -0.1906  0.6033
  2834G12c O00152512   8.520   1.077  10.758 -0.8189 -0.7860  0.2023
  2834G12c H00352513   8.480   1.053  10.676  4.6937 -2.9156 -2.1484
  2834G12c C01952514   8.606   1.236  10.899 -1.2802 -0.5232  0.1889
  2834G12c H00252515   8.695   1.182  10.869 -1.6577  0.6929 -3.4001
  2834G12c H00152516   8.656   1.333  10.908 -4.1037  1.3154 -2.7513
  2834G12c O00052517   8.559   1.193  11.019  0.0699  0.2396  0.4569
  2834G12c C01A52518   8.618   1.264  11.125  1.6440 -0.0176 -1.8575
  2834G12c C02K52519   8.749   1.229  11.164  3.0616  0.8226 -0.9393
  2834G12c O00G52520   8.845   1.164  11.084 -0.6094  0.5441 -0.8461
  2834G12c C02M52521   8.972   1.235  11.066  1.1897  0.9854 -0.0332
  2834G12c H01G52522   9.025   1.257  11.159 -1.2828  0.8853  1.4567
  2834G12c H01F52523   9.045   1.170  11.017  2.4939  0.6388  2.2887
  2834G12c H01E52524   8.965   1.334  11.022  0.8427  0.9018 -0.1680
  2834G12c C02J52525   8.772   1.260  11.307 -0.0365  0.1785  2.5170
  2834G12c H01H52526   8.864   1.238  11.358  3.5763  5.3713 -1.2498
  2834G12c C02I52527   8.685   1.316  11.391 -0.8372  0.6085  1.0260
  2834G12c C02N52528   8.688   1.308  11.540 -1.0025  0.3624  0.8192
  2834G12c H01M52529   8.750   1.226  11.574 -2.7247 -2.0952 -1.6821
  2834G12c C02O52530   8.630   1.394  11.631  1.2373 -0.2569  1.2102
  2834G12c H01L52531   8.564   1.455  11.570  2.1770 -5.8288 -6.0009
  2834G12c C02P52532   8.633   1.385  11.790 -0.2302  0.2559  0.2131
  2834G12c H01K52533   8.722   1.444  11.769 -1.2516  1.7007 -0.1049
  2834G12c H01J52534   8.541   1.443  11.792 -1.4628 -1.6217  4.0042
  2834G12c O00H52535   8.624   1.257  11.825 -0.9215 -0.1749  0.6274
  2834G12c H01I52536   8.535   1.228  11.841 -0.6949 -3.2206 -2.8982
  2834G12c C02H52537   8.560   1.349  11.335  0.8950 -1.3672  0.1652
  2834G12c H01C52538   8.487   1.393  11.400  1.0833  4.3695 -3.2188
  2834G12c C02L52539   8.522   1.332  11.198  0.4347 -0.1390 -0.3808
  2834G12c H01D52540   8.420   1.344  11.165 -2.2848 -3.7231  5.8076
  2834G12c C01352541   8.307   1.323  10.514  0.6806 -0.3102 -1.2866
  2834G12c H00052542   8.371   1.407  10.490  2.8580 -1.2865  1.0048
  2834G12c C01452543   8.206   1.286  10.419 -0.9723 -2.2104  0.2416
  2834G12c C00F52544   8.197   1.348  10.290  0.6138 -1.2257  0.4776
  2834G12c C00H52545   7.973   1.261  10.281 -1.1337  0.3447 -1.6517
  2834G12c C00I52546   7.853   1.236  10.211 -1.0062  0.4163  0.3949
  2834G12c C00J52547   7.755   1.143  10.262 -0.8219  0.6128  0.7069
  2834G12c C00Z52548   7.996   1.103  10.678  0.9675  1.1366 -0.2816
  2834G12c C00Y52549   7.994   1.056  10.812 -0.2607 -0.6452 -1.4575
  2834G12c H00652550   8.075   1.072  10.882  4.0496 -2.8735 -5.6186
  2834G12c C00X52551   7.891   0.984  10.864 -1.0320 -0.5499 -1.3398
  2834G12c O00352552   7.875   0.941  11.003 -0.2208 -0.0742 -2.0090
  2834G12c C01B52553   7.977   0.859  11.049  2.3284  1.1894  1.0558
  2834G12c H00952554   8.029   0.807  10.969 -0.7023  0.4001 -0.4599
  2834G12c H00852555   7.920   0.812  11.128  1.5753  0.0324 -0.1601
  2834G12c H00752556   8.039   0.942  11.084 -0.5649  5.4891 -3.2076
  2834G12c C00W52557   7.771   0.994  10.785  0.0609 -0.4781 -0.0164
  2834G12c O00452558   7.656   0.966  10.857  0.6905  0.7276 -0.8280
  2834G12c C01C52559   7.527   0.978  10.807 -0.6193 -0.6414  3.0182
  2834G12c H00A52560   7.452   0.910  10.845 -3.5708 -0.2121 -1.6177
  2834G12c C00P52561   7.509   1.025  10.676 -0.9407 -0.1685 -2.1261
  2834G12c C00O52562   7.400   1.105  10.635 -1.0036 -2.2570  0.7173
  2834G12c C01D52563   7.336   1.182  10.733  0.6230  1.6806  1.2850
  2834G12c H00S52564   7.407   1.183  10.815 -4.6807 -1.8034  6.3479
  2834G12c C01E52565   7.223   1.286  10.723  0.3477 -0.4882  0.4494
  2834G12c O00852566   7.175   1.360  10.840 -1.3520  0.0024 -0.4384
  2834G12c C01V52567   7.049   1.291  10.872 -0.2241 -0.3059  0.8935
  2834G12c C01Z52568   6.912   1.357  10.845  2.5049  2.3216 -0.2464
  2834G12c H00R52569   6.859   1.401  10.929 -0.3286 -3.1457  1.0951
  2834G12c H00Q52570   6.954   1.447  10.800  2.3107  1.8995 -1.2896
  2834G12c O00952571   6.817   1.289  10.758  0.7373  1.0475  0.8039
  2834G12c H00P52572   6.866   1.307  10.679 -1.7569  6.7096  0.3020
  2834G12c C01W52573   7.065   1.205  10.978  0.0638 -1.0023 -1.2663
  2834G12c H00O52574   7.163   1.206  11.021 -0.3280  4.4672 -0.1519
  2834G12c C01X52575   6.974   1.133  11.080 -0.3039 -0.8301  0.7011
  2834G12c H00N52576   6.870   1.106  11.060 -0.1089 -2.3153  1.5852
  2834G12c H00M52577   7.026   1.041  11.108  1.4350 -0.3682 -0.8693
  2834G12c C01Y52578   6.972   1.237  11.200  0.6486 -1.4487 -0.2519
  2834G12c C02D52579   6.933   1.190  11.332 -0.6513  1.6456  2.3640
  2834G12c H01952580   6.912   1.084  11.336  2.5834  0.7493 -1.3591
  2834G12c C02C52581   6.954   1.273  11.441  1.3317  1.7692  1.6370
  2834G12c H01A52582   6.895   1.247  11.527 -3.9375  1.4199 -1.8643
  2834G12c C02B52583   6.986   1.404  11.425  1.4039  0.9861 -1.1042
  2834G12c O00E52584   7.000   1.472  11.541  0.5461  0.6388 -0.4235
  2834G12c H01B52585   7.001   1.562  11.513 -3.3242  0.1730 -2.3900
  2834G12c C02F52586   7.029   1.451  11.300 -1.9971 -0.4400 -0.3643
  2834G12c O00F52587   7.086   1.573  11.305  0.7006 -2.2604 -1.4116
  2834G12c C02G52588   7.204   1.592  11.222 -1.2939  1.2423  1.1283
  2834G12c H01752589   7.292   1.554  11.274 -4.2484 -0.4185  5.2444
  2834G12c H01652590   7.222   1.696  11.249  1.8176  1.1906 -0.4362
  2834G12c H01552591   7.188   1.611  11.116  2.3586  1.3988  0.5211
  2834G12c C02E52592   7.031   1.363  11.187  0.4419 -1.2607  1.3498
  2834G12c H01852593   7.054   1.404  11.089 -3.7432 -3.5011 -0.7260
  2834G12c C01F52594   7.189   1.321  10.590  2.0806  0.3804 -1.7365
  2834G12c C01G52595   7.127   1.444  10.549  1.2372  0.7856  1.2571
  2834G12c H00L52596   7.107   1.519  10.625  4.1823  0.9628  1.9556
  2834G12c C01H52597   7.138   1.477  10.412 -0.8899 -0.1082  0.2722
  2834G12c H00B52598   7.125   1.580  10.383  0.7913  0.7450  2.3939
  2834G12c C01I52599   7.182   1.387  10.318  1.7699  0.5170  0.6706
  2834G12c C01U52600   7.240   1.239  10.483 -0.1733  0.7631 -0.6926
  2834G12c C00S52601   7.777   1.093  10.396 -1.2158  0.4739 -0.5160
  2834G12c C00K52602   7.620   1.190  10.241  0.0101  0.9383  1.0959
  2834G12c C00N52603   7.348   1.154  10.511 -0.9847  0.0185 -0.1663
  2834G12c C00052604   7.208   1.247  10.344 -1.8058  1.0147 -0.7882
  2834G12c C01J52605   7.281   1.437  10.200  1.2692  1.1749 -0.9691
  2834G12c C01K52606   7.260   1.573  10.136  1.3875  0.1093  0.0581
  2834G12c C01P52607   7.153   1.642  10.106 -0.6932 -1.0771 -0.3257
  2834G12c C01Q52608   7.023   1.597  10.142  0.7181 -1.0204  0.3476
  2834G12c H00G52609   6.968   1.637  10.226 -1.0974  0.2934 -1.4171
  2834G12c C01R52610   6.964   1.523  10.050  0.4559 -0.2116  0.8416
  2834G12c H00F52611   6.861   1.502  10.073  1.0124  2.8573  7.4992
  2834G12c C01S52612   7.005   1.496   9.905 -0.2337  0.9937 -1.0272
  2834G12c H00E52613   6.909   1.514   9.855 -0.8824 -3.1732 -1.4267
  2834G12c H00D52614   7.058   1.570   9.845 -2.4533 -0.8031 -5.4597
  2834G12c O00552615   7.052   1.371   9.898 -1.0459  0.4340  0.8121
  2834G12c H00C52616   7.119   1.322   9.943 -2.9219 -6.0185 -2.8535
  2834G12c C01O52617   7.168   1.772  10.059 -1.3521 -0.2062 -1.0299
  2834G12c H00H52618   7.072   1.813  10.032 -2.2967 -0.8345  1.2559
  2834G12c C01N52619   7.284   1.823  10.013 -0.2397 -0.6999  0.5450
  2834G12c O00652620   7.304   1.951   9.947 -0.1407  0.1822  0.7041
  2834G12c C01T52621   7.354   1.967   9.810  1.0305 -0.1866 -1.1525
  2834G12c H00K52622   7.332   1.875   9.756 -3.2624 -0.4023  0.6964
  2834G12c H00J52623   7.453   1.986   9.769  0.3526 -1.6346 -3.5430
  2834G12c H00I52624   7.312   2.065   9.789  6.9407  2.6990 -0.4676
  2834G12c C01M52625   7.403   1.732  10.010 -0.1397  0.1189 -0.1055
  2834G12c C02052626   7.607   1.295  10.152 -0.4234  0.1930  0.8960
  2834G12c C02152627   7.713   1.339  10.055  1.7688 -0.0332  2.9144
  2834G12c C01L52628   7.392   1.607  10.080 -0.0972  2.6986 -2.1246
  2834G12c O00752629   7.518   1.776   9.952 -0.3664 -0.1959  1.7073
  2834G12c C02252630   7.714   1.454   9.973 -1.1776 -0.8692 -1.3971
  2834G12c C02352631   7.849   1.311  10.087  2.1668  0.9434 -1.2552
  2834G12c C00G52632   8.076   1.349  10.220  0.9556  0.5628 -0.1972
  2834G12c C00E52633   8.311   1.418  10.244  2.2284 -1.9829  2.0612
  2834G12c O00A52634   8.430   1.399  10.291 -1.5314 -1.0830  0.3521
  2834G12c C02452635   8.531   1.343  10.193 -0.3896  0.0652 -1.1253
  2834G12c H00V52636   8.501   1.238  10.194 -1.1585  0.1818 -4.3453
  2834G12c H00U52637   8.630   1.369  10.229  0.8817  3.1281 -6.2737
  2834G12c H00T52638   8.559   1.362  10.089  4.4447  5.1239  0.8487
  2844G12c C00D52639   2.195   5.855   1.961  0.3668  0.6202 -0.8443
  2844G12c O00B52640   2.282   5.931   2.024 -0.4126 -0.9778 -0.6569
  2844G12c C02552641   2.232   6.013   2.127 -0.9709 -0.2975 -0.3073
  2844G12c C02652642   2.126   5.971   2.239  0.4615  1.8427  1.4203
  2844G12c H00Y52643   2.129   6.034   2.328 -1.3663 -1.1402  3.6742
  2844G12c H00X52644   2.164   5.871   2.259 -3.9927 -0.1504  0.5244
  2844G12c O00C52645   1.979   5.969   2.187  0.4544 -0.0871 -1.0945
  2844G12c H00W52646   1.976   5.928   2.102 -2.5827 -2.9691  0.3068
  2844G12c C02752647   2.288   6.150   2.137  0.3081  1.8441 -1.0724
  2844G12c O00D52648   2.379   6.160   2.040  0.1212  0.8204  0.3157
  2844G12c H00Z52649   2.368   6.081   1.990 -2.4398  0.4727  1.3609
  2844G12c C02852650   2.250   6.264   2.217 -0.1937  1.9437 -0.5800
  2844G12c C02952651   2.365   6.346   2.261 -0.6821 -1.4613  0.9479
  2844G12c H01052652   2.468   6.314   2.270  0.8881  2.9646 -0.0445
  2844G12c C02T52653   2.323   6.477   2.305 -0.2293  1.2296 -1.5378
  2844G12c H01O52654   2.392   6.559   2.311  0.8057  0.4851 -3.0183
  2844G12c C02S52655   2.208   6.516   2.355 -0.0862  0.9039 -0.1200
  2844G12c O00J52656   2.226   6.640   2.424 -0.7359  1.7192 -0.9684
  2844G12c H01P52657   2.159   6.703   2.403 -2.5407  2.2378  5.5284
  2844G12c C02R52658   2.103   6.438   2.323  0.0237  0.6203 -1.3917
  2844G12c O00I52659   1.990   6.454   2.389 -0.2590  0.0503  0.6513
  2844G12c C02Q52660   1.961   6.390   2.511 -0.5848  0.0808  0.5967
  2844G12c H01N52661   1.983   6.283   2.510  4.1023  0.9349 -1.9512
  2844G12c H01R52662   2.030   6.442   2.578 -4.3902  0.6374  4.2729
  2844G12c H01Q52663   1.866   6.415   2.559 -2.7507  0.0532 -3.4930
  2844G12c C02A52664   2.124   6.292   2.283  0.9826  0.2783  0.7995
  2844G12c H01152665   2.055   6.209   2.286  4.0403 -2.3363  2.3402
  2844G12c C00C52666   2.155   5.725   2.021 -0.9390 -1.2281  0.5171
  2844G12c H01252667   2.218   5.680   2.097 -2.1559 -0.9154  1.7372
  2844G12c C00B52668   2.020   5.687   1.993 -0.2761 -0.9239  0.9060
  2844G12c C00A52669   1.957   5.555   2.030 -0.0888 -0.9507 -0.8372
  2844G12c C00952670   2.028   5.420   2.051  0.1342 -0.5054  0.1297
  2844G12c C00852671   2.155   5.359   2.049  1.6177  0.3221  1.2014
  2844G12c H01352672   2.254   5.401   2.037  1.5353  0.4236  0.8412
  2844G12c C00752673   2.175   5.226   2.006 -0.4117  0.7819 -1.6155
  2844G12c H01452674   2.257   5.176   1.958 -0.7823  1.2055 -2.7074
  2844G12c C00652675   2.048   5.157   1.986 -0.7158  0.1528  0.6381
  2844G12c C00552676   1.926   5.206   2.018  0.8091  0.1423 -1.1048
  2844G12c C00452677   1.798   5.145   1.968 -2.4431 -0.5503 -0.9466
  2844G12c C00352678   1.677   5.229   1.971  0.8838  0.0860 -0.1972
  2844G12c C00252679   1.563   5.157   1.908 -1.3225 -0.7155  1.0870
  2844G12c C00152680   1.437   5.210   1.876 -0.5457 -0.6262 -0.2533
  2844G12c C00M52681   1.447   5.314   1.782 -0.4552  0.1828 -0.2501
  2844G12c C00L52682   1.464   5.436   1.843 -0.5266  0.6391  0.5190
  2844G12c C00R52683   1.452   5.557   1.759 -0.2689 -0.9784  0.1386
  2844G12c C00Q52684   1.403   5.575   1.624 -0.0413  0.2566 -0.7290
  2844G12c C00V52685   1.438   5.706   1.575 -0.2675 -0.9071 -0.3888
  2844G12c C00U52686   1.564   5.767   1.598  1.2366 -0.7663 -1.1994
  2844G12c C00T52687   1.619   5.737   1.714 -0.8390  1.4112  0.1254
  2844G12c C01652688   1.731   5.787   1.768 -0.2887 -0.1543  0.4009
  2844G12c C01552689   1.796   5.886   1.690  1.9016  1.1431  0.1788
  2844G12c C01052690   1.728   5.948   1.589 -0.4267  1.0038  1.4808
  2844G12c C01152691   1.805   6.054   1.524  0.8292  0.1857 -0.9642
  2844G12c H00552692   1.741   6.110   1.459 -1.2866 -0.9792  0.0766
  2844G12c C01252693   1.911   6.118   1.574  1.0976 -1.0953 -0.2321
  2844G12c C01752694   1.933   6.247   1.511  0.4552  0.6671  0.0525
  2844G12c O00252695   1.952   6.252   1.372  1.6446  0.7098 -0.9719
  2844G12c H00452696   2.001   6.174   1.350 -1.1341 -3.9142  6.9904
  2844G12c C01852697   1.922   6.356   1.591 -0.7998  1.0161 -0.5558
  2844G12c O00152698   1.915   6.346   1.721  0.9361 -0.5383 -0.7944
  2844G12c H00352699   1.974   6.367   1.792  1.7760  0.9974 -1.9264
  2844G12c C01952700   1.940   6.506   1.552  0.9516 -0.4744 -1.3127
  2844G12c H00252701   1.971   6.512   1.448  2.6510 -2.2594 -0.9524
  2844G12c H00152702   1.851   6.568   1.547 -2.7644 -5.4978 -1.8426
  2844G12c O00052703   2.032   6.565   1.648  0.9058  0.3594  1.0066
  2844G12c C01A52704   1.983   6.619   1.759  0.3975 -0.4118 -1.9186
  2844G12c C02K52705   2.073   6.629   1.870  0.8229 -1.6428  1.1401
  2844G12c O00G52706   2.194   6.566   1.855  0.5270  1.5268  0.6121
  2844G12c C02M52707   2.300   6.643   1.924 -1.7929 -0.1822 -0.2010
  2844G12c H01G52708   2.358   6.605   2.008 -3.5298  6.7123  4.5174
  2844G12c H01F52709   2.276   6.741   1.965  4.6819  3.0746 -3.4983
  2844G12c H01E52710   2.381   6.688   1.867 -2.7465  4.8959  2.1377
  2844G12c C02J52711   2.031   6.702   1.989 -0.2493 -0.6306 -0.3929
  2844G12c H01H52712   2.099   6.686   2.072  1.4917 -1.2564 -1.9160
  2844G12c C02I52713   1.907   6.756   1.995 -0.0840 -0.0654  0.4451
  2844G12c C02N52714   1.854   6.804   2.125  0.2590  0.1128 -0.9374
  2844G12c H01M52715   1.755   6.789   2.166 -0.7695 -1.0151 -3.7225
  2844G12c C02O52716   1.936   6.867   2.214 -2.0024 -0.9242 -0.7073
  2844G12c H01L52717   2.028   6.906   2.173  0.3519  4.7969  8.4187
  2844G12c C02P52718   1.879   6.940   2.331  0.4504 -0.1327  0.4446
  2844G12c H01K52719   1.911   6.899   2.426  0.7538  0.0436  0.4170
  2844G12c H01J52720   1.944   7.027   2.334  2.0786 -1.2266 -1.6181
  2844G12c O00H52721   1.749   6.986   2.327 -1.4346 -0.5986  0.6028
  2844G12c H01I52722   1.783   7.075   2.328 -1.8881 -0.4169  0.1049
  2844G12c C02H52723   1.817   6.725   1.904 -0.0719  0.1188 -1.3831
  2844G12c H01C52724   1.717   6.765   1.902 -2.0429 -4.4550 -1.1106
  2844G12c C02L52725   1.850   6.655   1.788  0.8220  0.3703  0.5685
  2844G12c H01D52726   1.773   6.671   1.714  3.3031 -7.4979 -4.2923
  2844G12c C01352727   1.970   6.058   1.679  1.5219  0.2185 -0.8683
  2844G12c H00052728   2.014   6.137   1.738 -2.5709 -0.2829  3.1040
  2844G12c C01452729   1.936   5.932   1.724  1.9280 -0.6064 -1.1130
  2844G12c C00F52730   2.007   5.846   1.816 -1.5229 -0.6075 -1.6954
  2844G12c C00H52731   1.806   5.715   1.862  0.7308 -0.9525 -0.6196
  2844G12c C00I52732   1.743   5.623   1.941  0.5852 -0.7229  0.1510
  2844G12c C00J52733   1.601   5.598   1.922  0.0840  0.3510 -1.2084
  2844G12c C00Z52734   1.603   5.884   1.543 -1.0619 -2.4964 -0.1746
  2844G12c C00Y52735   1.544   5.930   1.416  2.5000 -1.0409 -0.2075
  2844G12c H00652736   1.604   5.961   1.332  0.5972 -3.2770 -2.4782
  2844G12c C00X52737   1.424   5.867   1.387  1.4381  1.5419 -0.2845
  2844G12c O00352738   1.385   5.885   1.258  0.4689  0.3721  0.3905
  2844G12c C01B52739   1.317   6.003   1.246  1.1940  0.4387  1.9018
  2844G12c H00952740   1.273   6.055   1.332 -5.1817 -4.6098  2.1398
  2844G12c H00852741   1.226   5.967   1.198 -0.0577 -0.9801  5.1310
  2844G12c H00752742   1.343   6.089   1.184  2.5639  0.4633  2.4939
  2844G12c C00W52743   1.374   5.757   1.455  0.2646  0.3732 -0.3000
  2844G12c O00452744   1.287   5.667   1.386 -0.2432 -0.6476  1.0585
  2844G12c C01C52745   1.242   5.560   1.452  1.5335 -0.0259  0.5465
  2844G12c H00A52746   1.138   5.550   1.422  1.7354  0.5824 -0.4023
  2844G12c C00P52747   1.313   5.496   1.557  1.0894 -0.1579 -1.2068
  2844G12c C00O52748   1.317   5.351   1.571 -3.5062  0.7693 -0.2687
  2844G12c C01D52749   1.275   5.269   1.471 -1.0634 -0.2413 -0.2169
  2844G12c H00S52750   1.212   5.317   1.397 -1.3193  1.7123  1.2265
  2844G12c C01E52751   1.279   5.124   1.467  1.4747  0.7562 -2.2252
  2844G12c O00852752   1.299   5.062   1.349  0.6248 -2.1444 -0.4497
  2844G12c C01V52753   1.235   4.952   1.316  0.0838 -0.0784  0.3737
  2844G12c C01Z52754   1.296   4.870   1.189 -0.3411 -0.6265  0.3108
  2844G12c H00R52755   1.399   4.835   1.193  0.9295  3.1528  3.8452
  2844G12c H00Q52756   1.238   4.778   1.184  5.0781 -4.4359  2.1197
  2844G12c O00952757   1.280   4.960   1.083 -0.0360 -0.3018  0.2911
  2844G12c H00P52758   1.274   5.049   1.115  0.0387 -1.7775  4.8038
  2844G12c C01W52759   1.116   4.921   1.376  0.5438 -0.5267 -0.8101
  2844G12c H00O52760   1.083   4.999   1.443 -2.6675 -3.3047  0.9966
  2844G12c C01X52761   1.042   4.795   1.352  0.8805 -0.0032  0.2971
  2844G12c H00N52762   0.961   4.798   1.278 -0.6568  1.7795  1.9989
  2844G12c H00M52763   1.113   4.715   1.329  0.6122  0.9503 -4.5347
  2844G12c C01Y52764   0.968   4.750   1.463  0.8003 -0.1598  0.7252
  2844G12c C02D52765   1.026   4.696   1.570  0.2122  0.4232 -0.8548
  2844G12c H01952766   1.123   4.651   1.585  0.7944  3.0193  4.6026
  2844G12c C02C52767   0.962   4.701   1.693 -1.9837 -1.8011  0.4219
  2844G12c H01A52768   0.980   4.638   1.779  1.0136  1.1134  2.0528
  2844G12c C02B52769   0.839   4.751   1.712 -0.8457 -1.2331 -1.9810
  2844G12c O00E52770   0.753   4.700   1.814  1.4550 -0.0096 -0.0979
  2844G12c H01B52771   0.674   4.684   1.765  2.7019 -1.3714 -1.6945
  2844G12c C02F52772   0.771   4.813   1.602  0.5996  0.4274  0.4012
  2844G12c O00F52773   0.636   4.808   1.607  0.0572  0.0989 -0.6157
  2844G12c C02G52774   0.605   4.943   1.571  1.1307 -0.2957 -0.1717
  2844G12c H01752775   0.659   5.000   1.496 -5.8451  1.5991 -4.2593
  2844G12c H01652776   0.620   4.985   1.670  0.4734 -3.2207  1.2368
  2844G12c H01552777   0.496   4.942   1.579  0.9275  7.5806  2.0081
  2844G12c C02E52778   0.845   4.811   1.482  1.9646 -0.5471 -0.7724
  2844G12c H01852779   0.777   4.828   1.400  2.6999  3.1561 -0.6711
  2844G12c C01F52780   1.315   5.048   1.591  0.9347 -0.4004 -0.9232
  2844G12c C01G52781   1.362   4.922   1.588 -0.1010 -1.1101 -1.1790
  2844G12c H00L52782   1.385   4.885   1.489  1.1091 -3.3761 -0.0895
  2844G12c C01H52783   1.438   4.883   1.710 -1.1040 -0.5660 -0.2723
  2844G12c H00B52784   1.512   4.809   1.681 -1.4442 -0.5710 -1.1453
  2844G12c C01I52785   1.452   4.986   1.818 -0.8156  1.5886  0.3610
  2844G12c C01U52786   1.320   5.136   1.695 -0.1849  0.0819 -1.3873
  2844G12c C00S52787   1.538   5.659   1.810 -1.2628 -0.4917  0.1031
  2844G12c C00K52788   1.568   5.455   1.925 -0.4503 -0.2548 -0.0303
  2844G12c C00N52789   1.364   5.273   1.672  1.0250 -1.6242  0.4170
  2844G12c C00052790   1.374   5.104   1.824 -0.1365 -0.2031  0.4355
  2844G12c C01J52791   1.571   5.017   1.888  0.2570 -1.2338  0.4413
  2844G12c C01K52792   1.701   4.941   1.880  0.7499  0.7413  0.4762
  2844G12c C01P52793   1.738   4.796   1.848  0.0162 -1.0416 -0.1127
  2844G12c C01Q52794   1.655   4.712   1.900 -0.0260  0.6558 -0.7859
  2844G12c H00G52795   1.583   4.741   1.975 -1.9087  0.1584 -2.3911
  2844G12c C01R52796   1.652   4.582   1.877  0.7206  0.6294  1.4620
  2844G12c H00F52797   1.720   4.561   1.795  4.5534 -6.9957  6.0283
  2844G12c C01S52798   1.546   4.486   1.928 -0.8372 -2.0434  0.2614
  2844G12c H00E52799   1.571   4.384   1.957 -6.8429 -4.4646 -2.2156
  2844G12c H00D52800   1.497   4.515   2.020  1.0038  2.2673  0.0241
  2844G12c O00552801   1.438   4.507   1.825 -1.1664 -1.4250 -0.8049
  2844G12c H00C52802   1.356   4.476   1.861 -0.9519  1.5293  2.4912
  2844G12c C01O52803   1.861   4.758   1.789  0.8515  1.1705  0.7178
  2844G12c H00H52804   1.874   4.666   1.733  8.4670 -1.6333  6.1650
  2844G12c C01N52805   1.969   4.846   1.816 -1.6815 -1.2857  0.0365
  2844G12c O00652806   2.088   4.797   1.780  1.3926 -0.7172  0.7451
  2844G12c C01T52807   2.218   4.851   1.817 -0.4237 -1.2820 -0.8343
  2844G12c H00K52808   2.298   4.796   1.766 -0.5694 -1.6482 -0.6641
  2844G12c H00J52809   2.236   4.844   1.924  3.9019  5.3447 -0.7975
  2844G12c H00I52810   2.244   4.957   1.821  4.2462 -2.2490 -1.8211
  2844G12c C01M52811   1.935   4.968   1.881 -0.1059  0.9936 -0.8610
  2844G12c C02052812   1.665   5.377   1.985 -1.3497  0.0071  0.3319
  2844G12c C02152813   1.782   5.411   2.061 -0.8500 -0.1662  1.0777
  2844G12c C01L52814   1.804   5.020   1.911 -0.6784  0.7318 -0.9881
  2844G12c O00752815   2.046   5.041   1.912  1.5777  0.1400  0.0320
  2844G12c C02252816   1.911   5.327   2.083 -0.7018  1.1295 -0.7203
  2844G12c C02352817   1.829   5.529   2.014 -0.3717 -1.4218 -0.9649
  2844G12c C00G52818   1.945   5.753   1.900  0.0039  0.0606  0.8232
  2844G12c C00E52819   2.127   5.908   1.849  0.3685 -0.5158  0.9063
  2844G12c O00A52820   2.190   6.025   1.789  0.2664 -0.7174 -0.8750
  2844G12c C02452821   2.328   5.990   1.756 -0.1013 -0.3121 -0.2692
  2844G12c H00V52822   2.326   5.902   1.691 -5.4836 -0.7319  0.2532
  2844G12c H00U52823   2.377   5.967   1.850 -6.7155 -1.5435  3.1738
  2844G12c H00T52824   2.399   6.068   1.728 -0.9926  2.4626  4.6481
  2854G12c C00D52825   3.541   2.745   4.891 -0.0461 -1.6085  0.1076
  2854G12c O00B52826   3.604   2.657   4.986 -0.7150 -0.5581 -1.8425
  2854G12c C02552827   3.575   2.524   4.971  0.7916 -0.2442 -0.3662
  2854G12c C02652828   3.666   2.450   4.873  0.2343 -0.5138 -0.3941
  2854G12c H00Y52829   3.620   2.358   4.836  0.6663 -0.2576 -1.5928
  2854G12c H00X52830   3.651   2.517   4.788  0.0906 -1.5690 -1.2057
  2854G12c O00C52831   3.803   2.436   4.911 -0.1448 -0.5353  0.9330
  2854G12c H00W52832   3.831   2.526   4.911 -3.6908  0.7602  5.7863
  2854G12c C02752833   3.472   2.463   5.042  1.0506  0.0277 -0.6056
  2854G12c O00D52834   3.403   2.531   5.127 -0.4631  0.1718 -1.1404
  2854G12c H00Z52835   3.377   2.609   5.081 -7.9727 -2.3835 -1.8194
  2854G12c C02852836   3.441   2.327   5.032 -1.6202  1.7229 -0.4499
  2854G12c C02952837   3.519   2.225   5.094 -0.0082  1.4228  1.5611
  2854G12c H01052838   3.614   2.250   5.139 -0.6092 -0.1459  3.7870
  2854G12c C02T52839   3.489   2.078   5.078 -0.7082 -0.7536 -0.9351
  2854G12c H01O52840   3.544   1.991   5.110  5.5095  2.1265 -3.0703
  2854G12c C02S52841   3.368   2.046   5.049  1.5368  2.9381  0.8967
  2854G12c O00J52842   3.332   1.920   5.028 -0.2250  0.2956  0.4279
  2854G12c H01P52843   3.263   1.910   5.093 -2.5984 -2.4171 -2.3381
  2854G12c C02R52844   3.278   2.159   5.006 -1.1107  0.7662  0.5682
  2854G12c O00I52845   3.159   2.092   4.958 -0.2717 -1.8356  0.2523
  2854G12c C02Q52846   3.030   2.163   4.923 -1.2442  1.4861 -1.9920
  2854G12c H01N52847   3.019   2.223   4.832 -2.1408  0.8119 -2.3381
  2854G12c H01R52848   2.944   2.097   4.937 -2.1194  3.0844  0.6394
  2854G12c H01Q52849   3.026   2.232   5.008 -3.5338  0.7958 -1.4911
  2854G12c C02A52850   3.314   2.290   5.004  0.5624 -0.1959 -0.4010
  2854G12c H01152851   3.240   2.369   5.008  3.4807  2.6914 -1.0883
  2854G12c C00C52852   3.490   2.710   4.753 -0.5756  0.0335 -0.6624
  2854G12c H01252853   3.501   2.602   4.755 -4.3703 -0.5655  6.0003
  2854G12c C00B52854   3.384   2.799   4.702  0.8684  0.2960 -0.7696
  2854G12c C00A52855   3.266   2.750   4.626  1.2267 -1.2227  0.7289
  2854G12c C00952856   3.228   2.620   4.573  0.4063  0.3044 -0.1705
  2854G12c C00852857   3.270   2.482   4.556 -0.6707 -0.7953  0.5315
  2854G12c H01352858   3.358   2.435   4.596  1.4994 -3.3268 -6.4043
  2854G12c C00752859   3.208   2.395   4.457 -0.7712 -0.0140 -0.4448
  2854G12c H01452860   3.262   2.308   4.423  0.1866 -1.2836  4.0401
  2854G12c C00652861   3.101   2.452   4.364 -0.4145  0.3282  1.5272
  2854G12c C00552862   3.060   2.579   4.377  0.2536  0.6424 -0.7529
  2854G12c C00452863   3.022   2.679   4.270  1.6339 -0.7917 -0.4268
  2854G12c C00352864   2.986   2.822   4.292 -0.2669  0.1038 -1.1660
  2854G12c C00252865   2.937   2.882   4.173 -1.9960  1.9639 -0.4560
  2854G12c C00152866   2.912   3.028   4.141 -0.3572  1.2746 -1.2351
  2854G12c C00M52867   2.993   3.131   4.203 -0.4443  0.5981  1.2718
  2854G12c C00L52868   3.010   3.148   4.342  1.0385  0.6914  1.2664
  2854G12c C00R52869   3.120   3.247   4.378  1.3605 -0.2196 -1.3153
  2854G12c C00Q52870   3.181   3.359   4.315 -1.8212  0.0887 -2.6250
  2854G12c C00V52871   3.280   3.419   4.404  0.3582 -1.9020 -1.0984
  2854G12c C00U52872   3.339   3.360   4.516  0.9937 -0.3187 -0.5912
  2854G12c C00T52873   3.292   3.238   4.557  1.6362  0.5129  1.1714
  2854G12c C01652874   3.352   3.156   4.650  0.9126 -1.1391  1.0800
  2854G12c C01552875   3.443   3.206   4.740 -0.9298 -1.2150  0.2224
  2854G12c C01052876   3.481   3.343   4.717  0.8483 -0.5146 -0.3008
  2854G12c C01152877   3.546   3.401   4.827  0.1085 -0.3841 -2.4750
  2854G12c H00552878   3.550   3.506   4.852  2.1608 -0.9107 -0.3657
  2854G12c C01252879   3.574   3.335   4.949 -0.2003  1.1866 -0.2527
  2854G12c C01752880   3.595   3.408   5.076  1.3086  1.5816 -0.1843
  2854G12c O00252881   3.519   3.504   5.132  0.9741 -0.5159 -1.0039
  2854G12c H00452882   3.530   3.515   5.225  1.1567 -3.2198 -0.6671
  2854G12c C01852883   3.714   3.367   5.139 -0.3584  0.3068 -0.7636
  2854G12c O00152884   3.790   3.252   5.098 -0.5919  0.1070 -0.2714
  2854G12c H00352885   3.754   3.183   5.152 -4.9092  2.5865  0.2530
  2854G12c C01952886   3.752   3.423   5.284  0.4334  0.6661  0.6494
  2854G12c H00252887   3.860   3.442   5.281  1.4705 -4.3027  1.7614
  2854G12c H00152888   3.720   3.526   5.299  0.7418  0.5219  2.5176
  2854G12c O00052889   3.666   3.363   5.372 -0.2370  0.9251  0.1719
  2854G12c C01A52890   3.734   3.344   5.507  1.6751 -0.2385 -1.5821
  2854G12c C02K52891   3.655   3.358   5.620  1.4943 -0.4546 -2.0806
  2854G12c O00G52892   3.522   3.374   5.630 -0.0810 -0.3778 -0.5551
  2854G12c C02M52893   3.472   3.509   5.638  0.0084 -0.3729 -0.0483
  2854G12c H01G52894   3.551   3.571   5.679  0.1768  1.3074 -2.7694
  2854G12c H01F52895   3.380   3.542   5.687 -0.3977  0.0010 -1.0477
  2854G12c H01E52896   3.429   3.545   5.544  2.8594  7.9052  1.3813
  2854G12c C02J52897   3.709   3.313   5.741  2.4182  0.0784 -0.3166
  2854G12c H01H52898   3.622   3.309   5.805 -0.0658 -6.7362 -3.6228
  2854G12c C02I52899   3.837   3.265   5.767 -0.6659  0.5520  0.4868
  2854G12c C02N52900   3.870   3.220   5.887  0.6440 -1.3136  0.5161
  2854G12c H01M52901   3.962   3.228   5.943  0.0127  1.1733  1.2604
  2854G12c C02O52902   3.788   3.107   5.897 -0.0333 -0.4983 -0.0593
  2854G12c H01L52903   3.717   3.065   5.827 -1.0705 -3.5833  2.7125
  2854G12c C02P52904   3.774   3.007   6.031 -0.3700  1.3072 -0.4326
  2854G12c H01K52905   3.666   2.995   6.027  0.2877 -8.2728 -1.8046
  2854G12c H01J52906   3.835   2.922   5.999 -0.4060  4.2657 -9.7924
  2854G12c O00H52907   3.821   3.086   6.137  0.0427  0.0628 -0.1215
  2854G12c H01I52908   3.886   3.131   6.085  1.6916 -1.2773  0.7182
  2854G12c C02H52909   3.911   3.258   5.647  0.3872 -0.7176  0.2221
  2854G12c H01C52910   4.012   3.230   5.675 -1.5384 -4.4835  3.9971
  2854G12c C02L52911   3.854   3.282   5.517 -0.5287 -0.3114  0.6892
  2854G12c H01D52912   3.924   3.272   5.435 -3.7629 -0.8898 -2.1137
  2854G12c C01352913   3.568   3.189   4.940  0.0551  0.6778 -0.2706
  2854G12c H00052914   3.546   3.132   5.029 -0.1151  4.1644  2.0279
  2854G12c C01452915   3.501   3.126   4.837 -0.7393  1.0102  0.0246
  2854G12c C00F52916   3.490   2.983   4.817 -1.3668  0.1706 -0.3539
  2854G12c C00H52917   3.315   3.019   4.655 -1.6353 -0.0579  3.0935
  2854G12c C00I52918   3.191   2.982   4.602 -1.3514  0.2966 -0.1887
  2854G12c C00J52919   3.120   3.075   4.532  1.0512  0.3111 -0.9909
  2854G12c C00Z52920   3.438   3.411   4.607 -0.3946  0.0002  1.6435
  2854G12c C00Y52921   3.494   3.543   4.561  1.8027 -0.7311  0.8642
  2854G12c H00652922   3.542   3.600   4.639 -7.4927  1.5448  5.5359
  2854G12c C00X52923   3.456   3.599   4.433  0.6477  0.2023 -0.8077
  2854G12c O00352924   3.533   3.711   4.380 -0.2202  1.8266 -0.3356
  2854G12c C01B52925   3.489   3.836   4.433 -0.5002  1.6457 -0.3535
  2854G12c H00952926   3.396   3.822   4.487  0.8515 -1.5914  1.2713
  2854G12c H00852927   3.448   3.909   4.363 -0.0804  3.5470  1.3292
  2854G12c H00752928   3.576   3.879   4.483 -0.7998 -1.0187  2.5934
  2854G12c C00W52929   3.353   3.541   4.347 -0.0231 -0.7689  0.8010
  2854G12c O00452930   3.324   3.603   4.234  0.4884  0.5645 -1.5265
  2854G12c C01C52931   3.262   3.523   4.148  0.0832 -1.5566  1.2785
  2854G12c H00A52932   3.327   3.501   4.065 -0.3555  4.9223 -1.0393
  2854G12c C00P52933   3.183   3.404   4.180  1.0981  2.2534  0.3601
  2854G12c C00O52934   3.123   3.348   4.064 -0.1138 -0.1054 -0.7265
  2854G12c C01D52935   3.144   3.405   3.938  0.0466  0.4904 -0.1209
  2854G12c H00S52936   3.182   3.505   3.924  3.1607 -0.4146  1.3410
  2854G12c C01E52937   3.122   3.313   3.827  0.2264  0.0732 -0.7466
  2854G12c O00852938   3.126   3.358   3.702  0.4184 -0.0572  1.1498
  2854G12c C01V52939   3.103   3.490   3.689 -0.2798 -0.4789 -0.5031
  2854G12c C01Z52940   3.219   3.579   3.673 -0.5827  0.0801  0.1495
  2854G12c H00R52941   3.306   3.518   3.652 -0.3348  0.1186  1.0611
  2854G12c H00Q52942   3.212   3.630   3.576  4.3386  6.6462  2.8966
  2854G12c O00952943   3.236   3.692   3.751  0.7130 -2.3914  1.5125
  2854G12c H00P52944   3.324   3.722   3.762  1.7641 -5.3899  1.7246
  2854G12c C01W52945   2.970   3.537   3.707 -2.3192  0.7863  0.3173
  2854G12c H00O52946   2.955   3.644   3.715 -4.8055  0.6305 -1.5276
  2854G12c C01X52947   2.847   3.445   3.733  2.0013  0.6274  0.5248
  2854G12c H00N52948   2.778   3.511   3.681 -3.8076  1.9586  8.8570
  2854G12c H00M52949   2.860   3.349   3.683  4.2652 -0.1820  2.5637
  2854G12c C01Y52950   2.785   3.452   3.880  1.0844  1.2622  0.4701
  2854G12c C02D52951   2.824   3.550   3.966  0.9400  0.3451 -0.1020
  2854G12c H01952952   2.890   3.634   3.951 -0.0430  1.5809  2.2880
  2854G12c C02C52953   2.788   3.561   4.096  0.6127 -0.0146 -0.2428
  2854G12c H01A52954   2.859   3.613   4.158 -3.4249 -4.8946  9.5796
  2854G12c C02B52955   2.681   3.461   4.127 -0.9685 -1.8940 -1.3421
  2854G12c O00E52956   2.638   3.429   4.247 -0.9878  1.4733 -0.5433
  2854G12c H01B52957   2.594   3.348   4.228  0.9313  0.8974 -2.6607
  2854G12c C02F52958   2.621   3.378   4.033  0.6023  2.1102 -0.2964
  2854G12c O00F52959   2.557   3.270   4.083  1.2998 -0.6354 -0.3361
  2854G12c C02G52960   2.486   3.180   3.990  0.4503  1.0635 -0.6455
  2854G12c H01752961   2.406   3.134   4.049 -2.5244  2.1592 -3.6636
  2854G12c H01652962   2.524   3.114   3.912 -3.0681 -4.3720  1.9256
  2854G12c H01552963   2.402   3.227   3.938 -2.0460 -1.6330  0.8236
  2854G12c C02E52964   2.677   3.367   3.907 -0.8384 -1.3350 -1.3461
  2854G12c H01852965   2.641   3.319   3.817  3.6892  5.1078 -7.0329
  2854G12c C01F52966   3.058   3.176   3.848 -0.4607  0.9293  0.9762
  2854G12c C01G52967   3.054   3.069   3.755 -0.3290 -0.2876 -0.8673
  2854G12c H00L52968   3.121   3.063   3.671  1.8560  4.9090  0.3015
  2854G12c C01H52969   3.036   2.941   3.818 -0.6367 -0.0860 -0.4926
  2854G12c H00B52970   3.088   2.875   3.750  0.4782 -2.3210  2.4254
  2854G12c C01I52971   2.981   2.919   3.954 -0.4154  0.3365  0.9797
  2854G12c C01U52972   3.007   3.139   3.972 -1.3341  1.8592  0.7648
  2854G12c C00S52973   3.190   3.189   4.483 -1.5913  1.3154 -0.5783
  2854G12c C00K52974   3.022   3.031   4.432  0.5629  2.0690  0.5325
  2854G12c C00N52975   3.038   3.223   4.088  0.0328 -0.3020  1.6412
  2854G12c C00052976   2.933   3.030   3.997  0.7669  0.9858  0.1281
  2854G12c C01J52977   2.953   2.818   4.050 -0.3671  0.6571  0.3188
  2854G12c C01K52978   3.009   2.688   4.020 -0.6921 -0.6525  0.4771
  2854G12c C01P52979   3.031   2.605   3.897 -0.4171  0.8859  0.8798
  2854G12c C01Q52980   2.966   2.637   3.763 -1.4606  0.5702 -0.1991
  2854G12c H00G52981   2.872   2.687   3.785 -3.9437 -3.1043 -1.9454
  2854G12c C01R52982   2.990   2.638   3.632  0.2709 -0.0882 -0.9631
  2854G12c H00F52983   2.941   2.652   3.537  2.8279  4.2855 -1.7266
  2854G12c C01S52984   3.118   2.566   3.568  0.9568  1.3851 -0.3592
  2854G12c H00E52985   3.167   2.577   3.472  1.7605  3.1013  0.2191
  2854G12c H00D52986   3.191   2.574   3.649  4.0159  2.0940 -3.0819
  2854G12c O00552987   3.028   2.460   3.534 -0.7926  0.8825  1.5349
  2854G12c H00C52988   2.949   2.464   3.585 -1.6621  1.5230  0.1410
  2854G12c C01O52989   3.091   2.480   3.898  0.1382  0.2421  2.1736
  2854G12c H00H52990   3.116   2.437   3.802  1.5521  3.2734  1.1012
  2854G12c C01N52991   3.105   2.419   4.023  0.8654 -0.0759  1.1088
  2854G12c O00652992   3.219   2.333   4.038  0.8905  0.2867  0.4648
  2854G12c C01T52993   3.192   2.237   3.935  1.3763 -0.7935 -0.6165
  2854G12c H00K52994   3.261   2.156   3.956 -3.6505 -5.2162 -0.1678
  2854G12c H00J52995   3.219   2.274   3.836  2.9206 -3.2529 -1.1394
  2854G12c H00I52996   3.089   2.204   3.929  0.2870  2.8064 -3.7386
  2854G12c C01M52997   3.081   2.494   4.133 -1.2820  1.3043 -0.0681
  2854G12c C02052998   3.007   2.886   4.420 -1.0443  0.3304 -0.9885
  2854G12c C02152999   3.075   2.791   4.509 -0.7553 -0.6125  0.7810
  2854G12c C01L53000   3.027   2.621   4.140 -0.5985 -0.2229  0.5346
  2854G12c O00753001   3.080   2.403   4.233  0.3920 -2.5195  0.2649
  2854G12c C02253002   3.102   2.652   4.502  1.0959  0.3051 -0.1809
  2854G12c C02353003   3.160   2.847   4.596 -0.3439  0.7166 -1.5013
  2854G12c C00G53004   3.399   2.926   4.724  0.4128 -1.2397 -0.5003
  2854G12c C00E53005   3.554   2.887   4.918  0.6987 -1.7478 -1.2692
  2854G12c O00A53006   3.636   2.935   5.018 -0.8020  0.9512  0.6244
  2854G12c C02453007   3.593   2.920   5.167  0.0327 -1.2664  1.4898
  2854G12c H00V53008   3.528   2.839   5.135 -1.0654  1.8901 -5.0887
  2854G12c H00U53009   3.683   2.880   5.214  0.2670 -0.0336  2.1000
  2854G12c H00T53010   3.526   2.991   5.216 -0.1099  3.7784 -5.2475
  2864G12c C00D53011   5.168   1.108  10.104  0.1171 -0.7815  1.4933
  2864G12c O00B53012   5.160   1.039   9.990 -0.2550  0.1570 -0.4811
  2864G12c C02553013   5.069   1.067   9.876 -0.9171  1.0219  1.0537
  2864G12c C02653014   5.150   1.058   9.739 -0.5693 -0.5898 -0.3018
  2864G12c H00Y53015   5.248   1.012   9.752  2.4533  5.4556  0.0230
  2864G12c H00X53016   5.207   1.148   9.715  3.6787 -0.6563  7.7400
  2864G12c O00C53017   5.119   0.959   9.649  0.2713 -0.7885  0.2520
  2864G12c H00W53018   5.129   0.876   9.692 -8.4973 -2.1325  0.5526
  2864G12c C02753019   4.934   1.078   9.912 -0.3653  0.6220 -0.6804
  2864G12c O00D53020   4.906   1.065  10.046  1.1735 -0.1957  0.9379
  2864G12c H00Z53021   4.971   1.038  10.109  0.0074  5.6447  5.0725
  2864G12c C02853022   4.839   1.080   9.797  1.1405  0.1238 -0.9288
  2864G12c C02953023   4.870   1.127   9.668  1.8172 -0.9011  0.7191
  2864G12c H01053024   4.963   1.175   9.638  0.2697 -1.7585 -6.3168
  2864G12c C02T53025   4.770   1.116   9.572  0.7647  0.1719  1.1817
  2864G12c H01O53026   4.795   1.133   9.468 -1.7767  6.3984  1.3779
  2864G12c C02S53027   4.642   1.052   9.600 -0.8418 -0.4977  0.6974
  2864G12c O00J53028   4.541   1.046   9.509  1.7625  0.4615  0.1669
  2864G12c H01P53029   4.475   1.093   9.558  4.2096  0.1766  3.8863
  2864G12c C02R53030   4.595   1.035   9.734 -0.9836  0.6094  0.4000
  2864G12c O00I53031   4.462   1.019   9.764  1.0505  0.4360 -0.1596
  2864G12c C02Q53032   4.439   0.943   9.886  0.8233 -0.1235  0.2372
  2864G12c H01N53033   4.437   1.032   9.949 -3.4506 -1.0799  1.6080
  2864G12c H01R53034   4.344   0.889   9.881 -0.9009  2.7723  0.6601
  2864G12c H01Q53035   4.528   0.883   9.906  2.8992  3.0268  0.8144
  2864G12c C02A53036   4.704   1.037   9.836  0.6160  0.4403 -0.8661
  2864G12c H01153037   4.691   1.024   9.943  2.7064 -7.2795 -1.2128
  2864G12c C00C53038   5.234   1.225  10.075 -1.3079 -0.7964 -0.5785
  2864G12c H01253039   5.256   1.254   9.973  2.3317  5.4216  1.7275
  2864G12c C00B53040   5.260   1.344  10.154 -1.1262  0.3623  1.0427
  2864G12c C00A53041   5.334   1.471  10.128  1.5759 -2.4112  0.0062
  2864G12c C00953042   5.420   1.517  10.015  0.0273  1.7255  0.7962
  2864G12c C00853043   5.476   1.447   9.907 -0.8193  0.9499  0.5458
  2864G12c H01353044   5.427   1.358   9.870 -3.6738  3.1725 -1.2926
  2864G12c C00753045   5.613   1.499   9.861 -0.1298  0.0823  0.4962
  2864G12c H01453046   5.659   1.456   9.773 -1.0254  0.1652 -0.0188
  2864G12c C00653047   5.679   1.607   9.927 -1.4044  1.0180  0.3775
  2864G12c C00553048   5.605   1.675  10.031  0.5851 -0.0409  0.1336
  2864G12c C00453049   5.662   1.763  10.124 -1.7901  1.1999  0.5335
  2864G12c C00353050   5.608   1.790  10.258  1.2678 -1.0862 -0.1896
  2864G12c C00253051   5.699   1.881  10.335 -0.3050  0.6431 -0.8334
  2864G12c C00153052   5.689   1.947  10.472  0.7850  0.3391 -0.3093
  2864G12c C00M53053   5.619   1.872  10.574  1.2671 -1.3553 -0.0273
  2864G12c C00L53054   5.501   1.803  10.553  2.1320  0.4583  0.1490
  2864G12c C00R53055   5.441   1.697  10.638  0.7344  1.1102  2.6881
  2864G12c C00Q53056   5.490   1.643  10.762  0.2276  0.4533 -1.6605
  2864G12c C00V53057   5.393   1.548  10.828  1.1910  0.4573 -1.4779
  2864G12c C00U53058   5.319   1.463  10.747  0.3008  0.7173  0.4883
  2864G12c C00T53059   5.291   1.493  10.622  0.9254  1.8303  1.1093
  2864G12c C01653060   5.238   1.400  10.524 -0.9453  1.9116 -0.3651
  2864G12c C01553061   5.188   1.287  10.563 -0.0938 -0.4245 -0.2593
  2864G12c C01053062   5.179   1.278  10.700  1.1673  0.8746  0.6444
  2864G12c C01153063   5.127   1.157  10.756 -0.0951  0.2809 -0.2807
  2864G12c H00553064   5.096   1.137  10.857  0.1693 -2.9066 -0.7841
  2864G12c C01253065   5.084   1.047  10.677  1.5779 -1.0684  0.1966
  2864G12c C01753066   5.016   0.936  10.732 -0.0383  0.2370 -1.1326
  2864G12c O00253067   4.890   0.967  10.791  0.2556 -0.6979  0.5493
  2864G12c H00453068   4.884   1.051  10.748 -2.4709 -3.4521 -5.0073
  2864G12c C01853069   5.030   0.806  10.708  0.9208  0.4303 -1.1233
  2864G12c O00153070   4.938   0.724  10.762 -0.8904 -0.0416 -0.5041
  2864G12c H00353071   4.907   0.787  10.824 -3.0940  1.2610 -2.8169
  2864G12c C01953072   5.148   0.769  10.617  0.2500  0.8919  1.7714
  2864G12c H00253073   5.113   0.677  10.570 -1.7615 -0.6866  6.0884
  2864G12c H00153074   5.198   0.811  10.530 -1.8550  1.6454  0.8822
  2864G12c O00053075   5.261   0.719  10.685 -0.9024  0.9853  1.2650
  2864G12c C01A53076   5.382   0.767  10.628 -0.8451  0.7756 -2.2012
  2864G12c C02K53077   5.497   0.776  10.721  1.1744  0.1007 -0.5506
  2864G12c O00G53078   5.491   0.719  10.843  1.1297 -0.9757 -0.7885
  2864G12c C02M53079   5.413   0.786  10.947 -0.6170 -0.6234  1.2858
  2864G12c H01G53080   5.344   0.846  10.887  2.2484  4.7069  3.0523
  2864G12c H01F53081   5.459   0.869  11.000  6.1858 -5.9441  4.4689
  2864G12c H01E53082   5.396   0.724  11.035  0.7133 -0.5077  1.6392
  2864G12c C02J53083   5.608   0.858  10.690 -1.2865 -1.3713 -0.4599
  2864G12c H01H53084   5.688   0.875  10.761 -0.3119  1.7931 -2.2579
  2864G12c C02I53085   5.634   0.883  10.556  0.7897  0.6565 -2.6336
  2864G12c C02N53086   5.768   0.923  10.527 -0.6002  0.7064  0.8597
  2864G12c H01M53087   5.848   0.853  10.550  1.0576  0.1847 -5.6328
  2864G12c C02O53088   5.790   1.029  10.448  2.4396 -1.2454  0.8032
  2864G12c H01L53089   5.700   1.085  10.427  4.5268  0.1029 -5.3423
  2864G12c C02P53090   5.927   1.106  10.435  0.4888 -1.4784  0.0575
  2864G12c H01K53091   5.928   1.149  10.535  3.9201 -0.2558 -0.4306
  2864G12c H01J53092   6.021   1.050  10.427  1.1741 -0.6611  2.0908
  2864G12c O00H53093   5.924   1.209  10.346  0.0024  0.5004 -0.3969
  2864G12c H01I53094   5.835   1.241  10.348 -1.3891 -3.0804 -0.7928
  2864G12c C02H53095   5.559   0.812  10.465 -0.5043 -1.8024 -0.1152
  2864G12c H01C53096   5.603   0.778  10.372 -7.5021  7.2867 -7.6828
  2864G12c C02L53097   5.435   0.769  10.504  2.3317  1.5811  1.3640
  2864G12c H01D53098   5.380   0.685  10.464  4.9915 -1.1838  3.2840
  2864G12c C01353099   5.085   1.070  10.546  1.9542  0.1316  1.3788
  2864G12c H00053100   5.038   0.987  10.495 -5.9678  4.5050  0.6298
  2864G12c C01453101   5.142   1.180  10.476  1.0821 -0.7322  0.5547
  2864G12c C00F53102   5.176   1.190  10.335 -1.5953 -1.0905 -0.2256
  2864G12c C00H53103   5.247   1.432  10.387  0.5124  1.8018  0.2586
  2864G12c C00I53104   5.295   1.558  10.349  0.2327 -1.3934 -1.0688
  2864G12c C00J53105   5.348   1.642  10.446  1.3458  0.9488 -0.2223
  2864G12c C00Z53106   5.236   1.371  10.784  1.6683  0.4171 -0.6465
  2864G12c C00Y53107   5.235   1.357  10.927 -0.2918 -0.2464 -0.3759
  2864G12c H00653108   5.175   1.289  10.986  1.5768 -0.5666  1.1961
  2864G12c C00X53109   5.303   1.433  11.018 -0.1032  0.8791 -0.0549
  2864G12c O00353110   5.298   1.383  11.148 -0.5100  0.9337 -0.1172
  2864G12c C01B53111   5.418   1.310  11.193 -0.4839  0.6363  0.4873
  2864G12c H00953112   5.505   1.373  11.208 -2.6370  2.9928  3.8306
  2864G12c H00853113   5.431   1.219  11.135 -1.8131  1.1081 -0.5835
  2864G12c H00753114   5.405   1.248  11.282 -3.5110 -0.7141 -0.7966
  2864G12c C00W53115   5.389   1.525  10.978 -0.8048 -0.5480  0.3262
  2864G12c O00453116   5.467   1.594  11.073  0.9357 -0.3010  0.8111
  2864G12c C01C53117   5.544   1.692  10.999 -0.9170 -0.5513  2.2844
  2864G12c H00A53118   5.545   1.793  11.036 -9.2488  2.9948 -5.1190
  2864G12c C00P53119   5.586   1.693  10.856  0.2486 -0.1550 -0.0328
  2864G12c C00O53120   5.700   1.757  10.798 -0.9635  1.1228  0.3896
  2864G12c C01D53121   5.811   1.742  10.869  0.7845 -0.3234 -1.0461
  2864G12c H00S53122   5.809   1.691  10.964  0.1448 -2.1165 -1.9902
  2864G12c C01E53123   5.938   1.755  10.801 -0.5697  0.5362 -1.4044
  2864G12c O00853124   6.044   1.724  10.888  0.1658  0.7525 -1.0422
  2864G12c C01V53125   6.125   1.825  10.938 -0.9691 -0.1707 -0.4996
  2864G12c C01Z53126   6.066   1.937  11.034 -0.6496 -0.4034  0.6961
  2864G12c H00R53127   6.118   2.032  11.025  1.8675 -1.4235  3.5612
  2864G12c H00Q53128   5.976   1.970  10.982  0.4615  2.1890  0.3368
  2864G12c O00953129   6.053   1.854  11.133 -1.2291 -0.7864  0.2412
  2864G12c H00P53130   6.081   1.764  11.135 -3.8406 -1.8122 -3.6917
  2864G12c C01W53131   6.232   1.877  10.883 -1.9843 -1.7158  0.2440
  2864G12c H00O53132   6.291   1.952  10.934 -0.6845 -2.1506 -0.5865
  2864G12c C01X53133   6.299   1.771  10.800  0.9239 -1.1768 -0.9178
  2864G12c H00N53134   6.250   1.674  10.793 -0.5188 -0.6684  1.7123
  2864G12c H00M53135   6.312   1.818  10.702  0.2650 -0.2495 -0.5629
  2864G12c C01Y53136   6.435   1.723  10.829 -1.2117  0.0458 -1.6189
  2864G12c C02D53137   6.454   1.661  10.962 -0.3650 -1.1229  1.6674
  2864G12c H01953138   6.370   1.650  11.029  4.5116 -2.9696  7.9612
  2864G12c C02C53139   6.575   1.618  11.006 -0.3613  0.5159  1.4528
  2864G12c H01A53140   6.575   1.552  11.091  0.3029  0.5655  1.4913
  2864G12c C02B53141   6.681   1.603  10.910 -0.3799  0.2434 -0.0202
  2864G12c O00E53142   6.800   1.606  10.959  0.3350  0.2724  0.0342
  2864G12c H01B53143   6.884   1.598  10.915 -0.4978 -0.1297 -1.5301
  2864G12c C02F53144   6.672   1.688  10.791  0.6213  0.0813 -1.5888
  2864G12c O00F53145   6.789   1.748  10.737  0.3997 -0.2037 -0.4103
  2864G12c C02G53146   6.833   1.852  10.840 -0.2674  0.6250  0.7644
  2864G12c H01753147   6.939   1.867  10.817  0.7877 -4.5757  1.5137
  2864G12c H01653148   6.790   1.866  10.939 -2.4736 -3.1933  0.4540
  2864G12c H01553149   6.805   1.946  10.792 -0.9222 -1.5504 -3.3256
  2864G12c C02E53150   6.547   1.733  10.753 -0.4567  0.0543  0.9163
  2864G12c H01853151   6.578   1.799  10.674  1.1125  1.3116  2.5604
  2864G12c C01F53152   5.936   1.827  10.682  1.3820 -0.0136  1.4704
  2864G12c C01G53153   6.046   1.851  10.603  1.4359  1.4303  0.8341
  2864G12c H00L53154   6.129   1.787  10.628 -1.8696 -1.9303  3.6602
  2864G12c C01H53155   6.034   1.892  10.481 -0.4381 -1.2337  1.4531
  2864G12c H00B53156   6.109   1.848  10.418  4.3691  0.5859  5.5634
  2864G12c C01I53157   5.909   1.938  10.427  0.8299  1.2370 -0.0880
  2864G12c C01U53158   5.829   1.905  10.635  0.8186  0.2276 -1.6213
  2864G12c C00S53159   5.357   1.603  10.568  0.8182 -0.3562  0.1013
  2864G12c C00K53160   5.439   1.762  10.433 -0.6870 -0.5600  0.5746
  2864G12c C00N53161   5.708   1.846  10.682 -1.4783 -0.3551  0.6969
  2864G12c C00053162   5.822   1.988  10.523 -0.3300  0.5227 -0.4387
  2864G12c C01J53163   5.834   1.919  10.298  1.2090 -0.2098  0.3453
  2864G12c C01K53164   5.879   1.908  10.169 -0.1495 -1.9774  2.1534
  2864G12c C01P53165   6.004   1.950  10.128 -1.2957 -0.1002  0.4153
  2864G12c C01Q53166   6.061   2.081  10.170  0.7738 -0.0953 -0.6610
  2864G12c H00G53167   6.042   2.116  10.270  2.8489  1.5812 -0.8089
  2864G12c C01R53168   6.130   2.150  10.078 -0.1670  0.0095 -0.0517
  2864G12c H00F53169   6.154   2.120   9.977 -1.7636 -0.4882 -0.2951
  2864G12c C01S53170   6.159   2.279  10.114  0.3420  0.0991 -0.3109
  2864G12c H00E53171   6.223   2.267  10.201  1.1681  3.7843 -0.3419
  2864G12c H00D53172   6.234   2.344  10.070  0.6156 -1.2689 -1.9148
  2864G12c O00553173   6.040   2.339  10.142  0.3384 -1.2275  0.1369
  2864G12c H00C53174   6.056   2.412  10.199 -4.8502 -1.5946  2.3529
  2864G12c C01O53175   6.063   1.863  10.043  0.6382  0.2478  0.9175
  2864G12c H00H53176   6.162   1.896  10.017 -0.5632  4.0169  0.8055
  2864G12c C01N53177   6.007   1.757   9.967 -0.3460 -0.4509 -1.8196
  2864G12c O00653178   6.089   1.675   9.893 -0.2364  0.1409  0.0985
  2864G12c C01T53179   6.192   1.742   9.806  0.3347  0.6036  0.2867
  2864G12c H00K53180   6.128   1.818   9.761  0.4977  1.9214  2.1986
  2864G12c H00J53181   6.232   1.673   9.731  1.0197  0.0170  1.1770
  2864G12c H00I53182   6.273   1.795   9.855  0.7441  1.6410 -1.4717
  2864G12c C01M53183   5.874   1.744   9.985  1.0247 -0.0203 -1.5377
  2864G12c C02053184   5.479   1.755  10.294 -2.0411 -1.4438  1.2401
  2864G12c C02153185   5.408   1.682  10.183  0.5721  1.1654 -0.2834
  2864G12c C01L53186   5.803   1.805  10.099  1.2393 -0.4861 -0.6974
  2864G12c O00753187   5.795   1.671   9.886  1.0040  0.3723 -0.3424
  2864G12c C02253188   5.478   1.629  10.074 -0.1221  0.5826 -0.0851
  2864G12c C02353189   5.309   1.576  10.209  0.9412 -0.2319 -0.5081
  2864G12c C00G53190   5.222   1.327  10.292 -0.2286 -1.5957  0.2532
  2864G12c C00E53191   5.144   1.084  10.242  0.2987 -0.4053  1.3545
  2864G12c O00A53192   5.129   0.963  10.310  0.5588  0.3260  0.9124
  2864G12c C02453193   5.097   0.848  10.242 -0.1856 -1.5458 -0.2305
  2864G12c H00V53194   5.173   0.812  10.173  0.8391 -6.2949  3.1526
  2864G12c H00U53195   5.020   0.875  10.170  0.0847  0.5848  0.2426
  2864G12c H00T53196   5.074   0.761  10.303  1.2665 -1.8279 -0.0552
  2874G12c C00D53197   7.281   3.478   7.762  0.2892  0.0280 -0.3036
  2874G12c O00B53198   7.235   3.366   7.847  0.4289  0.5559  0.4168
  2874G12c C02553199   7.168   3.253   7.785  0.7133 -0.4880 -1.2947
  2874G12c C02653200   7.071   3.192   7.880  1.0572 -0.9360 -2.0625
  2874G12c H00Y53201   7.126   3.138   7.957  4.5822 -1.7763 -5.0173
  2874G12c H00X53202   7.004   3.124   7.826 -4.5547  0.3377  2.7746
  2874G12c O00C53203   6.964   3.273   7.941 -0.3826  0.1172 -1.2628
  2874G12c H00W53204   6.988   3.364   7.950  0.9615 -0.5927  4.0914
  2874G12c C02753205   7.214   3.214   7.654  0.3246  1.2455 -1.6269
  2874G12c O00D53206   7.306   3.282   7.587  1.3112  0.3305 -0.1695
  2874G12c H00Z53207   7.364   3.276   7.661 -1.0261  6.1603  2.4796
  2874G12c C02853208   7.166   3.091   7.590  1.0036  0.0265  1.8940
  2874G12c C02953209   7.119   3.131   7.460 -0.4844 -1.2468 -0.0056
  2874G12c H01053210   7.133   3.235   7.433  2.0370 -1.8480 -1.0703
  2874G12c C02T53211   7.112   3.043   7.361 -0.1659  1.8942  0.1293
  2874G12c H01O53212   7.106   3.091   7.264 -2.1735  6.0686  2.1595
  2874G12c C02S53213   7.101   2.903   7.388  0.4440 -1.1272 -1.0920
  2874G12c O00J53214   7.097   2.792   7.307 -1.0329  0.2922 -0.0747
  2874G12c H01P53215   7.101   2.715   7.362  4.0539 -2.2431 -3.5687
  2874G12c C02R53216   7.128   2.857   7.514  0.9408 -0.3326 -0.3496
  2874G12c O00I53217   7.122   2.727   7.535 -1.6762  0.7912  0.1044
  2874G12c C02Q53218   7.120   2.660   7.667  0.5350  0.1214 -1.8262
  2874G12c H01N53219   7.036   2.591   7.662 -3.8618  5.2611 -7.4321
  2874G12c H01R53220   7.119   2.726   7.754  0.0096 -0.8188 -1.1154
  2874G12c H01Q53221   7.217   2.626   7.702 -0.8824 -1.2238  0.8783
  2874G12c C02A53222   7.174   2.955   7.618  1.0797  1.3337  0.1826
  2874G12c H01153223   7.230   2.908   7.698 -4.1420 -2.7143  1.8048
  2874G12c C00C53224   7.191   3.542   7.686 -1.0430  0.0553 -1.3778
  2874G12c H01253225   7.096   3.493   7.668  1.6783 -7.0265  1.6939
  2874G12c C00B53226   7.208   3.684   7.647  0.4877 -0.8965  0.3011
  2874G12c C00A53227   7.114   3.779   7.582 -0.4427 -0.1969 -0.4790
  2874G12c C00953228   6.991   3.775   7.490  0.2826  0.4644 -0.4349
  2874G12c C00853229   6.912   3.676   7.430 -0.2864 -1.7150 -0.2008
  2874G12c H01353230   6.924   3.572   7.457  1.0748 -1.7703 -0.9725
  2874G12c C00753231   6.851   3.693   7.302  0.6783 -0.2884 -0.1575
  2874G12c H01453232   6.839   3.595   7.259 -0.6617  0.4401 -1.4815
  2874G12c C00653233   6.846   3.826   7.255 -1.0775 -0.4276  0.5608
  2874G12c C00553234   6.903   3.927   7.337 -2.2476  0.5304  1.2037
  2874G12c C00453235   6.935   4.052   7.270 -1.1821  0.2620  0.3303
  2874G12c C00353236   7.024   4.145   7.330 -1.6072  0.3800  0.4698
  2874G12c C00253237   7.054   4.249   7.246 -1.0408 -0.1515  1.6822
  2874G12c C00153238   7.118   4.365   7.302 -0.3384 -1.7512  0.2824
  2874G12c C00M53239   7.256   4.374   7.351 -1.7214  0.0976 -1.3779
  2874G12c C00L53240   7.309   4.292   7.459  0.3931  0.4876 -0.5165
  2874G12c C00R53241   7.444   4.259   7.518 -0.7646 -0.2761 -0.3416
  2874G12c C00Q53242   7.567   4.308   7.480  0.8322  1.5677 -2.7900
  2874G12c C00V53243   7.671   4.225   7.527  0.8351  0.5288  0.6063
  2874G12c C00U53244   7.654   4.090   7.580 -0.7468 -1.0412  0.4741
  2874G12c C00T53245   7.526   4.048   7.613 -1.8864 -0.1196  0.6883
  2874G12c C01653246   7.495   3.914   7.647  0.4028 -0.8120  0.0702
  2874G12c C01553247   7.596   3.826   7.657  0.8738  0.1064 -0.0259
  2874G12c C01053248   7.730   3.867   7.633  0.3734  1.2874  0.6256
  2874G12c C01153249   7.833   3.795   7.686 -2.4419  3.0005 -0.6896
  2874G12c H00553250   7.938   3.819   7.699 -0.6892  0.3450 -7.5689
  2874G12c C01253251   7.809   3.690   7.779 -1.8938 -1.1156 -1.7115
  2874G12c C01753252   7.901   3.634   7.882  0.6137  0.6041  0.8003
  2874G12c O00253253   7.894   3.503   7.931 -1.1268 -0.7139 -0.5843
  2874G12c H00453254   7.946   3.438   7.886  0.3587 -0.2113  0.3781
  2874G12c C01853255   7.998   3.717   7.941  0.7919  0.0899 -0.8671
  2874G12c O00153256   7.997   3.842   7.918  0.9993  0.0806  1.3906
  2874G12c H00353257   8.063   3.873   7.978 -2.0216  3.5885  3.1289
  2874G12c C01953258   8.094   3.690   8.054 -1.9328 -1.0797 -0.2534
  2874G12c H00253259   8.042   3.673   8.149  5.5394  5.0843  5.6617
  2874G12c H00153260   8.197   3.658   8.037 -2.4928 -3.2041  0.1588
  2874G12c O00053261   8.137   3.829   8.103  2.1786  1.6412 -0.2451
  2874G12c C01A53262   8.227   3.823   8.201  0.3303 -0.8550  1.3573
  2874G12c C02K53263   8.235   3.915   8.306 -1.6355  1.4557  1.2218
  2874G12c O00G53264   8.107   3.942   8.347 -0.5581  1.8328 -0.6734
  2874G12c C02M53265   8.061   4.069   8.319 -0.4007 -1.3975  0.3781
  2874G12c H01G53266   8.085   4.119   8.225 -1.7233  3.1280  2.3125
  2874G12c H01F53267   7.956   4.046   8.299 -2.1280  4.5845  1.5553
  2874G12c H01E53268   8.072   4.152   8.390 -5.1678 -2.8850  3.1121
  2874G12c C02J53269   8.334   3.939   8.391 -0.6857 -0.6297 -1.3383
  2874G12c H01H53270   8.297   3.993   8.477  0.9064 -0.9654 -0.4267
  2874G12c C02I53271   8.459   3.867   8.383  2.2253  0.3278 -0.4568
  2874G12c C02N53272   8.567   3.873   8.459 -0.8142  1.9525 -1.3155
  2874G12c H01M53273   8.644   3.801   8.434 -1.5362 -1.4596  5.1654
  2874G12c C02O53274   8.559   3.967   8.568 -0.8364  0.9579  0.9280
  2874G12c H01L53275   8.471   4.020   8.600  1.5681  5.4380  0.5521
  2874G12c C02P53276   8.689   3.987   8.638 -0.9317  0.7795 -1.4723
  2874G12c H01K53277   8.701   3.891   8.689  0.1638  0.0047 -3.1340
  2874G12c H01J53278   8.754   4.019   8.556  3.2170 -1.2002  0.8438
  2874G12c O00H53279   8.691   4.090   8.741  0.7224 -0.0748  1.7450
  2874G12c H01I53280   8.601   4.116   8.755  0.1299  5.0748 -7.2429
  2874G12c C02H53281   8.461   3.781   8.276  0.9631  0.1471  0.5209
  2874G12c H01C53282   8.557   3.736   8.253  1.9836  0.8394  3.1875
  2874G12c C02L53283   8.356   3.754   8.189 -0.4733 -0.1851 -0.3351
  2874G12c H01D53284   8.359   3.678   8.112 -1.7080 -2.1284  1.4743
  2874G12c C01353285   7.670   3.658   7.821 -1.1083 -0.3832 -0.0314
  2874G12c H00053286   7.661   3.580   7.895 -3.3185 -0.6418 -0.5371
  2874G12c C01453287   7.564   3.714   7.744 -0.4045  0.1110 -1.1037
  2874G12c C00F53288   7.430   3.670   7.762  1.4938  0.0946  1.1915
  2874G12c C00H53289   7.365   3.875   7.661  1.4058  1.1155  0.6892
  2874G12c C00I53290   7.262   3.976   7.617 -1.2131 -0.1852 -2.3186
  2874G12c C00J53291   7.305   4.100   7.579 -0.3306 -0.1599  0.5464
  2874G12c C00Z53292   7.752   4.005   7.595 -0.7993 -0.1027 -1.1147
  2874G12c C00Y53293   7.876   4.048   7.571  0.2690 -1.1162 -1.1101
  2874G12c H00653294   7.962   3.984   7.583  1.8060  1.2756  1.3084
  2874G12c C00X53295   7.913   4.190   7.559  0.4776  1.3259  0.6296
  2874G12c O00353296   8.049   4.236   7.570  0.5529  0.8093 -0.2242
  2874G12c C01B53297   8.147   4.169   7.629  1.2798 -0.5750 -0.2614
  2874G12c H00953298   8.223   4.243   7.606 -3.6609  3.9071 -3.2382
  2874G12c H00853299   8.176   4.084   7.567  6.5152  0.1513  0.9794
  2874G12c H00753300   8.140   4.162   7.737 -0.1419  4.6137  0.1067
  2874G12c C00W53301   7.810   4.273   7.510 -0.6024  1.3663  0.6994
  2874G12c O00453302   7.836   4.391   7.448 -0.4067 -1.6034 -0.3687
  2874G12c C01C53303   7.732   4.420   7.360  0.2067  0.9485 -0.4287
  2874G12c H00A53304   7.770   4.378   7.268  0.1506 -5.3626  2.1698
  2874G12c C00P53305   7.591   4.425   7.389  0.2948  0.6016  0.6505
  2874G12c C00O53306   7.494   4.482   7.295 -0.7840 -1.1094  1.4967
  2874G12c C01D53307   7.538   4.552   7.185 -0.6114 -0.9362 -0.1000
  2874G12c H00S53308   7.646   4.555   7.188 -0.0702 -6.7031 -4.9278
  2874G12c C01E53309   7.455   4.590   7.065 -1.3409  0.9799  0.2486
  2874G12c O00853310   7.515   4.669   6.973 -1.5247  1.4901  0.1838
  2874G12c C01V53311   7.632   4.764   7.002  4.1890  0.3127  0.7711
  2874G12c C01Z53312   7.626   4.832   7.135 -0.2726 -0.1780  1.1802
  2874G12c H00R53313   7.529   4.822   7.183  1.4700 -4.0476  4.1369
  2874G12c H00Q53314   7.699   4.768   7.186 -2.9193  1.0057  6.7396
  2874G12c O00953315   7.655   4.967   7.133  1.1177 -2.1096  0.4517
  2874G12c H00P53316   7.576   4.998   7.092  5.1462  2.8912 -4.3842
  2874G12c C01W53317   7.695   4.814   6.890 -0.5347  0.4832 -1.9956
  2874G12c H00O53318   7.698   4.735   6.816  0.4262 -1.9780  0.5660
  2874G12c C01X53319   7.835   4.888   6.878  0.9258  2.8536 -0.5930
  2874G12c H00N53320   7.885   4.900   6.974 -2.9547 -5.3807  3.0083
  2874G12c H00M53321   7.898   4.820   6.821  2.5392 -1.1712  5.4758
  2874G12c C01Y53322   7.845   5.009   6.800  0.1296  0.1357  1.7114
  2874G12c C02D53323   7.962   5.084   6.831 -0.5886  0.4316 -1.6802
  2874G12c H01953324   8.016   5.059   6.921 -4.3467  5.3004  2.2082
  2874G12c C02C53325   7.994   5.182   6.746 -1.5610  0.8927  0.7261
  2874G12c H01A53326   8.076   5.248   6.772  0.0052 -2.7156  5.7840
  2874G12c C02B53327   7.893   5.212   6.651 -0.2617 -0.7034  0.3558
  2874G12c O00E53328   7.917   5.323   6.549 -1.7421  0.6380  0.1201
  2874G12c H01B53329   7.864   5.398   6.570 -6.2729 -1.9381 -1.4808
  2874G12c C02F53330   7.770   5.179   6.658  0.4028  1.9431 -0.0346
  2874G12c O00F53331   7.673   5.245   6.588  0.0645  0.0122 -0.2865
  2874G12c C02G53332   7.599   5.186   6.487 -1.6046  1.1468  0.4750
  2874G12c H01753333   7.667   5.104   6.462 -0.7701  2.5518 -2.0207
  2874G12c H01653334   7.583   5.231   6.389 -0.4294 -0.4589 -0.4851
  2874G12c H01553335   7.504   5.154   6.530 -3.1820  6.1209  0.9590
  2874G12c C02E53336   7.738   5.062   6.735  0.4228 -1.0974  0.7346
  2874G12c H01853337   7.643   5.012   6.723  0.6630 -0.7528 -3.4737
  2874G12c C01F53338   7.325   4.540   7.055 -1.4700  0.0225  0.4825
  2874G12c C01G53339   7.254   4.516   6.933  2.1851  1.5772  1.0590
  2874G12c H00L53340   7.291   4.577   6.852 -4.9591  4.1419 -0.6084
  2874G12c C01H53341   7.168   4.394   6.932  1.3204  0.4344 -1.5829
  2874G12c H00B53342   7.146   4.341   6.840  0.0627  2.0504 -2.2354
  2874G12c C01I53343   7.092   4.372   7.055 -0.1603 -0.8651 -0.6096
  2874G12c C01U53344   7.264   4.500   7.183  0.1704  0.9710 -0.7310
  2874G12c C00S53345   7.427   4.145   7.599 -1.0749  0.2554 -0.8086
  2874G12c C00K53346   7.217   4.195   7.505  0.7616  2.3465 -0.6319
  2874G12c C00N53347   7.350   4.465   7.279 -0.3891  1.0099 -0.0775
  2874G12c C00053348   7.132   4.431   7.177 -1.0992  0.0007 -1.1606
  2874G12c C01J53349   7.049   4.248   7.102  0.3827  1.8243 -0.4426
  2874G12c C01K53350   6.928   4.176   7.054 -1.2134 -1.6583  0.9743
  2874G12c C01P53351   6.852   4.203   6.928 -0.8167  1.9588  1.3667
  2874G12c C01Q53352   6.869   4.322   6.845 -1.5526 -1.0573 -0.4778
  2874G12c H00G53353   6.916   4.414   6.878  8.0364 -4.8164 -2.2137
  2874G12c C01R53354   6.872   4.300   6.713  0.1979 -0.5327  1.6105
  2874G12c H00F53355   6.861   4.212   6.652 -3.7755 -1.9681  4.1972
  2874G12c C01S53356   6.883   4.430   6.615  0.1241  0.2496 -0.7617
  2874G12c H00E53357   6.896   4.410   6.509  4.7594 -4.0727  0.4399
  2874G12c H00D53358   6.782   4.472   6.618  1.8365  5.1261 -4.7294
  2874G12c O00553359   6.976   4.523   6.679  0.5509 -0.2787 -0.7154
  2874G12c H00C53360   6.937   4.608   6.662  2.5788  0.2940 -2.6225
  2874G12c C01O53361   6.741   4.112   6.881 -1.0593 -0.3992  0.9023
  2874G12c H00H53362   6.695   4.112   6.783 -0.3300 -6.1870  0.3748
  2874G12c C01N53363   6.705   4.013   6.966 -0.7905  0.0249 -0.1439
  2874G12c O00653364   6.614   3.927   6.913  0.1391  1.7678 -0.0891
  2874G12c C01T53365   6.655   3.784   6.897 -0.7905 -0.6211 -2.1011
  2874G12c H00K53366   6.596   3.694   6.878 -2.4834 -0.7887  3.1775
  2874G12c H00J53367   6.693   3.739   6.988  0.0543 -1.0759 -2.6717
  2874G12c H00I53368   6.733   3.787   6.821 -1.9305 -1.8995 -3.3486
  2874G12c C01M53369   6.778   3.986   7.093 -0.7075  1.0282 -0.9649
  2874G12c C02053370   7.084   4.136   7.463  0.7726 -1.6332 -1.1668
  2874G12c C02153371   7.032   4.009   7.514  0.0533  1.3269 -0.3965
  2874G12c C01L53372   6.882   4.070   7.140  0.4321 -0.1672  1.0189
  2874G12c O00753373   6.760   3.860   7.162 -0.6869 -1.3604 -0.4741
  2874G12c C02253374   6.965   3.908   7.453  1.4039 -0.7241  2.2644
  2874G12c C02353375   7.134   3.923   7.599  0.0364  0.7638 -0.6469
  2874G12c C00G53376   7.332   3.741   7.684 -0.1170  0.5920 -2.4727
  2874G12c C00E53377   7.390   3.546   7.823 -0.1555 -0.4014 -0.4930
  2874G12c O00A53378   7.457   3.501   7.943  1.1277 -0.7654 -0.9378
  2874G12c C02453379   7.507   3.361   7.940  0.4350  0.1082 -0.2128
  2874G12c H00V53380   7.470   3.289   7.866 -2.9513  4.7530 -3.3610
  2874G12c H00U53381   7.516   3.326   8.043  4.4387  1.3991 -0.0307
  2874G12c H00T53382   7.613   3.383   7.924 -0.8081  3.2443 -5.0448
  2884G12c C00D53383   0.672   7.250   2.278 -0.8481  1.5505 -0.2057
  2884G12c O00B53384   0.796   7.186   2.242  0.1052 -0.4066  0.4335
  2884G12c C02553385   0.862   7.110   2.346  2.6492 -0.1725  0.4883
  2884G12c C02653386   1.017   7.164   2.346  0.8537  0.0845 -0.2893
  2884G12c H00Y53387   1.100   7.122   2.403  5.7926  0.6891 -6.4124
  2884G12c H00X53388   1.013   7.263   2.392  4.1255  0.4197 -0.5831
  2884G12c O00C53389   1.073   7.170   2.223  0.4644  0.3816 -2.3811
  2884G12c H00W53390   1.091   7.087   2.180 -4.4889  1.6988 -7.5041
  2884G12c C02753391   0.818   7.022   2.426  0.5197 -1.2762 -1.4781
  2884G12c O00D53392   0.702   6.977   2.447 -0.1869  0.0805  0.2922
  2884G12c H00Z53393   0.724   6.895   2.489 -3.3017  0.9481  3.9482
  2884G12c C02853394   0.912   6.962   2.519  0.1933  0.9703  0.0244
  2884G12c C02953395   0.970   6.830   2.498  0.2293 -0.9631 -0.8167
  2884G12c H01053396   0.932   6.769   2.417  4.9390  0.1677 -4.0775
  2884G12c C02T53397   1.047   6.766   2.585  0.6508 -1.5295  1.0081
  2884G12c H01O53398   1.060   6.664   2.551  0.5201 -1.2455  0.0909
  2884G12c C02S53399   1.071   6.829   2.707 -0.4068  1.5323  0.9388
  2884G12c O00J53400   1.144   6.755   2.796 -0.1232  0.4526 -0.7071
  2884G12c H01P53401   1.163   6.830   2.849  7.6945 -1.4581 -0.1535
  2884G12c C02R53402   1.035   6.971   2.731 -0.1669  0.8690 -0.8602
  2884G12c O00I53403   1.041   7.012   2.864 -0.4536 -0.2269  0.6659
  2884G12c C02Q53404   0.940   6.976   2.955 -0.2027  0.3289  0.8872
  2884G12c H01N53405   0.946   6.870   2.979 -5.1057 -1.3139 -4.0976
  2884G12c H01R53406   0.972   7.028   3.045 -2.6390  1.2269  1.2628
  2884G12c H01Q53407   0.839   7.016   2.960  0.3282  1.6439  1.1190
  2884G12c C02A53408   0.953   7.035   2.632 -1.2757 -1.5316 -1.5722
  2884G12c H01153409   0.925   7.138   2.647  9.3768  1.2423  4.7523
  2884G12c C00C53410   0.554   7.221   2.214 -0.0496 -0.4151  0.0773
  2884G12c H01253411   0.551   7.160   2.125 -3.0647  3.9373 -3.0188
  2884G12c C00B53412   0.428   7.259   2.272  0.2228  0.2003 -1.4763
  2884G12c C00A53413   0.286   7.230   2.217 -1.2664  1.8201 -0.2279
  2884G12c C00953414   0.260   7.222   2.075  0.1287 -1.9724  0.9849
  2884G12c C00853415   0.341   7.247   1.977  1.1860  1.7560 -0.4426
  2884G12c H01353416   0.445   7.235   2.004  0.3243 -3.1264  1.3259
  2884G12c C00753417   0.277   7.311   1.860 -0.0271 -0.9936 -1.8475
  2884G12c H01453418   0.354   7.371   1.816  0.8474 -1.5630 -1.1199
  2884G12c C00653419   0.138   7.346   1.858  1.7847  0.4035  0.3016
  2884G12c C00553420   0.068   7.324   1.985 -0.8550  1.3568  0.0494
  2884G12c C00453421  -0.057   7.380   2.005 -0.6119 -0.7375  0.3888
  2884G12c C00353422  -0.100   7.384   2.135  1.6441 -0.7230  0.5851
  2884G12c C00253423  -0.248   7.431   2.170  1.2597 -1.7258  0.5146
  2884G12c C00153424  -0.314   7.480   2.289  0.1906  1.2636 -0.8339
  2884G12c C00M53425  -0.251   7.540   2.398 -0.2207 -1.8949 -0.5563
  2884G12c C00L53426  -0.138   7.486   2.447 -1.6493  0.4359  1.1346
  2884G12c C00R53427  -0.056   7.553   2.545 -0.4274 -0.4456 -0.5185
  2884G12c C00Q53428  -0.055   7.679   2.612  2.6803  0.1840 -1.3371
  2884G12c C00V53429   0.058   7.694   2.705 -1.4220 -0.1111 -1.1681
  2884G12c C00U53430   0.175   7.614   2.697 -1.0999 -2.5030 -0.2702
  2884G12c C00T53431   0.174   7.496   2.627  1.6787  2.7366  0.4526
  2884G12c C01653432   0.301   7.436   2.578 -1.1468  1.2059  0.2809
  2884G12c C01553433   0.414   7.496   2.625  0.3050 -1.0921 -1.1882
  2884G12c C01053434   0.404   7.588   2.732  0.8788 -0.5032 -1.4235
  2884G12c C01153435   0.520   7.617   2.826 -2.4872 -0.9564  0.1915
  2884G12c H00553436   0.512   7.683   2.910 -6.8397 -3.1082  1.6375
  2884G12c C01253437   0.649   7.570   2.784 -0.3264  0.6483  0.5525
  2884G12c C01753438   0.763   7.577   2.864 -1.1023 -0.4428  0.6350
  2884G12c O00253439   0.901   7.579   2.810  0.4036 -0.5851  1.0577
  2884G12c H00453440   0.914   7.539   2.725 -3.4635  2.1237 -0.9403
  2884G12c C01853441   0.757   7.597   3.007  0.2567  1.7203  0.7965
  2884G12c O00153442   0.644   7.574   3.089  1.2011 -0.9955  0.6888
  2884G12c H00353443   0.572   7.564   3.028 -2.1224 -2.3021  4.6172
  2884G12c C01953444   0.882   7.634   3.076 -0.2106 -0.4599 -1.6949
  2884G12c H00253445   0.893   7.728   3.022  1.3905 -0.2284 -0.9854
  2884G12c H00153446   0.867   7.671   3.178 -1.0157 -6.1667  0.4486
  2884G12c O00053447   0.977   7.532   3.054  0.7738 -0.2235  0.7178
  2884G12c C01A53448   1.090   7.545   3.139 -1.2975  1.4888  0.3399
  2884G12c C02K53449   1.222   7.584   3.094 -1.0001  0.6576  0.1035
  2884G12c O00G53450   1.274   7.589   2.960  1.4452 -0.1184 -0.8154
  2884G12c C02M53451   1.257   7.702   2.898  1.5595 -0.9513  0.3956
  2884G12c H01G53452   1.168   7.755   2.933 -1.1287 -4.7793 -0.3514
  2884G12c H01F53453   1.212   7.704   2.798  2.0550  4.4599  0.1128
  2884G12c H01E53454   1.338   7.773   2.914  4.7985 -4.5269  0.4350
  2884G12c C02J53455   1.325   7.588   3.188 -0.4205  1.6223  0.9228
  2884G12c H01H53456   1.430   7.596   3.164 -2.2065 -0.5383 -9.9644
  2884G12c C02I53457   1.309   7.592   3.331 -0.1634  1.0439 -0.4006
  2884G12c C02N53458   1.424   7.602   3.430 -0.8093 -0.8291  1.1075
  2884G12c H01M53459   1.439   7.507   3.479  3.2457 -0.0650  1.4957
  2884G12c C02O53460   1.493   7.709   3.452  0.3060 -0.6865  0.1479
  2884G12c H01L53461   1.467   7.788   3.382  1.2023 -1.0260 -0.5793
  2884G12c C02P53462   1.604   7.718   3.563 -0.7064  0.0541  1.2448
  2884G12c H01K53463   1.587   7.647   3.644  0.3377  1.2923  2.5823
  2884G12c H01J53464   1.702   7.691   3.523 -0.6450 -4.7120  4.2661
  2884G12c O00H53465   1.612   7.856   3.598  1.6882 -0.2253 -0.1102
  2884G12c H01I53466   1.653   7.899   3.525 -0.7891 -3.7739 -3.7872
  2884G12c C02H53467   1.190   7.525   3.368  1.2935  0.6134 -0.9461
  2884G12c H01C53468   1.172   7.530   3.474 -1.8636  2.0653 -1.5002
  2884G12c C02L53469   1.090   7.500   3.285  1.0242 -0.8113  1.9899
  2884G12c H01D53470   0.998   7.468   3.332 -5.7715  2.6269 -7.5232
  2884G12c C01353471   0.649   7.520   2.648  0.8841  1.1013 -2.4611
  2884G12c H00053472   0.740   7.519   2.591  1.1764  2.0189 -2.0220
  2884G12c C01453473   0.542   7.470   2.571  0.3410 -0.0045  1.1828
  2884G12c C00F53474   0.541   7.380   2.450  0.9242  0.7385  0.1570
  2884G12c C00H53475   0.298   7.352   2.464  1.1378  0.0812 -1.5699
  2884G12c C00I53476   0.176   7.305   2.417  0.4495  0.9376  0.9673
  2884G12c C00J53477   0.053   7.368   2.463  1.4593  1.6729  0.5769
  2884G12c C00Z53478   0.288   7.653   2.755 -0.7711  1.4424  0.2579
  2884G12c C00Y53479   0.306   7.776   2.800  1.5078 -0.3583  0.0194
  2884G12c H00653480   0.393   7.809   2.855 -0.8546  0.6999  3.2694
  2884G12c C00X53481   0.191   7.863   2.815 -0.4138 -1.9411 -0.8080
  2884G12c O00353482   0.211   7.983   2.857  1.1434  0.1365 -1.1988
  2884G12c C01B53483   0.255   8.055   2.753 -1.7455 -0.2217  1.0732
  2884G12c H00953484   0.351   8.006   2.739 -1.5793  1.2580 -3.8160
  2884G12c H00853485   0.281   8.161   2.753  3.3645 -1.2960 -2.1806
  2884G12c H00753486   0.200   8.038   2.660 -7.0475  3.6773  3.2157
  2884G12c C00W53487   0.069   7.820   2.785  0.8274  1.8522 -0.0271
  2884G12c O00453488  -0.049   7.907   2.804 -0.4262 -0.9075 -1.0227
  2884G12c C01C53489  -0.154   7.879   2.707 -0.7855  0.7304 -1.4038
  2884G12c H00A53490  -0.253   7.921   2.719 -0.6901  0.4871  0.3671
  2884G12c C00P53491  -0.172   7.767   2.622 -0.7701 -1.3499 -1.1888
  2884G12c C00O53492  -0.265   7.779   2.508 -0.2439 -0.0411  0.3856
  2884G12c C01D53493  -0.306   7.900   2.485  0.8213 -0.7407 -0.3616
  2884G12c H00S53494  -0.276   7.979   2.552 -1.8180 -2.8174  3.4429
  2884G12c C01E53495  -0.386   7.936   2.375 -0.7161  0.4541  1.9739
  2884G12c O00853496  -0.437   8.066   2.364 -0.7990  0.1914 -1.1414
  2884G12c C01V53497  -0.365   8.160   2.278  0.7378 -0.4904 -0.5191
  2884G12c C01Z53498  -0.468   8.236   2.177 -2.4596  0.3276 -0.2490
  2884G12c H00R53499  -0.401   8.311   2.135 -3.2931  1.9452  1.2245
  2884G12c H00Q53500  -0.514   8.181   2.095 -2.5283  0.5272 -0.3453
  2884G12c O00953501  -0.575   8.288   2.266  0.2748  0.8695  0.4592
  2884G12c H00P53502  -0.549   8.232   2.338 -3.5421  2.4270  3.1893
  2884G12c C01W53503  -0.222   8.183   2.286 -1.2242 -0.2757  0.5030
  2884G12c H00O53504  -0.144   8.153   2.355  1.1510 -3.1587 -3.1991
  2884G12c C01X53505  -0.147   8.276   2.202  0.5321 -0.4172  0.3601
  2884G12c H00N53506  -0.057   8.215   2.191 -0.9212 -1.8941 -5.1339
  2884G12c H00M53507  -0.195   8.310   2.110  3.9497 -0.4828 -1.5421
  2884G12c C01Y53508  -0.120   8.390   2.294  0.6942 -0.8947  0.5648
  2884G12c C02D53509  -0.225   8.488   2.310  0.2886  0.1593  0.0386
  2884G12c H01953510  -0.305   8.489   2.237 -3.2556  3.2598  3.7616
  2884G12c C02C53511  -0.229   8.590   2.400  2.0985 -2.4342  0.0572
  2884G12c H01A53512  -0.302   8.662   2.434  8.6395  4.2223  1.1940
  2884G12c C02B53513  -0.116   8.595   2.499  0.5313  1.8451  0.0115
  2884G12c O00E53514  -0.123   8.646   2.606 -0.7694 -0.0146  0.3743
  2884G12c H01B53515  -0.034   8.661   2.633 -0.2692  3.3117 -2.7337
  2884G12c C02F53516  -0.005   8.517   2.465 -0.1193  0.8546 -0.6730
  2884G12c O00F53517   0.082   8.506   2.569 -0.0503 -1.1174 -0.5731
  2884G12c C02G53518   0.045   8.410   2.673 -0.8867  0.9076 -1.1909
  2884G12c H01753519   0.035   8.308   2.638 -1.5485  0.6185 -0.1476
  2884G12c H01653520  -0.034   8.444   2.739 -0.0144  5.7793 -2.4311
  2884G12c H01553521   0.140   8.404   2.726  0.4576  0.4310 -3.5841
  2884G12c C02E53522   0.007   8.423   2.346 -0.5235 -1.5112  0.6936
  2884G12c H01853523   0.085   8.353   2.372 -2.2199 -1.5252  6.4914
  2884G12c C01F53524  -0.408   7.822   2.280  1.9150  0.7166  0.8907
  2884G12c C01G53525  -0.460   7.825   2.141  0.5136  1.2136  0.2694
  2884G12c H00L53526  -0.509   7.921   2.137 -4.0132 -0.9617 -0.9925
  2884G12c C01H53527  -0.463   7.712   2.057 -0.2275 -0.3233  1.6327
  2884G12c H00B53528  -0.480   7.749   1.957-10.2574 -4.9392  1.0392
  2884G12c C01I53529  -0.385   7.602   2.111  0.0558  1.9043  1.4801
  2884G12c C01U53530  -0.391   7.678   2.319  0.8055 -0.0145 -1.9196
  2884G12c C00S53531   0.057   7.468   2.559  0.8698  0.3945 -0.2074
  2884G12c C00K53532  -0.053   7.393   2.386  0.9066 -0.1855 -0.3297
  2884G12c C00N53533  -0.295   7.668   2.427 -0.7921 -0.7370  0.9938
  2884G12c C00053534  -0.417   7.564   2.237 -0.2071  0.4080 -0.8727
  2884G12c C01J53535  -0.295   7.507   2.061 -1.9286  1.1750 -1.0461
  2884G12c C01K53536  -0.247   7.504   1.911  0.4199 -0.9617 -0.4442
  2884G12c C01P53537  -0.303   7.573   1.808 -1.4350  0.8597 -0.0951
  2884G12c C01Q53538  -0.448   7.592   1.785  0.9817 -0.0034 -0.0510
  2884G12c H00G53539  -0.477   7.688   1.747  4.1803 -0.2326 -3.3290
  2884G12c C01R53540  -0.543   7.498   1.801 -0.1685  0.3628  0.1351
  2884G12c H00F53541  -0.513   7.395   1.813  2.6671  1.5062  3.8267
  2884G12c C01S53542  -0.694   7.526   1.782  0.9292  0.1276 -0.3204
  2884G12c H00E53543  -0.726   7.630   1.786  5.0380  1.6644 -3.2024
  2884G12c H00D53544  -0.735   7.484   1.691 -6.4086  3.8183  0.9662
  2884G12c O00553545  -0.723   7.432   1.874 -0.2808  0.1787 -0.3514
  2884G12c H00C53546  -0.664   7.444   1.947 -6.0670  2.2629  4.3974
  2884G12c C01O53547  -0.242   7.542   1.679  0.4523  0.7570 -0.4554
  2884G12c H00H53548  -0.309   7.547   1.595 -3.4164  0.2531  2.4193
  2884G12c C01N53549  -0.102   7.529   1.680 -0.7320 -1.0277  0.8409
  2884G12c O00653550  -0.035   7.583   1.587 -0.9128 -0.8521  0.9801
  2884G12c C01T53551  -0.096   7.683   1.495  1.7279  0.1242  0.4879
  2884G12c H00K53552  -0.191   7.661   1.445  3.2250 -2.4449 -1.3686
  2884G12c H00J53553  -0.031   7.697   1.408  1.1068  3.9796  0.5744
  2884G12c H00I53554  -0.118   7.788   1.513  0.3828  0.1257 -0.9858
  2884G12c C01M53555  -0.047   7.454   1.783 -0.2825 -0.7727  0.1066
  2884G12c C02053556  -0.027   7.338   2.241  0.2214  0.1895  0.8167
  2884G12c C02153557   0.068   7.230   2.213  0.6666 -0.3213 -0.8194
  2884G12c C01L53558  -0.125   7.436   1.902  0.4187  1.1933  1.0840
  2884G12c O00753559   0.088   7.415   1.744  0.0046  0.4925 -0.1394
  2884G12c C02253560   0.121   7.231   2.081 -1.0949  0.7799  1.3969
  2884G12c C02353561   0.183   7.253   2.289  0.1604  1.5526 -0.6675
  2884G12c C00G53562   0.428   7.321   2.399 -1.7643  0.8180  0.7379
  2884G12c C00E53563   0.663   7.338   2.396 -0.1214 -0.3185  0.7479
  2884G12c O00A53564   0.770   7.408   2.418  1.1592 -0.4882 -1.0824
  2884G12c C02453565   0.821   7.477   2.297 -0.0282 -0.9135 -0.4708
  2884G12c H00V53566   0.919   7.439   2.268 -0.2314  2.0098 -5.5574
  2884G12c H00U53567   0.814   7.570   2.353 -3.8735 -1.0844 -0.5105
  2884G12c H00T53568   0.753   7.491   2.213  1.1642 -2.0512 -1.6408
  2894G12c C00D53569   6.891  12.180   3.135  0.4812  0.7538 -0.2334
  2894G12c O00B53570   6.963  12.246   3.257  0.2069  0.5847  0.2196
  2894G12c C02553571   6.922  12.375   3.278  0.8907  1.3013 -1.3857
  2894G12c C02653572   6.835  12.389   3.397  1.7733  0.3277 -1.2064
  2894G12c H00Y53573   6.775  12.305   3.433  3.0032  1.9115  5.2263
  2894G12c H00X53574   6.755  12.457   3.371  2.2506 -0.7674 -6.0523
  2894G12c O00C53575   6.926  12.430   3.505 -0.7923  0.2905 -0.5221
  2894G12c H00W53576   7.011  12.421   3.464  0.7212 -5.1142  3.2843
  2894G12c C02753577   6.968  12.454   3.185  0.3152  1.3379 -2.6750
  2894G12c O00D53578   7.078  12.405   3.112 -0.6617  0.2256 -0.9129
  2894G12c H00Z53579   7.133  12.373   3.181 -5.2766 -1.5760  2.1983
  2894G12c C02853580   6.949  12.593   3.226  0.1524  0.5807 -1.5631
  2894G12c C02953581   6.864  12.672   3.150 -0.5584  0.1940 -0.7723
  2894G12c H01053582   6.820  12.627   3.062 -1.2200  2.0879 -1.4423
  2894G12c C02T53583   6.866  12.811   3.143 -0.6553 -0.9016  0.2933
  2894G12c H01O53584   6.811  12.870   3.071 -1.3012 -4.0529 -1.8736
  2894G12c C02S53585   6.921  12.871   3.247 -0.5422  0.7481  0.8297
  2894G12c O00J53586   6.917  13.007   3.245 -1.9125  0.1379 -0.5741
  2894G12c H01P53587   7.000  13.040   3.278  0.8084  0.8219 -7.1538
  2894G12c C02R53588   6.993  12.811   3.345 -0.0932  0.1850 -0.4448
  2894G12c O00I53589   7.022  12.889   3.457  0.3259 -0.6151 -0.5959
  2894G12c C02Q53590   6.933  12.847   3.570 -0.2059 -0.3459 -0.6247
  2894G12c H01N53591   7.012  12.788   3.615  0.9378  2.7394  1.5589
  2894G12c H01R53592   6.833  12.824   3.533  1.8662 -1.9422 -5.6958
  2894G12c H01Q53593   6.929  12.935   3.634 -0.6875 -0.4860 -0.4576
  2894G12c C02A53594   7.019  12.675   3.333  0.1039  1.0086 -0.4141
  2894G12c H01153595   7.097  12.644   3.401 -0.7270 -1.6360 -0.5739
  2894G12c C00C53596   6.801  12.226   3.041  0.2351 -0.8554  1.1948
  2894G12c H01253597   6.779  12.329   3.020 -0.6901 -1.7504 -2.6738
  2894G12c C00B53598   6.732  12.128   2.952  0.4313 -0.5195  0.7462
  2894G12c C00A53599   6.603  12.141   2.883  0.0888 -0.2020 -1.4051
  2894G12c C00953600   6.467  12.196   2.937 -0.5839  0.0671  0.2421
  2894G12c C00853601   6.431  12.295   3.038 -1.5873 -1.6234 -1.0246
  2894G12c H01353602   6.493  12.378   3.068  1.5078 -4.5782  1.0737
  2894G12c C00753603   6.300  12.314   3.076 -0.9612  1.4833 -1.1718
  2894G12c H01453604   6.271  12.407   3.122 -8.9661 -0.9302 -0.6072
  2894G12c C00653605   6.223  12.184   3.064  0.6377 -2.0649  0.4429
  2894G12c C00553606   6.259  12.089   2.973 -0.0435  1.2594  2.2730
  2894G12c C00453607   6.176  11.974   2.972 -1.0339 -1.2407  0.7052
  2894G12c C00353608   6.217  11.869   2.859  2.0814  1.3677 -0.2902
  2894G12c C00253609   6.127  11.750   2.845 -0.3605 -0.0078 -0.6452
  2894G12c C00153610   6.138  11.631   2.768 -0.2080 -2.0026 -1.6375
  2894G12c C00M53611   6.262  11.563   2.747 -1.1538 -1.3283  1.3866
  2894G12c C00L53612   6.384  11.627   2.713 -1.1151 -0.3558 -0.8748
  2894G12c C00R53613   6.520  11.573   2.735  0.9328  0.8734 -0.5984
  2894G12c C00Q53614   6.557  11.433   2.787  0.5390 -0.0330  0.2176
  2894G12c C00V53615   6.701  11.428   2.798 -1.6146  0.1808  0.1488
  2894G12c C00U53616   6.792  11.538   2.804  0.5254  0.1406  1.1930
  2894G12c C00T53617   6.752  11.660   2.794 -0.2862 -1.4875  0.7297
  2894G12c C01653618   6.806  11.776   2.843 -1.2252  1.0039 -0.6647
  2894G12c C01553619   6.930  11.767   2.888  0.4278 -0.6758  0.0266
  2894G12c C01053620   6.992  11.632   2.890 -0.7608 -0.4418 -1.4222
  2894G12c C01153621   7.129  11.629   2.916 -0.4503  1.3498 -0.1943
  2894G12c H00553622   7.176  11.533   2.901  1.7601  3.0296 -4.7490
  2894G12c C01253623   7.212  11.722   2.973 -0.5845 -1.2471 -1.3431
  2894G12c C01753624   7.338  11.674   3.035 -0.1894 -1.6250  0.2362
  2894G12c O00253625   7.367  11.695   3.166 -0.3865  0.1339 -0.0789
  2894G12c H00453626   7.343  11.774   3.213 -0.2625  0.8732 -1.2326
  2894G12c C01853627   7.445  11.640   2.946  0.6603  0.2631  0.3546
  2894G12c O00153628   7.429  11.641   2.808  0.2469 -0.5315  0.2205
  2894G12c H00353629   7.483  11.711   2.775 -2.5331  6.1933  8.1497
  2894G12c C01953630   7.595  11.623   2.995  0.3035 -0.9368  1.0853
  2894G12c H00253631   7.597  11.686   3.085 -2.2682  3.2528 -1.6205
  2894G12c H00153632   7.586  11.516   3.013 -0.4615 -1.4755 -2.2253
  2894G12c O00053633   7.672  11.632   2.869 -0.9358 -0.4552 -0.2396
  2894G12c C01A53634   7.801  11.579   2.874 -0.0219 -0.5376 -1.1101
  2894G12c C02K53635   7.924  11.646   2.848  0.8187 -0.0080  0.3501
  2894G12c O00G53636   7.917  11.796   2.842 -2.0139 -0.0663  1.1858
  2894G12c C02M53637   7.871  11.850   2.727 -1.3844 -0.2833  1.0911
  2894G12c H01G53638   7.799  11.781   2.682  1.1490 -4.2323  2.8450
  2894G12c H01F53639   7.945  11.873   2.650  0.9135 -0.6057  3.1560
  2894G12c H01E53640   7.818  11.945   2.740 -4.4906 -1.8491  0.4515
  2894G12c C02J53641   8.036  11.568   2.869  1.3168 -0.5553  2.1592
  2894G12c H01H53642   8.123  11.632   2.859 -0.2612  0.9157 -6.6945
  2894G12c C02I53643   8.043  11.437   2.915 -0.6693  1.1343  2.9865
  2894G12c C02N53644   8.168  11.376   2.891 -0.8560 -0.1958  2.0562
  2894G12c H01M53645   8.260  11.431   2.876 -2.1089  1.2302 -0.8661
  2894G12c C02O53646   8.170  11.236   2.905 -0.0828 -1.2440 -0.2413
  2894G12c H01L53647   8.095  11.165   2.937 -2.0874 -2.7350 -7.3390
  2894G12c C02P53648   8.311  11.185   2.902  0.5238  0.9759 -0.9659
  2894G12c H01K53649   8.353  11.242   2.818  1.9906  7.0118  3.4704
  2894G12c H01J53650   8.374  11.238   2.974  0.1839  7.5214 -4.9745
  2894G12c O00H53651   8.299  11.049   2.934  0.8850  1.0617 -1.0260
  2894G12c H01I53652   8.285  11.034   3.026  0.8186 -4.6430 -1.8062
  2894G12c C02H53653   7.926  11.371   2.898 -1.0002 -1.3637 -1.8033
  2894G12c H01C53654   7.942  11.268   2.926  0.1801 -0.2745  1.7331
  2894G12c C02L53655   7.808  11.440   2.892  0.1967  1.6091  2.1940
  2894G12c H01D53656   7.719  11.380   2.883 -0.9906  3.1458  3.3798
  2894G12c C01353657   7.145  11.853   2.992 -1.6114  0.1194  0.3715
  2894G12c H00053658   7.207  11.924   3.045  4.3481 -3.4296 -1.3383
  2894G12c C01453659   6.996  11.872   2.949 -0.0297  0.0376  0.3512
  2894G12c C00F53660   6.914  11.980   2.990 -1.5533  1.0114 -0.4592
  2894G12c C00H53661   6.741  11.905   2.839  0.9417  1.6668  0.6712
  2894G12c C00I53662   6.613  11.910   2.781 -0.9958 -0.9196 -1.8412
  2894G12c C00J53663   6.551  11.789   2.754 -0.5593  1.1145 -0.9629
  2894G12c C00Z53664   6.911  11.520   2.862 -0.7362 -0.0103 -0.4524
  2894G12c C00Y53665   6.950  11.397   2.893  1.7204  0.3369 -0.6154
  2894G12c H00653666   7.041  11.378   2.947  0.4412 -7.3506 -0.6442
  2894G12c C00X53667   6.875  11.279   2.871 -1.3684  0.3851 -1.5108
  2894G12c O00353668   6.922  11.157   2.898  0.3739 -0.4021 -0.9895
  2894G12c C01B53669   6.968  11.090   2.757  1.8894  1.2172 -0.1326
  2894G12c H00953670   7.075  11.109   2.749  2.1712 -0.2515  0.0919
  2894G12c H00853671   6.932  11.118   2.658  6.0051  3.2025 -1.1855
  2894G12c H00753672   6.953  10.983   2.744  5.4950  0.1299  3.4280
  2894G12c C00W53673   6.754  11.297   2.814 -0.0335  0.5493 -0.2516
  2894G12c O00453674   6.674  11.200   2.852  0.3631  0.1073  0.5081
  2894G12c C01C53675   6.542  11.202   2.832  1.7438 -0.9489 -0.3550
  2894G12c H00A53676   6.476  11.136   2.778 -3.3022  6.3139 -3.9426
  2894G12c C00P53677   6.473  11.325   2.814  0.9495 -0.9552  0.5059
  2894G12c C00O53678   6.332  11.332   2.823 -0.3218 -0.3569 -0.8995
  2894G12c C01D53679   6.282  11.212   2.891 -1.2451 -2.0001  0.4892
  2894G12c H00S53680   6.317  11.110   2.890 -4.3310 -3.1767  3.0311
  2894G12c C01E53681   6.184  11.233   2.979  2.6265 -0.1499 -0.5665
  2894G12c O00853682   6.145  11.149   3.082  0.6141 -1.6913  0.7199
  2894G12c C01V53683   6.252  11.121   3.167 -0.9065  1.4163 -1.2222
  2894G12c C01Z53684   6.308  10.975   3.161  0.2052 -0.6454 -0.5437
  2894G12c H00R53685   6.350  10.944   3.257  0.1238  2.7301  0.6728
  2894G12c H00Q53686   6.221  10.911   3.145  1.7580 -2.7719 -0.5548
  2894G12c O00953687   6.439  10.993   3.105 -0.5191 -0.3706  0.8806
  2894G12c H00P53688   6.448  11.085   3.085  0.5175 -0.3463  1.4394
  2894G12c C01W53689   6.296  11.224   3.242 -0.7140 -0.8202  0.4774
  2894G12c H00O53690   6.226  11.306   3.233 -0.5616 -0.5292  1.8836
  2894G12c C01X53691   6.435  11.250   3.286 -0.8466  0.8183  1.9046
  2894G12c H00N53692   6.510  11.209   3.218 -9.3281 -5.5620 -4.7902
  2894G12c H00M53693   6.450  11.357   3.270  2.6566 -0.1754 -2.3470
  2894G12c C01Y53694   6.489  11.216   3.424 -1.4970 -1.6268  1.2432
  2894G12c C02D53695   6.520  11.321   3.514 -1.6769 -1.1289  1.3236
  2894G12c H01953696   6.451  11.404   3.522  1.8548  2.0894 -0.1516
  2894G12c C02C53697   6.613  11.304   3.618  0.6227 -1.7980 -0.2106
  2894G12c H01A53698   6.589  11.361   3.707  4.0600 -4.0291  2.2744
  2894G12c C02B53699   6.699  11.189   3.616  0.1051 -1.7029 -0.3252
  2894G12c O00E53700   6.773  11.184   3.720  0.0628 -0.4519  0.3502
  2894G12c H01B53701   6.812  11.256   3.768 -1.8443  2.8184 -2.7685
  2894G12c C02F53702   6.666  11.094   3.525 -0.7350  0.5314 -0.6572
  2894G12c O00F53703   6.733  10.968   3.526 -0.4257 -0.9170 -0.8461
  2894G12c C02G53704   6.868  10.945   3.470  0.1479 -0.3929  1.3299
  2894G12c H01753705   6.899  10.921   3.571 -3.1006 -4.3368  1.5297
  2894G12c H01653706   6.888  11.042   3.425 -3.6394 -2.2302 -5.0225
  2894G12c H01553707   6.863  10.874   3.387  1.2581  2.9190 -1.7316
  2894G12c C02E53708   6.553  11.103   3.444  1.1925  1.7828 -0.1147
  2894G12c H01853709   6.527  11.003   3.413  5.8199  1.1727 -2.4306
  2894G12c C01F53710   6.102  11.342   2.977 -0.2131  1.1898  0.7151
  2894G12c C01G53711   6.004  11.389   3.073  0.2732 -0.7123 -0.8188
  2894G12c H00L53712   5.995  11.328   3.161  1.1917 -3.0510 -2.2941
  2894G12c C01H53713   5.958  11.525   3.072  0.8145  1.9161  0.5623
  2894G12c H00B53714   5.914  11.574   3.158 -5.3315  1.9563 -2.3305
  2894G12c C01I53715   5.988  11.604   2.961 -0.3273  1.0657 -0.5169
  2894G12c C01U53716   6.122  11.430   2.867  0.1278  0.6232 -0.5392
  2894G12c C00S53717   6.617  11.671   2.731 -0.4175 -0.4697  0.7618
  2894G12c C00K53718   6.399  11.770   2.735 -0.3433 -0.6222 -1.1503
  2894G12c C00N53719   6.241  11.437   2.805 -0.7618  1.1817 -0.6333
  2894G12c C00053720   6.036  11.544   2.842 -0.6765  0.0971  0.2913
  2894G12c C01J53721   6.039  11.739   2.963 -2.5562 -0.4338 -0.1039
  2894G12c C01K53722   6.004  11.831   3.063 -0.0372 -0.1456 -0.9178
  2894G12c C01P53723   5.897  11.826   3.162  1.8026 -0.6379  1.0921
  2894G12c C01Q53724   5.771  11.752   3.140  0.6359 -0.5115 -1.3035
  2894G12c H00G53725   5.740  11.679   3.213  0.0456 -0.4338 -1.4774
  2894G12c C01R53726   5.692  11.786   3.040  0.4562 -0.3167  1.8528
  2894G12c H00F53727   5.718  11.868   2.974  5.1540 -4.7381 -2.2368
  2894G12c C01S53728   5.572  11.732   3.007 -0.2560 -0.9317 -0.0892
  2894G12c H00E53729   5.520  11.824   2.984  2.8423  1.9895  3.8667
  2894G12c H00D53730   5.500  11.698   3.081  1.0978  4.1044  3.8078
  2894G12c O00553731   5.624  11.671   2.882  0.7664 -1.5577 -0.4231
  2894G12c H00C53732   5.681  11.738   2.850  0.9049  3.3198  8.3393
  2894G12c C01O53733   5.872  11.927   3.259 -0.7684 -0.2559 -1.2027
  2894G12c H00H53734   5.806  11.918   3.343 -0.9768  2.3816 -1.0386
  2894G12c C01N53735   5.947  12.039   3.249 -0.8342 -0.7548 -0.5931
  2894G12c O00653736   5.953  12.149   3.333  1.1294 -0.3162  0.4504
  2894G12c C01T53737   5.860  12.192   3.424  0.5338  0.9398  0.2255
  2894G12c H00K53738   5.784  12.114   3.428  1.2909  0.1138 -1.0643
  2894G12c H00J53739   5.807  12.268   3.367  5.8766  1.3463 -4.7075
  2894G12c H00I53740   5.911  12.236   3.509 -0.4685 -4.4978  3.9438
  2894G12c C01M53741   6.043  12.052   3.160  1.4862 -0.1707 -1.9246
  2894G12c C02053742   6.345  11.887   2.776  0.9479 -0.2586 -1.7881
  2894G12c C02153743   6.412  12.016   2.802  1.5299 -0.0619 -0.1152
  2894G12c C01L53744   6.071  11.954   3.055 -0.0372  1.1908  1.5622
  2894G12c O00753745   6.142  12.138   3.167 -1.1291 -1.9748 -0.7623
  2894G12c C02253746   6.365  12.111   2.885  0.8886  2.1644  0.8281
  2894G12c C02353747   6.548  12.029   2.802  1.0665 -1.3009 -0.5646
  2894G12c C00G53748   6.796  12.009   2.919  0.5009  0.8557 -0.0949
  2894G12c C00E53749   6.928  12.039   3.115 -1.8892  1.2393  0.3619
  2894G12c O00A53750   7.026  11.981   3.192  1.0495 -0.7908 -0.8815
  2894G12c C02453751   6.980  11.873   3.268  0.1552  0.1122  0.5979
  2894G12c H00V53752   7.065  11.827   3.318 -1.9901 -1.8044  2.5828
  2894G12c H00U53753   6.932  11.926   3.350 -2.3678 -4.2375  2.0865
  2894G12c H00T53754   6.913  11.812   3.208  5.2076 -2.3434 -2.9016
  2904G12c C00D53755   1.257   2.808   4.337  0.9116  0.7303 -0.5927
  2904G12c O00B53756   1.306   2.915   4.276  0.4947  2.2115 -1.7776
  2904G12c C02553757   1.375   3.013   4.347 -0.0318  0.8257  0.6009
  2904G12c C02653758   1.308   3.133   4.383  2.2453 -1.6242 -0.1723
  2904G12c H00Y53759   1.252   3.152   4.292 -2.0956  7.2767  3.6799
  2904G12c H00X53760   1.386   3.198   4.423  0.6463  1.7903 -2.3230
  2904G12c O00C53761   1.216   3.126   4.502  0.6944  0.8540 -1.4401
  2904G12c H00W53762   1.198   3.217   4.520  7.3750  2.2043 -0.3762
  2904G12c C02753763   1.508   2.999   4.357  0.0684  0.3935  1.0586
  2904G12c O00D53764   1.573   2.907   4.268 -0.4975  0.5131 -0.2260
  2904G12c H00Z53765   1.516   2.854   4.214  0.6676  2.0691 -3.1166
  2904G12c C02853766   1.592   3.103   4.426 -0.0839  1.7380 -2.0902
  2904G12c C02953767   1.592   3.125   4.562 -0.7190 -0.4650  1.5484
  2904G12c H01053768   1.515   3.067   4.610 -2.4836  4.8691  5.7122
  2904G12c C02T53769   1.691   3.216   4.615  0.9921  0.2381 -0.7503
  2904G12c H01O53770   1.656   3.235   4.715  0.5730 -1.0949 -0.6379
  2904G12c C02S53771   1.790   3.270   4.533 -0.0159 -0.2016 -0.0054
  2904G12c O00J53772   1.891   3.351   4.553 -0.6662 -0.4020  0.4666
  2904G12c H01P53773   1.943   3.361   4.475  3.2492  3.9100  3.3753
  2904G12c C02R53774   1.805   3.216   4.405 -0.0140 -0.5756 -0.7984
  2904G12c O00I53775   1.894   3.270   4.310 -0.8364 -0.8535  0.3956
  2904G12c C02Q53776   1.990   3.184   4.296 -0.4885 -0.3939  0.1548
  2904G12c H01N53777   1.967   3.085   4.335  3.9285 -2.7686 -2.8757
  2904G12c H01R53778   2.066   3.233   4.357 -2.3813  2.2107  0.5125
  2904G12c H01Q53779   2.035   3.188   4.197 -1.2026 -1.9516 -0.2477
  2904G12c C02A53780   1.702   3.141   4.352 -0.5271  0.8467 -0.3795
  2904G12c H01153781   1.701   3.133   4.244 -0.8155 -0.0796 -0.3087
  2904G12c C00C53782   1.164   2.811   4.434 -0.9598  0.5846 -1.4914
  2904G12c H01253783   1.097   2.896   4.438 -0.0201  1.7328 -7.0742
  2904G12c C00B53784   1.122   2.687   4.495 -1.4909  0.4559  0.3845
  2904G12c C00A53785   1.005   2.654   4.586 -1.6230 -1.4531  0.4745
  2904G12c C00953786   0.937   2.738   4.680 -0.1921 -0.7791 -1.4047
  2904G12c C00853787   0.945   2.867   4.725 -1.3555 -0.7545  0.8407
  2904G12c H01353788   1.016   2.928   4.671  0.5357 -1.2793  2.6473
  2904G12c C00753789   0.901   2.903   4.856  1.6635  1.1656 -2.7280
  2904G12c H01453790   0.888   3.007   4.879  9.4756  1.1839  3.3279
  2904G12c C00653791   0.884   2.807   4.957  0.2726  0.2908 -0.8777
  2904G12c C00553792   0.880   2.675   4.916  0.0427 -0.0505 -1.4194
  2904G12c C00453793   0.862   2.560   5.002 -0.8805 -0.9535 -1.4936
  2904G12c C00353794   0.882   2.434   4.965 -0.3606  0.3284  0.6303
  2904G12c C00253795   0.900   2.332   5.079  0.2925  1.5076  1.3956
  2904G12c C00153796   0.921   2.190   5.073 -2.0063  0.8691 -0.2667
  2904G12c C00M53797   1.029   2.124   5.001  0.4993  1.0270 -0.1285
  2904G12c C00L53798   1.075   2.176   4.889 -0.0814  0.7352 -0.2436
  2904G12c C00R53799   1.196   2.149   4.823 -3.0455 -0.2353  0.5536
  2904G12c C00Q53800   1.300   2.052   4.849 -0.2767  0.6580 -1.1978
  2904G12c C00V53801   1.400   2.059   4.757  0.4450 -0.3424 -1.0925
  2904G12c C00U53802   1.401   2.146   4.659  0.4508  1.8872 -1.4568
  2904G12c C00T53803   1.287   2.239   4.630 -0.5394 -0.0209  1.4962
  2904G12c C01653804   1.299   2.365   4.576 -1.6107 -0.6138  0.1469
  2904G12c C01553805   1.414   2.392   4.513  0.1257  0.4709  0.8167
  2904G12c C01053806   1.519   2.313   4.522 -0.6745  1.3661  0.6525
  2904G12c C01153807   1.640   2.334   4.452  0.5011  0.5006  0.8482
  2904G12c H00553808   1.712   2.254   4.443 -1.7994 -1.1843 -4.6464
  2904G12c C01253809   1.675   2.445   4.367  1.8527  0.9998 -0.1490
  2904G12c C01753810   1.796   2.450   4.293 -2.5189  0.8204  0.2612
  2904G12c O00253811   1.834   2.332   4.247 -0.4697  1.5625  1.4370
  2904G12c H00453812   1.924   2.359   4.251  3.0834 -7.9886 -0.8840
  2904G12c C01853813   1.846   2.558   4.240 -1.0165 -1.5272 -0.4022
  2904G12c O00153814   1.805   2.689   4.242  0.2781  0.6701 -0.2224
  2904G12c H00353815   1.872   2.754   4.258 -1.4987  2.8124 -1.1567
  2904G12c C01953816   1.979   2.549   4.182  0.0861 -0.7376 -1.1946
  2904G12c H00253817   2.013   2.649   4.155  0.3311  1.3955  6.0463
  2904G12c H00153818   2.059   2.522   4.252 -1.8450  1.8932  2.1566
  2904G12c O00053819   1.964   2.468   4.063 -1.1083 -0.4141  0.7992
  2904G12c C01A53820   1.894   2.526   3.954  2.7225 -0.9343  0.6086
  2904G12c C02K53821   1.924   2.468   3.820 -0.6217 -0.4412 -0.2354
  2904G12c O00G53822   2.028   2.378   3.809 -0.8855 -0.7562 -0.2645
  2904G12c C02M53823   1.982   2.245   3.761  0.5734  1.3125  1.1386
  2904G12c H01G53824   1.893   2.249   3.699  0.1562  0.0372  1.6329
  2904G12c H01F53825   1.984   2.175   3.845 -4.1983  2.2490  2.1503
  2904G12c H01E53826   2.059   2.193   3.704  2.3445  5.0859 -0.0730
  2904G12c C02J53827   1.846   2.497   3.706 -1.3972 -1.2053 -0.1090
  2904G12c H01H53828   1.920   2.462   3.635  0.7920  1.8199  0.5959
  2904G12c C02I53829   1.761   2.612   3.705  1.0739  0.4522 -1.4587
  2904G12c C02N53830   1.731   2.696   3.582  0.3046  0.3372  0.2289
  2904G12c H01M53831   1.781   2.791   3.590 -1.2598  0.8999  4.9388
  2904G12c C02O53832   1.674   2.663   3.470 -0.7701  0.9971 -0.5218
  2904G12c H01L53833   1.681   2.726   3.383  0.3134 -2.4906 -3.0906
  2904G12c C02P53834   1.546   2.577   3.441 -1.6285 -1.8381 -0.6971
  2904G12c H01K53835   1.515   2.537   3.537  2.8220 -5.3579 -0.5508
  2904G12c H01J53836   1.494   2.669   3.415  2.9914  0.0034 -4.2920
  2904G12c O00H53837   1.558   2.487   3.339  0.6551 -0.2687 -0.0914
  2904G12c H01I53838   1.629   2.528   3.292 -2.4402  6.5696  0.5709
  2904G12c C02H53839   1.739   2.668   3.826  0.5230  1.7956 -0.3997
  2904G12c H01C53840   1.656   2.731   3.857  1.2365  2.2878  0.5529
  2904G12c C02L53841   1.814   2.638   3.946 -0.2843  1.5313  1.1618
  2904G12c H01D53842   1.778   2.696   4.031 -0.8399  0.4789  1.6547
  2904G12c C01353843   1.567   2.545   4.377 -0.3327 -0.0728 -1.5176
  2904G12c H00053844   1.586   2.647   4.347  6.7146 -0.3632  0.8379
  2904G12c C01453845   1.421   2.500   4.417 -1.9768  0.2024 -0.2163
  2904G12c C00F53846   1.308   2.580   4.405  0.3031 -1.0679 -1.0742
  2904G12c C00H53847   1.197   2.450   4.566 -0.0556  0.2360 -1.7764
  2904G12c C00I53848   1.079   2.416   4.637  0.4962 -0.7201 -0.7306
  2904G12c C00J53849   1.086   2.310   4.718  0.9478  0.1811  1.2029
  2904G12c C00Z53850   1.515   2.188   4.584 -0.7772 -0.5391  0.8620
  2904G12c C00Y53851   1.633   2.113   4.609  1.2023  1.1517  0.2136
  2904G12c H00653852   1.728   2.097   4.559  2.0455  0.7812  1.9158
  2904G12c C00X53853   1.630   2.011   4.703  2.3518  0.1588 -0.3763
  2904G12c O00353854   1.732   1.916   4.688  0.3874 -0.0970  0.0011
  2904G12c C01B53855   1.738   1.853   4.554  1.4326 -1.4025 -0.0238
  2904G12c H00953856   1.659   1.859   4.479 -0.5941 -2.2838  1.9615
  2904G12c H00853857   1.732   1.751   4.591  4.3217 -1.8373 -0.7057
  2904G12c H00753858   1.844   1.843   4.534  1.8698 -1.7700  2.3635
  2904G12c C00W53859   1.519   1.985   4.775 -0.2827 -0.4994 -1.6657
  2904G12c O00453860   1.518   1.885   4.867 -0.1362  0.0632 -0.7679
  2904G12c C01C53861   1.454   1.904   4.972  0.4511  1.7314  2.7410
  2904G12c H00A53862   1.517   1.907   5.060  6.8240  2.4498 -1.5425
  2904G12c C00P53863   1.332   1.995   4.975 -0.0519 -0.3476 -0.0748
  2904G12c C00O53864   1.246   2.012   5.095 -0.6140  0.3941  0.6498
  2904G12c C01D53865   1.297   1.982   5.232  0.4336  1.2943  0.2701
  2904G12c H00S53866   1.396   1.941   5.237 -2.5757 -7.6881 -3.5917
  2904G12c C01E53867   1.247   2.025   5.355  1.2919  0.1302  1.0400
  2904G12c O00853868   1.321   2.038   5.475 -0.3550 -0.0749 -0.6916
  2904G12c C01V53869   1.406   1.936   5.509  0.2614 -1.5990 -1.2967
  2904G12c C01Z53870   1.437   1.797   5.445  0.3955  1.0298 -0.7265
  2904G12c H00R53871   1.503   1.824   5.362  3.8858  2.7116  2.4374
  2904G12c H00Q53872   1.492   1.731   5.513 -1.4028  0.0190 -0.2177
  2904G12c O00953873   1.331   1.727   5.395 -1.7296  0.3568  1.2607
  2904G12c H00P53874   1.273   1.790   5.355  3.3378  5.7109  1.7698
  2904G12c C01W53875   1.519   1.963   5.590  1.0741  0.7057  1.1429
  2904G12c H00O53876   1.570   1.870   5.603  1.6275  0.7827 -0.3710
  2904G12c C01X53877   1.537   2.112   5.628  1.6379  1.3900 -0.4666
  2904G12c H00N53878   1.465   2.186   5.592  2.1340  0.1236 -4.2643
  2904G12c H00M53879   1.558   2.119   5.735 -2.9385 -3.4837  0.9357
  2904G12c C01Y53880   1.695   2.135   5.630 -0.2479 -0.6389  0.0117
  2904G12c C02D53881   1.738   2.251   5.560  0.7242  0.0715  1.9847
  2904G12c H01953882   1.658   2.292   5.500 -1.7031 -2.1659  3.5557
  2904G12c C02C53883   1.868   2.287   5.538 -0.7285  0.6531  0.9788
  2904G12c H01A53884   1.880   2.374   5.474  0.0061 -1.1125 -1.3635
  2904G12c C02B53885   1.980   2.214   5.615  0.8556  1.5680  0.1352
  2904G12c O00E53886   2.104   2.269   5.615  0.5657 -0.0838  0.7892
  2904G12c H01B53887   2.175   2.212   5.640  1.6472  1.4343  1.2772
  2904G12c C02F53888   1.940   2.095   5.689 -0.6285 -0.7771  0.9338
  2904G12c O00F53889   2.042   2.026   5.759  0.3116 -0.0919  1.6746
  2904G12c C02G53890   2.005   1.964   5.884 -0.1668  0.1947  0.0810
  2904G12c H01753891   1.973   2.030   5.964  0.4208 -1.6298  1.8619
  2904G12c H01653892   2.068   1.899   5.944 -3.0235 -4.7019 -1.9415
  2904G12c H01553893   1.925   1.899   5.849  3.9048 -5.0954 -0.1409
  2904G12c C02E53894   1.799   2.047   5.673  0.4485 -1.4332  1.0873
  2904G12c H01853895   1.760   1.965   5.732  0.6353  1.2277  5.1318
  2904G12c C01F53896   1.114   2.082   5.336  0.1024 -0.4171  1.8194
  2904G12c C01G53897   1.064   2.166   5.445  2.0254  1.0477  1.4727
  2904G12c H00L53898   1.101   2.129   5.539  3.8325 -2.6520 -0.5960
  2904G12c C01H53899   0.955   2.258   5.413  0.4699 -0.4071  1.1947
  2904G12c H00B53900   0.914   2.308   5.498 -4.6885  0.7983 -1.8095
  2904G12c C01I53901   0.880   2.252   5.294 -1.8383 -1.1535  1.7952
  2904G12c C01U53902   1.042   2.086   5.217  0.0915 -0.8483  1.1058
  2904G12c C00S53903   1.177   2.214   4.707 -0.2286 -0.2598  0.0373
  2904G12c C00K53904   0.997   2.285   4.819  1.3377 -0.5182  1.1893
  2904G12c C00N53905   1.102   2.053   5.096 -0.2725  1.1456  0.5728
  2904G12c C00053906   0.923   2.156   5.201 -1.5188  1.1269  0.5391
  2904G12c C01J53907   0.859   2.367   5.206  1.1892  2.7561 -1.1281
  2904G12c C01K53908   0.815   2.502   5.251 -0.0640  0.9170  2.3671
  2904G12c C01P53909   0.764   2.546   5.377  1.3627 -0.0735  0.4056
  2904G12c C01Q53910   0.700   2.445   5.463 -0.3936 -1.2914 -0.1349
  2904G12c H00G53911   0.740   2.380   5.539 -1.2089 -2.8409 -1.0195
  2904G12c C01R53912   0.565   2.458   5.487 -1.2948  0.4337 -1.2558
  2904G12c H00F53913   0.512   2.523   5.419  0.0007  0.5951 -2.1175
  2904G12c C01S53914   0.498   2.370   5.579 -1.2011 -1.1049  0.1906
  2904G12c H00E53915   0.450   2.430   5.656 -1.6182 -3.0634  1.4894
  2904G12c H00D53916   0.419   2.357   5.505  1.1641  3.1135 -3.3822
  2904G12c O00553917   0.543   2.246   5.643 -0.4473 -1.0104  0.3284
  2904G12c H00C53918   0.569   2.195   5.568 -0.1891 -1.4809  0.7304
  2904G12c C01O53919   0.748   2.690   5.411  1.5462 -0.2722  1.6860
  2904G12c H00H53920   0.707   2.686   5.510 -5.0791 -1.3484 -0.8128
  2904G12c C01N53921   0.776   2.782   5.308  1.6362  0.5681 -1.4375
  2904G12c O00653922   0.782   2.909   5.351  1.3152  1.8802  0.7145
  2904G12c C01T53923   0.663   2.981   5.325  0.5865 -0.6074 -0.1860
  2904G12c H00K53924   0.679   3.078   5.373  4.6350 -0.8498 -0.8249
  2904G12c H00J53925   0.586   2.929   5.381 -2.3584  1.1687 -2.4479
  2904G12c H00I53926   0.608   2.962   5.234 -5.0448  4.2234  1.8718
  2904G12c C01M53927   0.830   2.734   5.174  0.4079 -1.0075 -0.0830
  2904G12c C02053928   0.921   2.404   4.833  0.3756  0.1721  0.3618
  2904G12c C02153929   0.904   2.511   4.743 -0.2290 -0.4160  1.4948
  2904G12c C01L53930   0.841   2.594   5.144 -0.1284 -0.1457  1.1636
  2904G12c O00753931   0.900   2.822   5.092 -0.2778  1.0485 -0.0430
  2904G12c C02253932   0.895   2.641   4.782 -0.7089  1.6058  0.5308
  2904G12c C02353933   0.983   2.528   4.628 -1.3572  0.3191  1.2749
  2904G12c C00G53934   1.200   2.568   4.494 -1.1931 -0.2393  0.3390
  2904G12c C00E53935   1.313   2.681   4.318 -1.2838 -1.8528  0.7377
  2904G12c O00A53936   1.360   2.647   4.189 -1.2737 -0.6823  0.0267
  2904G12c C02453937   1.322   2.537   4.132  1.2986 -0.0132  1.3174
  2904G12c H00V53938   1.409   2.475   4.156  2.2352  0.2468 -1.2229
  2904G12c H00U53939   1.234   2.478   4.155 -0.7386  2.3507 -0.1279
  2904G12c H00T53940   1.309   2.535   4.024 -4.7135 -3.0121  1.8989
  2914G12c C00D53941   1.933   1.190   0.961  0.6537 -1.3314  1.9668
  2914G12c O00B53942   1.811   1.185   0.898 -0.2562 -1.0209 -0.4584
  2914G12c C02553943   1.787   1.059   0.848  1.1460 -1.2523 -0.0723
  2914G12c C02653944   1.837   1.005   0.712  1.8723 -0.0325 -0.4739
  2914G12c H00Y53945   1.916   1.068   0.671 -3.5921  3.3909 -6.8055
  2914G12c H00X53946   1.767   1.075   0.667 -1.2241  0.2393  4.3524
  2914G12c O00C53947   1.833   0.868   0.667 -0.7739  1.1433  0.5232
  2914G12c H00W53948   1.748   0.828   0.682  2.3523 -7.4916 -1.8525
  2914G12c C02753949   1.720   0.969   0.924  0.7145  0.7040 -0.3568
  2914G12c O00D53950   1.670   1.023   1.047 -0.7341  0.6982 -1.1697
  2914G12c H00Z53951   1.707   1.110   1.056  1.5652 -0.0461 -2.8921
  2914G12c C02853952   1.659   0.852   0.891 -0.8484  1.1013 -1.7693
  2914G12c C02953953   1.699   0.735   0.952  0.8097 -0.2925 -0.5454
  2914G12c H01053954   1.738   0.715   1.051 -1.4923 -3.0706 -0.1246
  2914G12c C02T53955   1.678   0.629   0.865 -0.2031 -0.3125 -1.5513
  2914G12c H01O53956   1.748   0.547   0.873 -1.5288 -1.4138 -0.9575
  2914G12c C02S53957   1.578   0.625   0.754  0.5907 -0.4514  0.2040
  2914G12c O00J53958   1.550   0.528   0.662  0.4394  0.0143 -0.1384
  2914G12c H01P53959   1.458   0.508   0.661 -0.2508  2.6658 -4.7774
  2914G12c C02R53960   1.491   0.729   0.749 -0.4082  0.7547 -0.3131
  2914G12c O00I53961   1.373   0.729   0.678  1.4110  0.5486 -1.3785
  2914G12c C02Q53962   1.372   0.817   0.574  0.4621  0.6262 -0.9253
  2914G12c H01N53963   1.426   0.768   0.493  0.7280 -2.2086  0.9181
  2914G12c H01R53964   1.268   0.832   0.545 -0.7647 -4.3828  0.3722
  2914G12c H01Q53965   1.424   0.912   0.558 -1.2389  1.7306  0.0303
  2914G12c C02A53966   1.544   0.837   0.809 -0.2712  0.0828  2.2123
  2914G12c H01153967   1.494   0.932   0.820  3.1890  2.0860  1.4187
  2914G12c C00C53968   2.050   1.134   0.925  0.7210  0.7321  0.4076
  2914G12c H01253969   2.068   1.123   0.819  0.2798  4.3330 -0.1262
  2914G12c C00B53970   2.145   1.093   1.004 -0.0223  1.5014 -0.9678
  2914G12c C00A53971   2.264   1.019   0.967  0.0331 -1.9707  0.3332
  2914G12c C00953972   2.272   0.908   0.879  0.4440 -0.7713 -0.2296
  2914G12c C00853973   2.212   0.883   0.756 -0.0297  0.3263  0.1536
  2914G12c H01353974   2.122   0.898   0.698  0.3991 -0.6878 -0.7963
  2914G12c C00753975   2.260   0.755   0.696 -1.7888 -0.2664 -0.9884
  2914G12c H01453976   2.190   0.726   0.619  1.5956 -3.1944 -3.1027
  2914G12c C00653977   2.361   0.667   0.749  0.9887  0.7174  1.5410
  2914G12c C00553978   2.420   0.718   0.865 -2.0808 -0.4065  0.3222
  2914G12c C00453979   2.517   0.645   0.944 -1.0341  1.0717  1.6508
  2914G12c C00353980   2.549   0.698   1.074 -0.3990 -0.2018  0.4157
  2914G12c C00253981   2.631   0.607   1.155 -0.3022  1.3145 -0.1456
  2914G12c C00153982   2.679   0.620   1.291  1.0583  1.5654 -0.6437
  2914G12c C00M53983   2.589   0.665   1.398 -1.2207 -0.3670 -0.2028
  2914G12c C00L53984   2.547   0.796   1.392 -0.3716 -0.5786  0.7981
  2914G12c C00R53985   2.462   0.838   1.484  0.5009 -0.5562  0.0051
  2914G12c C00Q53986   2.419   0.790   1.621  1.0321  0.7939 -0.1656
  2914G12c C00V53987   2.308   0.865   1.665 -1.1174 -1.0981  0.5505
  2914G12c C00U53988   2.240   0.969   1.587  0.0405  0.7627 -0.5659
  2914G12c C00T53989   2.290   1.003   1.463  1.8014 -0.1939  1.0607
  2914G12c C01653990   2.207   1.077   1.370  1.4100  0.3921  0.3632
  2914G12c C01553991   2.080   1.118   1.421 -1.0830 -0.3562  2.7264
  2914G12c C01053992   2.048   1.099   1.557  1.5582 -0.2657 -0.5631
  2914G12c C01153993   1.917   1.124   1.608 -0.0496 -0.4572  0.0292
  2914G12c H00553994   1.890   1.096   1.709 -4.6525 -1.0735 -1.2536
  2914G12c C01253995   1.824   1.191   1.523  2.1888  0.5518 -1.2041
  2914G12c C01753996   1.681   1.180   1.559 -0.4425  0.7401  0.3966
  2914G12c O00253997   1.639   1.039   1.571  0.6121  0.4188  0.1918
  2914G12c H00453998   1.558   1.015   1.613  2.4517 -0.6139  3.3844
  2914G12c C01853999   1.582   1.281   1.541  0.1352 -0.9234 -0.8227
  2914G12c O00154000   1.602   1.412   1.496  0.3145  0.9743 -0.1203
  2914G12c H00354001   1.533   1.465   1.532  0.8369  2.5314 -1.3763
  2914G12c C01954002   1.452   1.269   1.607 -1.5558  1.7197  0.4049
  2914G12c H00254003   1.424   1.165   1.624 -2.6340  2.5238  3.8890
  2914G12c H00154004   1.470   1.321   1.701  1.0969 -5.3857  4.2259
  2914G12c O00054005   1.332   1.302   1.532 -1.2741 -0.9628  0.8630
  2914G12c C01A54006   1.208   1.269   1.602 -0.1617  1.0198  0.6099
  2914G12c C02K54007   1.093   1.269   1.542  0.6187 -0.8551 -0.5131
  2914G12c O00G54008   1.082   1.266   1.414 -0.4592 -0.3145 -0.4395
  2914G12c C02M54009   1.097   1.395   1.363 -0.1526  0.4850 -0.5273
  2914G12c H01G54010   1.158   1.417   1.275 -0.5113 -1.3150 -1.2395
  2914G12c H01F54011   1.006   1.450   1.341  0.4464  2.0253  0.7218
  2914G12c H01E54012   1.149   1.452   1.441  4.0269 -4.3869  0.5417
  2914G12c C02J54013   0.976   1.299   1.617  0.4863  0.3190  0.9651
  2914G12c H01H54014   0.884   1.297   1.562  4.3543 -1.1541 -6.1016
  2914G12c C02I54015   0.989   1.315   1.750 -0.3703  0.5478 -1.0771
  2914G12c C02N54016   0.884   1.344   1.839 -0.1159  1.1097 -0.0456
  2914G12c H01M54017   0.869   1.448   1.861 -8.5018 -0.0407  1.3870
  2914G12c C02O54018   0.841   1.263   1.938  0.3911 -0.2583  0.4476
  2914G12c H01L54019   0.815   1.309   2.032 -1.6811  2.1900 -1.2769
  2914G12c C02P54020   0.814   1.122   1.915 -0.1618  0.4105 -1.6529
  2914G12c H01K54021   0.907   1.083   1.872 -2.5781 -4.1316 -3.0448
  2914G12c H01J54022   0.791   1.074   2.009  0.2654  2.4714 -0.4528
  2914G12c O00H54023   0.692   1.097   1.841  1.0286 -2.1628  2.0866
  2914G12c H01I54024   0.630   1.055   1.898  1.6387 -1.0762  3.5805
  2914G12c C02H54025   1.089   1.251   1.812 -0.8494 -0.2903  0.7863
  2914G12c H01C54026   1.073   1.225   1.916 -0.3865 -0.6987  0.7585
  2914G12c C02L54027   1.207   1.240   1.746  0.6859  0.5014  0.3286
  2914G12c H01D54028   1.299   1.196   1.781  0.9080  2.1755  1.9032
  2914G12c C01354029   1.860   1.231   1.392 -2.3723  1.2622 -0.2064
  2914G12c H00054030   1.785   1.287   1.338 -2.1627  1.5126 -0.2438
  2914G12c C01454031   1.986   1.195   1.341 -0.6636  0.1275  0.2186
  2914G12c C00F54032   2.012   1.190   1.206 -0.1787  0.3759  0.2832
  2914G12c C00H54033   2.234   1.092   1.237  0.4378  0.3230  1.8252
  2914G12c C00I54034   2.359   1.035   1.188 -0.2620  1.2087 -0.7489
  2914G12c C00J54035   2.437   0.964   1.285 -0.7207  0.5078 -0.2009
  2914G12c C00Z54036   2.125   1.022   1.632  0.2150 -2.0964  1.4386
  2914G12c C00Y54037   2.080   0.986   1.760  1.6609  0.0907 -0.6843
  2914G12c H00654038   2.003   1.026   1.824  1.7343 -0.5481 -0.1960
  2914G12c C00X54039   2.140   0.894   1.839 -0.0703 -0.6188 -2.0182
  2914G12c O00354040   2.103   0.883   1.967 -0.4037 -2.5109 -2.4457
  2914G12c C01B54041   2.042   0.776   2.033  1.5996  0.3140  0.2407
  2914G12c H00954042   1.941   0.752   1.999  2.7031 -1.9719 -1.6508
  2914G12c H00854043   2.110   0.691   2.036  0.2358 -0.7777  0.7884
  2914G12c H00754044   2.017   0.827   2.126 -2.8119 -4.0510  1.6974
  2914G12c C00W54045   2.252   0.824   1.796  1.7615 -1.8014 -0.7815
  2914G12c O00454046   2.288   0.724   1.865 -0.4003  0.0841 -0.4280
  2914G12c C01C54047   2.408   0.667   1.821  0.2053  0.4287  2.6877
  2914G12c H00A54048   2.466   0.663   1.911 -0.4400 -4.7836  3.0553
  2914G12c C00P54049   2.455   0.671   1.685  0.0076  0.4808 -0.7065
  2914G12c C00O54050   2.500   0.564   1.612  0.6127 -1.1065 -1.8861
  2914G12c C01D54051   2.455   0.436   1.661 -0.0593 -0.0707 -0.3214
  2914G12c H00S54052   2.389   0.406   1.741 -1.4050 -5.9954 -3.3162
  2914G12c C01E54053   2.506   0.322   1.592  0.9753  0.4643  0.9270
  2914G12c O00854054   2.469   0.200   1.645 -0.1088 -1.9741  1.4998
  2914G12c C01V54055   2.391   0.148   1.749  0.0451 -1.5119 -0.4269
  2914G12c C01Z54056   2.452   0.131   1.876 -1.5287  1.3722  0.0087
  2914G12c H00R54057   2.493   0.033   1.900 -7.8415 -1.1516  1.6889
  2914G12c H00Q54058   2.556   0.161   1.872 -1.5033  1.9795  3.4754
  2914G12c O00954059   2.358   0.193   1.964  0.9913  0.4306 -0.4576
  2914G12c H00P54060   2.305   0.129   2.009  1.9236  3.9184  6.2996
  2914G12c C01W54061   2.273   0.094   1.706 -0.2024 -1.0699 -0.1035
  2914G12c H00O54062   2.211   0.031   1.768  2.5207 -3.2713  0.4965
  2914G12c C01X54063   2.206   0.144   1.571  0.5730  0.8608 -1.1520
  2914G12c H00N54064   2.279   0.183   1.500 -0.1466  3.6691 -0.3972
  2914G12c H00M54065   2.211   0.045   1.524  0.7811  1.1626 -1.7664
  2914G12c C01Y54066   2.074   0.213   1.595 -0.0191  0.2763  2.0166
  2914G12c C02D54067   1.956   0.139   1.575 -0.9119  1.3763  0.7992
  2914G12c H01954068   1.942   0.034   1.555 -2.6606  2.1710 -2.4158
  2914G12c C02C54069   1.839   0.204   1.593  0.1234 -0.3095  0.7247
  2914G12c H01A54070   1.754   0.137   1.597  2.2075 -3.0606  0.9139
  2914G12c C02B54071   1.836   0.330   1.661 -0.0084  2.2669 -0.1918
  2914G12c O00E54072   1.725   0.388   1.702 -1.0451  1.9237 -0.3533
  2914G12c H01B54073   1.754   0.427   1.783 -5.8811  1.8064  1.6040
  2914G12c C02F54074   1.961   0.403   1.685  0.3671 -2.3915 -0.7489
  2914G12c O00F54075   1.951   0.518   1.747  1.3692 -0.0214  0.0255
  2914G12c C02G54076   1.962   0.634   1.672 -0.4744  1.3455  1.0157
  2914G12c H01754077   1.899   0.630   1.583  3.9930  2.0738 -2.3233
  2914G12c H01654078   2.048   0.630   1.606  0.7805  0.1226  2.7007
  2914G12c H01554079   1.927   0.727   1.716 -8.6467  0.8879 -3.3344
  2914G12c C02E54080   2.098   0.345   1.643  0.0656 -0.1146  0.0110
  2914G12c H01854081   2.189   0.392   1.678 -1.5618  2.1397  1.3894
  2914G12c C01F54082   2.579   0.329   1.478 -0.3462 -1.0454  0.6164
  2914G12c C01G54083   2.572   0.240   1.370 -1.7911  0.4709 -0.2884
  2914G12c H00L54084   2.502   0.170   1.413 -0.9719 -3.7574 -5.3150
  2914G12c C01H54085   2.627   0.275   1.236  0.9982  0.5477 -0.5790
  2914G12c H00B54086   2.587   0.216   1.156 -0.0221  1.6725 -0.9167
  2914G12c C01I54087   2.699   0.391   1.210  0.5192 -0.8718 -0.2419
  2914G12c C01U54088   2.643   0.445   1.453  1.1590  1.1838  2.8275
  2914G12c C00S54089   2.402   0.951   1.417  0.4429  0.6690 -1.8920
  2914G12c C00K54090   2.524   0.855   1.260  2.2697 -0.3189 -0.7200
  2914G12c C00N54091   2.564   0.568   1.492 -0.6189  0.2184  0.4466
  2914G12c C00054092   2.712   0.471   1.323 -1.0606  0.5680  1.2280
  2914G12c C01J54093   2.671   0.490   1.103  3.2571  1.0370  0.9403
  2914G12c C01K54094   2.645   0.455   0.964 -2.4111  0.4061 -1.0078
  2914G12c C01P54095   2.669   0.320   0.921  0.5666 -0.4175  0.4235
  2914G12c C01Q54096   2.788   0.269   0.956  0.8930  0.9576  1.3847
  2914G12c H00G54097   2.850   0.261   1.044 -3.9946 -3.4019  4.7317
  2914G12c C01R54098   2.863   0.224   0.855  0.1178  0.5759  0.9600
  2914G12c H00F54099   2.849   0.243   0.750  3.6006 -0.4421  0.2368
  2914G12c C01S54100   3.016   0.173   0.874  2.9574  0.7569 -0.5354
  2914G12c H00E54101   3.088   0.199   0.796 -0.1606  8.0727 -1.3888
  2914G12c H00D54102   3.046   0.232   0.960  0.4404  0.1575  0.7722
  2914G12c O00554103   3.041   0.055   0.921  0.9541  0.9660  0.2352
  2914G12c H00C54104   2.988  -0.015   0.886  1.4607  2.8975 -4.7340
  2914G12c C01O54105   2.595   0.254   0.820 -0.7190 -1.8679  1.0442
  2914G12c H00H54106   2.621   0.166   0.763  4.2493  2.1823 -3.5515
  2914G12c C01N54107   2.502   0.324   0.753 -0.7381  1.7827 -0.3499
  2914G12c O00654108   2.410   0.268   0.657 -1.3593  0.5638  0.4494
  2914G12c C01T54109   2.466   0.266   0.521 -0.6150 -0.5975  1.0417
  2914G12c H00K54110   2.439   0.161   0.508 -0.6636 -0.0612 -3.8930
  2914G12c H00J54111   2.561   0.318   0.513 -1.8813  1.6299 -0.0696
  2914G12c H00I54112   2.430   0.268   0.418  5.5073 -1.3841 -1.2882
  2914G12c C01M54113   2.469   0.457   0.798 -0.9137 -0.4965  0.2421
  2914G12c C02054114   2.516   0.832   1.114  0.4409  0.7185  0.1991
  2914G12c C02154115   2.467   0.911   1.012 -2.8196  0.4940  0.8687
  2914G12c C01L54116   2.549   0.520   0.901 -1.0028  1.5076  0.4224
  2914G12c O00754117   2.389   0.534   0.711  0.5505 -1.7439 -0.6086
  2914G12c C02254118   2.399   0.847   0.905 -1.3244  1.3663  1.7180
  2914G12c C02354119   2.374   1.026   1.056  0.1434  1.7546  0.1405
  2914G12c C00G54120   2.136   1.125   1.148 -0.1006 -0.8487 -0.8853
  2914G12c C00E54121   1.914   1.223   1.099 -1.1958 -0.6278 -0.4400
  2914G12c O00A54122   1.802   1.268   1.123 -0.7864 -0.9197  1.4676
  2914G12c C02454123   1.786   1.414   1.147  0.3478 -0.3202 -1.5150
  2914G12c H00V54124   1.722   1.437   1.061 -5.0146 -6.6446  0.3099
  2914G12c H00U54125   1.883   1.454   1.174 -1.1428  0.0825  3.7516
  2914G12c H00T54126   1.757   1.451   1.245  3.1468  3.0267 -1.8645
  2924G12c C00D54127   4.392  11.108   1.948 -0.8476  0.3646 -0.5319
  2924G12c O00B54128   4.310  11.055   2.043 -0.2183 -1.6503 -1.3068
  2924G12c C02554129   4.192  10.986   2.008  0.3882 -0.0189 -0.2344
  2924G12c C02654130   4.215  10.870   1.917 -0.3506  0.4880  1.5916
  2924G12c H00Y54131   4.183  10.876   1.813  6.5434 -1.6174 -0.9214
  2924G12c H00X54132   4.156  10.790   1.962 -1.8574 -1.2022 -3.0975
  2924G12c O00C54133   4.355  10.821   1.894 -0.7361 -0.9316 -0.1987
  2924G12c H00W54134   4.404  10.853   1.969 -5.0487 -1.2904  2.9880
  2924G12c C02754135   4.084  11.026   2.080  0.4622 -0.2633 -0.0191
  2924G12c O00D54136   4.105  11.127   2.177  0.1822 -0.3281 -0.5425
  2924G12c H00Z54137   4.168  11.182   2.134 -2.0441  2.4226 -0.4113
  2924G12c C02854138   3.941  10.972   2.090 -0.2447 -0.9055 -0.5001
  2924G12c C02954139   3.881  10.865   2.013  0.5399  1.6251 -0.0402
  2924G12c H01054140   3.941  10.794   1.957  5.8974  2.9293  3.6286
  2924G12c C02T54141   3.742  10.823   2.006 -0.1237 -0.8079 -0.1945
  2924G12c H01O54142   3.726  10.740   1.938 -4.3476  0.7472 -1.2870
  2924G12c C02S54143   3.649  10.884   2.096 -0.5880  1.8233 -0.6131
  2924G12c O00J54144   3.511  10.867   2.097  0.1005 -0.3217  0.9031
  2924G12c H01P54145   3.485  10.859   2.006  2.5988 -1.2979  0.2115
  2924G12c C02R54146   3.702  10.959   2.200 -1.1661 -0.0101  1.2011
  2924G12c O00I54147   3.606  11.027   2.276  0.9282  1.7887 -0.9196
  2924G12c C02Q54148   3.673  11.031   2.411 -1.1651 -0.6103  0.6003
  2924G12c H01N54149   3.603  11.098   2.460  0.8509  1.5291  0.6239
  2924G12c H01R54150   3.761  11.093   2.428 -3.9472  3.5173  0.7656
  2924G12c H01Q54151   3.666  10.931   2.453 -5.8023  0.7527  3.3779
  2924G12c C02A54152   3.849  11.020   2.183 -0.6667 -0.6416  0.0559
  2924G12c H01154153   3.846  11.119   2.225  2.7592 -3.4935  7.9540
  2924G12c C00C54154   4.512  11.060   1.930  0.1196 -0.2004 -0.3808
  2924G12c H01254155   4.560  10.976   1.979 -3.9922 -4.6400 -3.5611
  2924G12c C00B54156   4.579  11.057   1.799  0.0257 -0.7986 -0.1134
  2924G12c C00A54157   4.699  10.976   1.772  0.2758 -1.2540  1.8825
  2924G12c C00954158   4.789  10.888   1.856  0.3924  0.9011  0.0437
  2924G12c C00854159   4.793  10.846   1.999 -1.2580  0.9184  0.8572
  2924G12c H01354160   4.716  10.828   2.072 -0.9516  7.1892  2.9699
  2924G12c C00754161   4.925  10.826   2.060  0.6271  0.5970 -0.8346
  2924G12c H01454162   4.915  10.804   2.166  3.0378 -1.1615 -0.9370
  2924G12c C00654163   5.043  10.842   1.981  0.4440 -0.5934  1.4494
  2924G12c C00554164   5.028  10.870   1.842  0.5655  0.7164 -0.1376
  2924G12c C00454165   5.145  10.904   1.773 -0.8141  0.3621  1.1522
  2924G12c C00354166   5.115  10.968   1.652 -0.7928 -0.7032 -0.0894
  2924G12c C00254167   5.237  11.026   1.591  0.5652  0.0516  1.0334
  2924G12c C00154168   5.270  11.081   1.464  0.4802  0.4425 -0.5404
  2924G12c C00M54169   5.201  11.193   1.402  0.1039  2.0420  0.7859
  2924G12c C00L54170   5.062  11.174   1.381  0.2105 -1.2072 -0.9108
  2924G12c C00R54171   4.969  11.288   1.364  0.1241 -0.6808 -0.0136
  2924G12c C00Q54172   4.983  11.428   1.334 -0.3313 -1.5624  1.5624
  2924G12c C00V54173   4.863  11.508   1.322 -1.5631  0.4005 -0.6875
  2924G12c C00U54174   4.751  11.473   1.385  0.3622 -0.0089  0.5141
  2924G12c C00T54175   4.742  11.351   1.436 -0.7343 -0.0602 -0.3960
  2924G12c C01654176   4.651  11.316   1.536  0.2916 -0.2374  1.4059
  2924G12c C01554177   4.545  11.408   1.565  2.3175 -0.7954 -0.5867
  2924G12c C01054178   4.542  11.532   1.501 -0.8117 -1.1076  0.2803
  2924G12c C01154179   4.419  11.607   1.522 -0.6585 -0.0982  1.1454
  2924G12c H00554180   4.408  11.682   1.444  0.1962 -2.6807 -1.5484
  2924G12c C01254181   4.319  11.583   1.599 -1.8660 -0.2557 -0.8173
  2924G12c C01754182   4.196  11.660   1.584 -1.2370 -1.7845 -0.9928
  2924G12c O00254183   4.081  11.600   1.536 -0.3403 -1.2333 -0.5495
  2924G12c H00454184   4.098  11.509   1.520  7.2391 -0.2158 -0.5080
  2924G12c C01854185   4.166  11.786   1.635 -1.5744 -0.6401  1.2497
  2924G12c O00154186   4.047  11.841   1.617  0.0262  0.4470 -0.8685
  2924G12c H00354187   3.963  11.809   1.645  1.5256 -0.8141  2.3762
  2924G12c C01954188   4.268  11.899   1.673 -1.5298 -0.2460 -0.7624
  2924G12c H00254189   4.205  11.988   1.672  5.1306  4.9547  3.0068
  2924G12c H00154190   4.280  11.945   1.771  0.6766  2.5772 -2.2913
  2924G12c O00054191   4.352  11.955   1.565  0.7942  0.0510  0.4180
  2924G12c C01A54192   4.464  12.008   1.601  0.1264 -0.7125  0.3111
  2924G12c C02K54193   4.510  12.102   1.495  0.1624  1.3856 -1.2310
  2924G12c O00G54194   4.434  12.141   1.387 -0.6859 -1.1073  0.2750
  2924G12c C02M54195   4.495  12.191   1.264  0.2718  0.4270 -0.9937
  2924G12c H01G54196   4.408  12.231   1.213 -1.8835 -4.8598 -1.8554
  2924G12c H01F54197   4.492  12.107   1.194  0.0117  2.3861 -3.3986
  2924G12c H01E54198   4.589  12.245   1.271 -0.6014  1.9530 -0.9793
  2924G12c C02J54199   4.627  12.184   1.517 -1.1839  1.2215  1.1063
  2924G12c H01H54200   4.674  12.241   1.439  0.8453  2.0006  2.8678
  2924G12c C02I54201   4.703  12.165   1.636 -1.9137 -0.8641 -1.3792
  2924G12c C02N54202   4.828  12.240   1.676 -0.7622 -0.3374 -1.1416
  2924G12c H01M54203   4.930  12.205   1.687 -0.1566  2.6531  4.5594
  2924G12c C02O54204   4.815  12.377   1.667 -0.1338  1.4836  0.9952
  2924G12c H01L54205   4.732  12.433   1.628 -1.1882  0.6314  1.9931
  2924G12c C02P54206   4.928  12.464   1.700 -0.2285  0.1605 -0.1723
  2924G12c H01K54207   4.975  12.528   1.626  0.4712 -1.7557 -1.4266
  2924G12c H01J54208   4.879  12.544   1.755 -0.1758 -0.0005  0.1129
  2924G12c O00H54209   5.056  12.424   1.767 -1.8338  2.6180  0.3994
  2924G12c H01I54210   5.108  12.424   1.689 -0.0593  2.2877  1.5434
  2924G12c C02H54211   4.649  12.063   1.727  0.3311 -1.7179  0.1157
  2924G12c H01C54212   4.693  12.048   1.824 -5.6328  0.9380  3.5193
  2924G12c C02L54213   4.537  11.988   1.710 -1.5066  0.1028  0.3870
  2924G12c H01D54214   4.494  11.930   1.790 -4.0269 -0.5313 -1.3614
  2924G12c C01354215   4.335  11.458   1.665 -1.0440 -1.0948  0.1954
  2924G12c H00054216   4.237  11.421   1.693 -1.6606 -2.3139 -3.2898
  2924G12c C01454217   4.439  11.369   1.656 -0.5810  0.4300  2.7494
  2924G12c C00F54218   4.458  11.258   1.748 -1.0430 -0.5343 -0.7338
  2924G12c C00H54219   4.654  11.185   1.601 -0.2209  0.9722  0.4070
  2924G12c C00I54220   4.753  11.086   1.562  1.7578 -1.3778  0.4115
  2924G12c C00J54221   4.842  11.135   1.465  0.3673  1.1802  1.5316
  2924G12c C00Z54222   4.651  11.562   1.411  1.7002  1.0005 -0.9997
  2924G12c C00Y54223   4.645  11.685   1.343  0.8006  1.2169  0.9983
  2924G12c H00654224   4.576  11.763   1.371 -2.2103 -2.1522  3.6193
  2924G12c C00X54225   4.749  11.715   1.249  0.0555  1.2362 -0.8309
  2924G12c O00354226   4.758  11.845   1.215  0.5639  0.4252 -1.1833
  2924G12c C01B54227   4.828  11.896   1.099  0.7151 -1.2890  0.3378
  2924G12c H00954228   4.917  11.951   1.130  0.1269 -1.1631  1.8620
  2924G12c H00854229   4.757  11.969   1.061  2.2050 -0.5656 -1.0919
  2924G12c H00754230   4.851  11.818   1.027  4.3547 -4.5924  4.7933
  2924G12c C00W54231   4.864  11.635   1.267  1.6333  0.7266  0.2810
  2924G12c O00454232   4.975  11.689   1.233 -0.1621  0.0930  0.6802
  2924G12c C01C54233   5.107  11.643   1.273  2.1547  0.0851 -1.2331
  2924G12c H00A54234   5.189  11.694   1.224  5.5245 -0.0064  4.0156
  2924G12c C00P54235   5.106  11.513   1.338  0.1694  1.7441  0.6711
  2924G12c C00O54236   5.231  11.455   1.386 -0.4497 -0.9953  0.9292
  2924G12c C01D54237   5.346  11.543   1.410 -1.0212 -0.9193 -0.1977
  2924G12c H00S54238   5.332  11.647   1.384  4.1726 -1.0768 -4.2975
  2924G12c C01E54239   5.480  11.495   1.468  0.5791  0.9197  0.9450
  2924G12c O00854240   5.572  11.579   1.512 -0.7166 -2.6927 -0.6266
  2924G12c C01V54241   5.534  11.718   1.534  2.7719  1.8674 -0.4556
  2924G12c C01Z54242   5.555  11.803   1.418 -0.2369 -0.4153 -1.0850
  2924G12c H00R54243   5.608  11.887   1.462  1.1316  0.6496 -4.5597
  2924G12c H00Q54244   5.616  11.749   1.345  3.7456 -2.9251  3.7889
  2924G12c O00954245   5.440  11.867   1.387 -0.1611  0.3353  1.3038
  2924G12c H00P54246   5.445  11.956   1.417 -3.3645 -0.6231  5.1906
  2924G12c C01W54247   5.463  11.758   1.641 -1.8133  0.0096  0.7876
  2924G12c H00O54248   5.443  11.864   1.649  3.4776  1.2538 -0.1422
  2924G12c C01X54249   5.413  11.653   1.748 -0.0624 -1.4055  0.4750
  2924G12c H00N54250   5.400  11.563   1.688  5.1993  0.4122 -3.8778
  2924G12c H00M54251   5.498  11.636   1.815  3.2138  4.2122 -1.8703
  2924G12c C01Y54252   5.319  11.666   1.855 -0.9620  0.3049 -1.8116
  2924G12c C02D54253   5.299  11.792   1.920  0.2701  1.7721 -0.3206
  2924G12c H01954254   5.363  11.879   1.910  1.3423  0.7959 -2.1743
  2924G12c C02C54255   5.196  11.827   2.006 -0.1418  1.7677  0.3945
  2924G12c H01A54256   5.180  11.921   2.056  0.4120  0.1698  3.7422
  2924G12c C02B54257   5.167  11.706   2.085  0.0578 -0.8997  0.8602
  2924G12c O00E54258   5.054  11.722   2.172  0.0233 -0.7871 -1.2108
  2924G12c H01B54259   5.038  11.632   2.196 -1.7020  0.3036  2.1470
  2924G12c C02F54260   5.209  11.579   2.061 -0.8643  0.3912  0.9937
  2924G12c O00F54261   5.172  11.477   2.135 -0.1659  0.5603 -0.5827
  2924G12c C02G54262   5.286  11.415   2.194  0.2645 -1.3310  1.1998
  2924G12c H01754263   5.386  11.422   2.150 -2.4260 -1.7671 -5.7044
  2924G12c H01654264   5.292  11.308   2.173  3.4076 -1.0729  0.4943
  2924G12c H01554265   5.284  11.413   2.303  7.3208 -1.1515  1.5816
  2924G12c C02E54266   5.275  11.550   1.933  0.8053 -0.2281 -0.8355
  2924G12c H01854267   5.318  11.451   1.923 -2.2063 -2.3335  4.5786
  2924G12c C01F54268   5.473  11.374   1.521  0.0302  1.9174  1.3277
  2924G12c C01G54269   5.566  11.325   1.624  2.0304 -1.8693  0.7746
  2924G12c H00L54270   5.622  11.388   1.692 -0.6551 -2.4407  3.6539
  2924G12c C01H54271   5.543  11.196   1.676  1.7191  1.3788  0.1305
  2924G12c H00B54272   5.586  11.182   1.775  2.5149  3.1692  0.0563
  2924G12c C01I54273   5.449  11.112   1.609  0.5391  1.1282  0.3612
  2924G12c C01U54274   5.394  11.277   1.448 -1.0060  0.4672 -1.0526
  2924G12c C00S54275   4.846  11.263   1.414 -0.0864  1.2283 -0.9763
  2924G12c C00K54276   4.981  11.082   1.468 -0.8409 -0.0399 -0.7578
  2924G12c C00N54277   5.260  11.322   1.413 -0.6173  1.3311 -0.1146
  2924G12c C00054278   5.398  11.140   1.476 -0.5104  0.3235 -1.8728
  2924G12c C01J54279   5.361  11.015   1.662  0.6853  0.0366  1.5091
  2924G12c C01K54280   5.389  10.920   1.771 -0.9265  0.4482  0.1184
  2924G12c C01P54281   5.523  10.907   1.834  1.7156  0.9760  0.0045
  2924G12c C01Q54282   5.650  10.918   1.765 -0.6726  0.2779 -0.1762
  2924G12c H00G54283   5.703  11.012   1.779  0.7032 -0.3940 -0.7449
  2924G12c C01R54284   5.675  10.850   1.666  0.7885  0.6922  0.8594
  2924G12c H00F54285   5.629  10.755   1.642  0.1872  1.7194 -2.2323
  2924G12c C01S54286   5.793  10.860   1.566 -1.0881  0.6758 -0.4790
  2924G12c H00E54287   5.882  10.841   1.626 -2.2174  0.1224  1.0577
  2924G12c H00D54288   5.799  10.786   1.487  2.3949  1.7537 -1.3104
  2924G12c O00554289   5.768  10.999   1.495  0.0342  0.2489  1.0630
  2924G12c H00C54290   5.674  11.003   1.500 -0.1339  5.4011 -2.3821
  2924G12c C01O54291   5.507  10.874   1.980 -0.6493 -0.5176 -0.3047
  2924G12c H00H54292   5.611  10.862   2.007 -0.8121  2.4525  1.9784
  2924G12c C01N54293   5.385  10.834   2.041  0.2492  0.3107  0.5526
  2924G12c O00654294   5.405  10.817   2.167 -0.1927  0.3008 -1.1430
  2924G12c C01T54295   5.335  10.705   2.202  1.0053  0.5166  0.7391
  2924G12c H00K54296   5.268  10.651   2.135  0.2016  2.4495 -0.0372
  2924G12c H00J54297   5.274  10.730   2.288 -0.4305 -1.9257  0.4943
  2924G12c H00I54298   5.404  10.629   2.238  2.2677  1.3500  0.1095
  2924G12c C01M54299   5.274  10.823   1.961  0.5651  0.3012  0.7637
  2924G12c C02054300   4.990  10.986   1.584  1.1504  0.8848 -1.0578
  2924G12c C02154301   4.890  10.925   1.658  0.3908  2.6119  0.0611
  2924G12c C01L54302   5.262  10.877   1.829 -1.3499 -0.7571 -0.0550
  2924G12c O00754303   5.159  10.806   2.046 -0.0772 -1.0018 -0.7244
  2924G12c C02254304   4.904  10.856   1.787 -0.9809  0.5871 -0.2055
  2924G12c C02354305   4.754  10.969   1.633  0.6371  0.4205 -0.8616
  2924G12c C00G54306   4.564  11.167   1.704 -0.5394  0.6282 -0.0167
  2924G12c C00E54307   4.371  11.216   1.858 -1.0539  1.7357  2.7621
  2924G12c O00A54308   4.265  11.282   1.896  0.6439  1.1528  1.0183
  2924G12c C02454309   4.266  11.403   1.959  0.5354 -0.0007 -1.8222
  2924G12c H00V54310   4.190  11.480   1.971 -0.5887 -1.5050  1.2418
  2924G12c H00U54311   4.360  11.457   1.947  2.1410 -1.9912  1.1293
  2924G12c H00T54312   4.276  11.348   2.053  0.1757  0.0118 -1.7768
  2934G12c C00D54313  11.440   7.012   3.413  0.7470 -1.0263  0.2771
  2934G12c O00B54314  11.357   7.063   3.311  1.3881  1.4729 -0.7444
  2934G12c C02554315  11.342   7.189   3.273 -0.5978 -0.1811  0.7064
  2934G12c C02654316  11.437   7.289   3.332 -1.1840  0.0329 -0.1316
  2934G12c H00Y54317  11.382   7.382   3.347  4.5447  3.9634 -2.0548
  2934G12c H00X54318  11.494   7.262   3.421  1.5883 -1.8475 -2.4122
  2934G12c O00C54319  11.511   7.351   3.223  1.2317 -1.5229 -0.7439
  2934G12c H00W54320  11.433   7.363   3.171 -3.4610 -0.8815  5.8913
  2934G12c C02754321  11.239   7.222   3.200 -0.0867  0.4681 -0.3804
  2934G12c O00D54322  11.187   7.343   3.190 -1.0073 -0.0319 -1.5241
  2934G12c H00Z54323  11.099   7.343   3.156 -0.6573 -1.9324 -2.4924
  2934G12c C02854324  11.182   7.117   3.111 -0.7209 -0.7948  0.9486
  2934G12c C02954325  11.193   7.152   2.979  0.3065  0.7092 -1.0165
  2934G12c H01054326  11.246   7.233   2.932  2.0609  1.0861  1.5261
  2934G12c C02T54327  11.141   7.059   2.890 -0.4597 -1.0102  1.7344
  2934G12c H01O54328  11.160   7.068   2.784  1.3263  2.2961  2.2704
  2934G12c C02S54329  11.083   6.946   2.936 -0.9973 -0.4733  0.7506
  2934G12c O00J54330  11.042   6.878   2.837  0.2335 -0.6599  0.2463
  2934G12c H01P54331  10.984   6.804   2.829  0.3373 -0.7041 -0.1060
  2934G12c C02R54332  11.057   6.919   3.069  0.8561 -0.0880  0.6167
  2934G12c O00I54333  10.991   6.801   3.111  0.3827 -1.1214  1.5099
  2934G12c C02Q54334  11.086   6.702   3.141  1.2612  0.6693  0.5192
  2934G12c H01N54335  11.148   6.664   3.060 -1.2850 -5.7572  1.2758
  2934G12c H01R54336  11.033   6.607   3.141 -1.5660  2.1576 -2.4186
  2934G12c H01Q54337  11.165   6.731   3.211  4.9082  0.8759 -3.4825
  2934G12c C02A54338  11.104   7.016   3.154  1.4435 -1.4450  0.4959
  2934G12c H01154339  11.087   7.001   3.260  1.3521  2.9246  1.1843
  2934G12c C00C54340  11.557   6.952   3.357 -0.9814  0.9634 -0.4484
  2934G12c H01254341  11.584   6.948   3.253  3.1297 -0.0439  0.5409
  2934G12c C00B54342  11.673   6.929   3.440 -0.8677 -0.2513  0.3467
  2934G12c C00A54343  11.808   6.887   3.399 -0.0752 -0.5171 -0.1707
  2934G12c C00954344  11.841   6.773   3.320 -1.1134 -0.2971  2.9435
  2934G12c C00854345  11.803   6.731   3.184  0.1361  0.8086 -0.7639
  2934G12c H01354346  11.704   6.762   3.155 -1.5678 -0.6918  3.1606
  2934G12c C00754347  11.872   6.617   3.135 -0.3499  0.6923  0.0106
  2934G12c H01454348  11.830   6.584   3.041 -3.8735  3.3279  0.5950
  2934G12c C00654349  11.980   6.557   3.202  1.7846  1.4522  1.3743
  2934G12c C00554350  12.024   6.616   3.309 -0.4415 -1.4933 -0.4894
  2934G12c C00454351  12.116   6.551   3.404 -1.0264 -0.9370  1.1351
  2934G12c C00354352  12.148   6.620   3.528 -0.2528 -1.8724 -1.6430
  2934G12c C00254353  12.226   6.537   3.628 -1.3142 -0.6675 -0.1962
  2934G12c C00154354  12.268   6.568   3.770 -0.8250 -0.9558 -1.5360
  2934G12c C00M54355  12.186   6.624   3.870  0.3053 -2.6436 -0.3740
  2934G12c C00L54356  12.097   6.742   3.831  0.0982  0.6373 -1.2311
  2934G12c C00R54357  12.016   6.818   3.910  0.7408 -0.0597  1.3383
  2934G12c C00Q54358  11.989   6.779   4.050 -1.0551  1.7726  1.8043
  2934G12c C00V54359  11.882   6.850   4.107 -1.5348 -2.2377  1.4634
  2934G12c C00U54360  11.812   6.953   4.020 -0.8250  1.6558 -1.0480
  2934G12c C00T54361  11.824   6.950   3.889 -1.0502  0.2956 -0.5990
  2934G12c C01654362  11.753   7.005   3.796  1.0496 -0.7490 -1.0644
  2934G12c C01554363  11.642   7.080   3.847  1.5851 -0.9469  0.1843
  2934G12c C01054364  11.628   7.098   3.971  0.2495 -0.0916 -0.4996
  2934G12c C01154365  11.541   7.211   4.017 -0.1356 -0.2523  1.4843
  2934G12c H00554366  11.539   7.238   4.122  2.7926  3.1378  0.7531
  2934G12c C01254367  11.465   7.277   3.916 -0.1955  2.2670 -0.7150
  2934G12c C01754368  11.396   7.409   3.946  0.6025 -0.6230  0.6878
  2934G12c O00254369  11.276   7.425   4.001 -0.2827 -0.5605  0.2650
  2934G12c H00454370  11.285   7.514   3.970 -2.9291  1.3622  4.4748
  2934G12c C01854371  11.464   7.528   3.923  0.5599  0.4462 -0.1631
  2934G12c O00154372  11.396   7.638   3.958  0.2101 -1.1752 -1.0226
  2934G12c H00354373  11.457   7.710   3.961 -0.3101 -0.5835 -3.4383
  2934G12c C01954374  11.617   7.534   3.888  0.0405  1.0951  0.9371
  2934G12c H00254375  11.657   7.563   3.985 -2.0643 -5.1679  3.9183
  2934G12c H00154376  11.698   7.462   3.897 -2.2307 -2.5488 -4.6947
  2934G12c O00054377  11.630   7.663   3.823 -0.8997 -0.7388 -0.4773
  2934G12c C01A54378  11.764   7.670   3.765  2.4967  0.7049  2.3904
  2934G12c C02K54379  11.839   7.778   3.823 -0.2930  0.1914  0.6043
  2934G12c O00G54380  11.820   7.803   3.951 -0.9484 -0.9175  0.8905
  2934G12c C02M54381  11.832   7.945   4.006 -0.2484  0.3758  0.1407
  2934G12c H01G54382  11.783   7.963   4.102 -6.4430  4.1806 -3.3950
  2934G12c H01F54383  11.751   8.001   3.959 -4.6663 -5.4373  0.1603
  2934G12c H01E54384  11.936   7.978   4.012  0.0924 -1.0136  2.2817
  2934G12c C02J54385  11.956   7.812   3.741 -0.4286  0.7369 -0.8483
  2934G12c H01H54386  12.015   7.892   3.783  1.9197 -1.9150  1.0721
  2934G12c C02I54387  12.003   7.748   3.636  1.1382  2.5066  1.7116
  2934G12c C02N54388  12.122   7.782   3.563  0.5976  0.7793 -0.3418
  2934G12c H01M54389  12.106   7.810   3.459 -4.2939  0.2685  0.1457
  2934G12c C02O54390  12.241   7.749   3.595  0.3085  1.4560  0.1735
  2934G12c H01L54391  12.298   7.793   3.514  2.5358 -1.5794  0.0149
  2934G12c C02P54392  12.269   7.712   3.732 -0.7397 -0.4891  0.9450
  2934G12c H01K54393  12.369   7.675   3.707  0.4887  2.5062  1.2015
  2934G12c H01J54394  12.299   7.806   3.777 -1.3586  1.9975 -3.5572
  2934G12c O00H54395  12.221   7.582   3.788  2.6768 -1.4390 -0.9146
  2934G12c H01I54396  12.187   7.584   3.877  2.5829 -3.8338 -0.8774
  2934G12c C02H54397  11.940   7.625   3.604 -2.0460  0.7936 -0.8729
  2934G12c H01C54398  11.953   7.574   3.509 -1.8491 -2.7258  0.9470
  2934G12c C02L54399  11.819   7.590   3.664  0.1262 -1.6746 -1.2473
  2934G12c H01D54400  11.763   7.518   3.606  0.2440 -3.3516  0.6675
  2934G12c C01354401  11.448   7.216   3.794 -0.8085  0.5777  1.3438
  2934G12c H00054402  11.393   7.268   3.717 -1.0283 -0.0829  1.0461
  2934G12c C01454403  11.538   7.102   3.760 -1.6719 -1.5249  0.7603
  2934G12c C00F54404  11.541   7.063   3.617  0.4619  0.8998  0.0132
  2934G12c C00H54405  11.769   6.971   3.654 -1.1787  0.1902  0.9842
  2934G12c C00I54406  11.906   6.934   3.621  2.3275 -0.4789  1.5346
  2934G12c C00J54407  12.008   6.933   3.722  0.6729  2.2660 -1.7212
  2934G12c C00Z54408  11.720   7.044   4.063 -0.0795  0.4084 -0.8583
  2934G12c C00Y54409  11.703   7.053   4.197 -0.3786 -1.2936 -0.0097
  2934G12c H00654410  11.639   7.136   4.224 -2.5163 -3.0720  0.5169
  2934G12c C00X54411  11.751   6.956   4.290 -0.7116 -1.3617  0.9285
  2934G12c O00354412  11.697   6.967   4.412 -1.2114  1.9546  1.4121
  2934G12c C01B54413  11.780   6.996   4.507 -1.2226  0.5939  0.2387
  2934G12c H00954414  11.877   6.962   4.473 -3.0033 -6.2314  1.2096
  2934G12c H00854415  11.772   7.104   4.489  1.8186  0.2615 -3.6570
  2934G12c H00754416  11.788   6.966   4.611 -5.8880  2.6137  1.3419
  2934G12c C00W54417  11.844   6.857   4.237 -1.9846 -0.9537 -0.4485
  2934G12c O00454418  11.922   6.783   4.339  0.7421  0.7348 -1.1468
  2934G12c C01C54419  11.974   6.665   4.280 -0.6069 -0.1866 -0.6796
  2934G12c H00A54420  12.051   6.621   4.342  4.6949  5.0305 -3.0721
  2934G12c C00P54421  12.018   6.661   4.139  0.5843 -0.5332  1.2699
  2934G12c C00O54422  12.077   6.539   4.093  0.7184 -0.1379  0.0805
  2934G12c C01D54423  12.077   6.415   4.167 -2.7427 -2.2280  0.6164
  2934G12c H00S54424  12.062   6.412   4.274 -2.5264 -1.1331  0.6880
  2934G12c C01E54425  12.087   6.295   4.114  0.1264 -2.5206  0.3756
  2934G12c O00854426  12.037   6.192   4.168  0.5695 -0.1055 -0.1678
  2934G12c C01V54427  12.109   6.093   4.237 -0.9094  0.9141 -0.8851
  2934G12c C01Z54428  12.146   5.962   4.169 -0.5348 -0.4692 -0.2870
  2934G12c H00R54429  12.255   5.957   4.163 -0.2341  1.3218  2.9681
  2934G12c H00Q54430  12.121   5.881   4.238  1.8981 -2.9189 -2.1709
  2934G12c O00954431  12.054   5.931   4.066 -1.8863 -0.0981 -0.0705
  2934G12c H00P54432  11.971   5.975   4.071 -2.4961 -0.8180 -2.9581
  2934G12c C01W54433  12.102   6.082   4.377  1.5423 -0.7579  0.3362
  2934G12c H00O54434  12.067   6.177   4.416 -0.2853 -2.1195  2.1456
  2934G12c C01X54435  12.132   5.987   4.471  0.7441 -0.9547  0.2551
  2934G12c H00N54436  12.193   5.901   4.444 -1.7021 -3.0518  1.2731
  2934G12c H00M54437  12.180   6.025   4.562  2.9834 -6.7690  1.7104
  2934G12c C01Y54438  11.982   5.926   4.484 -2.3677 -0.2479  0.0837
  2934G12c C02D54439  11.947   5.797   4.433 -0.3657 -1.0187  0.3282
  2934G12c H01954440  12.028   5.731   4.406  1.6764  1.1181  0.9616
  2934G12c C02C54441  11.808   5.759   4.431 -1.2146  1.1018 -0.0624
  2934G12c H01A54442  11.770   5.665   4.394  1.2236  1.2337 -3.1559
  2934G12c C02B54443  11.719   5.835   4.491 -1.4504 -0.9851 -0.8713
  2934G12c O00E54444  11.596   5.801   4.483  3.1092 -0.5933 -0.5898
  2934G12c H01B54445  11.565   5.818   4.570  1.9375 -4.0029 -0.2625
  2934G12c C02F54446  11.754   5.961   4.554 -0.3355  0.3974 -1.7470
  2934G12c O00F54447  11.642   6.048   4.550 -0.0748  0.0820 -0.2678
  2934G12c C02G54448  11.646   6.175   4.475 -1.2082 -0.0083  0.9818
  2934G12c H01754449  11.648   6.132   4.375  2.2493 -4.8929  2.9751
  2934G12c H01654450  11.729   6.240   4.502 -3.6455  2.5329  2.6671
  2934G12c H01554451  11.545   6.212   4.494 -1.0838  0.4979  0.6686
  2934G12c C02E54452  11.876   6.009   4.546 -2.0302  0.8769 -0.7964
  2934G12c H01854453  11.906   6.111   4.565 -0.8492  1.8571 -6.7325
  2934G12c C01F54454  12.157   6.297   3.991 -0.8116  0.9924  0.3955
  2934G12c C01G54455  12.156   6.191   3.898 -3.0068 -1.8072 -1.4524
  2934G12c H00L54456  12.085   6.112   3.920 -2.0137 -1.5633  3.0027
  2934G12c C01H54457  12.191   6.210   3.752  2.3661 -0.9726 -0.6823
  2934G12c H00B54458  12.140   6.139   3.688  0.6286 -3.2049  2.9843
  2934G12c C01I54459  12.237   6.332   3.717 -0.0623  1.0235  0.2043
  2934G12c C01U54460  12.217   6.411   3.930 -0.1970 -1.2900 -1.3118
  2934G12c C00S54461  11.961   6.934   3.852 -1.5776  0.2974  0.1865
  2934G12c C00K54462  12.083   6.803   3.701  0.7465 -0.9824  0.0997
  2934G12c C00N54463  12.152   6.533   3.968  0.2203  0.4022 -0.6721
  2934G12c C00054464  12.280   6.429   3.804 -2.3034  0.2003  0.8424
  2934G12c C01J54465  12.237   6.394   3.588  0.4164  0.5411  1.5619
  2934G12c C01K54466  12.229   6.338   3.466  0.3293 -1.1974  0.5701
  2934G12c C01P54467  12.280   6.217   3.410  1.1269 -0.3695 -0.5568
  2934G12c C01Q54468  12.360   6.132   3.499  1.1304 -1.7185 -1.1666
  2934G12c H00G54469  12.377   6.166   3.599  3.7217 -3.6949 -0.8743
  2934G12c C01R54470  12.442   6.039   3.472 -0.9067 -0.2825 -0.8063
  2934G12c H00F54471  12.458   5.992   3.376  2.7277  1.9083 -1.3581
  2934G12c C01S54472  12.493   5.964   3.583  0.9666 -0.7324  0.7116
  2934G12c H00E54473  12.485   6.029   3.670 -4.0438  0.0323 -0.1489
  2934G12c H00D54474  12.391   5.924   3.584 -1.0901  4.0420 -0.8630
  2934G12c O00554475  12.622   5.924   3.556 -0.9721  1.0182  0.9395
  2934G12c H00C54476  12.670   5.959   3.629 -4.6053  1.7874  3.1012
  2934G12c C01O54477  12.224   6.168   3.296  0.6084  0.0944 -0.4549
  2934G12c H00H54478  12.247   6.068   3.262  0.9687  1.5622 -4.8996
  2934G12c C01N54479  12.130   6.233   3.217  0.3399 -0.3828  0.5918
  2934G12c O00654480  12.123   6.186   3.090  1.7226 -1.1489 -0.1921
  2934G12c C01T54481  12.182   6.248   2.996  0.9404  0.3289  0.5940
  2934G12c H00K54482  12.138   6.243   2.897 -1.6070  5.6916  1.2819
  2934G12c H00J54483  12.274   6.191   3.010  1.6803  2.1083  3.3095
  2934G12c H00I54484  12.187   6.355   3.012 -6.6889  0.4448  4.2624
  2934G12c C01M54485  12.110   6.372   3.239  2.8936 -0.5491 -0.7889
  2934G12c C02054486  12.108   6.762   3.565 -0.1004  0.7029 -0.4598
  2934G12c C02154487  12.035   6.818   3.466 -0.4380  0.7623 -1.7406
  2934G12c C01L54488  12.156   6.418   3.365 -0.5051  0.6211 -1.3261
  2934G12c O00754489  12.028   6.435   3.148 -0.7377  1.1496  1.0843
  2934G12c C02254490  11.986   6.739   3.357 -1.0275 -0.5439  0.8324
  2934G12c C02354491  11.917   6.896   3.486 -1.1552  0.4267  0.9578
  2934G12c C00G54492  11.658   6.989   3.567 -0.8419  0.3911  2.6301
  2934G12c C00E54493  11.422   7.047   3.545  0.3129  0.7967 -0.1284
  2934G12c O00A54494  11.309   7.028   3.614  0.8310  0.0412 -0.7962
  2934G12c C02454495  11.227   6.919   3.570 -2.2357 -0.1751 -0.2070
  2934G12c H00V54496  11.132   6.918   3.624 -2.7937  6.2626 -0.7051
  2934G12c H00U54497  11.302   6.840   3.577  0.1937  2.2538  2.3632
  2934G12c H00T54498  11.209   6.914   3.463 -1.3466 -0.8235 -0.3316
  2944G12c C00D54499   3.617   8.609   4.460  0.0613 -0.3092 -0.9445
  2944G12c O00B54500   3.547   8.590   4.570 -0.4670 -0.1993  0.5648
  2944G12c C02554501   3.410   8.572   4.571  0.1251  1.0892  1.4314
  2944G12c C02654502   3.399   8.409   4.590 -1.4032 -1.7785 -0.0964
  2944G12c H00Y54503   3.487   8.387   4.530  1.0520 -4.7626  4.3398
  2944G12c H00X54504   3.305   8.353   4.584  1.3642 -6.8578  1.4272
  2944G12c O00C54505   3.469   8.374   4.716 -0.4050 -0.4212  0.0739
  2944G12c H00W54506   3.537   8.438   4.727  3.4722 -3.5914 -3.7387
  2944G12c C02754507   3.310   8.670   4.553  0.2822  1.3327  0.6935
  2944G12c O00D54508   3.338   8.806   4.509 -0.7538 -0.0710  1.5285
  2944G12c H00Z54509   3.432   8.811   4.500 -1.2569  1.0571 -8.0575
  2944G12c C02854510   3.178   8.609   4.525  0.4236 -0.7533  1.0813
  2944G12c C02954511   3.125   8.598   4.393 -0.0742  0.1280 -0.6853
  2944G12c H01054512   3.170   8.669   4.324 -5.7770  5.9759  1.0963
  2944G12c C02T54513   3.015   8.529   4.361  0.7489  0.3398  0.5944
  2944G12c H01O54514   3.021   8.488   4.261 -3.1345  6.0375 -2.2188
  2944G12c C02S54515   2.922   8.496   4.470 -1.2707 -1.3013 -1.3773
  2944G12c O00J54516   2.821   8.406   4.454 -0.0296  0.0570  1.4291
  2944G12c H01P54517   2.832   8.349   4.380  3.8692 -1.7147  3.2459
  2944G12c C02R54518   2.950   8.536   4.593 -1.4009 -1.3021 -0.6480
  2944G12c O00I54519   2.871   8.518   4.690 -0.9030  0.2237 -0.3767
  2944G12c C02Q54520   2.884   8.624   4.790  0.1664 -1.2758  0.9209
  2944G12c H01N54521   2.919   8.712   4.738  6.9103 -2.2230  3.2738
  2944G12c H01R54522   2.968   8.624   4.861  2.1447 -0.5458 -1.3650
  2944G12c H01Q54523   2.795   8.643   4.849 -1.5270 -4.8955 -0.3189
  2944G12c C02A54524   3.079   8.594   4.615  0.8272  3.4172  1.0676
  2944G12c H01154525   3.103   8.635   4.712 -3.6604  0.0959  3.8005
  2944G12c C00C54526   3.544   8.563   4.343 -0.1908 -0.8704 -1.0215
  2944G12c H01254527   3.446   8.521   4.329 -1.9638  0.8688  5.0147
  2944G12c C00B54528   3.601   8.578   4.212 -0.0496 -0.4724  1.5797
  2944G12c C00A54529   3.525   8.538   4.098 -1.2901 -1.3657  0.6488
  2944G12c C00954530   3.408   8.468   4.052 -0.1824 -1.4973  0.8284
  2944G12c C00854531   3.317   8.387   4.129  0.8288  1.3336  0.1507
  2944G12c H01354532   3.291   8.409   4.232  3.4277  1.8347  0.7177
  2944G12c C00754533   3.220   8.301   4.062  0.8782  1.6289  2.4789
  2944G12c H01454534   3.133   8.240   4.084  0.0911  1.9317  0.3530
  2944G12c C00654535   3.243   8.292   3.917 -1.2780  0.0370  0.5448
  2944G12c C00554536   3.365   8.325   3.875 -1.5300  0.7513  1.2667
  2944G12c C00454537   3.422   8.275   3.751  1.0981  0.3059 -0.2844
  2944G12c C00354538   3.539   8.330   3.705  0.2617 -0.7528 -2.0886
  2944G12c C00254539   3.600   8.244   3.605  0.8130  2.0941  0.4099
  2944G12c C00154540   3.726   8.245   3.542  0.4423  0.9472 -1.1434
  2944G12c C00M54541   3.846   8.316   3.576 -0.0146  0.2330  0.6236
  2944G12c C00L54542   3.857   8.439   3.654 -0.1297 -0.5288  1.6556
  2944G12c C00R54543   3.969   8.466   3.735 -0.4924  0.5581  0.2849
  2944G12c C00Q54544   4.115   8.435   3.735  0.2875  0.4257 -0.5496
  2944G12c C00V54545   4.193   8.496   3.827 -0.3483 -0.3156  0.0022
  2944G12c C00U54546   4.140   8.587   3.930 -1.0452  0.8240 -2.2587
  2944G12c C00T54547   4.000   8.604   3.935  0.0817 -0.4296  0.3056
  2944G12c C01654548   3.935   8.624   4.063  0.8617 -0.9651  1.0148
  2944G12c C01554549   4.009   8.638   4.172  1.7925  1.3429  0.9489
  2944G12c C01054550   4.148   8.648   4.152 -0.8500 -0.1415 -0.1172
  2944G12c C01154551   4.216   8.667   4.268 -0.1145 -1.7363  1.0299
  2944G12c H00554552   4.324   8.665   4.263 -0.1315 -1.2449  0.4109
  2944G12c C01254553   4.161   8.740   4.385 -2.1897  1.6351  0.7833
  2944G12c C01754554   4.249   8.789   4.496 -0.8676  0.4327  1.4915
  2944G12c O00254555   4.338   8.698   4.528  0.2358 -0.2996 -1.0663
  2944G12c H00454556   4.359   8.715   4.619 -2.6166 -0.3694 -0.3195
  2944G12c C01854557   4.232   8.907   4.538  0.4050 -0.0447  1.1437
  2944G12c O00154558   4.308   8.973   4.626  1.1865 -1.0259  1.2231
  2944G12c H00354559   4.248   9.045   4.637 -2.7068 -2.1786 -7.8609
  2944G12c C01954560   4.134   9.012   4.477 -0.8338 -0.0442 -0.4662
  2944G12c H00254561   4.171   9.066   4.390 -5.4921  2.7795 -0.8897
  2944G12c H00154562   4.031   8.976   4.471 -3.5489  5.9972  3.4175
  2944G12c O00054563   4.107   9.094   4.597  0.8506 -0.5030  0.8588
  2944G12c C01A54564   3.989   9.165   4.594  0.6645 -1.9710  0.7901
  2944G12c C02K54565   3.938   9.234   4.714 -0.9246 -2.7634 -0.3641
  2944G12c O00G54566   3.983   9.229   4.839 -0.7987  1.1539  1.7447
  2944G12c C02M54567   4.060   9.120   4.865  1.5111 -1.5769  0.8557
  2944G12c H01G54568   4.135   9.125   4.787 -4.9673  3.3788 -5.6647
  2944G12c H01F54569   4.041   9.015   4.845  2.1933 -1.9657  2.1636
  2944G12c H01E54570   4.105   9.140   4.962 -3.3654 -0.8932  3.1635
  2944G12c C02J54571   3.818   9.308   4.704  0.4287  0.7661  1.1913
  2944G12c H01H54572   3.759   9.363   4.776  0.8006  0.8263  1.4550
  2944G12c C02I54573   3.757   9.319   4.580  3.4645 -0.3430 -0.4016
  2944G12c C02N54574   3.617   9.382   4.564 -2.2009 -1.6774 -1.4978
  2944G12c H01M54575   3.592   9.475   4.514 -4.9763 -3.7929 -4.2461
  2944G12c C02O54576   3.503   9.324   4.632  0.3187  1.3506  1.1232
  2944G12c H01L54577   3.420   9.393   4.631  2.3853  3.9301  1.0598
  2944G12c C02P54578   3.481   9.185   4.690  0.2228  0.3166 -0.8557
  2944G12c H01K54579   3.395   9.123   4.664 -1.7975  3.6190 -2.3820
  2944G12c H01J54580   3.545   9.111   4.641  1.6468  0.3110  0.9612
  2944G12c O00H54581   3.508   9.184   4.840  0.4080  0.7933 -0.2125
  2944G12c H01I54582   3.540   9.095   4.838  6.0019  2.5661 -3.9805
  2944G12c C02H54583   3.811   9.266   4.458  2.0168  2.5641 -2.2174
  2944G12c H01C54584   3.760   9.316   4.377  0.1002  0.9700 -2.0226
  2944G12c C02L54585   3.940   9.198   4.465 -2.1575  2.7945  1.2678
  2944G12c H01D54586   3.995   9.204   4.372  0.0261  6.2548  2.6808
  2944G12c C01354587   4.029   8.711   4.393 -0.7463  0.5410  1.5894
  2944G12c H00054588   4.009   8.721   4.499 -2.6000 -7.2343  2.2708
  2944G12c C01454589   3.949   8.671   4.289  1.6040  1.5979  0.0005
  2944G12c C00F54590   3.808   8.656   4.302 -0.9760 -0.2257 -1.9001
  2944G12c C00H54591   3.795   8.623   4.069  0.2517  1.1055 -1.8235
  2944G12c C00I54592   3.726   8.581   3.957  1.7967  1.5198 -0.7667
  2944G12c C00J54593   3.800   8.567   3.836  2.0470  0.3530 -1.5780
  2944G12c C00Z54594   4.225   8.623   4.036 -1.3809  0.6499  0.3852
  2944G12c C00Y54595   4.366   8.623   4.029  0.1033  0.4807 -0.6511
  2944G12c H00654596   4.438   8.656   4.103 -0.7649 -4.5350  2.7861
  2944G12c C00X54597   4.420   8.542   3.926  1.8271  0.2908 -0.6848
  2944G12c O00354598   4.545   8.544   3.926 -0.0688  0.2830  0.9538
  2944G12c C01B54599   4.609   8.581   3.807  1.7054 -0.8441 -0.9445
  2944G12c H00954600   4.534   8.638   3.752 -0.9274 -8.4939 -6.0297
  2944G12c H00854601   4.710   8.601   3.844  1.2809 -0.3570 -0.0353
  2944G12c H00754602   4.652   8.492   3.762  4.0223 -0.8192  1.1050
  2944G12c C00W54603   4.331   8.451   3.846 -0.1429  0.6267 -0.2103
  2944G12c O00454604   4.387   8.337   3.781 -1.3222 -0.6979  1.6572
  2944G12c C01C54605   4.319   8.323   3.653  1.7398 -0.8359  0.3192
  2944G12c H00A54606   4.355   8.236   3.598 -4.9800 -5.1101  2.1361
  2944G12c C00P54607   4.169   8.323   3.662 -0.3304 -1.3216 -0.2907
  2944G12c C00O54608   4.098   8.212   3.621 -0.9672 -1.8934 -0.7137
  2944G12c C01D54609   4.152   8.078   3.647  0.5355 -0.1712  2.0236
  2944G12c H00S54610   4.249   8.056   3.689 -0.6063 -0.4266  4.6303
  2944G12c C01E54611   4.069   7.964   3.646  0.0853 -2.0675 -1.0900
  2944G12c O00854612   4.132   7.849   3.711 -0.3419  0.4116  1.0916
  2944G12c C01V54613   4.100   7.819   3.842 -1.8691  0.8791 -0.5235
  2944G12c C01Z54614   4.147   7.688   3.876  0.6494 -0.1561 -0.7741
  2944G12c H00R54615   4.104   7.647   3.968  1.3416 -3.6999 -1.9447
  2944G12c H00Q54616   4.095   7.619   3.810  6.3323 -3.6332 -1.9757
  2944G12c O00954617   4.294   7.704   3.850 -0.5891  1.0419 -0.3361
  2944G12c H00P54618   4.342   7.623   3.858  0.7045  2.0840  3.2746
  2944G12c C01W54619   4.063   7.926   3.927  0.3111  2.4787 -0.3351
  2944G12c H00O54620   4.028   8.024   3.897 -2.4085  1.0272 -2.1085
  2944G12c C01X54621   4.055   7.903   4.080  1.1094  0.5055 -0.1064
  2944G12c H00N54622   4.149   7.849   4.090 -1.3389 -3.5515  2.4085
  2944G12c H00M54623   4.055   8.008   4.107 -4.3882  0.9550 -1.3456
  2944G12c C01Y54624   3.928   7.820   4.130 -0.8601 -0.5164  0.3069
  2944G12c C02D54625   3.942   7.715   4.221 -1.0726 -0.3483 -0.6013
  2944G12c H01954626   4.040   7.714   4.266 -0.6589 -2.1771 -1.5149
  2944G12c C02C54627   3.831   7.628   4.248 -0.7495 -0.0266 -1.6591
  2944G12c H01A54628   3.870   7.533   4.283 -3.4155  1.7334  7.6087
  2944G12c C02B54629   3.711   7.621   4.185  0.4830  0.2014 -0.2272
  2944G12c O00E54630   3.597   7.532   4.211 -1.5009 -0.6196  0.5455
  2944G12c H01B54631   3.554   7.576   4.138  2.6418  2.3952 -0.2927
  2944G12c C02F54632   3.693   7.731   4.082 -0.3762 -0.9578  0.1631
  2944G12c O00F54633   3.578   7.765   4.002  0.5821 -0.0220 -0.6487
  2944G12c C02G54634   3.568   7.852   3.899  1.9654 -1.1612 -0.1666
  2944G12c H01754635   3.470   7.837   3.853 -0.5799  2.4173  3.7673
  2944G12c H01654636   3.652   7.861   3.830  0.6448  3.5138 -1.3212
  2944G12c H01554637   3.560   7.948   3.950 -3.1438 -1.7580  0.4514
  2944G12c C02E54638   3.798   7.820   4.057 -0.2256 -0.7068 -0.1582
  2944G12c H01854639   3.796   7.890   3.976  8.9153 -2.0248 -2.1238
  2944G12c C01F54640   3.934   7.966   3.608  0.8382  0.3185  0.4091
  2944G12c C01G54641   3.843   7.862   3.642  0.5188 -1.1025  0.9670
  2944G12c H00L54642   3.886   7.774   3.688  5.3324  2.2467  3.2415
  2944G12c C01H54643   3.714   7.909   3.620  0.1817  0.2030 -0.4448
  2944G12c H00B54644   3.630   7.846   3.644 -2.0374  3.9438  2.0163
  2944G12c C01I54645   3.672   8.034   3.565  0.5812 -0.7659 -2.1155
  2944G12c C01U54646   3.888   8.085   3.540 -1.2030 -0.5617  0.0634
  2944G12c C00S54647   3.931   8.566   3.822  0.4224  0.0985 -0.7877
  2944G12c C00K54648   3.747   8.489   3.725  1.4537  1.0597  0.8051
  2944G12c C00N54649   3.964   8.210   3.588 -0.9395 -1.2250  1.1350
  2944G12c C00054650   3.764   8.109   3.515  1.1135  2.4068 -2.7702
  2944G12c C01J54651   3.549   8.116   3.572 -1.4279 -1.2004  0.6305
  2944G12c C01K54652   3.415   8.075   3.604  0.1383  2.6346 -0.0782
  2944G12c C01P54653   3.345   7.950   3.555 -0.5016  0.2024 -3.0486
  2944G12c C01Q54654   3.393   7.848   3.463 -0.0343  1.0297  1.0396
  2944G12c H00G54655   3.430   7.886   3.368  1.2929 -6.6938 -1.9031
  2944G12c C01R54656   3.354   7.719   3.468  0.6338 -0.2213  0.0392
  2944G12c H00F54657   3.335   7.673   3.563 -1.7823 -1.7447 -1.1315
  2944G12c C01S54658   3.360   7.596   3.371 -1.4318  1.0405  1.6050
  2944G12c H00E54659   3.265   7.556   3.407 -4.9647  5.0347 -2.6326
  2944G12c H00D54660   3.354   7.622   3.265 -0.8659  7.5208  2.9622
  2944G12c O00554661   3.458   7.485   3.433 -0.6714  0.1191  1.1646
  2944G12c H00C54662   3.535   7.459   3.385 -0.9360  3.9248 -1.5854
  2944G12c C01O54663   3.205   7.937   3.601  0.7420  1.0463  0.3530
  2944G12c H00H54664   3.163   7.841   3.578  4.9604 -0.7820 -0.0318
  2944G12c C01N54665   3.149   8.018   3.697  1.1650 -0.4230  0.4735
  2944G12c O00654666   3.022   7.974   3.733 -0.6145 -1.8148 -1.3498
  2944G12c C01T54667   3.019   7.910   3.867 -0.1104  0.0575  1.4154
  2944G12c H00K54668   2.956   7.822   3.880  3.9657 -3.1150  0.6639
  2944G12c H00J54669   3.002   7.969   3.957 -1.0805  0.2874  1.0943
  2944G12c H00I54670   3.116   7.867   3.891 -1.1149  0.1119  6.0581
  2944G12c C01M54671   3.219   8.139   3.729  1.1714  0.5825 -0.7031
  2944G12c C02054672   3.606   8.447   3.752  1.8321 -0.6614 -0.5439
  2944G12c C02154673   3.526   8.513   3.850 -0.3516  0.3275 -1.5908
  2944G12c C01L54674   3.351   8.168   3.676  0.1360 -0.0388  0.8615
  2944G12c O00754675   3.156   8.218   3.829  0.8589 -0.4461  0.6689
  2944G12c C02254676   3.428   8.431   3.921 -0.2088  0.4378 -0.1849
  2944G12c C02354677   3.585   8.572   3.968 -1.4321 -0.8788  0.3945
  2944G12c C00G54678   3.738   8.606   4.195 -2.5830 -0.4595 -0.1946
  2944G12c C00E54679   3.752   8.655   4.445 -0.7138 -1.2411  2.1578
  2944G12c O00A54680   3.828   8.666   4.550 -0.9606 -1.7029 -0.6343
  2944G12c C02454681   3.849   8.537   4.624  0.5241  0.6627 -1.2062
  2944G12c H00V54682   3.948   8.492   4.609 -1.6934 -4.5543 -1.3065
  2944G12c H00U54683   3.771   8.464   4.645 -0.2210 -0.7840 -7.8837
  2944G12c H00T54684   3.888   8.575   4.719  3.2025 -6.6150  0.9928
  2954G12c C00D54685   6.393   6.335   6.263 -0.5514  0.5852 -0.1509
  2954G12c O00B54686   6.435   6.262   6.149 -0.6897  0.3252  1.0311
  2954G12c C02554687   6.492   6.327   6.034  0.8985 -0.5877  1.2428
  2954G12c C02654688   6.397   6.294   5.921  0.5099 -1.0755  0.7094
  2954G12c H00Y54689   6.375   6.189   5.940  4.3856 -2.2209 -0.5306
  2954G12c H00X54690   6.408   6.343   5.824 -6.0505  2.3092  1.3917
  2954G12c O00C54691   6.297   6.380   5.921 -0.3590 -0.2411 -0.5828
  2954G12c H00W54692   6.243   6.394   5.998 -5.4237 -3.4835 -3.2629
  2954G12c C02754693   6.612   6.397   6.044  1.6974 -1.2475  0.5136
  2954G12c O00D54694   6.660   6.423   6.176 -0.3291 -0.5613 -0.3610
  2954G12c H00Z54695   6.683   6.339   6.213 -3.7471 -0.2753  2.6760
  2954G12c C02854696   6.651   6.481   5.929 -1.0280  0.8165 -0.0900
  2954G12c C02954697   6.653   6.428   5.798  0.7504 -0.8100 -1.7449
  2954G12c H01054698   6.621   6.328   5.772  0.2642  0.7088 -7.5229
  2954G12c C02T54699   6.710   6.503   5.694  1.7328 -0.9896  0.4115
  2954G12c H01O54700   6.742   6.441   5.611  1.0962 -2.0204  0.9200
  2954G12c C02S54701   6.716   6.639   5.716 -1.5404 -0.5009 -0.4912
  2954G12c O00J54702   6.724   6.711   5.616  0.2320 -0.1333 -0.3107
  2954G12c H01P54703   6.676   6.790   5.637 -0.5393 -1.3585  2.7750
  2954G12c C02R54704   6.719   6.698   5.841 -1.0240 -0.4151 -0.8690
  2954G12c O00I54705   6.792   6.823   5.852 -0.2891  0.3040 -0.2241
  2954G12c C02Q54706   6.725   6.900   5.965  0.0985  0.6150 -0.8673
  2954G12c H01N54707   6.792   6.900   6.051 -0.4457  3.5462 -0.3968
  2954G12c H01R54708   6.704   7.006   5.976  1.7605  0.6553  2.4980
  2954G12c H01Q54709   6.620   6.875   5.972  1.0384 -3.5870 -0.1253
  2954G12c C02A54710   6.704   6.611   5.946  1.2145  0.8582 -1.0034
  2954G12c H01154711   6.730   6.630   6.049  1.3139 -2.9630 -0.2445
  2954G12c C00C54712   6.322   6.455   6.270 -0.1592 -0.1361  0.7577
  2954G12c H01254713   6.328   6.519   6.183  2.9305  3.3267  3.3448
  2954G12c C00B54714   6.232   6.474   6.380  1.1748  0.3694 -0.0982
  2954G12c C00A54715   6.094   6.537   6.380 -0.3431  0.8041  0.6369
  2954G12c C00954716   6.048   6.648   6.299  0.5796 -0.7745 -0.6563
  2954G12c C00854717   6.081   6.692   6.169 -0.3394  1.1824 -1.3958
  2954G12c H01354718   6.138   6.641   6.094 -1.2045 -0.8383 -0.7306
  2954G12c C00754719   6.028   6.826   6.148 -0.7049  0.3719 -0.5158
  2954G12c H01454720   6.084   6.859   6.061  5.7979  4.1625  4.6678
  2954G12c C00654721   5.928   6.894   6.225 -0.2951 -1.2473  2.0926
  2954G12c C00554722   5.899   6.832   6.345  0.9320  0.6286 -0.8130
  2954G12c C00454723   5.807   6.892   6.433 -0.2620  0.6676 -0.1058
  2954G12c C00354724   5.793   6.829   6.551 -0.0690  1.0608 -1.3328
  2954G12c C00254725   5.720   6.908   6.650 -1.0273 -0.4376  0.2783
  2954G12c C00154726   5.724   6.894   6.801  1.0468 -0.7276  0.6366
  2954G12c C00M54727   5.835   6.853   6.872  0.2562 -1.2626 -1.1106
  2954G12c C00L54728   5.896   6.731   6.856 -0.8723 -1.6753  0.9540
  2954G12c C00R54729   6.011   6.685   6.922 -2.1727  0.1216  0.1107
  2954G12c C00Q54730   6.099   6.749   7.021  0.0330  1.2313 -0.4853
  2954G12c C00V54731   6.212   6.656   7.062  0.1977  0.6056  0.5823
  2954G12c C00U54732   6.269   6.564   6.975 -0.3808  0.4906  1.0715
  2954G12c C00T54733   6.193   6.523   6.856 -1.4812  0.3051 -0.0292
  2954G12c C01654734   6.242   6.452   6.739  0.0227 -0.4939 -1.0570
  2954G12c C01554735   6.367   6.379   6.757 -0.1886  0.0983  0.6419
  2954G12c C01054736   6.434   6.400   6.885 -1.4709  1.2013 -0.6903
  2954G12c C01154737   6.563   6.338   6.905  0.2366 -1.3292 -0.3249
  2954G12c H00554738   6.622   6.354   6.994 -1.0667 -0.1528  0.3528
  2954G12c C01254739   6.613   6.246   6.808  0.8824 -1.5965 -0.7338
  2954G12c C01754740   6.695   6.129   6.836 -0.9271 -1.1416  0.9993
  2954G12c O00254741   6.727   6.095   6.961 -0.7763  0.3446  0.5227
  2954G12c H00454742   6.784   6.145   7.016  2.2378  1.5571 -3.4774
  2954G12c C01854743   6.799   6.087   6.757  2.5566 -0.0276 -0.1129
  2954G12c O00154744   6.837   6.138   6.637 -0.0515  0.6985  0.9321
  2954G12c H00354745   6.931   6.131   6.629  0.1873  2.8995  1.3078
  2954G12c C01954746   6.890   5.953   6.774 -0.6019 -1.5498  0.3586
  2954G12c H00254747   6.867   5.927   6.671 -0.3105 -8.3501  1.7751
  2954G12c H00154748   6.821   5.876   6.810 -0.9527 -1.1587  0.5331
  2954G12c O00054749   7.036   5.954   6.801  1.5715  0.0632 -0.7638
  2954G12c C01A54750   7.088   5.987   6.933 -1.2043 -0.4736 -2.2694
  2954G12c C02K54751   7.105   5.897   7.040 -0.9916  0.9285  0.4006
  2954G12c O00G54752   7.055   5.771   7.027 -0.4252  1.4020 -0.4172
  2954G12c C02M54753   7.014   5.692   7.143 -1.3420 -0.2422  1.4122
  2954G12c H01G54754   6.960   5.756   7.213 -3.1644 -0.9678  0.7024
  2954G12c H01F54755   7.117   5.669   7.171 -0.9090 -0.8905 -0.5850
  2954G12c H01E54756   6.958   5.602   7.119 -2.2668  0.4309  1.0163
  2954G12c C02J54757   7.186   5.921   7.151 -0.6876 -1.2507  1.5757
  2954G12c H01H54758   7.215   5.847   7.224  3.5300 -3.5679 -2.1384
  2954G12c C02I54759   7.263   6.035   7.154  1.2937  0.0326 -0.1922
  2954G12c C02N54760   7.352   6.075   7.247  0.7566  0.3700 -0.0386
  2954G12c H01M54761   7.370   6.173   7.288 -0.3146  0.5590 -0.0100
  2954G12c C02O54762   7.441   5.977   7.289  0.1581  0.7024  1.5696
  2954G12c H01L54763   7.456   5.895   7.220 -2.4107  1.0710  0.5065
  2954G12c C02P54764   7.529   5.985   7.407  1.0601 -1.3668 -0.4160
  2954G12c H01K54765   7.476   6.057   7.469 -1.7588 -2.5104 -1.4280
  2954G12c H01J54766   7.510   5.899   7.470 -0.4123  0.2275  1.3958
  2954G12c O00H54767   7.661   6.021   7.381  0.1410  0.3571 -0.5628
  2954G12c H01I54768   7.728   5.957   7.401 -0.9120 -0.4446  0.4148
  2954G12c C02H54769   7.260   6.119   7.039  0.1848  1.1330 -0.4030
  2954G12c H01C54770   7.298   6.220   7.032 -0.4718  1.2228 -3.3658
  2954G12c C02L54771   7.165   6.102   6.937  0.3292 -0.1776 -1.3287
  2954G12c H01D54772   7.140   6.157   6.848 -3.8283 -3.0747 -2.1029
  2954G12c C01354773   6.542   6.249   6.677  0.1238  1.3838  1.1425
  2954G12c H00054774   6.608   6.210   6.602  5.0452  3.3873  4.1735
  2954G12c C01454775   6.418   6.317   6.649  0.8301 -0.6279 -1.3114
  2954G12c C00F54776   6.364   6.326   6.523  1.7724 -0.4021  0.3267
  2954G12c C00H54777   6.181   6.458   6.611 -0.6724 -1.2523  0.8237
  2954G12c C00I54778   6.041   6.494   6.609  0.1994 -0.2310  0.7603
  2954G12c C00J54779   5.990   6.555   6.736  2.3152  0.2599  0.4775
  2954G12c C00Z54780   6.389   6.492   6.992  0.0368 -0.0437  1.2252
  2954G12c C00Y54781   6.468   6.538   7.107  0.8738 -0.1923  0.2764
  2954G12c H00654782   6.549   6.469   7.125 -0.8970 -4.3760 -6.1019
  2954G12c C00X54783   6.418   6.626   7.186 -0.7088 -0.0049 -0.4280
  2954G12c O00354784   6.510   6.646   7.302  0.7312 -0.5286 -0.4193
  2954G12c C01B54785   6.450   6.610   7.428  1.3990 -0.2267 -0.0228
  2954G12c H00954786   6.472   6.687   7.503  2.8349 -2.1684  1.6119
  2954G12c H00854787   6.459   6.510   7.471  0.3229 -1.9903 -3.7275
  2954G12c H00754788   6.342   6.623   7.429  1.8018  4.0196 -0.0054
  2954G12c C00W54789   6.293   6.679   7.169 -0.6257 -0.5347  0.2933
  2954G12c O00454790   6.246   6.771   7.268 -0.7694 -0.5277 -0.0448
  2954G12c C01C54791   6.168   6.874   7.234 -2.5355 -0.4080 -0.4718
  2954G12c H00A54792   6.171   6.958   7.302 -7.4315 -0.5747  0.1450
  2954G12c C00P54793   6.096   6.869   7.096 -0.2504 -2.4427  0.4619
  2954G12c C00O54794   5.984   6.966   7.061 -0.0887 -1.6902 -0.5808
  2954G12c C01D54795   5.979   7.089   7.131  1.8874  0.0857 -1.1508
  2954G12c H00S54796   6.019   7.090   7.232  1.2848  4.5950 -0.8477
  2954G12c C01E54797   5.908   7.198   7.082  2.3855  0.8047  0.4466
  2954G12c O00854798   5.919   7.314   7.151  1.4980  1.1569 -1.0078
  2954G12c C01V54799   6.049   7.367   7.178  0.2650 -0.6187  0.8251
  2954G12c C01Z54800   6.124   7.408   7.052  1.4840  0.1041  0.9741
  2954G12c H00R54801   6.070   7.459   6.973  0.4053  0.8477  2.1819
  2954G12c H00Q54802   6.202   7.473   7.091 -0.1682  0.4534  3.8353
  2954G12c O00954803   6.200   7.308   6.996 -0.7977 -0.3574  0.2250
  2954G12c H00P54804   6.265   7.265   7.049  3.6039  5.1537 -0.2664
  2954G12c C01W54805   6.082   7.418   7.291 -2.0639 -0.5837  1.4010
  2954G12c H00O54806   6.170   7.480   7.293 -2.4774 -0.0206  2.7410
  2954G12c C01X54807   6.017   7.392   7.427 -1.2177 -0.6160  0.6223
  2954G12c H00N54808   6.042   7.473   7.495 -2.2707 -2.1748  2.8871
  2954G12c H00M54809   5.909   7.380   7.420 -0.6843 -4.2999 -3.8131
  2954G12c C01Y54810   6.046   7.254   7.494  1.2374 -0.6223 -0.8630
  2954G12c C02D54811   6.141   7.224   7.578  1.5404 -1.0824 -1.3121
  2954G12c H01954812   6.218   7.294   7.607 -0.5017 -1.4081  5.9638
  2954G12c C02C54813   6.161   7.104   7.667 -0.6899 -0.4103 -0.5578
  2954G12c H01A54814   6.249   7.113   7.729 -0.5454 -2.6072 -0.4244
  2954G12c C02B54815   6.060   7.010   7.655  0.7433 -0.0472 -0.1248
  2954G12c O00E54816   6.113   6.890   7.689  0.5737 -0.4346  0.2660
  2954G12c H01B54817   6.046   6.832   7.656 -1.0753  1.3289  0.4090
  2954G12c C02F54818   5.969   7.022   7.549  1.2442 -3.1913  1.4313
  2954G12c O00F54819   5.911   6.906   7.491 -1.0907  0.7793  1.7871
  2954G12c C02G54820   5.801   6.829   7.554  0.2039 -1.5836  0.6082
  2954G12c H01754821   5.706   6.864   7.515  0.9397  4.2427  3.5486
  2954G12c H01654822   5.793   6.722   7.531  0.6667 -0.8050 -3.6163
  2954G12c H01554823   5.798   6.852   7.661  6.1801  7.2601 -0.5632
  2954G12c C02E54824   5.963   7.135   7.481  0.6716 -0.6062 -0.1751
  2954G12c H01854825   5.880   7.148   7.413  0.5788 -5.7682 -1.2849
  2954G12c C01F54826   5.834   7.187   6.963 -2.4011  0.1610 -0.5795
  2954G12c C01G54827   5.801   7.286   6.868  0.4405  0.2538  1.3119
  2954G12c H00L54828   5.849   7.375   6.906  5.4672 -3.4919  4.2230
  2954G12c C01H54829   5.744   7.245   6.743 -0.8104 -1.2747  0.8776
  2954G12c H00B54830   5.760   7.300   6.651 -0.5663 -0.0785  1.6269
  2954G12c C01I54831   5.675   7.128   6.726  1.2233 -0.7751 -1.3498
  2954G12c C01U54832   5.781   7.054   6.931 -0.1563 -0.5731  0.3388
  2954G12c C00S54833   6.065   6.565   6.853  1.0563 -2.2370 -0.5793
  2954G12c C00K54834   5.894   6.658   6.731 -1.2364  0.1637  1.5307
  2954G12c C00N54835   5.881   6.959   6.959 -0.5555  0.2110 -1.1272
  2954G12c C00054836   5.676   7.028   6.844 -1.7195  0.5333 -0.0473
  2954G12c C01J54837   5.671   7.045   6.615  0.8918  0.0254  0.0486
  2954G12c C01K54838   5.692   7.119   6.492  0.3906 -0.8568 -0.4848
  2954G12c C01P54839   5.645   7.240   6.434  0.2768  0.4647  0.2122
  2954G12c C01Q54840   5.568   7.341   6.506  0.8516 -2.0348 -0.0196
  2954G12c H00G54841   5.483   7.288   6.549 -0.4159  1.5484  2.1023
  2954G12c C01R54842   5.616   7.469   6.510 -0.1256 -0.6051 -0.6086
  2954G12c H00F54843   5.705   7.510   6.464  1.5900 -2.3142  1.1432
  2954G12c C01S54844   5.538   7.574   6.583  3.2741 -1.4002 -0.3149
  2954G12c H00E54845   5.456   7.579   6.512  4.9004 -1.8546 -2.2862
  2954G12c H00D54846   5.586   7.667   6.550  1.4507  0.0391  0.9539
  2954G12c O00554847   5.503   7.558   6.713 -0.4543 -0.2622  0.0346
  2954G12c H00C54848   5.595   7.566   6.732  0.1172 -2.2765 -1.6828
  2954G12c C01O54849   5.678   7.275   6.295  0.9605 -1.3707 -2.9194
  2954G12c H00H54850   5.651   7.365   6.242 -1.9751  0.4740  1.4386
  2954G12c C01N54851   5.765   7.194   6.218 -0.3760 -0.8755  0.0912
  2954G12c O00654852   5.780   7.236   6.096 -0.0819 -2.0708 -0.0866
  2954G12c C01T54853   5.903   7.262   6.034 -1.7837 -1.7046 -1.1877
  2954G12c H00K54854   5.894   7.301   5.932  1.0316 -1.5761 -1.4083
  2954G12c H00J54855   5.972   7.320   6.095 -0.3073  1.2958 -5.4212
  2954G12c H00I54856   5.963   7.180   6.072  0.0446  1.3819  3.0171
  2954G12c C01M54857   5.796   7.072   6.269 -0.0679  1.2466 -0.5185
  2954G12c C02054858   5.853   6.698   6.596  0.5701  0.3796 -1.5979
  2954G12c C02154859   5.884   6.620   6.471  0.0822 -0.2881  1.1584
  2954G12c C01L54860   5.756   7.018   6.406 -1.2037  0.2217  0.3813
  2954G12c O00754861   5.862   6.999   6.180  0.1893  1.4369  0.2967
  2954G12c C02254862   5.926   6.696   6.366 -1.3601 -1.4485 -0.5639
  2954G12c C02354863   5.994   6.525   6.486  0.2957  1.1416  0.1021
  2954G12c C00G54864   6.241   6.407   6.502 -0.2528 -0.4027  0.1564
  2954G12c C00E54865   6.411   6.283   6.395  0.0622 -1.6859 -0.1233
  2954G12c O00A54866   6.436   6.147   6.418 -1.4975  1.3874  1.1151
  2954G12c C02454867   6.342   6.059   6.373  1.6212 -0.1708  1.2784
  2954G12c H00V54868   6.304   6.091   6.276 -5.3791 -7.1870  1.2405
  2954G12c H00U54869   6.379   5.958   6.355  1.1071 -1.7592  7.8402
  2954G12c H00T54870   6.261   6.044   6.444 -2.4086  1.8794 -2.6324
  2964G12c C00D54871   9.586   2.555   9.867 -1.0624 -1.3663 -0.4339
  2964G12c O00B54872   9.488   2.455   9.846 -0.4397 -1.2738 -1.4414
  2964G12c C02554873   9.387   2.412   9.941 -0.3668 -0.3861 -0.1517
  2964G12c C02654874   9.250   2.432   9.884 -0.9703 -0.0608 -0.3325
  2964G12c H00Y54875   9.184   2.346   9.893 -0.2125 -0.7288 -1.0614
  2964G12c H00X54876   9.280   2.430   9.780 -1.3132 -4.4025 -0.4288
  2964G12c O00C54877   9.209   2.558   9.929 -1.2128  0.1127  0.8455
  2964G12c H00W54878   9.118   2.581   9.931 -1.3951 -0.6792  3.3829
  2964G12c C02754879   9.436   2.347  10.043  0.8083 -0.7911  1.6346
  2964G12c O00D54880   9.577   2.329  10.064  0.2641  1.3152  0.8094
  2964G12c H00Z54881   9.633   2.299   9.993  1.7854  1.7886  1.7976
  2964G12c C02854882   9.338   2.270  10.123 -0.2222 -2.5444 -1.0564
  2964G12c C02954883   9.337   2.138  10.100  1.1866  1.0247  0.0626
  2964G12c H01054884   9.396   2.099  10.019 -1.2139  4.8223 -3.6835
  2964G12c C02T54885   9.285   2.032  10.184 -1.0869  1.2876  1.4677
  2964G12c H01O54886   9.260   1.932  10.153 -1.2523 -0.0222  5.5240
  2964G12c C02S54887   9.225   2.093  10.292 -2.5829  2.3242  0.2426
  2964G12c O00J54888   9.201   2.016  10.409  0.6060  1.4551  0.5289
  2964G12c H01P54889   9.161   2.082  10.464 -0.5373  2.1244 -1.0958
  2964G12c C02R54890   9.200   2.235  10.311  0.4052 -1.1282  0.8703
  2964G12c O00I54891   9.103   2.261  10.409 -1.4233 -0.8011 -0.5309
  2964G12c C02Q54892   9.041   2.384  10.414  1.2106 -1.0608 -0.0998
  2964G12c H01N54893   9.014   2.388  10.519  4.2200 -1.9028  0.7457
  2964G12c H01R54894   8.967   2.435  10.352 -2.2656 -3.7350  1.6405
  2964G12c H01Q54895   9.139   2.432  10.406  1.7490 -2.6996 -5.9652
  2964G12c C02A54896   9.266   2.340  10.232  0.0910 -0.1526  0.6983
  2964G12c H01154897   9.270   2.443  10.263  4.5430 -0.7058  2.3525
  2964G12c C00C54898   9.574   2.653   9.969  0.2669  1.8266 -1.4188
  2964G12c H01254899   9.500   2.638  10.047  2.6468  1.1785  0.8281
  2964G12c C00B54900   9.679   2.759   9.984  0.7191  0.2624 -0.0364
  2964G12c C00A54901   9.665   2.872  10.068  0.7551 -0.8151 -0.1670
  2964G12c C00954902   9.540   2.949  10.114  0.9778  0.4231 -0.0786
  2964G12c C00854903   9.401   2.933  10.098 -1.2604 -0.0726  1.1882
  2964G12c H01354904   9.391   2.826  10.087  0.4606  0.1495 -3.7328
  2964G12c C00754905   9.310   3.048  10.118 -0.7327  0.3136  0.3783
  2964G12c H01454906   9.204   3.029  10.124 -0.8449  0.8396  0.1145
  2964G12c C00654907   9.350   3.174  10.134 -0.2063 -0.8892 -1.1464
  2964G12c C00554908   9.492   3.185  10.153 -0.2303 -1.4743 -0.2306
  2964G12c C00454909   9.562   3.313  10.154 -0.1773  0.6442 -0.2131
  2964G12c C00354910   9.696   3.323  10.120 -1.7928  0.8237  0.4059
  2964G12c C00254911   9.723   3.460  10.081 -0.4847  0.7951  0.1950
  2964G12c C00154912   9.848   3.516  10.035 -0.1322  1.9300 -0.1640
  2964G12c C00M54913   9.915   3.455   9.918  1.5492 -0.0904 -0.7831
  2964G12c C00L54914   9.970   3.325   9.935  1.2307  0.9372 -1.0495
  2964G12c C00R54915  10.006   3.236   9.808  1.3580 -0.9421 -0.4962
  2964G12c C00Q54916  10.037   3.286   9.677 -0.6571 -1.8667 -1.3098
  2964G12c C00V54917  10.075   3.184   9.583  1.6374  0.9821 -0.8481
  2964G12c C00U54918  10.063   3.046   9.621  0.7610  2.7760 -0.5419
  2964G12c C00T54919   9.996   3.017   9.742  1.0850 -0.2354  0.9918
  2964G12c C01654920   9.955   2.884   9.774 -0.5836 -1.0594 -0.9469
  2964G12c C01554921  10.003   2.783   9.690 -0.0599 -0.9955  0.1319
  2964G12c C01054922  10.095   2.807   9.588  0.0875 -1.0015 -0.1758
  2964G12c C01154923  10.142   2.703   9.508  2.7631 -0.6808 -1.9913
  2964G12c H00554924  10.227   2.702   9.441  5.9438 -0.1982  1.8940
  2964G12c C01254925  10.075   2.567   9.525 -0.5548  0.3091  0.0765
  2964G12c C01754926  10.105   2.444   9.440 -0.5971 -2.0081 -0.0356
  2964G12c O00254927  10.054   2.448   9.309 -1.2303  0.4356  0.7457
  2964G12c H00454928  10.095   2.373   9.270  3.5040  2.9800  0.4116
  2964G12c C01854929  10.182   2.335   9.476  1.3278 -0.7832 -0.2665
  2964G12c O00154930  10.225   2.346   9.610 -0.7531  0.7489  0.5343
  2964G12c H00354931  10.170   2.411   9.650 -1.7091  1.3548 -1.7032
  2964G12c C01954932  10.216   2.222   9.400 -1.1688 -0.1051 -0.6516
  2964G12c H00254933  10.239   2.132   9.457  2.8476  0.6972 -0.8069
  2964G12c H00154934  10.120   2.209   9.350  0.9339  6.7838 -7.5457
  2964G12c O00054935  10.329   2.218   9.319 -1.1252  0.7858  0.5303
  2964G12c C01A54936  10.371   2.341   9.245 -1.6372  1.1218  0.3769
  2964G12c C02K54937  10.428   2.463   9.315 -0.4967  0.9661 -1.0714
  2964G12c O00G54938  10.444   2.455   9.444  0.7531 -1.4879  0.1969
  2964G12c C02M54939  10.526   2.353   9.497 -0.5193 -0.0752  2.0332
  2964G12c H01G54940  10.561   2.420   9.575 -5.2616  4.0847  0.9053
  2964G12c H01F54941  10.613   2.311   9.446 -4.6370 -8.3289  1.0167
  2964G12c H01E54942  10.456   2.273   9.521 -4.3291  2.5406  0.1484
  2964G12c C02J54943  10.489   2.573   9.233 -1.6751 -0.1734 -1.1082
  2964G12c H01H54944  10.551   2.654   9.268  2.1897 -4.0382  1.5076
  2964G12c C02I54945  10.450   2.568   9.102 -0.3067 -0.6456  1.7774
  2964G12c C02N54946  10.462   2.688   9.029  1.0062 -0.2845  0.0832
  2964G12c H01M54947  10.536   2.693   8.951 -0.5478 -0.6041 -1.4236
  2964G12c C02O54948  10.360   2.776   9.039 -0.3272  0.2102 -1.0575
  2964G12c H01L54949  10.332   2.865   8.985 -2.0800 -0.0580 -0.6396
  2964G12c C02P54950  10.222   2.757   9.111 -2.4266  0.1775  0.4079
  2964G12c H01K54951  10.239   2.709   9.208  1.0115  2.2445  0.9327
  2964G12c H01J54952  10.201   2.862   9.132 -5.0517 -0.7426  2.6895
  2964G12c O00H54953  10.119   2.696   9.035  0.3323 -0.7486 -0.1386
  2964G12c H01I54954  10.157   2.644   8.966  1.6052 -0.2167  0.1352
  2964G12c C02H54955  10.385   2.462   9.024  1.9473  1.0607 -0.3786
  2964G12c H01C54956  10.356   2.472   8.921  2.9310  4.7593 -0.3791
  2964G12c C02L54957  10.351   2.344   9.103  0.8368 -0.3527  0.9757
  2964G12c H01D54958  10.347   2.247   9.056  0.8953 -3.8657  7.6190
  2964G12c C01354959   9.976   2.546   9.626 -0.5462  1.9728  1.0661
  2964G12c H00054960   9.923   2.454   9.645  2.6059 -0.0316  0.5249
  2964G12c C01454961   9.930   2.656   9.709  0.7318 -0.6998 -2.1228
  2964G12c C00F54962   9.820   2.664   9.791  0.9682  0.2715  0.7463
  2964G12c C00H54963   9.886   2.860   9.900 -1.0105 -1.3188  0.4266
  2964G12c C00I54964   9.879   2.966   9.990  0.4210 -0.4717  0.4540
  2964G12c C00J54965   9.933   3.098   9.966 -0.9267  1.6598  2.0825
  2964G12c C00Z54966  10.123   2.941   9.551 -0.0366 -1.8317  0.2017
  2964G12c C00Y54967  10.201   2.975   9.435  1.5259 -0.5711  0.1146
  2964G12c H00654968  10.256   2.923   9.358 -1.3457  1.7757 -3.7327
  2964G12c C00X54969  10.218   3.121   9.400 -0.4647  1.5136  0.3468
  2964G12c O00354970  10.265   3.138   9.272  1.5633 -1.2255 -1.8526
  2964G12c C01B54971  10.337   3.259   9.266 -1.2026  1.2325 -0.3794
  2964G12c H00954972  10.303   3.361   9.248 -1.2213  1.4204  0.6966
  2964G12c H00854973  10.437   3.256   9.309 -0.4626 -9.5335 -1.4912
  2964G12c H00754974  10.393   3.232   9.176 -4.9179 -1.5233 -1.9930
  2964G12c C00W54975  10.134   3.219   9.469  0.5167 -0.6919 -0.5209
  2964G12c O00454976  10.124   3.350   9.418  1.5232  0.4587  0.6291
  2964G12c C01C54977  10.077   3.448   9.496 -0.1175 -0.5906 -0.0545
  2964G12c H00A54978  10.106   3.546   9.460 -1.3285 -2.5888 -7.2250
  2964G12c C00P54979  10.021   3.426   9.619 -0.6560 -0.2035 -0.0759
  2964G12c C00O54980   9.959   3.541   9.677  0.4474 -0.3173  0.7599
  2964G12c C01D54981   9.907   3.668   9.606 -0.6335 -0.4397 -0.9203
  2964G12c H00S54982   9.945   3.660   9.505  1.0932 -4.0015 -0.0678
  2964G12c C01E54983   9.851   3.790   9.658  1.3872  0.3465 -1.8484
  2964G12c O00854984   9.815   3.889   9.559 -1.2030  0.8482  0.4569
  2964G12c C01V54985   9.892   4.000   9.600 -0.4338  0.7635  0.5109
  2964G12c C01Z54986   9.936   4.060   9.752  0.2700  1.0582 -0.3968
  2964G12c H00R54987   9.842   4.103   9.788 -0.2317  0.4309 -0.9290
  2964G12c H00Q54988   9.960   3.988   9.830 -1.5784 -1.5085 -2.1178
  2964G12c O00954989  10.051   4.135   9.732 -0.8532  0.2262 -0.1473
  2964G12c H00P54990  10.107   4.086   9.674 -0.4733 -3.1519  2.8517
  2964G12c C01W54991   9.935   4.065   9.487  2.2532 -0.7193  0.9938
  2964G12c H00O54992   9.997   4.152   9.501  3.2960 -1.7034  2.6288
  2964G12c C01X54993   9.915   4.048   9.340 -0.0430 -0.2386  1.1283
  2964G12c H00N54994   9.847   3.970   9.308 -0.7208 -1.0036  4.2136
  2964G12c H00M54995   9.840   4.111   9.291 -3.2498 -2.1138  3.4220
  2964G12c C01Y54996  10.027   4.029   9.248 -0.3940 -0.6364 -0.4914
  2964G12c C02D54997  10.072   4.132   9.155 -1.2503  0.6962 -1.2955
  2964G12c H01954998  10.013   4.220   9.136  2.6756  4.0105  0.9783
  2964G12c C02C54999  10.187   4.107   9.083  0.0652  0.3786  0.4787
  2964G12c H01A55000  10.201   4.208   9.048 -4.8507 -1.0954 -7.0740
  2964G12c C02B55001  10.264   3.985   9.091  0.7039  1.8179  0.1968
  2964G12c O00E55002  10.365   3.963   9.004 -0.2108  0.2877 -0.2814
  2964G12c H01B55003  10.379   4.048   8.966 -4.3130  0.0457 -2.6493
  2964G12c C02F55004  10.219   3.888   9.189 -0.4628  1.5200 -0.5748
  2964G12c O00F55005  10.310   3.787   9.232  0.5741  0.4064  0.1030
  2964G12c C02G55006  10.421   3.850   9.291  0.5777 -1.5396 -0.1384
  2964G12c H01755007  10.436   3.955   9.268  3.4311 -0.6208  5.1193
  2964G12c H01655008  10.522   3.814   9.315 -0.4729 -2.0504  3.8871
  2964G12c H01555009  10.398   3.846   9.397 -4.2603 -1.4480 -1.0632
  2964G12c C02E55010  10.095   3.900   9.263 -1.3223  0.0955  0.0792
  2964G12c H01855011  10.067   3.831   9.342 -0.0187 -2.5225 -1.6776
  2964G12c C01F55012   9.796   3.767   9.781  2.3419 -1.5101 -0.0800
  2964G12c C01G55013   9.693   3.853   9.833 -0.6305 -0.7206  0.7041
  2964G12c H00L55014   9.619   3.903   9.773 -2.3275 -1.8769  1.8009
  2964G12c C01H55015   9.647   3.803   9.955 -1.1934  0.1225  0.8126
  2964G12c H00B55016   9.547   3.826   9.989 -0.2913  3.3040  1.4916
  2964G12c C01I55017   9.690   3.697  10.031 -1.9276  0.2426  0.4512
  2964G12c C01U55018   9.860   3.671   9.870 -0.8499 -0.3150 -1.5463
  2964G12c C00S55019  10.003   3.109   9.841  0.8901 -0.2564  0.0163
  2964G12c C00K55020   9.915   3.225  10.031 -1.0009 -0.9502 -1.9867
  2964G12c C00N55021   9.927   3.552   9.814  1.2352  0.5391  1.5376
  2964G12c C00055022   9.819   3.647   9.996 -2.0800  1.0646  0.0598
  2964G12c C01J55023   9.633   3.573  10.090 -1.3097  0.0103  1.4200
  2964G12c C01K55024   9.506   3.559  10.157  0.6231 -0.1342  0.7145
  2964G12c C01P55025   9.420   3.672  10.195  0.4260 -0.5836  0.8868
  2964G12c C01Q55026   9.475   3.798  10.234  1.1078  1.3405  1.4664
  2964G12c H00G55027   9.574   3.817  10.198 -0.6979  1.6032 -3.6961
  2964G12c C01R55028   9.406   3.878  10.309  1.0580 -1.5603  0.3784
  2964G12c H00F55029   9.331   3.830  10.370 -1.9636  4.0117  1.3763
  2964G12c C01S55030   9.435   4.021  10.377 -1.6342  0.1423  0.1698
  2964G12c H00E55031   9.375   4.092  10.321 -2.2344 -2.6185 -2.7914
  2964G12c H00D55032   9.423   4.024  10.486  1.8600  0.3176  0.6358
  2964G12c O00555033   9.562   4.066  10.332 -0.6300 -1.9739 -0.6776
  2964G12c H00C55034   9.639   4.026  10.372  0.4644 -2.1995 -2.9029
  2964G12c C01O55035   9.290   3.637  10.220  1.3707  0.7229  0.4958
  2964G12c H00H55036   9.213   3.712  10.219  0.3243 -0.2398 -4.1965
  2964G12c C01N55037   9.245   3.506  10.220 -1.4055 -1.1732 -0.3321
  2964G12c O00655038   9.113   3.492  10.241  0.0959  0.5208 -0.8566
  2964G12c C01T55039   9.100   3.416  10.370 -0.6041  0.3765  0.5133
  2964G12c H00K55040   9.048   3.475  10.444  0.6158  0.3671  1.3976
  2964G12c H00J55041   9.017   3.349  10.347  2.3319 -2.9597 -1.0714
  2964G12c H00I55042   9.189   3.381  10.423 -3.7360 -1.8925  4.5514
  2964G12c C01M55043   9.333   3.405  10.184  0.4149 -0.5582 -1.4599
  2964G12c C02055044   9.794   3.209  10.108  0.8249 -0.4680 -0.0044
  2964G12c C02155045   9.716   3.082  10.119  0.1360  0.3100  0.4760
  2964G12c C01L55046   9.467   3.421  10.156  0.5523 -1.0984 -0.2420
  2964G12c O00755047   9.279   3.277  10.179  0.5434 -1.0424 -0.5019
  2964G12c C02255048   9.577   3.075  10.149  0.4180  0.1982  0.1290
  2964G12c C02355049   9.775   2.959  10.088 -0.0139  0.5029  1.0629
  2964G12c C00G55050   9.789   2.764   9.891 -1.0676  0.6573 -0.6921
  2964G12c C00E55051   9.708   2.573   9.790 -0.7451 -1.1738  0.4668
  2964G12c O00A55052   9.716   2.499   9.681  0.1733  1.7913 -0.2626
  2964G12c C02455053   9.616   2.528   9.592 -1.9628  0.5124  0.4509
  2964G12c H00V55054   9.534   2.595   9.618 -1.7986  2.1489 -2.9585
  2964G12c H00U55055   9.565   2.442   9.551  0.0293 -2.2296  3.4564
  2964G12c H00T55056   9.650   2.590   9.509  1.4574  1.6975  2.6009
  2974G12c C00D55057  13.201   4.689   1.357  0.4093 -1.0017  0.6852
  2974G12c O00B55058  13.170   4.818   1.403  1.0312  0.3326 -1.1981
  2974G12c C02555059  13.153   4.854   1.529  2.1228  0.5113 -0.4198
  2974G12c C02655060  13.013   4.795   1.592  0.3922 -1.3870  0.2496
  2974G12c H00Y55061  13.018   4.686   1.586 -3.2567 -1.8227  3.7745
  2974G12c H00X55062  12.932   4.800   1.519 -2.9198 -0.4516  3.8482
  2974G12c O00C55063  12.971   4.875   1.707 -1.0881 -0.3723 -0.4677
  2974G12c H00W55064  12.923   4.953   1.686 -1.6323  0.4184  3.4814
  2974G12c C02755065  13.239   4.925   1.592  0.5351 -0.2013 -1.2242
  2974G12c O00D55066  13.202   4.960   1.721 -0.3718 -0.5477 -1.1175
  2974G12c H00Z55067  13.127   4.922   1.764 -2.9682  3.3378 -1.9413
  2974G12c C02855068  13.352   4.979   1.522  0.0019 -1.4075 -0.4668
  2974G12c C02955069  13.383   5.111   1.566 -0.1084 -0.6670 -1.6229
  2974G12c H01055070  13.335   5.167   1.645  0.7259  1.8916 -2.8784
  2974G12c C02T55071  13.505   5.165   1.517 -1.5587  1.2552 -0.6795
  2974G12c H01O55072  13.544   5.252   1.568  0.1816 -1.7685  3.5390
  2974G12c C02S55073  13.567   5.090   1.419 -0.9333  1.4455  2.0485
  2974G12c O00J55074  13.686   5.142   1.368 -0.3853  0.0776 -0.4015
  2974G12c H01P55075  13.718   5.061   1.330  3.9856  2.8642 -3.1263
  2974G12c C02R55076  13.548   4.958   1.383  0.9904 -2.1060 -0.4291
  2974G12c O00I55077  13.641   4.891   1.305 -0.6651 -0.7243 -1.0007
  2974G12c C02Q55078  13.646   4.743   1.306  0.2127 -0.5533  1.1293
  2974G12c H01N55079  13.556   4.699   1.264 -4.2664  2.5672  6.7377
  2974G12c H01R55080  13.658   4.726   1.413 -1.7312  1.3393  1.6962
  2974G12c H01Q55081  13.740   4.715   1.258 -2.2555 -1.8050 -3.2184
  2974G12c C02A55082  13.433   4.899   1.438  1.2227  0.6784 -1.4219
  2974G12c H01155083  13.415   4.795   1.415  0.2545 -0.5948  4.1706
  2974G12c C00C55084  13.244   4.603   1.451  1.1882 -1.2104 -0.2032
  2974G12c H01255085  13.259   4.661   1.540 -7.2243  3.1224 -1.0767
  2974G12c C00B55086  13.291   4.481   1.415 -1.6388 -1.1076 -0.0426
  2974G12c C00A55087  13.359   4.372   1.488  2.5222 -0.8543 -1.6678
  2974G12c C00955088  13.422   4.354   1.621 -1.0812 -2.8573  0.6405
  2974G12c C00855089  13.438   4.462   1.716  0.8027  0.1922  0.5912
  2974G12c H01355090  13.376   4.550   1.722  3.2311  1.8833  1.6160
  2974G12c C00755091  13.551   4.450   1.802 -1.0429  2.2246 -0.1299
  2974G12c H01455092  13.584   4.535   1.859  0.2804 -1.1089  4.4097
  2974G12c C00655093  13.640   4.337   1.791 -1.0789 -0.4470 -0.9530
  2974G12c C00555094  13.612   4.228   1.717  0.4045  0.1167 -0.7796
  2974G12c C00455095  13.719   4.152   1.663  0.9907  0.5523  1.0167
  2974G12c C00355096  13.689   4.072   1.541  0.5816 -0.1291  0.7164
  2974G12c C00255097  13.807   3.994   1.510  1.0408 -0.2060  0.4802
  2974G12c C00155098  13.849   3.921   1.385  1.5030  0.2725  1.3261
  2974G12c C00M55099  13.815   3.954   1.243 -0.0638  0.5929  1.6096
  2974G12c C00L55100  13.696   4.017   1.203  1.1140 -0.7225  0.3414
  2974G12c C00R55101  13.660   4.083   1.084  0.6724  0.8628 -0.5449
  2974G12c C00Q55102  13.727   4.096   0.954 -0.8662  1.5857 -0.8770
  2974G12c C00V55103  13.660   4.173   0.867  2.2991 -0.1953 -1.0875
  2974G12c C00U55104  13.540   4.247   0.891  0.3745  0.0001  0.3059
  2974G12c C00T55105  13.492   4.241   1.019 -1.1037 -0.0977 -0.7060
  2974G12c C01655106  13.395   4.325   1.076 -1.0203  2.4280 -0.1240
  2974G12c C01555107  13.315   4.399   0.991 -0.8269 -1.0678 -1.2936
  2974G12c C01055108  13.350   4.387   0.854  0.0065 -0.0110 -0.7490
  2974G12c C01155109  13.284   4.472   0.769 -1.2142  0.4013  0.4444
  2974G12c H00555110  13.314   4.489   0.667 -2.2196  2.8706  0.5169
  2974G12c C01255111  13.182   4.556   0.814  0.2251 -0.2798  0.1300
  2974G12c C01755112  13.141   4.646   0.717 -0.6315  1.1966 -0.4246
  2974G12c O00255113  13.055   4.602   0.622 -0.4343 -0.8564 -1.1180
  2974G12c H00455114  13.033   4.686   0.584  3.9136  0.5701 -0.7344
  2974G12c C01855115  13.187   4.771   0.701  0.5529 -0.7210  0.2223
  2974G12c O00155116  13.285   4.823   0.770 -1.5994  0.2410 -0.0985
  2974G12c H00355117  13.257   4.854   0.855 -3.7309 -1.2386 -0.2257
  2974G12c C01955118  13.158   4.860   0.576 -2.0312 -0.6919  0.4691
  2974G12c H00255119  13.128   4.951   0.629 -1.4917 -0.6758  0.7475
  2974G12c H00155120  13.249   4.884   0.523 -3.6114 -3.2887 -3.6747
  2974G12c O00055121  13.051   4.851   0.508 -1.5754  0.0807 -0.4988
  2974G12c C01A55122  13.004   4.938   0.406  1.4465 -0.7909 -0.8735
  2974G12c C02K55123  13.077   4.938   0.295  1.9677 -1.2957  1.4378
  2974G12c O00G55124  13.189   4.859   0.273 -0.4472  1.0443  0.0012
  2974G12c C02M55125  13.157   4.739   0.226  0.5678 -1.4026 -1.3276
  2974G12c H01G55126  13.218   4.722   0.137 -2.2687  2.4458 -4.1721
  2974G12c H01F55127  13.057   4.698   0.221  1.2365 -3.7644  2.4028
  2974G12c H01E55128  13.191   4.654   0.285 -2.1719  1.8840  5.5280
  2974G12c C02J55129  13.051   5.030   0.192  0.8606 -0.3157  1.2885
  2974G12c H01H55130  13.111   5.024   0.102  3.2494 -1.5407  2.9002
  2974G12c C02I55131  12.953   5.131   0.197  0.4841  1.3161  0.5185
  2974G12c C02N55132  12.866   5.175   0.103  2.3453 -0.0102 -0.4508
  2974G12c H01M55133  12.775   5.209   0.150  6.3356  1.9809  6.6215
  2974G12c C02O55134  12.890   5.164  -0.027  0.1173  0.7416  0.2428
  2974G12c H01L55135  12.995   5.157  -0.055  0.8209  1.7946  2.5099
  2974G12c C02P55136  12.806   5.156  -0.151  0.9289 -1.2619 -2.4143
  2974G12c H01K55137  12.876   5.161  -0.233 -0.7527 -1.5426 -3.8982
  2974G12c H01J55138  12.768   5.056  -0.129 -0.5358  0.0217  1.3664
  2974G12c O00H55139  12.713   5.256  -0.182 -0.0494 -0.8498  1.1066
  2974G12c H01I55140  12.737   5.324  -0.121  3.7582  1.3650 -2.5486
  2974G12c C02H55141  12.904   5.150   0.327  0.3784  0.7812  0.3857
  2974G12c H01C55142  12.821   5.215   0.350 -1.2409  0.7712 -4.8023
  2974G12c C02L55143  12.917   5.055   0.428  0.1154 -1.5121  0.6911
  2974G12c H01D55144  12.874   5.068   0.526 -1.1077 -0.6589  0.0520
  2974G12c C01355145  13.163   4.569   0.939 -0.8127 -1.0079 -2.2470
  2974G12c H00055146  13.076   4.621   0.976  4.2347  2.0940  6.9524
  2974G12c C01455147  13.227   4.491   1.040  2.2224  0.1405 -0.3959
  2974G12c C00F55148  13.225   4.515   1.177  1.2673  1.1092  0.7955
  2974G12c C00H55149  13.391   4.358   1.224 -1.9895  0.3210  1.8392
  2974G12c C00I55150  13.444   4.259   1.303  0.0293 -0.9168  0.3972
  2974G12c C00J55151  13.512   4.160   1.242  0.6354 -0.9253 -0.0846
  2974G12c C00Z55152  13.465   4.316   0.801 -0.0216  1.6197 -0.6233
  2974G12c C00Y55153  13.534   4.324   0.674 -1.5798  0.4402 -0.7962
  2974G12c H00655154  13.502   4.402   0.607  1.1463 -2.5685 -5.9332
  2974G12c C00X55155  13.657   4.261   0.645 -0.5390 -0.6617  0.9521
  2974G12c O00355156  13.721   4.272   0.526 -1.1424  0.1299  0.4602
  2974G12c C01B55157  13.642   4.280   0.415 -0.3371 -1.5314 -0.3530
  2974G12c H00955158  13.707   4.231   0.343  0.4106  0.3728 -1.0126
  2974G12c H00855159  13.595   4.366   0.367 -1.9956 -0.9917  2.1086
  2974G12c H00755160  13.568   4.201   0.431 -3.9604  1.4955 -1.4282
  2974G12c C00W55161  13.700   4.178   0.741 -0.3778  0.2549  0.0683
  2974G12c O00455162  13.811   4.126   0.704 -0.4250  0.8771 -0.4573
  2974G12c C01C55163  13.909   4.096   0.785 -0.3981  0.6125  0.9215
  2974G12c H00A55164  13.977   4.027   0.738  3.4431  2.2992  3.7191
  2974G12c C00P55165  13.875   4.072   0.931  0.0334 -0.2819  0.3473
  2974G12c C00O55166  13.966   4.029   1.036 -0.6817  2.2052  1.4596
  2974G12c C01D55167  14.108   4.063   1.018 -1.9676 -0.0543 -0.6143
  2974G12c H00S55168  14.128   4.116   0.926 -1.3617 -0.7843 -0.9120
  2974G12c C01E55169  14.196   4.056   1.120  0.0625  0.7290 -0.9895
  2974G12c O00855170  14.335   4.090   1.119 -0.2648  1.4504 -0.6901
  2974G12c C01V55171  14.335   4.236   1.115 -0.4983  0.0599 -1.3083
  2974G12c C01Z55172  14.479   4.282   1.061 -0.8357 -0.2493 -1.8400
  2974G12c H00R55173  14.535   4.241   1.145 -1.8688 -2.2259 -2.0820
  2974G12c H00Q55174  14.500   4.375   1.008 -5.5186  2.8443  1.2954
  2974G12c O00955175  14.484   4.204   0.948  0.3486 -1.7839 -0.9708
  2974G12c H00P55176  14.465   4.120   0.986  0.9676  0.7121  5.3213
  2974G12c C01W55177  14.233   4.322   1.159  2.0538  1.1868 -0.6522
  2974G12c H00O55178  14.136   4.290   1.193  0.4628 -1.1921 -6.7385
  2974G12c C01X55179  14.224   4.468   1.179  0.2134  0.2719  0.4218
  2974G12c H00N55180  14.225   4.499   1.284  4.6096  5.2924 -0.8592
  2974G12c H00M55181  14.312   4.525   1.149  2.0978 -1.7372  1.9182
  2974G12c C01Y55182  14.106   4.512   1.100 -0.1845 -0.9509  0.4452
  2974G12c C02D55183  13.984   4.515   1.159 -0.5812 -0.6289  2.0137
  2974G12c H01955184  13.977   4.504   1.266  0.2195  4.5313  2.7085
  2974G12c C02C55185  13.875   4.524   1.077  0.1486 -0.8673  0.8016
  2974G12c H01A55186  13.785   4.509   1.136 -1.9827 -1.3415 -2.4218
  2974G12c C02B55187  13.890   4.531   0.936  0.1514 -1.5565  1.8705
  2974G12c O00E55188  13.792   4.556   0.864  0.0717  0.3104  0.2725
  2974G12c H01B55189  13.768   4.493   0.799  0.5531  4.1524 -3.8758
  2974G12c C02F55190  14.019   4.545   0.889 -0.4901 -0.2325 -0.0247
  2974G12c O00F55191  14.037   4.578   0.756  1.0360 -1.3661  0.3052
  2974G12c C02G55192  14.151   4.564   0.682  1.7493  1.0942 -0.6580
  2974G12c H01755193  14.233   4.633   0.700 -0.4735  2.6809  4.1297
  2974G12c H01655194  14.097   4.569   0.588 -1.6796 -0.9969  1.0728
  2974G12c H01555195  14.174   4.458   0.695 -0.2342  0.4769 -1.8615
  2974G12c C02E55196  14.114   4.524   0.976 -1.0953 -1.3706  0.1876
  2974G12c H01855197  14.213   4.534   0.934 -2.3521 -4.5116 -3.8991
  2974G12c C01F55198  14.143   3.994   1.247  1.2251 -2.4651  1.3259
  2974G12c C01G55199  14.218   4.028   1.368  0.9622  0.7874  1.1349
  2974G12c H00L55200  14.320   4.063   1.363  2.4640 -3.3513  1.0543
  2974G12c C01H55201  14.163   3.998   1.493 -0.5935  1.2773 -0.9627
  2974G12c H00B55202  14.196   4.073   1.563 -0.4128  2.8078 -2.6418
  2974G12c C01I55203  14.043   3.945   1.510 -0.6184 -0.8743  0.4452
  2974G12c C01U55204  14.039   3.912   1.254 -0.0529 -0.9644 -0.8925
  2974G12c C00S55205  13.533   4.157   1.115 -2.3857 -0.0125  0.0687
  2974G12c C00K55206  13.599   4.072   1.312 -1.1704  0.2299 -0.2225
  2974G12c C00N55207  13.942   3.971   1.170 -1.7018 -0.2536 -1.0044
  2974G12c C00055208  13.989   3.881   1.387  0.9935 -0.9220  0.4728
  2974G12c C01J55209  13.931   4.009   1.575 -0.8081  0.6971 -0.2180
  2974G12c C01K55210  13.949   4.066   1.707 -0.5693  0.0690 -0.9795
  2974G12c C01P55211  14.055   4.049   1.817  0.7583 -0.2741  1.1054
  2974G12c C01Q55212  14.165   3.957   1.812  0.3049 -0.2524 -0.4098
  2974G12c H00G55213  14.184   3.876   1.881 -4.0554 -1.2149 -0.2067
  2974G12c C01R55214  14.285   3.997   1.791  1.6808 -0.9071  0.0505
  2974G12c H00F55215  14.317   4.092   1.749  0.2136 -2.1744 -4.2705
  2974G12c C01S55216  14.416   3.933   1.828 -1.3773 -2.7047 -0.2347
  2974G12c H00E55217  14.397   3.835   1.784 -0.7354 -3.5123  1.2341
  2974G12c H00D55218  14.517   3.970   1.809 -0.9746 -2.7238  1.7374
  2974G12c O00555219  14.417   3.954   1.976 -0.1586  1.5582  1.3095
  2974G12c H00C55220  14.342   3.898   1.994 -1.6018  2.7739 -0.6157
  2974G12c C01O55221  14.046   4.124   1.914  0.2133 -0.5636 -0.6619
  2974G12c H00H55222  14.091   4.141   2.011 -6.9968  3.2491  2.3215
  2974G12c C01N55223  13.960   4.238   1.918  0.5227  0.7321  1.7916
  2974G12c O00655224  13.980   4.355   2.009  0.7931  0.0497 -0.2939
  2974G12c C01T55225  14.105   4.414   2.037 -0.4794  1.1005 -0.0357
  2974G12c H00K55226  14.110   4.473   2.128 -0.8352 -3.7595  3.3073
  2974G12c H00J55227  14.193   4.349   2.040 -1.8507 -0.6913  2.9724
  2974G12c H00I55228  14.128   4.475   1.950 -4.4151  2.1337 -0.4158
  2974G12c C01M55229  13.853   4.237   1.843  0.9578  0.5576 -0.2361
  2974G12c C02055230  13.592   4.099   1.455 -1.7843  1.9555  0.3330
  2974G12c C02155231  13.486   4.173   1.506  0.0207  0.3931 -1.2445
  2974G12c C01L55232  13.841   4.135   1.731  0.8073 -0.1670 -0.9395
  2974G12c O00755233  13.775   4.350   1.831  0.4621  0.5425 -1.3429
  2974G12c C02255234  13.487   4.231   1.638  0.2429 -0.2752  1.6585
  2974G12c C02355235  13.399   4.252   1.438 -0.4502  0.0554  0.2038
  2974G12c C00G55236  13.285   4.441   1.273 -0.5634 -0.9369 -0.2778
  2974G12c C00E55237  13.205   4.653   1.217 -1.4079  0.4367 -0.3769
  2974G12c O00A55238  13.153   4.738   1.132  1.3509 -0.3875  1.3644
  2974G12c C02455239  13.215   4.864   1.116 -0.1145  0.9600  0.3079
  2974G12c H00V55240  13.313   4.864   1.164  0.0818 -1.3843 -0.0569
  2974G12c H00U55241  13.219   4.868   1.007 -3.3144 -1.7206  0.0476
  2974G12c H00T55242  13.160   4.954   1.144 -2.5415  0.3570 -2.3705
  2984G12c C00D55243   9.746   7.798  13.085 -0.5501  1.0050  0.2786
  2984G12c O00B55244   9.608   7.767  13.072 -0.1134 -1.2476  1.7010
  2984G12c C02555245   9.557   7.633  13.050  0.2745  1.7002  0.7277
  2984G12c C02655246   9.405   7.640  13.059  0.4372 -1.5500  0.4162
  2984G12c H00Y55247   9.331   7.564  13.033 -2.2101 -0.8551  5.4301
  2984G12c H00X55248   9.360   7.699  12.979  0.4458  2.5774  3.3159
  2984G12c O00C55249   9.348   7.667  13.184 -0.3833  0.6833  0.7142
  2984G12c H00W55250   9.418   7.672  13.247  3.9759 -3.3292 -3.3622
  2984G12c C02755251   9.639   7.521  13.059 -1.2306 -0.9945 -0.5924
  2984G12c O00D55252   9.780   7.533  13.080 -1.1187  1.8844 -0.0710
  2984G12c H00Z55253   9.805   7.448  13.046 -2.4242  3.6515 -6.0192
  2984G12c C02855254   9.587   7.386  13.047  0.2474  0.7845 -0.6757
  2984G12c C02955255   9.536   7.350  12.923 -0.2742  0.6292 -1.1947
  2984G12c H01055256   9.519   7.443  12.871  2.4161 -0.3157 -3.9017
  2984G12c C02T55257   9.484   7.228  12.896  1.4872 -1.2251  0.7269
  2984G12c H01O55258   9.397   7.236  12.832  0.3044 -0.9663  2.3473
  2984G12c C02S55259   9.506   7.118  12.990 -0.1278 -1.4175  0.4109
  2984G12c O00J55260   9.459   6.995  12.970  0.1338 -0.5175 -0.3562
  2984G12c H01P55261   9.452   6.929  13.037 -4.4451 -0.2616 -0.4533
  2984G12c C02R55262   9.568   7.146  13.107  0.7048 -0.7993  0.5257
  2984G12c O00I55263   9.570   7.035  13.196  0.5541 -1.3013 -0.6949
  2984G12c C02Q55264   9.553   7.065  13.333 -0.3860 -0.2599  1.6676
  2984G12c H01N55265   9.448   7.039  13.347 -0.9803  1.5063  0.6774
  2984G12c H01R55266   9.611   6.997  13.396  1.0244 -2.2421 -1.6087
  2984G12c H01Q55267   9.563   7.162  13.381 -1.6497 -0.6630  2.7481
  2984G12c C02A55268   9.609   7.283  13.139  0.6262 -1.2166  1.2780
  2984G12c H01155269   9.650   7.309  13.235  7.9605 -0.5804 -1.6645
  2984G12c C00C55270   9.797   7.844  13.210  1.3109 -1.2749 -0.0201
  2984G12c H01255271   9.734   7.855  13.297 -0.4672 -0.4080 -1.3877
  2984G12c C00B55272   9.936   7.864  13.212 -0.6329  0.2916  1.4542
  2984G12c C00A55273  10.018   7.894  13.329  1.0609 -1.0121  0.8431
  2984G12c C00955274   9.975   7.984  13.446  0.3624  0.2255  0.5945
  2984G12c C00855275   9.872   8.078  13.482 -0.3207 -0.3277 -1.1881
  2984G12c H01355276   9.770   8.063  13.448 -0.7676 -1.7896  0.7086
  2984G12c C00755277   9.898   8.211  13.510 -0.5906  1.9399  0.2119
  2984G12c H01455278   9.818   8.282  13.524 -0.4463  2.5979 -1.9794
  2984G12c C00655279  10.025   8.243  13.542 -0.5361  1.0052 -0.2226
  2984G12c C00555280  10.126   8.137  13.550 -0.7006  1.6246  0.7596
  2984G12c C00455281  10.266   8.185  13.578  1.7532  1.3467 -0.0415
  2984G12c C00355282  10.387   8.125  13.520 -0.5937  0.7205 -0.0556
  2984G12c C00255283  10.512   8.202  13.535 -0.4441  0.5473 -0.6411
  2984G12c C00155284  10.638   8.175  13.473  0.3531  0.3293  0.8402
  2984G12c C00M55285  10.631   8.177  13.327  0.4919 -1.3984 -0.1376
  2984G12c C00L55286  10.535   8.109  13.257  1.7951 -0.7090 -0.9188
  2984G12c C00R55287  10.501   8.119  13.127 -0.8488  0.8887  1.0170
  2984G12c C00Q55288  10.562   8.204  13.028 -0.1407  0.9066 -0.3089
  2984G12c C00V55289  10.499   8.175  12.895 -0.9645 -2.4579 -0.0684
  2984G12c C00U55290  10.391   8.093  12.869 -0.2714 -0.4394  0.6639
  2984G12c C00T55291  10.340   8.021  12.971  2.3894 -2.1160  1.4349
  2984G12c C01655292  10.225   7.949  12.970 -0.4138 -0.7998 -0.7002
  2984G12c C01555293  10.151   7.951  12.848  0.2626  0.1686  1.5023
  2984G12c C01055294  10.207   8.000  12.736 -1.1712  0.8197  0.7840
  2984G12c C01155295  10.162   7.970  12.603 -0.7622  0.1822 -0.3810
  2984G12c H00555296  10.232   8.008  12.530  0.7627  1.7530  1.8345
  2984G12c C01255297  10.031   7.933  12.589 -0.6794  0.8620  1.6617
  2984G12c C01755298  10.001   7.933  12.441  0.0296 -0.0734 -0.8272
  2984G12c O00255299  10.055   7.845  12.356  0.9975  0.5307  0.0893
  2984G12c H00455300  10.051   7.777  12.421  3.0934  1.1331  0.8693
  2984G12c C01855301   9.865   7.981  12.437  0.7454  2.4936  0.3991
  2984G12c O00155302   9.797   8.051  12.529 -0.4309 -0.9859  0.6438
  2984G12c H00355303   9.708   8.035  12.503 -0.7017  3.7197 -1.7781
  2984G12c C01955304   9.771   7.954  12.314 -0.8756  0.0370 -1.0829
  2984G12c H00255305   9.736   8.046  12.267 -4.8202  0.4131  2.2672
  2984G12c H00155306   9.841   7.913  12.241  8.4020 10.1891  0.6686
  2984G12c O00055307   9.649   7.880  12.347 -1.2428 -0.8150  0.6079
  2984G12c C01A55308   9.637   7.744  12.279  1.3781 -2.5995 -0.4020
  2984G12c C02K55309   9.720   7.635  12.324 -1.7602 -1.1297  1.3827
  2984G12c O00G55310   9.838   7.667  12.381  0.3894  0.3099 -0.1666
  2984G12c C02M55311   9.954   7.584  12.394 -0.5026 -0.2294  0.6547
  2984G12c H01G55312   9.992   7.573  12.293 -6.7303 -8.9009 -1.4230
  2984G12c H01F55313   9.944   7.484  12.437  1.2272 -1.8439 -2.5606
  2984G12c H01E55314  10.044   7.633  12.431 -2.2291  2.7176  1.0922
  2984G12c C02J55315   9.657   7.511  12.325 -0.0877  1.1533 -0.3915
  2984G12c H01H55316   9.694   7.426  12.381  2.4827  0.4108 -3.0824
  2984G12c C02I55317   9.545   7.487  12.242  0.2402 -0.3536  1.8098
  2984G12c C02N55318   9.500   7.359  12.230  0.6182  0.8280 -0.8406
  2984G12c H01M55319   9.556   7.285  12.175 -8.1032 -3.3992 -5.0971
  2984G12c C02O55320   9.374   7.334  12.264  0.4088  1.1078 -1.9610
  2984G12c H01L55321   9.316   7.419  12.297 -0.6043 -0.3410  0.1482
  2984G12c C02P55322   9.337   7.199  12.245  0.6656  0.3936 -1.4127
  2984G12c H01K55323   9.268   7.156  12.317 -0.3300 -2.5674 -3.9922
  2984G12c H01J55324   9.300   7.190  12.142  0.6409 -1.6469 -1.2423
  2984G12c O00H55325   9.448   7.123  12.288  0.0517 -0.2553  0.8564
  2984G12c H01I55326   9.495   7.185  12.341 -0.5470  0.0863  0.9911
  2984G12c C02H55327   9.487   7.592  12.171 -0.9896 -1.6694 -0.2046
  2984G12c H01C55328   9.409   7.561  12.103  1.6097 -2.6828 -2.8438
  2984G12c C02L55329   9.523   7.735  12.198 -0.3824  1.1651  1.5588
  2984G12c H01D55330   9.457   7.802  12.144  1.9577  1.6872 -0.7711
  2984G12c C01355331   9.968   7.890  12.713  1.1356  0.6452  0.2390
  2984G12c H00055332   9.867   7.860  12.692  0.2413  2.7431  1.4111
  2984G12c C01455333  10.022   7.896  12.839 -0.1532 -0.3709  0.4438
  2984G12c C00F55334   9.961   7.858  12.959  0.7404  1.6375 -1.1444
  2984G12c C00H55335  10.156   7.902  13.098 -1.9820 -0.7031 -1.4210
  2984G12c C00I55336  10.219   7.902  13.223  0.2618 -0.4616  0.6691
  2984G12c C00J55337  10.352   7.959  13.199 -0.7324 -0.9469 -0.6780
  2984G12c C00Z55338  10.335   8.076  12.745  1.5262  1.0940  0.4171
  2984G12c C00Y55339  10.377   8.166  12.644 -0.6646  1.2753 -1.3647
  2984G12c H00655340  10.370   8.148  12.537  0.6182  3.8298 -1.9103
  2984G12c C00X55341  10.479   8.252  12.668  0.2259 -0.1009  0.5101
  2984G12c O00355342  10.508   8.352  12.565 -0.1409  0.7167 -0.1380
  2984G12c C01B55343  10.418   8.460  12.575  0.6234 -0.8713  1.9880
  2984G12c H00955344  10.431   8.540  12.647  3.2439  2.2985 -1.8033
  2984G12c H00855345  10.321   8.418  12.604 -4.0864  2.8121 -6.4653
  2984G12c H00755346  10.419   8.525  12.488  2.2125 -4.4993 -0.8695
  2984G12c C00W55347  10.534   8.264  12.789 -0.0233  0.9190  1.1336
  2984G12c O00455348  10.601   8.385  12.811 -0.6597 -0.4801  0.0590
  2984G12c C01C55349  10.695   8.371  12.907  0.5446  0.2364  0.1933
  2984G12c H00A55350  10.791   8.355  12.860 -0.1498 -2.4635 -0.3912
  2984G12c C00P55351  10.659   8.327  13.027 -0.6064  2.3900  0.4639
  2984G12c C00O55352  10.723   8.349  13.134  0.9374 -0.1018 -1.7189
  2984G12c C01D55353  10.821   8.453  13.143  0.1195  0.5249  2.4768
  2984G12c H00S55354  10.871   8.503  13.062  4.5039 -3.6344  2.4019
  2984G12c C01E55355  10.840   8.510  13.262 -0.6486  0.5619 -0.1368
  2984G12c O00855356  10.896   8.648  13.261 -0.2740  0.4096  1.3578
  2984G12c C01V55357  11.029   8.670  13.274 -0.5535 -0.2888  1.4896
  2984G12c C01Z55358  11.050   8.814  13.208  1.5173  1.0488  1.1276
  2984G12c H00R55359  11.058   8.790  13.102 -3.5691 -2.2096  1.3217
  2984G12c H00Q55360  10.993   8.891  13.260 -0.3865  2.8660 -3.4027
  2984G12c O00955361  11.165   8.876  13.256  1.0247 -1.0090 -1.5519
  2984G12c H00P55362  11.177   8.833  13.339 -1.6970  1.4233  0.1701
  2984G12c C01W55363  11.111   8.584  13.339 -1.1206  0.1477  0.0089
  2984G12c H00O55364  11.080   8.483  13.361 -1.7393  0.9005  2.7580
  2984G12c C01X55365  11.265   8.602  13.312 -0.4044  0.9649  1.1363
  2984G12c H00N55366  11.307   8.533  13.240 -3.1936  5.5430 -5.3423
  2984G12c H00M55367  11.313   8.699  13.300  0.0478  1.9480  8.3707
  2984G12c C01Y55368  11.342   8.579  13.444 -1.2870 -0.2290 -0.1176
  2984G12c C02D55369  11.317   8.465  13.522  0.8645  1.8699 -1.7141
  2984G12c H01955370  11.219   8.422  13.537 -1.7058  7.9935  0.8173
  2984G12c C02C55371  11.410   8.416  13.620  1.3435 -1.6433  1.7527
  2984G12c H01A55372  11.398   8.312  13.645 -3.2124 -3.9642 -7.6747
  2984G12c C02B55373  11.519   8.484  13.649 -2.1616  0.2702 -0.6799
  2984G12c O00E55374  11.587   8.411  13.742 -0.1304 -0.2983 -1.0002
  2984G12c H01B55375  11.681   8.403  13.755  0.3793  2.1758 -2.7563
  2984G12c C02F55376  11.532   8.623  13.610 -0.2150 -0.3992 -1.0836
  2984G12c O00F55377  11.614   8.721  13.669  0.3837 -1.1115 -0.7476
  2984G12c C02G55378  11.657   8.695  13.805  0.5592 -1.2581  0.6523
  2984G12c H01755379  11.731   8.775  13.811  1.7233 -1.7790 -4.3898
  2984G12c H01655380  11.701   8.595  13.804  5.0311  0.5786  2.3291
  2984G12c H01555381  11.573   8.719  13.869  0.2500 -7.3861  2.8221
  2984G12c C02E55382  11.454   8.660  13.497  0.0933  0.2303 -0.1245
  2984G12c H01855383  11.486   8.758  13.466 -3.8603  1.0767 -1.8754
  2984G12c C01F55384  10.779   8.480  13.385 -0.8430  0.5011 -2.5071
  2984G12c C01G55385  10.758   8.561  13.493 -0.1962 -0.0038  1.2867
  2984G12c H00L55386  10.817   8.650  13.507  2.3820 -1.4739  0.2824
  2984G12c C01H55387  10.680   8.510  13.606  1.8599 -0.3255  0.5519
  2984G12c H00B55388  10.638   8.580  13.678  0.6762 -1.7361  1.2638
  2984G12c C01I55389  10.638   8.389  13.578  0.7996 -0.1150 -1.2087
  2984G12c C01U55390  10.756   8.345  13.383 -0.7518 -0.5910  0.0351
  2984G12c C00S55391  10.399   8.037  13.098 -0.2518  0.2199 -0.5692
  2984G12c C00K55392  10.425   8.027  13.308  1.4892  0.6437 -1.1060
  2984G12c C00N55393  10.715   8.281  13.269  1.1532  0.3623  0.7551
  2984G12c C00055394  10.712   8.286  13.504 -0.4652  0.3949 -1.2595
  2984G12c C01J55395  10.515   8.308  13.611 -1.4497  0.2720 -0.6931
  2984G12c C01K55396  10.396   8.363  13.687  0.9144  1.2868 -0.6487
  2984G12c C01P55397  10.392   8.459  13.786  1.2125 -1.2317 -1.8801
  2984G12c C01Q55398  10.497   8.499  13.878 -0.5193 -1.0547 -0.6123
  2984G12c H00G55399  10.545   8.594  13.862 -4.0026  1.3425  2.2656
  2984G12c C01R55400  10.562   8.408  13.938  1.4425  1.1601 -1.6611
  2984G12c H00F55401  10.550   8.300  13.935 -1.0785  1.3242  0.7268
  2984G12c C01S55402  10.688   8.420  14.021 -1.2580  2.2733  0.4278
  2984G12c H00E55403  10.738   8.503  13.972 -2.8106  1.7561 -2.1324
  2984G12c H00D55404  10.691   8.432  14.129 -0.6654 -1.2937  0.8605
  2984G12c O00555405  10.781   8.310  13.992  0.3189  0.4173 -0.5946
  2984G12c H00C55406  10.870   8.339  14.004  2.1567 -1.1960 -7.5710
  2984G12c C01O55407  10.282   8.533  13.814  0.2442  2.4463 -0.3157
  2984G12c H00H55408  10.282   8.620  13.879 -2.1420  1.6306  0.8128
  2984G12c C01N55409  10.165   8.517  13.742 -2.2645 -0.8483 -0.5529
  2984G12c O00655410  10.069   8.612  13.746 -1.2174 -0.8649 -1.5175
  2984G12c C01T55411  10.078   8.734  13.821 -0.4088  1.1147  2.4748
  2984G12c H00K55412  10.183   8.761  13.818 -1.2002  7.3218 11.4489
  2984G12c H00J55413  10.033   8.697  13.913 -1.9225 -4.2964 -0.2616
  2984G12c H00I55414  10.003   8.803  13.781 -4.8295 -6.5301 -3.8526
  2984G12c C01M55415  10.161   8.398  13.663 -0.1894 -0.0293  0.0731
  2984G12c C02055416  10.356   8.022  13.427  1.0233 -1.7015  0.5403
  2984G12c C02155417  10.234   7.937  13.454  1.4252 -0.6685 -0.7257
  2984G12c C01L55418  10.275   8.309  13.635 -0.1819 -0.4538 -0.2630
  2984G12c O00755419  10.045   8.387  13.578 -0.5071 -0.2453 -0.3253
  2984G12c C02255420  10.115   8.007  13.505 -0.7413 -0.5042  0.2042
  2984G12c C02355421  10.165   7.874  13.343  0.9053  1.2469 -0.5439
  2984G12c C00G55422  10.020   7.885  13.087  0.4080  0.5840 -0.2470
  2984G12c C00E55423   9.836   7.787  12.963 -1.3526  0.2914 -1.3085
  2984G12c O00A55424   9.776   7.736  12.847  1.1820 -0.4787 -0.8589
  2984G12c C02455425   9.649   7.796  12.796 -0.4571 -0.4837 -0.3718
  2984G12c H00V55426   9.579   7.840  12.867  1.7624 -3.5981  3.9499
  2984G12c H00U55427   9.594   7.730  12.728 -0.4992  2.6455 -3.4843
  2984G12c H00T55428   9.679   7.884  12.740 -5.3823  0.2567 -2.1319
  2994G12c C00D55429   2.165   7.495  11.781 -0.3768  1.0066 -0.4800
  2994G12c O00B55430   2.125   7.572  11.893 -0.0642 -0.5847 -1.1810
  2994G12c C02555431   2.193   7.674  11.936  1.8460 -1.7389 -0.2132
  2994G12c C02655432   2.352   7.669  11.957  0.8534  1.2927  0.5033
  2994G12c H00Y55433   2.402   7.581  11.917  1.6211  0.6039  2.8783
  2994G12c H00X55434   2.405   7.726  12.033  2.6917 -2.6526  2.3067
  2994G12c O00C55435   2.387   7.766  11.853  1.0214  0.1028 -0.6410
  2994G12c H00W55436   2.431   7.803  11.927  1.6127 -4.1773  1.3258
  2994G12c C02755437   2.114   7.767  11.987 -1.4292 -0.6043 -1.8838
  2994G12c O00D55438   2.173   7.851  12.079  1.3304  0.1590 -1.1260
  2994G12c H00Z55439   2.143   7.936  12.052 -5.0932 -1.8742 -1.1194
  2994G12c C02855440   1.969   7.802  11.964 -0.3796  0.7172 -0.0795
  2994G12c C02955441   1.914   7.886  12.067  0.3636  1.1590 -0.3177
  2994G12c H01055442   1.951   7.922  12.162 -8.2748 -2.6536  5.1394
  2994G12c C02T55443   1.797   7.954  12.019 -1.0046 -2.6762 -0.3930
  2994G12c H01O55444   1.767   8.035  12.084 -2.7495 -3.2587 -0.4550
  2994G12c C02S55445   1.738   7.940  11.904  1.1715  0.2672  0.3777
  2994G12c O00J55446   1.649   8.039  11.865 -0.6394  0.3110  0.7925
  2994G12c H01P55447   1.604   8.034  11.782 -1.8042  1.9936  1.3006
  2994G12c C02R55448   1.762   7.815  11.838  1.2114  0.7058  1.8858
  2994G12c O00I55449   1.676   7.761  11.732  0.8525  0.3930  0.1045
  2994G12c C02Q55450   1.603   7.659  11.766 -1.1359 -0.5046 -0.1342
  2994G12c H01N55451   1.667   7.571  11.773  0.4756  0.6544  0.0213
  2994G12c H01R55452   1.536   7.636  11.684  1.0475 -4.2534 -0.9832
  2994G12c H01Q55453   1.592   7.647  11.874  5.4165  1.3269  0.9453
  2994G12c C02A55454   1.898   7.776  11.849 -0.4244 -1.0564 -1.6874
  2994G12c H01155455   1.963   7.714  11.788  1.3668  0.5585 -1.4722
  2994G12c C00C55456   2.186   7.354  11.797  0.5568  2.1251  1.6867
  2994G12c H01255457   2.152   7.295  11.881 -1.9054 -3.3680 -2.8522
  2994G12c C00B55458   2.239   7.293  11.687  0.8737 -1.4280  0.3838
  2994G12c C00A55459   2.244   7.143  11.672 -0.6010 -1.7911 -0.3704
  2994G12c C00955460   2.261   7.041  11.780 -0.4294 -0.3087 -0.3416
  2994G12c C00855461   2.279   7.059  11.924  0.0554  1.6954  0.2042
  2994G12c H01355462   2.259   7.139  11.992  1.3190 -1.7218  4.8415
  2994G12c C00755463   2.356   6.966  11.982 -0.0037 -0.2229  0.2873
  2994G12c H01455464   2.369   6.983  12.088 -4.1595 -1.3563  1.0717
  2994G12c C00655465   2.413   6.863  11.908 -1.0087  0.5842  1.4306
  2994G12c C00555466   2.400   6.860  11.767  1.7721  0.7874  0.9014
  2994G12c C00455467   2.473   6.786  11.679 -0.0389 -0.7385 -0.5019
  2994G12c C00355468   2.473   6.814  11.538  0.4392 -1.5830 -0.5604
  2994G12c C00255469   2.561   6.725  11.465  0.3341  0.0810 -1.5619
  2994G12c C00155470   2.586   6.702  11.320 -0.8157  0.7670  1.4714
  2994G12c C00M55471   2.610   6.817  11.236  0.8081  0.4321  1.1821
  2994G12c C00L55472   2.524   6.929  11.239 -0.3239  0.5920 -0.6609
  2994G12c C00R55473   2.547   7.061  11.198 -0.0936 -1.3480  0.7434
  2994G12c C00Q55474   2.654   7.128  11.116 -0.2806 -0.5910 -0.2993
  2994G12c C00V55475   2.614   7.264  11.077 -0.8519  1.4946  0.6178
  2994G12c C00U55476   2.529   7.334  11.155  0.1071 -0.2439 -0.1027
  2994G12c C00T55477   2.458   7.278  11.253 -0.5896 -0.2722 -1.0963
  2994G12c C01655478   2.396   7.355  11.360  0.4585 -0.0082 -1.0539
  2994G12c C01555479   2.375   7.489  11.341 -1.9246 -1.6101  1.3782
  2994G12c C01055480   2.453   7.554  11.244  1.7630 -2.3692 -0.6140
  2994G12c C01155481   2.425   7.692  11.216  0.7017  0.9793  0.1145
  2994G12c H00555482   2.461   7.734  11.123  3.9308  3.8623  2.5417
  2994G12c C01255483   2.355   7.772  11.309 -1.7854  0.6094  0.3082
  2994G12c C01755484   2.313   7.896  11.256 -1.0553  0.5532  0.9722
  2994G12c O00255485   2.245   7.892  11.137 -0.2164 -0.8328 -0.5715
  2994G12c H00455486   2.179   7.957  11.158  1.5621  1.7861 -2.7740
  2994G12c C01855487   2.334   8.012  11.340  0.4903 -0.4562  0.6262
  2994G12c O00155488   2.403   8.020  11.460 -0.1166 -0.6327  0.9492
  2994G12c H00355489   2.456   7.945  11.437 -3.3503 -3.8772  3.4648
  2994G12c C01955490   2.293   8.147  11.290  1.0138 -1.7255 -0.8078
  2994G12c H00255491   2.272   8.221  11.367  3.1911 -1.2407 -0.6717
  2994G12c H00155492   2.383   8.165  11.231  2.8500 -5.5431  0.6834
  2994G12c O00055493   2.187   8.129  11.214 -1.2093  0.4297 -0.0483
  2994G12c C01A55494   2.155   8.233  11.120  0.6773  1.3091  1.0534
  2994G12c C02K55495   2.226   8.239  10.995 -0.3312  0.6061  1.0026
  2994G12c O00G55496   2.336   8.166  10.969  0.4471 -0.7090 -0.6533
  2994G12c C02M55497   2.410   8.212  10.854 -0.3515 -1.4752  1.3087
  2994G12c H01G55498   2.344   8.176  10.775 -1.9417 -5.3936  4.2744
  2994G12c H01F55499   2.486   8.136  10.840 -1.6680 -2.8989  1.7630
  2994G12c H01E55500   2.440   8.316  10.842 -2.3191 -0.9208  1.0130
  2994G12c C02J55501   2.163   8.332  10.889 -0.9996  0.0760 -1.5399
  2994G12c H01H55502   2.166   8.298  10.786  0.7223  4.1553 -2.9760
  2994G12c C02I55503   2.038   8.404  10.918  0.1223  0.1666 -0.1219
  2994G12c C02N55504   1.978   8.459  10.808  0.0377  2.3963  1.4624
  2994G12c H01M55505   1.992   8.439  10.703  0.8953  1.2001  1.7944
  2994G12c C02O55506   1.882   8.548  10.809  2.2098 -0.8528 -1.0900
  2994G12c H01L55507   1.840   8.586  10.901  3.3398  0.9393 -1.2892
  2994G12c C02P55508   1.809   8.601  10.684  0.5016  0.9238  0.1249
  2994G12c H01K55509   1.872   8.585  10.597  3.5999  1.2106  2.2163
  2994G12c H01J55510   1.721   8.542  10.659  3.2167 -5.9509  5.1284
  2994G12c O00H55511   1.769   8.740  10.699  0.5055  0.4877  0.4690
  2994G12c H01I55512   1.785   8.772  10.786  1.2540  1.0419  0.1332
  2994G12c C02H55513   1.975   8.391  11.036 -2.0475  0.0250 -0.5358
  2994G12c H01C55514   1.890   8.427  11.092  3.1836 -0.0215  8.4164
  2994G12c C02L55515   2.038   8.303  11.135  1.0629 -1.3339  0.3975
  2994G12c H01D55516   1.992   8.309  11.233 -7.9737 -1.2168 -3.3975
  2994G12c C01355517   2.287   7.703  11.412  2.1335  0.5449 -1.9791
  2994G12c H00055518   2.259   7.772  11.491 -2.9952  2.8586 -5.4825
  2994G12c C01455519   2.298   7.568  11.436 -0.4805 -0.3184  0.2235
  2994G12c C00F55520   2.245   7.497  11.547  0.1761  2.7215  0.2956
  2994G12c C00H55521   2.323   7.290  11.456  1.2218 -0.2921 -0.7596
  2994G12c C00I55522   2.304   7.150  11.444 -0.5192 -0.4271  0.3504
  2994G12c C00J55523   2.364   7.077  11.338  1.0367  1.4904  0.8507
  2994G12c C00Z55524   2.520   7.478  11.135  0.0862 -0.7613  0.2242
  2994G12c C00Y55525   2.610   7.539  11.033 -0.6413 -1.8115  1.6881
  2994G12c H00655526   2.607   7.646  11.019 -3.3581 -2.0515 -0.0441
  2994G12c C00X55527   2.673   7.448  10.937  0.3183  0.1129  1.1135
  2994G12c O00355528   2.715   7.481  10.814 -0.3622  0.2915 -0.2273
  2994G12c C01B55529   2.838   7.568  10.834  1.4409  3.5328 -0.1859
  2994G12c H00955530   2.902   7.554  10.921 -0.7053  3.9980  1.5297
  2994G12c H00855531   2.895   7.550  10.743 -0.5750 -2.6983 -0.4535
  2994G12c H00755532   2.834   7.677  10.834 -3.0910  3.4609 -1.5956
  2994G12c C00W55533   2.679   7.308  10.967 -1.4672 -0.0808  1.4815
  2994G12c O00455534   2.764   7.218  10.897 -1.4266  0.2791 -0.9374
  2994G12c C01C55535   2.843   7.134  10.968 -0.1311  1.2325 -0.0201
  2994G12c H00A55536   2.927   7.172  11.023 -0.0590 -1.7555  2.0738
  2994G12c C00P55537   2.776   7.064  11.068  0.3987 -0.9872 -1.2911
  2994G12c C00O55538   2.821   6.926  11.118 -0.1846  0.4839 -0.9156
  2994G12c C01D55539   2.961   6.875  11.103  0.8405 -1.0231 -1.5626
  2994G12c H00S55540   3.050   6.900  11.047  0.8823 -4.1591 -2.9873
  2994G12c C01E55541   3.018   6.780  11.186  0.3906 -0.3578 -0.0394
  2994G12c O00855542   3.160   6.777  11.202 -1.1173 -1.2500  0.0312
  2994G12c C01V55543   3.245   6.677  11.147  0.8451 -1.3813 -0.4460
  2994G12c C01Z55544   3.372   6.663  11.236 -0.2741  0.9152  1.2691
  2994G12c H00R55545   3.384   6.555  11.248  2.6643 -0.2908 -8.2394
  2994G12c H00Q55546   3.476   6.673  11.203 -0.7411  2.0941  0.1165
  2994G12c O00955547   3.354   6.744  11.349 -0.5580  0.1200 -0.2369
  2994G12c H00P55548   3.282   6.783  11.302  2.0390 -3.9324 -8.5452
  2994G12c C01W55549   3.183   6.575  11.071  1.1368 -1.4526 -0.3025
  2994G12c H00O55550   3.087   6.586  11.023  3.0756 -4.1773 -5.2305
  2994G12c C01X55551   3.253   6.457  11.011 -0.4652  0.2459  0.9023
  2994G12c H00N55552   3.216   6.441  10.909 -2.5981 -6.8540  2.5095
  2994G12c H00M55553   3.360   6.475  11.018 -1.5979  8.6036  1.9042
  2994G12c C01Y55554   3.201   6.329  11.088  1.8272 -1.3251 -0.5887
  2994G12c C02D55555   3.075   6.279  11.094 -0.4889 -1.3893  1.6291
  2994G12c H01955556   2.990   6.339  11.066  4.6012  3.3789 -5.2248
  2994G12c C02C55557   3.044   6.173  11.176 -0.5262  0.3337  0.6529
  2994G12c H01A55558   2.948   6.125  11.166 -1.1491  1.2477  2.0876
  2994G12c C02B55559   3.154   6.127  11.252  0.9135 -0.9021 -2.5992
  2994G12c O00E55560   3.100   6.033  11.336  0.6331 -0.9064  1.3816
  2994G12c H01B55561   3.171   6.019  11.397  1.6431 -6.1074 -0.6702
  2994G12c C02F55562   3.251   6.219  11.286 -2.3310  0.3099 -1.2707
  2994G12c O00F55563   3.336   6.172  11.385  0.4465  1.1824 -0.1600
  2994G12c C02G55564   3.315   6.222  11.519  1.5158 -2.4196  2.9816
  2994G12c H01755565   3.411   6.206  11.567  8.0240  4.1649 -6.1710
  2994G12c H01655566   3.285   6.326  11.509  9.4858 -0.0372 -0.0867
  2994G12c H01555567   3.263   6.146  11.576  0.9819  0.5077  6.5388
  2994G12c C02E55568   3.296   6.301  11.189 -1.6946 -0.8111  0.5552
  2994G12c H01855569   3.398   6.334  11.205 -1.3296 -2.8695  2.7434
  2994G12c C01F55570   2.942   6.721  11.282  0.0112  0.6259  0.4208
  2994G12c C01G55571   2.995   6.659  11.396  0.9903  1.4482  0.7654
  2994G12c H00L55572   3.096   6.639  11.431  0.6770  0.2348  0.9887
  2994G12c C01H55573   2.892   6.610  11.489  1.5445  0.3408  0.9542
  2994G12c H00B55574   2.907   6.612  11.596  2.1130 -1.1290  0.9076
  2994G12c C01I55575   2.748   6.593  11.453 -0.5663 -1.8139 -0.1801
  2994G12c C01U55576   2.808   6.716  11.259 -0.1552 -2.0301  1.2555
  2994G12c C00S55577   2.457   7.141  11.268  0.3190  2.0133  0.5743
  2994G12c C00K55578   2.418   6.952  11.345 -0.0568  0.6055  0.0517
  2994G12c C00N55579   2.754   6.843  11.208  1.1311  1.0291 -0.6566
  2994G12c C00055580   2.711   6.642  11.324 -1.1053  0.2733 -0.9467
  2994G12c C01J55581   2.640   6.626  11.533  1.1816 -1.6960 -0.4614
  2994G12c C01K55582   2.649   6.612  11.680 -0.4441  1.5794 -1.0200
  2994G12c C01P55583   2.715   6.517  11.760  0.1884 -1.8514 -0.4990
  2994G12c C01Q55584   2.787   6.403  11.707 -1.2393  0.5922 -1.2160
  2994G12c H00G55585   2.854   6.390  11.624 -0.7184  0.0448 -0.7181
  2994G12c C01R55586   2.753   6.284  11.775  0.1294 -1.2775 -0.1233
  2994G12c H00F55587   2.697   6.303  11.865  3.7783  1.7288  1.6056
  2994G12c C01S55588   2.784   6.147  11.718  0.7923  1.0520 -1.3302
  2994G12c H00E55589   2.794   6.127  11.612  2.6969  1.2242 -1.1991
  2994G12c H00D55590   2.732   6.059  11.753  3.1213 -0.3550 -1.2980
  2994G12c O00555591   2.927   6.157  11.761  1.2590 -0.2235 -0.5960
  2994G12c H00C55592   2.944   6.245  11.791  0.3796  0.8536 -3.1108
  2994G12c C01O55593   2.732   6.548  11.894 -1.7595  0.0727 -1.3941
  2994G12c H00H55594   2.772   6.477  11.964 -3.9989 -2.9958 -3.0856
  2994G12c C01N55595   2.699   6.671  11.949  1.2288  0.9490  3.0105
  2994G12c O00655596   2.690   6.640  12.091 -1.1521  0.4357 -0.6572
  2994G12c C01T55597   2.648   6.747  12.180  1.0195  0.3834 -1.0136
  2994G12c H00K55598   2.540   6.756  12.185  0.7074 -1.7422 -3.1833
  2994G12c H00J55599   2.667   6.750  12.288  6.7185 -8.6236 -1.2237
  2994G12c H00I55600   2.672   6.845  12.141 -4.8223  2.9509  1.2978
  2994G12c C01M55601   2.611   6.743  11.874  1.0361 -1.4724  0.2629
  2994G12c C02055602   2.390   6.902  11.479 -0.6036 -0.2465  1.3248
  2994G12c C02155603   2.295   6.938  11.572  0.5383  1.9522  1.9725
  2994G12c C01L55604   2.582   6.718  11.742  2.7961 -0.1380  1.7711
  2994G12c O00755605   2.524   6.808  11.958  0.9954 -1.1982  0.6706
  2994G12c C02255606   2.280   6.918  11.707  0.1393  0.9664 -0.1131
  2994G12c C02355607   2.259   7.087  11.558  2.3891  3.2396  0.6216
  2994G12c C00G55608   2.259   7.355  11.557 -0.0592 -1.6977 -0.8523
  2994G12c C00E55609   2.161   7.547  11.649  1.3431 -0.5887  0.3534
  2994G12c O00A55610   2.107   7.671  11.634  0.5645  0.6397  0.4161
  2994G12c C02455611   1.987   7.655  11.552 -1.4856 -0.4969 -0.9310
  2994G12c H00V55612   1.955   7.552  11.565 -1.2968 -0.6505 -1.6419
  2994G12c H00U55613   2.012   7.655  11.446 -0.6857 -3.5952 -0.8005
  2994G12c H00T55614   1.927   7.743  11.576  0.0067  0.8393 -1.9750
  3004G12c C00D55615  12.433   5.689   4.668  0.4650 -0.3749 -2.1625
  3004G12c O00B55616  12.419   5.581   4.578 -0.3969  1.5209 -0.4167
  3004G12c C02555617  12.506   5.469   4.590 -0.1129 -0.4963 -0.8158
  3004G12c C02655618  12.628   5.465   4.497  0.3924  1.0788  1.1676
  3004G12c H00Y55619  12.672   5.370   4.470  6.9070  5.2209 -4.3727
  3004G12c H00X55620  12.590   5.520   4.410  0.4336  1.6914  1.5330
  3004G12c O00C55621  12.738   5.505   4.573  0.2364 -1.5509  0.4514
  3004G12c H00W55622  12.812   5.470   4.525  5.5392 -0.0927  6.7409
  3004G12c C02755623  12.499   5.391   4.702 -0.4254 -2.2399 -0.6149
  3004G12c O00D55624  12.396   5.386   4.786 -0.0668 -2.4584  1.2545
  3004G12c H00Z55625  12.312   5.366   4.747  0.8387  0.5861 -2.6245
  3004G12c C02855626  12.596   5.304   4.745 -1.4632  1.4978 -1.1815
  3004G12c C02955627  12.682   5.360   4.847 -0.1342 -1.5173 -0.5433
  3004G12c H01055628  12.633   5.434   4.908  0.7499 -0.6846 -0.8410
  3004G12c C02T55629  12.820   5.317   4.869 -1.3999  1.6274 -0.3304
  3004G12c H01O55630  12.871   5.344   4.961 -6.2130  1.6620  2.5324
  3004G12c C02S55631  12.862   5.210   4.794 -1.8932 -0.5506 -0.7062
  3004G12c O00J55632  13.006   5.198   4.806 -0.5042  0.3213  0.8407
  3004G12c H01P55633  13.042   5.171   4.889  1.9536  5.4219  1.6245
  3004G12c C02R55634  12.770   5.145   4.703 -1.4849  0.9036  0.2147
  3004G12c O00I55635  12.832   5.032   4.643 -0.6206 -1.7617  0.0271
  3004G12c C02Q55636  12.758   4.913   4.630 -1.0442  1.7160 -0.5368
  3004G12c H01N55637  12.839   4.840   4.636 -2.6896 -0.3082 -2.0830
  3004G12c H01R55638  12.703   4.896   4.538  5.2245  2.5698 -4.7130
  3004G12c H01Q55639  12.689   4.909   4.715 -3.1282  5.6986 -1.9077
  3004G12c C02A55640  12.641   5.196   4.675 -0.1082  2.6448  0.5133
  3004G12c H01155641  12.577   5.131   4.618 -2.1431  2.6016  2.7702
  3004G12c C00C55642  12.532   5.803   4.669  0.8136 -1.0365 -0.2568
  3004G12c H01255643  12.632   5.778   4.634  0.6313 -6.8620  2.7381
  3004G12c C00B55644  12.504   5.928   4.737  0.5812  0.9031 -0.4961
  3004G12c C00A55645  12.579   6.041   4.745  0.0919  0.1142  0.7870
  3004G12c C00955646  12.709   6.065   4.688 -1.7116  0.3831  1.1119
  3004G12c C00855647  12.820   5.974   4.721  0.4697  1.1609  0.8607
  3004G12c H01355648  12.827   5.876   4.675  4.3917  0.0217  3.5777
  3004G12c C00755649  12.941   6.013   4.779  0.9819  0.1448 -2.4149
  3004G12c H01455650  13.014   5.934   4.790  0.4771 -0.7106 -5.0376
  3004G12c C00655651  12.953   6.145   4.840  0.3240 -0.6463  0.3989
  3004G12c C00555652  12.837   6.219   4.821  0.2090  1.0578 -0.4243
  3004G12c C00455653  12.832   6.326   4.897 -0.7441 -0.4569  0.5804
  3004G12c C00355654  12.717   6.407   4.885  0.4912 -0.8798  1.6186
  3004G12c C00255655  12.713   6.529   4.968  1.5948 -0.1379 -0.0678
  3004G12c C00155656  12.611   6.612   5.032 -0.4802  0.7580  0.4273
  3004G12c C00M55657  12.507   6.549   5.103  2.1972 -0.3975 -1.7188
  3004G12c C00L55658  12.419   6.454   5.041 -0.2348  2.2069  0.3086
  3004G12c C00R55659  12.314   6.389   5.092 -0.2329  0.1941 -0.7222
  3004G12c C00Q55660  12.246   6.394   5.211  0.2638  1.1144 -2.2921
  3004G12c C00V55661  12.162   6.279   5.236 -2.3466  0.4502 -2.8421
  3004G12c C00U55662  12.133   6.182   5.144  2.5713  0.7463 -1.0799
  3004G12c C00T55663  12.181   6.181   5.016  1.3744 -1.2675  0.2258
  3004G12c C01655664  12.224   6.062   4.960 -0.9534 -0.5477 -0.9522
  3004G12c C01555665  12.159   5.949   4.988  1.6578 -1.3451 -0.6240
  3004G12c C01055666  12.065   5.953   5.102 -3.0575 -0.2626 -1.3681
  3004G12c C01155667  11.996   5.833   5.120 -1.2585 -0.6008 -1.3226
  3004G12c H00555668  11.933   5.832   5.208 -2.1782  4.5127 -1.8142
  3004G12c C01255669  11.985   5.730   5.029  1.0845 -0.3816  1.8217
  3004G12c C01755670  11.861   5.644   5.016 -0.0482 -0.1990  1.1179
  3004G12c O00255671  11.886   5.538   4.947  0.2777  0.6207 -0.0218
  3004G12c H00455672  11.815   5.478   4.964 -2.5714  4.4070  2.3418
  3004G12c C01855673  11.733   5.694   5.042  0.0289  0.2401  1.5554
  3004G12c O00155674  11.695   5.823   5.061  0.2126 -1.5430  1.3349
  3004G12c H00355675  11.662   5.807   5.148  1.5954  2.8034  2.8194
  3004G12c C01955676  11.597   5.609   5.014  0.5864  1.1080 -0.0122
  3004G12c H00255677  11.511   5.672   5.036  2.1935  2.0950  3.8204
  3004G12c H00155678  11.611   5.578   4.911  7.6729 -2.0362  1.5335
  3004G12c O00055679  11.574   5.479   5.089  0.3500  0.6750  0.1096
  3004G12c C01A55680  11.472   5.385   5.061 -3.2810 -0.7995 -0.5456
  3004G12c C02K55681  11.437   5.322   4.946 -0.9145  0.6982  0.3162
  3004G12c O00G55682  11.529   5.322   4.842 -0.2591 -0.0640 -0.4809
  3004G12c C02M55683  11.612   5.205   4.857  0.1156 -0.2007  0.1468
  3004G12c H01G55684  11.698   5.235   4.797 -0.9670 -2.0129 -2.4000
  3004G12c H01F55685  11.578   5.110   4.815  0.9063 -1.2048  1.6832
  3004G12c H01E55686  11.672   5.191   4.948  5.5476  1.8282 -2.8855
  3004G12c C02J55687  11.322   5.242   4.923  0.7275 -1.0021  0.5584
  3004G12c H01H55688  11.332   5.173   4.841  0.4850 -1.0167  0.5428
  3004G12c C02I55689  11.233   5.226   5.015  0.5526 -0.8334 -1.4120
  3004G12c C02N55690  11.108   5.141   4.971  0.3961  0.2547 -0.3821
  3004G12c H01M55691  11.069   5.132   4.871  2.7057  6.0742 -1.9910
  3004G12c C02O55692  11.030   5.078   5.072  0.9183  0.2707 -2.0354
  3004G12c H01L55693  10.946   5.030   5.023  3.1341 -6.0596 -0.1558
  3004G12c C02P55694  11.057   5.021   5.213  0.3286  1.9133 -0.9906
  3004G12c H01K55695  11.135   4.949   5.186 -2.2131 -0.2649 -2.7655
  3004G12c H01J55696  11.078   5.109   5.273 -4.4126  0.3575  3.3515
  3004G12c O00H55697  10.933   4.950   5.245 -0.1307  0.6845  0.0881
  3004G12c H01I55698  10.866   5.010   5.274 -2.8085 -2.6445  1.2349
  3004G12c C02H55699  11.262   5.282   5.151 -1.3774  0.4511  2.6524
  3004G12c H01C55700  11.208   5.260   5.242 -4.2846  1.3333  1.2264
  3004G12c C02L55701  11.397   5.350   5.170 -0.6895 -0.9856  0.5416
  3004G12c H01D55702  11.428   5.381   5.268  1.9221  4.7964 -1.8399
  3004G12c C01355703  12.088   5.729   4.940  0.6546  0.0717  1.9233
  3004G12c H00055704  12.107   5.642   4.879  0.0356  0.4811  1.1325
  3004G12c C01455705  12.186   5.832   4.916  0.2374 -0.8380  0.6657
  3004G12c C00F55706  12.300   5.822   4.828  1.3032  0.2315  0.2058
  3004G12c C00H55707  12.331   6.043   4.869  0.3608 -0.7719 -1.7617
  3004G12c C00I55708  12.388   6.173   4.833 -0.7732  1.7766  1.0571
  3004G12c C00J55709  12.376   6.293   4.901 -2.0875  1.3320 -2.2030
  3004G12c C00Z55710  12.070   6.062   5.192  0.5439 -0.7629 -0.4412
  3004G12c C00Y55711  11.996   6.072   5.301  0.2218 -1.2216  0.3395
  3004G12c H00655712  11.928   5.993   5.328 -3.6770  0.7744 -3.1124
  3004G12c C00X55713  12.021   6.165   5.412  2.0351 -0.9346 -1.0909
  3004G12c O00355714  11.952   6.182   5.518  0.3156  0.6286 -1.3206
  3004G12c C01B55715  11.845   6.103   5.566 -0.6449  0.6091  1.1918
  3004G12c H00955716  11.864   5.998   5.546  3.9576  1.1281  2.2973
  3004G12c H00855717  11.748   6.139   5.529 -1.1728  0.6770  2.6235
  3004G12c H00755718  11.818   6.123   5.670  1.3464 -4.0545  2.7083
  3004G12c C00W55719  12.127   6.251   5.380  0.6534  0.0414  0.6708
  3004G12c O00455720  12.148   6.346   5.479 -1.2007 -2.2872  1.3414
  3004G12c C01C55721  12.177   6.463   5.432  0.3741  1.9444  1.3451
  3004G12c H00A55722  12.116   6.546   5.465 -6.4820 -1.3269 -2.0219
  3004G12c C00P55723  12.270   6.469   5.324 -1.0614 -2.3211  1.6219
  3004G12c C00O55724  12.397   6.551   5.332  0.3602  0.6381  1.0292
  3004G12c C01D55725  12.418   6.607   5.463  0.1897  1.2146 -0.1009
  3004G12c H00S55726  12.340   6.596   5.537  3.8894 -1.0909  3.6852
  3004G12c C01E55727  12.546   6.638   5.509  1.4774  0.4737  0.9907
  3004G12c O00855728  12.552   6.681   5.637 -0.2821 -0.5599  0.5088
  3004G12c C01V55729  12.457   6.651   5.732  1.1613  0.3729 -0.7480
  3004G12c C01Z55730  12.511   6.525   5.809 -0.8087 -0.6751  0.3299
  3004G12c H00R55731  12.619   6.520   5.792 -0.9835 -2.0852 -0.4830
  3004G12c H00Q55732  12.502   6.514   5.917  1.7245  0.7111  0.7299
  3004G12c O00955733  12.419   6.427   5.749  1.9217  0.6916 -1.3097
  3004G12c H00P55734  12.391   6.350   5.797  4.9964 -0.8848 -1.9164
  3004G12c C01W55735  12.356   6.720   5.781  0.6418  1.8167  0.7002
  3004G12c H00O55736  12.327   6.770   5.690  2.1822 -2.8970 -2.5872
  3004G12c C01X55737  12.278   6.688   5.900 -0.9971  0.7558  0.0344
  3004G12c H00N55738  12.220   6.614   5.844 -0.2686 -0.6807  1.1771
  3004G12c H00M55739  12.348   6.633   5.962 -2.9539 -0.9807  0.7545
  3004G12c C01Y55740  12.166   6.781   5.942 -0.0511 -0.9877  0.9570
  3004G12c C02D55741  12.210   6.900   6.009 -0.1608 -1.7024  2.0451
  3004G12c H01955742  12.306   6.932   6.047 -1.3316 -0.5727  4.1593
  3004G12c C02C55743  12.126   7.017   5.996  0.2941 -0.7530 -0.9677
  3004G12c H01A55744  12.142   7.112   6.044 -1.4151  0.2579 -2.3697
  3004G12c C02B55745  11.995   7.001   5.940  2.5757 -0.4909  0.4751
  3004G12c O00E55746  11.886   7.074   5.959  1.3884  0.7419 -0.5265
  3004G12c H01B55747  11.836   7.011   5.910  0.6530  2.4453 -2.0554
  3004G12c C02F55748  11.949   6.873   5.901 -0.3878  0.9138  1.9752
  3004G12c O00F55749  11.815   6.844   5.868  0.6610 -1.1362 -1.0338
  3004G12c C02G55750  11.723   6.798   5.975 -0.3302  0.4815 -0.5641
  3004G12c H01755751  11.704   6.885   6.037 -5.9515 -1.5287  0.8398
  3004G12c H01655752  11.633   6.740   5.955  2.1965 -4.6685  2.0428
  3004G12c H01555753  11.765   6.750   6.062 -2.4010  1.1807  0.8631
  3004G12c C02E55754  12.029   6.767   5.891 -0.4757 -1.1471 -0.8001
  3004G12c H01855755  12.009   6.674   5.840 -6.5148  1.1565 -3.0484
  3004G12c C01F55756  12.645   6.666   5.405  0.7889  1.5675  0.4650
  3004G12c C01G55757  12.781   6.677   5.408  0.9460 -0.5265 -1.0297
  3004G12c H00L55758  12.830   6.686   5.504 -4.2398  1.7056  1.6188
  3004G12c C01H55759  12.851   6.676   5.290  0.9047  0.6065  1.0863
  3004G12c H00B55760  12.946   6.691   5.338  0.2425  6.7351  0.8797
  3004G12c C01I55761  12.797   6.664   5.151  0.0973  0.1600  0.0372
  3004G12c C01U55762  12.589   6.673   5.266 -1.3241  0.0512  2.5342
  3004G12c C00S55763  12.273   6.290   4.995  0.4351 -1.4306 -0.5839
  3004G12c C00K55764  12.476   6.383   4.934 -1.7460 -0.8197  1.6711
  3004G12c C00N55765  12.491   6.586   5.239  0.3493 -1.2506 -0.1976
  3004G12c C00055766  12.667   6.689   5.141  1.7422  0.6782  0.0002
  3004G12c C01J55767  12.830   6.586   5.025  0.3522  0.7012 -0.8233
  3004G12c C01K55768  12.951   6.515   5.013  0.0987  1.1990  0.0063
  3004G12c C01P55769  13.077   6.566   5.056 -1.2632  0.4891 -0.8651
  3004G12c C01Q55770  13.107   6.696   5.040 -0.3884  0.6535  0.4205
  3004G12c H00G55771  13.055   6.767   4.977  0.0514  0.7455  0.1543
  3004G12c C01R55772  13.157   6.779   5.137  2.6964 -0.5487 -0.8372
  3004G12c H00F55773  13.202   6.748   5.230 -3.1253 -4.2836  1.0356
  3004G12c C01S55774  13.165   6.935   5.116  0.5740  0.4545 -1.6626
  3004G12c H00E55775  13.171   6.958   5.010  4.8167  2.5987 -1.0372
  3004G12c H00D55776  13.089   6.983   5.178  7.5358  3.6920  5.1576
  3004G12c O00555777  13.285   6.976   5.194  0.9131 -1.0337  0.1272
  3004G12c H00C55778  13.294   6.916   5.267 -3.8502  3.6605  5.1130
  3004G12c C01O55779  13.173   6.478   5.072 -2.4990 -0.0663  2.1888
  3004G12c H00H55780  13.254   6.507   5.138 -0.4945 -1.2921  0.3402
  3004G12c C01N55781  13.186   6.362   4.995 -0.0070 -0.1300  0.8462
  3004G12c O00655782  13.292   6.280   5.029 -0.5389 -0.8456 -0.6603
  3004G12c C01T55783  13.427   6.333   5.008  1.1855  1.1212  0.2370
  3004G12c H00K55784  13.500   6.253   5.011 -3.6159 -3.6882 -2.8264
  3004G12c H00J55785  13.456   6.419   5.070  0.4129  3.1961 -2.1999
  3004G12c H00I55786  13.463   6.336   4.906  1.4211  1.2595  0.3235
  3004G12c C01M55787  13.066   6.314   4.940 -0.5899  1.1799  0.0066
  3004G12c C02055788  12.595   6.343   4.853 -0.0699 -0.5939 -1.9508
  3004G12c C02155789  12.599   6.259   4.742  0.4326  0.0050  0.8972
  3004G12c C01L55790  12.948   6.383   4.954  0.6699 -0.8263  0.0550
  3004G12c O00755791  13.057   6.183   4.928 -1.3898  1.0583  0.3789
  3004G12c C02255792  12.729   6.194   4.733  0.6631 -0.0045 -1.2206
  3004G12c C02355793  12.504   6.155   4.758 -0.5989  0.2937 -0.3652
  3004G12c C00G55794  12.375   5.930   4.807  0.0181 -0.9413 -0.1812
  3004G12c C00E55795  12.315   5.705   4.756 -0.6080 -0.2705 -0.2860
  3004G12c O00A55796  12.223   5.591   4.730 -0.0994 -0.5036 -0.2409
  3004G12c C02455797  12.144   5.607   4.610 -0.5184 -0.8847  1.0436
  3004G12c H00V55798  12.042   5.619   4.645 -0.8196 -0.3767  0.0238
  3004G12c H00U55799  12.162   5.531   4.534  0.1649  0.2161  0.0861
  3004G12c H00T55800  12.189   5.675   4.538  1.0402 -1.6912  1.2437
  3014G12c C00D55801   2.119   7.006   0.616 -0.4047 -1.2370 -0.7649
  3014G12c O00B55802   2.043   6.991   0.503  0.4268  0.4922  0.8510
  3014G12c C02555803   2.035   7.114   0.416  1.2439 -0.6524  0.2134
  3014G12c C02655804   1.995   7.255   0.459 -1.4407 -0.1396 -0.5027
  3014G12c H00Y55805   1.978   7.276   0.565 -2.6302  2.7692 -1.2128
  3014G12c H00X55806   1.910   7.298   0.408  5.0565  5.3375 -7.9311
  3014G12c O00C55807   2.106   7.346   0.432 -1.3173 -0.6585  0.0767
  3014G12c H00W55808   2.079   7.405   0.363  1.5425 -1.3317 -1.7396
  3014G12c C02755809   2.077   7.096   0.291 -0.8413 -1.6336 -1.1215
  3014G12c O00D55810   2.114   6.970   0.270  0.3094 -0.5556  0.7887
  3014G12c H00Z55811   2.118   6.929   0.356 -0.9403 -1.7532  0.2927
  3014G12c C02855812   2.058   7.184   0.175 -1.1435 -0.3545  1.2387
  3014G12c C02955813   2.173   7.258   0.135  0.6085 -0.4792  1.4525
  3014G12c H01055814   2.272   7.235   0.174 -0.3994 -1.5585  3.4253
  3014G12c C02T55815   2.161   7.382   0.066  0.1484 -0.1305  1.0640
  3014G12c H01O55816   2.251   7.442   0.076  3.1842 -4.3158  0.2330
  3014G12c C02S55817   2.055   7.424  -0.002  0.9715 -2.7765 -1.0080
  3014G12c O00J55818   2.066   7.526  -0.099  0.4891 -0.0935  0.0082
  3014G12c H01P55819   1.979   7.556  -0.117  0.8331  0.4083 -0.8633
  3014G12c C02R55820   1.932   7.350   0.028 -1.3948  0.7028  0.4103
  3014G12c O00I55821   1.815   7.350  -0.034  0.7308  1.6133 -0.5781
  3014G12c C02Q55822   1.770   7.483  -0.041  0.6168  0.5167 -0.1205
  3014G12c H01N55823   1.671   7.482   0.005  3.1185  4.8961  6.2769
  3014G12c H01R55824   1.786   7.542  -0.131 -1.6641 -3.1191 -3.0042
  3014G12c H01Q55825   1.837   7.545   0.019  5.0469 -4.2473  0.1159
  3014G12c C02A55826   1.938   7.232   0.114 -1.3573  0.5912  0.0958
  3014G12c H01155827   1.857   7.168   0.143 -5.7455  3.3327 -5.2285
  3014G12c C00C55828   2.211   7.106   0.649  0.3014  0.5905  0.4045
  3014G12c H01255829   2.207   7.196   0.590-11.1466  3.8233  4.8661
  3014G12c C00B55830   2.321   7.108   0.728  0.9919 -0.3126 -0.2502
  3014G12c C00A55831   2.431   7.191   0.738 -0.9213 -0.2491 -1.1666
  3014G12c C00955832   2.485   7.302   0.659 -1.1640  1.0090 -2.3434
  3014G12c C00855833   2.478   7.314   0.519  1.7289 -1.1637 -0.9491
  3014G12c H01355834   2.389   7.300   0.460  1.0076 -1.9145  0.3193
  3014G12c C00755835   2.591   7.275   0.438 -2.5503  1.6082  0.7148
  3014G12c H01455836   2.560   7.248   0.338 -4.5857  2.7806  0.9982
  3014G12c C00655837   2.718   7.282   0.497  1.4536 -0.9451 -0.8226
  3014G12c C00555838   2.723   7.284   0.628 -0.4049  0.1165 -0.2198
  3014G12c C00455839   2.848   7.266   0.695 -0.1769 -0.1557 -0.0898
  3014G12c C00355840   2.848   7.237   0.835  0.4902 -1.1795 -0.4085
  3014G12c C00255841   2.979   7.206   0.893  0.0158 -0.9414  0.7617
  3014G12c C00155842   3.010   7.153   1.017 -1.1338  1.1851  0.5659
  3014G12c C00M55843   2.954   7.040   1.088  0.6339 -0.8492 -0.6847
  3014G12c C00L55844   2.817   7.038   1.085 -0.7256 -0.8030  0.0362
  3014G12c C00R55845   2.740   6.918   1.121 -1.9970  0.2234 -0.7866
  3014G12c C00Q55846   2.774   6.785   1.150 -0.3955  0.2398 -0.0600
  3014G12c C00V55847   2.668   6.698   1.188  1.1952 -0.6350 -0.3433
  3014G12c C00U55848   2.530   6.726   1.156  0.8071 -1.7483  1.9411
  3014G12c C00T55849   2.510   6.847   1.085 -0.8110 -0.0509 -0.1981
  3014G12c C01655850   2.404   6.894   1.023 -1.0374  0.3366  1.2118
  3014G12c C01555851   2.311   6.799   1.022 -1.5257 -0.0650  0.7710
  3014G12c C01055852   2.305   6.686   1.115 -0.4192 -0.9432  0.5851
  3014G12c C01155853   2.179   6.619   1.122  0.0466 -0.3086 -1.0453
  3014G12c H00555854   2.200   6.531   1.181 -1.4675 -0.2612 -0.4181
  3014G12c C01255855   2.067   6.639   1.038 -0.7715 -0.1069 -0.9790
  3014G12c C01755856   1.952   6.555   1.014 -0.1507 -0.7115 -0.0884
  3014G12c O00255857   1.975   6.416   0.978 -0.3844 -0.1812  0.0837
  3014G12c H00455858   2.064   6.417   0.945  1.3336 -2.8588  4.2632
  3014G12c C01855859   1.830   6.610   1.002 -0.4457 -0.9025 -2.1867
  3014G12c O00155860   1.810   6.730   1.055  1.5751  0.3707 -0.2731
  3014G12c H00355861   1.717   6.744   1.044 -0.0735 -8.2757 -1.1620
  3014G12c C01955862   1.718   6.528   0.951 -0.2952  0.1513  0.2683
  3014G12c H00255863   1.736   6.535   0.844  1.2465 -5.5922 -0.0029
  3014G12c H00155864   1.720   6.421   0.974 -4.7819  0.6494  3.7503
  3014G12c O00055865   1.590   6.553   0.993 -0.0778  0.0095 -0.7117
  3014G12c C01A55866   1.495   6.619   0.913 -0.3041  0.1733  0.5763
  3014G12c C02K55867   1.385   6.533   0.860 -1.8696  1.8625 -1.0139
  3014G12c O00G55868   1.328   6.423   0.913  1.6854  1.1776 -0.6369
  3014G12c C02M55869   1.390   6.323   0.985  0.4178 -0.8999 -1.3068
  3014G12c H01G55870   1.333   6.247   0.930  0.3825  1.6232 -4.8958
  3014G12c H01F55871   1.366   6.313   1.091 -3.9974 -1.7491 -2.2716
  3014G12c H01E55872   1.489   6.298   0.946 -0.0834  2.2221 -4.8772
  3014G12c C02J55873   1.294   6.618   0.790  1.5439  0.4000  0.5975
  3014G12c H01H55874   1.196   6.572   0.786 -1.0933  5.6344  1.1922
  3014G12c C02I55875   1.306   6.742   0.734 -0.9564 -0.2987 -0.0065
  3014G12c C02N55876   1.201   6.777   0.629 -0.1158 -0.4587 -2.0883
  3014G12c H01M55877   1.131   6.846   0.584 -0.0516  1.9284  1.3145
  3014G12c C02O55878   1.221   6.707   0.518 -1.3285 -0.5561  0.7762
  3014G12c H01L55879   1.297   6.631   0.506 -1.2195 -0.2429 -0.6339
  3014G12c C02P55880   1.138   6.715   0.387 -0.7957 -1.4369 -1.0381
  3014G12c H01K55881   1.045   6.660   0.369 -0.7441 -1.5114 -1.0827
  3014G12c H01J55882   1.120   6.820   0.365  1.3048 -2.1594 -7.4155
  3014G12c O00H55883   1.193   6.725   0.255 -0.3671  0.0964  0.1646
  3014G12c H01I55884   1.283   6.748   0.270 -1.9413  6.0681  1.7233
  3014G12c C02H55885   1.443   6.782   0.758 -0.0636 -0.9889  0.6108
  3014G12c H01C55886   1.463   6.877   0.710 -1.9395 -0.3134  1.1064
  3014G12c C02L55887   1.535   6.729   0.849  0.3207 -0.3156 -0.4886
  3014G12c H01D55888   1.631   6.779   0.843 -2.0033  4.4343 -0.5971
  3014G12c C01355889   2.086   6.747   0.953  1.6853  0.3294  0.3525
  3014G12c H00055890   1.992   6.793   0.927 -1.7807 -3.4970  5.1960
  3014G12c C01455891   2.209   6.808   0.924 -1.1694  0.6317  1.4312
  3014G12c C00F55892   2.211   6.904   0.818  0.0776 -0.7838  2.3521
  3014G12c C00H55893   2.399   7.006   0.938  1.5001 -0.8391  0.7366
  3014G12c C00I55894   2.488   7.108   0.961  0.4853  0.4330 -0.3654
  3014G12c C00J55895   2.596   7.086   1.063 -0.0679  0.3236  0.0430
  3014G12c C00Z55896   2.431   6.630   1.161  0.6056 -2.3122 -0.2582
  3014G12c C00Y55897   2.455   6.522   1.242  1.5158  0.0975  0.9129
  3014G12c H00655898   2.377   6.458   1.282 -0.8513  2.2162 -0.1841
  3014G12c C00X55899   2.583   6.508   1.310  2.0940 -0.7327  0.2072
  3014G12c O00355900   2.607   6.400   1.387  0.2610  0.5936  1.3310
  3014G12c C01B55901   2.587   6.430   1.522  0.0521  0.5538  0.9953
  3014G12c H00955902   2.656   6.375   1.586 -0.3676  2.2940  3.0344
  3014G12c H00855903   2.491   6.434   1.573  2.6493 -1.2759  6.4908
  3014G12c H00755904   2.630   6.523   1.561  0.6738 -0.4085  2.6431
  3014G12c C00W55905   2.691   6.585   1.264 -0.1096  0.3092 -0.0471
  3014G12c O00455906   2.826   6.550   1.304  1.3900 -1.9815  1.5310
  3014G12c C01C55907   2.924   6.623   1.242 -1.8861 -0.7440 -0.0029
  3014G12c H00A55908   3.024   6.592   1.266 -0.9203  3.3709  1.7787
  3014G12c C00P55909   2.916   6.739   1.169  0.6016  1.2099  0.3336
  3014G12c C00O55910   3.043   6.796   1.123 -1.7142 -0.5633 -1.0926
  3014G12c C01D55911   3.158   6.719   1.077 -0.2677 -0.4857  1.7942
  3014G12c H00S55912   3.143   6.613   1.091 -0.0134 -0.6180  1.1031
  3014G12c C01E55913   3.268   6.774   1.007 -1.3025  0.4562 -1.0045
  3014G12c O00855914   3.387   6.703   0.964 -0.5681 -0.3768  0.4610
  3014G12c C01V55915   3.396   6.567   0.936 -1.0358 -1.0885  0.6211
  3014G12c C01Z55916   3.406   6.547   0.778  0.6158 -0.0740 -1.3223
  3014G12c H00R55917   3.440   6.447   0.752  4.0048  2.4475 -7.6313
  3014G12c H00Q55918   3.341   6.617   0.724  2.7279  2.2005 -1.0063
  3014G12c O00955919   3.518   6.627   0.757  0.8113 -0.9979 -0.5449
  3014G12c H00P55920   3.495   6.695   0.818  2.0661 -0.1907 -0.9574
  3014G12c C01W55921   3.448   6.477   1.016  0.9912  0.8069  0.7352
  3014G12c H00O55922   3.462   6.498   1.121 -4.9003  4.5433  1.0362
  3014G12c C01X55923   3.508   6.330   0.993 -1.7463  0.0140 -0.0343
  3014G12c H00N55924   3.600   6.341   0.935 -0.7009 -3.2852  0.8644
  3014G12c H00M55925   3.561   6.279   1.073  2.3374 -5.4019 -5.7133
  3014G12c C01Y55926   3.421   6.224   0.928 -0.2309  0.1892 -0.7345
  3014G12c C02D55927   3.293   6.258   0.918 -0.6361 -0.3489  0.2300
  3014G12c H01955928   3.262   6.331   0.991  6.1081  6.9940 -3.5484
  3014G12c C02C55929   3.227   6.217   0.816  1.2181 -0.6499  0.7228
  3014G12c H01A55930   3.137   6.276   0.805  2.5176  1.6028  1.8751
  3014G12c C02B55931   3.276   6.118   0.731  0.1720 -1.5664  0.5069
  3014G12c O00E55932   3.203   6.069   0.630  0.0581  0.3427  0.2870
  3014G12c H01B55933   3.161   5.988   0.655  0.3820  0.4468  1.1750
  3014G12c C02F55934   3.400   6.063   0.748  0.7146 -0.0458 -0.1074
  3014G12c O00F55935   3.433   5.945   0.685  0.1525  0.7433  0.0077
  3014G12c C02G55936   3.562   5.880   0.710  0.0170  0.5199  0.3392
  3014G12c H01755937   3.567   5.858   0.817  0.7546 -1.6819 -0.1110
  3014G12c H01655938   3.634   5.918   0.638  2.8915 -0.2292  2.7047
  3014G12c H01555939   3.531   5.779   0.684  2.2403 -0.7830  2.5002
  3014G12c C02E55940   3.466   6.112   0.862 -2.2870  1.0818 -0.2387
  3014G12c H01855941   3.574   6.108   0.859 -2.3802 -1.8901 -2.7692
  3014G12c C01F55942   3.263   6.910   0.990 -1.1233  0.3171 -0.8947
  3014G12c C01G55943   3.339   6.975   0.886  0.6988 -1.0552 -1.1023
  3014G12c H00L55944   3.397   6.906   0.826  5.3872 -0.7858  2.8203
  3014G12c C01H55945   3.300   7.090   0.819 -0.5915 -0.8660 -0.6215
  3014G12c H00B55946   3.344   7.124   0.726  5.5208 -4.8538  0.5227
  3014G12c C01I55947   3.198   7.173   0.875  0.2960 -0.2692  0.3364
  3014G12c C01U55948   3.171   6.996   1.051  0.1738 -0.9757 -1.0243
  3014G12c C00S55949   2.612   6.949   1.093  0.8103 -1.0346  0.1505
  3014G12c C00K55950   2.723   7.117   1.017 -0.1880  0.1357 -1.2276
  3014G12c C00N55951   3.054   6.940   1.107 -2.4720  0.5095  0.8138
  3014G12c C00055952   3.152   7.141   1.012 -0.1375  0.1307  1.7988
  3014G12c C01J55953   3.086   7.212   0.789  0.4976  0.3849 -0.5569
  3014G12c C01K55954   3.084   7.279   0.661 -0.7400  1.7848  0.4249
  3014G12c C01P55955   3.182   7.329   0.577 -0.7975  1.2930  0.6359
  3014G12c C01Q55956   3.317   7.372   0.627 -0.5699 -0.6639  1.4694
  3014G12c H00G55957   3.362   7.325   0.713  2.5377  0.1766  0.3915
  3014G12c C01R55958   3.385   7.466   0.569  0.7618 -0.9154 -0.8746
  3014G12c H00F55959   3.343   7.524   0.488  4.9044 -1.0562 -3.2715
  3014G12c C01S55960   3.513   7.531   0.628 -0.0468 -2.2643  0.2312
  3014G12c H00E55961   3.568   7.608   0.574 -4.9748  2.0802  0.9977
  3014G12c H00D55962   3.466   7.603   0.696  2.9270 -2.0511  2.1340
  3014G12c O00555963   3.568   7.452   0.735 -1.6462  0.2855  0.1477
  3014G12c H00C55964   3.647   7.412   0.703 -0.5870  1.9059  0.6871
  3014G12c C01O55965   3.171   7.335   0.432  0.2513  0.1107  0.6177
  3014G12c H00H55966   3.250   7.343   0.359 -2.9260  0.5879 -2.9232
  3014G12c C01N55967   3.041   7.302   0.385  1.5712 -0.5660 -0.1756
  3014G12c O00655968   3.053   7.270   0.261 -1.9806 -0.4963  1.5955
  3014G12c C01T55969   2.945   7.283   0.172  0.6366  0.8433 -0.4916
  3014G12c H00K55970   2.947   7.384   0.133  3.7724  0.9664 -0.1555
  3014G12c H00J55971   2.962   7.214   0.089 -0.7606  1.0283 -0.9367
  3014G12c H00I55972   2.850   7.242   0.204 -0.7914  1.4654 -3.8312
  3014G12c C01M55973   2.934   7.270   0.475 -0.8816 -0.9482  2.7596
  3014G12c C02055974   2.728   7.218   0.910  1.0924  0.5118  0.6709
  3014G12c C02155975   2.614   7.279   0.840  0.6070  0.1911 -0.7960
  3014G12c C01L55976   2.958   7.262   0.609  0.3356  0.3955 -0.7881
  3014G12c O00755977   2.820   7.281   0.414  0.1295  0.2513 -0.9997
  3014G12c C02255978   2.612   7.332   0.714  0.6162 -0.0012  0.4839
  3014G12c C02355979   2.492   7.210   0.858  0.0464  0.0784  0.6998
  3014G12c C00G55980   2.313   7.004   0.827  1.4357 -1.1069  0.9670
  3014G12c C00E55981   2.116   6.911   0.706 -0.2849  0.3142  0.1930
  3014G12c O00A55982   2.046   6.787   0.690 -0.6374  0.0008 -0.9324
  3014G12c C02455983   1.915   6.782   0.642  0.6732  0.6153  0.3525
  3014G12c H00V55984   1.830   6.730   0.687  0.7581  1.5219  1.5798
  3014G12c H00U55985   1.905   6.700   0.571  3.0358  4.5541 -4.8652
  3014G12c H00T55986   1.871   6.880   0.627 -0.9753  0.0270  1.2458
  3024G12c C00D55987   2.230   7.376  12.826 -0.4947  0.2458  0.8891
  3024G12c O00B55988   2.360   7.344  12.821 -0.3969  0.2913  0.4972
  3024G12c C02555989   2.445   7.413  12.906  1.6247  0.1209  1.5164
  3024G12c C02655990   2.547   7.515  12.855  0.3934 -0.1840 -0.8699
  3024G12c H00Y55991   2.547   7.609  12.909 -3.3740 -1.3717  1.3645
  3024G12c H00X55992   2.502   7.538  12.758 -0.5110 -2.6295 -1.0754
  3024G12c O00C55993   2.676   7.454  12.867  0.4902 -0.0444 -0.7330
  3024G12c H00W55994   2.721   7.492  12.793 -4.7925  0.5245 -3.9972
  3024G12c C02755995   2.479   7.371  13.034  0.2719 -0.8454 -1.7723
  3024G12c O00D55996   2.449   7.245  13.067  0.1669  0.4533  0.7245
  3024G12c H00Z55997   2.479   7.232  13.155  1.2805 -8.4630 -0.5209
  3024G12c C02855998   2.557   7.428  13.132  0.2557 -0.9224 -0.7859
  3024G12c C02955999   2.469   7.462  13.250 -1.2549  0.4702  1.1085
  3024G12c H01056000   2.369   7.425  13.264 -2.1894  3.3953  2.7206
  3024G12c C02T56001   2.545   7.543  13.346  0.1115 -0.4463  0.1774
  3024G12c H01O56002   2.481   7.558  13.431 -0.7713 -1.6408 -0.2629
  3024G12c C02S56003   2.689   7.558  13.346 -1.6161 -1.2521  0.0555
  3024G12c O00J56004   2.730   7.651  13.435  0.4507 -0.2808 -0.7692
  3024G12c H01P56005   2.807   7.696  13.405  0.0707  1.5958  0.9303
  3024G12c C02R56006   2.764   7.501  13.252 -1.7392 -0.6390  0.1439
  3024G12c O00I56007   2.893   7.566  13.222  0.4897  0.0515 -0.1797
  3024G12c C02Q56008   3.011   7.489  13.209  0.2897 -0.1841  1.5320
  3024G12c H01N56009   3.091   7.560  13.187 -2.5709  2.8417  0.3688
  3024G12c H01R56010   3.007   7.432  13.116 -2.1186  2.1055  0.1658
  3024G12c H01Q56011   3.026   7.394  13.260 -3.3518 -5.0349 -5.4912
  3024G12c C02A56012   2.698   7.420  13.147 -0.3693  1.0287  0.2804
  3024G12c H01156013   2.746   7.378  13.060 -0.0140 -2.3848  2.0058
  3024G12c C00C56014   2.165   7.264  12.844  0.1594  1.5028 -0.5319
  3024G12c H01256015   2.225   7.180  12.876 -0.0256  2.0769  1.3927
  3024G12c C00B56016   2.046   7.242  12.814  0.4358 -0.7037 -0.3190
  3024G12c C00A56017   1.970   7.130  12.812 -1.5378  0.2985  0.7498
  3024G12c C00956018   2.019   6.990  12.793 -0.3488 -1.2450 -1.0886
  3024G12c C00856019   2.155   6.930  12.784 -0.6650  0.1046 -1.8563
  3024G12c H01356020   2.232   6.950  12.857 -2.1268  5.5583 -1.5685
  3024G12c C00756021   2.167   6.809  12.709  0.1623 -0.5242  1.4709
  3024G12c H01456022   2.257   6.749  12.707  2.3733  2.6970 -2.3411
  3024G12c C00656023   2.052   6.766  12.645 -0.5698  0.2703 -0.9973
  3024G12c C00556024   1.927   6.829  12.655  0.1692 -0.2698 -0.2185
  3024G12c C00456025   1.810   6.807  12.582 -0.5919  2.3949  0.8498
  3024G12c C00356026   1.687   6.876  12.592  0.5457 -1.2412 -0.1199
  3024G12c C00256027   1.584   6.828  12.509  1.0913 -0.1533  1.4241
  3024G12c C00156028   1.460   6.890  12.461 -0.3405  0.7115  0.2781
  3024G12c C00M56029   1.437   7.036  12.442  0.0460 -0.0921  0.1312
  3024G12c C00L56030   1.522   7.138  12.498  2.5790  0.0151  0.2866
  3024G12c C00R56031   1.526   7.275  12.485 -0.1496  1.2280  0.3330
  3024G12c C00Q56032   1.479   7.364  12.380 -0.6355  0.8685 -0.5882
  3024G12c C00V56033   1.527   7.496  12.384 -0.3739  0.6273  0.0355
  3024G12c C00U56034   1.627   7.542  12.494 -0.4545 -0.0898 -0.4505
  3024G12c C00T56035   1.671   7.449  12.592  0.5661  0.4287  0.0285
  3024G12c C01656036   1.776   7.463  12.675 -0.1859 -0.0809 -0.8675
  3024G12c C01556037   1.824   7.590  12.686 -1.5702  0.8041  0.6255
  3024G12c C01056038   1.803   7.682  12.577 -0.5876  0.1077 -0.5255
  3024G12c C01156039   1.871   7.808  12.579  0.4549  0.2648  0.1890
  3024G12c H00556040   1.877   7.863  12.486  3.0165 -2.8669 -1.6047
  3024G12c C01256041   1.956   7.840  12.685  1.8714  0.0234 -0.4845
  3024G12c C01756042   2.030   7.959  12.703  1.9524  0.2923  0.8906
  3024G12c O00256043   2.047   8.044  12.591 -1.4695 -0.6655  0.8918
  3024G12c H00456044   1.996   8.124  12.596 -0.7438 -0.1779  0.5909
  3024G12c C01856045   2.071   8.025  12.823  1.0389  0.6428  0.8436
  3024G12c O00156046   2.054   7.965  12.953  0.8119  0.9797 -0.1208
  3024G12c H00356047   2.094   7.975  13.038  0.9439 -1.3543  0.1457
  3024G12c C01956048   2.123   8.175  12.833  0.7567 -1.1094  1.7601
  3024G12c H00256049   2.168   8.204  12.928  1.9426 -2.8324  1.7467
  3024G12c H00156050   2.173   8.220  12.748 -1.3680 -0.1060  1.0201
  3024G12c O00056051   2.027   8.277  12.787  1.5626  1.8327  0.0148
  3024G12c C01A56052   1.893   8.283  12.849  1.0429 -1.9321 -1.2947
  3024G12c C02K56053   1.885   8.308  12.994  1.0745  0.2165  0.9870
  3024G12c O00G56054   2.006   8.363  13.050 -1.0201  0.3599 -1.1721
  3024G12c C02M56055   2.069   8.462  12.984  1.9552 -0.6283  1.7550
  3024G12c H01G56056   1.990   8.530  12.953  1.0359 -2.7988 -0.9080
  3024G12c H01F56057   2.137   8.458  12.899  0.5707 -9.7534  0.5775
  3024G12c H01E56058   2.141   8.512  13.048  2.9506 -0.7630  0.7584
  3024G12c C02J56059   1.769   8.290  13.064  0.6007 -1.7681 -1.1569
  3024G12c H01H56060   1.772   8.312  13.170  1.9279 -3.2952 -0.8584
  3024G12c C02I56061   1.658   8.235  13.012 -0.6905 -1.1821  0.0712
  3024G12c C02N56062   1.545   8.209  13.096 -1.8351  1.4284  1.5112
  3024G12c H01M56063   1.506   8.125  13.152  0.7678 -1.1754 -0.3913
  3024G12c C02O56064   1.444   8.291  13.086 -1.5810  0.1264 -1.4854
  3024G12c H01L56065   1.353   8.290  13.144  1.3990  0.5695  3.4884
  3024G12c C02P56066   1.439   8.415  12.999  0.7091 -0.4014 -0.0020
  3024G12c H01K56067   1.492   8.501  13.042 -3.3334  3.2978 -2.0336
  3024G12c H01J56068   1.486   8.388  12.904  0.2319  2.5971 -1.1467
  3024G12c O00H56069   1.305   8.443  12.977  0.3562 -1.0684 -0.1263
  3024G12c H01I56070   1.271   8.408  12.895 -3.9358  3.4562 -0.5172
  3024G12c C02H56071   1.669   8.195  12.881 -1.0481 -1.0916 -0.3643
  3024G12c H01C56072   1.595   8.120  12.858 -1.4676 -2.1150  3.7864
  3024G12c C02L56073   1.797   8.207  12.803  1.1004  2.4722 -0.3032
  3024G12c H01D56074   1.788   8.189  12.696  0.8453 -3.5385  0.5589
  3024G12c C01356075   1.996   7.741  12.782  0.1650  0.3758 -1.2582
  3024G12c H00056076   2.093   7.753  12.828 -0.2922  2.0921 -0.7100
  3024G12c C01456077   1.936   7.612  12.774  0.9337  0.8379  0.7281
  3024G12c C00F56078   2.009   7.495  12.796 -0.0047  1.1182  0.3450
  3024G12c C00H56079   1.825   7.351  12.743 -0.0574  1.3503 -1.0322
  3024G12c C00I56080   1.757   7.234  12.755 -1.1448 -0.5147 -0.8961
  3024G12c C00J56081   1.640   7.226  12.676 -0.3304  0.7358 -0.5941
  3024G12c C00Z56082   1.701   7.660  12.482 -0.7830 -2.1329  1.7407
  3024G12c C00Y56083   1.658   7.751  12.377 -0.6240 -1.3229 -1.2199
  3024G12c H00656084   1.665   7.859  12.382 -0.0168 -1.3528 -1.3940
  3024G12c C00X56085   1.562   7.717  12.281  0.4399 -0.7727  0.3567
  3024G12c O00356086   1.536   7.829  12.213  0.2796 -0.9189 -1.4463
  3024G12c C01B56087   1.420   7.827  12.127  0.3233  0.2836 -0.1794
  3024G12c H00956088   1.319   7.788  12.129 -0.1563  1.1847 -3.3040
  3024G12c H00856089   1.366   7.921  12.134 -0.1729 -0.2460  3.9013
  3024G12c H00756090   1.468   7.824  12.029 -0.6266  2.0611 -0.7202
  3024G12c C00W56091   1.515   7.584  12.267  0.4826  0.3593  0.7508
  3024G12c O00456092   1.481   7.531  12.148  0.6928 -0.5912  0.4668
  3024G12c C01C56093   1.387   7.424  12.165 -0.9483  0.0016 -0.8218
  3024G12c H00A56094   1.288   7.408  12.126 -0.9826 -2.6489  0.2405
  3024G12c C00P56095   1.414   7.316  12.260  0.0077 -0.3473  2.1925
  3024G12c C00O56096   1.385   7.176  12.227  0.3323 -1.9848 -0.1275
  3024G12c C01D56097   1.352   7.154  12.094  2.4559  0.5426 -1.8609
  3024G12c H00S56098   1.323   7.231  12.024 -3.6345  1.0423  0.9092
  3024G12c C01E56099   1.376   7.023  12.024  1.8953 -0.3805  0.6250
  3024G12c O00856100   1.385   7.021  11.887 -1.0667  0.7356  0.4605
  3024G12c C01V56101   1.496   7.018  11.805  1.2432 -0.6316 -0.4773
  3024G12c C01Z56102   1.445   6.941  11.685  0.2122  0.0948  0.6990
  3024G12c H00R56103   1.347   6.895  11.692  0.8980 -1.8194 -1.4651
  3024G12c H00Q56104   1.415   7.025  11.622 -6.0059 -3.5601 -1.6229
  3024G12c O00956105   1.536   6.839  11.640  0.6234  0.5257  0.7089
  3024G12c H00P56106   1.530   6.829  11.546  5.0461  0.9317  0.3014
  3024G12c C01W56107   1.613   7.106  11.836  2.0544  0.4577  0.0316
  3024G12c H00O56108   1.602   7.132  11.940 -1.5135  5.3336 -1.3598
  3024G12c C01X56109   1.736   7.094  11.765  0.2523 -1.2201  0.2989
  3024G12c H00N56110   1.682   7.054  11.679  1.2256 -2.3834  0.2305
  3024G12c H00M56111   1.785   7.188  11.741  0.5743 -2.6612 -5.4146
  3024G12c C01Y56112   1.842   7.003  11.827 -0.1141 -0.7630  0.7084
  3024G12c C02D56113   1.892   6.883  11.761 -0.1331 -0.0716 -1.5979
  3024G12c H01956114   1.842   6.843  11.674  2.8821  0.3053 -3.5462
  3024G12c C02C56115   1.995   6.815  11.804  0.7843 -0.6688 -0.4083
  3024G12c H01A56116   2.049   6.756  11.732  0.4510 -0.9527 -0.4203
  3024G12c C02B56117   2.021   6.841  11.940 -1.0157 -2.2301  1.3141
  3024G12c O00E56118   2.089   6.733  11.994  0.4778  0.3675 -0.3033
  3024G12c H01B56119   2.152   6.769  12.054 -1.5782 -1.7459  3.2710
  3024G12c C02F56120   1.974   6.938  12.024  0.8708  0.1031 -1.7967
  3024G12c O00F56121   2.015   6.949  12.158 -0.0851 -1.9587 -0.0065
  3024G12c C02G56122   1.940   7.009  12.276  0.4070  0.0913 -0.0127
  3024G12c H01756123   2.005   7.061  12.346  0.3249  2.7614 -1.8327
  3024G12c H01656124   1.883   7.101  12.259 -1.2473 -0.4404  2.4319
  3024G12c H01556125   1.868   6.948  12.331 -5.8381  5.9845 -0.9416
  3024G12c C02E56126   1.894   7.030  11.963 -0.7095 -1.4319 -1.6795
  3024G12c H01856127   1.870   7.121  12.017  7.2820 -2.7700  5.1423
  3024G12c C01F56128   1.423   6.916  12.098 -1.3986 -1.6959 -0.4802
  3024G12c C01G56129   1.485   6.797  12.063 -0.4659  0.9531 -0.0993
  3024G12c H00L56130   1.483   6.774  11.957  0.0628 -5.3018  1.0449
  3024G12c C01H56131   1.552   6.716  12.157  0.7877 -2.0711 -0.3891
  3024G12c H00B56132   1.616   6.632  12.135  1.1199 -2.2978  1.3338
  3024G12c C01I56133   1.532   6.748  12.291 -0.9538  0.1144 -1.6859
  3024G12c C01U56134   1.407   6.938  12.231 -0.3756  1.3501  0.6020
  3024G12c C00S56135   1.611   7.325  12.585  0.4775  0.2283 -0.2116
  3024G12c C00K56136   1.591   7.109  12.614  1.1367  1.4261  0.2120
  3024G12c C00N56137   1.403   7.058  12.310 -0.2164 -1.0177 -0.9033
  3024G12c C00056138   1.429   6.835  12.330  0.0448 -1.3342 -1.4668
  3024G12c C01J56139   1.615   6.719  12.405  0.2978 -0.6508  0.3360
  3024G12c C01K56140   1.738   6.647  12.398 -0.1140  0.3370 -0.7081
  3024G12c C01P56141   1.762   6.507  12.345 -0.8928 -0.6217 -0.0434
  3024G12c C01Q56142   1.656   6.442  12.277  0.3171  1.3724  0.8754
  3024G12c H00G56143   1.655   6.422  12.171 -4.3948  4.1013  0.2811
  3024G12c C01R56144   1.570   6.373  12.357  1.3364  0.2276 -1.2444
  3024G12c H00F56145   1.569   6.390  12.464 -0.8200 -1.4825 -0.9467
  3024G12c C01S56146   1.448   6.290  12.290 -2.4188 -0.0140 -0.3701
  3024G12c H00E56147   1.417   6.214  12.361 -4.4617 -4.4152 -5.6045
  3024G12c H00D56148   1.391   6.329  12.206 -0.4617  1.3735 -1.1086
  3024G12c O00556149   1.510   6.175  12.219 -1.2585  1.3798  1.0653
  3024G12c H00C56150   1.437   6.130  12.180 -1.1429  5.7679 -4.8514
  3024G12c C01O56151   1.886   6.446  12.330  2.0442 -1.2756  0.7363
  3024G12c H00H56152   1.914   6.352  12.285  1.1043  0.6327 -4.1895
  3024G12c C01N56153   1.975   6.512  12.406 -0.3165  1.9686 -1.9480
  3024G12c O00656154   2.098   6.453  12.387  0.1390 -0.0758 -0.0833
  3024G12c C01T56155   2.177   6.444  12.263  1.1853 -1.0972  1.5536
  3024G12c H00K56156   2.129   6.486  12.174 -4.9526  1.3877  5.6752
  3024G12c H00J56157   2.193   6.338  12.245  2.6714 -0.5789 -0.2130
  3024G12c H00I56158   2.284   6.460  12.261  0.4753  4.7169 -3.1359
  3024G12c C01M56159   1.948   6.617  12.493  0.2955 -0.3010  0.4714
  3024G12c C02056160   1.680   7.000  12.660 -0.0242 -0.2721 -0.6639
  3024G12c C02156161   1.787   7.010  12.759 -0.4496 -0.3723 -1.5458
  3024G12c C01L56162   1.826   6.695  12.498 -0.0861 -1.4008 -0.6099
  3024G12c O00756163   2.061   6.642  12.577  0.0532  1.2240  0.5289
  3024G12c C02256164   1.894   6.932  12.749  0.6667 -0.8978  1.6807
  3024G12c C02356165   1.825   7.127  12.806  2.4784  0.9554 -0.3864
  3024G12c C00G56166   1.956   7.360  12.782  1.7912 -2.4275 -0.1230
  3024G12c C00E56167   2.161   7.492  12.814 -0.4209 -1.5871 -0.8107
  3024G12c O00A56168   2.248   7.587  12.783  0.6071  0.8576 -0.1719
  3024G12c C02456169   2.266   7.609  12.646  1.1629  1.3878  0.2772
  3024G12c H00V56170   2.192   7.683  12.616 -0.0322  0.6842  1.4097
  3024G12c H00U56171   2.242   7.526  12.580  2.7043  2.0025 -1.0613
  3024G12c H00T56172   2.362   7.648  12.613  2.8041 -4.7731 -2.8802
  3034G12c C00D56173  11.481  11.106  13.403  0.1965  0.0844  1.5226
  3034G12c O00B56174  11.574  11.188  13.323  0.6723 -0.4861 -0.3887
  3034G12c C02556175  11.687  11.266  13.386  0.2398  0.3077 -1.8353
  3034G12c C02656176  11.683  11.418  13.364  1.7245 -1.1730 -0.5612
  3034G12c H00Y56177  11.692  11.492  13.444  0.4147 -2.6927  1.0293
  3034G12c H00X56178  11.600  11.440  13.297  0.0704 -0.6190  1.5737
  3034G12c O00C56179  11.761  11.442  13.255 -1.2873  0.6771  1.3250
  3034G12c H00W56180  11.842  11.420  13.299 -2.3685  1.8446  3.9686
  3034G12c C02756181  11.779  11.229  13.474 -0.2378  0.4747  3.1007
  3034G12c O00D56182  11.817  11.101  13.473 -0.1699 -0.2420  0.7018
  3034G12c H00Z56183  11.909  11.108  13.493  0.8938 -4.2117 -2.3210
  3034G12c C02856184  11.865  11.336  13.517 -0.9345 -1.6401  0.8836
  3034G12c C02956185  11.852  11.378  13.642  0.4522  1.1629 -1.5209
  3034G12c H01056186  11.770  11.349  13.706 -1.8286  4.0320 -3.0274
  3034G12c C02T56187  11.931  11.484  13.694 -1.6012 -0.8135 -0.3738
  3034G12c H01O56188  11.922  11.522  13.795  6.4359  3.8255 -0.9957
  3034G12c C02S56189  12.015  11.560  13.616 -0.8470 -0.6669  0.2259
  3034G12c O00J56190  12.054  11.688  13.626 -0.6588 -0.5243 -0.2845
  3034G12c H01P56191  12.092  11.644  13.551 -2.1631  0.7805 -1.8632
  3034G12c C02R56192  12.024  11.508  13.472 -1.5903 -0.6150 -0.9780
  3034G12c O00I56193  12.133  11.559  13.406  0.3349 -0.8019 -0.0931
  3034G12c C02Q56194  12.091  11.671  13.300 -1.7819 -0.4907 -0.6598
  3034G12c H01N56195  12.033  11.615  13.226  2.8217  1.0300 -5.7101
  3034G12c H01R56196  12.182  11.689  13.244 -2.8228  1.8219 -1.6839
  3034G12c H01Q56197  12.071  11.777  13.315 -3.9585 -1.6998  7.4341
  3034G12c C02A56198  11.962  11.396  13.441 -1.4263  1.5082 -0.1633
  3034G12c H01156199  11.998  11.376  13.341 -4.0539  2.8216 -1.4167
  3034G12c C00C56200  11.501  10.987  13.444  0.0081 -1.2469 -0.5322
  3034G12c H01256201  11.599  10.957  13.412 -1.1250  2.8248 -9.3107
  3034G12c C00B56202  11.442  10.921  13.545 -0.3355  1.1659 -2.0968
  3034G12c C00A56203  11.493  10.800  13.614 -0.3043 -0.7481 -0.5370
  3034G12c C00956204  11.539  10.673  13.555  0.3392  2.2547 -0.9057
  3034G12c C00856205  11.569  10.645  13.431  0.6209  2.4019  0.6642
  3034G12c H01356206  11.619  10.716  13.367  5.0279 -2.7055 -1.9449
  3034G12c C00756207  11.549  10.517  13.370  1.3162  2.3875  0.8363
  3034G12c H01456208  11.581  10.464  13.281 -1.1652 -3.7642  3.3154
  3034G12c C00656209  11.508  10.406  13.453  0.4945  0.9751 -1.1993
  3034G12c C00556210  11.465  10.446  13.581 -0.5778  0.8249 -0.6126
  3034G12c C00456211  11.388  10.366  13.660  0.6262 -0.2204  1.7076
  3034G12c C00356212  11.315  10.434  13.770 -0.0911 -0.9283 -0.2099
  3034G12c C00256213  11.237  10.332  13.854 -0.6538 -1.1209 -0.6679
  3034G12c C00156214  11.145  10.355  13.964  1.2213  1.9178  0.6371
  3034G12c C00M56215  11.040  10.447  13.950 -0.3116 -1.4332  1.0306
  3034G12c C00L56216  11.077  10.579  13.891  1.6326 -1.3447 -0.4997
  3034G12c C00R56217  10.991  10.689  13.908  0.8772 -0.5356 -1.0158
  3034G12c C00Q56218  10.852  10.698  13.907  0.1605  0.1330 -0.8110
  3034G12c C00V56219  10.799  10.810  13.841 -2.0254 -1.0618  0.0945
  3034G12c C00U56220  10.887  10.928  13.804 -0.7214  0.5479  0.4315
  3034G12c C00T56221  11.021  10.906  13.793 -0.8439  1.2991  1.8436
  3034G12c C01656222  11.110  10.971  13.715  0.1401  0.5742  0.2837
  3034G12c C01556223  11.066  11.076  13.644 -1.4062  0.6075  0.5629
  3034G12c C01056224  10.941  11.134  13.675 -1.4421  1.1612 -0.2171
  3034G12c C01156225  10.907  11.267  13.638 -0.0368 -0.0530 -0.9508
  3034G12c H00556226  10.800  11.281  13.644 -0.0476 -1.0051  1.9015
  3034G12c C01256227  11.012  11.356  13.597  0.9501  1.1174  0.5137
  3034G12c C01756228  10.972  11.496  13.552  1.4567  1.2702  0.0454
  3034G12c O00256229  11.032  11.567  13.449 -0.2430 -0.0149  0.3694
  3034G12c H00456230  10.995  11.651  13.425 -3.5887 -1.9062 -1.4164
  3034G12c C01856231  10.905  11.555  13.649  0.4182 -0.9038 -1.0497
  3034G12c O00156232  10.912  11.494  13.776  0.9053  2.1372 -0.0105
  3034G12c H00356233  10.985  11.435  13.774 -0.5366  0.1588  2.7309
  3034G12c C01956234  10.841  11.680  13.669 -0.1082 -1.8926  0.6615
  3034G12c H00256235  10.749  11.625  13.684 -4.0502  3.5341 -1.7948
  3034G12c H00156236  10.862  11.723  13.767  3.2979  1.7645 -1.5082
  3034G12c O00056237  10.846  11.769  13.543  1.0839  0.3162 -0.6899
  3034G12c C01A56238  10.744  11.875  13.541 -1.1074 -0.4189 -0.5619
  3034G12c C02K56239  10.597  11.852  13.554 -1.3385 -1.0363  0.1980
  3034G12c O00G56240  10.529  11.734  13.519 -1.0974 -0.3281  0.6698
  3034G12c C02M56241  10.456  11.687  13.653 -0.7992  0.5357  0.6194
  3034G12c H01G56242  10.527  11.673  13.735 -1.5429 -3.0233  0.7699
  3034G12c H01F56243  10.419  11.585  13.636  0.5429 -0.0793  1.2881
  3034G12c H01E56244  10.376  11.741  13.704 -1.2271 -1.1198  1.7865
  3034G12c C02J56245  10.502  11.953  13.555 -1.7709 -0.4137 -0.4656
  3034G12c H01H56246  10.400  11.934  13.523 -2.4637  4.6902 -1.6338
  3034G12c C02I56247  10.556  12.074  13.569 -0.7105  1.1670  0.3731
  3034G12c C02N56248  10.469  12.176  13.576  0.1983 -0.0533 -0.0307
  3034G12c H01M56249  10.366  12.163  13.605  0.5671 -2.4483  0.3441
  3034G12c C02O56250  10.457  12.284  13.493  0.6008  0.8081  2.2406
  3034G12c H01L56251  10.544  12.295  13.430 -2.8232 -5.2122 -4.2162
  3034G12c C02P56252  10.333  12.340  13.445  0.3104 -0.5082 -1.5154
  3034G12c H01K56253  10.244  12.353  13.506  0.0658 -2.9719 -1.3037
  3034G12c H01J56254  10.371  12.442  13.451 -5.0446  1.4996  2.9117
  3034G12c O00H56255  10.286  12.269  13.329  0.9131  0.7492  0.0595
  3034G12c H01I56256  10.351  12.204  13.309 -1.1118 -0.8526 -1.6122
  3034G12c C02H56257  10.696  12.100  13.556  0.0387 -0.6553 -0.9637
  3034G12c H01C56258  10.754  12.189  13.536  2.5033 -1.2317  2.9669
  3034G12c C02L56259  10.788  12.007  13.519  0.3348  1.3803  1.8913
  3034G12c H01D56260  10.889  12.046  13.519 -0.1344  2.7484 -1.0936
  3034G12c C01356261  11.131  11.297  13.600 -1.7186 -1.1737 -0.2440
  3034G12c H00056262  11.223  11.352  13.590 -0.5501 -2.8476  0.9728
  3034G12c C01456263  11.165  11.152  13.600  2.0824 -2.5000  0.2558
  3034G12c C00F56264  11.279  11.093  13.543  0.5438  0.4561 -0.1628
  3034G12c C00H56265  11.246  10.929  13.704 -2.8269  1.8035 -0.7020
  3034G12c C00I56266  11.294  10.820  13.775  0.0680  0.2317 -0.4642
  3034G12c C00J56267  11.211  10.757  13.868 -0.1944  0.6336 -0.4103
  3034G12c C00Z56268  10.848  11.050  13.747 -0.7504  0.3725 -0.0941
  3034G12c C00Y56269  10.707  11.071  13.731  0.5528 -1.7933 -0.5136
  3034G12c H00656270  10.691  11.160  13.673  0.0886 -2.6142 -1.6780
  3034G12c C00X56271  10.616  10.973  13.789  0.4927  0.2364  0.5918
  3034G12c O00356272  10.498  11.032  13.805  0.3812  1.6600  1.4239
  3034G12c C01B56273  10.451  11.039  13.939  2.8239 -0.9045  1.9343
  3034G12c H00956274  10.531  11.038  14.013  6.2500  1.4423 -1.4995
  3034G12c H00856275  10.395  11.124  13.978  5.1243  1.6404 -0.0385
  3034G12c H00756276  10.403  10.945  13.962  2.5407 -1.0127  0.9325
  3034G12c C00W56277  10.664  10.843  13.827  0.0261 -0.2961  1.1628
  3034G12c O00456278  10.577  10.766  13.892 -0.7813  1.0417  2.6992
  3034G12c C01C56279  10.607  10.635  13.913  0.0411  0.1409  0.6797
  3034G12c H00A56280  10.515  10.593  13.875  0.9172  1.4309 -3.1106
  3034G12c C00P56281  10.739  10.591  13.924 -0.3367 -0.7730 -0.9119
  3034G12c C00O56282  10.775  10.448  13.935  0.7698  0.8451  1.2054
  3034G12c C01D56283  10.678  10.351  13.911  0.7790 -0.4318 -0.8113
  3034G12c H00S56284  10.590  10.386  13.861  1.0244 -3.0405 -3.2235
  3034G12c C01E56285  10.706  10.202  13.928  1.7126 -1.5405 -0.9124
  3034G12c O00856286  10.612  10.109  13.903  0.4954 -0.1577 -0.9847
  3034G12c C01V56287  10.590  10.032  13.777 -0.5980 -1.2183  0.4200
  3034G12c C01Z56288  10.593  10.079  13.642 -0.4386  0.5228 -0.2622
  3034G12c H00R56289  10.494  10.113  13.612 -1.6664 -0.5182  2.4584
  3034G12c H00Q56290  10.668  10.158  13.646 -0.3891  0.3875  2.1846
  3034G12c O00956291  10.664   9.997  13.545 -0.1321  0.3490  0.8179
  3034G12c H00P56292  10.660  10.049  13.466 -3.0761 -2.0032 -0.6827
  3034G12c C01W56293  10.542   9.904  13.799 -0.3505 -1.1271 -0.6829
  3034G12c H00O56294  10.515   9.886  13.902 -0.6791  4.6199  0.4123
  3034G12c C01X56295  10.505   9.777  13.725 -0.0597 -0.2628 -0.2350
  3034G12c H00N56296  10.404   9.756  13.762 -1.4000  4.1228 -1.0478
  3034G12c H00M56297  10.513   9.785  13.617  1.9546 -0.3655 -0.1021
  3034G12c C01Y56298  10.591   9.644  13.757 -1.2757 -1.2936  0.7461
  3034G12c C02D56299  10.526   9.514  13.738  0.7168  1.1825  1.3183
  3034G12c H01956300  10.421   9.490  13.738  2.4723 -8.6762  5.5223
  3034G12c C02C56301  10.603   9.404  13.754  0.7022 -0.7252  0.1974
  3034G12c H01A56302  10.555   9.308  13.744  2.4321 -1.3778 -2.4126
  3034G12c C02B56303  10.738   9.398  13.784 -0.1017 -0.3148  0.1433
  3034G12c O00E56304  10.821   9.294  13.752 -0.8757  1.4146  0.5040
  3034G12c H01B56305  10.891   9.355  13.735  2.2159 -2.1240 -0.1874
  3034G12c C02F56306  10.797   9.538  13.790 -1.3248 -0.7247  0.5826
  3034G12c O00F56307  10.930   9.541  13.783 -1.0497  0.4772 -0.3217
  3034G12c C02G56308  11.012   9.621  13.705  1.7780  0.0694 -0.6521
  3034G12c H01756309  10.988   9.590  13.603  1.6233 -5.1104  0.8163
  3034G12c H01656310  10.993   9.725  13.731  1.2891  0.4343 -2.3845
  3034G12c H01556311  11.116   9.654  13.700  3.0655 -3.9338 -2.2811
  3034G12c C02E56312  10.729   9.662  13.783  1.4256  0.7151 -0.1772
  3034G12c H01856313  10.770   9.762  13.784  6.5373 -1.2368 -2.4320
  3034G12c C01F56314  10.837  10.167  13.957 -1.7126  0.2236 -1.0503
  3034G12c C01G56315  10.885  10.036  13.894 -1.2232  0.3319  0.0562
  3034G12c H00L56316  10.830   9.944  13.879 -2.1938  1.5955 -4.9988
  3034G12c C01H56317  11.031  10.041  13.850  1.7280  0.2931 -0.2929
  3034G12c H00B56318  11.053   9.976  13.767 -1.6688 -0.0723 -0.9684
  3034G12c C01I56319  11.121  10.144  13.876 -0.8108 -0.0375 -0.1152
  3034G12c C01U56320  10.939  10.256  13.995  0.0568 -0.7000 -0.5670
  3034G12c C00S56321  11.069  10.797  13.873 -0.2706  0.0081 -0.9645
  3034G12c C00K56322  11.207  10.621  13.873 -1.4528  0.8903 -1.0699
  3034G12c C00N56323  10.913  10.394  13.965 -0.2005  0.1193  1.4101
  3034G12c C00056324  11.086  10.231  13.984  0.7071 -0.7757  0.2752
  3034G12c C01J56325  11.217  10.209  13.796  0.3720  0.5393  0.4803
  3034G12c C01K56326  11.278  10.154  13.678  0.5386 -0.0742  0.4718
  3034G12c C01P56327  11.299  10.018  13.652 -1.6050 -0.2995 -0.1031
  3034G12c C01Q56328  11.341   9.921  13.757  0.3830 -0.0971  0.1131
  3034G12c H00G56329  11.354   9.967  13.853 -0.2074 -7.4316  4.0351
  3034G12c C01R56330  11.357   9.794  13.738  2.3495 -0.5199 -0.4331
  3034G12c H00F56331  11.354   9.762  13.635 -0.1689 -7.7822  1.6064
  3034G12c C01S56332  11.423   9.700  13.840  0.6125 -1.4161 -0.8102
  3034G12c H00E56333  11.371   9.731  13.930  8.1768  3.6510  2.2708
  3034G12c H00D56334  11.362   9.618  13.801 -0.1360 -1.3487  0.2020
  3034G12c O00556335  11.562   9.708  13.840 -1.1330  0.4457  1.2423
  3034G12c H00C56336  11.577   9.651  13.914 -3.6448 -3.6118 -1.2341
  3034G12c C01O56337  11.341   9.979  13.518 -1.4384  0.8625 -0.2270
  3034G12c H00H56338  11.361   9.878  13.486 -0.1323  1.5046 -1.4973
  3034G12c C01N56339  11.400  10.065  13.430 -0.5499 -0.2548 -1.2748
  3034G12c O00656340  11.422   9.999  13.306  0.7861  0.1788 -0.1958
  3034G12c C01T56341  11.468  10.062  13.202  0.6219  0.7577  0.5663
  3034G12c H00K56342  11.387  10.135  13.204  2.1868  2.5247  2.5650
  3034G12c H00J56343  11.479   9.975  13.138 -2.9385  0.9894 -0.4425
  3034G12c H00I56344  11.560  10.120  13.198  0.5057  0.9573 -7.6076
  3034G12c C01M56345  11.430  10.198  13.479 -0.7647 -0.0072  1.3709
  3034G12c C02056346  11.332  10.565  13.822  1.5892  1.2637 -0.7461
  3034G12c C02156347  11.453  10.624  13.753  0.5312  2.9377  0.5244
  3034G12c C01L56348  11.364  10.248  13.611 -1.3277  0.4550  0.4868
  3034G12c O00756349  11.466  10.293  13.398 -0.7600 -2.0920 -0.5575
  3034G12c C02256350  11.512  10.580  13.641 -0.7953 -1.4205  1.2886
  3034G12c C02356351  11.428  10.764  13.734  1.8469 -0.4103  1.8723
  3034G12c C00G56352  11.328  10.970  13.600  0.1636  0.4300 -1.2556
  3034G12c C00E56353  11.358  11.162  13.442 -0.0464 -2.5295  0.2531
  3034G12c O00A56354  11.301  11.287  13.386 -0.9781 -0.4892  0.5310
  3034G12c C02456355  11.268  11.252  13.246 -0.2799 -0.8772  0.7641
  3034G12c H00V56356  11.232  11.149  13.237 -0.0886 -0.7929 -1.4645
  3034G12c H00U56357  11.353  11.251  13.177 -2.5972  3.9092 -2.3870
  3034G12c H00T56358  11.201  11.337  13.255 -1.2524 -1.8041  2.4645
  3044G12c C00D56359   0.040   8.503   9.295  0.3659 -0.1123 -1.8744
  3044G12c O00B56360  -0.092   8.489   9.295  0.1009  0.9976 -0.0236
  3044G12c C02556361  -0.148   8.349   9.294  0.1892 -1.1804  0.6129
  3044G12c C02656362  -0.234   8.282   9.405  0.6719 -0.6417  0.7155
  3044G12c H00Y56363  -0.335   8.267   9.368  2.5799 -2.5161 -4.2453
  3044G12c H00X56364  -0.235   8.376   9.460  1.2154  1.5786 -2.8682
  3044G12c O00C56365  -0.171   8.179   9.497 -0.8665 -1.0345  0.7173
  3044G12c H00W56366  -0.175   8.233   9.574  0.0145 -0.8908  0.6738
  3044G12c C02756367  -0.178   8.306   9.162  1.1981  0.2300  1.0695
  3044G12c O00D56368  -0.166   8.390   9.051  0.0141  0.0847 -0.5081
  3044G12c H00Z56369  -0.118   8.443   9.113 -3.1214 -0.7695  2.8391
  3044G12c C02856370  -0.232   8.167   9.149  0.2496  0.3126 -1.5216
  3044G12c C02956371  -0.335   8.131   9.049  0.0998  1.1017  1.5272
  3044G12c H01056372  -0.397   8.205   9.001  0.5244  0.5353  0.0824
  3044G12c C02T56373  -0.388   8.002   9.037  2.3139  0.6094  1.1580
  3044G12c H01O56374  -0.452   7.964   8.959  5.4972 -1.9676 -0.3325
  3044G12c C02S56375  -0.326   7.919   9.120  1.0897 -0.7230 -1.2132
  3044G12c O00J56376  -0.402   7.811   9.121  1.2574  0.4451 -0.4182
  3044G12c H01P56377  -0.417   7.777   9.209 -3.3250  0.9099 -0.9164
  3044G12c C02R56378  -0.227   7.941   9.213  1.7494  0.4064 -1.5819
  3044G12c O00I56379  -0.181   7.832   9.276  0.8205  0.6714  0.3789
  3044G12c C02Q56380  -0.116   7.831   9.395  0.3793 -0.9969 -0.0875
  3044G12c H01N56381  -0.119   7.928   9.445  0.1221 -4.3835  6.9600
  3044G12c H01R56382  -0.019   7.835   9.344  0.4987 -2.8011 -0.0246
  3044G12c H01Q56383  -0.138   7.748   9.461  4.8503 -0.1497  2.6605
  3044G12c C02A56384  -0.172   8.064   9.221 -1.2382 -0.2234  0.8253
  3044G12c H01156385  -0.087   8.097   9.278  0.8675 -2.5745 -0.8420
  3044G12c C00C56386   0.105   8.398   9.371 -2.0988  1.6600  1.9777
  3044G12c H01256387   0.075   8.301   9.409  6.9106 -4.5205 -4.4759
  3044G12c C00B56388   0.251   8.410   9.396 -2.2390  0.4745 -2.0009
  3044G12c C00A56389   0.341   8.316   9.455 -0.3979  1.0375 -1.2567
  3044G12c C00956390   0.325   8.209   9.559  0.3932 -0.8848 -0.5281
  3044G12c C00856391   0.236   8.180   9.667 -1.7244  0.5670  1.2911
  3044G12c H01356392   0.131   8.202   9.678 -2.7865 -1.3840 -3.4157
  3044G12c C00756393   0.284   8.102   9.772 -1.7125  0.0120 -0.1637
  3044G12c H01456394   0.230   8.063   9.857  2.0547 -0.0631  2.3351
  3044G12c C00656395   0.427   8.089   9.796  0.1267  1.1782  0.1275
  3044G12c C00556396   0.522   8.139   9.704  0.1229  0.3436 -0.8807
  3044G12c C00456397   0.656   8.138   9.727 -0.2797  1.3823 -1.7450
  3044G12c C00356398   0.738   8.205   9.651 -0.1762 -0.0913 -0.0445
  3044G12c C00256399   0.884   8.207   9.688 -0.7291 -0.4028 -0.6719
  3044G12c C00156400   1.002   8.266   9.629  0.5169  0.2311 -0.0115
  3044G12c C00M56401   0.992   8.405   9.568 -0.6149 -0.1262  0.7501
  3044G12c C00L56402   0.885   8.459   9.492 -0.4384  0.2671 -1.0927
  3044G12c C00R56403   0.850   8.600   9.459 -0.2403  0.2555  0.2981
  3044G12c C00Q56404   0.924   8.721   9.481  0.7438 -0.5474  0.8990
  3044G12c C00V56405   0.836   8.842   9.465  0.4729  1.9059 -0.6135
  3044G12c C00U56406   0.702   8.834   9.412 -1.0336 -0.3802 -0.6900
  3044G12c C00T56407   0.639   8.703   9.420  0.3005 -0.8394  0.8334
  3044G12c C01656408   0.508   8.687   9.355 -0.5654  0.4781  1.6929
  3044G12c C01556409   0.422   8.779   9.310 -1.4154 -1.6573  1.0969
  3044G12c C01056410   0.480   8.909   9.323  0.9264 -0.4017 -1.2776
  3044G12c C01156411   0.395   9.017   9.292  2.0999  0.7866  0.7696
  3044G12c H00556412   0.385   9.093   9.368  3.1671  3.4577 -1.6993
  3044G12c C01256413   0.275   8.993   9.218  0.9027  2.3370  0.3156
  3044G12c C01756414   0.204   9.058   9.102  0.3053  1.8560 -0.8335
  3044G12c O00256415   0.053   9.043   9.101 -0.0057 -1.2907 -0.8434
  3044G12c H00456416   0.004   9.095   9.038  4.2235  2.2702 -1.4594
  3044G12c C01856417   0.275   9.121   9.022 -2.0090 -0.0065  0.6681
  3044G12c O00156418   0.404   9.119   9.033 -0.5533 -0.0097  1.2927
  3044G12c H00356419   0.416   9.067   9.111  1.7274  2.3929  2.6457
  3044G12c C01956420   0.237   9.216   8.912 -0.3554  0.3880 -0.2060
  3044G12c H00256421   0.297   9.305   8.894  1.8973 -1.3774 -1.6806
  3044G12c H00156422   0.221   9.182   8.810  1.1359 -0.9252 -0.0283
  3044G12c O00056423   0.115   9.264   8.967 -1.5679 -0.1344  0.1272
  3044G12c C01A56424   0.011   9.318   8.893 -0.9646  0.6338 -0.3349
  3044G12c C02K56425  -0.119   9.272   8.905 -1.2952  0.4335 -0.5740
  3044G12c O00G56426  -0.151   9.155   8.979  0.4640  0.8351 -1.4485
  3044G12c C02M56427  -0.289   9.086   8.978  0.3629  0.0343 -0.1866
  3044G12c H01G56428  -0.378   9.141   8.947 -4.7718 -6.7892  1.4068
  3044G12c H01F56429  -0.295   9.051   9.081 -3.3698 -1.5772 -0.8616
  3044G12c H01E56430  -0.286   9.003   8.908 -3.0112  0.7882 -1.3187
  3044G12c C02J56431  -0.217   9.348   8.827  1.5211 -0.1151  0.2045
  3044G12c H01H56432  -0.318   9.347   8.865  2.1006  0.2645  1.8001
  3044G12c C02I56433  -0.185   9.446   8.728 -0.7249 -0.3183  0.1383
  3044G12c C02N56434  -0.290   9.488   8.647  0.0055 -1.4557  0.3244
  3044G12c H01M56435  -0.395   9.470   8.663 -0.4943  1.9024  1.2000
  3044G12c C02O56436  -0.264   9.530   8.526  0.1646  0.0994  1.5347
  3044G12c H01L56437  -0.181   9.593   8.497  0.9407  0.2927  4.0609
  3044G12c C02P56438  -0.380   9.570   8.444  1.9557  0.3784  1.0004
  3044G12c H01K56439  -0.465   9.555   8.511  2.2293 -0.4221  1.1786
  3044G12c H01J56440  -0.401   9.674   8.419 -1.9435 -1.1815 -2.9371
  3044G12c O00H56441  -0.391   9.516   8.308 -1.5618  0.2678 -1.3614
  3044G12c H01I56442  -0.309   9.476   8.331 -2.1171  2.4921  5.9640
  3044G12c C02H56443  -0.046   9.465   8.712 -0.8875  2.0321 -0.5052
  3044G12c H01C56444  -0.007   9.556   8.669 -4.0522  4.8361  2.2438
  3044G12c C02L56445   0.050   9.412   8.790 -0.1741  0.5607 -0.8410
  3044G12c H01D56446   0.156   9.432   8.794  1.3121 -4.6922 -6.6791
  3044G12c C01356447   0.213   8.862   9.228 -0.6255  0.5183  0.7386
  3044G12c H00056448   0.120   8.854   9.175 -0.5448  4.3206 -0.0681
  3044G12c C01456449   0.294   8.756   9.272  1.5148  0.0851 -1.6340
  3044G12c C00F56450   0.234   8.631   9.285 -0.0230  0.5640  0.5438
  3044G12c C00H56451   0.458   8.546   9.361 -0.2296 -0.9540 -0.7376
  3044G12c C00I56452   0.546   8.437   9.389  0.3200 -0.0155  0.7371
  3044G12c C00J56453   0.660   8.481   9.446 -0.3384  0.0772 -0.2854
  3044G12c C00Z56454   0.614   8.944   9.367  0.3133 -0.4541  0.1055
  3044G12c C00Y56455   0.676   9.076   9.373 -1.0252 -1.1716 -0.3575
  3044G12c H00656456   0.607   9.158   9.359 -3.1536 -3.1984 -2.2374
  3044G12c C00X56457   0.806   9.088   9.424 -0.3178 -0.6322  0.4864
  3044G12c O00356458   0.890   9.194   9.385  0.3180 -0.2388 -0.0226
  3044G12c C01B56459   0.839   9.287   9.303 -0.1554  1.4925 -1.2318
  3044G12c H00956460   0.778   9.236   9.230 -7.9920  3.9167  3.0484
  3044G12c H00856461   0.770   9.350   9.359  0.9491  0.5702  1.2520
  3044G12c H00756462   0.926   9.336   9.259 -0.0580  4.1129  1.7042
  3044G12c C00W56463   0.884   8.974   9.478  0.4154  0.2756  1.0410
  3044G12c O00456464   1.011   8.984   9.518  0.2756 -1.2305 -0.7667
  3044G12c C01C56465   1.049   8.887   9.599 -0.6992  1.7544 -0.3505
  3044G12c H00A56466   1.129   8.918   9.665 -1.3204  2.5327  0.0483
  3044G12c C00P56467   1.033   8.746   9.567  0.4408  0.5581 -0.6484
  3044G12c C00O56468   1.102   8.643   9.646 -0.2472  0.0677  0.9288
  3044G12c C01D56469   1.212   8.668   9.743  0.5941 -0.2491 -0.9811
  3044G12c H00S56470   1.240   8.772   9.735 -3.7981  0.7029 -7.8493
  3044G12c C01E56471   1.232   8.589   9.875 -0.8149 -0.2734  0.3886
  3044G12c O00856472   1.298   8.641   9.984 -0.7199  0.5903  0.4806
  3044G12c C01V56473   1.342   8.781   9.963 -0.6501  1.0069 -1.2525
  3044G12c C01Z56474   1.497   8.796   9.985  0.4415  0.0435  0.0833
  3044G12c H00R56475   1.569   8.714   9.985  2.2267  1.5928  0.9125
  3044G12c H00Q56476   1.520   8.857   9.897  6.7593  0.6446  1.9048
  3044G12c O00956477   1.507   8.898  10.076  1.0995  1.6522 -0.2987
  3044G12c H00P56478   1.444   8.968  10.073 -0.9675  0.6617  7.3729
  3044G12c C01W56479   1.272   8.889   9.922 -1.6078 -0.2551  0.2722
  3044G12c H00O56480   1.169   8.880   9.890  0.4092  1.0735 -7.6115
  3044G12c C01X56481   1.301   9.028   9.909  0.0013 -0.1229  1.7394
  3044G12c H00N56482   1.401   9.012   9.871 -0.6113  0.9034 -0.4039
  3044G12c H00M56483   1.222   9.068   9.845 -0.4691 -1.0603  1.7260
  3044G12c C01Y56484   1.262   9.085  10.044  0.0057  0.9311  0.1568
  3044G12c C02D56485   1.129   9.059  10.089 -2.1320 -0.4567 -1.5283
  3044G12c H01956486   1.062   8.985  10.047 -2.5238  2.9468 -7.4006
  3044G12c C02C56487   1.081   9.163  10.170  0.3759  0.7364  0.1162
  3044G12c H01A56488   0.984   9.149  10.216 -0.6762  3.8960 -0.9887
  3044G12c C02B56489   1.155   9.267  10.233  0.3720 -0.7299 -0.1048
  3044G12c O00E56490   1.099   9.349  10.325  0.3786 -0.6427 -0.2067
  3044G12c H01B56491   1.157   9.417  10.356 -0.9252  0.9716 -1.2552
  3044G12c C02F56492   1.281   9.273  10.192  0.5803 -2.1932  0.0641
  3044G12c O00F56493   1.354   9.383  10.245  0.4273 -1.6032 -0.6569
  3044G12c C02G56494   1.410   9.356  10.380 -0.7512  0.4393  0.3147
  3044G12c H01756495   1.496   9.299  10.345 -1.1111 -2.6127  4.0061
  3044G12c H01656496   1.360   9.289  10.450 -0.7664  0.7011  0.5531
  3044G12c H01556497   1.450   9.436  10.444 -0.3042 -1.1937  2.1412
  3044G12c C02E56498   1.339   9.199  10.079  2.2046  0.4294  0.6051
  3044G12c H01856499   1.432   9.168  10.034  1.7104 -2.5488  1.5487
  3044G12c C01F56500   1.183   8.462   9.861  0.9473  1.0249  0.2671
  3044G12c C01G56501   1.179   8.379   9.979 -0.3589 -1.7107  0.4266
  3044G12c H00L56502   1.196   8.427  10.075  5.8931 -0.7090 -0.9652
  3044G12c C01H56503   1.093   8.276   9.981  2.0208 -0.7171  0.7147
  3044G12c H00B56504   1.036   8.245  10.068 -6.6932 -0.1810 -4.2416
  3044G12c C01I56505   1.044   8.228   9.859 -0.7002  0.1321 -0.8142
  3044G12c C01U56506   1.146   8.411   9.738 -1.0606 -1.5049 -0.7383
  3044G12c C00S56507   0.723   8.601   9.412  1.1744  0.4253 -0.9164
  3044G12c C00K56508   0.756   8.384   9.489  0.7794 -0.5492  1.8847
  3044G12c C00N56509   1.080   8.498   9.638 -0.1966  0.0584 -0.2808
  3044G12c C00056510   1.088   8.287   9.736 -0.7809 -1.6307  0.8183
  3044G12c C01J56511   0.908   8.167   9.830  0.3498 -0.4992  0.3455
  3044G12c C01K56512   0.826   8.089   9.916  0.7052 -0.4772 -0.7734
  3044G12c C01P56513   0.853   7.998  10.016 -0.2211  0.3162 -0.4912
  3044G12c C01Q56514   0.980   8.008  10.069 -0.3816  1.4160 -0.7357
  3044G12c H00G56515   0.972   8.058  10.165 -2.5829  2.7588 -1.5769
  3044G12c C01R56516   1.082   7.952  10.017  0.0696 -0.4993  0.9700
  3044G12c H00F56517   1.075   7.900   9.923 -1.0908 -1.5743  1.6328
  3044G12c C01S56518   1.218   7.953  10.066 -1.9466 -0.2786  0.9216
  3044G12c H00E56519   1.287   7.899  10.002 -0.6049  2.7539 -0.2991
  3044G12c H00D56520   1.271   8.048  10.061 -3.2002  0.3580 -0.9746
  3044G12c O00556521   1.207   7.871  10.204  1.6350 -0.0824 -0.1371
  3044G12c H00C56522   1.256   7.793  10.224  0.6605 -1.2040 -1.9383
  3044G12c C01O56523   0.766   7.903  10.062 -1.0831 -1.3494  0.1366
  3044G12c H00H56524   0.817   7.820  10.109  4.2091  1.1212 -0.8231
  3044G12c C01N56525   0.630   7.896  10.027 -0.5278  1.6150  0.8624
  3044G12c O00656526   0.544   7.803  10.074 -1.1747 -0.2283 -0.5950
  3044G12c C01T56527   0.567   7.704  10.173 -0.6469  0.4578 -0.1740
  3044G12c H00K56528   0.655   7.652  10.135 -1.7272 -4.7543  3.9184
  3044G12c H00J56529   0.492   7.626  10.164  1.2437 -1.5006  0.4466
  3044G12c H00I56530   0.545   7.728  10.277  2.2691  0.0177  0.5914
  3044G12c C01M56531   0.591   7.986   9.925 -0.4638 -0.8142  0.2902
  3044G12c C02056532   0.687   8.260   9.528 -2.9312  1.2372  0.5901
  3044G12c C02156533   0.558   8.221   9.497  1.3785  0.3387  1.0882
  3044G12c C01L56534   0.695   8.066   9.850 -0.2235  1.0371 -0.2037
  3044G12c O00756535   0.461   8.001   9.907  0.9353  1.0990  0.2378
  3044G12c C02256536   0.463   8.163   9.585  0.1331 -0.7475 -0.1249
  3044G12c C02356537   0.480   8.311   9.417 -0.4393  0.0961  1.4223
  3044G12c C00G56538   0.320   8.523   9.350  1.2053 -1.9868 -0.6010
  3044G12c C00E56539   0.103   8.607   9.255 -0.4961  0.3093  1.0937
  3044G12c O00A56540   0.032   8.656   9.154 -0.4169 -0.3341  1.3922
  3044G12c C02456541   0.100   8.641   9.030 -1.8229 -0.1517  0.8350
  3044G12c H00V56542   0.145   8.543   9.011  2.2004  2.1705 -2.5638
  3044G12c H00U56543   0.150   8.724   8.979 -3.8691 -0.9972 -2.7332
  3044G12c H00T56544   0.013   8.642   8.964  2.2984 -0.1151 -5.0698
  3054G12c C00D56545   8.809   7.174   8.954 -0.4826  1.7490  0.0477
  3054G12c O00B56546   8.904   7.269   9.008 -0.8034 -1.0160 -0.4284
  3054G12c C02556547   8.864   7.346   9.113  0.7206 -1.6879  1.1758
  3054G12c C02656548   8.879   7.277   9.250 -0.7128 -1.6029  0.8758
  3054G12c H00Y56549   8.932   7.346   9.316 -0.6418 -3.5573  2.8735
  3054G12c H00X56550   8.960   7.206   9.232 -1.3475 -1.9354 -0.8381
  3054G12c O00C56551   8.773   7.243   9.345  0.4214 -0.3018  0.7465
  3054G12c H00W56552   8.693   7.233   9.296  0.2384 -1.3449  1.2589
  3054G12c C02756553   8.855   7.475   9.106 -1.2071  2.3673 -0.5505
  3054G12c O00D56554   8.880   7.535   8.992  0.3127  0.8318  0.5088
  3054G12c H00Z56555   8.867   7.467   8.926 -3.5174 -2.0081  3.8910
  3054G12c C02856556   8.787   7.557   9.207 -0.7268  0.1083  0.6023
  3054G12c C02956557   8.863   7.673   9.251  1.1701 -1.2049  0.4361
  3054G12c H01056558   8.947   7.714   9.197 -0.4762  2.1834  0.3256
  3054G12c C02T56559   8.789   7.753   9.334  1.4789  1.9997 -0.3842
  3054G12c H01O56560   8.830   7.844   9.374 -8.0157  7.1384 -0.7951
  3054G12c C02S56561   8.656   7.722   9.368  1.0666 -1.9533  0.6885
  3054G12c O00J56562   8.574   7.825   9.418 -0.5305  1.0531 -0.4042
  3054G12c H01P56563   8.622   7.860   9.491 -1.4162  4.3225 -1.2908
  3054G12c C02R56564   8.577   7.609   9.328 -0.4198 -1.4344 -0.3073
  3054G12c O00I56565   8.440   7.582   9.353 -0.3711  0.1879  0.9869
  3054G12c C02Q56566   8.379   7.480   9.276 -0.0090 -0.0835  1.3826
  3054G12c H01N56567   8.271   7.480   9.291 -0.0332  3.5005  1.8105
  3054G12c H01R56568   8.429   7.392   9.315  1.8419  1.3575  2.3363
  3054G12c H01Q56569   8.372   7.503   9.170  0.4923  4.0907  2.1411
  3054G12c C02A56570   8.646   7.539   9.238  1.4812  0.9405  0.2376
  3054G12c H01156571   8.604   7.445   9.207  0.4985  1.2455  0.6438
  3054G12c C00C56572   8.711   7.102   9.025 -0.0433  0.7702 -1.2048
  3054G12c H01256573   8.680   7.119   9.127 -2.6175  5.2943 -2.6208
  3054G12c C00B56574   8.647   6.988   8.970  0.0933  1.9438  1.9295
  3054G12c C00A56575   8.529   6.934   9.029  1.4611  0.3560 -1.3712
  3054G12c C00956576   8.520   6.880   9.168  0.9414 -1.7128  0.9177
  3054G12c C00856577   8.586   6.903   9.281  0.1670 -0.7362 -0.6540
  3054G12c H01356578   8.662   6.979   9.283  0.4035 -0.9883  1.0842
  3054G12c C00756579   8.566   6.857   9.403  0.7983 -1.2948 -0.0711
  3054G12c H01456580   8.623   6.891   9.488 -1.6217 -0.8904  1.4344
  3054G12c C00656581   8.502   6.723   9.408  0.7452  0.1893 -0.0192
  3054G12c C00556582   8.427   6.691   9.287 -0.5356  0.1421 -0.7639
  3054G12c C00456583   8.369   6.561   9.266 -0.4120  0.3821  2.1998
  3054G12c C00356584   8.322   6.527   9.139  1.3165 -1.7188  1.0602
  3054G12c C00256585   8.281   6.389   9.128  0.7632  1.6805  0.9015
  3054G12c C00156586   8.247   6.308   9.012 -0.5822 -0.5107 -0.2708
  3054G12c C00M56587   8.332   6.317   8.905  0.5312 -0.1377 -0.8051
  3054G12c C00L56588   8.356   6.435   8.831 -0.2169  1.1622 -1.5395
  3054G12c C00R56589   8.468   6.431   8.727 -0.4188  0.0505  1.8654
  3054G12c C00Q56590   8.557   6.331   8.674 -1.0360  0.2562  0.5588
  3054G12c C00V56591   8.659   6.394   8.592  0.6112 -0.6814  2.5076
  3054G12c C00U56592   8.696   6.518   8.589  0.6816  0.6042 -0.0720
  3054G12c C00T56593   8.641   6.616   8.657  0.6893  1.1890 -0.9566
  3054G12c C01656594   8.689   6.741   8.695  0.0404 -1.2154 -0.9566
  3054G12c C01556595   8.804   6.794   8.629  1.0336  0.2298  1.6320
  3054G12c C01056596   8.853   6.694   8.537 -1.2180  0.7905  0.5909
  3054G12c C01156597   8.958   6.752   8.473 -0.8919  0.0366  0.8414
  3054G12c H00556598   9.018   6.705   8.397 -0.8330  4.3088 -1.9303
  3054G12c C01256599   8.999   6.890   8.479  0.5350  1.1335  0.4228
  3054G12c C01756600   9.115   6.948   8.400 -1.8994  1.0062  0.3297
  3054G12c O00256601   9.090   7.070   8.345  0.0073 -0.7375  0.4157
  3054G12c H00456602   9.171   7.106   8.311  3.0016 -3.7038  3.9624
  3054G12c C01856603   9.235   6.888   8.389 -0.3847 -0.6984  1.6911
  3054G12c O00156604   9.253   6.772   8.458 -0.1898 -0.6641 -0.4520
  3054G12c H00356605   9.184   6.709   8.475 -1.2205  0.3613 -0.7022
  3054G12c C01956606   9.374   6.947   8.337 -0.0675 -1.4607  1.0278
  3054G12c H00256607   9.460   6.889   8.370  1.4146  0.1118  0.0345
  3054G12c H00156608   9.367   6.910   8.235 -0.4967  5.0392 -1.5377
  3054G12c O00056609   9.408   7.083   8.320 -2.4140 -0.0060 -0.5812
  3054G12c C01A56610   9.536   7.106   8.290 -0.2450  0.6553  0.4768
  3054G12c C02K56611   9.570   7.232   8.250 -1.8674 -1.5373  2.2591
  3054G12c O00G56612   9.479   7.332   8.268  0.4484  0.9899  0.8438
  3054G12c C02M56613   9.510   7.478   8.298 -0.1014 -2.0309  0.4498
  3054G12c H01G56614   9.553   7.531   8.212 -2.2399 -2.9285 -1.2213
  3054G12c H01F56615   9.413   7.528   8.292  0.1045 -1.7533 -0.7790
  3054G12c H01E56616   9.531   7.511   8.399  0.8926  0.0775 -0.4173
  3054G12c C02J56617   9.691   7.252   8.190  0.2608 -0.4452  2.2471
  3054G12c H01H56618   9.695   7.356   8.159  6.3364 -1.2142 -0.1797
  3054G12c C02I56619   9.796   7.166   8.179 -0.3160 -0.9473 -0.5572
  3054G12c C02N56620   9.932   7.203   8.122  0.1583  1.1788 -1.5639
  3054G12c H01M56621   9.985   7.137   8.055  3.7083  2.1250  0.2329
  3054G12c C02O56622  10.005   7.307   8.138  1.3962 -0.1958 -1.6012
  3054G12c H01L56623  10.090   7.322   8.073  0.4731 -0.4382 -2.8614
  3054G12c C02P56624   9.966   7.410   8.246  0.2804  0.5835 -1.3305
  3054G12c H01K56625   9.859   7.428   8.250 -1.0682 -6.3895  3.9495
  3054G12c H01J56626   9.987   7.371   8.346  1.9229  1.9483 -1.1200
  3054G12c O00H56627  10.039   7.527   8.243  0.4010  1.3779  0.5228
  3054G12c H01I56628  10.090   7.539   8.322  2.1994 -2.6972  0.1587
  3054G12c C02H56629   9.772   7.042   8.227 -1.1016 -0.6014 -0.6198
  3054G12c H01C56630   9.848   6.966   8.216  0.1439  1.0132 -3.9065
  3054G12c C02L56631   9.650   7.014   8.307 -1.8751  0.4837  0.8209
  3054G12c H01D56632   9.685   6.934   8.370  3.2841  3.4165  1.9945
  3054G12c C01356633   8.969   6.962   8.586 -0.5256 -0.9269  0.3620
  3054G12c H00056634   9.017   7.045   8.635  3.7413 -6.3526  6.1443
  3054G12c C01456635   8.848   6.924   8.658 -1.1414  1.2231  1.5887
  3054G12c C00F56636   8.800   6.984   8.770  0.2189 -1.2801 -0.2495
  3054G12c C00H56637   8.622   6.819   8.799 -0.6836 -1.8322 -0.7107
  3054G12c C00I56638   8.502   6.773   8.842  0.8976 -1.1391 -1.0276
  3054G12c C00J56639   8.446   6.641   8.800 -0.0749 -1.7673  0.1023
  3054G12c C00Z56640   8.809   6.572   8.524  0.7931  0.3048 -1.0871
  3054G12c C00Y56641   8.874   6.489   8.431  0.4052  0.9649 -0.0026
  3054G12c H00656642   8.952   6.510   8.360 -2.3532  0.4542 -3.3184
  3054G12c C00X56643   8.852   6.347   8.431 -0.5300  0.1395  0.5019
  3054G12c O00356644   8.916   6.260   8.334 -0.2305  0.3992  0.7372
  3054G12c C01B56645   9.055   6.257   8.321  0.5080 -0.9984 -0.5477
  3054G12c H00956646   9.077   6.362   8.337  1.2377 -1.6630  3.4241
  3054G12c H00856647   9.133   6.235   8.394  0.5719  0.0318 -0.2919
  3054G12c H00756648   9.096   6.212   8.230  1.0129-11.1892  3.9943
  3054G12c C00W56649   8.749   6.295   8.510  0.2398 -1.4522  0.5209
  3054G12c O00456650   8.719   6.162   8.516  0.6099 -0.2019  1.9229
  3054G12c C01C56651   8.646   6.104   8.613 -1.3659 -1.3946  0.0295
  3054G12c H00A56652   8.663   5.998   8.626 -3.3437 -2.5080 -5.3468
  3054G12c C00P56653   8.550   6.188   8.685  0.1964  0.2135  0.7370
  3054G12c C00O56654   8.475   6.129   8.789  1.4659  0.4246 -0.0557
  3054G12c C01D56655   8.486   5.990   8.810  0.3069 -1.1298 -0.5333
  3054G12c H00S56656   8.506   5.908   8.743  0.1284 -4.9194  3.8464
  3054G12c C01E56657   8.457   5.923   8.943  0.7664 -0.9667 -0.4775
  3054G12c O00856658   8.483   5.794   9.003 -0.8898  0.5520  0.8705
  3054G12c C01V56659   8.474   5.666   8.947  0.0143 -1.8522 -0.2567
  3054G12c C01Z56660   8.362   5.588   9.018 -0.5063 -1.0295  0.4886
  3054G12c H00R56661   8.391   5.584   9.123  7.4941 -2.9006 -1.5146
  3054G12c H00Q56662   8.270   5.641   9.047  1.7795  3.6549 -0.4281
  3054G12c O00956663   8.335   5.459   8.953 -0.5465  1.1157 -0.6762
  3054G12c H00P56664   8.405   5.476   8.891  3.8149 -3.4557  2.5888
  3054G12c C01W56665   8.568   5.610   8.857  0.8466 -0.2268  0.8792
  3054G12c H00O56666   8.624   5.698   8.827  3.4864 -1.2471  2.6395
  3054G12c C01X56667   8.583   5.486   8.793 -1.3874 -0.9153  1.5266
  3054G12c H00N56668   8.663   5.419   8.823  2.2998  2.1079 -1.0371
  3054G12c H00M56669   8.504   5.411   8.799 -2.1545 -0.8002 -4.3992
  3054G12c C01Y56670   8.589   5.511   8.649 -0.1732 -2.3110  0.1310
  3054G12c C02D56671   8.718   5.545   8.584  0.3436  0.2244 -0.0713
  3054G12c H01956672   8.803   5.513   8.642 -1.8360 -1.2313  2.3739
  3054G12c C02C56673   8.728   5.594   8.456  1.1692 -0.5424  0.2041
  3054G12c H01A56674   8.829   5.591   8.418  1.5333  2.0773  0.8916
  3054G12c C02B56675   8.609   5.621   8.406 -0.6936 -1.9900 -0.2490
  3054G12c O00E56676   8.591   5.667   8.278 -0.3817  1.0856 -0.4644
  3054G12c H01B56677   8.501   5.680   8.252 -0.6895  3.1148  1.3892
  3054G12c C02F56678   8.469   5.599   8.466 -1.6174  1.4405 -0.3736
  3054G12c O00F56679   8.362   5.649   8.405 -1.1821 -0.4458 -1.1098
  3054G12c C02G56680   8.360   5.788   8.379 -0.7853 -0.9416 -0.4120
  3054G12c H01756681   8.377   5.810   8.274 -2.6112  2.1168 -0.1365
  3054G12c H01656682   8.278   5.839   8.429 -2.9072 -0.4095 -4.2876
  3054G12c H01556683   8.399   5.861   8.450 -0.0311 -1.6538 -0.0860
  3054G12c C02E56684   8.464   5.548   8.593  0.3274 -0.1829 -0.4094
  3054G12c H01856685   8.379   5.498   8.637 -2.0807  2.4965 -1.8915
  3054G12c C01F56686   8.386   5.990   9.041 -1.5483 -0.4621 -0.1035
  3054G12c C01G56687   8.370   5.943   9.167  0.1472 -0.8910  1.3648
  3054G12c H00L56688   8.387   5.842   9.202  5.6921 -2.4770 -4.9856
  3054G12c C01H56689   8.327   6.054   9.255 -0.5625  0.5189  0.9785
  3054G12c H00B56690   8.369   6.055   9.354  2.4786  0.8501 -0.2692
  3054G12c C01I56691   8.283   6.167   9.212  3.0257 -0.0836  0.9174
  3054G12c C01U56692   8.328   6.109   8.997 -0.7674 -0.6812  0.1387
  3054G12c C00S56693   8.512   6.564   8.712 -0.3236 -0.8906 -1.1973
  3054G12c C00K56694   8.359   6.568   8.879 -0.8158 -0.9319  0.5630
  3054G12c C00N56695   8.377   6.182   8.874 -0.7630 -0.8356 -1.4790
  3054G12c C00056696   8.244   6.177   9.068  0.6302  0.4656  0.2110
  3054G12c C01J56697   8.280   6.302   9.248  0.6195 -0.6776  2.0363
  3054G12c C01K56698   8.315   6.339   9.378  0.5231  1.2974 -0.7753
  3054G12c C01P56699   8.305   6.267   9.498  0.2549 -0.0108  0.4312
  3054G12c C01Q56700   8.193   6.171   9.515 -0.4550 -1.0931 -1.0904
  3054G12c H00G56701   8.088   6.177   9.539 -0.9086  5.1000 -3.7051
  3054G12c C01R56702   8.224   6.043   9.568 -1.2744  1.9576  1.3587
  3054G12c H00F56703   8.328   6.013   9.570 -2.2364 -1.9084 -0.7209
  3054G12c C01S56704   8.116   5.947   9.615 -0.6853  1.7625  0.5973
  3054G12c H00E56705   8.158   5.862   9.560 -2.6848  4.5549 -5.6130
  3054G12c H00D56706   8.081   5.938   9.718 -1.2802 -0.0837  0.2498
  3054G12c O00556707   8.003   5.958   9.542  0.3987 -0.0426 -1.0850
  3054G12c H00C56708   8.017   6.016   9.469 -2.1563  3.9566  1.3700
  3054G12c C01O56709   8.355   6.318   9.620  1.0863 -0.5144 -1.7615
  3054G12c H00H56710   8.306   6.294   9.713  2.1348  2.8042 -0.2641
  3054G12c C01N56711   8.409   6.442   9.628  0.0540  1.2865 -0.6533
  3054G12c O00656712   8.442   6.501   9.746 -0.7206  0.6289  0.1735
  3054G12c C01T56713   8.574   6.458   9.801  1.2890 -1.4163  0.8257
  3054G12c H00K56714   8.669   6.437   9.750  4.2233  5.3385  2.9583
  3054G12c H00J56715   8.557   6.350   9.803 -0.2097 -1.5192 -5.8653
  3054G12c H00I56716   8.587   6.519   9.890  2.7248 -1.9620  1.0126
  3054G12c C01M56717   8.421   6.519   9.500 -0.7321 -0.5117  0.9147
  3054G12c C02056718   8.359   6.606   9.020  0.3169  1.6710  1.1646
  3054G12c C02156719   8.417   6.729   9.060  1.2149 -0.5158  0.4225
  3054G12c C01L56720   8.368   6.477   9.373  1.6278  0.3781  0.2626
  3054G12c O00756721   8.465   6.649   9.511  0.6251 -0.6605 -0.8942
  3054G12c C02256722   8.420   6.780   9.181 -0.2837 -0.3264 -2.0416
  3054G12c C02356723   8.449   6.833   8.966  0.9020  1.0797 -1.8795
  3054G12c C00G56724   8.680   6.931   8.840 -2.1295 -0.2185  0.7440
  3054G12c C00E56725   8.840   7.112   8.826 -0.4149 -0.6555 -0.7492
  3054G12c O00A56726   8.921   7.191   8.759  0.5399 -0.3170 -2.0753
  3054G12c C02456727   8.852   7.302   8.678 -0.5093 -0.1781 -1.1146
  3054G12c H00V56728   8.861   7.261   8.578  3.8112 -0.4127 -0.7488
  3054G12c H00U56729   8.747   7.274   8.690  1.1894 -6.0418  2.0150
  3054G12c H00T56730   8.900   7.400   8.685  2.1012 -1.3290 -2.4785
  3064G12c C00D56731  12.676  12.465   3.496 -1.9459  1.2726  3.0155
  3064G12c O00B56732  12.690  12.545   3.370  0.2483  1.0639 -0.8813
  3064G12c C02556733  12.662  12.501   3.252  1.8259  0.8236 -0.3586
  3064G12c C02656734  12.741  12.394   3.213  0.1875 -0.6050  0.9333
  3064G12c H00Y56735  12.744  12.302   3.272 -4.1025 -0.1513  2.0388
  3064G12c H00X56736  12.839  12.431   3.243 -0.2085 -1.5237  3.5688
  3064G12c O00C56737  12.776  12.339   3.078 -1.2030 -0.5190 -0.1538
  3064G12c H00W56738  12.723  12.368   3.005  0.6464 -3.6859 -2.9053
  3064G12c C02756739  12.547  12.550   3.198 -1.3993 -1.4807 -0.1884
  3064G12c O00D56740  12.479  12.627   3.285 -1.5556 -0.0537  0.3377
  3064G12c H00Z56741  12.520  12.688   3.226  3.2536 -2.9096  0.4694
  3064G12c C02856742  12.503  12.515   3.068 -1.0990  1.0025 -2.8262
  3064G12c C02956743  12.581  12.531   2.955 -0.6090 -0.0736  0.9724
  3064G12c H01056744  12.669  12.588   2.982  1.7884 -3.1179 -0.1150
  3064G12c C02T56745  12.496  12.530   2.838 -0.4592  0.6220  0.4887
  3064G12c H01O56746  12.540  12.560   2.744  4.4436  8.2884  4.7490
  3064G12c C02S56747  12.357  12.481   2.829 -0.9841 -1.0400 -1.2576
  3064G12c O00J56748  12.301  12.454   2.724 -1.5908  0.3592  0.1468
  3064G12c H01P56749  12.232  12.390   2.715  3.4858 -5.1033 -4.6342
  3064G12c C02R56750  12.311  12.425   2.952 -1.5290  2.0051 -0.0100
  3064G12c O00I56751  12.186  12.358   2.947 -0.0587  0.1726  0.5849
  3064G12c C02Q56752  12.055  12.420   2.960  1.2862 -0.3668 -1.3284
  3064G12c H01N56753  11.971  12.391   2.896  2.8145 -5.2945 -1.3216
  3064G12c H01R56754  12.070  12.525   2.936 -6.5127  0.9016 -2.1564
  3064G12c H01Q56755  12.008  12.385   3.052 -2.0596  5.5328 -0.5645
  3064G12c C02A56756  12.381  12.446   3.079  0.3654  1.1038  0.8435
  3064G12c H01156757  12.304  12.419   3.150  0.5831  3.1080  1.8963
  3064G12c C00C56758  12.568  12.370   3.509  0.3245  1.1258  0.3876
  3064G12c H01256759  12.531  12.336   3.413  5.0618  2.2000 -1.9622
  3064G12c C00B56760  12.554  12.317   3.652  0.2148 -0.1672  0.5921
  3064G12c C00A56761  12.458  12.222   3.692  1.2580 -0.9617 -0.5608
  3064G12c C00956762  12.319  12.220   3.636 -0.2137  1.7972  1.1417
  3064G12c C00856763  12.240  12.318   3.571 -0.3364 -0.6496 -0.1285
  3064G12c H01356764  12.284  12.402   3.518  3.7756 -0.1911  3.7495
  3064G12c C00756765  12.091  12.324   3.604 -1.3505 -0.7116  0.8152
  3064G12c H01456766  12.040  12.402   3.549 -3.9276 -3.3225 -0.6431
  3064G12c C00656767  12.029  12.247   3.706  0.7491  0.1881 -1.2095
  3064G12c C00556768  12.119  12.165   3.775 -0.6113 -0.1730  0.0246
  3064G12c C00456769  12.077  12.109   3.894 -0.4434  0.1210  1.8385
  3064G12c C00356770  12.175  12.079   4.000  0.3267  1.0323  2.1947
  3064G12c C00256771  12.127  12.019   4.115  0.7885 -1.1243 -1.3183
  3064G12c C00156772  12.176  11.986   4.256 -1.0068 -0.1221  0.5200
  3064G12c C00M56773  12.305  12.059   4.314  2.0714  0.4047  0.7049
  3064G12c C00L56774  12.400  12.115   4.226  1.1114 -0.2751  0.7736
  3064G12c C00R56775  12.509  12.198   4.261  0.9777 -1.8713 -1.7019
  3064G12c C00Q56776  12.515  12.279   4.376 -1.1670 -0.2605  0.8021
  3064G12c C00V56777  12.619  12.369   4.368 -1.8294  0.1619  0.5515
  3064G12c C00U56778  12.689  12.396   4.235 -0.4807 -0.6997 -0.6072
  3064G12c C00T56779  12.669  12.322   4.125 -0.5829  0.4433  1.6546
  3064G12c C01656780  12.707  12.332   3.992  0.3286  1.0600 -0.6657
  3064G12c C01556781  12.801  12.434   3.979 -1.3034 -0.1441  1.4336
  3064G12c C01056782  12.848  12.505   4.092 -0.8618 -0.3779 -0.0516
  3064G12c C01156783  12.960  12.582   4.087  0.7199 -0.7547 -0.1918
  3064G12c H00556784  12.994  12.650   4.164  3.7129 -0.8424 -1.3352
  3064G12c C01256785  13.045  12.585   3.961  1.4687  0.0542  1.2003
  3064G12c C01756786  13.160  12.671   3.941 -0.9027  1.7516 -0.9539
  3064G12c O00256787  13.169  12.762   3.835 -0.6764 -0.2011 -0.0866
  3064G12c H00456788  13.256  12.786   3.808 -0.3969 -0.2226  0.7679
  3064G12c C01856789  13.232  12.677   4.055 -1.4659  1.0620  1.0079
  3064G12c O00156790  13.238  12.570   4.148  0.2336  0.6296 -0.6719
  3064G12c H00356791  13.167  12.516   4.116 -1.0001  3.0828 -2.3122
  3064G12c C01956792  13.348  12.779   4.067  0.5147 -1.6545 -0.8010
  3064G12c H00256793  13.435  12.724   4.029  2.0803  2.1279 -2.9849
  3064G12c H00156794  13.326  12.869   4.009  1.1355 -1.6672 -1.0647
  3064G12c O00056795  13.409  12.815   4.190 -1.2140 -2.0491  1.4133
  3064G12c C01A56796  13.529  12.872   4.185 -0.0468 -0.0708  0.1444
  3064G12c C02K56797  13.632  12.807   4.260  2.1935  0.2442  1.6209
  3064G12c O00G56798  13.612  12.715   4.370  0.2820 -0.4088  0.2699
  3064G12c C02M56799  13.657  12.582   4.348 -0.7074 -2.5218  0.7445
  3064G12c H01G56800  13.656  12.552   4.243  3.8892 -3.0982  0.7929
  3064G12c H01F56801  13.765  12.576   4.360 -0.1520  2.1492 -0.6686
  3064G12c H01E56802  13.598  12.523   4.418 -3.4014 -2.5691 -1.4500
  3064G12c C02J56803  13.770  12.835   4.236 -0.7174 -1.5681  1.0542
  3064G12c H01H56804  13.828  12.749   4.267 -2.3229 -2.3268  1.9980
  3064G12c C02I56805  13.810  12.947   4.153 -0.2549 -2.2538 -0.1510
  3064G12c C02N56806  13.947  12.971   4.124  0.8789 -1.0319 -0.8920
  3064G12c H01M56807  14.024  12.995   4.196  1.8071  4.1633 -3.3988
  3064G12c C02O56808  13.985  13.026   3.999 -0.7768 -0.0137  1.1436
  3064G12c H01L56809  13.933  13.073   3.917  1.7275 -0.4907 -0.7870
  3064G12c C02P56810  14.128  13.017   3.960  0.3190 -0.0592 -1.4405
  3064G12c H01K56811  14.178  12.940   4.018 -1.4694  1.6563  2.5934
  3064G12c H01J56812  14.151  13.007   3.855 -0.5148  0.4288 -1.6790
  3064G12c O00H56813  14.216  13.117   4.005 -0.6158 -0.2384  0.2826
  3064G12c H01I56814  14.188  13.160   4.085  0.7198  1.6577 -0.2357
  3064G12c C02H56815  13.689  13.026   4.103  0.1454  1.1976 -1.3415
  3064G12c H01C56816  13.706  13.124   4.062  2.6807  2.8213  3.3278
  3064G12c C02L56817  13.556  12.976   4.096  1.4451  1.1593  0.4620
  3064G12c H01D56818  13.461  13.026   4.089 -0.3859 -2.3167 -0.6559
  3064G12c C01356819  12.977  12.539   3.855 -0.3194 -0.5559  0.2073
  3064G12c H00056820  13.012  12.570   3.758  1.9041 -4.9238 -0.5201
  3064G12c C01456821  12.849  12.461   3.853  0.0693 -0.5764  0.3227
  3064G12c C00F56822  12.762  12.428   3.737  2.5785 -0.6117 -1.6090
  3064G12c C00H56823  12.636  12.283   3.884  0.6521 -1.5872 -0.1836
  3064G12c C00I56824  12.546  12.180   3.911  0.2049 -1.8375 -0.3151
  3064G12c C00J56825  12.537  12.150   4.053 -0.2242 -0.4462  1.2118
  3064G12c C00Z56826  12.786  12.492   4.214  0.4371  1.7657 -0.5522
  3064G12c C00Y56827  12.822  12.568   4.332 -0.1649 -0.5239  1.1699
  3064G12c H00656828  12.868  12.665   4.318 -0.7050 -0.3128  0.8547
  3064G12c C00X56829  12.759  12.553   4.460  0.3547 -0.0612  0.4515
  3064G12c O00356830  12.830  12.607   4.564  0.1175 -0.9279 -0.9683
  3064G12c C01B56831  12.744  12.702   4.630  0.9150  0.8209 -1.1684
  3064G12c H00956832  12.759  12.775   4.709  2.7203  0.9861 -1.6397
  3064G12c H00856833  12.653  12.646   4.649  6.8430 -8.6935  3.1047
  3064G12c H00756834  12.749  12.779   4.552 -0.7983  5.5155  3.0785
  3064G12c C00W56835  12.656  12.460   4.468 -0.3063 -0.0049 -1.0060
  3064G12c O00456836  12.612  12.437   4.592 -0.5001  0.5108 -1.5745
  3064G12c C01C56837  12.476  12.381   4.592 -1.4749  1.0049 -0.6114
  3064G12c H00A56838  12.452  12.348   4.692  3.6523  3.5050  1.5948
  3064G12c C00P56839  12.435  12.289   4.501  1.0121 -0.3237  0.4466
  3064G12c C00O56840  12.299  12.239   4.503  0.3312 -0.1673 -1.9870
  3064G12c C01D56841  12.203  12.288   4.598 -0.9883  1.3685  0.8121
  3064G12c H00S56842  12.259  12.360   4.655  4.0917 -1.0235 -0.8439
  3064G12c C01E56843  12.060  12.261   4.604  1.1458  0.4720  0.5351
  3064G12c O00856844  11.961  12.332   4.681  0.2043  0.9090  0.0849
  3064G12c C01V56845  11.983  12.376   4.810  0.6427  0.5853  1.8146
  3064G12c C01Z56846  11.911  12.311   4.923  2.6538  0.2637  0.2449
  3064G12c H00R56847  11.841  12.260   4.857  3.1636  3.5635 -3.0021
  3064G12c H00Q56848  11.947  12.240   4.997  2.0945 -0.7614 -0.4567
  3064G12c O00956849  11.796  12.385   4.989  0.3554  0.2887  0.3890
  3064G12c H00P56850  11.758  12.433   4.917  1.6150 -0.0621 -0.5150
  3064G12c C01W56851  12.042  12.496   4.835  0.1265 -0.5202  1.9363
  3064G12c H00O56852  12.073  12.537   4.740  1.0144  6.5368  4.9956
  3064G12c C01X56853  12.061  12.574   4.968  0.5942  0.2468  1.2994
  3064G12c H00N56854  11.994  12.659   4.952 -0.6445 -1.6718 -4.7415
  3064G12c H00M56855  12.042  12.516   5.058  1.3600  0.7338  1.7851
  3064G12c C01Y56856  12.205  12.631   4.977  0.6468 -0.5972 -0.6035
  3064G12c C02D56857  12.222  12.766   4.973 -0.5582  0.0414  0.0854
  3064G12c H01956858  12.170  12.831   4.905  1.6634 -0.9782 -2.6806
  3064G12c C02C56859  12.350  12.823   5.006 -0.1536 -0.6175 -0.1917
  3064G12c H01A56860  12.368  12.929   5.001 -1.4695 -0.2781  1.6581
  3064G12c C02B56861  12.457  12.734   5.058  0.1537  0.6662  2.1378
  3064G12c O00E56862  12.572  12.785   5.099 -1.1846 -1.0419  1.5332
  3064G12c H01B56863  12.626  12.710   5.122  9.3976  4.3238 -2.1960
  3064G12c C02F56864  12.440  12.599   5.075  0.3583  0.2713  0.0162
  3064G12c O00F56865  12.523  12.512   5.140  0.3983  0.4825 -0.8363
  3064G12c C02G56866  12.632  12.489   5.060  1.5268 -0.1170  1.8955
  3064G12c H01756867  12.682  12.583   5.080 -0.5773  2.2054 -3.0453
  3064G12c H01656868  12.606  12.456   4.959 -2.0006 -0.6044  2.8752
  3064G12c H01556869  12.678  12.400   5.103  8.6702  0.2290 -3.9914
  3064G12c C02E56870  12.306  12.556   5.059  0.6379  0.3872  0.6249
  3064G12c H01856871  12.271  12.462   5.098 -2.9160  1.1892 -0.4273
  3064G12c C01F56872  12.011  12.156   4.514  0.6369  1.2543  1.7531
  3064G12c C01G56873  11.875  12.138   4.470 -1.1489 -1.0974  1.5182
  3064G12c H00L56874  11.791  12.194   4.507 -3.7508 -1.4758 -3.3800
  3064G12c C01H56875  11.833  12.055   4.349 -0.7648 -1.8471 -0.6556
  3064G12c H00B56876  11.733  12.064   4.309 -0.1442  0.5132 -1.7216
  3064G12c C01I56877  11.944  11.990   4.280  0.9911 -0.8022 -0.6256
  3064G12c C01U56878  12.106  12.074   4.439  1.3986 -0.6689  1.4463
  3064G12c C00S56879  12.596  12.212   4.147 -0.3481 -0.3936 -1.4335
  3064G12c C00K56880  12.416  12.094   4.081 -0.6880 -1.2779  0.5568
  3064G12c C00N56881  12.232  12.128   4.422 -1.2638  0.5306  1.4267
  3064G12c C00056882  12.063  11.995   4.342  1.2809  0.0162  0.5030
  3064G12c C01J56883  11.975  12.020   4.146 -0.2392  1.8574 -0.9311
  3064G12c C01K56884  11.879  12.029   4.034  1.3122  1.1448  0.1657
  3064G12c C01P56885  11.738  11.989   4.027  0.6955 -0.8706  1.5825
  3064G12c C01Q56886  11.648  11.943   4.119  1.0809 -0.2197  0.2838
  3064G12c H00G56887  11.562  11.997   4.156 -0.2045 -1.6985 -0.5255
  3064G12c C01R56888  11.616  11.814   4.122 -1.8503  1.3849  0.0767
  3064G12c H00F56889  11.682  11.761   4.056 -3.0927 -1.8415  1.3312
  3064G12c C01S56890  11.523  11.744   4.198  1.6525  0.2250  0.5797
  3064G12c H00E56891  11.453  11.785   4.271  0.9551  2.8611 -1.4925
  3064G12c H00D56892  11.473  11.680   4.125  4.3263  3.4326 -4.3575
  3064G12c O00556893  11.554  11.646   4.301  1.1331 -0.4615  0.6400
  3064G12c H00C56894  11.602  11.682   4.374  1.8499  2.1528 -1.0694
  3064G12c C01O56895  11.667  12.015   3.917  0.1924  1.3243  0.8933
  3064G12c H00H56896  11.560  11.996   3.915 -0.6739  5.1400  3.7961
  3064G12c C01N56897  11.709  12.105   3.820  0.1572 -0.8985 -0.9576
  3064G12c O00656898  11.597  12.157   3.761 -0.4285  1.7679  0.5902
  3064G12c C01T56899  11.615  12.159   3.620  0.2709 -0.0427  1.8853
  3064G12c H00K56900  11.652  12.076   3.559  2.3215  0.5805  2.2245
  3064G12c H00J56901  11.707  12.201   3.578 -1.1976 -3.6647 -5.9045
  3064G12c H00I56902  11.522  12.193   3.574 -0.1749 -2.3547  0.9932
  3064G12c C01M56903  11.845  12.131   3.816 -1.1049 -0.8867 -0.3147
  3064G12c C02056904  12.324  12.073   3.970 -0.3811  1.2258  0.1574
  3064G12c C02156905  12.341  12.080   3.833 -1.3617 -0.2874  0.4826
  3064G12c C01L56906  11.936  12.090   3.922  0.1632 -0.2250 -0.6510
  3064G12c O00756907  11.892  12.228   3.727  0.1746 -0.9032 -0.0387
  3064G12c C02256908  12.257  12.135   3.736 -0.4519 -0.8970  1.4795
  3064G12c C02356909  12.469  12.134   3.803  0.5070 -0.2736  0.1326
  3064G12c C00G56910  12.645  12.353   3.763 -1.8238 -0.1235  1.0497
  3064G12c C00E56911  12.757  12.494   3.609  0.9808 -0.7276 -0.3961
  3064G12c O00A56912  12.836  12.610   3.612  1.7566  0.0212  0.1974
  3064G12c C02456913  12.789  12.739   3.667 -1.0374  0.3438 -0.1977
  3064G12c H00V56914  12.751  12.801   3.586 -7.7532 -3.1125 -0.0999
  3064G12c H00U56915  12.869  12.809   3.689  0.8186 -0.4624 -3.9966
  3064G12c H00T56916  12.728  12.726   3.757  0.8279  0.5932  1.1266
  3074G12c C00D56917  12.202   5.497  13.043 -0.4405 -1.2101  0.7294
  3074G12c O00B56918  12.286   5.397  12.997  0.1812  0.3380  0.5291
  3074G12c C02556919  12.303   5.276  13.070 -0.1785  0.3186 -0.8533
  3074G12c C02656920  12.363   5.166  12.975  0.8303  0.1314  0.3523
  3074G12c H00Y56921  12.273   5.116  12.939  1.5515  0.6829 -2.3126
  3074G12c H00X56922  12.409   5.069  12.998 -2.8406 -2.3936 -2.3851
  3074G12c O00C56923  12.424   5.206  12.842 -1.5372 -0.7028  1.3967
  3074G12c H00W56924  12.465   5.136  12.794 -4.7521 -1.6154 -0.1805
  3074G12c C02756925  12.289   5.268  13.208  0.0881 -2.1438  0.7962
  3074G12c O00D56926  12.260   5.376  13.296 -0.7692 -0.4855  1.4095
  3074G12c H00Z56927  12.296   5.438  13.235 -5.4047 -0.8772 -1.9966
  3074G12c C02856928  12.291   5.149  13.281 -0.0550  0.0345  0.0190
  3074G12c C02956929  12.375   5.126  13.398  2.4304 -2.1957 -0.2562
  3074G12c H01056930  12.435   5.205  13.442 -7.4588  6.4319 -0.3242
  3074G12c C02T56931  12.361   5.005  13.465 -0.7832 -0.1003  0.0420
  3074G12c H01O56932  12.419   4.974  13.551  1.3884 -1.2559 -1.8227
  3074G12c C02S56933  12.246   4.919  13.437 -0.2435 -0.6116  0.5289
  3074G12c O00J56934  12.229   4.817  13.517 -0.2818 -1.6800  0.4148
  3074G12c H01P56935  12.197   4.737  13.479  0.3096 -2.4123  1.4128
  3074G12c C02R56936  12.167   4.935  13.322 -0.3574 -0.3609  0.3971
  3074G12c O00I56937  12.057   4.873  13.305  0.0495 -0.8857 -0.7900
  3074G12c C02Q56938  11.947   4.942  13.364  1.4807  0.2164  1.9760
  3074G12c H01N56939  11.932   4.903  13.465  2.4057  5.9070  4.5181
  3074G12c H01R56940  11.867   4.915  13.295 -1.9705  4.9479  3.8336
  3074G12c H01Q56941  11.968   5.049  13.372  3.6078  0.1705 -1.8929
  3074G12c C02A56942  12.179   5.057  13.252  0.7982  0.4542  1.3111
  3074G12c H01156943  12.098   5.101  13.196  1.6767  1.1189  0.5535
  3074G12c C00C56944  12.238   5.622  13.024 -0.5540 -0.5005 -0.4320
  3074G12c H01256945  12.316   5.634  12.950  2.2241 -0.0140  2.4575
  3074G12c C00B56946  12.160   5.738  13.038 -0.1075  0.9800 -0.4437
  3074G12c C00A56947  12.190   5.867  12.995 -0.9624 -0.9435 -0.9022
  3074G12c C00956948  12.308   5.947  13.047 -0.4423  1.3493 -0.7452
  3074G12c C00856949  12.430   5.915  13.122 -0.4492  0.4485  0.3159
  3074G12c H01356950  12.466   5.816  13.103 -4.4120 -1.1505  0.6186
  3074G12c C00756951  12.491   6.007  13.224  0.6427  0.2549  0.6527
  3074G12c H01456952  12.574   5.984  13.289 -2.2843 -2.2251  3.6785
  3074G12c C00656953  12.429   6.130  13.241  0.7110 -0.8233  0.9078
  3074G12c C00556954  12.318   6.155  13.160 -0.8761  0.1283  0.6421
  3074G12c C00456955  12.250   6.278  13.157 -1.5098 -1.4155  0.2782
  3074G12c C00356956  12.132   6.303  13.096  0.2750  0.8930  1.0524
  3074G12c C00256957  12.068   6.432  13.107  0.3191 -0.5029  0.5702
  3074G12c C00156958  11.928   6.472  13.103  1.7704  0.6898  0.3452
  3074G12c C00M56959  11.807   6.391  13.151  1.8203 -0.0993  0.5172
  3074G12c C00L56960  11.804   6.251  13.122 -0.3352  0.2780 -0.1552
  3074G12c C00R56961  11.739   6.163  13.196 -0.4782 -0.0465 -0.3512
  3074G12c C00Q56962  11.627   6.172  13.285 -1.2862  0.5338  1.2440
  3074G12c C00V56963  11.586   6.053  13.349 -0.1364  0.3612  0.6084
  3074G12c C00U56964  11.644   5.934  13.305  1.2919  1.5480  0.3627
  3074G12c C00T56965  11.740   5.922  13.217  0.1349 -0.5348 -0.2948
  3074G12c C01656966  11.825   5.811  13.194  0.2889  1.3438  0.6377
  3074G12c C01556967  11.811   5.699  13.268  0.8175 -0.2868 -0.8636
  3074G12c C01056968  11.690   5.692  13.340  0.8658  0.4925  0.7001
  3074G12c C01156969  11.655   5.559  13.404  0.2011 -0.0494  1.2917
  3074G12c H00556970  11.599   5.558  13.497  0.0303 -0.6584  1.1821
  3074G12c C01256971  11.746   5.461  13.400  0.3518  2.5873 -0.1918
  3074G12c C01756972  11.746   5.360  13.505  0.7325 -0.3523  0.6716
  3074G12c O00256973  11.743   5.394  13.635  0.8591 -0.0967 -0.6629
  3074G12c H00456974  11.761   5.486  13.651  0.3380  0.4816 -3.2312
  3074G12c C01856975  11.707   5.249  13.456 -0.2841  1.6014 -0.7697
  3074G12c O00156976  11.708   5.205  13.334 -0.0868 -0.5601  0.1671
  3074G12c H00356977  11.745   5.119  13.344  4.5530  1.1918 -0.7814
  3074G12c C01956978  11.647   5.150  13.545 -0.2256 -0.6650 -1.1919
  3074G12c H00256979  11.634   5.180  13.649 -1.1521  2.3750 -2.1366
  3074G12c H00156980  11.547   5.185  13.517  2.3059  5.9851 -2.6989
  3074G12c O00056981  11.698   5.015  13.524  1.4327 -0.9634  0.5154
  3074G12c C01A56982  11.785   4.976  13.621 -1.1890 -2.0859 -1.0442
  3074G12c C02K56983  11.785   4.834  13.662  0.0347  0.2006 -0.6149
  3074G12c O00G56984  11.712   4.758  13.572  0.0069  1.0684  0.2274
  3074G12c C02M56985  11.583   4.748  13.618  0.7065 -1.0195 -0.2134
  3074G12c H01G56986  11.521   4.837  13.626 -0.3859 -1.7294 -0.7174
  3074G12c H01F56987  11.571   4.712  13.721 -4.7462  0.1740 -0.2819
  3074G12c H01E56988  11.559   4.664  13.553  3.7871 -4.2816  2.5564
  3074G12c C02J56989  11.871   4.797  13.757  0.2889  0.7784  1.1719
  3074G12c H01H56990  11.895   4.695  13.784 -2.5495  1.3197  6.2833
  3074G12c C02I56991  11.924   4.887  13.852  0.5696 -1.0237  0.5571
  3074G12c C02N56992  11.986   4.829  13.958 -0.5063 -0.7596 -0.3920
  3074G12c H01M56993  11.958   4.870  14.054 -2.2370  0.1704 -1.2719
  3074G12c C02O56994  12.097   4.747  13.939  1.2054 -0.4727  0.9543
  3074G12c H01L56995  12.129   4.719  13.840  0.0284  4.2691 -0.9011
  3074G12c C02P56996  12.134   4.679  14.073  0.7817 -1.3887 -1.0963
  3074G12c H01K56997  12.046   4.622  14.105  0.5382 -2.2025 -3.1284
  3074G12c H01J56998  12.166   4.576  14.089 -1.0987 -2.0148 -1.1837
  3074G12c O00H56999  12.243   4.736  14.125 -0.1624  0.7251 -0.0578
  3074G12c H01I57000  12.227   4.819  14.082 -2.6356  2.0741  3.1561
  3074G12c C02H57001  11.938   5.023  13.818  0.2139 -0.6809  1.1480
  3074G12c H01C57002  11.999   5.103  13.859 -1.8309  3.7394 -3.8532
  3074G12c C02L57003  11.865   5.061  13.702 -0.4916 -0.3666  0.3141
  3074G12c H01D57004  11.874   5.168  13.690 -2.0314 -0.0781  1.5867
  3074G12c C01357005  11.857   5.470  13.326 -1.4058 -0.4501 -1.3806
  3074G12c H00057006  11.934   5.396  13.340 -2.9954 -1.6786  1.2485
  3074G12c C01457007  11.885   5.582  13.235  0.0690 -0.0453 -1.5780
  3074G12c C00F57008  11.993   5.585  13.150 -1.0447  0.4458 -0.2232
  3074G12c C00H57009  11.933   5.823  13.094  0.1431  0.2733 -0.5506
  3074G12c C00I57010  11.960   5.945  13.039 -1.1866  0.1092 -2.0439
  3074G12c C00J57011  11.852   6.049  13.042  0.3801 -0.1441 -0.6911
  3074G12c C00Z57012  11.612   5.810  13.369 -1.9525  1.1121  0.3658
  3074G12c C00Y57013  11.492   5.795  13.440  0.7383 -1.4341 -1.2544
  3074G12c H00657014  11.442   5.699  13.444 -2.7214  0.3503 -0.7670
  3074G12c C00X57015  11.415   5.909  13.469  0.7364 -0.1336  0.1168
  3074G12c O00357016  11.308   5.897  13.549  1.3518  0.4011  0.1444
  3074G12c C01B57017  11.339   5.858  13.690  0.1910 -1.0831 -0.3463
  3074G12c H00957018  11.441   5.824  13.672  1.5026 -0.5734  5.2927
  3074G12c H00857019  11.261   5.783  13.691 -0.0634 -0.8203 -0.1733
  3074G12c H00757020  11.324   5.953  13.743 -0.2862 -2.1839  1.5310
  3074G12c C00W57021  11.473   6.043  13.428 -1.9610  0.4074 -0.8148
  3074G12c O00457022  11.383   6.141  13.432  1.2528 -1.3620  0.3413
  3074G12c C01C57023  11.417   6.258  13.349  1.0764 -0.2304  0.1589
  3074G12c H00A57024  11.332   6.317  13.319 -3.2004 -4.9652  2.1404
  3074G12c C00P57025  11.554   6.277  13.324 -1.9678 -0.6998  1.5937
  3074G12c C00O57026  11.613   6.414  13.312 -1.1392 -0.8183  0.3389
  3074G12c C01D57027  11.562   6.508  13.420  0.9325 -0.9147 -0.0440
  3074G12c H00S57028  11.489   6.497  13.499 -3.7059  6.0332 -2.8904
  3074G12c C01E57029  11.667   6.592  13.462  0.9350 -2.2737  0.8555
  3074G12c O00857030  11.654   6.641  13.583  0.5894  0.6685  1.0840
  3074G12c C01V57031  11.603   6.775  13.578  1.6995  1.0049 -0.4498
  3074G12c C01Z57032  11.466   6.764  13.661 -0.9924  1.1205 -0.2202
  3074G12c H00R57033  11.422   6.665  13.674  1.3264  0.1648  0.5825
  3074G12c H00Q57034  11.493   6.788  13.764  5.8298  2.3479 -2.0164
  3074G12c O00957035  11.386   6.847  13.570 -1.2853  0.7026 -0.7018
  3074G12c H00P57036  11.427   6.933  13.571 -3.3854  1.7380 -0.9280
  3074G12c C01W57037  11.675   6.876  13.508 -0.8403  0.8390 -2.0849
  3074G12c H00O57038  11.756   6.847  13.443 -2.8053 -6.3122 -1.7301
  3074G12c C01X57039  11.616   7.024  13.512  0.4807  0.5730  1.0028
  3074G12c H00N57040  11.540   7.025  13.589  0.5793 -3.7426  1.2517
  3074G12c H00M57041  11.713   7.073  13.525  0.3363 -0.2603  6.3462
  3074G12c C01Y57042  11.573   7.027  13.360  0.7937 -2.9245 -1.1212
  3074G12c C02D57043  11.455   6.966  13.288 -0.6131 -0.4116 -1.1101
  3074G12c H01957044  11.386   6.895  13.332 -4.3948  0.3008 -5.5365
  3074G12c C02C57045  11.407   6.995  13.173 -0.1981 -0.9050  1.0221
  3074G12c H01A57046  11.304   6.971  13.153 -1.1515  2.4617  1.4607
  3074G12c C02B57047  11.488   7.074  13.085  1.5847 -0.0114 -0.4489
  3074G12c O00E57048  11.443   7.109  12.962  0.0803  2.9155 -1.2562
  3074G12c H01B57049  11.491   7.189  12.946  1.5689  2.6891  1.8580
  3074G12c C02F57050  11.608   7.125  13.130 -0.9282  0.0959  1.8582
  3074G12c O00F57051  11.706   7.192  13.066 -0.1053 -0.5380 -0.1280
  3074G12c C02G57052  11.736   7.157  12.935  0.3104  0.3349  0.4446
  3074G12c H01757053  11.843   7.135  12.940  0.8823  1.9623 -2.7613
  3074G12c H01657054  11.719   7.221  12.848 -3.0920 -2.9136 -1.4170
  3074G12c H01557055  11.678   7.071  12.903  2.6181 -3.6316  6.1988
  3074G12c C02E57056  11.641   7.097  13.265 -0.5676  0.6509  1.0973
  3074G12c H01857057  11.739   7.138  13.284  1.9625 -4.4513 -0.0618
  3074G12c C01F57058  11.798   6.621  13.397 -1.0082 -0.8987 -0.5404
  3074G12c C01G57059  11.922   6.666  13.457  0.3248  0.0381  0.2755
  3074G12c H00L57060  11.883   6.709  13.548 -3.2901 -1.7348 -0.3189
  3074G12c C01H57061  12.045   6.675  13.390  0.1329  0.0379  0.3465
  3074G12c H00B57062  12.135   6.697  13.446 -0.0540  0.1435  0.6044
  3074G12c C01I57063  12.043   6.622  13.261 -0.4413  0.8322 -0.3989
  3074G12c C01U57064  11.796   6.582  13.263 -0.1928  0.3275  0.1893
  3074G12c C00S57065  11.764   6.033  13.144  0.6786 -1.0574  0.3384
  3074G12c C00K57066  11.910   6.182  13.049  0.1670 -0.5805 -0.7233
  3074G12c C00N57067  11.728   6.459  13.236  0.4234  0.1588  0.5363
  3074G12c C00057068  11.916   6.597  13.192 -1.3778 -0.9313 -0.1340
  3074G12c C01J57069  12.141   6.530  13.184  0.8694 -0.0027 -0.8799
  3074G12c C01K57070  12.273   6.510  13.235  1.7985 -1.7659 -0.3156
  3074G12c C01P57071  12.357   6.619  13.277 -1.5068  0.0424 -1.9423
  3074G12c C01Q57072  12.363   6.749  13.253 -1.1548 -0.9623  0.2014
  3074G12c H00G57073  12.433   6.825  13.286 -1.1752 -0.4878 -0.8513
  3074G12c C01R57074  12.291   6.814  13.156  1.1904  1.1392 -2.3274
  3074G12c H00F57075  12.214   6.757  13.106  4.6112 -3.8414 -2.2793
  3074G12c C01S57076  12.302   6.951  13.086 -0.4696 -0.7764 -1.2293
  3074G12c H00E57077  12.216   7.015  13.107  0.6750  0.0023  1.2432
  3074G12c H00D57078  12.374   7.032  13.100 -3.0014  0.6499  5.3937
  3074G12c O00557079  12.318   6.916  12.957 -0.9827  0.7021  0.0627
  3074G12c H00C57080  12.276   6.832  12.957  4.6716 -2.3732 -3.7188
  3074G12c C01O57081  12.442   6.566  13.367  0.0797 -1.0275 -0.4953
  3074G12c H00H57082  12.527   6.632  13.374 -0.8262  0.4358 -2.8134
  3074G12c C01N57083  12.455   6.444  13.407 -0.7487 -1.0188 -0.4709
  3074G12c O00657084  12.580   6.425  13.494  0.1379  1.9389 -0.6057
  3074G12c C01T57085  12.698   6.390  13.407  0.7268 -1.7432  1.5095
  3074G12c H00K57086  12.691   6.476  13.341 -1.1262 -0.1022  3.7732
  3074G12c H00J57087  12.692   6.292  13.358  4.8299 -3.0198  3.3887
  3074G12c H00I57088  12.802   6.391  13.438 -0.8798 -0.8908  7.3374
  3074G12c C01M57089  12.399   6.347  13.332  0.3735 -0.0242  1.1222
  3074G12c C02057090  12.054   6.201  13.029 -0.7550  0.3537 -0.6294
  3074G12c C02157091  12.141   6.092  12.991 -0.1724 -0.0031  1.8523
  3074G12c C01L57092  12.299   6.378  13.244  2.3689 -0.2265 -1.0687
  3074G12c O00757093  12.466   6.226  13.331 -0.4794 -0.4236  0.6185
  3074G12c C02257094  12.267   6.080  13.051 -2.2326 -0.5431 -0.9253
  3074G12c C02357095  12.087   5.957  12.973 -1.7891  0.3648  0.3585
  3074G12c C00G57096  12.032   5.714  13.100 -2.2953 -1.9735 -0.1483
  3074G12c C00E57097  12.078   5.468  13.111 -0.4813 -1.7445  0.6855
  3074G12c O00A57098  12.020   5.346  13.088 -1.1943 -0.4567  0.0739
  3074G12c C02457099  11.901   5.325  13.009  0.7607  1.8372  0.8484
  3074G12c H00V57100  11.957   5.292  12.921 -0.9801 -3.0182  1.4272
  3074G12c H00U57101  11.824   5.253  13.034  2.9394 -0.7159  0.4384
  3074G12c H00T57102  11.851   5.421  12.993 -3.4949 -0.8976 -3.3623
  3084G12c C00D57103   0.280   5.847  13.422  0.1678  1.6741 -0.6850
  3084G12c O00B57104   0.310   5.723  13.481  1.0456  0.1389  0.7341
  3084G12c C02557105   0.229   5.613  13.464  0.1340  0.7836  2.2167
  3084G12c C02657106   0.271   5.546  13.324  0.3069  1.2074  0.3241
  3084G12c H00Y57107   0.326   5.458  13.359 -0.5707  0.5607  0.0833
  3084G12c H00X57108   0.347   5.612  13.282  0.4665  0.4049 -0.6483
  3084G12c O00C57109   0.142   5.544  13.251  0.0191 -0.8537 -0.2665
  3084G12c H00W57110   0.082   5.519  13.319 -1.4936 -3.5701 -2.4684
  3084G12c C02757111   0.154   5.555  13.559 -0.3044 -0.2304 -0.6311
  3084G12c O00D57112   0.156   5.609  13.686 -1.2275  1.0854 -0.4257
  3084G12c H00Z57113   0.223   5.675  13.673  0.8126 -1.2236 -2.1381
  3084G12c C02857114   0.071   5.448  13.557  0.7049 -0.5025 -0.2389
  3084G12c C02957115  -0.061   5.470  13.573 -0.3950  1.5862 -1.5491
  3084G12c H01057116  -0.068   5.571  13.611  1.9664  2.3830 -3.1628
  3084G12c C02T57117  -0.156   5.364  13.547  0.0100 -1.1380 -0.5796
  3084G12c H01O57118  -0.264   5.355  13.539  0.4094 -8.7112 -1.8030
  3084G12c C02S57119  -0.113   5.225  13.520 -2.4040  0.0564 -0.4050
  3084G12c O00J57120  -0.186   5.123  13.554  0.4188 -0.7388 -0.5865
  3084G12c H01P57121  -0.143   5.055  13.604  0.1676  0.7853  1.7983
  3084G12c C02R57122   0.026   5.206  13.517 -1.0276  0.8290 -1.8169
  3084G12c O00I57123   0.079   5.091  13.510 -0.4479  0.2020  0.0165
  3084G12c C02Q57124   0.190   5.071  13.608  0.3683  0.8474 -1.1376
  3084G12c H01N57125   0.171   4.964  13.622 -1.3994  0.7192 -4.0893
  3084G12c H01R57126   0.286   5.115  13.582  1.6277 -0.4342  1.2144
  3084G12c H01Q57127   0.177   5.111  13.709 -6.2889  1.1777 -1.9102
  3084G12c C02A57128   0.120   5.316  13.537 -0.8738 -0.4855 -0.4393
  3084G12c H01157129   0.226   5.299  13.552 -0.2047  5.6207  3.1993
  3084G12c C00C57130   0.139   5.881  13.411  0.1711  1.1926  0.8015
  3084G12c H01257131   0.064   5.804  13.395  1.0323  0.6565 -0.7228
  3084G12c C00B57132   0.113   6.016  13.435 -0.5278  1.1770 -0.9462
  3084G12c C00A57133  -0.021   6.078  13.418  1.0004 -2.3220  0.8229
  3084G12c C00957134  -0.157   6.030  13.366 -1.6140 -0.4377 -0.3875
  3084G12c C00857135  -0.185   5.921  13.276 -0.1596  0.9815 -1.2145
  3084G12c H01357136  -0.106   5.852  13.251 -1.6646 -0.7999 -1.1945
  3084G12c C00757137  -0.282   5.940  13.185  0.3100  0.7550  0.7172
  3084G12c H01457138  -0.269   5.868  13.106  2.6641 -0.6545  2.3183
  3084G12c C00657139  -0.368   6.056  13.176 -0.5637  2.4551  0.7915
  3084G12c C00557140  -0.339   6.152  13.263 -0.1070  0.3317 -0.1104
  3084G12c C00457141  -0.380   6.284  13.235 -2.5769 -0.0514  1.0156
  3084G12c C00357142  -0.333   6.390  13.323  0.4590  0.3037 -2.2169
  3084G12c C00257143  -0.382   6.531  13.305 -0.1301  0.5854  1.5883
  3084G12c C00157144  -0.329   6.649  13.335  2.1153 -0.7018  0.6590
  3084G12c C00M57145  -0.189   6.686  13.331 -0.0918 -0.1831 -0.3447
  3084G12c C00L57146  -0.093   6.604  13.349 -0.8934  0.6628 -1.5178
  3084G12c C00R57147   0.060   6.637  13.324  0.2165  0.5046  1.2788
  3084G12c C00Q57148   0.129   6.735  13.254 -1.2712 -0.3247  0.3007
  3084G12c C00V57149   0.269   6.704  13.234  1.6677 -0.2015 -0.0604
  3084G12c C00U57150   0.325   6.584  13.288  0.4318 -1.9595  1.3381
  3084G12c C00T57151   0.252   6.491  13.361  0.2160 -0.8318  0.0039
  3084G12c C01657152   0.281   6.348  13.380  0.2041 -1.2196  0.5203
  3084G12c C01557153   0.412   6.318  13.370 -0.4884 -1.3986  0.5316
  3084G12c C01057154   0.499   6.423  13.329  1.6472 -1.1753  1.5573
  3084G12c C01157155   0.636   6.387  13.315 -0.8153  0.9755 -0.1168
  3084G12c H00557156   0.704   6.460  13.273 -1.4943  4.7336  4.7890
  3084G12c C01257157   0.678   6.260  13.330 -0.5599 -0.0894  0.3649
  3084G12c C01757158   0.808   6.216  13.279  0.8031  0.6901  0.3698
  3084G12c O00257159   0.818   6.113  13.193  1.2905 -1.2704  0.6889
  3084G12c H00457160   0.735   6.070  13.185  0.7355  0.3791 -4.9413
  3084G12c C01857161   0.921   6.273  13.320  2.6863 -1.0990  0.3757
  3084G12c O00157162   0.934   6.367  13.424  0.4750  0.1181 -0.9996
  3084G12c H00357163   1.010   6.423  13.426 -1.6928  3.3436 -3.3809
  3084G12c C01957164   1.045   6.219  13.266  0.4653 -0.5175  0.1831
  3084G12c H00257165   1.046   6.118  13.307 -2.6627 -1.4295 -1.8084
  3084G12c H00157166   1.041   6.199  13.159 -3.9035  0.0946  0.1246
  3084G12c O00057167   1.146   6.300  13.329  0.4236 -0.9046 -0.3419
  3084G12c C01A57168   1.270   6.240  13.344 -0.4005 -0.2741 -0.4278
  3084G12c C02K57169   1.355   6.252  13.460  0.5174 -0.0214 -1.1413
  3084G12c O00G57170   1.318   6.304  13.595  0.2208  1.0315  1.0114
  3084G12c C02M57171   1.200   6.266  13.665  0.8054 -1.0027  0.5230
  3084G12c H01G57172   1.173   6.310  13.761 -0.8707 -1.2256  0.1589
  3084G12c H01F57173   1.218   6.160  13.648 -0.7974 -0.8444 -2.5949
  3084G12c H01E57174   1.112   6.295  13.607 -1.7571-11.2374 -1.7205
  3084G12c C02J57175   1.480   6.178  13.469 -1.5398  1.0446 -0.7966
  3084G12c H01H57176   1.538   6.202  13.557  2.8951  0.1429 -3.3085
  3084G12c C02I57177   1.544   6.142  13.354  0.0340 -0.0639 -0.8417
  3084G12c C02N57178   1.685   6.097  13.344 -0.3058 -0.9578 -1.1718
  3084G12c H01M57179   1.722   6.009  13.395 -2.4762 -0.4132  1.4883
  3084G12c C02O57180   1.761   6.180  13.277 -0.1510 -1.1946 -0.8340
  3084G12c H01L57181   1.718   6.273  13.243  4.0493  2.1810  2.4497
  3084G12c C02P57182   1.897   6.197  13.266 -0.5358  1.0602  0.7755
  3084G12c H01K57183   1.916   6.149  13.170 -1.7071  2.5425 -0.2249
  3084G12c H01J57184   1.953   6.134  13.335 -2.5884 -3.9168 -1.8809
  3084G12c O00H57185   1.949   6.328  13.290  0.6240  1.0663  0.4441
  3084G12c H01I57186   1.935   6.380  13.367 13.5448  5.7750  1.0052
  3084G12c C02H57187   1.455   6.131  13.230  0.7107  0.3419 -0.8326
  3084G12c H01C57188   1.520   6.144  13.145  1.3449  3.0408  0.0092
  3084G12c C02L57189   1.317   6.171  13.235 -1.3000 -0.5360 -0.3559
  3084G12c H01D57190   1.247   6.166  13.153  0.5297 -0.0256 -1.9969
  3084G12c C01357191   0.593   6.156  13.361  1.1674  0.8792  1.4310
  3084G12c H00057192   0.637   6.057  13.359  0.4496  0.5850 -0.2899
  3084G12c C01457193   0.456   6.182  13.391  1.4905 -0.5512  0.2602
  3084G12c C00F57194   0.349   6.091  13.411 -1.4551  1.4012  0.8750
  3084G12c C00H57195   0.183   6.252  13.411 -0.0855  2.3864 -0.6118
  3084G12c C00I57196   0.057   6.290  13.424  0.3717 -0.9393 -0.0011
  3084G12c C00J57197   0.033   6.429  13.393  0.3414  1.2301 -1.1152
  3084G12c C00Z57198   0.458   6.547  13.268  2.1048 -0.4565 -0.9199
  3084G12c C00Y57199   0.539   6.650  13.218  1.1651  0.3611  1.3531
  3084G12c H00657200   0.627   6.596  13.184  2.7530  3.4486  0.3646
  3084G12c C00X57201   0.489   6.784  13.211 -1.0635  0.7927  0.5215
  3084G12c O00357202   0.559   6.898  13.192 -0.0792 -0.9152 -0.8214
  3084G12c C01B57203   0.586   6.945  13.332 -0.4618 -0.2521  0.8243
  3084G12c H00957204   0.505   6.978  13.396 -0.0087 -0.9369  1.7557
  3084G12c H00857205   0.641   7.034  13.298  5.4881 -3.1705  2.0949
  3084G12c H00757206   0.677   6.897  13.370  2.1460  3.5414 -0.3098
  3084G12c C00W57207   0.359   6.804  13.196 -0.2863  1.2780 -0.0256
  3084G12c O00457208   0.304   6.917  13.153  0.1850 -0.0104  0.0223
  3084G12c C01C57209   0.182   6.908  13.089 -0.0113  1.5434 -0.3698
  3084G12c H00A57210   0.200   6.880  12.986  3.3092 -1.1461  0.8392
  3084G12c C00P57211   0.069   6.837  13.169  0.5380 -0.2284 -0.9590
  3084G12c C00O57212  -0.084   6.863  13.171 -0.8508 -0.5626 -0.2911
  3084G12c C01D57213  -0.113   6.982  13.090 -0.7622 -0.3398 -0.0216
  3084G12c H00S57214  -0.040   7.060  13.073  0.2757 -1.0478  1.1718
  3084G12c C01E57215  -0.229   6.994  13.029  0.8989  1.4462 -0.2164
  3084G12c O00857216  -0.251   7.073  12.924 -0.5855 -0.1194 -0.4262
  3084G12c C01V57217  -0.268   7.199  12.966  1.0927 -1.8918  0.8979
  3084G12c C01Z57218  -0.410   7.209  12.997  2.0061 -0.3830  0.4572
  3084G12c H00R57219  -0.442   7.142  13.077  0.1895  2.0624  1.8614
  3084G12c H00Q57220  -0.444   7.283  13.069  6.3789  1.4446  0.8125
  3084G12c O00957221  -0.504   7.172  12.910  1.1763  0.0468 -0.4691
  3084G12c H00P57222  -0.576   7.210  12.957  0.3604 -2.6502  0.5708
  3084G12c C01W57223  -0.180   7.301  12.941  0.1588 -1.1498 -0.2602
  3084G12c H00O57224  -0.218   7.401  12.954  2.4743 -0.6617  3.6062
  3084G12c C01X57225  -0.030   7.305  12.911  0.2584  0.5337 -2.0495
  3084G12c H00N57226   0.022   7.220  12.867  1.7262 -0.9044  2.2294
  3084G12c H00M57227  -0.049   7.374  12.829 -2.7970 -1.2767 -2.9461
  3084G12c C01Y57228   0.049   7.382  13.012 -1.0363  0.3383  2.1961
  3084G12c C02D57229   0.120   7.322  13.114  0.5011  1.1366  0.4381
  3084G12c H01957230   0.110   7.215  13.117 -1.9531  1.2973 -1.0022
  3084G12c C02C57231   0.204   7.416  13.192 -0.1109  1.6101 -1.1627
  3084G12c H01A57232   0.263   7.341  13.242 -0.5374  1.3280 -1.0819
  3084G12c C02B57233   0.200   7.560  13.197  0.1943  0.4856  1.3693
  3084G12c O00E57234   0.283   7.640  13.279  1.5683  0.4845  0.8266
  3084G12c H01B57235   0.253   7.729  13.285  3.1311  1.7351 -6.1776
  3084G12c C02F57236   0.108   7.616  13.108  0.1163  0.8634 -0.1929
  3084G12c O00F57237   0.093   7.753  13.120  1.1935 -0.3681 -0.4655
  3084G12c C02G57238   0.017   7.852  13.045 -1.7458 -0.3305  1.6660
  3084G12c H01757239  -0.075   7.799  13.024 -2.0511  0.5052  0.8320
  3084G12c H01657240  -0.010   7.935  13.110 -0.7276  0.8099  0.6711
  3084G12c H01557241   0.065   7.891  12.954  0.3647 -3.8985  1.1628
  3084G12c C02E57242   0.044   7.530  13.011  1.4423 -0.7908  0.6987
  3084G12c H01857243  -0.031   7.569  12.943 -2.4136 -1.8250  4.1062
  3084G12c C01F57244  -0.339   6.910  13.067 -0.8466 -0.6859 -0.8392
  3084G12c C01G57245  -0.440   6.872  12.995  2.8683  0.0067  1.3786
  3084G12c H00L57246  -0.463   6.918  12.899 -0.8255 -1.5669  1.4364
  3084G12c C01H57247  -0.492   6.746  13.018  0.4432  0.4115  0.8431
  3084G12c H00B57248  -0.514   6.669  12.945  2.8919  0.2942  0.2024
  3084G12c C01I57249  -0.463   6.676  13.144  1.6429  1.3195  0.6623
  3084G12c C01U57250  -0.314   6.842  13.195  0.6909 -1.3654 -1.7793
  3084G12c C00S57251   0.126   6.533  13.369  0.3984  1.4750 -0.1058
  3084G12c C00K57252  -0.105   6.462  13.377  1.9621 -1.1243  0.0938
  3084G12c C00N57253  -0.192   6.794  13.230  0.7648 -0.9826  1.2062
  3084G12c C00057254  -0.403   6.743  13.257  0.3398 -1.4956 -0.0063
  3084G12c C01J57255  -0.471   6.543  13.195  1.0661  0.2342  1.2590
  3084G12c C01K57256  -0.549   6.443  13.126  0.5202  0.2585 -0.0464
  3084G12c C01P57257  -0.665   6.437  13.055  0.3625  0.4128 -0.9605
  3084G12c C01Q57258  -0.745   6.553  13.032  0.5881  0.4981 -0.0364
  3084G12c H00G57259  -0.777   6.618  13.112 -4.5109  3.9835 -4.5020
  3084G12c C01R57260  -0.787   6.580  12.903 -0.1429 -2.1599 -0.2197
  3084G12c H00F57261  -0.754   6.535  12.810  5.5686 -0.0527  0.5989
  3084G12c C01S57262  -0.846   6.709  12.867  0.0829  0.7618  1.3681
  3084G12c H00E57263  -0.794   6.723  12.772 -0.7601 -0.0317  0.7823
  3084G12c H00D57264  -0.945   6.667  12.849  2.3707 -4.8374  1.1726
  3084G12c O00557265  -0.833   6.782  12.984  0.3005  0.6917  0.1078
  3084G12c H00C57266  -0.817   6.866  12.944 -2.8083  1.7905  0.9984
  3084G12c C01O57267  -0.719   6.328  12.976 -0.9333 -0.4635 -0.8473
  3084G12c H00H57268  -0.792   6.337  12.897  0.8337  0.3196 -2.4073
  3084G12c C01N57269  -0.641   6.218  12.992  1.4148 -0.4016 -1.7426
  3084G12c O00657270  -0.672   6.088  12.948  1.9807 -0.8055  0.3371
  3084G12c C01T57271  -0.760   6.075  12.843 -0.4968 -1.0667 -0.7388
  3084G12c H00K57272  -0.811   6.016  12.919  3.9554  3.0066  5.8775
  3084G12c H00J57273  -0.729   6.003  12.767 -1.5237  1.1502 -3.3424
  3084G12c H00I57274  -0.832   6.156  12.830 -0.6455 -0.0669  5.2009
  3084G12c C01M57275  -0.533   6.208  13.078  2.0902  0.6510 -2.2505
  3084G12c C02057276  -0.205   6.365  13.365  0.1241 -0.7822 -2.1864
  3084G12c C02157277  -0.195   6.231  13.413 -0.2336  0.2572  2.1364
  3084G12c C01L57278  -0.485   6.316  13.153 -1.3890  2.3613  0.6757
  3084G12c O00757279  -0.465   6.082  13.075 -0.3242 -1.0608  1.7575
  3084G12c C02257280  -0.252   6.133  13.361 -0.1194 -1.6005  0.5778
  3084G12c C02357281  -0.057   6.208  13.448  0.3293  0.1511 -0.1090
  3084G12c C00G57282   0.214   6.118  13.424  1.0045  1.5438  1.4188
  3084G12c C00E57283   0.379   5.949  13.411  0.3398 -0.8440  0.4097
  3084G12c O00A57284   0.504   5.896  13.422  0.1479 -0.0908 -1.3285
  3084G12c C02457285   0.548   5.920  13.563 -2.2579 -1.3517 -0.9812
  3084G12c H00V57286   0.622   5.997  13.581 -0.2250 -4.4775  5.7856
  3084G12c H00U57287   0.476   5.971  13.627 -5.1868 -3.8608 -2.1290
  3084G12c H00T57288   0.599   5.841  13.618  1.7623 -0.7009 -3.6396
  3094G12c C00D57289   8.396   4.669   7.217  1.0245 -2.3350  0.9966
  3094G12c O00B57290   8.299   4.573   7.241 -1.5427 -0.2596  1.2190
  3094G12c C02557291   8.180   4.568   7.176 -1.0855 -0.1216  0.8302
  3094G12c C02657292   8.201   4.546   7.023 -2.2130 -0.2882  0.8757
  3094G12c H00Y57293   8.124   4.470   7.011  1.3487 -4.0636  0.7836
  3094G12c H00X57294   8.291   4.486   7.006 -1.0799  1.4555  0.5934
  3094G12c O00C57295   8.179   4.634   6.919 -0.7156 -0.5068 -0.5653
  3094G12c H00W57296   8.111   4.576   6.886  2.7942 -7.6665  3.5978
  3094G12c C02757297   8.067   4.582   7.241 -0.9811  1.6777 -1.4559
  3094G12c O00D57298   7.929   4.586   7.203 -0.9002 -1.8644  1.4292
  3094G12c H00Z57299   7.894   4.589   7.291 -4.9325  0.0469 -0.1087
  3094G12c C02857300   8.064   4.637   7.375  2.2957  1.0764  1.1434
  3094G12c C02957301   7.978   4.740   7.425 -1.8309 -0.5684  0.4637
  3094G12c H01057302   7.952   4.799   7.339  4.3935  5.0669  1.9548
  3094G12c C02T57303   7.974   4.782   7.558  1.5276 -0.0926 -0.0153
  3094G12c H01O57304   7.930   4.880   7.573 -0.8334 -0.5081 -3.6400
  3094G12c C02S57305   8.024   4.690   7.651  1.1075 -0.9579 -1.8526
  3094G12c O00J57306   8.028   4.746   7.768 -0.3425  0.4706 -0.1036
  3094G12c H01P57307   8.089   4.703   7.825 -2.3446 -2.3733  0.0020
  3094G12c C02R57308   8.124   4.596   7.607 -0.9827 -0.7589 -0.8213
  3094G12c O00I57309   8.214   4.530   7.687 -0.3558  0.2329 -0.3217
  3094G12c C02Q57310   8.177   4.475   7.810 -0.2414 -0.5995  0.3000
  3094G12c H01N57311   8.123   4.548   7.870  4.8682  3.5814  0.2347
  3094G12c H01R57312   8.253   4.457   7.887 -1.7419  0.0418  1.9651
  3094G12c H01Q57313   8.130   4.383   7.776  0.0984  0.5135 -3.3152
  3094G12c C02A57314   8.134   4.553   7.477  1.3067 -0.1080 -0.4585
  3094G12c H01157315   8.190   4.471   7.436  2.3579  0.2112  0.3277
  3094G12c C00C57316   8.362   4.799   7.207 -0.3821 -0.2189  0.6473
  3094G12c H01257317   8.266   4.832   7.242 -2.1827 -8.2218  4.3830
  3094G12c C00B57318   8.457   4.906   7.186 -1.4344 -0.9231 -0.2694
  3094G12c C00A57319   8.445   5.054   7.210 -2.8457 -0.1268  1.6899
  3094G12c C00957320   8.331   5.143   7.222  0.0200  1.6911 -1.1380
  3094G12c C00857321   8.194   5.137   7.211 -0.8535 -1.9614 -0.6754
  3094G12c H01357322   8.144   5.047   7.244 -0.2137 -1.3334  2.0814
  3094G12c C00757323   8.120   5.228   7.137 -0.7366 -0.0205  1.6923
  3094G12c H01457324   8.023   5.228   7.090 -0.8954  2.6755  1.9354
  3094G12c C00657325   8.181   5.349   7.078  0.7084  1.7523 -0.8720
  3094G12c C00557326   8.320   5.364   7.102  1.3050  0.8556 -2.1598
  3094G12c C00457327   8.403   5.465   7.062 -1.3207 -2.3618  0.4927
  3094G12c C00357328   8.542   5.450   7.064  1.2876  1.3749 -0.7862
  3094G12c C00257329   8.620   5.550   6.986  1.3129  0.1608  0.3328
  3094G12c C00157330   8.758   5.568   6.972 -0.6645 -0.6590  0.4604
  3094G12c C00M57331   8.847   5.463   6.927  0.2004 -1.9477 -0.7579
  3094G12c C00L57332   8.836   5.342   6.980 -0.2983 -0.2599  1.2613
  3094G12c C00R57333   8.884   5.217   6.911 -0.4619  0.9010  1.1069
  3094G12c C00Q57334   8.967   5.198   6.798 -0.3059 -1.0793 -0.8366
  3094G12c C00V57335   8.991   5.062   6.769  0.9514 -0.3580 -1.5435
  3094G12c C00U57336   8.942   4.963   6.851 -1.3139  0.7876  0.1584
  3094G12c C00T57337   8.865   4.977   6.969  0.2323  1.2732  1.2527
  3094G12c C01657338   8.798   4.891   7.055  0.8052  1.6701 -0.9507
  3094G12c C01557339   8.826   4.766   7.017  1.0504 -0.1390 -0.6111
  3094G12c C01057340   8.919   4.732   6.922 -0.9248  2.2206  0.0230
  3094G12c C01157341   8.947   4.595   6.909 -2.2220 -0.1503  0.0513
  3094G12c H00557342   9.031   4.568   6.847  2.2051  2.3188  4.6023
  3094G12c C01257343   8.837   4.507   6.948 -0.4183  0.3990  0.7765
  3094G12c C01757344   8.846   4.362   6.933 -1.5398  0.0930  0.4687
  3094G12c O00257345   8.857   4.293   7.055  1.7013 -0.7146 -0.0360
  3094G12c H00457346   8.927   4.336   7.101  1.6418  4.7991 -4.6107
  3094G12c C01857347   8.837   4.304   6.816  1.1695 -1.4893  1.1105
  3094G12c O00157348   8.797   4.363   6.696  0.2268  1.1200 -0.3228
  3094G12c H00357349   8.843   4.442   6.719  1.9619  0.0149  0.1254
  3094G12c C01957350   8.849   4.147   6.798 -1.3071 -0.4273  1.0822
  3094G12c H00257351   8.819   4.092   6.887  4.1100 -0.1590  3.2921
  3094G12c H00157352   8.777   4.114   6.724  2.1095 -3.1074 -1.2216
  3094G12c O00057353   8.987   4.139   6.767  0.7572 -0.2059 -0.3559
  3094G12c C01A57354   9.007   4.023   6.708 -0.0928 -1.1021  0.9230
  3094G12c C02K57355   9.095   4.033   6.594 -0.9349 -1.0918 -0.9342
  3094G12c O00G57356   9.122   4.169   6.552  0.7808 -0.5804  0.1433
  3094G12c C02M57357   9.048   4.208   6.439  1.0671  1.6114 -0.7063
  3094G12c H01G57358   9.114   4.239   6.358  1.3286  1.9691 -0.3584
  3094G12c H01F57359   8.981   4.124   6.421  0.4861  2.2080 -1.3933
  3094G12c H01E57360   8.979   4.285   6.474  4.2761  3.3550  2.1700
  3094G12c C02J57361   9.120   3.933   6.503  0.2437  0.5501 -2.9375
  3094G12c H01H57362   9.174   3.952   6.411 -1.4457 -2.0600 -4.5239
  3094G12c C02I57363   9.065   3.803   6.523 -0.4380  0.1995 -0.8925
  3094G12c C02N57364   9.097   3.698   6.452  1.8848  0.7041 -0.6932
  3094G12c H01M57365   9.054   3.671   6.356  3.1986  1.9642 -1.6549
  3094G12c C02O57366   9.187   3.621   6.493  2.1404 -0.1988 -0.9549
  3094G12c H01L57367   9.206   3.530   6.438 -2.8212 -1.2489 -1.1996
  3094G12c C02P57368   9.261   3.612   6.631  1.4355  0.9311 -0.0324
  3094G12c H01K57369   9.217   3.685   6.700  0.9833  0.0707  0.5902
  3094G12c H01J57370   9.363   3.638   6.601 -0.6094  3.3451 -5.6176
  3094G12c O00H57371   9.247   3.471   6.687 -0.2138  1.1764  0.1972
  3094G12c H01I57372   9.189   3.479   6.761 -5.0394  8.6764 -3.7347
  3094G12c C02H57373   8.973   3.783   6.634 -0.7436  0.2652 -0.3300
  3094G12c H01C57374   8.919   3.689   6.641  3.0324 -2.3725 -4.1182
  3094G12c C02L57375   8.947   3.886   6.727 -0.0350  1.2340 -1.3047
  3094G12c H01D57376   8.871   3.870   6.802  2.3446  5.8135  2.3637
  3094G12c C01357377   8.742   4.542   7.047 -1.0008  0.3898  1.5335
  3094G12c H00057378   8.671   4.462   7.060 -2.1058 -0.2748 -6.2231
  3094G12c C01457379   8.729   4.677   7.068 -1.1667 -1.0301  0.9112
  3094G12c C00F57380   8.611   4.720   7.138 -0.3049  1.8548  1.3705
  3094G12c C00H57381   8.694   4.938   7.132 -1.1405 -0.5386  0.7933
  3094G12c C00I57382   8.688   5.075   7.166  0.7662  0.0788  1.8645
  3094G12c C00J57383   8.773   5.151   7.092  0.5014 -2.1252  0.9538
  3094G12c C00Z57384   8.971   4.828   6.825 -1.1091  0.1568  0.3951
  3094G12c C00Y57385   9.040   4.794   6.699  2.2026 -1.7772  1.3529
  3094G12c H00657386   9.008   4.698   6.662  4.7112 -2.8036  1.7271
  3094G12c C00X57387   9.081   4.892   6.617  0.1569 -0.9892  0.1165
  3094G12c O00357388   9.127   4.865   6.498 -2.7390  1.4798 -0.5397
  3094G12c C01B57389   9.238   4.794   6.486  1.2701 -0.3806 -1.0489
  3094G12c H00957390   9.246   4.695   6.531 -7.3108 -0.4417  1.2052
  3094G12c H00857391   9.305   4.862   6.539 -0.1291  0.3139 -0.1510
  3094G12c H00757392   9.291   4.812   6.392  0.2804  3.3336 -0.9499
  3094G12c C00W57393   9.067   5.032   6.652  0.6782  1.4885 -0.4074
  3094G12c O00457394   9.106   5.122   6.563 -0.0983 -0.6734  1.0729
  3094G12c C01C57395   9.100   5.250   6.595 -0.9113 -0.3447  0.8466
  3094G12c H00A57396   9.161   5.321   6.541  0.8110  0.3197  3.6051
  3094G12c C00P57397   9.015   5.304   6.700  0.4484  0.0439  0.1574
  3094G12c C00O57398   8.966   5.437   6.692 -0.6948  0.0422 -0.2275
  3094G12c C01D57399   8.975   5.500   6.564  2.0601 -0.0714  0.0446
  3094G12c H00S57400   9.008   5.449   6.475 -0.7046  1.4765 -1.9532
  3094G12c C01E57401   8.874   5.595   6.534  0.2708  2.0002  1.0452
  3094G12c O00857402   8.821   5.619   6.405  0.0692 -1.2870 -0.4285
  3094G12c C01V57403   8.710   5.537   6.377  1.2073  0.9976  1.5600
  3094G12c C01Z57404   8.680   5.526   6.244  0.2527 -0.0737 -0.0676
  3094G12c H00R57405   8.755   5.544   6.167 -2.6273  5.3979 -1.8635
  3094G12c H00Q57406   8.660   5.421   6.221 -2.3209  1.0299 -3.2906
  3094G12c O00957407   8.561   5.602   6.237  0.4590  0.3638 -1.8317
  3094G12c H00P57408   8.488   5.543   6.232 -2.1592  2.7867  3.4928
  3094G12c C01W57409   8.640   5.483   6.475  1.0328 -1.9422 -1.1565
  3094G12c H00O57410   8.660   5.514   6.576  1.5596  2.8878 -2.6104
  3094G12c C01X57411   8.513   5.404   6.493  0.8218  1.1176 -3.5699
  3094G12c H00N57412   8.431   5.454   6.546 -1.4015 -3.3690 -2.5267
  3094G12c H00M57413   8.474   5.425   6.393 -0.3164  2.7996 -2.7966
  3094G12c C01Y57414   8.529   5.256   6.532  0.2576 -0.6667 -0.1652
  3094G12c C02D57415   8.667   5.206   6.573 -0.6072 -1.2391 -0.9347
  3094G12c H01957416   8.757   5.261   6.598  0.6772 -3.4549 -0.6276
  3094G12c C02C57417   8.670   5.068   6.594 -0.3392  0.0187  1.5965
  3094G12c H01A57418   8.766   5.032   6.630 -0.2833 -2.3770 -0.8271
  3094G12c C02B57419   8.564   4.984   6.580 -0.3859 -0.1400  1.0836
  3094G12c O00E57420   8.598   4.870   6.644  0.8634 -2.2751  0.8405
  3094G12c H01B57421   8.523   4.831   6.602  0.3201  1.5701 -2.0444
  3094G12c C02F57422   8.424   5.029   6.535 -1.1867 -1.1463 -0.4298
  3094G12c O00F57423   8.313   4.943   6.540 -0.4121  1.3035 -0.6571
  3094G12c C02G57424   8.222   4.974   6.637 -1.0386  2.7218 -0.2559
  3094G12c H01757425   8.190   4.870   6.628 -0.4912  2.4923  0.3973
  3094G12c H01657426   8.121   5.004   6.610 -2.6592 -2.5393 -0.5843
  3094G12c H01557427   8.236   4.976   6.745  2.1432 -1.1221 -0.4941
  3094G12c C02E57428   8.413   5.176   6.526 -0.4471  1.0277 -1.3970
  3094G12c H01857429   8.312   5.215   6.522 -0.7508  0.3480 -0.4955
  3094G12c C01F57430   8.819   5.678   6.635 -1.6957 -0.5815 -0.1637
  3094G12c C01G57431   8.726   5.766   6.629  0.2192 -0.6515 -0.3835
  3094G12c H00L57432   8.695   5.769   6.525 -2.0880 -1.1702  0.2507
  3094G12c C01H57433   8.625   5.795   6.731  0.7046  0.6422 -0.1084
  3094G12c H00B57434   8.551   5.858   6.684 -2.7897 -0.3924  3.7744
  3094G12c C01I57435   8.649   5.753   6.860  0.0241 -0.1754 -2.3989
  3094G12c C01U57436   8.847   5.636   6.772  1.5397 -0.2329 -0.0359
  3094G12c C00S57437   8.866   5.112   7.010 -0.8290  0.1644  0.7065
  3094G12c C00K57438   8.740   5.290   7.074 -0.6820 -0.6123 -0.3102
  3094G12c C00N57439   8.897   5.509   6.804  0.2189 -0.4252 -3.6560
  3094G12c C00057440   8.767   5.682   6.880 -1.1049  1.5062 -0.4528
  3094G12c C01J57441   8.553   5.667   6.934 -0.4024 -0.3778 -1.5061
  3094G12c C01K57442   8.408   5.670   6.927  0.6355  1.2205  0.0302
  3094G12c C01P57443   8.325   5.793   6.903 -0.5026  0.7282 -1.2949
  3094G12c C01Q57444   8.366   5.937   6.878  0.9020  1.6426 -1.0646
  3094G12c H00G57445   8.356   5.979   6.779 -0.5007  3.8077 -0.0535
  3094G12c C01R57446   8.442   6.003   6.970  1.1251  1.4761 -0.5420
  3094G12c H00F57447   8.469   5.960   7.065 -3.0521 -3.5572 -1.4586
  3094G12c C01S57448   8.473   6.136   6.960 -0.8232 -2.2605 -0.0946
  3094G12c H00E57449   8.402   6.193   6.901  4.5057  3.0041 -1.9155
  3094G12c H00D57450   8.450   6.178   7.058  2.2957 -0.7824  0.0789
  3094G12c O00557451   8.605   6.123   6.889  1.5758  0.4119 -0.9427
  3094G12c H00C57452   8.617   6.030   6.904 -8.3927 -1.8759 -3.0331
  3094G12c C01O57453   8.199   5.763   6.866 -0.4612  0.3251  0.8806
  3094G12c H00H57454   8.127   5.826   6.814 -5.2563 -2.2326  4.0353
  3094G12c C01N57455   8.126   5.649   6.898 -1.0012 -1.2403  0.2393
  3094G12c O00657456   7.996   5.640   6.900  0.9479 -0.1790 -0.6841
  3094G12c C01T57457   7.935   5.618   6.777 -1.0158  0.8195  0.5824
  3094G12c H00K57458   7.861   5.699   6.777  2.0697  4.3896 -9.1709
  3094G12c H00J57459   7.866   5.534   6.763  0.5152 -0.0712 -2.1552
  3094G12c H00I57460   7.996   5.608   6.687 -5.7787  3.9112 -3.2480
  3094G12c C01M57461   8.192   5.546   6.957 -0.3055 -0.1521  0.1735
  3094G12c C02057462   8.612   5.345   7.124 -0.2349  0.9873  1.3775
  3094G12c C02157463   8.534   5.264   7.203 -1.0271 -1.4507  1.9528
  3094G12c C01L57464   8.340   5.553   6.976  0.1202 -0.6080 -0.7812
  3094G12c O00757465   8.127   5.430   6.978 -0.6056 -0.0636  0.5013
  3094G12c C02257466   8.393   5.270   7.197 -0.4055  0.2622 -1.2931
  3094G12c C02357467   8.561   5.120   7.236  0.4600  0.0876  0.2160
  3094G12c C00G57468   8.588   4.856   7.137  1.7340 -0.6814 -0.6178
  3094G12c C00E57469   8.522   4.634   7.208 -0.0341  0.1027 -0.3556
  3094G12c O00A57470   8.565   4.515   7.272 -0.0459  0.0025  0.3204
  3094G12c C02457471   8.689   4.538   7.352 -0.3785  0.8239 -0.8204
  3094G12c H00V57472   8.763   4.462   7.374  0.9566  1.6891 -2.2476
  3094G12c H00U57473   8.658   4.584   7.446 -1.9503 -0.1908 -0.8199
  3094G12c H00T57474   8.751   4.622   7.322 -2.1894  3.8235  3.2056
  3104G12c C00D57475   6.681   2.388   4.873  0.5815  1.0532 -0.3052
  3104G12c O00B57476   6.749   2.319   4.963 -1.5110  0.2550  0.6910
  3104G12c C02557477   6.676   2.294   5.077  0.3387 -1.1694  0.0864
  3104G12c C02657478   6.639   2.146   5.072  0.0509  0.6897 -1.7871
  3104G12c H00Y57479   6.558   2.129   5.000  1.2275 -1.0965 -2.7291
  3104G12c H00X57480   6.571   2.109   5.150 -8.3776  8.8419 -4.2651
  3104G12c O00C57481   6.753   2.068   5.042 -0.2906  0.9084 -0.3012
  3104G12c H00W57482   6.788   2.136   4.986 -0.5293  0.0780 -1.4661
  3104G12c C02757483   6.646   2.381   5.180  0.3042  1.1295  1.4706
  3104G12c O00D57484   6.601   2.328   5.290  0.3017 -1.3938  0.3012
  3104G12c H00Z57485   6.665   2.361   5.351 -1.0395  6.9360 -2.1530
  3104G12c C02857486   6.708   2.521   5.184 -1.9739 -0.6703 -1.0750
  3104G12c C02957487   6.843   2.543   5.160 -1.6409 -0.4334  0.5756
  3104G12c H01057488   6.918   2.466   5.157 -0.9611  0.2029 -5.0097
  3104G12c C02T57489   6.890   2.669   5.152 -0.9030  0.2341 -0.0455
  3104G12c H01O57490   6.992   2.698   5.131 -3.2815  4.7431 -7.7328
  3104G12c C02S57491   6.801   2.785   5.160 -0.5414  0.3547  0.0841
  3104G12c O00J57492   6.852   2.909   5.124  0.1068  0.7432 -0.5693
  3104G12c H01P57493   6.945   2.903   5.141 -0.5914 -0.4425  3.3540
  3104G12c C02R57494   6.665   2.771   5.207 -1.1173  0.8443  0.6991
  3104G12c O00I57495   6.599   2.892   5.230  0.3522  0.3340 -0.2072
  3104G12c C02Q57496   6.508   2.869   5.326  2.5163  1.4182  0.1706
  3104G12c H01N57497   6.465   2.769   5.338 -1.1754  2.6608 -1.7261
  3104G12c H01R57498   6.438   2.950   5.302  5.4783  3.4324 -2.0044
  3104G12c H01Q57499   6.541   2.901   5.425 -5.4711 -3.5731  4.9955
  3104G12c C02A57500   6.618   2.634   5.191  0.6963  0.5796  1.1935
  3104G12c H01157501   6.518   2.593   5.186  4.9451-11.8429  2.1909
  3104G12c C00C57502   6.538   2.371   4.852  0.5888 -0.0726  0.8075
  3104G12c H01257503   6.477   2.288   4.883 -2.0710  1.9866  1.2675
  3104G12c C00B57504   6.469   2.434   4.756 -0.5020  1.4486  1.9479
  3104G12c C00A57505   6.338   2.398   4.707 -2.0130 -0.5830  1.1583
  3104G12c C00957506   6.281   2.285   4.631  2.7226  0.4875 -0.7969
  3104G12c C00857507   6.322   2.152   4.599  0.2768  1.6098  0.8664
  3104G12c H01357508   6.393   2.108   4.669  3.1333  5.7830  0.7953
  3104G12c C00757509   6.283   2.108   4.484  0.2504  1.0058 -0.3876
  3104G12c H01457510   6.354   2.047   4.430 -3.6638 -2.9855 -1.3267
  3104G12c C00657511   6.190   2.188   4.406 -0.5153  2.1582  0.2443
  3104G12c C00557512   6.128   2.291   4.470  1.4552  0.6582  0.0520
  3104G12c C00457513   6.030   2.355   4.391  1.6656 -1.0289 -0.7986
  3104G12c C00357514   6.010   2.492   4.418  0.1993 -0.9655 -0.5997
  3104G12c C00257515   5.949   2.570   4.309 -0.1709  0.3192 -0.5318
  3104G12c C00157516   5.954   2.711   4.279  0.3828  0.3845  0.4899
  3104G12c C00M57517   6.054   2.816   4.295 -0.5132  0.2834  0.7634
  3104G12c C00L57518   6.105   2.838   4.412 -0.0527 -1.1957  1.7728
  3104G12c C00R57519   6.228   2.914   4.412  0.8166  0.3615 -0.0072
  3104G12c C00Q57520   6.298   3.022   4.327 -0.8975  0.5394  1.1497
  3104G12c C00V57521   6.432   3.062   4.370 -1.4185 -1.9480  0.0726
  3104G12c C00U57522   6.501   3.003   4.482  0.1453  1.9050 -0.7975
  3104G12c C00T57523   6.443   2.887   4.546 -0.4737  3.2108 -0.0376
  3104G12c C01657524   6.517   2.786   4.610  0.2486  1.0880 -1.2531
  3104G12c C01557525   6.659   2.791   4.614 -0.1472  1.7084  1.5392
  3104G12c C01057526   6.714   2.896   4.541 -0.8630  0.5557  1.3056
  3104G12c C01157527   6.852   2.899   4.552 -0.2504  0.1652  2.3103
  3104G12c H00557528   6.889   3.000   4.557 -0.0082  0.1592  0.8611
  3104G12c C01257529   6.935   2.792   4.573 -0.5453 -0.0283 -1.0321
  3104G12c C01757530   7.081   2.826   4.577  0.5989 -0.3631  0.2291
  3104G12c O00257531   7.123   2.942   4.533  0.9013  0.3809 -0.3856
  3104G12c H00457532   7.215   2.928   4.545  0.2986 -5.2463 -0.9388
  3104G12c C01857533   7.173   2.751   4.637  0.8333  1.1688  1.1043
  3104G12c O00157534   7.166   2.617   4.690  0.1568 -2.0317 -0.6592
  3104G12c H00357535   7.144   2.638   4.780 -0.8274  1.5062 -1.6519
  3104G12c C01957536   7.320   2.778   4.636  1.0325  1.8924 -1.5950
  3104G12c H00257537   7.353   2.702   4.708 -2.8037  1.2192 -0.4538
  3104G12c H00157538   7.364   2.779   4.536  2.3283  1.7680 -1.0411
  3104G12c O00057539   7.336   2.904   4.666 -0.9641  2.8407  1.0681
  3104G12c C01A57540   7.436   2.959   4.748 -0.5048 -0.6045 -0.2591
  3104G12c C02K57541   7.390   3.076   4.810  0.4089  0.3063  0.4874
  3104G12c O00G57542   7.259   3.113   4.774  0.9854 -0.0418 -0.8730
  3104G12c C02M57543   7.204   3.245   4.758 -0.2357 -1.2902  0.6793
  3104G12c H01G57544   7.096   3.237   4.740  1.0822 -3.9014 -8.9112
  3104G12c H01F57545   7.235   3.279   4.659 -0.1108 -1.8379  0.5277
  3104G12c H01E57546   7.238   3.323   4.825 -4.3244  1.4225 -0.1955
  3104G12c C02J57547   7.474   3.168   4.874 -0.5945 -0.8059 -0.5283
  3104G12c H01H57548   7.447   3.255   4.932  2.2114 -0.9716  1.1007
  3104G12c C02I57549   7.610   3.118   4.897 -1.6950  0.4465  2.1854
  3104G12c C02N57550   7.692   3.190   4.997 -1.0698  0.2478  0.5713
  3104G12c H01M57551   7.732   3.284   4.961 -4.9638  0.7897 -2.7227
  3104G12c C02O57552   7.719   3.133   5.108 -0.0401  0.6024 -0.3905
  3104G12c H01L57553   7.663   3.053   5.153  0.9445  0.1313  0.0138
  3104G12c C02P57554   7.853   3.163   5.188  1.4780 -0.5404 -0.5769
  3104G12c H01K57555   7.932   3.088   5.194 -1.9921 -4.4160 -1.0072
  3104G12c H01J57556   7.905   3.253   5.155  2.7837  0.3619  3.6460
  3104G12c O00H57557   7.827   3.172   5.338 -1.6907 -0.4577  0.2760
  3104G12c H01I57558   7.759   3.233   5.361 -2.2146 -1.6461  2.0170
  3104G12c C02H57559   7.654   3.003   4.832 -0.5696 -0.8331 -2.3938
  3104G12c H01C57560   7.749   2.953   4.839 -0.4010 -0.0818  4.1935
  3104G12c C02L57561   7.576   2.926   4.760 -0.7579  2.3157 -1.1031
  3104G12c H01D57562   7.619   2.844   4.705  0.2259 -3.7042  7.6209
  3104G12c C01357563   6.875   2.671   4.614 -0.1072 -1.1825  1.8626
  3104G12c H00057564   6.937   2.582   4.617  2.3820  0.5244  2.7525
  3104G12c C01457565   6.734   2.675   4.659 -0.6051  1.1779 -0.0615
  3104G12c C00F57566   6.666   2.580   4.738 -1.4476  0.2534  0.9831
  3104G12c C00H57567   6.444   2.663   4.662  1.7942 -0.4740 -0.8648
  3104G12c C00I57568   6.308   2.639   4.650  1.6209 -1.0597  1.7328
  3104G12c C00J57569   6.247   2.739   4.571 -0.7047 -1.1099 -0.5484
  3104G12c C00Z57570   6.644   3.010   4.480  0.7054 -1.5379  2.2073
  3104G12c C00Y57571   6.714   3.122   4.410  2.0632 -1.5755  0.8358
  3104G12c H00657572   6.819   3.145   4.421  1.0483  1.8424  4.8147
  3104G12c C00X57573   6.635   3.179   4.303  0.5011  0.7042  1.5699
  3104G12c O00357574   6.679   3.288   4.246 -0.1129 -0.7272 -0.3597
  3104G12c C01B57575   6.624   3.407   4.293  0.4208 -1.2501  1.0769
  3104G12c H00957576   6.694   3.473   4.346  1.8919  1.1133 -3.5454
  3104G12c H00857577   6.531   3.382   4.344 -1.3553  1.0271 -0.9513
  3104G12c H00757578   6.590   3.475   4.216  3.1416  2.4710  3.0071
  3104G12c C00W57579   6.496   3.137   4.284 -0.2242 -0.1402 -0.2758
  3104G12c O00457580   6.421   3.211   4.188 -0.7671 -0.5836  1.8741
  3104G12c C01C57581   6.285   3.201   4.185 -0.7835  0.3421  0.4064
  3104G12c H00A57582   6.231   3.260   4.112  1.2196  3.5681  1.4577
  3104G12c C00P57583   6.252   3.064   4.203  0.2865 -1.0933  2.7344
  3104G12c C00O57584   6.168   2.990   4.118 -0.0799  0.2397  1.4382
  3104G12c C01D57585   6.177   3.021   3.974  0.5854  0.6645  0.5730
  3104G12c H00S57586   6.234   3.089   3.913  3.1281 -2.5559 -0.7976
  3104G12c C01E57587   6.136   2.910   3.890 -0.1981  0.6696  0.2585
  3104G12c O00857588   6.205   2.865   3.791  1.4587  0.4243  0.0730
  3104G12c C01V57589   6.158   2.915   3.659 -0.1503  0.5568 -0.9947
  3104G12c C01Z57590   6.033   2.989   3.648 -0.8556 -0.0590 -1.4874
  3104G12c H00R57591   6.032   3.056   3.734 -1.9966  0.5268 -1.9492
  3104G12c H00Q57592   6.017   3.040   3.553  0.4449  0.9795 -1.1748
  3104G12c O00957593   5.923   2.901   3.608 -0.6183 -0.2365 -0.4432
  3104G12c H00P57594   5.832   2.926   3.601 -1.0709 -2.5179 -3.6438
  3104G12c C01W57595   6.237   2.885   3.554 -1.3975 -0.0280 -0.2394
  3104G12c H00O57596   6.335   2.844   3.573 -1.5603 -1.4831 -2.4071
  3104G12c C01X57597   6.199   2.879   3.407 -1.6427 -0.7594  1.3314
  3104G12c H00N57598   6.292   2.852   3.357 -0.8847  0.0342  2.2810
  3104G12c H00M57599   6.130   2.800   3.378 -3.9727  1.1590  1.5181
  3104G12c C01Y57600   6.177   3.022   3.343 -0.2177  1.2484  1.6467
  3104G12c C02D57601   6.290   3.101   3.302 -0.5450  0.5335 -2.0508
  3104G12c H01957602   6.384   3.070   3.345 -2.6754  1.6020  3.8728
  3104G12c C02C57603   6.275   3.221   3.222 -1.8659  1.2681  0.6332
  3104G12c H01A57604   6.350   3.296   3.202 -0.5150 -1.2217 -4.8699
  3104G12c C02B57605   6.153   3.256   3.177 -0.4311  0.9368  1.0751
  3104G12c O00E57606   6.139   3.355   3.073  0.7371  1.5012 -0.8393
  3104G12c H01B57607   6.069   3.329   3.015  0.9010 -0.1091 -0.3342
  3104G12c C02F57608   6.044   3.165   3.198  0.6077 -0.3036  0.6152
  3104G12c O00F57609   5.908   3.211   3.195  2.1026 -0.6759 -0.1831
  3104G12c C02G57610   5.847   3.330   3.141 -0.2554  0.1008 -1.4250
  3104G12c H01757611   5.829   3.422   3.196 -2.3352  0.5131 -2.7263
  3104G12c H01657612   5.745   3.319   3.177  0.5425  0.4719  1.0045
  3104G12c H01557613   5.884   3.350   3.040  1.8875  9.2584  0.7211
  3104G12c C02E57614   6.057   3.047   3.273  0.2989 -1.4213 -0.6239
  3104G12c H01857615   5.959   3.002   3.277 -4.6432  8.3527  3.9079
  3104G12c C01F57616   6.042   2.802   3.945  0.5728 -0.2830 -0.3053
  3104G12c C01G57617   6.013   2.666   3.889  0.0332  1.6274  0.6022
  3104G12c H00L57618   6.055   2.647   3.792 -2.3892  1.0135 -0.3682
  3104G12c C01H57619   5.938   2.563   3.949  0.5307 -0.5164  1.4109
  3104G12c H00B57620   5.970   2.478   3.890  1.8809 -1.6552  3.7448
  3104G12c C01I57621   5.906   2.583   4.087 -0.4384 -0.3135 -1.2593
  3104G12c C01U57622   5.990   2.822   4.079 -0.4732 -1.1739  2.4081
  3104G12c C00S57623   6.302   2.857   4.511  0.8878  1.4657  0.5982
  3104G12c C00K57624   6.141   2.715   4.475  0.3720 -0.2097 -0.3184
  3104G12c C00N57625   6.079   2.887   4.165 -0.0285 -0.0771  0.1584
  3104G12c C00057626   5.908   2.720   4.146 -1.1067  0.8480  0.2578
  3104G12c C01J57627   5.903   2.489   4.199 -0.6335 -1.1334 -0.7222
  3104G12c C01K57628   5.897   2.345   4.187 -1.1004 -1.0071  1.2915
  3104G12c C01P57629   5.841   2.264   4.081  1.3818  1.9186 -0.3666
  3104G12c C01Q57630   5.745   2.322   3.996  0.3000 -0.6223  1.1025
  3104G12c H00G57631   5.682   2.407   4.019  2.0407  4.0789 -8.6193
  3104G12c C01R57632   5.752   2.300   3.862  0.1621  1.9367  0.7812
  3104G12c H00F57633   5.807   2.216   3.824 -0.8459  2.2124 -1.3548
  3104G12c C01S57634   5.670   2.384   3.769  0.8440 -0.3231  0.8947
  3104G12c H00E57635   5.654   2.486   3.805  3.6725  3.9466 -8.4271
  3104G12c H00D57636   5.726   2.412   3.679 -3.2979  0.4655 -1.5814
  3104G12c O00557637   5.541   2.323   3.738 -1.1973 -1.3857 -1.3649
  3104G12c H00C57638   5.561   2.231   3.726 -2.5406 -1.3581 -4.4272
  3104G12c C01O57639   5.885   2.121   4.073 -0.5753  1.2773  0.9452
  3104G12c H00H57640   5.841   2.036   4.023 -5.0401  2.4481  2.6830
  3104G12c C01N57641   5.992   2.075   4.157  2.6232  1.0120  0.1016
  3104G12c O00657642   6.033   1.947   4.152  0.6260  0.1055 -0.3353
  3104G12c C01T57643   5.950   1.855   4.232  0.8540 -0.2148  0.4823
  3104G12c H00K57644   5.853   1.905   4.236  0.1222 -1.2848 -2.3657
  3104G12c H00J57645   6.001   1.827   4.324 -1.1967 -0.7503  1.5004
  3104G12c H00I57646   5.928   1.784   4.152  7.3732 -2.4205  0.3601
  3104G12c C01M57647   6.037   2.155   4.251 -1.4669 -0.8862 -0.2371
  3104G12c C02057648   6.107   2.569   4.501 -1.0182 -0.1569  0.1575
  3104G12c C02157649   6.142   2.485   4.612  0.1900  0.9278  0.1046
  3104G12c C01L57650   5.981   2.290   4.280  0.2759  1.1781 -0.0761
  3104G12c O00757651   6.135   2.107   4.318  2.3100  0.5923  1.5110
  3104G12c C02257652   6.154   2.347   4.595 -0.1483  0.0059  0.4350
  3104G12c C02357653   6.258   2.519   4.692 -0.3328  0.4716 -0.4841
  3104G12c C00G57654   6.522   2.560   4.715  2.4699  1.1024 -0.2989
  3104G12c C00E57655   6.757   2.475   4.800  1.1259  0.1540 -0.2575
  3104G12c O00A57656   6.893   2.495   4.847 -0.9956 -1.0422  0.1498
  3104G12c C02457657   6.965   2.379   4.801 -1.7591  2.3429 -1.7592
  3104G12c H00V57658   6.962   2.281   4.849  6.0542  2.4445 -0.3633
  3104G12c H00U57659   6.938   2.349   4.700 -4.8521  1.1879 -0.6377
  3104G12c H00T57660   7.070   2.381   4.769 -1.8594  2.6076 -2.0747
  3114G12c C00D57661  10.055   6.221  11.070 -2.1313  0.7355 -0.6536
  3114G12c O00B57662   9.968   6.248  10.968 -1.0478 -1.9268  0.3870
  3114G12c C02557663   9.877   6.361  10.960  1.0441 -0.0195 -0.1910
  3114G12c C02657664   9.822   6.390  10.824 -0.4669  0.7695  0.2670
  3114G12c H00Y57665   9.864   6.351  10.732 -4.6346  2.0169 -2.3096
  3114G12c H00X57666   9.843   6.495  10.807 -3.5385  0.2772 -9.8504
  3114G12c O00C57667   9.682   6.374  10.833 -0.3578 -1.7204 -0.0438
  3114G12c H00W57668   9.667   6.394  10.924 -1.5393  6.0627 -1.6053
  3114G12c C02757669   9.850   6.444  11.065  1.1347 -0.4656 -0.1885
  3114G12c O00D57670   9.889   6.415  11.197 -0.3399 -0.3770  0.9147
  3114G12c H00Z57671   9.945   6.490  11.214 -3.1272  4.1602 -7.0478
  3114G12c C02857672   9.754   6.564  11.039  0.4176  0.4415  0.4450
  3114G12c C02957673   9.641   6.570  11.126  0.6290 -1.4989  0.1536
  3114G12c H01057674   9.620   6.503  11.208  0.6821 -1.6721  0.0262
  3114G12c C02T57675   9.557   6.698  11.134  0.3198  0.4138 -0.7838
  3114G12c H01O57676   9.473   6.690  11.201  0.2635 -1.8396 -1.0612
  3114G12c C02S57677   9.598   6.802  11.038 -0.3388 -1.1000  1.6442
  3114G12c O00J57678   9.555   6.925  11.050  1.0229  0.6538 -0.4453
  3114G12c H01P57679   9.627   6.966  11.005  0.5678  4.8712  2.3842
  3114G12c C02R57680   9.695   6.775  10.935 -1.7848 -1.6326 -1.4154
  3114G12c O00I57681   9.721   6.888  10.857  1.4004 -0.0339  0.9330
  3114G12c C02Q57682   9.822   6.983  10.885  0.7597 -1.0089 -1.5839
  3114G12c H01N57683   9.820   6.999  10.993  0.9045 -2.8608 -1.2968
  3114G12c H01R57684   9.819   7.089  10.861  0.4686 -1.3470 -3.0937
  3114G12c H01Q57685   9.915   6.930  10.864 -1.1546 -4.3551 -1.8822
  3114G12c C02A57686   9.779   6.674  10.949 -0.0896  0.3610  1.9329
  3114G12c H01157687   9.870   6.701  10.898 -1.0862 -5.4754 -3.6337
  3114G12c C00C57688  10.151   6.321  11.125 -1.2296  0.2316  0.6915
  3114G12c H01257689  10.171   6.416  11.079 -8.7657  1.0010 -1.5473
  3114G12c C00B57690  10.223   6.298  11.245  0.8966 -0.8795  0.6850
  3114G12c C00A57691  10.324   6.378  11.295 -0.6504 -0.4466 -0.8584
  3114G12c C00957692  10.401   6.481  11.227  0.5464  0.7597  0.6058
  3114G12c C00857693  10.415   6.529  11.094  1.1872 -1.3329 -0.8004
  3114G12c H01357694  10.331   6.518  11.027  0.3363 -3.5487  0.6071
  3114G12c C00757695  10.548   6.586  11.059 -2.9621 -0.1078  0.1830
  3114G12c H01457696  10.545   6.588  10.951 -2.2394 -9.0784 -0.3136
  3114G12c C00657697  10.652   6.624  11.153 -1.5317 -0.5598 -1.0696
  3114G12c C00557698  10.628   6.559  11.274  1.6428  1.1126 -0.5689
  3114G12c C00457699  10.751   6.519  11.337 -0.3156  0.1846  0.0837
  3114G12c C00357700  10.742   6.413  11.437 -0.8756  0.6692 -1.3721
  3114G12c C00257701  10.872   6.376  11.492 -0.1286 -1.0798  1.1576
  3114G12c C00157702  10.907   6.277  11.591 -0.3328  0.8598  0.3856
  3114G12c C00M57703  10.842   6.148  11.602  0.7525  1.2975 -0.2634
  3114G12c C00L57704  10.700   6.142  11.612  0.8882  0.5221  2.5217
  3114G12c C00R57705  10.618   6.024  11.610 -0.6521 -2.0145  0.4096
  3114G12c C00Q57706  10.662   5.885  11.638 -0.6533  0.2794  1.2027
  3114G12c C00V57707  10.574   5.791  11.603  0.2454  1.5138  1.2058
  3114G12c C00U57708  10.463   5.811  11.521  0.2292  1.8495 -0.4799
  3114G12c C00T57709  10.404   5.939  11.527 -0.2222  0.6094 -0.8373
  3114G12c C01657710  10.322   5.993  11.431 -2.1852  0.0644 -0.7002
  3114G12c C01557711  10.242   5.898  11.366  0.0195  1.2322  1.1976
  3114G12c C01057712  10.283   5.766  11.378 -0.2701  3.0222  0.1908
  3114G12c C01157713  10.217   5.680  11.293  1.2021 -1.0107 -0.2740
  3114G12c H00557714  10.257   5.582  11.270 -1.5703 -3.0763  3.1434
  3114G12c C01257715  10.110   5.704  11.213  1.3035  1.5672 -0.0960
  3114G12c C01757716  10.055   5.620  11.118  0.0484 -0.0939  0.0027
  3114G12c O00257717  10.105   5.629  10.998 -0.9026 -0.2628  1.0121
  3114G12c H00457718  10.049   5.569  10.951 -1.4348 -0.5395  1.9751
  3114G12c C01857719   9.974   5.514  11.150 -0.6505  0.0389 -1.8747
  3114G12c O00157720   9.890   5.467  11.053  0.4735 -0.5550  0.6089
  3114G12c H00357721   9.828   5.401  11.081  2.6657 -1.6123  3.2184
  3114G12c C01957722   9.936   5.437  11.287  1.0205  0.3529  0.7534
  3114G12c H00257723   9.983   5.458  11.383 -3.0560  3.7166  2.1814
  3114G12c H00157724   9.842   5.490  11.272  1.7786  1.3131 -0.6974
  3114G12c O00057725   9.919   5.287  11.274  1.3796 -1.4997  0.9671
  3114G12c C01A57726   9.804   5.246  11.341 -0.2153 -1.6804  0.9268
  3114G12c C02K57727   9.819   5.204  11.474 -1.3811 -0.1359 -0.2447
  3114G12c O00G57728   9.924   5.164  11.549 -1.1826  0.8450 -0.4399
  3114G12c C02M57729  10.021   5.107  11.471  0.0971  0.0002  0.6646
  3114G12c H01G57730  10.090   5.166  11.412 -2.3263 -1.8509 -4.3028
  3114G12c H01F57731   9.985   5.013  11.430 -2.0362  1.7280 -1.5873
  3114G12c H01E57732  10.088   5.096  11.556  1.6295 -3.8628 -0.9091
  3114G12c C02J57733   9.704   5.168  11.534 -0.5408 -0.7787 -1.3504
  3114G12c H01H57734   9.681   5.127  11.631  6.1247  0.8118  1.1726
  3114G12c C02I57735   9.568   5.193  11.477 -0.1729 -0.1891  0.5344
  3114G12c C02N57736   9.449   5.182  11.549 -2.3015  0.1803 -0.2082
  3114G12c H01M57737   9.419   5.100  11.613  5.2008  0.6233  4.4934
  3114G12c C02O57738   9.365   5.296  11.562 -0.3651 -0.2271  1.0461
  3114G12c H01L57739   9.390   5.384  11.505  4.4002 -3.4529 -2.2063
  3114G12c C02P57740   9.253   5.307  11.657  0.0248 -1.7709 -1.7106
  3114G12c H01K57741   9.170   5.256  11.608  0.2858 -1.8917 -2.0283
  3114G12c H01J57742   9.250   5.236  11.740 -2.8969  2.3632  2.0221
  3114G12c O00H57743   9.216   5.446  11.674 -0.2954  1.3366 -0.5931
  3114G12c H01I57744   9.205   5.460  11.581  2.0928  2.4952 -0.7332
  3114G12c C02H57745   9.569   5.264  11.339  0.8460 -0.0685  0.3097
  3114G12c H01C57746   9.473   5.293  11.297  1.0533  3.4912  2.0327
  3114G12c C02L57747   9.691   5.274  11.274 -1.1561 -0.1885  1.6636
  3114G12c H01D57748   9.682   5.312  11.174  3.7447  2.5541  2.0801
  3114G12c C01357749  10.071   5.837  11.211  0.1546 -0.0329  0.5646
  3114G12c H00057750  10.044   5.865  11.111  2.7192 -0.3785 -0.2576
  3114G12c C01457751  10.139   5.944  11.278  0.4945 -0.4495 -0.1691
  3114G12c C00F57752  10.119   6.084  11.264  0.5245  2.1654  0.3164
  3114G12c C00H57753  10.314   6.120  11.400 -0.9562  0.2990 -1.5787
  3114G12c C00I57754  10.380   6.228  11.476 -0.9503 -0.7308 -0.7006
  3114G12c C00J57755  10.486   6.176  11.554 -1.7146 -0.8094  1.2727
  3114G12c C00Z57756  10.383   5.718  11.457 -1.2168  0.9235 -0.9623
  3114G12c C00Y57757  10.442   5.594  11.466  0.9499  0.3793 -1.0725
  3114G12c H00657758  10.404   5.505  11.417 -3.9405  0.0846  2.8972
  3114G12c C00X57759  10.531   5.552  11.565 -0.1404 -1.3407 -0.9140
  3114G12c O00357760  10.565   5.426  11.587  0.8573 -1.0027  0.7439
  3114G12c C01B57761  10.691   5.369  11.531  0.7272 -0.3045 -1.1219
  3114G12c H00957762  10.651   5.407  11.437  2.2154  2.9110 -0.5398
  3114G12c H00857763  10.699   5.262  11.548  2.9552  0.1531  0.9739
  3114G12c H00757764  10.789   5.397  11.570  0.2097  0.2162 -0.2072
  3114G12c C00W57765  10.615   5.657  11.613 -0.4481  0.8527 -0.4330
  3114G12c O00457766  10.731   5.627  11.672 -0.8101 -1.0332 -0.3462
  3114G12c C01C57767  10.810   5.721  11.738 -0.3952 -0.5466 -0.3384
  3114G12c H00A57768  10.828   5.726  11.845 -2.3034  4.1449 -0.1466
  3114G12c C00P57769  10.800   5.841  11.674  0.0508  0.5322  0.1377
  3114G12c C00O57770  10.917   5.902  11.607  0.8418 -0.6054  0.8746
  3114G12c C01D57771  11.032   5.834  11.563  0.4390 -0.7920  0.2958
  3114G12c H00S57772  11.041   5.727  11.577 -3.8743 -1.6085 -2.3338
  3114G12c C01E57773  11.152   5.896  11.487  0.1894  1.5220  0.1217
  3114G12c O00857774  11.270   5.831  11.443  2.0211 -0.5012  0.0609
  3114G12c C01V57775  11.276   5.701  11.421 -1.6961  1.8575 -0.7347
  3114G12c C01Z57776  11.385   5.669  11.518 -0.8173 -0.1515 -1.2750
  3114G12c H00R57777  11.455   5.587  11.503  2.1771  0.9363  5.0700
  3114G12c H00Q57778  11.458   5.747  11.541 -1.5543  3.0204 -8.5236
  3114G12c O00957779  11.304   5.645  11.637  0.5875  1.1721 -0.7340
  3114G12c H00P57780  11.355   5.572  11.667  5.3686  4.2198 -0.9193
  3114G12c C01W57781  11.207   5.611  11.347  0.1795 -0.0456 -0.5029
  3114G12c H00O57782  11.205   5.504  11.359 -1.9026 -0.5442 -4.4341
  3114G12c C01X57783  11.139   5.658  11.227  1.6790 -0.0150  0.6855
  3114G12c H00N57784  11.159   5.763  11.207 -0.8803  0.0525 -1.8473
  3114G12c H00M57785  11.138   5.602  11.133 -0.0645  5.5386 -2.8205
  3114G12c C01Y57786  10.986   5.683  11.242  1.0197 -0.1626  2.2889
  3114G12c C02D57787  10.885   5.564  11.198 -0.1944  0.4791  0.1896
  3114G12c H01957788  10.900   5.463  11.232  7.2405 -0.7546 -5.5259
  3114G12c C02C57789  10.766   5.606  11.129 -1.0313  0.3225 -0.1404
  3114G12c H01A57790  10.670   5.557  11.115  0.9928 -5.9779  5.5470
  3114G12c C02B57791  10.741   5.744  11.115 -0.1428 -1.7239  0.8369
  3114G12c O00E57792  10.630   5.783  11.069  1.3862 -1.4915 -0.4687
  3114G12c H01B57793  10.625   5.877  11.077 -6.1488 -1.2841 -3.0906
  3114G12c C02F57794  10.811   5.846  11.172 -1.1200 -0.6929  0.4736
  3114G12c O00F57795  10.773   5.969  11.144  0.2534  1.1239 -0.7002
  3114G12c C02G57796  10.842   6.092  11.183 -0.4490  0.3268  1.4371
  3114G12c H01757797  10.780   6.165  11.131 -2.4888  0.6011  4.1708
  3114G12c H01657798  10.940   6.087  11.135 -1.1692  0.8062 -0.1345
  3114G12c H01557799  10.869   6.125  11.283  0.3195 -1.5596  1.8725
  3114G12c C02E57800  10.937   5.815  11.224 -0.8225  0.9904 -1.4032
  3114G12c H01857801  10.991   5.896  11.271  3.3460 -1.9168 -0.8935
  3114G12c C01F57802  11.153   6.040  11.483  0.1995  0.5498  0.4282
  3114G12c C01G57803  11.254   6.132  11.431 -0.2078 -1.0492  0.3394
  3114G12c H00L57804  11.347   6.086  11.402 -1.6889 -1.3874 -4.2527
  3114G12c C01H57805  11.208   6.270  11.399 -0.5945  0.6627  1.7665
  3114G12c H00B57806  11.258   6.325  11.321  3.5493 -0.6134  3.3776
  3114G12c C01I57807  11.093   6.312  11.452  2.1218  0.9362 -0.0391
  3114G12c C01U57808  11.040   6.101  11.537  0.0005  1.2069  0.2458
  3114G12c C00S57809  10.487   6.041  11.579 -0.3439 -1.4397  0.7958
  3114G12c C00K57810  10.604   6.245  11.565 -0.5260 -0.3829  0.4069
  3114G12c C00N57811  10.925   6.032  11.574 -1.3372 -1.4819  0.7610
  3114G12c C00057812  11.027   6.239  11.555 -1.4198  0.4677  1.5818
  3114G12c C01J57813  10.991   6.412  11.429 -0.2348  0.9074 -0.1908
  3114G12c C01K57814  11.006   6.530  11.340 -0.2389  0.2215 -1.4714
  3114G12c C01P57815  11.127   6.614  11.315 -1.2028  1.1797 -1.0230
  3114G12c C01Q57816  11.253   6.606  11.388  1.9923  0.1890 -0.5106
  3114G12c H00G57817  11.257   6.574  11.491  0.1539  0.4777 -0.3250
  3114G12c C01R57818  11.373   6.659  11.335 -1.4729 -0.0988  2.1737
  3114G12c H00F57819  11.464   6.646  11.392 -2.7462 -2.3304  3.7756
  3114G12c C01S57820  11.407   6.683  11.186  0.3200 -0.8289  0.4443
  3114G12c H00E57821  11.378   6.780  11.145 -2.8306 -0.8774  2.3721
  3114G12c H00D57822  11.494   6.738  11.220 -2.1041  0.3015  5.1813
  3114G12c O00557823  11.435   6.562  11.123 -0.3136  0.8862 -0.4922
  3114G12c H00C57824  11.498   6.562  11.053 -0.7436  2.5579 -0.8933
  3114G12c C01O57825  11.098   6.730  11.246  1.0096  0.2979 -0.4748
  3114G12c H00H57826  11.181   6.788  11.208 -0.0534  0.2698 -2.9461
  3114G12c C01N57827  10.986   6.762  11.167  0.2457 -0.6828 -0.9125
  3114G12c O00657828  10.976   6.874  11.094  0.6597  0.5852  0.4451
  3114G12c C01T57829  10.962   7.002  11.166 -0.7582  0.2771 -0.0448
  3114G12c H00K57830  11.037   7.036  11.236 -0.7695 -3.4307  1.9141
  3114G12c H00J57831  10.962   7.082  11.092 -3.1706  1.2103  0.8989
  3114G12c H00I57832  10.863   6.993  11.212 -1.8204  3.4430 -1.5757
  3114G12c C01M57833  10.875   6.687  11.195  0.3282  1.5168  2.5058
  3114G12c C02057834  10.614   6.363  11.488 -0.7182 -0.5348  0.9509
  3114G12c C02157835  10.493   6.433  11.447  0.3467  0.1417 -1.9380
  3114G12c C01L57836  10.877   6.579  11.292 -0.4876 -0.8759 -1.5925
  3114G12c O00757837  10.764   6.696  11.120 -0.7121 -0.3422 -0.5306
  3114G12c C02257838  10.505   6.494  11.314 -0.7616  0.2850 -2.0534
  3114G12c C02357839  10.373   6.367  11.432 -2.3403  0.6284 -0.2202
  3114G12c C00G57840  10.219   6.168  11.303  1.7072 -0.6763  0.7504
  3114G12c C00E57841  10.022   6.113  11.161  0.2590  0.6201  0.0146
  3114G12c O00A57842   9.909   6.039  11.109  0.0580  1.6360  1.7667
  3114G12c C02457843   9.789   6.049  11.200 -0.8840 -0.7280  0.9560
  3114G12c H00V57844   9.716   5.984  11.152 -0.2574 -4.9929  5.3264
  3114G12c H00U57845   9.778   6.153  11.228 -1.8000 -0.4407 -0.4576
  3114G12c H00T57846   9.823   6.001  11.292 -2.0251  3.1622  3.5022
  3124G12c C00D57847   6.491   3.718  10.169 -0.0035  1.2624  0.5046
  3124G12c O00B57848   6.412   3.768  10.066  1.5536 -1.0515 -0.7095
  3124G12c C02557849   6.489   3.786   9.942  0.4036 -0.7757 -0.4864
  3124G12c C02657850   6.485   3.657   9.873 -0.1321 -0.3001 -0.6036
  3124G12c H00Y57851   6.594   3.647   9.875 -0.2030 -0.9802  1.0375
  3124G12c H00X57852   6.485   3.672   9.765  3.7593  0.5628 -0.5914
  3124G12c O00C57853   6.429   3.552   9.933  0.7427 -0.4351  2.0373
  3124G12c H00W57854   6.392   3.597  10.008 -0.2317  2.6706 -0.2323
  3124G12c C02757855   6.527   3.899   9.895  1.9401  1.5805 -0.4498
  3124G12c O00D57856   6.584   3.892   9.768  1.4950  0.1366  0.0120
  3124G12c H00Z57857   6.506   3.919   9.722 -1.8325 -2.7258  3.6608
  3124G12c C02857858   6.494   4.030   9.945 -0.8763  0.8538 -1.5302
  3124G12c C02957859   6.560   4.139   9.886 -0.3089  0.2717  0.1531
  3124G12c H01057860   6.627   4.147   9.802  3.2176  0.6167  2.9232
  3124G12c C02T57861   6.552   4.256   9.944  0.8449 -0.9750  1.0772
  3124G12c H01O57862   6.597   4.346   9.904  0.6635 -0.3664  2.2391
  3124G12c C02S57863   6.472   4.272  10.064 -0.9408  0.5411  0.0364
  3124G12c O00J57864   6.454   4.384  10.128 -0.0551 -1.3641  1.3030
  3124G12c H01P57865   6.415   4.360  10.210 -1.7254 -0.2455  0.8608
  3124G12c C02R57866   6.384   4.177  10.101 -1.2727 -0.7343  1.2739
  3124G12c O00I57867   6.310   4.204  10.220  1.4238  1.5876 -0.5067
  3124G12c C02Q57868   6.187   4.135  10.262 -2.0696  0.4305  0.6272
  3124G12c H01N57869   6.099   4.190  10.296 -3.4011 -2.1262  1.4035
  3124G12c H01R57870   6.232   4.104  10.357  0.2142  2.5687  0.3066
  3124G12c H01Q57871   6.159   4.053  10.197  0.2346  4.1953 -5.6020
  3124G12c C02A57872   6.412   4.049  10.058  0.1274  0.6425 -0.4538
  3124G12c H01157873   6.339   3.973  10.083  0.0819  1.1436  1.0085
  3124G12c C00C57874   6.635   3.748  10.192  0.4155 -0.3257 -0.5996
  3124G12c H01257875   6.681   3.834  10.145  0.9518  0.3125  1.0206
  3124G12c C00B57876   6.710   3.708  10.308  1.2485  0.8512  0.1716
  3124G12c C00A57877   6.851   3.724  10.313  2.2311  1.7562 -0.3538
  3124G12c C00957878   6.947   3.721  10.210 -0.5063  0.2580  0.6113
  3124G12c C00857879   6.937   3.704  10.063 -0.9591  1.7700  0.3297
  3124G12c H01357880   6.852   3.739  10.006 -2.1575  1.9851  2.2116
  3124G12c C00757881   7.055   3.666   9.991 -1.3076  0.7271 -0.1348
  3124G12c H01457882   7.019   3.631   9.895 -7.9217 -6.0060  4.2422
  3124G12c C00657883   7.176   3.645  10.044 -0.4291 -1.0285 -1.9457
  3124G12c C00557884   7.164   3.635  10.184 -0.7572  0.3746 -0.7837
  3124G12c C00457885   7.259   3.571  10.262 -1.6831 -1.4452 -0.3095
  3124G12c C00357886   7.246   3.548  10.402  0.4607 -0.9206 -0.4807
  3124G12c C00257887   7.332   3.457  10.467 -0.9462  0.8825 -1.0785
  3124G12c C00157888   7.358   3.425  10.600  2.5118  1.1267 -0.2852
  3124G12c C00M57889   7.254   3.356  10.666 -0.8177  1.6432 -1.2265
  3124G12c C00L57890   7.126   3.392  10.658  0.7491  0.2749  0.4824
  3124G12c C00R57891   6.995   3.318  10.677 -0.4998  0.1637  1.2170
  3124G12c C00Q57892   6.971   3.181  10.712 -0.8917  0.3265  0.7456
  3124G12c C00V57893   6.837   3.159  10.695  3.9519  1.2878  0.3158
  3124G12c C00U57894   6.716   3.251  10.682  0.0900 -0.2861  1.2283
  3124G12c C00T57895   6.764   3.381  10.653 -1.0608  0.0456 -0.3430
  3124G12c C01657896   6.682   3.458  10.572 -1.3952 -1.6952  0.1436
  3124G12c C01557897   6.539   3.435  10.572  0.2182 -0.8902  0.9861
  3124G12c C01057898   6.503   3.325  10.638 -0.0764  0.7720  2.5243
  3124G12c C01157899   6.365   3.306  10.647 -0.6495 -0.8903 -0.7850
  3124G12c H00557900   6.361   3.230  10.724 -0.0730  2.1834  2.3844
  3124G12c C01257901   6.265   3.396  10.592 -1.1813  1.0401 -1.5111
  3124G12c C01757902   6.129   3.363  10.648 -0.4612  0.3132  1.2523
  3124G12c O00257903   6.108   3.410  10.776 -0.7260  1.4597  0.2292
  3124G12c H00457904   6.152   3.341  10.823 -1.7310  0.2314 -0.6018
  3124G12c C01857905   6.064   3.262  10.589 -1.5577  1.9927  0.4279
  3124G12c O00157906   6.085   3.209  10.459 -0.8066  0.0133  0.7035
  3124G12c H00357907   6.130   3.271  10.402  3.6751 -0.5146  3.4613
  3124G12c C01957908   5.946   3.217  10.637 -0.8806 -0.9707 -0.9757
  3124G12c H00257909   5.888   3.292  10.691  2.7877  1.8504 -0.8392
  3124G12c H00157910   5.873   3.208  10.556  0.0450 -5.3612 -1.4865
  3124G12c O00057911   5.972   3.129  10.725  0.2985  1.6314 -0.8781
  3124G12c C01A57912   6.007   3.004  10.700  0.6678 -1.0087  1.1403
  3124G12c C02K57913   6.020   2.907  10.810 -0.0443 -0.3817  0.0406
  3124G12c O00G57914   6.014   2.964  10.935  0.0393  1.6347 -0.5504
  3124G12c C02M57915   6.052   2.896  11.042 -0.4634  0.6249  0.0309
  3124G12c H01G57916   6.107   2.823  10.982 -3.3419  0.8682 -3.0152
  3124G12c H01F57917   5.970   2.840  11.085 -2.1043 -2.2984 -6.2831
  3124G12c H01E57918   6.095   2.929  11.136 -1.8779 -3.2963  2.1889
  3124G12c C02J57919   6.062   2.773  10.758  1.9769 -0.2206  0.0533
  3124G12c H01H57920   6.087   2.699  10.833 -1.8356 -1.3355  0.3296
  3124G12c C02I57921   6.063   2.738  10.625  0.6085  1.4068 -0.9220
  3124G12c C02N57922   6.047   2.585  10.597  1.2761 -0.1937 -0.4773
  3124G12c H01M57923   6.047   2.540  10.498  3.2662  0.3829 -0.7736
  3124G12c C02O57924   5.999   2.496  10.697  0.5871 -2.0779 -1.3827
  3124G12c H01L57925   5.982   2.521  10.801  2.2481 -1.8780 -1.1576
  3124G12c C02P57926   5.952   2.353  10.677 -0.5087  0.2861  0.6526
  3124G12c H01K57927   5.997   2.322  10.583 -2.9280 -0.6637 -0.2299
  3124G12c H01J57928   6.028   2.300  10.734  1.9089  3.8287  0.9306
  3124G12c O00H57929   5.826   2.313  10.679 -1.0757  0.4177 -0.6477
  3124G12c H01I57930   5.808   2.320  10.586  1.5413 -4.5796 -1.7166
  3124G12c C02H57931   6.034   2.821  10.510  0.5303 -0.6937 -1.0255
  3124G12c H01C57932   6.012   2.788  10.410  0.9098 -0.2389 -1.2613
  3124G12c C02L57933   5.992   2.952  10.564  0.6896  1.2485  0.5953
  3124G12c H01D57934   5.949   3.022  10.494 -3.1217  0.8657  2.4195
  3124G12c C01357935   6.302   3.483  10.476 -2.3767  0.2330 -1.3070
  3124G12c H00057936   6.224   3.548  10.438 -2.0765 -2.8066 -7.9720
  3124G12c C01457937   6.449   3.505  10.489 -0.4281  0.5191 -0.9671
  3124G12c C00F57938   6.508   3.597  10.377 -0.7063  1.3291  1.3072
  3124G12c C00H57939   6.723   3.577  10.507 -2.1988  0.2654  0.3471
  3124G12c C00I57940   6.863   3.603  10.527  0.4290 -1.1164  0.2895
  3124G12c C00J57941   6.944   3.521  10.604 -1.5381 -0.8339  0.8178
  3124G12c C00Z57942   6.583   3.225  10.677  1.0649  0.5453  3.2759
  3124G12c C00Y57943   6.546   3.088  10.679  0.0550 -1.3905  2.1623
  3124G12c H00657944   6.451   3.047  10.648  1.7862 -2.2391 -2.5305
  3124G12c C00X57945   6.649   3.002  10.710 -0.4184 -0.1057 -0.0973
  3124G12c O00357946   6.644   2.875  10.684  0.5489  1.9482 -1.3506
  3124G12c C01B57947   6.606   2.821  10.551  0.0661 -0.4221 -2.0656
  3124G12c H00957948   6.503   2.833  10.516 -2.1741 -5.4784  2.1430
  3124G12c H00857949   6.678   2.868  10.485 -2.3836  3.2337 -2.2531
  3124G12c H00757950   6.644   2.721  10.527 -4.4068 -3.6596  3.2148
  3124G12c C00W57951   6.788   3.036  10.726 -0.3317  0.0214  0.3269
  3124G12c O00457952   6.877   2.923  10.755  0.7987 -0.6771 -0.0598
  3124G12c C01C57953   7.015   2.961  10.811 -0.1154 -0.2137  2.0993
  3124G12c H00A57954   7.029   2.911  10.905  0.7075 -4.4368 -0.1506
  3124G12c C00P57955   7.062   3.077  10.752  0.2445  0.7259  1.4816
  3124G12c C00O57956   7.201   3.093  10.716 -1.0875  0.5139  0.0415
  3124G12c C01D57957   7.270   2.965  10.719 -0.1393  2.7262 -0.0048
  3124G12c H00S57958   7.224   2.870  10.742 -1.0036  2.5201 -2.4885
  3124G12c C01E57959   7.390   2.958  10.635  0.6973  0.8352  0.5998
  3124G12c O00857960   7.419   2.821  10.595 -1.2088 -1.2195  1.2676
  3124G12c C01V57961   7.367   2.763  10.491 -0.9990  0.1161 -0.6561
  3124G12c C01Z57962   7.468   2.649  10.455 -1.3177 -1.5009 -1.4462
  3124G12c H00R57963   7.572   2.672  10.478 -3.6479  3.8253  5.6146
  3124G12c H00Q57964   7.461   2.647  10.346 -0.9411 10.5753 -2.3756
  3124G12c O00957965   7.441   2.539  10.498 -0.5047 -0.4291 -0.0484
  3124G12c H00P57966   7.503   2.500  10.558 -3.4589 -5.4157  0.0527
  3124G12c C01W57967   7.252   2.778  10.447 -0.6256  1.7797 -1.5687
  3124G12c H00O57968   7.169   2.838  10.481  1.5935  3.6818  0.7778
  3124G12c C01X57969   7.197   2.706  10.321 -0.2034 -0.2416  0.0913
  3124G12c H00N57970   7.222   2.601  10.335  0.1039 -0.1606  0.1535
  3124G12c H00M57971   7.091   2.731  10.320 -0.1362  0.1630 -3.5588
  3124G12c C01Y57972   7.286   2.772  10.212 -0.6606 -1.6484  0.2478
  3124G12c C02D57973   7.350   2.699  10.115 -0.4675  0.8926  0.3872
  3124G12c H01957974   7.380   2.596  10.122 -1.3259 -0.4595 -9.0240
  3124G12c C02C57975   7.365   2.754   9.986  0.7315 -0.6347  0.8545
  3124G12c H01A57976   7.396   2.722   9.888  4.7915 -2.9870  2.7749
  3124G12c C02B57977   7.335   2.888   9.980  2.2685  0.3070  1.4428
  3124G12c O00E57978   7.352   2.957   9.861 -0.2539 -0.2944  0.7718
  3124G12c H01B57979   7.278   3.014   9.876  1.2676  3.5809 -4.8631
  3124G12c C02F57980   7.276   2.960  10.087 -1.9585 -0.4845  0.4753
  3124G12c O00F57981   7.215   3.073  10.048  0.0450  0.1530  0.5740
  3124G12c C02G57982   7.205   3.177  10.149 -1.5596  0.5704  1.8023
  3124G12c H01757983   7.157   3.144  10.241 -3.5474  4.8389  2.4338
  3124G12c H01657984   7.168   3.279  10.136 -1.0707  0.3403 -2.0218
  3124G12c H01557985   7.309   3.203  10.168 -0.6711  4.7106 -6.4415
  3124G12c C02E57986   7.263   2.907  10.206 -0.4580  1.9811  0.7065
  3124G12c H01857987   7.246   2.969  10.292  6.7114  1.4071  2.9237
  3124G12c C01F57988   7.447   3.071  10.585 -2.4163  2.0215 -0.7097
  3124G12c C01G57989   7.558   3.058  10.498 -0.6862  1.2715 -0.3565
  3124G12c H00L57990   7.625   2.974  10.493 -2.0454  0.1680 -0.1178
  3124G12c C01H57991   7.599   3.178  10.433 -1.1597 -1.0978  1.1366
  3124G12c H00B57992   7.636   3.152  10.335  3.0499 -3.9448  3.2879
  3124G12c C01I57993   7.529   3.312  10.461 -1.2241  0.0468 -0.5409
  3124G12c C01U57994   7.405   3.205  10.609 -0.1980  0.6029 -1.0137
  3124G12c C00S57995   6.902   3.405  10.661  1.3161  0.1609 -1.7433
  3124G12c C00K57996   7.096   3.515  10.598  1.4127 -0.6307 -2.0157
  3124G12c C00N57997   7.274   3.213  10.667  0.2537  0.4780 -0.8381
  3124G12c C00057998   7.460   3.322  10.582 -0.5537 -0.7094  0.3866
  3124G12c C01J57999   7.455   3.417  10.392  0.2191  2.3316  0.1964
  3124G12c C01K58000   7.485   3.476  10.265 -1.4219 -0.5091 -0.4310
  3124G12c C01P58001   7.586   3.443  10.176 -1.9753  0.6759 -0.1653
  3124G12c C01Q58002   7.710   3.400  10.238 -0.9701 -0.0409 -1.1027
  3124G12c H00G58003   7.723   3.301  10.280 -3.4685  0.4296  0.9387
  3124G12c C01R58004   7.825   3.476  10.232  1.2992 -1.2377  0.1906
  3124G12c H00F58005   7.848   3.559  10.167 -2.2335  3.7817  4.9442
  3124G12c C01S58006   7.954   3.410  10.271 -0.7306  2.2188 -1.0166
  3124G12c H00E58007   8.037   3.479  10.286 -1.3982  2.2883  2.7248
  3124G12c H00D58008   7.966   3.328  10.200 -1.0848 -5.2157  6.7910
  3124G12c O00558009   7.925   3.341  10.390  1.6998 -0.7641 -1.1534
  3124G12c H00C58010   7.890   3.404  10.452 -2.1100 -2.1196 -1.7419
  3124G12c C01O58011   7.597   3.450  10.044 -0.0309 -0.4277  0.5182
  3124G12c H00H58012   7.680   3.412   9.987  1.0810  3.9324 -1.0053
  3124G12c C01N58013   7.485   3.499   9.972 -0.7184  1.6878 -1.2649
  3124G12c O00658014   7.467   3.475   9.833  0.8981  0.4749  0.8089
  3124G12c C01T58015   7.564   3.396   9.771  0.6622  1.1301 -1.0447
  3124G12c H00K58016   7.656   3.452   9.787  2.5788 -2.8358  3.1088
  3124G12c H00J58017   7.552   3.407   9.663  0.9157 -5.0714 -1.9013
  3124G12c H00I58018   7.570   3.291   9.799 -1.1693  2.2202  3.9261
  3124G12c C01M58019   7.384   3.540  10.041  0.5654 -1.5936  0.3758
  3124G12c C02058020   7.138   3.593  10.478  1.2310 -0.6288 -1.2842
  3124G12c C02158021   7.061   3.683  10.409  0.2137  2.0308  0.2258
  3124G12c C01L58022   7.379   3.531  10.198  0.9433 -2.5001  2.5980
  3124G12c O00758023   7.271   3.577   9.979  1.8975  0.1045  0.8074
  3124G12c C02258024   7.074   3.709  10.272  1.5804 -0.0352  1.4596
  3124G12c C02358025   6.920   3.690  10.439  1.3617 -0.5375  1.2925
  3124G12c C00G58026   6.652   3.640  10.401 -0.0970  0.5538 -0.2744
  3124G12c C00E58027   6.435   3.630  10.265 -0.1823  2.5474  0.2707
  3124G12c O00A58028   6.320   3.561  10.238 -1.9201 -1.3134 -0.7409
  3124G12c C02458029   6.305   3.435  10.180 -0.8101 -1.5267  1.9037
  3124G12c H00V58030   6.267   3.363  10.252 -7.5139  3.2243  3.5928
  3124G12c H00U58031   6.230   3.464  10.106 -3.5569  6.8001  7.2305
  3124G12c H00T58032   6.397   3.398  10.134  0.7035  0.9012  2.8642
  3134G12c C00D58033   9.125   6.207  12.172  0.4407 -1.4215 -1.1198
  3134G12c O00B58034   9.025   6.123  12.164  0.8483  1.1721 -0.3771
  3134G12c C02558035   8.891   6.186  12.169 -0.5144  1.2719  0.8580
  3134G12c C02658036   8.826   6.194  12.022 -0.6180  0.8552  1.2659
  3134G12c H00Y58037   8.909   6.242  11.970 -3.9029  2.5776 -2.6793
  3134G12c H00X58038   8.811   6.095  11.978 -6.7987  2.3806 -0.5619
  3134G12c O00C58039   8.728   6.297  12.012 -0.4647 -1.3659 -0.1582
  3134G12c H00W58040   8.652   6.294  12.068 -1.7097  6.0381 -0.9142
  3134G12c C02758041   8.813   6.175  12.280 -1.3229 -0.0552 -0.8799
  3134G12c O00D58042   8.674   6.183  12.297  1.2850 -0.7907 -0.4347
  3134G12c H00Z58043   8.629   6.222  12.223  0.9562  0.5680  0.4633
  3134G12c C02858044   8.886   6.165  12.425  0.9134 -0.2760  0.8024
  3134G12c C02958045   9.018   6.207  12.466 -0.4885 -1.3783  1.1345
  3134G12c H01058046   9.086   6.261  12.402  0.3645  3.1701  5.5103
  3134G12c C02T58047   9.055   6.199  12.606  0.2070  0.9859  2.0205
  3134G12c H01O58048   9.150   6.248  12.622  0.5565  6.5775-11.0458
  3134G12c C02S58049   8.966   6.147  12.705  0.0288  0.0101  1.0473
  3134G12c O00J58050   8.980   6.170  12.848  1.3633 -1.8737 -0.2068
  3134G12c H01P58051   8.945   6.122  12.921  0.7350  2.2475  2.4105
  3134G12c C02R58052   8.840   6.096  12.661  0.4716 -0.9511 -1.1515
  3134G12c O00I58053   8.746   6.045  12.742  0.6569 -2.0091  1.0170
  3134G12c C02Q58054   8.720   5.903  12.741  0.5316 -1.2798 -0.7900
  3134G12c H01N58055   8.707   5.867  12.639 -2.2849  2.5177 -1.8947
  3134G12c H01R58056   8.649   5.912  12.823  1.5489 -0.2778  0.0014
  3134G12c H01Q58057   8.810   5.843  12.757  2.0552  0.6168 -1.9935
  3134G12c C02A58058   8.795   6.103  12.519 -0.6119  1.0516  0.6226
  3134G12c H01158059   8.697   6.080  12.482  0.4425  3.5674 -4.1901
  3134G12c C00C58060   9.106   6.349  12.160 -2.2880  1.0772  0.3426
  3134G12c H01258061   9.009   6.397  12.157 -4.9422 -3.6444  4.0749
  3134G12c C00B58062   9.210   6.432  12.163  1.8064  0.5947  1.0035
  3134G12c C00A58063   9.193   6.578  12.157  0.2486 -0.0075 -0.4315
  3134G12c C00958064   9.096   6.651  12.092  0.7566  0.0413  0.9927
  3134G12c C00858065   8.986   6.619  12.001 -0.2731  0.4055  0.7876
  3134G12c H01358066   8.961   6.514  11.997 -1.3948  0.7139 -0.7711
  3134G12c C00758067   8.920   6.714  11.936  0.3597 -0.6001 -0.1692
  3134G12c H01458068   8.812   6.703  11.927  0.5515  0.1587 -5.0258
  3134G12c C00658069   8.981   6.838  11.920  0.6618 -1.8106 -1.0741
  3134G12c C00558070   9.095   6.867  11.983 -0.2366 -0.4885 -0.0522
  3134G12c C00458071   9.180   6.966  11.950  1.6163 -0.0642  0.5131
  3134G12c C00358072   9.320   6.971  11.986  0.6242  1.6246  1.2636
  3134G12c C00258073   9.410   7.073  11.934 -1.3447  0.4458  0.2773
  3134G12c C00158074   9.549   7.108  11.945 -0.8278 -2.0703  0.5501
  3134G12c C00M58075   9.653   7.015  11.952 -0.8207  0.9633 -0.4947
  3134G12c C00L58076   9.642   6.904  12.027 -0.4251  1.4817 -0.0988
  3134G12c C00R58077   9.716   6.785  12.001  1.1300 -0.4415  0.7223
  3134G12c C00Q58078   9.826   6.754  11.910  1.5440  0.1426 -1.1243
  3134G12c C00V58079   9.847   6.613  11.923  0.7468  0.6355 -0.6463
  3134G12c C00U58080   9.777   6.519  12.013 -0.4488  0.9571  0.7215
  3134G12c C00T58081   9.671   6.545  12.082 -0.1309  2.9624  0.4749
  3134G12c C01658082   9.576   6.445  12.117 -0.1084 -0.2217 -0.7157
  3134G12c C01558083   9.603   6.317  12.084 -0.6254  1.6381 -1.9669
  3134G12c C01058084   9.737   6.274  12.039 -0.7375  0.6592  1.0675
  3134G12c C01158085   9.773   6.139  12.036  0.3794  0.6016 -1.2107
  3134G12c H00558086   9.876   6.120  12.013  0.8744 -2.1607  2.7133
  3134G12c C01258087   9.692   6.039  12.086 -0.8411  0.9554 -0.5190
  3134G12c C01758088   9.739   5.889  12.075  0.0810 -0.1194 -0.4874
  3134G12c O00258089   9.867   5.901  12.022  0.6557 -0.5280  0.7463
  3134G12c H00458090   9.927   5.829  12.015  0.8698 -0.1292 -2.5187
  3134G12c C01858091   9.679   5.791  12.157 -1.3028  0.7238 -1.1643
  3134G12c O00158092   9.571   5.807  12.246  0.6307  0.6961 -0.3582
  3134G12c H00358093   9.554   5.734  12.304 -2.4001 -1.8253 -4.0980
  3134G12c C01958094   9.705   5.632  12.124 -0.5816 -0.5606 -0.0293
  3134G12c H00258095   9.624   5.603  12.056 -4.6670  0.4292  4.1238
  3134G12c H00158096   9.793   5.622  12.062 -1.2001 -0.4005 -0.9400
  3134G12c O00058097   9.733   5.578  12.245 -0.9142  1.5845 -0.2021
  3134G12c C01A58098   9.818   5.467  12.217  1.0176  2.2405 -0.1386
  3134G12c C02K58099   9.883   5.397  12.325 -0.2162 -0.4382 -1.4490
  3134G12c O00G58100   9.880   5.433  12.456  0.0896 -1.6988 -0.4338
  3134G12c C02M58101   9.870   5.566  12.480  0.1285  1.0022  0.9090
  3134G12c H01G58102   9.766   5.574  12.511  0.3088  1.5982  1.3953
  3134G12c H01F58103   9.947   5.633  12.521  1.8449  1.9910 -3.6691
  3134G12c H01E58104   9.908   5.614  12.390  1.6876 -4.7300 -1.6799
  3134G12c C02J58105   9.962   5.284  12.315  0.4517 -1.1974  1.3011
  3134G12c H01H58106  10.022   5.248  12.397  6.6833 -2.5502 -3.4407
  3134G12c C02I58107   9.983   5.220  12.185  0.9868  0.8604  0.3390
  3134G12c C02N58108  10.063   5.093  12.183  0.7271 -0.3358  0.2316
  3134G12c H01M58109  10.080   5.039  12.274  0.9453 -2.1085 -0.8439
  3134G12c C02O58110  10.170   5.061  12.108 -0.7748 -0.7419 -2.1162
  3134G12c H01L58111  10.182   5.137  12.032  4.3203  1.1388  0.3475
  3134G12c C02P58112  10.261   4.943  12.097 -1.4298  0.0930 -1.6223
  3134G12c H01K58113  10.215   4.907  12.004 -0.5000  4.4077 -3.8693
  3134G12c H01J58114  10.364   4.973  12.114 -2.3047  2.6764 -0.6318
  3134G12c O00H58115  10.260   4.840  12.202 -0.3804  0.4887  1.6847
  3134G12c H01I58116  10.230   4.861  12.289 -2.2675 -1.5267  1.5649
  3134G12c C02H58117   9.924   5.289  12.073 -0.0303 -0.3605 -1.5661
  3134G12c H01C58118   9.946   5.228  11.987  1.9564 -1.2083 -0.4927
  3134G12c C02L58119   9.847   5.403  12.092 -0.3378 -0.2407 -0.2081
  3134G12c H01D58120   9.815   5.423  11.990 -2.3828 -5.1473 -0.6785
  3134G12c C01358121   9.574   6.093  12.152 -0.6822 -1.4252 -1.9910
  3134G12c H00058122   9.514   6.019  12.202  2.6937 -1.4467  2.4205
  3134G12c C01458123   9.509   6.223  12.116  0.0412 -1.8719 -1.3881
  3134G12c C00F58124   9.375   6.256  12.142 -0.8435  0.6351 -1.4062
  3134G12c C00H58125   9.450   6.488  12.152 -0.9339  0.5603  1.3340
  3134G12c C00I58126   9.420   6.623  12.151  0.2219 -0.9442  0.4030
  3134G12c C00J58127   9.533   6.709  12.130 -0.6027  0.7975 -1.3511
  3134G12c C00Z58128   9.831   6.380  12.010 -0.9106  0.5426  1.3572
  3134G12c C00Y58129   9.944   6.342  11.951 -1.7740 -0.9275 -0.7052
  3134G12c H00658130  10.016   6.265  11.975  2.0017  3.3457  2.7101
  3134G12c C00X58131  10.025   6.437  11.867  0.3760  2.3528  0.1505
  3134G12c O00358132  10.136   6.358  11.816 -1.4502  0.2350  0.0424
  3134G12c C01B58133  10.257   6.421  11.763 -1.0230  1.2555 -0.8671
  3134G12c H00958134  10.321   6.333  11.772 -2.4071  0.4435  1.9278
  3134G12c H00858135  10.214   6.474  11.678 -1.3542  2.5142  0.0739
  3134G12c H00758136  10.243   6.484  11.851 -0.1735  0.4787 -0.1654
  3134G12c C00W58137   9.957   6.566  11.846 -0.6997  1.2674  1.1299
  3134G12c O00458138  10.020   6.644  11.764 -1.4458  0.2874  0.4107
  3134G12c C01C58139  10.016   6.769  11.805 -1.8662 -0.2761  2.0522
  3134G12c H00A58140  10.098   6.828  11.842 -2.2193  4.8047 -4.3177
  3134G12c C00P58141   9.892   6.839  11.825  1.2907  2.0178  0.3357
  3134G12c C00O58142   9.855   6.975  11.776  0.6987 -0.0767 -0.2769
  3134G12c C01D58143   9.903   7.018  11.657 -0.7070  0.6975 -1.4822
  3134G12c H00S58144   9.999   6.986  11.618  0.2344 -2.2212  2.8467
  3134G12c C01E58145   9.830   7.100  11.571  0.5384  1.0745  0.6092
  3134G12c O00858146   9.897   7.137  11.445  0.0157  0.9397 -0.1402
  3134G12c C01V58147   9.854   7.259  11.387  0.7187  0.0868  0.1751
  3134G12c C01Z58148   9.820   7.267  11.235  1.1626  0.8217  1.7122
  3134G12c H00R58149   9.856   7.369  11.216  0.2219  0.7217 -0.8086
  3134G12c H00Q58150   9.909   7.233  11.183 -0.3600 -1.6510  0.6621
  3134G12c O00958151   9.687   7.244  11.199  0.8316  0.2729  0.3445
  3134G12c H00P58152   9.673   7.167  11.147 -1.0489  2.8231 -3.1210
  3134G12c C01W58153   9.919   7.357  11.451  1.1916 -0.4171 -1.2371
  3134G12c H00O58154   9.914   7.353  11.558  1.1738 -0.2389 -1.2301
  3134G12c C01X58155   9.916   7.512  11.401 -0.2326 -1.5980 -1.2303
  3134G12c H00N58156   9.895   7.580  11.484 -4.7976 -7.4502  2.7957
  3134G12c H00M58157  10.008   7.562  11.373  1.7765 -1.2558  5.2334
  3134G12c C01Y58158   9.801   7.596  11.326 -0.3121  1.8762 -1.9517
  3134G12c C02D58159   9.683   7.545  11.363 -1.2259 -0.1587 -1.0992
  3134G12c H01958160   9.690   7.450  11.413  3.4085 -1.7385 -4.3723
  3134G12c C02C58161   9.574   7.556  11.287 -0.6712 -0.5600 -1.2679
  3134G12c H01A58162   9.492   7.486  11.300 -1.4319 -0.4034 -4.7972
  3134G12c C02B58163   9.598   7.651  11.174  1.2465 -0.7971  1.5136
  3134G12c O00E58164   9.504   7.693  11.082  0.2870  0.5283 -1.1483
  3134G12c H01B58165   9.519   7.759  11.017 -5.5180  3.7940  0.5356
  3134G12c C02F58166   9.719   7.730  11.159  1.5782  0.4703  0.0048
  3134G12c O00F58167   9.721   7.809  11.049  0.1033 -0.8908  1.2452
  3134G12c C02G58168   9.816   7.917  11.075 -0.6267  0.3337 -0.5941
  3134G12c H01758169   9.786   7.984  11.155  7.3157  1.2884  2.0108
  3134G12c H01658170   9.809   7.983  10.989  2.6362 -0.1713 -1.3168
  3134G12c H01558171   9.915   7.884  11.046 -1.2205 -6.8063  4.0077
  3134G12c C02E58172   9.831   7.693  11.239 -0.5345  0.3693 -0.4484
  3134G12c H01858173   9.922   7.751  11.235 -2.7481  4.0850  0.5813
  3134G12c C01F58174   9.707   7.154  11.623 -0.1261 -0.6665  0.8798
  3134G12c C01G58175   9.603   7.213  11.550 -0.1593 -1.7672  0.5735
  3134G12c H00L58176   9.583   7.216  11.444  1.8384  4.8694  0.1880
  3134G12c C01H58177   9.479   7.228  11.616  0.5714 -0.4688 -1.2190
  3134G12c H00B58178   9.386   7.235  11.562 -0.9701  1.0096  1.4932
  3134G12c C01I58179   9.465   7.221  11.758 -0.3666 -1.1438 -0.2808
  3134G12c C01U58180   9.689   7.144  11.770 -0.5568 -0.2764 -1.5709
  3134G12c C00S58181   9.649   6.670  12.078  1.2702  0.7656 -1.5785
  3134G12c C00K58182   9.519   6.850  12.076 -0.5936 -0.2510 -1.3662
  3134G12c C00N58183   9.748   7.036  11.835  0.1626 -0.7315 -0.4759
  3134G12c C00058184   9.586   7.198  11.843  0.8034  0.5162  0.1987
  3134G12c C01J58185   9.348   7.153  11.836  0.6302  0.9096 -0.7921
  3134G12c C01K58186   9.209   7.181  11.809 -0.3999 -0.1955  0.6759
  3134G12c C01P58187   9.127   7.290  11.745  0.2178  0.2151 -1.4096
  3134G12c C01Q58188   9.182   7.409  11.676  0.9834 -0.4316  0.7287
  3134G12c H00G58189   9.266   7.404  11.608  1.5913 -1.1897  1.5207
  3134G12c C01R58190   9.121   7.529  11.658  0.9583 -1.3097  1.5380
  3134G12c H00F58191   9.169   7.596  11.588 -1.0962 -0.0612  1.2778
  3134G12c C01S58192   9.006   7.579  11.741  1.7256  0.3796  2.1258
  3134G12c H00E58193   8.962   7.673  11.706 -1.4715  0.5426  6.2182
  3134G12c H00D58194   8.915   7.521  11.725  1.3108  1.2026  1.4181
  3134G12c O00558195   9.038   7.608  11.848 -0.8381 -1.8141  0.3864
  3134G12c H00C58196   9.028   7.701  11.865  5.1306 -0.0374 -4.3215
  3134G12c C01O58197   8.987   7.285  11.752  0.3673  0.0519 -0.6151
  3134G12c H00H58198   8.917   7.332  11.685  0.2986 -2.5310 -2.4189
  3134G12c C01N58199   8.915   7.179  11.800 -1.3512 -0.8178  1.0130
  3134G12c O00658200   8.788   7.165  11.784  0.0557 -0.2173  0.6337
  3134G12c C01T58201   8.746   7.101  11.679  0.7423 -1.0076  0.6887
  3134G12c H00K58202   8.811   7.038  11.618  1.9035  0.1239  0.7414
  3134G12c H00J58203   8.691   7.143  11.594  1.5952  0.0329  0.6442
  3134G12c H00I58204   8.661   7.052  11.728  2.2517  0.6848  5.2221
  3134G12c C01M58205   8.992   7.068  11.845  1.1835 -0.1215  1.3592
  3134G12c C02058206   9.376   6.870  12.061  1.0451 -2.0550 -1.1834
  3134G12c C02158207   9.278   6.788  12.128  0.4393  1.1345 -0.3231
  3134G12c C01L58208   9.126   7.075  11.873 -0.7498 -0.9015 -0.9620
  3134G12c O00758209   8.921   6.942  11.851 -1.2769  1.1839 -0.5142
  3134G12c C02258210   9.155   6.779  12.071 -0.2080  0.2768  1.0557
  3134G12c C02358211   9.302   6.656  12.197  0.8815 -0.0282 -0.2422
  3134G12c C00G58212   9.344   6.389  12.145 -0.2987 -0.2129  0.2230
  3134G12c C00E58213   9.274   6.156  12.156  1.3369  1.1459 -1.2344
  3134G12c O00A58214   9.263   6.045  12.077 -0.1426 -0.8485 -0.8295
  3134G12c C02458215   9.274   5.913  12.131  0.9902 -0.9881  0.4505
  3134G12c H00V58216   9.353   5.840  12.116  3.0122  0.7719  2.1312
  3134G12c H00U58217   9.203   5.847  12.081 -5.1163  1.6285  4.9814
  3134G12c H00T58218   9.287   5.900  12.238  1.0486  1.8254  0.8210
  3144G12c C00D58219   4.747   7.252   6.374 -0.9745 -1.2393 -0.2530
  3144G12c O00B58220   4.751   7.391   6.358 -0.8057 -0.1247  0.1143
  3144G12c C02558221   4.748   7.480   6.464 -0.4561  1.9828  0.4333
  3144G12c C02658222   4.884   7.519   6.538  0.0858  0.6681 -0.2301
  3144G12c H00Y58223   4.956   7.438   6.544  2.3097  2.1069 -5.0912
  3144G12c H00X58224   4.839   7.520   6.637  1.6995 -2.8516  0.6253
  3144G12c O00C58225   4.940   7.654   6.519 -0.2128  0.7069  1.8747
  3144G12c H00W58226   5.008   7.672   6.456  0.1924  3.6134  3.0620
  3144G12c C02758227   4.616   7.529   6.488 -0.4999 -0.0883 -0.3409
  3144G12c O00D58228   4.520   7.473   6.413  0.6393 -0.2217 -0.9661
  3144G12c H00Z58229   4.498   7.387   6.445  1.8184 -1.0292 -2.2667
  3144G12c C02858230   4.596   7.651   6.571 -0.6803 -0.5174  2.3581
  3144G12c C02958231   4.603   7.780   6.517 -0.4000 -0.6514  1.3606
  3144G12c H01058232   4.583   7.782   6.410 -0.1402 -2.3631  1.2643
  3144G12c C02T58233   4.636   7.886   6.586 -1.2329  0.2273  0.4354
  3144G12c H01O58234   4.616   7.973   6.525  0.6232 -2.0657 -3.5980
  3144G12c C02S58235   4.640   7.881   6.720 -0.2903  0.3048 -1.1430
  3144G12c O00J58236   4.640   7.994   6.797  0.6078  1.0324 -1.0343
  3144G12c H01P58237   4.683   8.061   6.747 -2.7453  4.7223  0.6855
  3144G12c C02R58238   4.651   7.746   6.781  0.9267 -0.4900 -0.7969
  3144G12c O00I58239   4.671   7.745   6.915 -1.0043  0.8224 -1.0057
  3144G12c C02Q58240   4.551   7.744   6.995 -0.2268 -0.4687  1.3168
  3144G12c H01N58241   4.547   7.761   7.103 -0.7510 -4.9990  2.1353
  3144G12c H01R58242   4.504   7.646   6.981 -1.6180  0.2593  0.8105
  3144G12c H01Q58243   4.498   7.836   6.970  2.1753 -0.5287 -4.6898
  3144G12c C02A58244   4.622   7.634   6.702 -1.3054  1.6951 -0.3653
  3144G12c H01158245   4.625   7.529   6.727 -0.0442  1.5528 -1.0747
  3144G12c C00C58246   4.774   7.198   6.496 -1.0209  1.4981  0.7268
  3144G12c H01258247   4.797   7.272   6.572  1.5015  3.7850 -2.1509
  3144G12c C00B58248   4.762   7.055   6.520 -1.8199  0.6948 -0.1958
  3144G12c C00A58249   4.774   6.990   6.650 -1.1071  1.5404  0.8544
  3144G12c C00958250   4.872   6.993   6.752 -1.6715 -1.6731 -0.5572
  3144G12c C00858251   4.987   7.060   6.793  0.5861  1.5758  0.8890
  3144G12c H01358252   5.010   7.165   6.779 -8.2863  3.4315 -2.7429
  3144G12c C00758253   5.067   7.031   6.910 -0.9388 -1.6576  0.3417
  3144G12c H01458254   5.164   7.076   6.930  2.0099 -5.4433 -4.2144
  3144G12c C00658255   5.048   6.903   6.968  1.1598  2.6075  0.4216
  3144G12c C00558256   4.944   6.821   6.907 -1.5515  1.0824  0.3465
  3144G12c C00458257   4.929   6.680   6.941  0.7073 -1.1174  0.6085
  3144G12c C00358258   4.828   6.597   6.882  0.7886 -1.4377  0.4180
  3144G12c C00258259   4.822   6.460   6.907 -0.5916  0.4760 -0.4708
  3144G12c C00158260   4.734   6.354   6.868 -0.4831  1.1205 -0.7884
  3144G12c C00M58261   4.692   6.340   6.734 -0.7952 -1.4737  0.0252
  3144G12c C00L58262   4.625   6.440   6.661 -0.4796 -0.6961  1.5289
  3144G12c C00R58263   4.604   6.433   6.522 -0.1057  0.7856  1.2505
  3144G12c C00Q58264   4.623   6.329   6.431 -0.7873 -0.4984  0.7596
  3144G12c C00V58265   4.585   6.375   6.298  0.2622 -1.3645 -0.8761
  3144G12c C00U58266   4.594   6.521   6.252 -0.0611  0.6379  0.8304
  3144G12c C00T58267   4.617   6.610   6.348 -0.8897  0.1442 -1.3800
  3144G12c C01658268   4.647   6.751   6.325 -0.3189 -0.7838  0.9882
  3144G12c C01558269   4.622   6.805   6.202  1.5393  0.7809  0.4404
  3144G12c C01058270   4.592   6.712   6.098  0.0944 -0.4760 -0.3897
  3144G12c C01158271   4.584   6.756   5.956 -1.2288 -1.0952 -2.0445
  3144G12c H00558272   4.567   6.714   5.858  4.6860 -4.5811 -1.8413
  3144G12c C01258273   4.631   6.884   5.928 -0.4144 -2.1013 -1.6869
  3144G12c C01758274   4.591   6.931   5.795  1.1640  0.2610 -0.4437
  3144G12c O00258275   4.497   6.869   5.717  0.5648 -0.5401 -0.6234
  3144G12c H00458276   4.438   6.816   5.768  0.2168  1.7402  1.4234
  3144G12c C01858277   4.640   7.044   5.743  2.2209 -0.0720 -0.5160
  3144G12c O00158278   4.717   7.126   5.820 -1.8239 -0.0176  1.2151
  3144G12c H00358279   4.639   7.180   5.818 -2.0061 -0.2827 -3.1065
  3144G12c C01958280   4.599   7.117   5.602 -0.0166 -1.3414  0.3681
  3144G12c H00258281   4.691   7.106   5.546  0.5747 -8.1109  2.2244
  3144G12c H00158282   4.514   7.061   5.562  0.5829 -2.3228  0.4489
  3144G12c O00058283   4.635   7.262   5.604 -0.2278  0.2223  0.9777
  3144G12c C01A58284   4.527   7.358   5.597  0.4312 -1.2439 -0.3694
  3144G12c C02K58285   4.391   7.317   5.622  0.1340 -1.9112  1.4132
  3144G12c O00G58286   4.362   7.179   5.661  0.2916 -1.9892  0.8713
  3144G12c C02M58287   4.287   7.149   5.769  1.1738  0.4730  1.6171
  3144G12c H01G58288   4.276   7.042   5.786  1.2242 -0.0358 -1.3567
  3144G12c H01F58289   4.354   7.192   5.844 -0.0116 -0.1625  3.0756
  3144G12c H01E58290   4.202   7.216   5.784  2.9728  3.7789 -2.0724
  3144G12c C02J58291   4.284   7.413   5.580  1.2146 -0.9781  1.1616
  3144G12c H01H58292   4.188   7.384   5.619 -2.0374  5.2280 -1.4787
  3144G12c C02I58293   4.313   7.536   5.512  0.4131  0.4193  0.7617
  3144G12c C02N58294   4.210   7.639   5.491 -1.0740 -0.7347  1.6385
  3144G12c H01M58295   4.178   7.705   5.570 -3.0855 -4.6788  4.2767
  3144G12c C02O58296   4.115   7.618   5.395 -0.0440  0.2984 -0.2214
  3144G12c H01L58297   4.033   7.684   5.419  1.9485  4.0266 -3.1303
  3144G12c C02P58298   4.126   7.544   5.264  1.4685 -0.8106  0.1649
  3144G12c H01K58299   4.203   7.472   5.292  4.9053  5.2436  8.5348
  3144G12c H01J58300   4.040   7.478   5.264  1.9692 -1.4712  1.7258
  3144G12c O00H58301   4.117   7.622   5.142  0.4139  1.7625 -0.6090
  3144G12c H01I58302   4.077   7.701   5.177 -0.4499 -0.5884  4.0645
  3144G12c C02H58303   4.446   7.561   5.504 -1.1864  1.6998  1.4290
  3144G12c H01C58304   4.462   7.656   5.456  5.7567  0.8645  1.5119
  3144G12c C02L58305   4.549   7.473   5.534 -1.6355  1.0903  0.7268
  3144G12c H01D58306   4.654   7.495   5.524 -1.4066  0.5105  1.8558
  3144G12c C01358307   4.687   6.961   6.037 -1.2203  0.2907  0.7570
  3144G12c H00058308   4.752   7.045   6.016 -3.4648  2.8564  3.5300
  3144G12c C01458309   4.674   6.931   6.182 -2.2984  0.2573  0.1848
  3144G12c C00F58310   4.700   7.021   6.287 -0.4974  1.0453 -1.4590
  3144G12c C00H58311   4.677   6.837   6.429 -0.3130 -0.6390 -0.2103
  3144G12c C00I58312   4.677   6.790   6.561 -1.4279 -2.5456  0.2796
  3144G12c C00J58313   4.633   6.656   6.579 -1.1458  2.0409  0.4854
  3144G12c C00Z58314   4.572   6.570   6.125 -0.3644 -0.3089  1.0110
  3144G12c C00Y58315   4.540   6.478   6.034 -0.7491  0.1405  0.9348
  3144G12c H00658316   4.528   6.486   5.927  2.9426 -4.1416  0.0049
  3144G12c C00X58317   4.540   6.335   6.063 -0.5576 -1.2779 -1.8481
  3144G12c O00358318   4.506   6.233   5.981  0.7146 -0.5940 -0.9137
  3144G12c C01B58319   4.377   6.179   6.000 -0.2532 -0.2514  1.5170
  3144G12c H00958320   4.361   6.120   5.910-12.8387 -3.2645  4.6926
  3144G12c H00858321   4.291   6.246   5.993  2.6796  3.6953  1.0741
  3144G12c H00758322   4.378   6.099   6.074 -2.4250  2.1956  4.3350
  3144G12c C00W58323   4.550   6.288   6.197 -0.3228  1.3186 -3.3573
  3144G12c O00458324   4.564   6.149   6.208 -0.1039  0.9094  1.1815
  3144G12c C01C58325   4.616   6.117   6.338 -1.3172 -0.5073  1.2578
  3144G12c H00A58326   4.661   6.021   6.358 -2.9943 -1.7098 -0.5707
  3144G12c C00P58327   4.657   6.199   6.444 -1.0459 -0.7454  1.4996
  3144G12c C00O58328   4.733   6.154   6.563 -0.7701 -0.0320 -0.1221
  3144G12c C01D58329   4.818   6.046   6.554 -0.3478 -0.0656  0.4437
  3144G12c H00S58330   4.816   5.969   6.479  3.3283  2.5902 -2.5844
  3144G12c C01E58331   4.921   6.028   6.644  1.0263  0.0044 -1.4509
  3144G12c O00858332   5.003   5.911   6.619 -0.2379  0.5851 -0.9539
  3144G12c C01V58333   5.061   5.821   6.717  0.3960  0.0963  0.9123
  3144G12c C01Z58334   4.994   5.761   6.843 -0.4781  1.7911  0.6898
  3144G12c H00R58335   4.999   5.652   6.837 -2.6053  0.9487  8.6016
  3144G12c H00Q58336   5.050   5.772   6.937 -2.1040  0.1217  1.8793
  3144G12c O00958337   4.858   5.814   6.844 -0.0398 -0.6484  0.8293
  3144G12c H00P58338   4.804   5.809   6.767 -1.1280 -3.0291  1.7271
  3144G12c C01W58339   5.169   5.764   6.665  0.1226  0.5565  1.1685
  3144G12c H00O58340   5.202   5.786   6.565  2.4464  2.5895  2.3296
  3144G12c C01X58341   5.259   5.660   6.703 -0.8299  1.1600  2.0045
  3144G12c H00N58342   5.338   5.653   6.628 -4.0023 -3.3891 -1.2397
  3144G12c H00M58343   5.324   5.719   6.768  3.5457 -4.7114  3.3728
  3144G12c C01Y58344   5.248   5.515   6.731 -1.6272 -0.0782  1.0654
  3144G12c C02D58345   5.163   5.416   6.688 -2.3269 -0.4563  1.0741
  3144G12c H01958346   5.072   5.443   6.636 -1.9168  0.4952  0.8369
  3144G12c C02C58347   5.190   5.274   6.718  1.0263  1.7330  1.2963
  3144G12c H01A58348   5.145   5.186   6.675  5.1162 -0.6561  1.6841
  3144G12c C02B58349   5.300   5.241   6.787  0.0608 -0.1516  0.3984
  3144G12c O00E58350   5.326   5.117   6.804  0.5921  0.7719  0.0281
  3144G12c H01B58351   5.392   5.111   6.872  0.2470 -4.0454  0.1376
  3144G12c C02F58352   5.378   5.341   6.813 -0.0202  0.7501 -1.1658
  3144G12c O00F58353   5.500   5.299   6.850 -0.0346  0.5083 -0.6271
  3144G12c C02G58354   5.533   5.375   6.968 -1.0401  0.4190 -1.0812
  3144G12c H01758355   5.460   5.443   7.011 -2.6588 -1.8543 -0.1547
  3144G12c H01658356   5.634   5.414   6.952  1.1875 -3.8621  1.7842
  3144G12c H01558357   5.575   5.308   7.042 -5.6977 -0.8575  0.5869
  3144G12c C02E58358   5.362   5.472   6.791  0.6684  0.0076 -0.1434
  3144G12c H01858359   5.436   5.543   6.826  0.7003  1.5940 -3.2719
  3144G12c C01F58360   4.938   6.092   6.764 -1.5275  0.8854 -1.1293
  3144G12c C01G58361   5.043   6.094   6.860  0.1773 -1.4036 -0.1521
  3144G12c H00L58362   5.131   6.046   6.819 -2.6229  1.3690-10.8692
  3144G12c C01H58363   5.026   6.183   6.967 -0.5160  0.2451  1.6258
  3144G12c H00B58364   5.117   6.213   7.017 -0.7494  2.9620  0.5219
  3144G12c C01I58365   4.909   6.270   6.993 -0.9704 -1.1590 -1.1249
  3144G12c C01U58366   4.819   6.176   6.798 -0.2355 -0.3955  1.1241
  3144G12c C00S58367   4.627   6.562   6.480 -0.5308  0.1428  0.8374
  3144G12c C00K58368   4.657   6.579   6.695  1.5454 -1.7264 -1.9406
  3144G12c C00N58369   4.750   6.233   6.686 -0.3603 -0.9349  1.4021
  3144G12c C00058370   4.796   6.242   6.917  0.3383  0.4346  0.2968
  3144G12c C01J58371   4.911   6.411   7.007  0.4095 -1.0205 -1.1262
  3144G12c C01K58372   4.996   6.486   7.092 -1.4453 -0.4643  0.4396
  3144G12c C01P58373   5.061   6.453   7.214 -0.3363 -0.1607  0.4204
  3144G12c C01Q58374   5.019   6.328   7.271  0.2262  2.2656 -0.1231
  3144G12c H00G58375   4.921   6.322   7.314  0.2448  3.0948  0.0424
  3144G12c C01R58376   5.113   6.240   7.279  0.0796  0.1256 -0.9181
  3144G12c H00F58377   5.219   6.239   7.260  1.2924 -5.8257  4.5929
  3144G12c C01S58378   5.079   6.099   7.322  0.6557  1.2698 -1.1435
  3144G12c H00E58379   4.980   6.093   7.367  2.9089 -2.1327  3.7122
  3144G12c H00D58380   5.068   6.034   7.235 -4.6317 -3.8946  2.9703
  3144G12c O00558381   5.153   6.031   7.415  1.6099  0.2934 -0.5423
  3144G12c H00C58382   5.192   6.072   7.491  1.9844 10.7673 -5.5475
  3144G12c C01O58383   5.140   6.546   7.284 -0.9936 -0.7674  1.0991
  3144G12c H00H58384   5.163   6.521   7.387  2.3503  2.2275  1.1941
  3144G12c C01N58385   5.168   6.674   7.231 -0.5474 -0.1583  0.6473
  3144G12c O00658386   5.257   6.751   7.322  0.5350  0.0057  1.3199
  3144G12c C01T58387   5.219   6.888   7.362  0.1478  0.1347  1.0027
  3144G12c H00K58388   5.212   6.900   7.470 -5.6366  1.9260  0.6019
  3144G12c H00J58389   5.123   6.895   7.310  3.1690  3.0927 -4.6572
  3144G12c H00I58390   5.293   6.958   7.322 -0.3610 -0.6520 -1.4067
  3144G12c C01M58391   5.096   6.718   7.111  0.2189 -0.5720 -0.5894
  3144G12c C02058392   4.741   6.655   6.782 -0.5667  1.4654  0.7001
  3144G12c C02158393   4.741   6.801   6.775  0.3407  0.1053  0.8984
  3144G12c C01L58394   5.002   6.627   7.048 -0.3886 -0.6051 -2.5603
  3144G12c O00758395   5.133   6.851   7.065  0.1075 -0.1822 -0.3945
  3144G12c C02258396   4.849   6.870   6.815  0.9574  1.5556 -0.8298
  3144G12c C02358397   4.695   6.882   6.668 -0.4211  0.0760 -1.0615
  3144G12c C00G58398   4.708   6.971   6.415  0.0189 -0.3958  0.7547
  3144G12c C00E58399   4.709   7.160   6.276  1.2401  2.0534  0.6636
  3144G12c O00A58400   4.704   7.238   6.167 -1.8662 -1.3591  0.2379
  3144G12c C02458401   4.566   7.259   6.104 -0.9878  0.6797 -1.2741
  3144G12c H00V58402   4.563   7.245   5.996 -0.8625 -0.2113 -1.1693
  3144G12c H00U58403   4.516   7.163   6.115 -4.1477  2.4968  0.8440
  3144G12c H00T58404   4.486   7.323   6.138  2.4552  2.3005  4.5130
  3154G12c C00D58405  13.246  11.546   8.868  0.9352  0.8589 -0.2845
  3154G12c O00B58406  13.346  11.452   8.846  1.8558 -1.7212  0.0953
  3154G12c C02558407  13.489  11.481   8.885 -1.0240 -0.7751  0.1367
  3154G12c C02658408  13.577  11.531   8.763 -0.6867  0.3286 -0.4626
  3154G12c H00Y58409  13.596  11.424   8.756 -6.7806 -1.3137  3.8709
  3154G12c H00X58410  13.662  11.592   8.794  1.7162 -3.3930  0.6187
  3154G12c O00C58411  13.502  11.583   8.665  0.1017 -0.4102 -0.3262
  3154G12c H00W58412  13.430  11.621   8.714 -4.1709 -1.3595 -5.4189
  3154G12c C02758413  13.537  11.421   9.004 -0.5052  0.5471  0.2124
  3154G12c O00D58414  13.444  11.364   9.083  0.5459  0.8563  0.3717
  3154G12c H00Z58415  13.360  11.408   9.087  1.9256  4.1282 -2.9459
  3154G12c C02858416  13.682  11.381   9.017  0.2038 -0.8257 -0.2694
  3154G12c C02958417  13.692  11.258   9.054 -0.1001  0.4656 -0.0864
  3154G12c H01058418  13.598  11.229   9.098  1.5871 -1.1754  2.6318
  3154G12c C02T58419  13.829  11.208   9.069  0.6328 -0.7164  1.3133
  3154G12c H01O58420  13.829  11.113   9.121  1.1885 -1.4806 -0.0571
  3154G12c C02S58421  13.934  11.288   9.066  1.6092 -1.3744 -0.5741
  3154G12c O00J58422  14.048  11.262   9.123  0.2588  0.0121 -1.2565
  3154G12c H01P58423  14.098  11.342   9.123  3.8025 -2.0934 -0.9294
  3154G12c C02R58424  13.911  11.420   9.007 -0.1376 -0.5793 -1.0612
  3154G12c O00I58425  13.997  11.525   9.031 -0.0351 -0.2100  0.5051
  3154G12c C02Q58426  14.054  11.575   8.918 -0.5338  0.4712  0.1907
  3154G12c H01N58427  14.009  11.675   8.919 -0.9311  0.3041 -0.5290
  3154G12c H01R58428  14.052  11.514   8.828 -0.4679  3.0797 -1.6153
  3154G12c H01Q58429  14.158  11.601   8.938 -1.9041  8.4463 -1.1860
  3154G12c C02A58430  13.781  11.445   8.961  0.7344  2.6448  1.6720
  3154G12c H01158431  13.767  11.547   8.927 -0.6867  0.1747 -6.3408
  3154G12c C00C58432  13.267  11.685   8.854  0.6253  0.2540  1.2984
  3154G12c H01258433  13.366  11.730   8.854 -0.6028  3.4554 -4.5175
  3154G12c C00B58434  13.168  11.769   8.826  0.8922  0.4432  1.5343
  3154G12c C00A58435  13.204  11.909   8.823  2.4010 -0.4248 -0.4213
  3154G12c C00958436  13.321  11.983   8.860  0.1716  0.1446  0.6867
  3154G12c C00858437  13.446  11.962   8.893 -0.0961 -0.1386  0.3762
  3154G12c H01358438  13.500  11.880   8.848 -2.7016 -3.4879  3.0881
  3154G12c C00758439  13.497  12.055   8.997  0.3964 -0.8305  0.8254
  3154G12c H01458440  13.568  12.036   9.076  3.0850  2.5341 -0.6380
  3154G12c C00658441  13.434  12.177   9.026 -1.2962 -0.0275  1.3277
  3154G12c C00558442  13.317  12.196   8.964  0.3509 -0.4703 -0.2913
  3154G12c C00458443  13.228  12.281   9.029 -1.8160 -1.0313 -1.1553
  3154G12c C00358444  13.083  12.277   8.999  0.7297 -1.7266 -0.4712
  3154G12c C00258445  12.998  12.383   9.064  0.5541 -0.7365  1.4877
  3154G12c C00158446  12.861  12.406   9.077 -0.6066 -0.9426 -0.0030
  3154G12c C00M58447  12.784  12.290   9.084 -0.4496  1.1733 -0.5835
  3154G12c C00L58448  12.787  12.191   8.980  0.8193  0.2219 -0.1572
  3154G12c C00R58449  12.695  12.091   8.960  1.4071 -2.0667 -0.1585
  3154G12c C00Q58450  12.584  12.052   9.042  0.9099 -0.5164  0.9563
  3154G12c C00V58451  12.521  11.929   9.003 -1.0852  0.6462  0.1259
  3154G12c C00U58452  12.577  11.851   8.909 -0.3913 -0.0818 -2.8247
  3154G12c C00T58453  12.712  11.883   8.871  0.9158 -0.2759 -2.1025
  3154G12c C01658454  12.804  11.787   8.827 -0.1214  1.6164  1.0297
  3154G12c C01558455  12.769  11.653   8.806  0.7660  1.0177  0.9316
  3154G12c C01058456  12.637  11.621   8.845  0.7732 -0.6225  0.2622
  3154G12c C01158457  12.608  11.486   8.829  0.9540  1.3911  0.0714
  3154G12c H00558458  12.507  11.473   8.792 -0.3310  4.2838  2.3971
  3154G12c C01258459  12.691  11.374   8.835 -1.1862 -1.1134  1.8786
  3154G12c C01758460  12.649  11.241   8.810 -0.3249 -0.7012 -0.3893
  3154G12c O00258461  12.697  11.187   8.689 -1.0718  0.0755 -0.3388
  3154G12c H00458462  12.759  11.235   8.636 -3.5818  1.7024 -1.9130
  3154G12c C01858463  12.553  11.191   8.898 -1.1196 -0.0406  0.1587
  3154G12c O00158464  12.521  11.260   9.008  0.4881  1.4705  1.4578
  3154G12c H00358465  12.601  11.310   9.003  3.1296 -2.5820  0.8505
  3154G12c C01958466  12.455  11.058   8.869  0.3779  0.7393 -1.1288
  3154G12c H00258467  12.534  10.985   8.886  1.6497  2.8900  3.1684
  3154G12c H00158468  12.405  11.041   8.964  3.7410 -4.2861 -0.0700
  3154G12c O00058469  12.382  11.065   8.741 -0.7425  0.5009 -2.1137
  3154G12c C01A58470  12.423  11.011   8.624  0.5858  0.1750 -0.7520
  3154G12c C02K58471  12.462  10.878   8.594  1.1760  0.0534  0.8438
  3154G12c O00G58472  12.436  10.767   8.674  0.2800 -0.0158 -0.0157
  3154G12c C02M58473  12.310  10.756   8.765 -0.8443  0.1715 -0.4391
  3154G12c H01G58474  12.327  10.853   8.811 -0.4526 -2.7114  6.0035
  3154G12c H01F58475  12.298  10.723   8.868 -0.1234 -3.1084 -1.3426
  3154G12c H01E58476  12.212  10.782   8.724 -0.7859  1.3504  0.1374
  3154G12c C02J58477  12.556  10.857   8.484 -0.5047 -1.1060 -0.3740
  3154G12c H01H58478  12.569  10.751   8.469 -0.4091 -1.2266  0.5585
  3154G12c C02I58479  12.599  10.970   8.400 -0.0722 -1.1450 -0.0627
  3154G12c C02N58480  12.697  10.966   8.293 -1.0551 -0.3454 -2.1252
  3154G12c H01M58481  12.703  10.886   8.221 -0.9741 -2.6624  0.3839
  3154G12c C02O58482  12.740  11.099   8.282  0.6966 -0.5472 -1.3126
  3154G12c H01L58483  12.733  11.185   8.347  0.5090  1.2098 -3.6164
  3154G12c C02P58484  12.790  11.138   8.153 -1.4968 -1.9952  1.7515
  3154G12c H01K58485  12.838  11.236   8.164 -3.6189 -0.7394  0.0638
  3154G12c H01J58486  12.875  11.071   8.140 -1.6450 -2.0208  0.9159
  3154G12c O00H58487  12.700  11.123   8.057  0.7720  1.0868 -0.7209
  3154G12c H01I58488  12.665  11.209   8.037 -5.5953 -2.0335 -4.4105
  3154G12c C02H58489  12.504  11.074   8.403  0.0471 -0.2104  0.7366
  3154G12c H01C58490  12.507  11.147   8.323 -3.6228  2.5562  2.9653
  3154G12c C02L58491  12.431  11.110   8.518 -0.6213  0.8853  0.6950
  3154G12c H01D58492  12.421  11.215   8.497  3.6419  1.6650  2.0411
  3154G12c C01358493  12.837  11.411   8.850 -0.4794 -2.2958  1.3873
  3154G12c H00058494  12.904  11.329   8.873 -0.1949 -4.0753 -4.8320
  3154G12c C01458495  12.873  11.549   8.800  0.8468  2.8869 -0.4207
  3154G12c C00F58496  13.003  11.593   8.825 -0.4816  0.0919 -0.6525
  3154G12c C00H58497  12.929  11.824   8.808 -0.0688 -1.0736 -1.6070
  3154G12c C00I58498  12.959  11.961   8.817 -0.6416  0.7687  0.0032
  3154G12c C00J58499  12.863  12.061   8.808  1.2982 -1.0611 -0.3212
  3154G12c C00Z58500  12.542  11.713   8.886  1.8623  0.1511 -0.3311
  3154G12c C00Y58501  12.416  11.670   8.936 -0.3564 -0.7105 -0.6228
  3154G12c H00658502  12.383  11.568   8.930  0.6501 -1.6496  5.7167
  3154G12c C00X58503  12.325  11.745   9.022  1.7579 -1.7049  0.3950
  3154G12c O00358504  12.203  11.711   9.080 -0.1666 -0.6273  0.6939
  3154G12c C01B58505  12.177  11.568   9.103 -0.1649 -0.5798  1.5542
  3154G12c H00958506  12.192  11.542   9.208  2.8997 -2.7467  0.6439
  3154G12c H00858507  12.219  11.480   9.053 -7.8379 -5.0532  2.1290
  3154G12c H00758508  12.075  11.538   9.077 -0.6108  0.0574  2.5269
  3154G12c C00W58509  12.400  11.875   9.061  0.6282 -0.5299 -0.6620
  3154G12c O00458510  12.336  11.951   9.142 -0.7079 -0.4438 -1.1089
  3154G12c C01C58511  12.432  12.026   9.209 -0.4603 -0.2393 -0.9757
  3154G12c H00A58512  12.426  12.040   9.316  1.9474  7.0753 -1.5298
  3154G12c C00P58513  12.532  12.111   9.157  2.3350 -0.5515  0.0857
  3154G12c C00O58514  12.591  12.218   9.236  1.4991  0.4123 -0.9764
  3154G12c C01D58515  12.557  12.243   9.376 -0.4993 -1.5209  1.9274
  3154G12c H00S58516  12.483  12.194   9.438 -5.0769 -0.8446 -2.6350
  3154G12c C01E58517  12.596  12.353   9.454  1.1650  0.4719 -0.6514
  3154G12c O00858518  12.558  12.370   9.582  0.3497  0.6356 -2.6851
  3154G12c C01V58519  12.463  12.484   9.599 -0.9506 -1.1915 -0.9053
  3154G12c C01Z58520  12.373  12.450   9.714 -0.0600  0.7226 -1.1170
  3154G12c H00R58521  12.316  12.533   9.757  3.0130  1.0812  2.5330
  3154G12c H00Q58522  12.295  12.382   9.681  1.5448 -0.4685 -2.5928
  3154G12c O00958523  12.443  12.427   9.831  0.8502  0.0929  0.8243
  3154G12c H00P58524  12.530  12.412   9.796  0.5896  3.1510 -1.3446
  3154G12c C01W58525  12.471  12.615   9.538  1.8638  1.7190 -0.3597
  3154G12c H00O58526  12.543  12.611   9.458 -2.8766  1.8866 -4.9246
  3154G12c C01X58527  12.389  12.740   9.583  0.9331 -1.2205 -1.3142
  3154G12c H00N58528  12.370  12.782   9.484 -0.1946  2.2584  0.3061
  3154G12c H00M58529  12.290  12.721   9.625 -0.8135  2.6936 -3.3474
  3154G12c C01Y58530  12.477  12.831   9.672 -1.5922  0.1900  0.1094
  3154G12c C02D58531  12.576  12.922   9.624  0.2655  0.4847 -1.0303
  3154G12c H01958532  12.561  12.942   9.519  8.4347  2.7415 -2.1178
  3154G12c C02C58533  12.623  13.005   9.709 -0.0936  1.6988 -0.8354
  3154G12c H01A58534  12.689  13.088   9.691  2.9288 -0.8206 -1.8273
  3154G12c C02B58535  12.621  12.970   9.855 -0.1665 -1.3575  0.0249
  3154G12c O00E58536  12.693  13.055   9.937  1.2938  0.3072 -0.0496
  3154G12c H01B58537  12.714  13.008  10.016 -3.5270  0.2591  1.3559
  3154G12c C02F58538  12.524  12.880   9.907  0.3664 -0.9028  1.6997
  3154G12c O00F58539  12.493  12.840  10.028  1.5249 -0.8892 -0.0337
  3154G12c C02G58540  12.379  12.883  10.098 -0.0011 -0.5588 -0.1505
  3154G12c H01758541  12.398  12.989  10.111 -3.1497  0.5849 -4.0116
  3154G12c H01658542  12.380  12.880  10.207 -5.2781 -1.2925 -0.0206
  3154G12c H01558543  12.276  12.878  10.065 -1.1221 -1.7923  3.3066
  3154G12c C02E58544  12.456  12.815   9.810 -1.1125 -0.3790 -0.2366
  3154G12c H01858545  12.400  12.723   9.821 -0.5091 -1.1074 -2.7296
  3154G12c C01F58546  12.704  12.441   9.401 -0.4005  1.4144  0.3987
  3154G12c C01G58547  12.786  12.524   9.463 -0.5804 -0.1027  0.5095
  3154G12c H00L58548  12.753  12.548   9.563 -6.5720 -3.9854 -0.2820
  3154G12c C01H58549  12.915  12.554   9.399 -1.1544 -1.9449  0.0131
  3154G12c H00B58550  12.993  12.617   9.441  3.4117 -4.2276 -4.5205
  3154G12c C01I58551  12.949  12.497   9.266  1.1890 -0.1701 -0.6295
  3154G12c C01U58552  12.731  12.420   9.258  0.6878  0.7715  1.3644
  3154G12c C00S58553  12.746  12.015   8.862  0.1325  0.7475  0.1815
  3154G12c C00K58554  12.887  12.163   8.905 -0.9888  1.0166 -1.1303
  3154G12c C00N58555  12.697  12.293   9.196 -0.9115 -0.9800 -0.9172
  3154G12c C00058556  12.835  12.480   9.183  2.4972  0.0244  0.5421
  3154G12c C01J58557  13.050  12.466   9.172 -0.9527  0.8869 -0.0406
  3154G12c C01K58558  13.197  12.460   9.202 -0.4256 -1.4076 -0.6477
  3154G12c C01P58559  13.269  12.572   9.289  0.5704  0.4162 -0.0180
  3154G12c C01Q58560  13.220  12.701   9.320  0.8226  0.2544 -1.2483
  3154G12c H00G58561  13.225  12.715   9.427  1.5364  2.1422 -1.5116
  3154G12c C01R58562  13.149  12.788   9.249  1.3501 -0.7368 -0.3303
  3154G12c H00F58563  13.135  12.781   9.142 -3.3246 -0.1944  0.0999
  3154G12c C01S58564  13.108  12.930   9.289  0.4102  0.7186  0.2043
  3154G12c H00E58565  13.172  13.003   9.238  1.5413  2.9046  4.4768
  3154G12c H00D58566  13.007  12.904   9.259  1.0631 -0.7983 -0.6952
  3154G12c O00558567  13.065  12.943   9.420 -0.3530 -0.2525 -0.7933
  3154G12c H00C58568  13.030  12.857   9.439 -2.4165 -0.2243 -4.0047
  3154G12c C01O58569  13.393  12.522   9.348 -0.6140  0.6653  0.5583
  3154G12c H00H58570  13.404  12.538   9.455  5.3748  0.8746  0.0877
  3154G12c C01N58571  13.466  12.436   9.271 -0.4397 -2.6065 -0.7882
  3154G12c O00658572  13.604  12.476   9.267 -0.4825  0.4980 -1.0563
  3154G12c C01T58573  13.634  12.607   9.253 -0.0320  0.5077  0.6934
  3154G12c H00K58574  13.729  12.628   9.204  0.4536 -3.2191 -0.0641
  3154G12c H00J58575  13.668  12.661   9.341  5.3789  1.1764 -1.6108
  3154G12c H00I58576  13.563  12.648   9.181 -0.4918 -2.0556 -0.3413
  3154G12c C01M58577  13.417  12.359   9.167  0.0691 -1.5457  0.4861
  3154G12c C02058578  13.026  12.195   8.907 -0.1740 -0.1492 -0.9116
  3154G12c C02158579  13.126  12.119   8.844 -0.6019  1.4068  0.5484
  3154G12c C01L58580  13.279  12.366   9.130 -0.3447 -0.0450  1.1975
  3154G12c O00758581  13.495  12.289   9.084  0.3607  0.4255 -0.3005
  3154G12c C02258582  13.257  12.112   8.877  0.3718  0.1383 -1.1801
  3154G12c C02358583  13.093  11.986   8.803 -2.1757 -1.7616 -1.5267
  3154G12c C00G58584  13.034  11.729   8.806 -1.7823  0.2858  1.3332
  3154G12c C00E58585  13.116  11.500   8.839  1.7792 -0.6786  0.0822
  3154G12c O00A58586  13.100  11.387   8.789  0.7731 -1.5969  0.8912
  3154G12c C02458587  13.151  11.374   8.659 -0.0006  1.1091  0.1996
  3154G12c H00V58588  13.229  11.298   8.664 -1.0299  0.0127  0.0476
  3154G12c H00U58589  13.198  11.447   8.595  4.3461  0.0743  2.0213
  3154G12c H00T58590  13.082  11.329   8.588  1.9770 -7.9281  3.2943
  3164G12c C00D58591   7.614   3.197  11.948 -0.2916 -0.9083 -0.3636
  3164G12c O00B58592   7.614   3.226  12.085 -1.0352 -0.3387  0.8176
  3164G12c C02558593   7.745   3.264  12.124  0.2599  0.5869  2.0310
  3164G12c C02658594   7.845   3.354  12.030 -0.0612  1.2530  1.1795
  3164G12c H00Y58595   7.913   3.310  11.957  1.2438  2.0312  1.9113
  3164G12c H00X58596   7.880   3.436  12.093  0.7286  1.7728  0.0902
  3164G12c O00C58597   7.766   3.472  11.984  0.0181 -0.2167  0.9508
  3164G12c H00W58598   7.684   3.426  11.994 -0.8164  0.0084 -3.9178
  3164G12c C02758599   7.752   3.282  12.255  1.5925 -0.2850 -0.7337
  3164G12c O00D58600   7.635   3.255  12.332 -0.9890  0.9356 -0.2134
  3164G12c H00Z58601   7.567   3.262  12.266 -2.0287  0.4598  0.7939
  3164G12c C02858602   7.870   3.346  12.316 -1.2393 -0.6910 -1.3944
  3164G12c C02958603   7.991   3.279  12.293 -0.3741  2.6808  1.1749
  3164G12c H01058604   8.007   3.180  12.252 -1.0030  2.1572  2.1762
  3164G12c C02T58605   8.105   3.321  12.365  0.2645 -0.8601  0.2963
  3164G12c H01O58606   8.210   3.298  12.372  1.0687  3.3996  4.9234
  3164G12c C02S58607   8.099   3.445  12.415 -0.8543  0.1875  0.2636
  3164G12c O00J58608   8.204   3.502  12.481 -0.5392 -0.5184 -1.6356
  3164G12c H01P58609   8.170   3.536  12.562 -6.4113 -5.0232 -1.8969
  3164G12c C02R58610   7.997   3.538  12.383 -2.3980 -0.0174  0.3811
  3164G12c O00I58611   8.026   3.663  12.424 -1.0611  0.2282 -1.1037
  3164G12c C02Q58612   8.079   3.743  12.311 -0.4840  1.0723 -0.3423
  3164G12c H01N58613   8.018   3.833  12.305  0.9059  1.8516 -7.9419
  3164G12c H01R58614   8.187   3.760  12.311 -0.3473  0.2468  0.5761
  3164G12c H01Q58615   8.051   3.696  12.216  0.4335  2.3142 -1.2417
  3164G12c C02A58616   7.876   3.481  12.347  0.0378  0.7918 -0.3351
  3164G12c H01158617   7.785   3.539  12.353  0.1341  1.1433 -1.9929
  3164G12c C00C58618   7.718   3.119  11.875  0.2025  1.0976 -0.2317
  3164G12c H01258619   7.778   3.062  11.945  2.3280  1.5908 -1.5922
  3164G12c C00B58620   7.720   3.102  11.741  1.0197  1.1734  0.2826
  3164G12c C00A58621   7.783   2.987  11.676  0.6496  1.0958 -1.5637
  3164G12c C00958622   7.924   2.942  11.711  0.1009 -3.2045 -0.3183
  3164G12c C00858623   8.038   2.992  11.789  0.1658 -0.4095 -1.8120
  3164G12c H01358624   8.027   3.058  11.875 -3.6565  4.5688 -5.7886
  3164G12c C00758625   8.176   2.981  11.741  0.4983  1.7856  1.4511
  3164G12c H01458626   8.244   3.043  11.798  1.0416 -1.7942  4.9313
  3164G12c C00658627   8.210   2.905  11.629 -0.5330  0.4717 -1.9697
  3164G12c C00558628   8.108   2.857  11.544  0.4823  0.5615 -0.1652
  3164G12c C00458629   8.138   2.839  11.404 -1.0047  0.9332  0.9501
  3164G12c C00358630   8.030   2.862  11.312  0.4951  2.0458  0.2450
  3164G12c C00258631   8.089   2.866  11.181  0.3422  0.4790  1.6144
  3164G12c C00158632   8.018   2.907  11.053 -0.3727 -0.4097  0.1540
  3164G12c C00M58633   7.944   3.032  11.043  1.3305  0.2383  0.8232
  3164G12c C00L58634   7.851   3.061  11.143  0.6126  1.6428  1.0488
  3164G12c C00R58635   7.787   3.182  11.158 -0.4919  2.8393  1.2584
  3164G12c C00Q58636   7.798   3.317  11.089  1.0595  1.3349 -0.8168
  3164G12c C00V58637   7.683   3.402  11.123 -1.0040 -1.1406 -0.6166
  3164G12c C00U58638   7.636   3.411  11.260 -0.4691 -0.0632  0.6643
  3164G12c C00T58639   7.641   3.300  11.330 -1.8444  0.0097 -1.9798
  3164G12c C01658640   7.621   3.282  11.464 -0.2704  0.0834  0.3273
  3164G12c C01558641   7.548   3.380  11.521  0.0498 -0.4615  0.8020
  3164G12c C01058642   7.517   3.497  11.442 -0.4653  0.6286 -0.3423
  3164G12c C01158643   7.421   3.592  11.490 -0.6060  0.3701 -0.4756
  3164G12c H00558644   7.383   3.676  11.433 -4.1309 -0.0545  1.0957
  3164G12c C01258645   7.344   3.587  11.623 -1.5411  1.0718  0.2792
  3164G12c C01758646   7.255   3.672  11.672  1.5684 -0.6017  0.1910
  3164G12c O00258647   7.130   3.625  11.629  0.8034 -1.1371 -0.2631
  3164G12c H00458648   7.075   3.699  11.607 -0.5308 -3.2950 -4.8608
  3164G12c C01858649   7.285   3.757  11.767  0.1345 -0.0541  0.4514
  3164G12c O00158650   7.416   3.761  11.783  1.9091 -0.0250  1.4800
  3164G12c H00358651   7.443   3.704  11.712  2.1424  4.5783 -2.4382
  3164G12c C01958652   7.190   3.823  11.857  1.0160 -0.1361  0.3611
  3164G12c H00258653   7.139   3.840  11.762 -2.8095 -1.8801  2.0280
  3164G12c H00158654   7.236   3.916  11.891  1.5665  0.3143 -1.5627
  3164G12c O00058655   7.096   3.745  11.931 -0.8818 -0.4058  1.7967
  3164G12c C01A58656   7.115   3.758  12.066 -0.6383 -0.9304 -0.9958
  3164G12c C02K58657   7.013   3.799  12.165  0.4035  0.0558  0.9814
  3164G12c O00G58658   6.888   3.865  12.150 -0.4357  0.7044 -2.1725
  3164G12c C02M58659   6.837   3.903  12.017 -0.0247  1.0479  0.3057
  3164G12c H01G58660   6.728   3.912  12.012 -0.4580 -2.2575  2.0443
  3164G12c H01F58661   6.843   4.011  12.022 -0.3466  0.9345  6.5021
  3164G12c H01E58662   6.896   3.885  11.927  6.4524 -2.7714  4.8901
  3164G12c C02J58663   7.056   3.786  12.298  1.4274 -0.6316  0.9329
  3164G12c H01H58664   6.972   3.811  12.362  2.3400  1.1375  1.4920
  3164G12c C02I58665   7.180   3.743  12.343 -1.5641  0.3556 -1.6350
  3164G12c C02N58666   7.231   3.765  12.466  0.0416 -1.5986  0.0419
  3164G12c H01M58667   7.226   3.866  12.503 -0.4261 -2.3445  2.1006
  3164G12c C02O58668   7.297   3.678  12.544  1.1487  1.9344 -1.5706
  3164G12c H01L58669   7.353   3.722  12.625  1.1975  1.1906 -1.1923
  3164G12c C02P58670   7.318   3.516  12.510  0.1045  1.6373  0.7671
  3164G12c H01K58671   7.268   3.477  12.421  1.2817  4.5879 -1.2442
  3164G12c H01J58672   7.427   3.520  12.514  0.6283 -5.4665  0.2413
  3164G12c O00H58673   7.243   3.431  12.617 -0.0310 -0.1199  1.0608
  3164G12c H01I58674   7.181   3.482  12.666  3.3946  2.8523  2.4843
  3164G12c C02H58675   7.278   3.691  12.249  1.0254  0.4183  0.0037
  3164G12c H01C58676   7.367   3.640  12.281  0.2664  2.8246  6.7526
  3164G12c C02L58677   7.222   3.681  12.114  0.4914 -0.0623  1.1885
  3164G12c H01D58678   7.311   3.643  12.066  0.8157  3.6255 -1.3246
  3164G12c C01358679   7.392   3.470  11.685 -0.9207 -0.4831 -0.4242
  3164G12c H00058680   7.325   3.455  11.769  0.8978 -4.9671  0.4053
  3164G12c C01458681   7.498   3.373  11.650  1.6615  2.0689  0.5580
  3164G12c C00F58682   7.553   3.257  11.724  2.3289 -0.4113  0.8838
  3164G12c C00H58683   7.655   3.158  11.528  1.0175 -0.2855 -0.9550
  3164G12c C00I58684   7.707   3.048  11.465 -0.0386 -0.0814 -0.4054
  3164G12c C00J58685   7.733   3.072  11.323  0.7743 -0.7362 -1.0283
  3164G12c C00Z58686   7.564   3.517  11.315  1.0457 -0.3805 -0.7988
  3164G12c C00Y58687   7.506   3.590  11.207  0.2487  0.2049 -0.3079
  3164G12c H00658688   7.419   3.645  11.237 -1.4529 -2.2563 -0.5891
  3164G12c C00X58689   7.556   3.588  11.072  0.4848 -0.5988  0.1994
  3164G12c O00358690   7.491   3.664  10.981 -0.2162  1.1172 -1.0680
  3164G12c C01B58691   7.420   3.599  10.878  0.0329  0.7339  0.4891
  3164G12c H00958692   7.475   3.521  10.825  4.4047  4.8899 -1.4880
  3164G12c H00858693   7.325   3.557  10.910  0.5868 -0.0894  1.0796
  3164G12c H00758694   7.422   3.655  10.785  5.0012 -2.9419 -1.8752
  3164G12c C00W58695   7.678   3.524  11.040 -1.4623 -0.6953  0.2517
  3164G12c O00458696   7.748   3.550  10.926  0.6704 -0.9036 -0.2095
  3164G12c C01C58697   7.872   3.491  10.936  0.9988  0.0741 -0.6447
  3164G12c H00A58698   7.929   3.532  10.853  1.8283 -2.5964 -1.4304
  3164G12c C00P58699   7.885   3.359  10.991 -0.7609  0.1823  0.4421
  3164G12c C00O58700   7.995   3.281  10.944 -0.6186  1.1952  0.2595
  3164G12c C01D58701   8.097   3.325  10.848  1.5562 -1.8535  0.2218
  3164G12c H00S58702   8.088   3.429  10.821  0.1073 -0.6822  4.8920
  3164G12c C01E58703   8.204   3.258  10.794 -1.7551 -0.1074 -0.5492
  3164G12c O00858704   8.291   3.340  10.720  0.6693 -1.4521 -0.1702
  3164G12c C01V58705   8.344   3.250  10.619  2.3073 -0.4252 -1.4738
  3164G12c C01Z58706   8.234   3.212  10.503  0.6141 -0.9091  0.5244
  3164G12c H00R58707   8.201   3.109  10.495  0.4721 -0.9830  2.0441
  3164G12c H00Q58708   8.141   3.265  10.525 -3.3650 -7.0436 -0.3908
  3164G12c O00958709   8.254   3.255  10.374 -1.7481 -1.5102 -0.1891
  3164G12c H00P58710   8.331   3.306  10.356 -2.0583 -0.3531  1.6109
  3164G12c C01W58711   8.486   3.230  10.622  0.4458  1.6704  1.1562
  3164G12c H00O58712   8.560   3.271  10.689 -2.6056  4.4493  2.9977
  3164G12c C01X58713   8.585   3.194  10.500  0.9391 -0.1794  0.2201
  3164G12c H00N58714   8.517   3.159  10.423  0.0085 -5.4252  3.1345
  3164G12c H00M58715   8.638   3.286  10.476  3.5066 -2.3836 -2.9727
  3164G12c C01Y58716   8.673   3.071  10.550 -0.3456 -0.4093 -0.2392
  3164G12c C02D58717   8.642   2.929  10.519 -1.3431 -1.5910 -1.5320
  3164G12c H01958718   8.549   2.919  10.465 -2.9234  0.8367  0.6615
  3164G12c C02C58719   8.743   2.823  10.536  0.8263 -0.4732  0.7162
  3164G12c H01A58720   8.706   2.722  10.525 -2.4767  0.0103  5.7257
  3164G12c C02B58721   8.878   2.852  10.553 -0.1651  0.5969  0.0146
  3164G12c O00E58722   8.978   2.761  10.521 -1.1284 -0.0287 -0.9429
  3164G12c H01B58723   9.061   2.803  10.505 -0.9392 -1.1280 -2.9112
  3164G12c C02F58724   8.906   2.982  10.594 -1.1543  0.6091 -0.8932
  3164G12c O00F58725   9.020   3.030  10.642 -1.0346  0.1191 -0.5361
  3164G12c C02G58726   9.075   2.999  10.761 -0.0621 -0.1700  0.4320
  3164G12c H01758727   9.178   2.966  10.750 -0.5076 -2.4358  2.4981
  3164G12c H01658728   9.070   3.091  10.819 -6.3775  0.5662 -0.9321
  3164G12c H01558729   9.034   2.914  10.816 -2.3209 -2.2912 -4.2307
  3164G12c C02E58730   8.802   3.078  10.609 -0.6968 -0.0597  2.1651
  3164G12c H01858731   8.827   3.178  10.641  3.3015  0.0028 -0.7111
  3164G12c C01F58732   8.246   3.148  10.876 -0.7862  0.9322 -0.0399
  3164G12c C01G58733   8.375   3.085  10.907 -0.2584 -0.1518 -0.0579
  3164G12c H00L58734   8.442   3.158  10.864  1.8456 -1.3418  1.1013
  3164G12c C01H58735   8.377   2.963  10.982  1.1136 -0.3805 -0.0202
  3164G12c H00B58736   8.468   2.935  11.034  5.1312  3.1163 -4.6537
  3164G12c C01I58737   8.258   2.886  11.023  2.0960  0.4350 -0.4618
  3164G12c C01U58738   8.130   3.070  10.926 -1.4519 -0.7149  1.3746
  3164G12c C00S58739   7.712   3.190  11.267  2.1036  0.8374  0.8525
  3164G12c C00K58740   7.838   3.003  11.266 -0.7685 -0.8551  1.5761
  3164G12c C00N58741   8.018   3.133  10.963 -0.0072 -0.9265  0.2597
  3164G12c C00058742   8.128   2.928  10.968  0.7313  0.3873  0.0349
  3164G12c C01J58743   8.229   2.867  11.155 -0.7126 -3.0069  1.7435
  3164G12c C01K58744   8.309   2.786  11.241  2.0031  0.4931  0.9178
  3164G12c C01P58745   8.419   2.714  11.229 -0.1924 -0.3427  1.0174
  3164G12c C01Q58746   8.461   2.646  11.104  1.2015  0.4730 -0.4037
  3164G12c H00G58747   8.418   2.677  11.010  1.4749  3.2088  0.3495
  3164G12c C01R58748   8.499   2.510  11.114 -0.9449  0.1222  1.6643
  3164G12c H00F58749   8.489   2.458  11.020 -1.2644  1.8323  0.7461
  3164G12c C01S58750   8.534   2.417  11.234  0.8294  0.6439 -0.7413
  3164G12c H00E58751   8.602   2.341  11.195 -1.4244 -0.8692 -1.8460
  3164G12c H00D58752   8.618   2.409  11.303  1.5862 -2.1246 -1.9099
  3164G12c O00558753   8.433   2.339  11.299 -1.1769  1.5722 -0.5922
  3164G12c H00C58754   8.368   2.405  11.317 -0.9644  1.3051  1.3266
  3164G12c C01O58755   8.517   2.699  11.331  0.6296  1.2177 -1.7173
  3164G12c H00H58756   8.611   2.646  11.326  3.1237  5.3078 -0.8707
  3164G12c C01N58757   8.497   2.781  11.458  0.7602  0.2731 -0.3585
  3164G12c O00658758   8.608   2.772  11.538 -1.2526  0.0674  1.3103
  3164G12c C01T58759   8.661   2.902  11.574 -0.2577  1.0123 -1.4025
  3164G12c H00K58760   8.682   2.984  11.505 -4.8557  1.1242 -2.8150
  3164G12c H00J58761   8.570   2.935  11.624 -2.4405 -4.7531 -1.2030
  3164G12c H00I58762   8.719   2.890  11.665 -0.8988  2.4928 -0.7887
  3164G12c C01M58763   8.373   2.823  11.479  0.9653 -0.1742  0.2108
  3164G12c C02058764   7.906   2.916  11.360 -0.5405  1.2778 -0.6825
  3164G12c C02158765   7.875   2.905  11.492  1.5593  0.3069  1.6369
  3164G12c C01L58766   8.269   2.811  11.378 -1.4274  0.5853  0.3625
  3164G12c O00758767   8.336   2.883  11.594  0.3935 -1.0826 -0.4588
  3164G12c C02258768   7.973   2.879  11.581  2.1181  0.8087 -0.1635
  3164G12c C02358769   7.766   2.956  11.547  0.9651 -0.9403 -0.1280
  3164G12c C00G58770   7.639   3.176  11.666 -1.1689 -0.7835  0.4862
  3164G12c C00E58771   7.527   3.259  11.858  0.2385  1.7046 -0.0767
  3164G12c O00A58772   7.406   3.309  11.905 -1.9217 -0.8143  0.3757
  3164G12c C02458773   7.388   3.383  12.039  0.6616  0.1851 -0.7186
  3164G12c H00V58774   7.403   3.300  12.109  0.8833 -1.7329 -2.9786
  3164G12c H00U58775   7.289   3.421  12.064  2.3825  2.2029  3.5571
  3164G12c H00T58776   7.464   3.453  12.074  1.9919 -0.4214 -2.3544
  3174G12c C00D58777  11.993   7.982   0.744  0.7095 -0.3503 -0.4767
  3174G12c O00B58778  11.972   8.088   0.669  0.0081 -0.6283 -1.4912
  3174G12c C02558779  12.041   8.152   0.567  0.3620 -0.0737 -1.4550
  3174G12c C02658780  12.159   8.234   0.639  0.4448  0.0899 -0.3624
  3174G12c H00Y58781  12.212   8.276   0.554 -2.3855 -1.1390 -2.8266
  3174G12c H00X58782  12.212   8.161   0.700  1.8334  1.2604 -0.1305
  3174G12c O00C58783  12.087   8.321   0.739  0.3970  1.1089  1.8135
  3174G12c H00W58784  12.103   8.405   0.700  1.0547 -1.0555 -3.0022
  3174G12c C02758785  12.015   8.137   0.444  0.4811  2.8870  0.1196
  3174G12c O00D58786  12.084   8.209   0.354 -0.2411  0.7107  0.1340
  3174G12c H00Z58787  12.123   8.286   0.394  0.8255 -3.4402  8.1785
  3174G12c C02858788  11.889   8.060   0.403 -0.9716 -0.1802 -1.1252
  3174G12c C02958789  11.827   7.950   0.449  0.2848  0.4774  0.6080
  3174G12c H01058790  11.859   7.869   0.512  3.1385  1.3052  0.2801
  3174G12c C02T58791  11.713   7.890   0.381 -1.3335 -1.0615  0.1142
  3174G12c H01O58792  11.654   7.806   0.416 -5.4368 -1.8483 -7.4680
  3174G12c C02S58793  11.633   7.966   0.283  0.1093  0.9852 -0.4459
  3174G12c O00J58794  11.522   7.916   0.230 -1.9126  0.8078 -0.5638
  3174G12c H01P58795  11.510   7.991   0.173  0.6064 -1.2222 -3.9533
  3174G12c C02R58796  11.672   8.099   0.264 -0.4817 -0.7677  0.2094
  3174G12c O00I58797  11.595   8.197   0.193 -0.2882 -0.9343  0.4111
  3174G12c C02Q58798  11.468   8.223   0.258 -1.0389  0.9134  0.3577
  3174G12c H01N58799  11.502   8.201   0.359  5.8422 -1.2267 -2.0956
  3174G12c H01R58800  11.403   8.139   0.233  2.2749 -3.7951  6.2181
  3174G12c H01Q58801  11.435   8.322   0.228 -2.5171 -0.7860 -4.1113
  3174G12c C02A58802  11.800   8.142   0.313 -0.0034  0.9902 -1.0830
  3174G12c H01158803  11.829   8.242   0.284  4.6515  2.0599  5.9495
  3174G12c C00C58804  12.088   7.891   0.689 -0.8806  1.1277  1.3777
  3174G12c H01258805  12.143   7.924   0.603  1.5748 -0.0734  2.4453
  3174G12c C00B58806  12.140   7.764   0.743  0.1361 -0.4676 -0.7675
  3174G12c C00A58807  12.248   7.670   0.700  2.8343  0.0777  1.9409
  3174G12c C00958808  12.315   7.674   0.572  0.9340 -0.5656 -0.4504
  3174G12c C00858809  12.294   7.772   0.473 -0.1138 -0.8826 -0.2376
  3174G12c H01358810  12.274   7.877   0.488  0.5969 -0.7613 -0.1247
  3174G12c C00758811  12.279   7.725   0.335 -0.2018 -1.0010 -0.4498
  3174G12c H01458812  12.243   7.797   0.264  1.3629 -3.9657 -4.4365
  3174G12c C00658813  12.256   7.574   0.339  1.1678  0.2918  1.3463
  3174G12c C00558814  12.319   7.489   0.441 -1.0706 -1.8181 -0.1581
  3174G12c C00458815  12.309   7.350   0.438  0.5318  2.0224 -0.6058
  3174G12c C00358816  12.301   7.272   0.558  0.0985 -0.1035 -1.1315
  3174G12c C00258817  12.310   7.125   0.540 -2.5574  0.5021  0.9412
  3174G12c C00158818  12.292   7.026   0.635 -1.6163 -1.4497 -0.2037
  3174G12c C00M58819  12.199   7.030   0.741 -0.2591 -1.9320 -0.5899
  3174G12c C00L58820  12.176   7.141   0.825  0.2972  1.7971 -1.7406
  3174G12c C00R58821  12.049   7.184   0.907 -0.9977 -0.6105  0.9288
  3174G12c C00Q58822  11.931   7.110   0.932 -0.7783 -2.8872 -0.2865
  3174G12c C00V58823  11.830   7.192   0.984 -1.5558  0.0413 -0.2718
  3174G12c C00U58824  11.837   7.329   1.001 -1.0448  1.6001  0.8588
  3174G12c C00T58825  11.958   7.392   0.987  1.4288  1.3219 -1.7493
  3174G12c C01658826  11.967   7.528   0.976 -0.8888  0.9918  0.0891
  3174G12c C01558827  11.873   7.613   1.010  0.4873  0.0595 -1.3995
  3174G12c C01058828  11.757   7.554   1.063  0.1508 -0.9003  0.4252
  3174G12c C01158829  11.665   7.628   1.151 -0.1543  3.7876  1.1429
  3174G12c H00558830  11.600   7.587   1.227 -1.7529  2.5288 -0.8447
  3174G12c C01258831  11.680   7.768   1.153 -1.1793 -0.6848 -0.5466
  3174G12c C01758832  11.566   7.854   1.196  0.5087 -0.2404  1.4951
  3174G12c O00258833  11.524   7.965   1.116 -1.8347  1.2382  0.2302
  3174G12c H00458834  11.444   7.979   1.164 -2.2950  2.4983 -0.9063
  3174G12c C01858835  11.500   7.845   1.318  1.7039  0.4782  0.4418
  3174G12c O00158836  11.544   7.781   1.430 -0.3356 -0.3908  1.6218
  3174G12c H00358837  11.627   7.781   1.474 -0.7078  1.5749  2.4043
  3174G12c C01958838  11.370   7.924   1.330  1.1382 -0.9714  0.0092
  3174G12c H00258839  11.316   7.867   1.406 -2.4010 -0.9495 -2.3560
  3174G12c H00158840  11.396   8.015   1.383  0.8757 -1.6929  1.4087
  3174G12c O00058841  11.289   7.951   1.202  1.7133 -0.6044 -1.5618
  3174G12c C01A58842  11.161   7.914   1.228 -0.0913 -1.0736 -0.0649
  3174G12c C02K58843  11.089   8.023   1.274 -0.9044  0.1900  0.9468
  3174G12c O00G58844  11.154   8.146   1.266  0.9789 -0.0068  1.1600
  3174G12c C02M58845  11.093   8.239   1.335 -0.9216 -1.1317 -0.7815
  3174G12c H01G58846  11.171   8.310   1.363 -2.2264 -1.1281  3.2587
  3174G12c H01F58847  11.078   8.211   1.439 -2.6613  6.9082  1.4861
  3174G12c H01E58848  11.026   8.301   1.274 -0.5826  0.4735  0.4212
  3174G12c C02J58849  10.950   8.013   1.281  0.7948 -0.6215 -0.2217
  3174G12c H01H58850  10.900   8.095   1.331  0.8061 -0.3714 -0.6179
  3174G12c C02I58851  10.881   7.902   1.262 -1.2887  0.9263  2.1268
  3174G12c C02N58852  10.760   7.877   1.314  0.1366 -1.1851 -1.7091
  3174G12c H01M58853  10.730   7.777   1.343 -3.7174  1.1953  3.2003
  3174G12c C02O58854  10.665   7.965   1.361 -0.3310 -0.0605 -0.8866
  3174G12c H01L58855  10.670   8.072   1.354 -1.0330  0.2056  2.1439
  3174G12c C02P58856  10.578   7.911   1.466 -0.7980  0.4807 -0.3378
  3174G12c H01K58857  10.636   7.831   1.511  3.5780  2.8892 -1.4635
  3174G12c H01J58858  10.530   7.983   1.532 -9.2249 -3.8316 -1.0574
  3174G12c O00H58859  10.450   7.869   1.434 -0.1983 -0.0285  0.9657
  3174G12c H01I58860  10.393   7.847   1.507  1.3643 -2.3757  1.5449
  3174G12c C02H58861  10.954   7.786   1.222 -0.6011  0.8945 -2.1513
  3174G12c H01C58862  10.898   7.696   1.201 -1.5976  1.8440 -3.6263
  3174G12c C02L58863  11.100   7.793   1.198 -0.5092  1.5550 -0.9438
  3174G12c H01D58864  11.161   7.704   1.196 -1.2046  1.0820 -3.6468
  3174G12c C01358865  11.767   7.830   1.070 -0.6039  0.6237  0.9372
  3174G12c H00058866  11.756   7.938   1.069  0.0888  0.7213  2.4883
  3174G12c C01458867  11.877   7.753   1.006  1.6101 -2.1442 -1.7883
  3174G12c C00F58868  11.966   7.799   0.909 -0.2606 -0.8198 -0.6345
  3174G12c C00H58869  12.081   7.573   0.906 -0.1146 -1.3716 -0.1555
  3174G12c C00I58870  12.189   7.503   0.873  1.1947 -0.9137 -0.0070
  3174G12c C00J58871  12.179   7.367   0.877 -0.3879 -0.5042 -1.4633
  3174G12c C00Z58872  11.728   7.418   1.032 -0.9116  0.6395  0.6040
  3174G12c C00Y58873  11.601   7.348   1.056 -0.0468  1.0097 -1.6882
  3174G12c H00658874  11.510   7.394   1.091  2.1001 -0.0213  6.3291
  3174G12c C00X58875  11.599   7.202   1.046  0.4495  1.0649 -1.5952
  3174G12c O00358876  11.482   7.150   1.068  0.2849 -0.1742 -0.0363
  3174G12c C01B58877  11.428   7.106   1.184 -0.5969 -0.0611  0.8617
  3174G12c H00958878  11.440   6.999   1.195  4.9696  0.8663  6.1899
  3174G12c H00858879  11.340   7.157   1.224  0.9079 -0.2159  4.5028
  3174G12c H00758880  11.512   7.137   1.246  3.0076 -2.6974 -2.4728
  3174G12c C00W58881  11.704   7.123   1.027  0.1078  0.5756  0.9431
  3174G12c O00458882  11.689   6.994   1.035 -0.2937 -0.6001  0.9471
  3174G12c C01C58883  11.762   6.921   0.947  2.0983 -0.0537  1.1063
  3174G12c H00A58884  11.725   6.823   0.919 -2.2293  0.7165  3.6123
  3174G12c C00P58885  11.875   6.985   0.891 -0.4571  1.0599  1.2312
  3174G12c C00O58886  11.944   6.940   0.764 -1.3326  1.8205  1.7876
  3174G12c C01D58887  11.849   6.868   0.678 -0.4849 -0.5895 -1.8684
  3174G12c H00S58888  11.747   6.880   0.710  0.2917 -1.1419  0.9114
  3174G12c C01E58889  11.886   6.837   0.546  0.2661  0.8929 -2.0171
  3174G12c O00858890  11.812   6.781   0.460  1.3543 -0.0950 -2.1585
  3174G12c C01V58891  11.684   6.842   0.446 -1.0988  0.6454  0.2055
  3174G12c C01Z58892  11.563   6.787   0.519 -0.1737  0.3343  0.6231
  3174G12c H00R58893  11.622   6.735   0.595  3.0925 -0.4738 -2.3560
  3174G12c H00Q58894  11.509   6.873   0.558  2.2082  1.4202  1.5861
  3174G12c O00958895  11.504   6.685   0.434  0.5120 -0.7865  0.0616
  3174G12c H00P58896  11.561   6.610   0.440 -0.4737 -2.1025 -4.6451
  3174G12c C01W58897  11.672   6.960   0.382 -1.0596  1.1630 -1.5751
  3174G12c H00O58898  11.576   7.008   0.376 -1.8831 -0.0637  1.0539
  3174G12c C01X58899  11.765   7.024   0.308 -0.1310 -1.6859 -0.8855
  3174G12c H00N58900  11.861   6.975   0.292  3.3211  1.2883  7.3996
  3174G12c H00M58901  11.737   7.023   0.203  1.0498  2.5880 -1.3404
  3174G12c C01Y58902  11.821   7.159   0.356  1.4804  0.6415  0.6584
  3174G12c C02D58903  11.845   7.186   0.490 -0.6972  0.4931 -0.6983
  3174G12c H01958904  11.833   7.096   0.549  1.8813  0.1295 -0.6761
  3174G12c C02C58905  11.879   7.316   0.539  0.1793  0.3972 -0.2745
  3174G12c H01A58906  11.911   7.312   0.642 -2.3424  2.5277  0.6388
  3174G12c C02B58907  11.855   7.428   0.458 -1.3050 -0.4342  0.3374
  3174G12c O00E58908  11.860   7.561   0.501 -2.4407 -0.5440  0.5722
  3174G12c H01B58909  11.907   7.613   0.437 -1.5193 -1.5152  0.4479
  3174G12c C02F58910  11.837   7.401   0.325 -0.3169 -1.4636  0.6734
  3174G12c O00F58911  11.831   7.503   0.226 -0.3486  0.7991  0.9700
  3174G12c C02G58912  11.718   7.597   0.242  0.7634 -0.2385  1.5673
  3174G12c H01758913  11.684   7.626   0.142  3.9280 -2.2441 -0.1736
  3174G12c H01658914  11.765   7.680   0.296  1.0503 -1.0418  2.5488
  3174G12c H01558915  11.642   7.540   0.294 -3.5444 -5.0254 -8.5447
  3174G12c C02E58916  11.824   7.278   0.269  1.0390 -0.1526  0.3532
  3174G12c H01858917  11.787   7.303   0.171  2.6294  0.8066 -0.0094
  3174G12c C01F58918  12.023   6.842   0.511  0.0495 -0.0521 -0.9790
  3174G12c C01G58919  12.048   6.819   0.370 -1.5835 -1.0173 -0.3072
  3174G12c H00L58920  11.984   6.791   0.288 -2.3384 -3.3004  1.0238
  3174G12c C01H58921  12.166   6.888   0.326 -0.4221 -0.8912 -1.0319
  3174G12c H00B58922  12.189   6.868   0.222  0.3763  0.8113 -1.2033
  3174G12c C01I58923  12.267   6.940   0.418  0.6224  1.4107 -0.4439
  3174G12c C01U58924  12.128   6.879   0.595  1.1237 -0.5228 -0.0964
  3174G12c C00S58925  12.072   7.313   0.957  0.3843  0.1187  0.3146
  3174G12c C00K58926  12.241   7.271   0.795  0.0987 -0.6360  0.1866
  3174G12c C00N58927  12.083   6.955   0.704 -1.0912  0.6858  0.7420
  3174G12c C00058928  12.258   6.912   0.551 -1.7327  0.1894  0.5831
  3174G12c C01J58929  12.339   7.071   0.403 -0.7710  1.7034  1.9894
  3174G12c C01K58930  12.282   7.158   0.295  0.8242  1.1772  0.2076
  3174G12c C01P58931  12.252   7.135   0.164  0.9677 -1.1085  0.3185
  3174G12c C01Q58932  12.322   7.030   0.090  0.5850  1.6172 -1.5046
  3174G12c H00G58933  12.284   6.935   0.057  1.8964 -0.3163  2.3665
  3174G12c C01R58934  12.442   7.055   0.043 -1.1672  1.4734 -1.7994
  3174G12c H00F58935  12.492   7.145   0.074 -3.1701  0.7685  3.9531
  3174G12c C01S58936  12.509   6.941  -0.025 -0.8647  1.0516  0.1551
  3174G12c H00E58937  12.478   6.853   0.030 -2.0825 -0.0588 -2.2237
  3174G12c H00D58938  12.490   6.957  -0.131  3.1218 -2.0699 -1.1545
  3174G12c O00558939  12.645   6.966  -0.061  1.0800 -1.8040  0.0995
  3174G12c H00C58940  12.699   6.940   0.012  3.4997  1.6805 -0.3634
  3174G12c C01O58941  12.165   7.214   0.084 -0.8575 -0.7820  0.2109
  3174G12c H00H58942  12.141   7.180  -0.015 -6.7756  0.0734  1.1191
  3174G12c C01N58943  12.128   7.334   0.124  0.5739 -0.1301  0.4624
  3174G12c O00658944  12.058   7.421   0.034 -1.1670 -0.2979  0.2327
  3174G12c C01T58945  12.155   7.488  -0.041 -0.9124 -0.3208  1.1429
  3174G12c H00K58946  12.087   7.509  -0.123 -2.6835  5.1573  3.8023
  3174G12c H00J58947  12.231   7.417  -0.074  3.9580  5.1784 -0.3414
  3174G12c H00I58948  12.186   7.587  -0.007  1.7404 -0.2404 -1.2803
  3174G12c C01M58949  12.184   7.373   0.245 -0.6572  0.2581 -0.4054
  3174G12c C02058950  12.311   7.344   0.686  1.1574  0.2419  0.3714
  3174G12c C02158951  12.365   7.473   0.687  1.5467  0.6976  0.5744
  3174G12c C01L58952  12.251   7.287   0.334 -0.8993 -0.2294  1.0386
  3174G12c O00758953  12.177   7.510   0.261  0.6217  0.0589  0.8837
  3174G12c C02258954  12.382   7.540   0.558 -1.5967 -0.4516 -0.3774
  3174G12c C02358955  12.276   7.553   0.771  0.4525  1.5927  0.4244
  3174G12c C00G58956  12.075   7.712   0.860  1.1597 -1.0596  0.2772
  3174G12c C00E58957  11.937   7.926   0.852 -0.7794 -0.4316 -0.3147
  3174G12c O00A58958  11.832   8.011   0.897  1.3585 -0.2543 -0.9219
  3174G12c C02458959  11.713   8.063   0.831 -1.1009  0.5667 -0.6783
  3174G12c H00V58960  11.665   8.124   0.908 -0.4381 -2.0883  1.9366
  3174G12c H00U58961  11.634   8.007   0.779  0.1031  0.6138 -2.5840
  3174G12c H00T58962  11.749   8.138   0.761  5.0209  0.1097  1.6866
  3184G12c C00D58963   0.804   9.023   5.631 -0.1081 -0.9761 -0.0339
  3184G12c O00B58964   0.827   9.144   5.566 -2.7927  0.9630  0.9686
  3184G12c C02558965   0.929   9.237   5.614  1.6526 -0.3650 -0.0133
  3184G12c C02658966   1.066   9.241   5.531 -0.4734  0.2447 -1.6781
  3184G12c H00Y58967   1.144   9.284   5.593 -2.8467 -0.7118  2.1229
  3184G12c H00X58968   1.041   9.337   5.484 -0.8070  0.2989 -1.3978
  3184G12c O00C58969   1.107   9.153   5.427 -0.2548  1.4718 -1.6926
  3184G12c H00W58970   1.035   9.114   5.380 -0.6040  3.9726 -3.3292
  3184G12c C02758971   0.901   9.336   5.699 -0.2246  0.3067  0.8302
  3184G12c O00D58972   0.982   9.455   5.711  0.9960 -0.3099  1.1110
  3184G12c H00Z58973   1.037   9.409   5.649 -1.4075 -2.1169  0.2601
  3184G12c C02858974   0.772   9.338   5.757  0.0702 -0.4448  0.3407
  3184G12c C02958975   0.700   9.432   5.678 -1.6500  1.0794  0.6791
  3184G12c H01058976   0.750   9.455   5.585 -1.1072 -3.5086 -0.2907
  3184G12c C02T58977   0.550   9.440   5.689 -0.2415 -0.8175 -1.3494
  3184G12c H01O58978   0.476   9.502   5.641 -4.3673 -0.9753  4.4087
  3184G12c C02S58979   0.495   9.349   5.792  0.0585  0.6437 -1.3712
  3184G12c O00J58980   0.350   9.349   5.815 -0.4675  0.3558  1.0489
  3184G12c H01P58981   0.328   9.282   5.878  6.3828  1.8705  5.5929
  3184G12c C02R58982   0.577   9.257   5.868 -2.4277 -0.6480 -2.1404
  3184G12c O00I58983   0.488   9.175   5.952 -0.7838 -0.5049  1.3530
  3184G12c C02Q58984   0.580   9.093   6.035  0.7827  0.5705  0.1465
  3184G12c H01N58985   0.655   9.130   6.105  2.0243 -3.6294  1.1843
  3184G12c H01R58986   0.508   9.025   6.082  4.9083 -2.1104  2.8948
  3184G12c H01Q58987   0.629   9.027   5.964 -2.8770 -4.6305  2.1853
  3184G12c C02A58988   0.721   9.261   5.857 -0.2515 -0.6196 -0.1533
  3184G12c H01158989   0.787   9.187   5.899 -2.4644 -1.3329  2.1881
  3184G12c C00C58990   0.673   8.978   5.650 -0.5031 -1.4621  1.2761
  3184G12c H01258991   0.618   9.029   5.573  1.6628  0.0606  0.6878
  3184G12c C00B58992   0.630   8.863   5.724  0.1635 -1.9517 -0.0321
  3184G12c C00A58993   0.505   8.796   5.753  1.6586 -0.1873 -1.6159
  3184G12c C00958994   0.360   8.844   5.737  0.5750 -0.3057  0.2934
  3184G12c C00858995   0.294   8.955   5.683 -1.2615 -1.5976  2.1287
  3184G12c H01358996   0.366   9.004   5.619 -2.4152  3.2946  4.3406
  3184G12c C00758997   0.172   9.004   5.716 -0.8507  1.3211  0.8371
  3184G12c H01458998   0.108   9.083   5.680 -1.3938  1.0336  1.1537
  3184G12c C00658999   0.121   8.924   5.833 -0.0869 -1.6212 -0.4933
  3184G12c C00559000   0.170   8.801   5.869 -0.3330  1.1210 -0.0074
  3184G12c C00459001   0.140   8.734   5.997  0.3661  0.4785 -1.3404
  3184G12c C00359002   0.237   8.641   6.050  0.9018 -0.5244 -2.0362
  3184G12c C00259003   0.187   8.572   6.172  0.7863 -0.7656  1.4212
  3184G12c C00159004   0.251   8.468   6.244  0.2962 -0.0518 -0.5654
  3184G12c C00M59005   0.395   8.475   6.283  2.0501 -0.9049  0.4713
  3184G12c C00L59006   0.483   8.444   6.188  0.0143  1.4908 -1.1451
  3184G12c C00R59007   0.625   8.463   6.199 -0.3979 -1.3151 -0.6977
  3184G12c C00Q59008   0.713   8.440   6.302 -0.7790  1.0537  1.3397
  3184G12c C00V59009   0.838   8.465   6.273 -0.9216  0.7426 -0.0311
  3184G12c C00U59010   0.895   8.532   6.147 -1.4684  0.6713 -1.9159
  3184G12c C00T59011   0.793   8.568   6.060  0.4481  0.4735  1.5305
  3184G12c C01659012   0.817   8.641   5.945  1.6108 -0.1618 -0.6623
  3184G12c C01559013   0.946   8.688   5.914 -0.7830 -0.7427 -0.6994
  3184G12c C01059014   1.049   8.638   6.004 -1.2093  1.5445  0.3350
  3184G12c C01159015   1.182   8.635   5.962  0.2581  1.2593 -0.2294
  3184G12c H00559016   1.266   8.586   6.008 -2.0984 -1.8976  0.8971
  3184G12c C01259017   1.215   8.682   5.829  0.3233 -0.0976  0.9476
  3184G12c C01759018   1.331   8.631   5.775  1.1141 -1.0954  0.5958
  3184G12c O00259019   1.306   8.522   5.717 -0.5253  2.2495  0.9674
  3184G12c H00459020   1.379   8.473   5.683 -0.0088  3.7284 -0.0721
  3184G12c C01859021   1.452   8.675   5.787  0.4543  0.9228 -2.0050
  3184G12c O00159022   1.549   8.616   5.715 -0.2587 -0.5029 -0.4126
  3184G12c H00359023   1.636   8.614   5.752  1.9863  5.5295 -4.6529
  3184G12c C01959024   1.506   8.786   5.888  1.7865 -0.2106 -0.1581
  3184G12c H00259025   1.568   8.854   5.829 -2.4260  0.4547 -4.1011
  3184G12c H00159026   1.433   8.823   5.960 -1.4685  2.8382 -4.7368
  3184G12c O00059027   1.597   8.713   5.963 -0.9464 -0.6055  0.7685
  3184G12c C01A59028   1.578   8.743   6.100  1.0706  0.1426  0.3603
  3184G12c C02K59029   1.643   8.860   6.134 -0.5039 -0.7543  1.2336
  3184G12c O00G59030   1.728   8.939   6.049 -1.5075 -2.1202  0.0710
  3184G12c C02M59031   1.834   8.880   5.983  0.0062 -1.5947 -0.2348
  3184G12c H01G59032   1.826   8.901   5.876  0.8762 -3.3318 -0.6520
  3184G12c H01F59033   1.828   8.774   6.011 -3.1329 -0.2005  5.0840
  3184G12c H01E59034   1.936   8.863   6.016  0.0158 -7.5873 -2.6078
  3184G12c C02J59035   1.678   8.861   6.271 -0.3565 -1.9212 -0.4635
  3184G12c H01H59036   1.733   8.947   6.304 -7.0511  2.0632  1.0951
  3184G12c C02I59037   1.619   8.777   6.381  0.4966  0.6361  1.1831
  3184G12c C02N59038   1.646   8.782   6.535  0.4220  0.1207 -0.1320
  3184G12c H01M59039   1.581   8.830   6.607  1.0342  0.5134  0.1636
  3184G12c C02O59040   1.779   8.757   6.548  1.0980 -1.4984  0.0452
  3184G12c H01L59041   1.856   8.712   6.487  6.3124  1.5242  3.9048
  3184G12c C02P59042   1.810   8.763   6.699  0.0307  1.1425  0.5545
  3184G12c H01K59043   1.835   8.863   6.733 -3.4235  1.5894  1.9829
  3184G12c H01J59044   1.724   8.723   6.752  2.2221 -4.2920  0.3577
  3184G12c O00H59045   1.909   8.657   6.745 -1.3434  0.5280 -0.7133
  3184G12c H01I59046   1.860   8.577   6.740  1.2700 -1.0473 -1.8380
  3184G12c C02H59047   1.529   8.669   6.338 -1.0218 -0.4334 -2.0898
  3184G12c H01C59048   1.473   8.620   6.417  1.5310  0.2835  0.2198
  3184G12c C02L59049   1.528   8.651   6.203 -0.3645  1.1355 -0.5300
  3184G12c H01D59050   1.488   8.553   6.186  0.7853  1.1010 -3.3147
  3184G12c C01359051   1.114   8.737   5.745  0.3505  0.9277 -1.2233
  3184G12c H00059052   1.128   8.756   5.640  1.9454  0.2258 -1.1450
  3184G12c C01459053   0.970   8.747   5.800  0.6271 -1.6628  0.2986
  3184G12c C00F59054   0.866   8.815   5.744 -0.1674 -0.8683  0.4708
  3184G12c C00H59055   0.710   8.673   5.872  2.4094  0.0634 -0.8324
  3184G12c C00I59056   0.591   8.629   5.897 -0.7798 -0.8465  1.2263
  3184G12c C00J59057   0.568   8.528   5.989 -1.2968 -1.9939  0.0122
  3184G12c C00Z59058   1.028   8.567   6.122  0.4228 -0.7202  0.3134
  3184G12c C00Y59059   1.117   8.539   6.232 -1.0828  0.6979  0.0374
  3184G12c H00659060   1.219   8.564   6.254 -2.3618  3.3471  3.4860
  3184G12c C00X59061   1.071   8.483   6.357  1.2274  0.5459 -0.8540
  3184G12c O00359062   1.132   8.557   6.462 -1.6919  0.8389  0.2115
  3184G12c C01B59063   1.238   8.484   6.532 -0.6490  1.8963  0.2685
  3184G12c H00959064   1.304   8.463   6.448 -1.5328 -3.8520  0.8057
  3184G12c H00859065   1.194   8.402   6.590  0.9687 -1.0085 -2.4548
  3184G12c H00759066   1.279   8.554   6.605  1.3279 -1.4091  2.4881
  3184G12c C00W59067   0.943   8.450   6.370 -0.4158 -1.6387 -0.1575
  3184G12c O00459068   0.914   8.406   6.490  0.3115 -1.1113 -0.4755
  3184G12c C01C59069   0.787   8.423   6.535  0.0477 -0.9881  0.2648
  3184G12c H00A59070   0.789   8.368   6.627 -0.3866 -5.4228 -2.2661
  3184G12c C00P59071   0.670   8.429   6.436  1.4406 -0.6818 -1.2998
  3184G12c C00O59072   0.530   8.439   6.491 -1.3395 -0.7197 -0.3114
  3184G12c C01D59073   0.513   8.451   6.631 -0.3697 -0.5667  0.0343
  3184G12c H00S59074   0.575   8.450   6.719 -1.3401  0.5367  0.7564
  3184G12c C01E59075   0.397   8.511   6.686 -0.3525  2.1661 -1.2449
  3184G12c O00859076   0.399   8.576   6.811  0.3618  0.8223  0.0713
  3184G12c C01V59077   0.517   8.634   6.840  0.8606  0.1318 -0.7922
  3184G12c C01Z59078   0.588   8.742   6.755  0.9075  1.2083  0.3075
  3184G12c H00R59079   0.532   8.777   6.668  0.3952  0.6561  0.4190
  3184G12c H00Q59080   0.590   8.823   6.829 -5.5839  1.2801  0.6975
  3184G12c O00959081   0.712   8.682   6.746 -0.7443 -0.5786  0.9100
  3184G12c H00P59082   0.677   8.601   6.714  3.0333 -2.1920  0.6732
  3184G12c C01W59083   0.557   8.591   6.962 -0.8309 -0.9660 -1.4749
  3184G12c H00O59084   0.626   8.672   6.979 -1.7352  0.1229 -2.8447
  3184G12c C01X59085   0.484   8.482   7.056  0.5901  0.9583 -0.4073
  3184G12c H00N59086   0.460   8.507   7.159  0.7971  3.2347 -0.9008
  3184G12c H00M59087   0.383   8.473   7.016 -1.1466 -1.6939  4.1246
  3184G12c C01Y59088   0.542   8.344   7.061  1.0878  0.4482  0.9684
  3184G12c C02D59089   0.657   8.313   7.150 -0.1624  0.9943  1.9743
  3184G12c H01959090   0.711   8.389   7.205  0.5072 -1.7901  5.3193
  3184G12c C02C59091   0.687   8.169   7.189  0.1854  0.0202 -0.5140
  3184G12c H01A59092   0.768   8.150   7.259 -0.5327 -5.0423 -0.8272
  3184G12c C02B59093   0.619   8.083   7.132  1.1731  0.5364  0.1351
  3184G12c O00E59094   0.671   7.961   7.128 -0.6151 -0.1058 -1.8355
  3184G12c H01B59095   0.594   7.910   7.106 -1.6015  2.5108 -4.8761
  3184G12c C02F59096   0.508   8.109   7.056  0.0496 -1.4974  0.1514
  3184G12c O00F59097   0.436   8.008   7.009 -0.8949  0.7291  0.3227
  3184G12c C02G59098   0.492   7.943   6.892 -1.3334  1.9471 -0.0042
  3184G12c H01759099   0.591   7.961   6.851  0.5884 -3.8749  1.6798
  3184G12c H01659100   0.411   7.955   6.819 -4.6173 -2.4468  2.6478
  3184G12c H01559101   0.494   7.837   6.919 -2.9878 -0.0665 -6.8038
  3184G12c C02E59102   0.462   8.242   7.025 -0.1241  1.2895  0.9673
  3184G12c H01859103   0.372   8.223   6.968  0.8257 -5.1408  1.1706
  3184G12c C01F59104   0.283   8.530   6.601 -0.0385  0.4322 -0.6814
  3184G12c C01G59105   0.171   8.630   6.608  3.0380  1.1969 -0.3974
  3184G12c H00L59106   0.168   8.694   6.695  1.6138 -5.0088  4.5108
  3184G12c C01H59107   0.069   8.654   6.503  0.9046  0.9026 -0.7731
  3184G12c H00B59108  -0.021   8.709   6.521 -0.6215 -2.3370  2.1554
  3184G12c C01I59109   0.089   8.579   6.381  0.7339 -0.3942  2.3756
  3184G12c C01U59110   0.286   8.461   6.470  0.7677  0.3932 -0.6306
  3184G12c C00S59111   0.679   8.483   6.070  0.1533 -1.4628 -0.6723
  3184G12c C00K59112   0.442   8.508   6.059 -0.0644 -0.6178 -1.4699
  3184G12c C00N59113   0.410   8.454   6.415 -0.1386 -1.1539 -1.2653
  3184G12c C00059114   0.182   8.469   6.367  0.9098 -0.8787 -0.5898
  3184G12c C01J59115   0.065   8.622   6.240  1.2307  0.5440 -0.7591
  3184G12c C01K59116  -0.017   8.733   6.191 -0.7339  2.0797  1.8870
  3184G12c C01P59117  -0.157   8.771   6.222  0.3948 -0.8195 -0.2392
  3184G12c C01Q59118  -0.222   8.669   6.299  0.5005 -0.7922  0.7827
  3184G12c H00G59119  -0.188   8.568   6.315 -1.5783 -0.7197  6.8874
  3184G12c C01R59120  -0.336   8.678   6.363 -0.0495  0.1063 -0.2700
  3184G12c H00F59121  -0.391   8.768   6.341  2.2443  0.6241 -4.3970
  3184G12c C01S59122  -0.416   8.616   6.486 -1.8217  1.8090  1.3169
  3184G12c H00E59123  -0.471   8.699   6.531 -1.3888  3.8852 -1.8317
  3184G12c H00D59124  -0.516   8.592   6.450 -1.1164 -0.4088  0.7701
  3184G12c O00559125  -0.346   8.510   6.555  0.7237  1.3518 -1.5332
  3184G12c H00C59126  -0.324   8.437   6.498  3.8633 -0.7137  2.0527
  3184G12c C01O59127  -0.217   8.886   6.151  0.5623 -0.8627  0.3762
  3184G12c H00H59128  -0.315   8.917   6.185  1.5002  0.6820  1.7112
  3184G12c C01N59129  -0.162   8.944   6.037  0.5261 -0.2929 -0.5885
  3184G12c O00659130  -0.211   9.051   5.960  1.5326  0.0649 -1.3541
  3184G12c C01T59131  -0.183   9.176   6.024 -0.0917 -0.0913 -0.2059
  3184G12c H00K59132  -0.109   9.189   6.103 -8.1983  1.2665  7.9077
  3184G12c H00J59133  -0.276   9.182   6.080  1.9964  8.3190  3.1292
  3184G12c H00I59134  -0.172   9.266   5.963  0.2265 -0.4870 -0.7391
  3184G12c C01M59135  -0.042   8.891   5.998 -0.3936  0.8588  0.2238
  3184G12c C02059136   0.347   8.600   5.999 -1.3354 -1.8978  0.5562
  3184G12c C02159137   0.363   8.652   5.862  0.7059 -0.2158  0.3643
  3184G12c C01L59138   0.028   8.782   6.069 -1.4506  0.0026 -0.4171
  3184G12c O00759139   0.021   8.971   5.900 -0.7509  0.6012  0.2104
  3184G12c C02259140   0.280   8.751   5.811 -1.2049 -1.3289  1.6824
  3184G12c C02359141   0.492   8.664   5.819 -2.7515  0.5143  1.2992
  3184G12c C00G59142   0.729   8.779   5.784 -0.6477  2.4493  0.0350
  3184G12c C00E59143   0.894   8.927   5.677  0.0469 -0.4819 -0.1339
  3184G12c O00A59144   1.032   8.980   5.667 -0.8155 -0.2757 -0.5557
  3184G12c C02459145   1.068   9.007   5.807  1.4469  0.8363  1.4496
  3184G12c H00V59146   1.176   9.002   5.824  3.2142 -2.0423 -8.0604
  3184G12c H00U59147   0.993   8.992   5.884 -3.1397  3.4053 -2.3074
  3184G12c H00T59148   1.074   9.116   5.806 -0.7413  1.1158 -5.7543
  3194G12c C00D59149   9.732   8.400   9.093 -0.3979 -1.1518  1.2151
  3194G12c O00B59150   9.702   8.528   9.096  1.4240  0.6800 -0.1775
  3194G12c C02559151   9.615   8.575   9.201 -0.0465  1.1334  0.5038
  3194G12c C02659152   9.686   8.600   9.338  0.0705 -0.7449 -0.3250
  3194G12c H00Y59153   9.650   8.688   9.390 -5.4948 -1.7530 -2.1112
  3194G12c H00X59154   9.782   8.618   9.290 -1.0265  0.4934 -2.0737
  3194G12c O00C59155   9.685   8.511   9.443 -0.9309 -0.2657 -0.2500
  3194G12c H00W59156   9.596   8.481   9.459 -2.0507  2.4445 -1.1497
  3194G12c C02759157   9.492   8.521   9.187  0.4963 -0.9534 -1.3196
  3194G12c O00D59158   9.446   8.458   9.070 -0.0030  0.7918 -1.1806
  3194G12c H00Z59159   9.485   8.510   9.001 -0.5357 -0.5922 -2.5494
  3194G12c C02859160   9.407   8.515   9.305 -0.3134  0.2025  0.8168
  3194G12c C02959161   9.391   8.398   9.387 -1.6288  1.3029  0.2170
  3194G12c H01059162   9.474   8.329   9.381 -4.0353 -1.6770  0.0253
  3194G12c C02T59163   9.291   8.385   9.486  0.4908  0.5406  1.3280
  3194G12c H01O59164   9.271   8.310   9.562  1.3061 -3.7561 -2.4926
  3194G12c C02S59165   9.236   8.511   9.523 -1.2227  1.0191  0.3626
  3194G12c O00J59166   9.229   8.574   9.645  0.0329 -0.2385  0.3843
  3194G12c H01P59167   9.239   8.664   9.617  1.6606 -1.0054 -1.5689
  3194G12c C02R59168   9.234   8.625   9.432 -0.1993  0.8825 -1.2570
  3194G12c O00I59169   9.188   8.748   9.449 -1.7725  0.4362 -1.1278
  3194G12c C02Q59170   9.043   8.764   9.481 -0.1798  1.0666 -0.0043
  3194G12c H01N59171   9.051   8.871   9.498 -7.4384  1.6372  1.4497
  3194G12c H01R59172   8.982   8.722   9.401 -0.5553 -2.2775  1.9539
  3194G12c H01Q59173   9.036   8.725   9.583  2.7677  0.6754  0.0782
  3194G12c C02A59174   9.321   8.627   9.329  1.3278 -0.6650 -0.4181
  3194G12c H01159175   9.299   8.690   9.244 -0.3860  5.7600  4.4132
  3194G12c C00C59176   9.716   8.292   9.189 -0.2223 -0.1488  0.0356
  3194G12c H01259177   9.659   8.324   9.274 -1.6000  1.0305 -1.2998
  3194G12c C00B59178   9.760   8.164   9.170  1.7372 -0.2018  0.5393
  3194G12c C00A59179   9.705   8.048   9.235  0.0376  0.6833 -0.8604
  3194G12c C00959180   9.734   8.052   9.377 -0.5390 -0.6400  1.5911
  3194G12c C00859181   9.745   8.143   9.486  0.9991  1.1765  0.4712
  3194G12c H01359182   9.723   8.248   9.470  1.0455  0.5532 -4.5840
  3194G12c C00759183   9.788   8.096   9.608  1.8076 -0.3063  0.5764
  3194G12c H01459184   9.796   8.179   9.677  2.3729 -2.0166  2.6646
  3194G12c C00659185   9.835   7.973   9.637 -0.5292  0.7670 -0.7119
  3194G12c C00559186   9.837   7.887   9.528 -0.0909 -0.4214  0.0134
  3194G12c C00459187   9.902   7.755   9.532 -0.9114  0.3320  0.1422
  3194G12c C00359188   9.907   7.682   9.416 -0.4782  0.4316  0.2190
  3194G12c C00259189  10.006   7.578   9.436 -0.6649 -1.1642  0.9663
  3194G12c C00159190  10.053   7.465   9.361 -0.2417 -0.9621  0.5172
  3194G12c C00M59191  10.090   7.481   9.221 -0.5499 -0.0522  0.8526
  3194G12c C00L59192  10.034   7.589   9.137 -0.8544 -0.0679 -1.4646
  3194G12c C00R59193  10.111   7.679   9.049  0.8729  1.9705 -1.9325
  3194G12c C00Q59194  10.232   7.645   8.983  0.1042  0.7075  0.4558
  3194G12c C00V59195  10.279   7.753   8.892 -1.5075  0.2006  0.1636
  3194G12c C00U59196  10.221   7.875   8.881 -0.5021  0.4119 -0.8475
  3194G12c C00T59197  10.104   7.898   8.946 -0.3468  0.2621  0.3307
  3194G12c C01659198  10.018   8.009   8.954 -0.1203  0.4618 -1.1550
  3194G12c C01559199  10.080   8.125   8.914  1.8171 -1.4739  0.4156
  3194G12c C01059200  10.209   8.121   8.863  0.8614  0.1672  0.4166
  3194G12c C01159201  10.243   8.230   8.776  3.2671  1.3703 -1.3664
  3194G12c H00559202  10.312   8.197   8.700  0.7821 -0.6486 -2.8475
  3194G12c C01259203  10.194   8.353   8.771  0.9643  0.1461 -0.5819
  3194G12c C01759204  10.239   8.456   8.674  2.1389 -1.7682  0.5593
  3194G12c O00259205  10.146   8.487   8.567  0.7735 -0.3728  0.3199
  3194G12c H00459206  10.154   8.416   8.506 -2.3411  3.1919 -4.6787
  3194G12c C01859207  10.341   8.533   8.714  0.0357 -0.0806 -1.0759
  3194G12c O00159208  10.408   8.526   8.836  1.0772  0.7527 -0.1159
  3194G12c H00359209  10.407   8.445   8.885 -0.2747 -0.4666 -2.0718
  3194G12c C01959210  10.353   8.666   8.635  1.0472  0.0650  0.5834
  3194G12c H00259211  10.256   8.695   8.594  3.3806 -0.4151 -5.7851
  3194G12c H00159212  10.397   8.758   8.673 -2.9741  2.6601 -0.7662
  3194G12c O00059213  10.456   8.651   8.547 -1.7397 -0.5449 -1.0304
  3194G12c C01A59214  10.517   8.750   8.482  1.5426 -0.1493  1.8188
  3194G12c C02K59215  10.475   8.807   8.367  1.0443 -0.9784  1.8723
  3194G12c O00G59216  10.360   8.769   8.300  0.8008 -0.5685 -0.1123
  3194G12c C02M59217  10.335   8.628   8.260 -0.1866 -0.1235 -1.6367
  3194G12c H01G59218  10.244   8.604   8.315 -0.4298 -1.0242 -2.4252
  3194G12c H01F59219  10.322   8.605   8.155  0.2725  4.4121 -2.7783
  3194G12c H01E59220  10.405   8.558   8.306 -3.6406 -1.7005  1.5392
  3194G12c C02J59221  10.516   8.921   8.294  0.5856 -1.3485  0.1028
  3194G12c H01H59222  10.468   8.967   8.209  1.4979 -1.4125 -0.4565
  3194G12c C02I59223  10.620   8.996   8.354  0.4391 -0.8778  1.4855
  3194G12c C02N59224  10.700   9.093   8.275  0.5663 -0.9138  0.1738
  3194G12c H01M59225  10.807   9.104   8.290  1.0544  5.2586 -5.1964
  3194G12c C02O59226  10.655   9.129   8.144 -0.1714  0.7431 -0.5325
  3194G12c H01L59227  10.553   9.121   8.109 -1.4791 -2.8306  3.6901
  3194G12c C02P59228  10.763   9.200   8.056  0.4412 -0.0220  1.0164
  3194G12c H01K59229  10.729   9.207   7.953  2.9737  2.1562  0.2632
  3194G12c H01J59230  10.869   9.178   8.065  0.4171 -0.9260 -0.7448
  3194G12c O00H59231  10.798   9.323   8.115  0.0603 -0.2811 -0.8571
  3194G12c H01I59232  10.797   9.398   8.058  3.5889  1.2437  0.9268
  3194G12c C02H59233  10.667   8.955   8.470  1.5507  0.2359  0.3403
  3194G12c H01C59234  10.760   9.003   8.497  2.5585  0.2107 -2.8975
  3194G12c C02L59235  10.609   8.827   8.540 -1.4966 -1.2261 -0.2232
  3194G12c H01D59236  10.666   8.801   8.628 -2.3884  0.4102  0.8587
  3194G12c C01359237  10.079   8.360   8.853  0.6992  0.6966 -0.9636
  3194G12c H00059238  10.013   8.446   8.852 -2.3866 -1.5413  0.4672
  3194G12c C01459239  10.017   8.250   8.919 -0.2645  0.0415 -0.3885
  3194G12c C00F59240   9.895   8.258   8.979  0.2744  0.3798 -0.4123
  3194G12c C00H59241   9.901   8.020   9.042 -0.3650  0.4315 -0.5101
  3194G12c C00I59242   9.858   7.908   9.104  0.2855  1.1968 -1.2142
  3194G12c C00J59243   9.932   7.783   9.077 -0.4181 -0.0438 -2.3583
  3194G12c C00Z59244  10.273   8.006   8.837 -0.3280  0.5683  1.2342
  3194G12c C00Y59245  10.399   7.987   8.781  1.2231 -2.9334  0.0941
  3194G12c H00659246  10.460   8.063   8.736  0.9023 -1.9071  1.3677
  3194G12c C00X59247  10.467   7.867   8.782  1.0643 -0.3926  0.4209
  3194G12c O00359248  10.598   7.859   8.746 -1.3581  0.8648 -1.1980
  3194G12c C01B59249  10.633   7.907   8.615  0.5780 -1.6878  1.1695
  3194G12c H00959250  10.562   7.880   8.537  4.2031 -2.5623 -2.0124
  3194G12c H00859251  10.704   7.833   8.578 -1.9262 -0.0889 -8.1408
  3194G12c H00759252  10.663   8.010   8.632  4.4507 -2.3956 -0.8638
  3194G12c C00W59253  10.412   7.740   8.824 -2.1110 -1.1046  0.3636
  3194G12c O00459254  10.496   7.630   8.822 -0.5380 -0.9677  1.5159
  3194G12c C01C59255  10.443   7.529   8.897  0.2560  0.8736 -0.1374
  3194G12c H00A59256  10.466   7.427   8.872  8.7691  2.7351 -1.6211
  3194G12c C00P59257  10.331   7.538   8.993 -0.5662  0.3422 -0.2496
  3194G12c C00O59258  10.330   7.456   9.108 -0.6818 -0.1382  0.5153
  3194G12c C01D59259  10.472   7.420   9.143 -2.2159 -1.1049 -0.1602
  3194G12c H00S59260  10.536   7.397   9.059 -0.7250  3.1511 -0.2663
  3194G12c C01E59261  10.506   7.437   9.285 -0.4712  0.3129 -2.2868
  3194G12c O00859262  10.627   7.393   9.332 -0.7265  0.8753 -1.0171
  3194G12c C01V59263  10.721   7.328   9.252  1.4010  0.0297 -1.2217
  3194G12c C01Z59264  10.863   7.373   9.265  2.4090 -2.2825  1.2368
  3194G12c H00R59265  10.917   7.335   9.178  4.0195  4.6418 -1.1910
  3194G12c H00Q59266  10.882   7.480   9.249 -1.5153 -1.4235  1.6386
  3194G12c O00959267  10.903   7.314   9.379  0.7157 -0.3797  0.2942
  3194G12c H00P59268  10.845   7.288   9.449 -2.9943 -7.5154 -4.9077
  3194G12c C01W59269  10.685   7.217   9.188 -2.1824 -0.1595 -0.2473
  3194G12c H00O59270  10.585   7.183   9.167 -1.0576 -2.3849 -2.2624
  3194G12c C01X59271  10.779   7.113   9.154  0.4750 -0.5395  1.0592
  3194G12c H00N59272  10.845   7.108   9.240 -1.2978 -2.6441  2.3531
  3194G12c H00M59273  10.709   7.034   9.182 -0.1191  0.2035  1.6735
  3194G12c C01Y59274  10.850   7.111   9.008  0.9541  0.8070  2.0139
  3194G12c C02D59275  10.842   7.211   8.910  2.1687 -0.3261  0.4154
  3194G12c H01959276  10.762   7.283   8.919  3.4060  1.1978 -0.5370
  3194G12c C02C59277  10.908   7.213   8.792  1.5929 -0.2104  1.0698
  3194G12c H01A59278  10.872   7.295   8.732  0.6332  0.6730  2.8474
  3194G12c C02B59279  10.972   7.086   8.737  0.2127  0.0141 -0.1729
  3194G12c O00E59280  11.035   7.052   8.612  0.8930 -2.6859 -0.6192
  3194G12c H01B59281  10.998   6.969   8.586 -0.7786 -1.8235 -1.0870
  3194G12c C02F59282  10.986   6.982   8.844  0.3340  0.7366 -0.1345
  3194G12c O00F59283  11.043   6.866   8.807 -1.0124 -0.5462  0.5421
  3194G12c C02G59284  11.169   6.833   8.885  0.5374  0.2631  0.2832
  3194G12c H01759285  11.240   6.775   8.827 -1.1360  3.7407 -5.6914
  3194G12c H01659286  11.222   6.914   8.935 -1.3555  0.7111  1.5831
  3194G12c H01559287  11.140   6.753   8.953  2.9199 -2.9838 -2.3288
  3194G12c C02E59288  10.906   6.989   8.955  0.2800  0.4807 -0.6763
  3194G12c H01859289  10.883   6.890   8.990 -0.7620  0.4009 -1.5555
  3194G12c C01F59290  10.411   7.450   9.371  0.9507 -1.1077 -0.5680
  3194G12c C01G59291  10.436   7.502   9.499  0.4013 -0.3223  0.1362
  3194G12c H00L59292  10.537   7.517   9.534 -0.5646 -2.6081  4.1823
  3194G12c C01H59293  10.334   7.521   9.594  0.6565  1.4518 -0.0859
  3194G12c H00B59294  10.338   7.551   9.698 -4.3628  0.7743  0.4292
  3194G12c C01I59295  10.205   7.499   9.547 -0.4334  1.1989 -1.2487
  3194G12c C01U59296  10.270   7.419   9.332  1.7815  1.6355 -0.3537
  3194G12c C00S59297  10.039   7.785   9.002  2.0827  0.1914 -0.8969
  3194G12c C00K59298   9.941   7.682   9.180 -0.9043 -0.4967 -1.2689
  3194G12c C00N59299  10.226   7.467   9.213 -0.5168  0.4644  0.5389
  3194G12c C00059300  10.173   7.421   9.433  0.4466  0.6166 -0.3904
  3194G12c C01J59301  10.084   7.571   9.553 -1.5930 -1.3172  0.0684
  3194G12c C01K59302  10.040   7.618   9.681 -0.2170  1.1135  1.2188
  3194G12c C01P59303  10.061   7.568   9.819 -0.6852 -0.1253 -1.1921
  3194G12c C01Q59304  10.154   7.462   9.849  0.0490  1.3466  0.0927
  3194G12c H00G59305  10.168   7.365   9.804 -2.8714  0.2470  1.4292
  3194G12c C01R59306  10.226   7.465   9.959 -0.3840 -0.8190 -0.1547
  3194G12c H00F59307  10.238   7.561  10.007  6.1981 -3.0481  3.3103
  3194G12c C01S59308  10.323   7.358  10.006 -0.3988 -0.0728 -0.8096
  3194G12c H00E59309  10.272   7.262  10.008  2.9289 -1.9106  4.3364
  3194G12c H00D59310  10.404   7.345   9.934  0.0738  2.2690 -0.7571
  3194G12c O00559311  10.356   7.402  10.132  1.0849 -0.6652  1.0240
  3194G12c H00C59312  10.340   7.334  10.195 -7.2721 -0.2565 -0.0340
  3194G12c C01O59313   9.976   7.625   9.922  1.3117 -0.0146 -1.6885
  3194G12c H00H59314  10.006   7.592  10.020  1.7873  2.9011 -0.7990
  3194G12c C01N59315   9.917   7.746   9.910  0.7765  0.3882 -1.7407
  3194G12c O00659316   9.854   7.795  10.016 -1.9261  0.2266  0.4851
  3194G12c C01T59317   9.794   7.916  10.013  1.9580  0.8713 -0.2815
  3194G12c H00K59318   9.698   7.907   9.962  1.5101  2.0071  0.3259
  3194G12c H00J59319   9.843   8.008   9.980  0.0881  1.2309 -2.1867
  3194G12c H00I59320   9.791   7.947  10.117  1.1374  7.3598 -1.9854
  3194G12c C01M59321   9.913   7.794   9.774 -0.2288 -1.9496  1.9043
  3194G12c C02059322   9.876   7.732   9.293 -0.5840 -0.7530  1.6664
  3194G12c C02159323   9.767   7.838   9.293  1.3365 -0.7025 -0.0700
  3194G12c C01L59324   9.949   7.712   9.664  2.7501 -0.0951  0.4619
  3194G12c O00759325   9.869   7.936   9.759  2.5339 -0.5712  0.4647
  3194G12c C02259326   9.789   7.924   9.404 -0.1967  0.1184 -1.1657
  3194G12c C02359327   9.737   7.911   9.175  2.7231 -1.0414  1.6022
  3194G12c C00G59328   9.848   8.141   9.060 -0.3701  0.7924 -0.0888
  3194G12c C00E59329   9.806   8.376   8.978  0.8181 -0.7872  0.1648
  3194G12c O00A59330   9.788   8.451   8.859  0.2505  0.9200  0.5764
  3194G12c C02459331   9.659   8.443   8.791  0.1098 -0.2030  0.8340
  3194G12c H00V59332   9.579   8.445   8.865  2.2362 -4.2748  3.4266
  3194G12c H00U59333   9.664   8.342   8.751 -4.0770 -1.1803  2.5232
  3194G12c H00T59334   9.674   8.530   8.727 -0.3499  0.0203  1.0258
  3204G12c C00D59335  10.674  11.301  12.284  0.5059 -0.0460 -0.2211
  3204G12c O00B59336  10.643  11.306  12.140  0.3219 -1.0118 -0.3492
  3204G12c C02559337  10.739  11.266  12.054  0.1534  1.5582 -0.3726
  3204G12c C02659338  10.875  11.335  12.030 -1.4577 -0.6862  1.8249
  3204G12c H00Y59339  10.860  11.439  12.003 -0.0185 -1.1049 -0.8045
  3204G12c H00X59340  10.931  11.287  11.950  1.6550  6.0115 -0.3962
  3204G12c O00C59341  10.981  11.311  12.121  0.6384 -0.1484 -0.2589
  3204G12c H00W59342  11.056  11.287  12.069 -0.7554  2.9451 -3.9134
  3204G12c C02759343  10.688  11.173  11.969 -2.5347  1.4376 -0.2262
  3204G12c O00D59344  10.561  11.117  11.979  0.2387 -0.9050 -0.1229
  3204G12c H00Z59345  10.537  11.175  12.050 -1.7084 -3.6889  1.5946
  3204G12c C02859346  10.735  11.174  11.841 -1.3163  1.5856  0.4810
  3204G12c C02959347  10.753  11.052  11.768 -0.0149 -1.6680 -0.4050
  3204G12c H01059348  10.750  10.957  11.818 -2.0606 -2.1524 -1.4006
  3204G12c C02T59349  10.794  11.055  11.623  0.6612 -0.5264  0.5075
  3204G12c H01O59350  10.842  10.963  11.591 -0.3516 -0.9549  0.1755
  3204G12c C02S59351  10.809  11.177  11.550 -0.2509  0.6615 -0.1739
  3204G12c O00J59352  10.880  11.185  11.432  0.5905 -0.5791  0.7574
  3204G12c H01P59353  10.877  11.123  11.361 -2.4717  2.4100 -1.8912
  3204G12c C02R59354  10.766  11.293  11.632 -0.8783  0.3422 -0.6471
  3204G12c O00I59355  10.767  11.407  11.559  0.1056  1.3488 -1.6009
  3204G12c C02Q59356  10.798  11.526  11.628  1.5439  0.4146  1.1549
  3204G12c H01N59357  10.730  11.598  11.582  2.6426 -1.9273 -4.5154
  3204G12c H01R59358  10.905  11.535  11.651  0.0197 -1.3252 11.3344
  3204G12c H01Q59359  10.741  11.524  11.720  1.8187  4.4851  1.5081
  3204G12c C02A59360  10.725  11.300  11.766 -0.1394  2.6320 -1.0403
  3204G12c H01159361  10.704  11.377  11.839 -0.8701  2.1994 -0.7992
  3204G12c C00C59362  10.776  11.224  12.360  0.1764  2.0682 -1.3370
  3204G12c H01259363  10.851  11.198  12.287  5.4729  2.8376  3.4863
  3204G12c C00B59364  10.780  11.247  12.503 -0.2155  1.3243  1.2082
  3204G12c C00A59365  10.882  11.201  12.591  0.7743  1.4902 -0.7542
  3204G12c C00959366  10.955  11.075  12.566 -0.0355  0.4057 -0.2010
  3204G12c C00859367  10.980  10.982  12.465  0.8880  0.0784 -0.6475
  3204G12c H01359368  10.939  11.008  12.368  3.2605  2.2086 -1.1418
  3204G12c C00759369  11.007  10.853  12.522  2.3254 -1.3323  0.0173
  3204G12c H01459370  10.998  10.772  12.451  1.2524 -2.9612  1.9657
  3204G12c C00659371  11.037  10.815  12.650  0.1496 -0.7165 -1.6164
  3204G12c C00559372  11.022  10.924  12.731 -0.7498  1.2661 -0.7937
  3204G12c C00459373  11.006  10.898  12.873  1.3004 -0.8927 -0.3165
  3204G12c C00359374  10.952  11.011  12.951 -0.7664 -0.2899 -0.2420
  3204G12c C00259375  10.915  10.981  13.083 -0.9461 -0.1011 -0.8550
  3204G12c C00159376  10.873  11.049  13.191  0.5118  0.8356  3.0116
  3204G12c C00M59377  10.776  11.156  13.183 -0.6680 -1.1926  1.4304
  3204G12c C00L59378  10.783  11.265  13.102 -0.3914  0.3043 -0.3818
  3204G12c C00R59379  10.667  11.337  13.077  0.4212  1.5845  0.5972
  3204G12c C00Q59380  10.544  11.352  13.142  0.7392  2.0159 -0.9443
  3204G12c C00V59381  10.458  11.443  13.081 -0.7432  0.9318  0.8945
  3204G12c C00U59382  10.477  11.487  12.947  1.9120  0.0362 -0.8830
  3204G12c C00T59383  10.581  11.443  12.875 -0.1439  0.1610  0.5485
  3204G12c C01659384  10.605  11.460  12.747  0.2037  0.0242  1.7171
  3204G12c C01559385  10.510  11.518  12.669 -0.4315  0.3784 -0.4796
  3204G12c C01059386  10.396  11.578  12.721 -1.8412 -0.0785  0.6982
  3204G12c C01159387  10.331  11.680  12.642  0.8850  1.5061 -0.3528
  3204G12c H00559388  10.278  11.764  12.686  1.3033  3.2196 -3.0147
  3204G12c C01259389  10.312  11.660  12.507 -0.9607 -2.2109  1.6886
  3204G12c C01759390  10.204  11.715  12.422 -1.2387  0.2715  0.9872
  3204G12c O00259391  10.077  11.730  12.492  0.0458  0.7625  0.6897
  3204G12c H00459392  10.087  11.678  12.570 -1.0493  2.9110  2.2994
  3204G12c C01859393  10.211  11.727  12.294  0.7567  0.5108 -0.3887
  3204G12c O00159394  10.323  11.727  12.218 -2.6708 -0.2003 -0.6910
  3204G12c H00359395  10.302  11.695  12.132 -2.4777 -2.8634  0.1973
  3204G12c C01959396  10.078  11.754  12.211 -0.3601  1.7808  0.0097
  3204G12c H00259397   9.978  11.789  12.235 -1.1025  2.3448 -3.6404
  3204G12c H00159398  10.112  11.842  12.158  4.9545 -0.7092 -1.0633
  3204G12c O00059399  10.094  11.651  12.113 -0.2764  0.3997  0.0130
  3204G12c C01A59400  10.035  11.661  11.986  0.7573 -1.3595 -1.9444
  3204G12c C02K59401  10.107  11.632  11.860 -0.1209 -0.6230 -0.3508
  3204G12c O00G59402  10.234  11.563  11.859 -0.7974 -1.4856  1.2190
  3204G12c C02M59403  10.282  11.519  11.736 -0.0729  0.5560  0.5715
  3204G12c H01G59404  10.213  11.462  11.673  2.9341  2.3374 -4.6629
  3204G12c H01F59405  10.357  11.442  11.758 -0.9141  0.3258  2.6955
  3204G12c H01E59406  10.325  11.598  11.674  2.8083 -2.0481 -0.9059
  3204G12c C02J59407  10.047  11.670  11.735 -0.9648 -0.3567  0.4452
  3204G12c H01H59408  10.110  11.679  11.648  1.4510 -1.1042  2.0748
  3204G12c C02I59409   9.923  11.735  11.736 -0.8305  1.5960  0.7551
  3204G12c C02N59410   9.856  11.766  11.615  0.2271  0.6067 -0.4584
  3204G12c H01M59411   9.750  11.782  11.609  0.2684  1.6182  1.1458
  3204G12c C02O59412   9.913  11.863  11.552 -1.8844 -0.3208  1.0331
  3204G12c H01L59413   9.998  11.886  11.615 -2.4177  3.1937  0.5660
  3204G12c C02P59414   9.906  11.966  11.436  1.1926  1.8964 -0.2477
  3204G12c H01K59415   9.804  12.003  11.448 -2.9178 -8.4242  2.2112
  3204G12c H01J59416   9.989  12.036  11.434  1.8597  1.2784  3.1057
  3204G12c O00H59417   9.891  11.891  11.325 -1.8911 -0.4825  0.5308
  3204G12c H01I59418   9.962  11.897  11.262 -4.1047  1.0929 -1.8971
  3204G12c C02H59419   9.853  11.743  11.859  0.8367  0.9714  1.1966
  3204G12c H01C59420   9.765  11.806  11.856  1.7225  2.1801  0.4532
  3204G12c C02L59421   9.889  11.677  11.977  0.9440  0.5079 -0.2898
  3204G12c H01D59422   9.830  11.662  12.066 -3.6580 -5.6724 -3.9869
  3204G12c C01359423  10.406  11.561  12.464 -2.7339 -1.4861  1.1872
  3204G12c H00059424  10.362  11.563  12.365  1.5231  3.0498 -0.8175
  3204G12c C01459425  10.506  11.497  12.543  1.0213  0.5503 -0.3953
  3204G12c C00F59426  10.594  11.411  12.481  0.3039  0.2748 -0.5350
  3204G12c C00H59427  10.713  11.401  12.685 -0.6554 -0.6962 -1.5131
  3204G12c C00I59428  10.819  11.358  12.766  0.5404  0.6422 -2.2246
  3204G12c C00J59429  10.805  11.352  12.902 -0.3286 -0.6755 -0.0912
  3204G12c C00Z59430  10.392  11.563  12.867 -0.4366 -1.5536 -1.2220
  3204G12c C00Y59431  10.261  11.586  12.928 -2.0782  0.4559  0.5313
  3204G12c H00659432  10.169  11.620  12.882 -1.8728  4.8682  3.1499
  3204G12c C00X59433  10.244  11.550  13.067 -1.0463  0.6398  0.4007
  3204G12c O00359434  10.145  11.601  13.144 -2.3241 -0.6997 -1.8830
  3204G12c C01B59435  10.054  11.695  13.101 -0.3415 -2.0098 -0.3816
  3204G12c H00959436  10.090  11.768  13.029  2.5456  2.9333  5.5508
  3204G12c H00859437   9.972  11.671  13.034 -3.2569  5.7798 -0.1196
  3204G12c H00759438   9.985  11.723  13.181  3.2943 -1.7282  2.8284
  3204G12c C00W59439  10.320  11.452  13.130 -1.6727  0.1527  2.0007
  3204G12c O00459440  10.279  11.396  13.251 -0.6030 -0.1581  0.0930
  3204G12c C01C59441  10.385  11.355  13.331 -0.1891  0.8874  0.6485
  3204G12c H00A59442  10.379  11.369  13.438  8.0128 -1.4794  1.8486
  3204G12c C00P59443  10.501  11.296  13.262  0.2873  0.3106  0.8394
  3204G12c C00O59444  10.561  11.183  13.313  0.2207 -0.1210 -1.0509
  3204G12c C01D59445  10.463  11.098  13.375 -0.4276  0.7892 -0.1203
  3204G12c H00S59446  10.377  11.147  13.419  2.5032  3.8844  2.4776
  3204G12c C01E59447  10.494  10.963  13.422 -2.0620  0.9307 -0.1129
  3204G12c O00859448  10.413  10.884  13.487  0.0218 -0.0469  1.8145
  3204G12c C01V59449  10.284  10.887  13.442  0.7061 -1.9940  0.2037
  3204G12c C01Z59450  10.263  10.834  13.297 -0.7056 -0.5263 -2.4922
  3204G12c H00R59451  10.245  10.921  13.234 -0.1511  1.2831 -0.2165
  3204G12c H00Q59452  10.356  10.836  13.241  2.4852 -2.7360  2.4136
  3204G12c O00959453  10.208  10.697  13.321 -0.2688  0.6945  0.8675
  3204G12c H00P59454  10.269  10.650  13.266 -2.1349  0.9445 -1.5337
  3204G12c C01W59455  10.200  10.946  13.520  0.6545  0.6998  0.9466
  3204G12c H00O59456  10.211  10.969  13.625  3.2832 -3.1924  1.6462
  3204G12c C01X59457  10.048  10.948  13.496 -0.5971 -0.8774 -1.8450
  3204G12c H00N59458  10.035  10.961  13.389 -6.5152  4.9592 -0.7936
  3204G12c H00M59459  10.007  10.848  13.505 -1.7601 -0.0572  3.9101
  3204G12c C01Y59460  10.000  11.066  13.580  1.4914 -0.1276  0.6369
  3204G12c C02D59461   9.926  11.008  13.693 -0.6944 -1.0631 -0.5041
  3204G12c H01959462   9.916  10.903  13.713  3.0537 -1.3095  0.5399
  3204G12c C02C59463   9.845  11.091  13.767 -0.9572  0.0686  0.7583
  3204G12c H01A59464   9.789  11.035  13.841 -3.0750  2.8215  1.2980
  3204G12c C02B59465   9.846  11.230  13.743  1.0436  0.7422 -1.2005
  3204G12c O00E59466   9.797  11.328  13.823 -0.2361 -0.5705 -0.0264
  3204G12c H01B59467   9.844  11.409  13.813 -4.6570  2.1403  0.0393
  3204G12c C02F59468   9.937  11.285  13.655 -0.1510  0.9373  0.7738
  3204G12c O00F59469   9.950  11.420  13.638 -0.6303 -0.6091  0.4742
  3204G12c C02G59470   9.858  11.489  13.572 -2.0824 -0.2060 -0.8096
  3204G12c H01759471   9.872  11.592  13.604  3.3389 -1.3506  1.0094
  3204G12c H01659472   9.754  11.458  13.562 -3.1891  3.8952 -3.1473
  3204G12c H01559473   9.881  11.500  13.466 -7.0673  2.0693 -1.7969
  3204G12c C02E59474  10.023  11.201  13.575  1.6722 -0.6563  1.0253
  3204G12c H01859475  10.123  11.241  13.573  1.0491  1.4959  6.2225
  3204G12c C01F59476  10.626  10.910  13.402  0.1204 -1.3605  0.1183
  3204G12c C01G59477  10.684  10.783  13.416  1.1181 -1.1973 -0.6293
  3204G12c H00L59478  10.619  10.700  13.439 -2.2299  0.4095 -3.7565
  3204G12c C01H59479  10.790  10.758  13.334  1.9945 -0.1558  1.1996
  3204G12c H00B59480  10.850  10.669  13.318  0.1930 -1.2938  0.7249
  3204G12c C01I59481  10.870  10.848  13.258 -1.1033  1.7610  1.2425
  3204G12c C01U59482  10.723  11.007  13.342  1.1613 -0.2482  0.4805
  3204G12c C00S59483  10.695  11.409  12.956  0.7790  0.0677  0.3769
  3204G12c C00K59484  10.852  11.246  12.982  0.1114 -1.2008 -0.3659
  3204G12c C00N59485  10.689  11.130  13.287 -1.9869  0.7145 -0.2920
  3204G12c C00059486  10.850  10.973  13.294 -1.7574 -1.3255  0.4080
  3204G12c C01J59487  10.927  10.842  13.127  0.5621 -1.4161  0.4479
  3204G12c C01K59488  10.988  10.729  13.053 -0.1070 -0.2460  0.8834
  3204G12c C01P59489  11.022  10.601  13.092  0.3347  0.8378 -0.6499
  3204G12c C01Q59490  11.049  10.563  13.237 -0.0733 -0.4312 -1.6916
  3204G12c H00G59491  11.061  10.635  13.316 -1.8254 -1.8219 -0.0993
  3204G12c C01R59492  11.004  10.436  13.274  0.3588 -2.1745 -1.0946
  3204G12c H00F59493  10.965  10.363  13.204 -1.0531 -2.6578  0.1510
  3204G12c C01S59494  10.962  10.393  13.414 -0.0171  0.1323 -1.3391
  3204G12c H00E59495  11.058  10.411  13.462 -2.9409  1.7713  4.4230
  3204G12c H00D59496  10.881  10.435  13.473  2.3090  2.5999  0.2186
  3204G12c O00559497  10.955  10.262  13.452 -0.1016 -0.4179 -0.2084
  3204G12c H00C59498  11.012  10.205  13.402 -0.6967 -0.0824 -1.2982
  3204G12c C01O59499  11.038  10.507  12.987 -0.8735  1.0518  0.1069
  3204G12c H00H59500  11.073  10.408  13.009  0.5209  1.8944  1.7971
  3204G12c C01N59501  11.079  10.531  12.866  0.9081 -0.6776  1.3018
  3204G12c O00659502  11.102  10.441  12.758 -2.3829  0.5895 -1.2676
  3204G12c C01T59503  11.236  10.393  12.770  0.5460 -0.3905  2.5850
  3204G12c H00K59504  11.231  10.316  12.692 -8.5321 -2.8787  4.9841
  3204G12c H00J59505  11.280  10.356  12.862  0.5995 -1.1171  2.2749
  3204G12c H00I59506  11.299  10.473  12.732 -0.3103 -1.6177 -1.7819
  3204G12c C01M59507  11.088  10.672  12.831  0.2174 -0.9986 -1.0182
  3204G12c C02059508  10.917  11.145  12.907  1.9783 -0.1358 -1.5533
  3204G12c C02159509  10.960  11.159  12.775 -0.7938  0.3233 -0.4693
  3204G12c C01L59510  11.037  10.767  12.925  0.2963 -0.3799  0.4399
  3204G12c O00759511  11.110  10.717  12.706 -0.3728  0.5743  1.0940
  3204G12c C02259512  10.995  11.051  12.691 -1.4477  1.3052  0.5713
  3204G12c C02359513  10.903  11.268  12.702 -1.5889  0.6953 -1.6730
  3204G12c C00G59514  10.697  11.348  12.552 -0.4838 -0.9743 -0.0794
  3204G12c C00E59515  10.576  11.385  12.349 -0.3979  0.5954  1.8191
  3204G12c O00A59516  10.479  11.412  12.265  1.8904  0.1184  0.4215
  3204G12c C02459517  10.374  11.323  12.252  1.3885  1.0618 -2.2785
  3204G12c H00V59518  10.385  11.217  12.278 -3.5390  0.5042 -1.9425
  3204G12c H00U59519  10.315  11.325  12.160  2.0324 -1.2699 -2.7874
  3204G12c H00T59520  10.305  11.352  12.330 -3.6857  2.7511 -7.0700
  3214G12c C00D59521  12.373  11.863   7.853 -0.4493  0.8287  0.0289
  3214G12c O00B59522  12.387  11.727   7.888  0.1781 -0.5059  0.4943
  3214G12c C02559523  12.459  11.669   7.998 -0.0236 -0.7740  0.2171
  3214G12c C02659524  12.352  11.674   8.114  1.3728  0.0373  0.6099
  3214G12c H00Y59525  12.402  11.666   8.211  4.4900  4.2694 -0.4952
  3214G12c H00X59526  12.277  11.596   8.101 -2.2520  2.9348  3.1107
  3214G12c O00C59527  12.294  11.805   8.112  0.1876  2.1738 -0.5390
  3214G12c H00W59528  12.276  11.817   8.020  3.1806  1.5016 -1.2807
  3214G12c C02759529  12.581  11.632   7.999  0.4871 -1.5131 -0.8420
  3214G12c O00D59530  12.674  11.644   7.895  0.6327  1.8843 -0.0529
  3214G12c H00Z59531  12.615  11.604   7.833 -0.2128  4.4025 -0.9696
  3214G12c C02859532  12.640  11.625   8.127 -0.6064  1.8867 -0.9623
  3214G12c C02959533  12.643  11.518   8.221  0.2278 -1.1998 -0.0823
  3214G12c H01059534  12.616  11.431   8.164 -4.7868  2.2890 -3.4676
  3214G12c C02T59535  12.710  11.530   8.330  0.5819 -0.3464  0.1098
  3214G12c H01O59536  12.751  11.442   8.378 -0.6094 -2.6360 -2.8986
  3214G12c C02S59537  12.765  11.647   8.365 -0.8688 -0.6268 -0.4361
  3214G12c O00J59538  12.835  11.637   8.480 -0.6792 -0.3696 -0.9593
  3214G12c H01P59539  12.818  11.700   8.548 -1.3814  1.3527 -2.7002
  3214G12c C02R59540  12.765  11.758   8.296 -0.3618  0.7030 -1.1936
  3214G12c O00I59541  12.821  11.879   8.338  0.4687 -0.2519  0.4270
  3214G12c C02Q59542  12.943  11.902   8.387  0.2896  0.4665 -1.5971
  3214G12c H01N59543  13.000  11.972   8.325  1.0549  1.2657 -0.0154
  3214G12c H01R59544  12.937  11.954   8.483  1.0401 -4.6052  1.3395
  3214G12c H01Q59545  13.006  11.826   8.433 -1.4598 -1.0255 -1.6637
  3214G12c C02A59546  12.703  11.740   8.174  0.7185  0.8584  1.4718
  3214G12c H01159547  12.698  11.828   8.111  8.9796  1.4308  1.0791
  3214G12c C00C59548  12.457  11.933   7.931  1.0712  2.0964  0.5350
  3214G12c H01259549  12.527  11.892   8.002  0.6867 -0.2916 -0.4129
  3214G12c C00B59550  12.446  12.064   7.938 -1.2282  0.3199  0.6881
  3214G12c C00A59551  12.509  12.155   8.041 -0.3079 -0.6773  0.6735
  3214G12c C00959552  12.528  12.125   8.178  0.4069  1.1869  0.4479
  3214G12c C00859553  12.478  12.024   8.261  0.0829  0.5841 -1.9247
  3214G12c H01359554  12.481  11.926   8.215 -2.0562 -1.0107  1.1713
  3214G12c C00759555  12.472  12.057   8.407 -0.4484 -1.6641 -0.6146
  3214G12c H01459556  12.459  11.993   8.493 -0.3893  2.6717  2.8059
  3214G12c C00659557  12.506  12.194   8.451  1.1499  0.0946 -0.9873
  3214G12c C00559558  12.525  12.293   8.356 -0.0962 -0.1636 -0.3980
  3214G12c C00459559  12.521  12.431   8.378  0.0206  0.7696 -1.2934
  3214G12c C00359560  12.519  12.518   8.267  2.2398 -0.0043  0.6381
  3214G12c C00259561  12.498  12.640   8.311  1.1943 -0.4156  0.9605
  3214G12c C00159562  12.469  12.759   8.232 -0.6272  0.2459  1.7695
  3214G12c C00M59563  12.376  12.748   8.122 -0.2581 -0.5657  0.4818
  3214G12c C00L59564  12.429  12.688   7.997 -0.0566  1.9357  0.0492
  3214G12c C00R59565  12.337  12.665   7.890 -0.3565 -0.6129  0.4864
  3214G12c C00Q59566  12.227  12.730   7.852  2.3658 -1.3026  0.4471
  3214G12c C00V59567  12.172  12.676   7.723 -0.0167  0.5737 -1.3029
  3214G12c C00U59568  12.199  12.541   7.679  0.9407  0.3821  1.5234
  3214G12c C00T59569  12.303  12.466   7.732  0.3447 -1.2381 -0.4365
  3214G12c C01659570  12.331  12.334   7.712 -1.0222 -0.0859 -2.7476
  3214G12c C01559571  12.239  12.264   7.631  0.0925  0.0818 -0.1743
  3214G12c C01059572  12.141  12.340   7.555  0.7213  0.1989  0.1579
  3214G12c C01159573  12.061  12.276   7.453 -0.6038  0.2136  1.8173
  3214G12c H00559574  12.008  12.320   7.371  2.3292  0.8650  0.2015
  3214G12c C01259575  12.075  12.132   7.439 -0.7092 -0.8002 -0.8986
  3214G12c C01759576  12.005  12.072   7.325 -0.9318  0.8389  1.2412
  3214G12c O00259577  11.881  12.117   7.352 -0.3601  1.1927  0.5058
  3214G12c H00459578  11.913  12.147   7.436  0.4585  1.0589  0.2382
  3214G12c C01859579  12.070  12.040   7.205  0.5460  0.0318  0.3262
  3214G12c O00159580  12.213  12.039   7.211 -1.0156 -0.9158 -0.1258
  3214G12c H00359581  12.216  12.013   7.120 -0.8953 -0.4954 -0.2417
  3214G12c C01959582  11.980  12.033   7.061  0.0063 -0.4689 -0.3433
  3214G12c H00259583  11.874  12.040   7.084  0.3870  6.3382  0.3207
  3214G12c H00159584  11.986  12.130   7.013  1.3764 -0.8779 -1.0370
  3214G12c O00059585  11.973  11.910   7.000  0.1654 -0.2587  1.2374
  3214G12c C01A59586  12.041  11.797   7.054 -0.4156 -0.7745  0.7499
  3214G12c C02K59587  12.185  11.792   7.024  1.6028  0.8855 -0.3634
  3214G12c O00G59588  12.248  11.883   6.954 -0.2818  0.3571  0.8670
  3214G12c C02M59589  12.224  11.911   6.819  0.4289  0.1852 -3.0338
  3214G12c H01G59590  12.316  11.946   6.773  0.7234 -2.2495 -4.3460
  3214G12c H01F59591  12.166  12.003   6.823  3.1932  2.2473 -7.2932
  3214G12c H01E59592  12.190  11.815   6.782 -0.0334 -0.0357 -2.0595
  3214G12c C02J59593  12.287  11.703   7.083  0.9138  0.2483  0.1864
  3214G12c H01H59594  12.386  11.698   7.040 -2.0425 -1.3486 -7.3385
  3214G12c C02I59595  12.216  11.606   7.171  2.0919  2.1006  0.5509
  3214G12c C02N59596  12.294  11.513   7.232  0.4996  1.5114 -1.6781
  3214G12c H01M59597  12.287  11.406   7.238 -0.4032  1.4126 -4.2313
  3214G12c C02O59598  12.406  11.535   7.311  0.2869  0.2478 -1.5725
  3214G12c H01L59599  12.429  11.639   7.329  1.8349 -0.7332  2.6178
  3214G12c C02P59600  12.506  11.437   7.364 -0.2791  0.3748  0.0483
  3214G12c H01K59601  12.463  11.375   7.442  5.8542 -3.2328  0.8563
  3214G12c H01J59602  12.545  11.381   7.279 -3.6694  3.8664 -4.0147
  3214G12c O00H59603  12.612  11.510   7.418 -0.4201  0.1716  0.7671
  3214G12c H01I59604  12.683  11.481   7.363 -2.5643 -1.6288 -1.1818
  3214G12c C02H59605  12.072  11.601   7.180 -0.6895 -0.4861 -0.0229
  3214G12c H01C59606  12.020  11.521   7.232 -3.9978  2.9274  2.1320
  3214G12c C02L59607  11.984  11.697   7.131 -0.0221  0.2418 -1.3782
  3214G12c H01D59608  11.882  11.704   7.098  0.5655  2.0465 -2.9603
  3214G12c C01359609  12.173  12.060   7.535 -0.2403 -1.0327 -1.0303
  3214G12c H00059610  12.141  11.958   7.526 -1.6671 -0.5392 -1.6737
  3214G12c C01459611  12.242  12.132   7.639  0.5587 -0.0397 -0.2077
  3214G12c C00F59612  12.323  12.057   7.729 -0.3944 -0.7199  0.6935
  3214G12c C00H59613  12.422  12.271   7.805 -0.1550  1.0257  0.0796
  3214G12c C00I59614  12.505  12.341   7.888 -1.1155  0.7666  0.0338
  3214G12c C00J59615  12.489  12.488   7.890  0.3736  0.5402  0.0406
  3214G12c C00Z59616  12.122  12.477   7.579 -1.0681  2.9654  1.1637
  3214G12c C00Y59617  12.045  12.553   7.493  0.7315 -1.8475  0.3619
  3214G12c H00659618  12.030  12.525   7.390 -3.7807 -1.8171  0.9087
  3214G12c C00X59619  12.016  12.684   7.543 -0.2079 -0.2126  0.8832
  3214G12c O00359620  11.922  12.770   7.500 -0.6850  0.1106  1.1646
  3214G12c C01B59621  11.785  12.713   7.478 -0.1233 -0.6491  2.4901
  3214G12c H00959622  11.746  12.775   7.397  4.2958 -7.8277 -5.9368
  3214G12c H00859623  11.702  12.736   7.545 -1.7282 -1.7821  0.9246
  3214G12c H00759624  11.795  12.613   7.436  0.5678  0.6561 -0.5496
  3214G12c C00W59625  12.066  12.738   7.663  1.4850  0.0006  0.3185
  3214G12c O00459626  12.060  12.871   7.702  0.9289  0.1273 -0.2285
  3214G12c C01C59627  12.050  12.904   7.825 -0.8223  0.5913  1.1464
  3214G12c H00A59628  11.952  12.920   7.868  0.4415  7.3791  2.0017
  3214G12c C00P59629  12.149  12.844   7.907  0.9590 -0.5801 -0.7191
  3214G12c C00O59630  12.181  12.892   8.048  0.5869  0.3570  1.0749
  3214G12c C01D59631  12.099  12.986   8.112 -0.5305 -1.0183 -0.6893
  3214G12c H00S59632  12.030  13.033   8.043  4.7826  2.3882 -4.0366
  3214G12c C01E59633  12.111  13.019   8.243  0.3267  0.6136  0.8891
  3214G12c O00859634  12.015  13.098   8.307 -0.6380 -0.6912  1.1492
  3214G12c C01V59635  11.941  13.207   8.245  0.4884 -0.6292  0.0097
  3214G12c C01Z59636  11.796  13.158   8.252  0.3904  0.2959 -0.3624
  3214G12c H00R59637  11.768  13.199   8.155  9.1845  0.0776 -3.4911
  3214G12c H00Q59638  11.787  13.050   8.241  1.8498 -0.5537  5.2510
  3214G12c O00959639  11.721  13.212   8.362  0.0681  0.0344 -0.6786
  3214G12c H00P59640  11.762  13.205   8.447 -0.3560 -0.0174 -0.4789
  3214G12c C01W59641  12.006  13.318   8.189  0.0403  0.5138  0.7643
  3214G12c H00O59642  12.109  13.295   8.211 -0.5422  0.2891  3.4066
  3214G12c C01X59643  11.924  13.443   8.135 -0.0453  0.3060  0.4753
  3214G12c H00N59644  11.840  13.472   8.198 -1.7883  5.7378 -3.9510
  3214G12c H00M59645  11.978  13.534   8.113  1.5896  0.1767  3.6507
  3214G12c C01Y59646  11.881  13.376   8.002  0.7980 -0.4656  0.4283
  3214G12c C02D59647  11.741  13.345   7.953  0.6809 -0.7681 -0.0823
  3214G12c H01959648  11.650  13.392   7.988  0.9042  0.2951 -0.8887
  3214G12c C02C59649  11.709  13.277   7.842 -0.6232 -1.0582  0.6553
  3214G12c H01A59650  11.602  13.274   7.831 -0.3875 -1.5753 -1.6069
  3214G12c C02B59651  11.814  13.217   7.774  0.1990  1.7616  0.8957
  3214G12c O00E59652  11.780  13.136   7.656  0.4002 -0.5061  0.7623
  3214G12c H01B59653  11.867  13.127   7.622  1.1372  2.4506  1.7619
  3214G12c C02F59654  11.947  13.242   7.814 -1.1193  0.9371  0.5621
  3214G12c O00F59655  12.049  13.202   7.729 -0.1695  2.1974 -0.2241
  3214G12c C02G59656  12.034  13.269   7.600 -1.5295 -0.6550  1.5809
  3214G12c H01759657  11.980  13.358   7.568  2.8805  1.0986 -1.5860
  3214G12c H01659658  12.139  13.292   7.580 -2.1674 -3.7791 -7.6918
  3214G12c H01559659  12.034  13.206   7.510 -4.1012 -0.9772  1.7624
  3214G12c C02E59660  11.978  13.313   7.928 -0.4298  0.6737  2.2112
  3214G12c H01859661  12.086  13.317   7.926 -0.4958  3.0192  2.3165
  3214G12c C01F59662  12.205  12.968   8.326  0.6692 -0.5545 -1.2779
  3214G12c C01G59663  12.219  12.974   8.469 -2.0321 -0.0566  0.3850
  3214G12c H00L59664  12.145  13.037   8.515  2.3171  0.7368  6.9449
  3214G12c C01H59665  12.309  12.886   8.528 -1.4875 -0.0619 -0.6277
  3214G12c H00B59666  12.329  12.890   8.634 -2.5037 -1.0708 -0.3840
  3214G12c C01I59667  12.405  12.816   8.450  0.5446 -0.6724 -0.4142
  3214G12c C01U59668  12.306  12.909   8.254  0.6660  1.3869  1.3310
  3214G12c C00S59669  12.383  12.546   7.820  0.4432  1.2949 -0.7913
  3214G12c C00K59670  12.506  12.571   8.014 -0.8164  0.3472  0.9652
  3214G12c C00N59671  12.285  12.852   8.123  0.2413 -0.6203  2.1236
  3214G12c C00059672  12.430  12.864   8.316 -0.8650 -1.3293 -0.7076
  3214G12c C01J59673  12.461  12.680   8.447  1.5076  0.5563 -0.8531
  3214G12c C01K59674  12.492  12.585   8.563 -2.7305  0.4357 -2.8275
  3214G12c C01P59675  12.518  12.611   8.700 -1.7390  0.9646  0.4539
  3214G12c C01Q59676  12.564  12.734   8.753 -1.3342 -0.7252 -0.4496
  3214G12c H00G59677  12.515  12.788   8.832  2.1700  0.2972  1.1100
  3214G12c C01R59678  12.671  12.797   8.686 -1.2798 -0.1308 -1.1154
  3214G12c H00F59679  12.722  12.751   8.602 -0.9844  1.7205 -1.9785
  3214G12c C01S59680  12.710  12.946   8.708 -1.6499 -0.7543  0.7040
  3214G12c H00E59681  12.814  12.980   8.710 -0.4926 -3.4826 -3.8381
  3214G12c H00D59682  12.680  13.011   8.626  4.4874  4.0552  1.8632
  3214G12c O00559683  12.674  12.965   8.847  0.6807  1.3675  0.3456
  3214G12c H00C59684  12.676  13.058   8.862  3.6066  1.5821 -1.1542
  3214G12c C01O59685  12.513  12.500   8.790 -0.5336  1.9527 -0.8305
  3214G12c H00H59686  12.552  12.511   8.890 -2.4441 -2.1180  0.4747
  3214G12c C01N59687  12.450  12.379   8.741 -1.3989  2.4048 -1.1937
  3214G12c O00659688  12.412  12.273   8.825 -1.4591  1.6243 -1.0626
  3214G12c C01T59689  12.290  12.220   8.785  0.8754  0.5953 -2.0990
  3214G12c H00K59690  12.240  12.235   8.880  3.0485 -3.8388 -0.0686
  3214G12c H00J59691  12.284  12.112   8.770  1.0528  1.1134 -6.6584
  3214G12c H00I59692  12.209  12.278   8.741 -2.1701 -0.6186  1.6367
  3214G12c C01M59693  12.482  12.356   8.607 -0.5673  0.1462 -0.8889
  3214G12c C02059694  12.528  12.480   8.123  0.7334  0.1456  0.6157
  3214G12c C02159695  12.562  12.342   8.115  0.2340  0.0231 -0.1682
  3214G12c C01L59696  12.507  12.465   8.518 -0.0882 -1.2623  1.0261
  3214G12c O00759697  12.522  12.230   8.576 -0.5670 -0.0964 -0.0526
  3214G12c C02259698  12.557  12.253   8.221 -0.4156  1.6999 -0.1165
  3214G12c C02359699  12.558  12.270   8.005  0.8318  0.2070 -0.6939
  3214G12c C00G59700  12.420  12.135   7.810 -2.3078 -0.3758  0.1817
  3214G12c C00E59701  12.314  11.914   7.745 -0.7662  0.0034 -0.7994
  3214G12c O00A59702  12.254  11.832   7.657  0.3195  0.1318 -1.4131
  3214G12c C02459703  12.327  11.732   7.585  0.5416 -0.3653 -0.5603
  3214G12c H00V59704  12.432  11.702   7.592  0.8405  0.8885  0.3844
  3214G12c H00U59705  12.302  11.628   7.605  6.1932 -2.1753 -1.7937
  3214G12c H00T59706  12.306  11.764   7.483 -0.0759  3.6764  0.7459
  3224G12c C00D59707  10.364  11.805  10.444  0.1467 -0.0989  1.0227
  3224G12c O00B59708  10.237  11.767  10.414  0.3258  0.2094  0.8683
  3224G12c C02559709  10.216  11.685  10.300 -0.6836 -0.8281  0.0595
  3224G12c C02659710  10.186  11.777  10.188 -1.1672 -0.7327  0.0740
  3224G12c H00Y59711  10.148  11.859  10.249 -1.7408  1.0168 -2.5557
  3224G12c H00X59712  10.096  11.736  10.142 -3.7387 -2.8423  6.3902
  3224G12c O00C59713  10.264  11.820  10.081  0.3797  1.0753 -0.5403
  3224G12c H00W59714  10.272  11.912  10.066 -3.1563  1.3415 -1.3279
  3224G12c C02759715  10.186  11.557  10.310  0.3394  0.1194 -1.5083
  3224G12c O00D59716  10.231  11.486  10.420 -0.7423  1.2232  0.5467
  3224G12c H00Z59717  10.262  11.566  10.458 -3.9351  3.2526 -0.8961
  3224G12c C02859718  10.158  11.480  10.191  0.2956  1.1105 -0.8056
  3224G12c C02959719  10.058  11.389  10.235  0.6811  0.5046  0.6429
  3224G12c H01059720  10.027  11.390  10.339 -0.0920  2.2125  0.4072
  3224G12c C02T59721  10.034  11.291  10.137  0.7391 -0.5169  0.2081
  3224G12c H01O59722   9.975  11.206  10.166 -2.4360  1.2871 -0.6823
  3224G12c C02S59723  10.105  11.281  10.006  0.2675  0.7949 -0.5705
  3224G12c O00J59724  10.054  11.187   9.922 -0.7317 -0.4557 -0.8825
  3224G12c H01P59725  10.058  11.180   9.828  0.1692 -2.9753 -0.6948
  3224G12c C02R59726  10.214  11.367   9.982  0.7301 -1.1277 -0.5533
  3224G12c O00I59727  10.268  11.353   9.848 -0.0012  0.0222  0.3459
  3224G12c C02Q59728  10.392  11.419   9.818  0.9500 -0.0278 -0.7170
  3224G12c H01N59729  10.441  11.485   9.889 -3.6595  3.7109 -0.7708
  3224G12c H01R59730  10.472  11.345   9.806 -0.0408 -1.0495 -1.0619
  3224G12c H01Q59731  10.376  11.475   9.725  0.4060  2.9449  1.1099
  3224G12c C02A59732  10.224  11.480  10.064 -0.2615  0.3467  1.0630
  3224G12c H01159733  10.313  11.538  10.045  2.1387 -2.6872  2.4637
  3224G12c C00C59734  10.466  11.762  10.363 -1.4182  0.2148  0.0758
  3224G12c H01259735  10.437  11.728  10.265 -2.5466  5.2367 -1.4783
  3224G12c C00B59736  10.588  11.723  10.401  0.8209 -0.8870  1.0247
  3224G12c C00A59737  10.696  11.663  10.337  1.0586 -0.3164 -2.6123
  3224G12c C00959738  10.690  11.553  10.243 -0.1012 -0.1868  1.3031
  3224G12c C00859739  10.586  11.461  10.196 -0.5764 -0.0289  0.6302
  3224G12c H01359740  10.485  11.491  10.174 -2.3372 -3.6454  3.4096
  3224G12c C00759741  10.604  11.316  10.201 -0.0651  1.4828 -1.8106
  3224G12c H01459742  10.527  11.241  10.207 -1.3201  2.9672  1.0576
  3224G12c C00659743  10.731  11.271  10.218 -1.4021 -0.3224  0.6396
  3224G12c C00559744  10.837  11.358  10.256  0.0087  0.3696 -0.1861
  3224G12c C00459745  10.957  11.296  10.301  0.9485 -0.4452 -0.1088
  3224G12c C00359746  11.038  11.375  10.366  0.0602 -0.0691 -0.4375
  3224G12c C00259747  11.152  11.309  10.428 -1.7585 -0.0639  0.9854
  3224G12c C00159748  11.256  11.352  10.512  0.1624 -0.6101 -0.9152
  3224G12c C00M59749  11.231  11.421  10.626  1.1167  0.3848 -0.0059
  3224G12c C00L59750  11.126  11.516  10.643  1.1148  1.3952 -0.0400
  3224G12c C00R59751  11.066  11.564  10.767 -0.3630  0.8722  0.6018
  3224G12c C00Q59752  11.093  11.543  10.896  1.7171  2.2945 -1.3065
  3224G12c C00V59753  10.997  11.618  10.976  1.1314 -1.4591 -1.5049
  3224G12c C00U59754  10.890  11.709  10.936 -0.6004 -0.4475  0.6059
  3224G12c C00T59755  10.848  11.689  10.810  1.8026 -1.2530  0.3940
  3224G12c C01659756  10.744  11.745  10.743  1.5741  0.0188  0.4134
  3224G12c C01559757  10.651  11.806  10.821  0.8220 -1.4667  0.7683
  3224G12c C01059758  10.673  11.822  10.954  0.5359  1.1621  0.8865
  3224G12c C01159759  10.567  11.857  11.032 -1.2998 -1.6082  0.1595
  3224G12c H00559760  10.578  11.878  11.138  0.5758  2.6754 -0.7770
  3224G12c C01259761  10.443  11.843  10.978  0.4485 -0.9492 -0.8545
  3224G12c C01759762  10.323  11.877  11.052  1.2824 -0.2995  1.1392
  3224G12c O00259763  10.306  11.798  11.151  0.9915 -1.7930  1.8063
  3224G12c H00459764  10.380  11.758  11.194  2.1939 -1.2261  0.3470
  3224G12c C01859765  10.264  11.992  11.031 -1.4632  1.1549 -1.7519
  3224G12c O00159766  10.301  12.065  10.919  0.8608  0.7666  1.4933
  3224G12c H00359767  10.372  12.033  10.866 -0.1255 -3.4259  2.5200
  3224G12c C01959768  10.152  12.047  11.102  1.0848 -0.8270  1.9863
  3224G12c H00259769  10.098  11.953  11.091  4.3544 -2.2952 -3.3422
  3224G12c H00159770  10.167  12.060  11.210 -4.5354 -1.4227  2.9847
  3224G12c O00059771  10.122  12.166  11.059  1.2973  0.6133 -0.7752
  3224G12c C01A59772  10.005  12.200  10.997 -1.4837 -0.3563 -1.9238
  3224G12c C02K59773   9.919  12.111  10.921  0.5791  0.4580  1.5702
  3224G12c O00G59774   9.900  11.979  10.951 -0.1811  1.1013 -0.2459
  3224G12c C02M59775   9.787  11.945  11.039 -1.1416  1.2005 -0.4099
  3224G12c H01G59776   9.753  12.032  11.096 -0.3501  3.2605 -3.0024
  3224G12c H01F59777   9.743  11.911  10.946  4.9796 -1.9788 -2.3767
  3224G12c H01E59778   9.823  11.852  11.082  1.4340  4.4085  5.0176
  3224G12c C02J59779   9.841  12.175  10.821  0.7522 -0.7706  0.1362
  3224G12c H01H59780   9.796  12.099  10.759  6.8373 -4.1772 -0.4920
  3224G12c C02I59781   9.842  12.315  10.779  2.2264  0.3530  0.5857
  3224G12c C02N59782   9.767  12.349  10.668 -0.6884  1.5157  1.5998
  3224G12c H01M59783   9.677  12.409  10.672 -1.4268  0.3546  3.0268
  3224G12c C02O59784   9.795  12.272  10.567  0.3481  0.4693 -0.3798
  3224G12c H01L59785   9.872  12.196  10.568  2.6990  2.6713  3.5483
  3224G12c C02P59786   9.729  12.310  10.426 -0.2742 -0.0657 -0.1607
  3224G12c H01K59787   9.646  12.380  10.433  0.2516  0.5487  0.0546
  3224G12c H01J59788   9.818  12.325  10.365 -2.7647 -1.6343 -4.4097
  3224G12c O00H59789   9.642  12.219  10.388  0.2404  0.2489 -1.6646
  3224G12c H01I59790   9.679  12.132  10.393 -2.6960 -1.1315 -2.4578
  3224G12c C02H59791   9.916  12.403  10.861 -2.0935 -0.0373  0.9475
  3224G12c H01C59792   9.944  12.506  10.847 -3.7374 -0.1260 -4.1503
  3224G12c C02L59793   9.985  12.346  10.973 -0.6767  1.5262 -1.6118
  3224G12c H01D59794  10.056  12.384  11.044 -6.2036  3.2554  3.3541
  3224G12c C01359795  10.433  11.808  10.837 -0.7311 -0.3274 -0.9249
  3224G12c H00059796  10.331  11.775  10.826 -2.9239  5.4929  0.5056
  3224G12c C01459797  10.532  11.837  10.755 -3.7932 -0.2643  0.7355
  3224G12c C00F59798  10.517  11.833  10.618  0.5755 -0.0372  0.3064
  3224G12c C00H59799  10.735  11.731  10.596  0.0428  2.1099 -0.2316
  3224G12c C00I59800  10.833  11.663  10.528 -0.8719 -0.1925 -0.6257
  3224G12c C00J59801  10.941  11.620  10.598  1.2908  0.1949 -0.1496
  3224G12c C00Z59802  10.808  11.795  11.006  0.2622 -0.9482  0.7967
  3224G12c C00Y59803  10.851  11.816  11.137 -1.8356 -1.9373  0.3838
  3224G12c H00659804  10.778  11.868  11.196 -1.2473 -0.3818 -0.2369
  3224G12c C00X59805  10.954  11.723  11.194  1.1413 -2.6768  0.8504
  3224G12c O00359806  10.960  11.771  11.318 -0.5774  0.6195 -1.1807
  3224G12c C01B59807  11.029  11.723  11.415 -1.1246  2.3496  0.7420
  3224G12c H00959808  11.123  11.755  11.462  0.4556 10.2027 -6.4352
  3224G12c H00859809  11.040  11.618  11.390 -1.5838  1.9050  2.3405
  3224G12c H00759810  10.947  11.735  11.486 -3.1495 -5.9964  0.3342
  3224G12c C00W59811  11.038  11.632  11.110  0.8720 -0.6049  0.3878
  3224G12c O00459812  11.136  11.572  11.179  1.9625 -0.8204  1.6068
  3224G12c C01C59813  11.167  11.456  11.104  0.5658  0.0994 -0.4810
  3224G12c H00A59814  11.218  11.369  11.143  2.3028 -1.9668 -6.7808
  3224G12c C00P59815  11.185  11.457  10.963 -1.4103 -2.1649 -0.0035
  3224G12c C00O59816  11.271  11.379  10.888 -0.3386  1.8504  0.0889
  3224G12c C01D59817  11.360  11.287  10.962 -0.8533  1.1543  1.5100
  3224G12c H00S59818  11.354  11.262  11.066 -4.9694 -9.0281 -0.5892
  3224G12c C01E59819  11.390  11.154  10.920 -1.4946 -1.0739  0.2118
  3224G12c O00859820  11.440  11.062  11.012  0.0893 -0.4937  0.0833
  3224G12c C01V59821  11.448  10.932  10.990  0.4866  1.2352 -0.2355
  3224G12c C01Z59822  11.597  10.896  10.993 -1.6631 -0.6311  0.8937
  3224G12c H00R59823  11.652  10.970  11.051 -1.7159 -0.0925  0.2567
  3224G12c H00Q59824  11.642  10.808  11.039 -0.7368  0.3298  1.8528
  3224G12c O00959825  11.633  10.851  10.858 -0.4187 -0.8826 -0.2355
  3224G12c H00P59826  11.665  10.764  10.838 -9.1782 -4.4399 -0.8610
  3224G12c C01W59827  11.339  10.843  10.989  0.5715 -1.5961  0.4797
  3224G12c H00O59828  11.261  10.877  11.055  1.4172 -3.9117  2.7437
  3224G12c C01X59829  11.320  10.691  10.944 -0.2138 -0.1288 -0.1180
  3224G12c H00N59830  11.409  10.645  10.900 -3.3131 -4.2340 -2.5268
  3224G12c H00M59831  11.290  10.618  11.019  0.8817  0.5101  0.9642
  3224G12c C01Y59832  11.252  10.657  10.808 -1.2336 -0.2560 -0.3424
  3224G12c C02D59833  11.293  10.546  10.751  0.1856  1.2970 -1.0782
  3224G12c H01959834  11.374  10.491  10.798 -0.6793 -0.7703 -1.9322
  3224G12c C02C59835  11.214  10.497  10.625 -1.2407 -0.9036  1.1026
  3224G12c H01A59836  11.228  10.406  10.569 -4.9649  0.9827 -3.1488
  3224G12c C02B59837  11.129  10.576  10.558  1.0805  0.5622  0.7193
  3224G12c O00E59838  11.133  10.570  10.418 -1.3447  0.3762 -0.5019
  3224G12c H01B59839  11.056  10.615  10.387  0.7143  3.4442 -1.4002
  3224G12c C02F59840  11.081  10.694  10.619 -1.2057 -1.1947 -0.5720
  3224G12c O00F59841  11.046  10.795  10.522  1.2189 -0.9466 -1.2794
  3224G12c C02G59842  10.923  10.858  10.565  0.0360  1.0480 -0.6406
  3224G12c H01759843  10.898  10.877  10.670  1.2275  0.9405 -0.3370
  3224G12c H01659844  10.886  10.960  10.566 -4.7287 -0.5378  1.7305
  3224G12c H01559845  10.846  10.781  10.574  0.4864  0.2752 -3.1096
  3224G12c C02E59846  11.134  10.723  10.754  0.1023 -0.4078  0.2097
  3224G12c H01859847  11.105  10.820  10.790 -0.7356 -1.5991  2.8861
  3224G12c C01F59848  11.344  11.126  10.777 -1.2697 -0.5054  0.4960
  3224G12c C01G59849  11.315  10.997  10.722 -0.6394 -0.1646 -0.4538
  3224G12c H00L59850  11.352  10.911  10.776 -0.0356  2.3819  3.4130
  3224G12c C01H59851  11.256  10.993  10.589  0.5019 -0.9270 -0.0144
  3224G12c H00B59852  11.249  10.897  10.539  0.6348 -0.6897 -0.4942
  3224G12c C01I59853  11.253  11.115  10.516  0.4556 -0.6789 -1.5229
  3224G12c C01U59854  11.321  11.241  10.693 -1.7103  0.2777  1.6316
  3224G12c C00S59855  10.948  11.638  10.731  0.8982  0.0213  0.3188
  3224G12c C00K59856  11.036  11.543  10.540 -0.6295  1.2005 -0.0621
  3224G12c C00N59857  11.279  11.363  10.742 -0.0579 -0.0300  0.9479
  3224G12c C00059858  11.330  11.230  10.552  2.5366  0.6749 -1.1670
  3224G12c C01J59859  11.159  11.170  10.420 -0.2635  0.8741  0.4838
  3224G12c C01K59860  11.087  11.094  10.311 -1.3112 -0.6015 -0.1550
  3224G12c C01P59861  11.122  10.968  10.231 -0.2965 -1.4957 -1.2163
  3224G12c C01Q59862  11.243  10.896  10.241  0.2707  0.7396  1.8197
  3224G12c H00G59863  11.235  10.820  10.318  5.6561 -0.4977  1.4255
  3224G12c C01R59864  11.330  10.882  10.137 -0.1342  0.2910 -0.9965
  3224G12c H00F59865  11.422  10.826  10.142  1.0251  2.2861  8.3127
  3224G12c C01S59866  11.339  10.981  10.028  1.1517  0.9713 -1.1406
  3224G12c H00E59867  11.291  11.067  10.075  3.7063  3.2089 -2.4690
  3224G12c H00D59868  11.439  11.003   9.989  2.9938 -6.3930 -1.1445
  3224G12c O00559869  11.264  10.936   9.912  1.5218  0.3205  0.6235
  3224G12c H00C59870  11.174  10.918   9.894  1.4586  1.3059 -0.0836
  3224G12c C01O59871  11.017  10.891  10.182  2.0915  0.6661 -0.8435
  3224G12c H00H59872  11.031  10.792  10.141  2.0860 -0.0903  0.9848
  3224G12c C01N59873  10.876  10.932  10.197 -0.5642 -0.3932  0.2839
  3224G12c O00659874  10.793  10.848  10.155 -0.9723 -0.5113  1.0795
  3224G12c C01T59875  10.784  10.722  10.198  0.6253  0.9465 -1.2477
  3224G12c H00K59876  10.683  10.703  10.236 -0.2705  4.8403 -1.4467
  3224G12c H00J59877  10.791  10.661  10.108  1.8284 -0.0756 -0.4697
  3224G12c H00I59878  10.860  10.723  10.275  0.7128 -0.1753 -1.3142
  3224G12c C01M59879  10.871  11.072  10.226 -0.7670 -2.0620  1.7195
  3224G12c C02059880  11.001  11.506  10.401  0.8101 -1.5252 -0.2944
  3224G12c C02159881  10.912  11.582  10.331 -0.7619 -1.7184 -2.3359
  3224G12c C01L59882  10.970  11.156  10.284  0.3388 -0.1801  0.0990
  3224G12c O00759883  10.745  11.127  10.217  0.8809  0.2919  1.0774
  3224G12c C02259884  10.830  11.501  10.243 -0.8777  0.1557  1.1000
  3224G12c C02359885  10.830  11.673  10.382 -0.0480 -2.6428  0.4531
  3224G12c C00G59886  10.604  11.744  10.534  0.2773 -0.7447 -1.2394
  3224G12c C00E59887  10.395  11.868  10.567 -0.2202 -1.3855 -0.7023
  3224G12c O00A59888  10.299  11.946  10.639  0.8989  0.8870 -1.0326
  3224G12c C02459889  10.221  12.018  10.546 -0.7399 -0.7281 -0.7741
  3224G12c H00V59890  10.121  12.000  10.583  1.7758  0.5325  7.6474
  3224G12c H00U59891  10.231  12.001  10.439  0.2275 -4.1299 -0.2058
  3224G12c H00T59892  10.232  12.126  10.559 -0.4224 -0.9992  1.4469
  3234G12c C00D59893   6.242   7.325  12.533  0.2397 -0.6721 -0.7361
  3234G12c O00B59894   6.216   7.367  12.392 -0.3213 -0.1691 -0.6869
  3234G12c C02559895   6.334   7.390  12.324 -0.5106 -1.1251  0.2176
  3234G12c C02659896   6.328   7.296  12.179  0.6381  0.6387 -1.2404
  3234G12c H00Y59897   6.362   7.347  12.089 -2.0463  1.1739 -1.9665
  3234G12c H00X59898   6.235   7.239  12.181  2.8741 -3.2216  2.7526
  3234G12c O00C59899   6.397   7.171  12.215 -0.1526  0.1672 -2.0278
  3234G12c H00W59900   6.370   7.104  12.155 -2.0473 -0.1482 -0.8382
  3234G12c C02759901   6.437   7.472  12.330  2.2230 -0.9428 -1.1622
  3234G12c O00D59902   6.439   7.560  12.442  0.4590 -0.6292  0.9123
  3234G12c H00Z59903   6.441   7.645  12.400 -3.4033  0.1167  2.0282
  3234G12c C02859904   6.554   7.468  12.242  0.6145 -0.5585 -1.4650
  3234G12c C02959905   6.644   7.365  12.224 -0.6518  1.2791 -1.1715
  3234G12c H01059906   6.639   7.273  12.281  5.3990  0.3187 -1.8466
  3234G12c C02T59907   6.765   7.372  12.153 -0.3447 -0.4515 -0.4475
  3234G12c H01O59908   6.835   7.296  12.122  1.3646  2.0978 -3.0910
  3234G12c C02S59909   6.793   7.493  12.088  0.1732  1.4844 -1.8158
  3234G12c O00J59910   6.914   7.495  12.030 -0.1123 -1.2496 -0.5684
  3234G12c H01P59911   6.978   7.476  12.096 -4.1102 -1.8979  3.3458
  3234G12c C02R59912   6.697   7.597  12.096  0.2924  0.1768 -2.6560
  3234G12c O00I59913   6.723   7.724  12.041 -1.0254  0.8914 -1.2952
  3234G12c C02Q59914   6.745   7.719  11.908 -1.4853  0.1467  0.9652
  3234G12c H01N59915   6.678   7.642  11.870  1.5076 -2.1751  0.2240
  3234G12c H01R59916   6.739   7.802  11.837  1.5393  0.6157  1.2002
  3234G12c H01Q59917   6.848   7.686  11.894 -1.2175  2.1406 -2.1528
  3234G12c C02A59918   6.575   7.581  12.158  0.2131 -0.9237 -0.0726
  3234G12c H01159919   6.535   7.680  12.172  0.2012 -1.2589  2.4401
  3234G12c C00C59920   6.354   7.290  12.607 -0.1378  1.0231 -0.3495
  3234G12c H01259921   6.440   7.309  12.545  1.5126 -3.6318  0.2808
  3234G12c C00B59922   6.352   7.246  12.752 -0.2249 -0.4696  0.7828
  3234G12c C00A59923   6.470   7.182  12.814 -0.2628  0.3609  1.7043
  3234G12c C00959924   6.610   7.161  12.763 -1.3411  0.1733 -0.2675
  3234G12c C00859925   6.677   7.178  12.635 -1.5565 -0.5044 -0.4608
  3234G12c H01359926   6.616   7.211  12.552  1.0483 -1.2491 -2.7533
  3234G12c C00759927   6.768   7.071  12.613  1.1413 -0.1203  1.3642
  3234G12c H01459928   6.799   7.058  12.511 -4.0595 -0.0796 -0.3947
  3234G12c C00659929   6.808   6.984  12.715 -0.1175  0.0405 -0.2084
  3234G12c C00559930   6.765   6.993  12.848 -0.1412 -1.3545  2.6679
  3234G12c C00459931   6.756   6.872  12.927  0.7755  0.7010  0.4779
  3234G12c C00359932   6.658   6.870  13.031 -0.6479 -0.1876  0.7126
  3234G12c C00259933   6.665   6.754  13.110 -0.8929 -0.1019  0.4186
  3234G12c C00159934   6.621   6.728  13.242  0.1086 -0.1584  0.6823
  3234G12c C00M59935   6.471   6.745  13.259  0.0551 -0.0530  1.0417
  3234G12c C00L59936   6.390   6.850  13.217 -0.8614  1.2462  0.4934
  3234G12c C00R59937   6.252   6.861  13.217 -1.2984 -0.3613 -0.5307
  3234G12c C00Q59938   6.152   6.773  13.247 -0.2903 -0.5124  0.5701
  3234G12c C00V59939   6.028   6.807  13.197  0.7729 -0.4234 -0.7170
  3234G12c C00U59940   6.003   6.927  13.117  0.6012 -0.6055 -1.0917
  3234G12c C00T59941   6.111   7.007  13.079  1.6158 -0.5885 -0.0774
  3234G12c C01659942   6.118   7.093  12.968  0.1433  0.2516  0.8526
  3234G12c C01559943   5.996   7.136  12.923  1.0802 -0.7008  0.1215
  3234G12c C01059944   5.882   7.070  12.966 -0.7963  0.5645  1.2770
  3234G12c C01159945   5.758   7.116  12.896 -0.3510 -0.6627 -0.6512
  3234G12c H00559946   5.659   7.083  12.925 -1.6484 -0.8102 -4.9172
  3234G12c C01259947   5.754   7.219  12.798  0.5083 -0.4221  1.2201
  3234G12c C01759948   5.633   7.277  12.757  0.8773 -1.7767 -0.2058
  3234G12c O00259949   5.576   7.214  12.645 -2.4453  0.4863  0.4285
  3234G12c H00459950   5.615   7.129  12.659 -1.6291  1.4444  4.6094
  3234G12c C01859951   5.536   7.330  12.842  0.2985 -0.4615 -0.7796
  3234G12c O00159952   5.562   7.343  12.968 -0.2670 -0.9761 -0.8564
  3234G12c H00359953   5.632   7.282  12.985  0.1976 -0.3910 -0.6356
  3234G12c C01959954   5.397   7.343  12.823  0.6259  0.9346  0.6066
  3234G12c H00259955   5.342   7.429  12.860 -2.2887 -1.2155  1.4563
  3234G12c H00159956   5.403   7.345  12.714  1.5011 -2.8006  0.5024
  3234G12c O00059957   5.335   7.214  12.882 -0.3559  1.0376  1.4430
  3234G12c C01A59958   5.204   7.203  12.927  1.1761  0.3175  0.1178
  3234G12c C02K59959   5.162   7.070  12.957 -1.4586  1.3926  0.9969
  3234G12c O00G59960   5.251   6.971  12.912 -0.5557 -0.3323  0.7464
  3234G12c C02M59961   5.218   6.826  12.937  0.6606  1.7291 -0.4008
  3234G12c H01G59962   5.125   6.798  12.888 -2.4303 -3.9955  7.7283
  3234G12c H01F59963   5.228   6.786  13.038  0.6511  7.7842  2.1929
  3234G12c H01E59964   5.298   6.762  12.899 -1.1368 -1.4062  0.9718
  3234G12c C02J59965   5.038   7.068  13.027 -0.1554 -1.6924 -0.2476
  3234G12c H01H59966   4.977   6.981  13.046 -0.3690 -2.1411 -2.9129
  3234G12c C02I59967   4.948   7.178  13.060  1.2645 -1.0679  0.4387
  3234G12c C02N59968   4.829   7.156  13.135 -0.9233 -0.3898  1.1004
  3234G12c H01M59969   4.826   7.108  13.232  3.3311 -0.6937  1.1749
  3234G12c C02O59970   4.704   7.161  13.088 -0.7696  1.1945  1.0477
  3234G12c H01L59971   4.618   7.160  13.153 -0.5141  3.0255  1.4448
  3234G12c C02P59972   4.672   7.180  12.957  1.3696  1.0605  2.0174
  3234G12c H01K59973   4.709   7.280  12.937 -0.1020  0.3000 -6.2791
  3234G12c H01J59974   4.715   7.112  12.883 -3.0969 -0.8769  1.0171
  3234G12c O00H59975   4.543   7.152  12.936  1.4479 -1.2804  1.3885
  3234G12c H01I59976   4.528   7.065  12.968  0.2464 -3.7928 -5.2013
  3234G12c C02H59977   4.994   7.298  12.984  1.5826  1.1111 -1.7010
  3234G12c H01C59978   4.924   7.381  12.984  4.6086  3.8563  0.9687
  3234G12c C02L59979   5.124   7.307  12.924 -0.0775 -0.5175 -0.0931
  3234G12c H01D59980   5.152   7.398  12.874 -0.7738  2.6662  4.9912
  3234G12c C01359981   5.878   7.280  12.760  1.1700 -0.5034 -1.6225
  3234G12c H00059982   5.870   7.371  12.702 -0.7748  1.6028  1.7872
  3234G12c C01459983   6.000   7.223  12.814 -1.0394 -0.8343 -0.0212
  3234G12c C00F59984   6.123   7.252  12.751 -0.1357  1.6512 -1.7178
  3234G12c C00H59985   6.236   7.149  12.931 -0.5502  0.3509  0.8645
  3234G12c C00I59986   6.350   7.105  12.991  0.4861  0.3648  0.3776
  3234G12c C00J59987   6.336   7.033  13.101  1.4269  0.1779 -1.1603
  3234G12c C00Z59988   5.886   6.955  13.044  0.1768 -0.2978 -1.1916
  3234G12c C00Y59989   5.768   6.875  13.077 -0.3427 -0.2643  1.2774
  3234G12c H00659990   5.669   6.908  13.050  0.8337  4.1784  2.0661
  3234G12c C00X59991   5.785   6.762  13.159  0.7852  1.3140 -0.6894
  3234G12c O00359992   5.666   6.717  13.217 -2.1749 -0.5919  0.6460
  3234G12c C01B59993   5.632   6.605  13.131 -0.2551 -1.3591  0.0017
  3234G12c H00959994   5.574   6.642  13.047 -0.8551 -2.0529  0.0982
  3234G12c H00859995   5.585   6.529  13.194  1.6986 -4.1081 -1.7338
  3234G12c H00759996   5.715   6.554  13.083  2.3957  1.2837  1.5872
  3234G12c C00W59997   5.907   6.724  13.213  0.1775  0.1632  0.0189
  3234G12c O00459998   5.896   6.653  13.330  0.5565 -0.6061 -0.1853
  3234G12c C01C59999   6.015   6.582  13.337 -0.5450  0.8489  0.3513
  3234G12c H00A60000   6.002   6.475  13.350 -2.7162  0.5890 -3.0801
  3234G12c C00P60001   6.149   6.634  13.298  1.3397  2.1157  1.1429
  3234G12c C00O60002   6.258   6.558  13.267 -1.6499 -0.3254 -0.3767
  3234G12c C01D60003   6.236   6.413  13.241  0.6659 -0.3689  1.1512
  3234G12c H00S60004   6.137   6.372  13.250  0.4332 -0.3373 -1.0473
  3234G12c C01E60005   6.349   6.334  13.208  0.3246  0.9906  0.3021
  3234G12c O00860006   6.351   6.192  13.212 -0.9521 -0.4210 -0.3182
  3234G12c C01V60007   6.287   6.128  13.320  0.1521 -0.7912 -0.1699
  3234G12c C01Z60008   6.325   5.984  13.324 -0.0214  1.3033  0.1628
  3234G12c H00R60009   6.293   5.918  13.404  2.2420 -1.1168 -0.8478
  3234G12c H00Q60010   6.323   5.959  13.218  2.6062 -3.8532  1.1542
  3234G12c O00960011   6.461   6.012  13.354  1.1747 -0.3168 -1.9101
  3234G12c H00P60012   6.449   6.103  13.375  0.7580 -1.2665  2.3501
  3234G12c C01W60013   6.230   6.178  13.434 -1.7967 -1.9372  0.3112
  3234G12c H00O60014   6.254   6.283  13.449  1.5963 -2.5405 -0.4975
  3234G12c C01X60015   6.143   6.117  13.560 -0.0319 -1.0637  0.4999
  3234G12c H00N60016   6.049   6.172  13.565  1.5886  1.7442  1.2900
  3234G12c H00M60017   6.107   6.014  13.554 -4.9168  0.5816 -0.9675
  3234G12c C01Y60018   6.244   6.145  13.676 -0.2524 -0.5802 -0.0897
  3234G12c C02D60019   6.176   6.143  13.801 -0.1695 -2.2059  1.3862
  3234G12c H01960020   6.069   6.130  13.808  0.0632 -3.5528  2.7894
  3234G12c C02C60021   6.250   6.189  13.915 -0.0452 -1.2374 -0.7725
  3234G12c H01A60022   6.187   6.215  13.999  2.0029 -3.6481  1.6056
  3234G12c C02B60023   6.377   6.224  13.897 -1.3258  0.8941 -0.4982
  3234G12c O00E60024   6.450   6.265  13.999  1.4197 -0.2163 -1.4285
  3234G12c H01B60025   6.529   6.228  13.961  2.2499 -5.7564  4.8635
  3234G12c C02F60026   6.454   6.210  13.774  1.8672 -0.1803 -0.5376
  3234G12c O00F60027   6.586   6.227  13.800 -1.2088  1.2268 -0.4568
  3234G12c C02G60028   6.689   6.157  13.715  1.4093 -0.3957 -1.1916
  3234G12c H01760029   6.767   6.176  13.789 -0.5521 -3.1613  1.7151
  3234G12c H01660030   6.723   6.218  13.631  1.3120 -1.1301 -1.7645
  3234G12c H01560031   6.693   6.049  13.705  3.1131 -0.5042  0.3247
  3234G12c C02E60032   6.381   6.171  13.661  0.1306  1.9739 -0.0810
  3234G12c H01860033   6.442   6.185  13.573 -0.0524 -2.0030 -0.9238
  3234G12c C01F60034   6.478   6.396  13.188 -0.2063 -0.5032  1.0665
  3234G12c C01G60035   6.586   6.332  13.124  1.4761 -0.7136  1.1042
  3234G12c H00L60036   6.568   6.227  13.110  1.5922 -0.7788  1.4375
  3234G12c C01H60037   6.697   6.403  13.074  0.8241 -1.5902 -0.3462
  3234G12c H00B60038   6.757   6.368  12.991  0.8033 -0.2952 -0.9135
  3234G12c C01I60039   6.734   6.527  13.144  0.6861  0.0492  0.7148
  3234G12c C01U60040   6.509   6.522  13.253 -0.9543  0.6052  0.4756
  3234G12c C00S60041   6.222   6.960  13.121  1.4573 -0.8258  0.8959
  3234G12c C00K60042   6.432   6.960  13.141  0.3827  0.4511  0.3556
  3234G12c C00N60043   6.406   6.610  13.260  2.0271  1.3812 -0.0869
  3234G12c C00060044   6.649   6.580  13.255 -0.6952  1.7048  1.7648
  3234G12c C01J60045   6.762   6.656  13.083  1.2247 -0.7213 -0.2516
  3234G12c C01K60046   6.865   6.661  12.986  0.4202 -0.7250 -0.2239
  3234G12c C01P60047   6.972   6.567  12.955 -0.3042 -0.0254 -0.7659
  3234G12c C01Q60048   7.011   6.447  13.036 -0.0099  0.4606  0.5191
  3234G12c H00G60049   7.030   6.461  13.141  3.5239 -4.8428  0.7883
  3234G12c C01R60050   7.071   6.355  12.976  1.7420 -0.1462  0.5813
  3234G12c H00F60051   7.049   6.347  12.871 -4.1508  1.5665  1.5294
  3234G12c C01S60052   7.171   6.269  13.051  0.3061 -0.2915  0.2428
  3234G12c H00E60053   7.225   6.329  13.124 -0.3429  4.2416 -2.7730
  3234G12c H00D60054   7.143   6.196  13.126 -6.6796 -2.6410 -4.1634
  3234G12c O00560055   7.249   6.208  12.953 -0.5476 -1.1153 -0.0045
  3234G12c H00C60056   7.302   6.138  12.988 -0.3149  0.6818  3.4651
  3234G12c C01O60057   7.053   6.601  12.844 -0.6932  0.2663  0.4740
  3234G12c H00H60058   7.121   6.529  12.800  0.1400  1.1935  0.2487
  3234G12c C01N60059   7.049   6.721  12.777  0.1928 -0.1619  0.2381
  3234G12c O00660060   7.101   6.743  12.649 -0.9243 -1.0026  0.0593
  3234G12c C01T60061   7.228   6.781  12.664 -1.0934  0.1560 -0.5158
  3234G12c H00K60062   7.284   6.732  12.744 -1.1706 -3.4316 -2.5568
  3234G12c H00J60063   7.213   6.888  12.651 -3.1851 -0.0519 -0.0101
  3234G12c H00I60064   7.278   6.763  12.569 -2.1790  1.8910 -1.4467
  3234G12c C01M60065   6.943   6.809  12.800 -1.4785 -0.9018 -0.9597
  3234G12c C02060066   6.557   6.972  13.068  1.9490 -1.6341 -0.5082
  3234G12c C02160067   6.576   7.080  12.981  0.0561 -0.8920 -0.6968
  3234G12c C01L60068   6.848   6.767  12.910 -2.3157 -2.0011  2.7400
  3234G12c O00760069   6.899   6.892  12.707 -0.3241  1.1051 -0.2075
  3234G12c C02260070   6.673   7.105  12.885  2.0039  0.3605  1.1808
  3234G12c C02360071   6.458   7.129  12.927  0.4688 -1.6380  0.9187
  3234G12c C00G60072   6.240   7.219  12.812 -1.1527  1.5118  0.1874
  3234G12c C00E60073   6.115   7.287  12.599  0.1057  1.4096  0.1936
  3234G12c O00A60074   5.993   7.251  12.524 -0.1403 -0.0903 -1.0620
  3234G12c C02460075   5.966   7.110  12.503  0.3640 -0.1929 -0.7710
  3234G12c H00V60076   6.008   7.057  12.588  4.0225  5.7585  1.4456
  3234G12c H00U60077   5.980   7.060  12.407  0.9346 -2.0245  0.2431
  3234G12c H00T60078   5.882   7.055  12.544  0.0781  2.2506  2.0089
  3244G12c C00D60079   1.966   1.379   8.145 -1.2767  1.1130  1.0117
  3244G12c O00B60080   2.083   1.372   8.081  0.3537 -0.1907 -0.3406
  3244G12c C02560081   2.114   1.459   7.971  1.2866 -1.0187 -0.0715
  3244G12c C02660082   2.266   1.501   7.965  0.0817 -1.6502 -0.6971
  3244G12c H00Y60083   2.283   1.590   7.904 -2.9516 -1.9086 -2.0257
  3244G12c H00X60084   2.356   1.440   7.957 -0.5974 -3.1480  2.3135
  3244G12c O00C60085   2.283   1.562   8.097  0.9366 -0.4552 -1.2370
  3244G12c H00W60086   2.200   1.601   8.118  0.2918 -2.4789  0.1871
  3244G12c C02760087   2.025   1.545   7.916 -0.2283  0.6066  0.3593
  3244G12c O00D60088   1.899   1.525   7.970  0.6479 -0.6535  0.7709
  3244G12c H00Z60089   1.898   1.440   8.010 -5.3032 -0.5010  1.5229
  3244G12c C02860090   2.040   1.652   7.810  0.6880 -1.1661 -0.5680
  3244G12c C02960091   2.016   1.646   7.674  0.2856  0.7421  0.0760
  3244G12c H01060092   1.962   1.552   7.667  2.6252 -1.0378  4.1461
  3244G12c C02T60093   2.013   1.756   7.580  0.2354  0.6148 -1.0896
  3244G12c H01O60094   1.984   1.744   7.477 -1.5943  0.4531 -0.5750
  3244G12c C02S60095   2.101   1.872   7.615  0.1479 -1.0697 -0.4781
  3244G12c O00J60096   2.114   1.979   7.528  1.3376  0.5781 -0.8106
  3244G12c H01P60097   2.165   2.023   7.593  4.9376 -2.6103 -1.2831
  3244G12c C02R60098   2.147   1.884   7.751 -1.0769  1.1474  0.3693
  3244G12c O00I60099   2.217   2.004   7.775  0.2513 -0.2279  0.7822
  3244G12c C02Q60100   2.313   1.993   7.877  0.6317  1.0765 -0.5343
  3244G12c H01N60101   2.379   2.077   7.896  5.7949 -2.2033 -2.7927
  3244G12c H01R60102   2.356   1.893   7.877  3.4080  2.2017 -2.2359
  3244G12c H01Q60103   2.246   1.967   7.959  0.4309 -3.3261 -1.9730
  3244G12c C02A60104   2.111   1.773   7.838  0.9037  0.1469 -1.4409
  3244G12c H01160105   2.170   1.755   7.927 -1.4986  2.1133  0.6138
  3244G12c C00C60106   1.873   1.287   8.131 -0.5802  1.6993  1.7521
  3244G12c H01260107   1.868   1.231   8.038  1.6083  1.7870  1.5603
  3244G12c C00B60108   1.731   1.309   8.171 -0.7950  0.1569 -1.5067
  3244G12c C00A60109   1.625   1.230   8.121 -2.7064 -2.3876 -1.3284
  3244G12c C00960110   1.595   1.169   7.991 -0.0426 -1.0511 -2.1020
  3244G12c C00860111   1.623   1.101   7.855 -1.2719 -0.7138  0.5077
  3244G12c H01360112   1.721   1.082   7.812 -0.5877  4.0757 -0.4171
  3244G12c C00760113   1.527   1.085   7.752 -0.7598  0.4577  1.2003
  3244G12c H01460114   1.574   1.065   7.657 -0.6451 -2.9116  1.9007
  3244G12c C00660115   1.403   1.144   7.756  0.4954  0.4228 -0.8648
  3244G12c C00560116   1.363   1.167   7.898  1.1156  1.5422 -0.8570
  3244G12c C00460117   1.229   1.183   7.930 -1.6287 -3.3050  1.3941
  3244G12c C00360118   1.186   1.212   8.062  0.7723  1.5589  0.6727
  3244G12c C00260119   1.052   1.248   8.076  1.4243 -1.6537 -0.3535
  3244G12c C00160120   0.979   1.288   8.196  1.4221  0.3095 -0.1175
  3244G12c C00M60121   1.017   1.378   8.304  0.5800  1.0924  0.1885
  3244G12c C00L60122   1.148   1.380   8.356  1.2634 -0.4525 -2.1815
  3244G12c C00R60123   1.210   1.474   8.425  1.2185  1.1372 -1.6267
  3244G12c C00Q60124   1.158   1.584   8.474 -0.0126  0.8916 -0.3687
  3244G12c C00V60125   1.246   1.654   8.551  0.9512 -0.3936 -3.0628
  3244G12c C00U60126   1.393   1.642   8.531 -1.3152  0.2122  1.1770
  3244G12c C00T60127   1.446   1.533   8.486 -2.4218  0.8971  1.0501
  3244G12c C01660128   1.579   1.516   8.430 -0.9983  0.0819 -0.2676
  3244G12c C01560129   1.673   1.609   8.459  1.9472  0.7355 -0.9728
  3244G12c C01060130   1.629   1.718   8.525  0.3323  1.2314 -0.8813
  3244G12c C01160131   1.724   1.822   8.554 -1.4506 -0.5909  0.7020
  3244G12c H00560132   1.691   1.891   8.630  6.6750  3.7773  0.8724
  3244G12c C01260133   1.848   1.822   8.499  1.3164  0.8059 -0.9318
  3244G12c C01760134   1.928   1.932   8.524 -0.4352  0.9351 -0.4177
  3244G12c O00260135   1.976   1.935   8.659  0.9419  0.0194 -0.9087
  3244G12c H00460136   1.990   2.027   8.644  0.0687  0.0346 -1.6756
  3244G12c C01860137   1.931   2.018   8.416  1.2612 -0.3721 -2.2941
  3244G12c O00160138   1.873   1.994   8.299 -0.1321 -1.1931  0.3156
  3244G12c H00360139   1.796   1.948   8.329 -1.4768  1.1617  0.5896
  3244G12c C01960140   2.029   2.139   8.419  0.7843 -2.4592 -0.3962
  3244G12c H00260141   2.096   2.096   8.345  5.1014  4.1091 -0.7450
  3244G12c H00160142   1.974   2.227   8.387  3.1661 -0.3727  1.0534
  3244G12c O00060143   2.085   2.179   8.543  1.9601  0.3454  1.2599
  3244G12c C01A60144   2.205   2.248   8.559 -0.4059 -0.4074  1.7228
  3244G12c C02K60145   2.255   2.230   8.685  0.0119  0.3913  0.9203
  3244G12c O00G60146   2.185   2.164   8.792 -0.7436  0.6424 -0.5428
  3244G12c C02M60147   2.184   2.250   8.894  0.0798 -2.4244  0.3095
  3244G12c H01G60148   2.095   2.218   8.949 -0.7122 -2.8895 -1.1861
  3244G12c H01F60149   2.190   2.346   8.842  6.1400 -1.8379  1.7392
  3244G12c H01E60150   2.267   2.238   8.963  2.4101  5.5320 -0.5274
  3244G12c C02J60151   2.387   2.271   8.704  1.8009  0.3229  0.4042
  3244G12c H01H60152   2.434   2.246   8.798  1.4065  7.8755  2.9294
  3244G12c C02I60153   2.466   2.328   8.594 -0.2152  1.7016 -0.0232
  3244G12c C02N60154   2.608   2.352   8.615 -0.8270 -1.3713 -0.8992
  3244G12c H01M60155   2.689   2.280   8.618 -1.1027 -1.7158  4.7608
  3244G12c C02O60156   2.653   2.473   8.650 -0.0211  0.2600 -0.8439
  3244G12c H01L60157   2.579   2.548   8.627  2.5000  2.0836 -3.3787
  3244G12c C02P60158   2.813   2.494   8.665 -0.2864 -0.8440  1.0556
  3244G12c H01K60159   2.835   2.598   8.688 -7.7549  1.5169 -1.0242
  3244G12c H01J60160   2.850   2.416   8.731  2.4050 -1.9347 -1.6236
  3244G12c O00H60161   2.867   2.457   8.544  1.1543 -0.3322  0.5029
  3244G12c H01I60162   2.792   2.466   8.487  4.3038 -1.5266 -4.1686
  3244G12c C02H60163   2.421   2.327   8.471  0.3932 -0.1956 -1.5062
  3244G12c H01C60164   2.481   2.350   8.384 -2.1041 -6.1906 -5.1125
  3244G12c C02L60165   2.284   2.298   8.449 -0.2684 -1.1806  0.3922
  3244G12c H01D60166   2.220   2.331   8.368 -0.2009 -4.1898 -0.9451
  3244G12c C01360167   1.893   1.712   8.425 -0.3606 -0.2493 -0.6226
  3244G12c H00060168   1.981   1.745   8.372  2.6847 -4.7844  1.3847
  3244G12c C01460169   1.803   1.599   8.399  0.7722  0.5830 -0.3721
  3244G12c C00F60170   1.824   1.480   8.320  0.2840 -1.0296  0.1729
  3244G12c C00H60171   1.593   1.422   8.327  0.2245 -0.2653  0.0561
  3244G12c C00I60172   1.495   1.323   8.300  0.8484  0.3050  0.8644
  3244G12c C00J60173   1.379   1.338   8.369  0.7277  0.1901  0.3946
  3244G12c C00Z60174   1.493   1.742   8.555 -0.0735 -0.3278  0.6684
  3244G12c C00Y60175   1.439   1.876   8.593  0.7036 -0.1800  1.9795
  3244G12c H00660176   1.501   1.964   8.583 -4.8874  3.4807 -7.4974
  3244G12c C00X60177   1.305   1.884   8.640  0.4089 -0.1510 -0.7688
  3244G12c O00360178   1.256   2.012   8.683 -0.1460 -1.1706  1.1023
  3244G12c C01B60179   1.288   2.048   8.809 -1.3669  1.0723 -0.4118
  3244G12c H00960180   1.269   2.154   8.790 -1.6227  1.3482  1.3009
  3244G12c H00860181   1.390   2.028   8.841  0.6844  6.9195 -2.5721
  3244G12c H00760182   1.225   2.002   8.886 -0.5010  4.1911  2.3065
  3244G12c C00W60183   1.202   1.783   8.617 -0.8239 -1.2657 -0.1360
  3244G12c O00460184   1.070   1.807   8.641  1.1024  0.6259 -0.4954
  3244G12c C01C60185   1.005   1.756   8.538 -0.8244  0.3562 -0.3448
  3244G12c H00A60186   0.899   1.756   8.558 -1.4230 -0.3361 -3.2519
  3244G12c C00P60187   1.032   1.649   8.452 -0.6516 -1.0764 -0.1185
  3244G12c C00O60188   0.958   1.622   8.328  1.0544  0.0035 -1.2909
  3244G12c C01D60189   0.894   1.728   8.262 -0.1730  0.4638  0.6421
  3244G12c H00S60190   0.887   1.821   8.315 -2.1027 -0.4149  1.9909
  3244G12c C01E60191   0.842   1.704   8.131 -0.1885  0.1203  0.9438
  3244G12c O00860192   0.831   1.802   8.034  0.9044 -0.9988  1.4516
  3244G12c C01V60193   0.930   1.902   8.004  2.2716 -1.8642  0.1455
  3244G12c C01Z60194   0.893   2.043   7.949  0.7246 -1.3765 -0.0819
  3244G12c H00R60195   0.978   2.110   7.947 -0.7849  1.0119  6.2064
  3244G12c H00Q60196   0.833   2.033   7.858 -1.3044 -0.3207  1.0843
  3244G12c O00960197   0.813   2.108   8.048 -0.3323 -0.3377  1.7874
  3244G12c H00P60198   0.810   2.049   8.122  9.6701  5.2963  7.8527
  3244G12c C01W60199   1.065   1.890   7.993 -0.0476  0.2068  0.7600
  3244G12c H00O60200   1.124   1.978   7.972 -3.1658  2.1644 -0.1399
  3244G12c C01X60201   1.122   1.746   8.006 -0.8236 -1.1623 -1.0951
  3244G12c H00N60202   1.203   1.783   8.069 -0.8320  2.4009 -3.0165
  3244G12c H00M60203   1.073   1.674   8.072  7.4302 -6.6790 -0.2857
  3244G12c C01Y60204   1.180   1.682   7.883  0.9481  0.6523 -0.8151
  3244G12c C02D60205   1.125   1.677   7.759  0.2132 -2.2666  0.3596
  3244G12c H01960206   1.045   1.748   7.749  6.1343  5.6999  3.8106
  3244G12c C02C60207   1.170   1.621   7.629  0.5754  1.2863 -0.2992
  3244G12c H01A60208   1.146   1.643   7.526  3.5810  4.9474 -0.3427
  3244G12c C02B60209   1.296   1.569   7.644 -0.3858  1.4349  1.8098
  3244G12c O00E60210   1.346   1.508   7.532  0.8004 -0.6681  0.1484
  3244G12c H01B60211   1.356   1.414   7.529  1.9821 -0.5734  0.7853
  3244G12c C02F60212   1.366   1.564   7.770 -1.9165  1.4814  0.7454
  3244G12c O00F60213   1.486   1.490   7.762  1.3224  0.8821 -0.9406
  3244G12c C02G60214   1.548   1.477   7.901 -2.0725  0.8269  2.0006
  3244G12c H01760215   1.590   1.568   7.943 -1.0750 -0.3271  3.5937
  3244G12c H01660216   1.638   1.415   7.899 -2.2514  0.4810  3.6398
  3244G12c H01560217   1.474   1.435   7.969 -2.8628 -2.5845 -0.7999
  3244G12c C02E60218   1.303   1.610   7.889 -1.3549  0.0455 -0.3239
  3244G12c H01860219   1.374   1.607   7.971 -3.8633  0.5136  1.9436
  3244G12c C01F60220   0.812   1.568   8.091 -0.1594 -0.3814  1.4314
  3244G12c C01G60221   0.774   1.542   7.954  0.9422  1.3411 -1.2773
  3244G12c H00L60222   0.740   1.622   7.890  1.1804 -2.8057 -6.9404
  3244G12c C01H60223   0.794   1.395   7.922 -0.9139 -0.0429  0.5305
  3244G12c H00B60224   0.766   1.378   7.819  0.8409 -0.9980  0.1784
  3244G12c C01I60225   0.838   1.302   8.009 -1.3733  0.8379  1.4238
  3244G12c C01U60226   0.847   1.467   8.177  0.4010  0.4980  1.7623
  3244G12c C00S60227   1.353   1.451   8.427  0.0418 -0.8334 -0.6159
  3244G12c C00K60228   1.252   1.297   8.304 -0.4679 -2.4799  0.7827
  3244G12c C00N60229   0.936   1.497   8.281 -0.6222  1.3011  0.6345
  3244G12c C00060230   0.854   1.327   8.153 -0.0681 -1.1794 -0.6421
  3244G12c C01J60231   0.960   1.224   7.976 -1.1452 -0.7677 -0.8883
  3244G12c C01K60232   0.998   1.204   7.833  1.3933 -1.2684  1.0214
  3244G12c C01P60233   0.915   1.156   7.727 -0.9576  0.7522  0.3304
  3244G12c C01Q60234   0.778   1.130   7.751  1.2204 -0.3127  0.0031
  3244G12c H00G60235   0.739   1.135   7.852  3.3636  0.2740  0.8169
  3244G12c C01R60236   0.703   1.065   7.672 -1.6796  0.2455  1.0329
  3244G12c H00F60237   0.723   1.035   7.571  3.4014  2.8809  1.1375
  3244G12c C01S60238   0.612   0.985   7.733  1.5637  1.7225 -1.4050
  3244G12c H00E60239   0.581   0.900   7.672 -4.2425  3.4899 -1.1870
  3244G12c H00D60240   0.616   0.950   7.836  0.1139  3.6657 -0.6642
  3244G12c O00560241   0.504   1.055   7.771  0.4233 -0.8202  0.2137
  3244G12c H00C60242   0.438   1.002   7.728 -2.1952  1.1138  1.6849
  3244G12c C01O60243   0.958   1.161   7.596 -0.6337 -0.0422  0.3043
  3244G12c H00H60244   0.885   1.127   7.525 -3.5594 -1.1147  3.6837
  3244G12c C01N60245   1.097   1.152   7.566 -0.4796 -0.5844 -1.0749
  3244G12c O00660246   1.137   1.100   7.449 -1.3386 -1.3771  0.2587
  3244G12c C01T60247   1.106   1.191   7.338  0.9630 -1.3338  0.6723
  3244G12c H00K60248   1.167   1.281   7.345 -1.4055  0.7682 -3.9532
  3244G12c H00J60249   1.001   1.217   7.329  1.8345  0.9103 -6.5162
  3244G12c H00I60250   1.111   1.150   7.237  2.4529  3.0960 -1.1803
  3244G12c C01M60251   1.181   1.178   7.685 -0.3535  0.5708 -0.3282
  3244G12c C02060252   1.278   1.230   8.172  0.4168 -1.4142 -0.1728
  3244G12c C02160253   1.402   1.175   8.128  0.4538  0.6149  1.7439
  3244G12c C01L60254   1.132   1.192   7.820 -1.2506 -0.0920  0.4056
  3244G12c O00760255   1.317   1.150   7.658 -0.4936  0.7123 -0.3892
  3244G12c C02260256   1.454   1.154   8.007 -0.5483  0.4517 -1.6193
  3244G12c C02360257   1.511   1.240   8.189  0.2431 -0.9282 -0.1835
  3244G12c C00G60258   1.718   1.393   8.280  0.9611  0.9752  1.9950
  3244G12c C00E60259   1.949   1.478   8.249 -0.4985  0.7643  0.7252
  3244G12c O00A60260   2.061   1.558   8.278  1.7554  1.0241  0.1595
  3244G12c C02460261   2.159   1.495   8.358  0.2090  1.0557 -0.6623
  3244G12c H00V60262   2.133   1.470   8.461  0.4216  3.5598  0.0426
  3244G12c H00U60263   2.244   1.560   8.383 -0.2702  2.2140 -2.0057
  3244G12c H00T60264   2.217   1.424   8.299  3.0096  3.1265 -0.5070
  3254G12c C00D60265   6.582  11.309   1.209  0.3250  0.1236  1.1608
  3254G12c O00B60266   6.681  11.230   1.154 -0.7235  0.0904  0.0590
  3254G12c C02560267   6.658  11.177   1.026  1.8917  0.0613 -0.7149
  3254G12c C02660268   6.625  11.038   1.051  0.1803  0.1003  0.3094
  3254G12c H00Y60269   6.523  11.040   1.088  1.3359  0.2884  3.6679
  3254G12c H00X60270   6.662  10.994   1.143 -0.9708  0.8052  1.1300
  3254G12c O00C60271   6.659  10.949   0.940 -0.2291  0.4465 -1.5494
  3254G12c H00W60272   6.623  11.000   0.868  4.5359  0.1497 -4.3026
  3254G12c C02760273   6.706  11.245   0.916  0.3069  1.6410  1.1045
  3254G12c O00D60274   6.726  11.383   0.908  0.1055 -2.2025 -1.2724
  3254G12c H00Z60275   6.779  11.417   0.837  2.8598  0.7893  2.0002
  3254G12c C02860276   6.715  11.181   0.787 -2.5677  0.9967 -0.3947
  3254G12c C02960277   6.593  11.183   0.725  0.3747 -1.4124 -1.6173
  3254G12c H01060278   6.526  11.250   0.777  4.9241  0.7874  1.6721
  3254G12c C02T60279   6.553  11.137   0.605  0.5106  0.4920 -0.3824
  3254G12c H01O60280   6.448  11.161   0.592 -0.7571 -4.5791 -0.2352
  3254G12c C02S60281   6.653  11.054   0.544 -1.2109  0.2642  0.3319
  3254G12c O00J60282   6.622  10.969   0.444  0.0562  0.6210 -0.5809
  3254G12c H01P60283   6.705  10.933   0.415 -0.7350 -1.0399 -0.8137
  3254G12c C02R60284   6.778  11.028   0.611 -0.6909  0.0192 -0.5731
  3254G12c O00I60285   6.868  10.956   0.549 -0.3085 -0.5703 -0.2668
  3254G12c C02Q60286   6.956  10.885   0.609 -0.6133 -0.9785  1.1624
  3254G12c H01N60287   7.041  10.921   0.551 -2.1371 -3.1810 -2.6887
  3254G12c H01R60288   6.971  10.851   0.711 -0.9348  2.5366  2.4333
  3254G12c H01Q60289   6.930  10.786   0.572 -1.6282  0.0528 -0.9923
  3254G12c C02A60290   6.802  11.103   0.721  1.0132 -0.3103  1.6146
  3254G12c H01160291   6.907  11.111   0.747  0.5010 -1.0671  3.9690
  3254G12c C00C60292   6.499  11.388   1.120 -0.8599  0.1583  0.0358
  3254G12c H01260293   6.495  11.384   1.012 -1.3446  3.0717 -0.1040
  3254G12c C00B60294   6.385  11.459   1.179 -1.5660 -0.1775 -0.9944
  3254G12c C00A60295   6.282  11.520   1.111 -0.2926 -0.3367 -0.5676
  3254G12c C00960296   6.294  11.616   1.008  0.3004  0.0293  0.4267
  3254G12c C00860297   6.408  11.655   0.940 -0.4678 -0.1155  0.1886
  3254G12c H01360298   6.508  11.612   0.941  0.9876  3.1398  1.5058
  3254G12c C00760299   6.393  11.773   0.879 -0.7825 -1.0490 -1.6789
  3254G12c H01460300   6.469  11.822   0.820 -3.0671  0.2129 -3.6233
  3254G12c C00660301   6.273  11.863   0.882  0.4828 -1.7398  0.2237
  3254G12c C00560302   6.168  11.824   0.963 -0.1796 -1.1132 -0.9604
  3254G12c C00460303   6.077  11.918   1.016 -0.5913 -1.0068 -2.0482
  3254G12c C00360304   6.008  11.885   1.137  0.8378  0.2478 -0.7933
  3254G12c C00260305   5.927  11.987   1.184  0.4093 -0.5311  0.9178
  3254G12c C00160306   5.814  11.995   1.281 -1.3159  0.7293  0.9739
  3254G12c C00M60307   5.841  11.955   1.427 -1.3934 -0.5303 -0.6422
  3254G12c C00L60308   5.903  11.833   1.448 -1.9087  0.2919  0.2963
  3254G12c C00R60309   5.985  11.794   1.566 -1.3376  0.0762  1.5095
  3254G12c C00Q60310   5.998  11.858   1.696 -2.2284  0.4168  1.1450
  3254G12c C00V60311   6.106  11.799   1.766  1.4565 -0.4931 -1.0537
  3254G12c C00U60312   6.199  11.704   1.713  0.0818 -1.2688 -0.6557
  3254G12c C00T60313   6.189  11.648   1.585 -0.3231  0.8816 -0.2401
  3254G12c C01660314   6.297  11.590   1.514 -0.0808 -1.0610 -2.1097
  3254G12c C01560315   6.401  11.564   1.591 -0.1830  1.4704  0.9926
  3254G12c C01060316   6.424  11.617   1.715  0.4969 -0.1356  0.2805
  3254G12c C01160317   6.546  11.587   1.779 -2.8890  0.4836  1.8621
  3254G12c H00560318   6.579  11.645   1.864 -8.9714 10.0159 -1.5374
  3254G12c C01260319   6.657  11.527   1.711 -1.0773 -1.1563 -1.8455
  3254G12c C01760320   6.805  11.515   1.769  0.5621 -0.3960  0.6195
  3254G12c O00260321   6.847  11.387   1.780 -1.1913 -0.7134  0.6813
  3254G12c H00460322   6.925  11.436   1.758 -3.2409  3.8581  3.1133
  3254G12c C01860323   6.878  11.616   1.796  0.9347 -0.4711  1.4992
  3254G12c O00160324   7.015  11.606   1.819 -1.1413  0.1742 -2.1591
  3254G12c H00360325   7.061  11.688   1.807 -2.0926  0.5989 -2.9040
  3254G12c C01960326   6.834  11.749   1.783  0.7706 -0.3026  1.2856
  3254G12c H00260327   6.761  11.745   1.864 -0.3120 -7.7270  0.3529
  3254G12c H00160328   6.802  11.780   1.684 -0.4797  1.4009  2.1947
  3254G12c O00060329   6.952  11.838   1.815 -1.2514 -2.6529 -1.6500
  3254G12c C01A60330   6.903  11.957   1.865 -0.2376  0.0998 -0.1224
  3254G12c C02K60331   6.921  11.971   2.003  1.2148 -1.3229 -1.0702
  3254G12c O00G60332   7.000  11.900   2.086 -1.1675  0.3849  0.2818
  3254G12c C02M60333   6.982  11.765   2.092 -0.0994  0.1173 -0.1483
  3254G12c H01G60334   6.931  11.731   2.182 -2.7843  3.8357 -0.1424
  3254G12c H01F60335   7.084  11.729   2.074  0.5343  0.4245  2.6394
  3254G12c H01E60336   6.943  11.720   2.001  3.3459 -1.3180 -0.9983
  3254G12c C02J60337   6.923  12.106   2.049  2.8282 -0.2627 -0.2055
  3254G12c H01H60338   6.964  12.146   2.141  1.9920 -1.4259  0.6999
  3254G12c C02I60339   6.914  12.224   1.966 -1.1552 -0.8075 -0.0997
  3254G12c C02N60340   6.902  12.349   2.043  0.3503 -0.9338  1.1808
  3254G12c H01M60341   6.982  12.417   2.018 -0.2202 -1.2878 -1.8003
  3254G12c C02O60342   6.822  12.355   2.139 -0.0654 -1.3704  0.0608
  3254G12c H01L60343   6.769  12.265   2.165  2.9825 -3.6366 -1.3928
  3254G12c C02P60344   6.825  12.447   2.246  0.2960  1.1801 -0.5366
  3254G12c H01K60345   6.924  12.457   2.291  0.3842  1.4696 -0.7939
  3254G12c H01J60346   6.806  12.553   2.228 -7.3064 -0.2861 -2.8083
  3254G12c O00H60347   6.708  12.449   2.311  0.2238  0.4531  2.6585
  3254G12c H01I60348   6.712  12.383   2.379  1.1578 -0.9903  1.2218
  3254G12c C02H60349   6.896  12.208   1.832 -0.2698 -1.2864  1.0581
  3254G12c H01C60350   6.922  12.299   1.780 -6.7988  4.3803  6.7379
  3254G12c C02L60351   6.897  12.070   1.777 -0.7863 -0.6293  1.9525
  3254G12c H01D60352   6.964  12.055   1.694 -0.7085  2.8916  1.2903
  3254G12c C01360353   6.625  11.461   1.601 -1.1443  0.3052  2.0428
  3254G12c H00060354   6.714  11.446   1.542 -1.2025  2.1493  1.4564
  3254G12c C01460355   6.496  11.488   1.527  1.4895 -0.8629  2.4061
  3254G12c C00F60356   6.494  11.443   1.392  1.0507  0.4168  0.3530
  3254G12c C00H60357   6.283  11.541   1.383  0.9723 -0.0970  1.3318
  3254G12c C00I60358   6.165  11.592   1.317  0.5687  0.4655 -0.9055
  3254G12c C00J60359   6.057  11.659   1.391  0.8840  0.6905  0.4984
  3254G12c C00Z60360   6.321  11.683   1.790 -0.1433 -0.4596 -0.1019
  3254G12c C00Y60361   6.343  11.742   1.911 -0.3611 -1.2508  0.5015
  3254G12c H00660362   6.428  11.741   1.978 -0.1304 -7.1215  0.3881
  3254G12c C00X60363   6.249  11.832   1.952 -1.1741  0.0743 -0.1712
  3254G12c O00360364   6.285  11.864   2.089 -1.0031  0.6175 -0.6708
  3254G12c C01B60365   6.374  11.965   2.083  1.6292  0.5362  1.2181
  3254G12c H00960366   6.330  12.032   2.156 -2.4948  1.0701 -1.5853
  3254G12c H00860367   6.347  12.022   1.994 -3.8180  8.1379  7.1459
  3254G12c H00760368   6.479  11.935   2.078  0.8082 -3.6006  5.2478
  3254G12c C00W60369   6.132  11.856   1.893  1.0147  0.3407  0.7558
  3254G12c O00460370   6.037  11.932   1.953 -1.1000  0.8193 -1.7655
  3254G12c C01C60371   5.980  12.017   1.881  0.9892 -0.9574 -0.1825
  3254G12c H00A60372   6.009  12.121   1.871  1.4665 -0.9329  1.3667
  3254G12c C00P60373   5.954  11.986   1.746  0.4322 -1.0397  0.2578
  3254G12c C00O60374   5.913  12.088   1.656  0.9807 -0.1948  1.4938
  3254G12c C01D60375   5.889  12.229   1.697  0.6456 -0.1863 -1.3402
  3254G12c H00S60376   5.873  12.244   1.803  0.2711 -1.6566 -1.1750
  3254G12c C01E60377   5.875  12.346   1.606  0.5024  0.2548  2.3335
  3254G12c O00860378   5.877  12.466   1.666  0.1488  1.4977  1.1755
  3254G12c C01V60379   6.004  12.458   1.709 -1.1685 -0.5862 -0.0868
  3254G12c C01Z60380   5.990  12.507   1.857 -1.7159 -0.8166 -0.0419
  3254G12c H00R60381   6.076  12.558   1.901 -2.4668  2.2116 -1.9299
  3254G12c H00Q60382   5.931  12.598   1.869  1.3722  1.7044 -2.7852
  3254G12c O00960383   5.930  12.421   1.962 -0.6121  0.7052 -0.2625
  3254G12c H00P60384   5.919  12.485   2.031  0.9202  1.9664 -1.1232
  3254G12c C01W60385   6.113  12.436   1.640 -0.7419  0.7601  0.1688
  3254G12c H00O60386   6.093  12.445   1.534 -1.0696  1.4247  0.2863
  3254G12c C01X60387   6.272  12.432   1.691 -0.7037  2.0346  1.4850
  3254G12c H00N60388   6.315  12.531   1.696  4.8778 -0.2615  2.1805
  3254G12c H00M60389   6.236  12.402   1.790 -4.5802  3.5593  0.6261
  3254G12c C01Y60390   6.349  12.319   1.661 -0.4038  0.9538  0.8391
  3254G12c C02D60391   6.494  12.316   1.696  2.3775  1.1375  0.0433
  3254G12c H01960392   6.543  12.381   1.768  4.1855  0.6946 -0.7669
  3254G12c C02C60393   6.558  12.200   1.643 -0.2719 -0.7958 -1.1687
  3254G12c H01A60394   6.665  12.198   1.655 -0.5351  2.5550  3.1828
  3254G12c C02B60395   6.499  12.100   1.575 -0.6242  1.3071  0.3822
  3254G12c O00E60396   6.586  12.012   1.543  0.1810 -0.7843 -0.7074
  3254G12c H01B60397   6.562  11.947   1.479 -5.3074 -3.7383  3.8757
  3254G12c C02F60398   6.365  12.111   1.529 -1.4676 -0.3910 -0.1536
  3254G12c O00F60399   6.332  12.035   1.417 -0.8791 -0.8373 -0.0273
  3254G12c C02G60400   6.204  11.981   1.416  0.6532  0.3801  0.3528
  3254G12c H01760401   6.207  11.873   1.411 -2.0713  0.3644 -4.3290
  3254G12c H01660402   6.130  11.986   1.336  4.0098 -2.5706 -3.1187
  3254G12c H01560403   6.162  12.032   1.503  2.7431 -3.7003  3.8770
  3254G12c C02E60404   6.288  12.231   1.568  0.6370  0.7513 -0.2639
  3254G12c H01860405   6.183  12.235   1.545  0.5888 -5.5226 -2.2700
  3254G12c C01F60406   5.862  12.320   1.466  1.5840 -0.4595 -0.8376
  3254G12c C01G60407   5.902  12.410   1.363  0.7818 -0.2763  0.4624
  3254G12c H00L60408   5.958  12.502   1.371  1.2970 -0.6585  1.3065
  3254G12c C01H60409   5.904  12.347   1.246 -0.3216  0.4827 -0.5741
  3254G12c H00B60410   5.956  12.402   1.169  0.0161  1.7543  0.5434
  3254G12c C01I60411   5.889  12.204   1.223  1.8402 -0.1470 -0.8288
  3254G12c C01U60412   5.817  12.180   1.435  1.0038  0.5924  0.5754
  3254G12c C00S60413   6.067  11.686   1.516  0.5349  0.9905 -0.1054
  3254G12c C00K60414   5.966  11.749   1.342 -0.2184  2.0274  0.4993
  3254G12c C00N60415   5.856  12.077   1.514  0.2237 -0.7755 -0.9226
  3254G12c C00060416   5.802  12.138   1.304 -0.0739 -0.4497 -0.8752
  3254G12c C01J60417   5.925  12.120   1.119 -0.8000  1.0467  0.8386
  3254G12c C01K60418   6.021  12.167   1.009  2.4088 -1.0876 -1.5279
  3254G12c C01P60419   5.986  12.271   0.912  0.9474  0.0122 -1.1544
  3254G12c C01Q60420   5.872  12.349   0.897  0.8967 -0.3269  1.0965
  3254G12c H00G60421   5.862  12.449   0.856 -2.2562 -1.5922 -1.4098
  3254G12c C01R60422   5.758  12.276   0.859  0.0480  0.8515  0.8165
  3254G12c H00F60423   5.735  12.172   0.875 -3.9469  2.1408  4.3541
  3254G12c C01S60424   5.621  12.301   0.808  0.3884  1.2266  0.8201
  3254G12c H00E60425   5.591  12.340   0.711 -4.4127  0.9839  2.0381
  3254G12c H00D60426   5.550  12.219   0.814  5.4929 -3.4666  0.7417
  3254G12c O00560427   5.566  12.393   0.879 -1.1577 -0.4728  0.5819
  3254G12c H00C60428   5.472  12.401   0.883 -1.3839 -3.1633  1.3400
  3254G12c C01O60429   6.077  12.286   0.804  0.7474  0.3249  0.5352
  3254G12c H00H60430   6.069  12.368   0.734  0.4614  1.0522  1.4188
  3254G12c C01N60431   6.188  12.206   0.789  1.4659 -1.6527 -0.0227
  3254G12c O00660432   6.288  12.201   0.691  0.6183  0.2736 -0.4216
  3254G12c C01T60433   6.320  12.295   0.598  2.0670 -1.5538 -1.7827
  3254G12c H00K60434   6.242  12.287   0.522  2.2281 -3.8650 -1.7317
  3254G12c H00J60435   6.420  12.289   0.554  1.9950 -4.9427 -1.6113
  3254G12c H00I60436   6.310  12.404   0.601  1.5038 -1.4890 -4.4682
  3254G12c C01M60437   6.191  12.092   0.857  0.3926 -0.0402  0.2613
  3254G12c C02060438   6.003  11.762   1.199  0.7762  0.6561  0.0868
  3254G12c C02160439   6.084  11.658   1.121  1.5959 -0.3851  0.2074
  3254G12c C01L60440   6.088  12.054   0.964 -0.5599 -1.2683  0.8996
  3254G12c O00760441   6.311  11.993   0.862  0.6172  0.1025 -0.2280
  3254G12c C02260442   6.149  11.686   0.992 -0.1922  0.1314 -1.9808
  3254G12c C02360443   6.168  11.563   1.180  1.1138 -1.0552  0.2172
  3254G12c C00G60444   6.385  11.470   1.319  1.9669 -0.6780 -1.3575
  3254G12c C00E60445   6.593  11.335   1.342  1.2938  0.5784  0.0066
  3254G12c O00A60446   6.675  11.257   1.404 -0.8829 -0.5232 -0.1018
  3254G12c C02460447   6.805  11.245   1.404  0.1706 -0.1330  2.2250
  3254G12c H00V60448   6.874  11.307   1.346 -0.2609  2.2493  4.2117
  3254G12c H00U60449   6.818  11.144   1.366  1.8269 -1.9854  7.3786
  3254G12c H00T60450   6.817  11.249   1.512 -1.3637  2.4914  2.3565
  3264G12c C00D60451   7.502  11.529  10.713 -0.7073 -0.2894  2.3334
  3264G12c O00B60452   7.554  11.655  10.671  0.5424 -0.0724  0.0618
  3264G12c C02560453   7.688  11.664  10.670 -0.4210  0.8413 -1.3789
  3264G12c C02660454   7.763  11.761  10.771  2.7172  2.0506 -0.8858
  3264G12c H00Y60455   7.772  11.860  10.727 -1.4525  2.5459 -0.7847
  3264G12c H00X60456   7.856  11.738  10.823  0.1202 -1.7722  2.3443
  3264G12c O00C60457   7.695  11.765  10.892  0.7322  0.1104  1.0438
  3264G12c H00W60458   7.749  11.811  10.955  4.2040 -2.5374  0.1045
  3264G12c C02760459   7.746  11.578  10.571  0.3324 -0.1164 -0.9562
  3264G12c O00D60460   7.689  11.531  10.466  0.2690 -0.1691  1.1800
  3264G12c H00Z60461   7.703  11.440  10.446  3.2208  1.5322 -5.9821
  3264G12c C02860462   7.886  11.593  10.573  0.1406  0.7968 -1.0767
  3264G12c C02960463   7.947  11.685  10.488 -0.4800 -1.7016 -0.6956
  3264G12c H01060464   7.889  11.753  10.427 -2.4719  3.4077  6.1591
  3264G12c C02T60465   8.093  11.677  10.491 -1.0597  0.1249 -0.0209
  3264G12c H01O60466   8.121  11.756  10.423  1.0899  0.9707  1.8129
  3264G12c C02S60467   8.175  11.591  10.572 -1.3536  0.1261 -0.4585
  3264G12c O00J60468   8.287  11.645  10.596 -1.5457  0.1024 -0.2031
  3264G12c H01P60469   8.345  11.585  10.640  0.0417 -0.5367 -3.0700
  3264G12c C02R60470   8.103  11.510  10.661  0.7701 -1.1942 -0.8407
  3264G12c O00I60471   8.186  11.436  10.734  0.0059 -0.1088 -0.2148
  3264G12c C02Q60472   8.162  11.417  10.881  0.4313 -0.1200 -0.2723
  3264G12c H01N60473   8.060  11.440  10.910 -1.8060 -6.3931 -2.5104
  3264G12c H01R60474   8.247  11.460  10.934  0.8696  2.0980 -2.6444
  3264G12c H01Q60475   8.191  11.314  10.899 -2.8441 -0.4006  4.0137
  3264G12c C02A60476   7.962  11.507  10.649  0.7792 -0.1278 -1.0454
  3264G12c H01160477   7.923  11.422  10.703  1.0615 -1.0619 -2.3118
  3264G12c C00C60478   7.570  11.458  10.825  0.8041  0.0611 -0.1262
  3264G12c H01260479   7.668  11.492  10.855  1.0544  0.4549 -1.3692
  3264G12c C00B60480   7.503  11.355  10.892  1.7440 -1.0245 -0.2136
  3264G12c C00A60481   7.539  11.311  11.021 -0.8446  0.0969  0.2915
  3264G12c C00960482   7.665  11.256  11.038 -0.5977  1.5330 -0.1878
  3264G12c C00860483   7.760  11.261  10.951  0.1955  0.4245  0.2366
  3264G12c H01360484   7.780  11.342  10.883 -0.1928 -0.7889 -1.3548
  3264G12c C00760485   7.835  11.143  10.925 -0.4574 -0.8509  1.5788
  3264G12c H01460486   7.898  11.161  10.839 -1.0225 -2.0193  0.9180
  3264G12c C00660487   7.819  11.025  10.996  2.0850 -0.6074 -0.8617
  3264G12c C00560488   7.717  11.025  11.095  0.1090 -1.3033 -0.2654
  3264G12c C00460489   7.684  10.926  11.181  0.3015  1.5975  0.6522
  3264G12c C00360490   7.551  10.915  11.237 -0.8373  1.0595 -0.1059
  3264G12c C00260491   7.516  10.794  11.308 -0.0448  0.1226 -0.4631
  3264G12c C00160492   7.381  10.752  11.368 -0.7651 -0.0512  0.7383
  3264G12c C00M60493   7.262  10.769  11.274  0.8592 -1.4432  0.9924
  3264G12c C00L60494   7.210  10.890  11.239  0.2792 -0.9476 -0.3030
  3264G12c C00R60495   7.117  10.905  11.133 -0.0852  1.0756 -0.3217
  3264G12c C00Q60496   7.035  10.804  11.064  0.9312 -0.0756 -0.9281
  3264G12c C00V60497   6.975  10.857  10.940  0.1951 -1.3651 -0.5052
  3264G12c C00U60498   7.018  10.980  10.877 -1.0167  0.2906  0.4572
  3264G12c C00T60499   7.111  11.065  10.940  0.3167  0.4537 -0.5039
  3264G12c C01660500   7.180  11.172  10.879  1.5739 -0.4727 -0.9620
  3264G12c C01560501   7.127  11.210  10.762  0.1125  0.6045  0.3708
  3264G12c C01060502   7.027  11.133  10.692  0.1073 -0.4625  0.2437
  3264G12c C01160503   7.007  11.156  10.556 -0.0938  1.3859  0.9465
  3264G12c H00560504   6.925  11.103  10.510 -5.7509  5.5137  5.5173
  3264G12c C01260505   7.068  11.270  10.496 -1.0701  0.9472  2.2283
  3264G12c C01760506   7.052  11.288  10.356 -0.5418  0.4029 -1.8149
  3264G12c O00260507   7.047  11.423  10.319  0.0432 -0.0399 -0.7602
  3264G12c H00460508   7.071  11.447  10.231 -7.2308  0.1871 -3.0276
  3264G12c C01860509   7.059  11.168  10.289 -1.6910  0.0176 -0.5234
  3264G12c O00160510   7.112  11.043  10.335 -0.8222  0.4522  0.6610
  3264G12c H00360511   7.082  10.970  10.283  3.4643 -2.2826  1.7429
  3264G12c C01960512   7.020  11.158  10.133  1.0980 -1.9627 -0.5347
  3264G12c H00260513   6.991  11.248  10.079 -2.3045  0.0376  4.3103
  3264G12c H00160514   7.106  11.129  10.071  3.6684 -0.4358  2.1828
  3264G12c O00060515   6.901  11.097  10.118  1.0275  1.1789 -0.6357
  3264G12c C01A60516   6.934  10.954  10.138 -0.5749 -0.2948  1.3105
  3264G12c C02K60517   6.833  10.857  10.192 -0.4313  0.4739 -0.3853
  3264G12c O00G60518   6.703  10.870  10.216 -0.0485 -1.3578  0.4112
  3264G12c C02M60519   6.643  10.986  10.274  0.2573 -1.2779 -0.8066
  3264G12c H01G60520   6.673  11.057  10.351  1.6022 -3.3056  0.6122
  3264G12c H01F60521   6.673  11.063  10.203 -3.1515 -2.5333 -3.7575
  3264G12c H01E60522   6.534  10.978  10.275  0.1371 -0.3670 -3.8106
  3264G12c C02J60523   6.859  10.721  10.212  0.3037  0.2001  1.2734
  3264G12c H01H60524   6.791  10.656  10.265 -0.2380 -1.0384 -0.8707
  3264G12c C02I60525   6.988  10.678  10.203 -0.3722  0.0673 -1.1293
  3264G12c C02N60526   7.008  10.558  10.264  0.0068 -0.2645 -0.6662
  3264G12c H01M60527   6.996  10.578  10.369  0.5028 -2.2739 -0.2240
  3264G12c C02O60528   7.089  10.460  10.217 -1.6383 -0.2596  0.8032
  3264G12c H01L60529   7.102  10.437  10.112 -1.5414  0.3192  0.6888
  3264G12c C02P60530   7.113  10.342  10.298  1.3610 -0.3839 -1.3610
  3264G12c H01K60531   7.158  10.385  10.388 -1.3361 -0.0567 -0.1313
  3264G12c H01J60532   7.017  10.294  10.314  2.2909 -2.9030 -3.0259
  3264G12c O00H60533   7.223  10.267  10.236 -1.3736  0.8895  1.0933
  3264G12c H01I60534   7.281  10.218  10.292 -2.0894  0.3659  1.3947
  3264G12c C02H60535   7.081  10.764  10.146  0.5045  0.4381  0.0020
  3264G12c H01C60536   7.189  10.762  10.136  0.3060  0.3228 -2.1932
  3264G12c C02L60537   7.059  10.893  10.118  0.3922  0.4073 -0.8368
  3264G12c H01D60538   7.150  10.926  10.069 -0.1907 -0.8810 -2.8509
  3264G12c C01360539   7.134  11.358  10.569  0.1338 -0.4044  1.7395
  3264G12c H00060540   7.131  11.455  10.522 -0.8842  0.1386  2.8742
  3264G12c C01460541   7.196  11.323  10.699  0.9160 -0.6387 -1.1162
  3264G12c C00F60542   7.306  11.395  10.754  0.2340  0.9196 -0.4237
  3264G12c C00H60543   7.280  11.253  10.948  1.4890 -0.0395  0.2831
  3264G12c C00I60544   7.313  11.208  11.082  1.5322  0.8489 -0.2611
  3264G12c C00J60545   7.248  11.099  11.136  1.4889  1.8623  0.1943
  3264G12c C00Z60546   6.984  11.014  10.746  0.4791 -0.5790 -1.9835
  3264G12c C00Y60547   6.879  10.931  10.679  0.0847  0.9292  0.5713
  3264G12c H00660548   6.821  10.951  10.591 -0.4367 -0.5941  0.5479
  3264G12c C00X60549   6.821  10.816  10.749  0.8682 -1.1547  1.8574
  3264G12c O00360550   6.733  10.716  10.706  1.3871  0.6789 -0.6693
  3264G12c C01B60551   6.654  10.762  10.600 -0.6387 -0.1517  0.7039
  3264G12c H00960552   6.586  10.838  10.638 -4.6016 -1.7782 -2.7188
  3264G12c H00860553   6.571  10.703  10.563 -3.2714  1.8577  3.2181
  3264G12c H00760554   6.689  10.811  10.509 -3.1978  3.9191  1.7877
  3264G12c C00W60555   6.870  10.780  10.878 -0.9952  1.0814 -1.2581
  3264G12c O00460556   6.822  10.679  10.958 -0.2268  2.1371 -0.0596
  3264G12c C01C60557   6.884  10.636  11.070  0.4894  1.0857 -2.6020
  3264G12c H00A60558   6.811  10.635  11.150 -0.7206 -3.7724 -3.5855
  3264G12c C00P60559   7.008  10.670  11.100  0.0511 -0.9028 -0.1634
  3264G12c C00O60560   7.103  10.590  11.173  0.8694  2.6060  1.4176
  3264G12c C01D60561   7.086  10.448  11.166  1.1374  1.4765  0.1554
  3264G12c H00S60562   7.001  10.414  11.109 -0.6726  2.8277  1.9719
  3264G12c C01E60563   7.176  10.349  11.206 -1.0398 -1.4718 -1.5257
  3264G12c O00860564   7.152  10.220  11.193 -1.4199  1.2318  0.1945
  3264G12c C01V60565   7.236  10.138  11.128  0.0657 -1.8936  1.1321
  3264G12c C01Z60566   7.240  10.006  11.210  0.7195 -0.0001 -0.1425
  3264G12c H00R60567   7.346   9.995  11.231  1.2850  1.0877 -2.3366
  3264G12c H00Q60568   7.213  10.028  11.314 -0.3400  3.4995 -1.0929
  3264G12c O00960569   7.192   9.883  11.152 -1.6278 -1.1434 -0.3226
  3264G12c H00P60570   7.160   9.909  11.067 -0.9841  3.7727  0.8077
  3264G12c C01W60571   7.292  10.170  11.013  1.8382 -0.9360  0.8473
  3264G12c H00O60572   7.334  10.265  10.981  9.5358 -5.0952 -2.7879
  3264G12c C01X60573   7.370  10.076  10.921 -0.9831 -0.4738 -1.1429
  3264G12c H00N60574   7.341   9.972  10.905  3.9567 -1.8387 -2.0410
  3264G12c H00M60575   7.378  10.133  10.828  1.6242  4.6407  2.0094
  3264G12c C01Y60576   7.518  10.043  10.948  0.5674  0.9331 -2.0018
  3264G12c C02D60577   7.586   9.918  10.930 -0.4129  0.4347 -0.5769
  3264G12c H01960578   7.533   9.827  10.907  0.5411 -0.6130  1.2340
  3264G12c C02C60579   7.717   9.898  10.963 -1.0168  2.3835 -0.2719
  3264G12c H01A60580   7.763   9.802  10.978  0.7340  3.2058 -0.2122
  3264G12c C02B60581   7.796  10.006  11.019  1.0102  0.5805 -1.0878
  3264G12c O00E60582   7.929   9.993  11.082  0.0877  0.8490 -0.0988
  3264G12c H01B60583   7.988  10.066  11.067 -0.6048  1.2736 -0.7983
  3264G12c C02F60584   7.740  10.125  11.037 -0.4979  0.9238 -0.8069
  3264G12c O00F60585   7.799  10.241  11.093 -0.6205 -0.7474  1.9446
  3264G12c C02G60586   7.828  10.344  10.991  0.3971 -0.3964 -0.1381
  3264G12c H01760587   7.756  10.421  10.964  3.6310  1.9114 -2.5218
  3264G12c H01660588   7.839  10.317  10.886 -3.9647  0.9809 -1.0239
  3264G12c H01560589   7.902  10.419  11.020 -0.2343  0.0433  0.3265
  3264G12c C02E60590   7.600  10.150  10.999  0.0406  0.7830  1.1294
  3264G12c H01860591   7.546  10.243  11.003  5.1114  3.7802  3.0018
  3264G12c C01F60592   7.298  10.408  11.262 -0.3468 -0.5357 -0.3233
  3264G12c C01G60593   7.428  10.343  11.262 -0.6058  0.5986 -0.5496
  3264G12c H00L60594   7.435  10.238  11.238 -4.9603  0.3421 -1.1447
  3264G12c C01H60595   7.535  10.413  11.311  1.2986 -1.5710  1.2089
  3264G12c H00B60596   7.638  10.380  11.303  0.4136 -4.4046  0.7482
  3264G12c C01I60597   7.532  10.557  11.331  3.6898  0.5249  2.2337
  3264G12c C01U60598   7.303  10.548  11.309 -0.8964 -0.4618 -0.2442
  3264G12c C00S60599   7.131  11.041  11.082  0.5916  1.3768 -0.0350
  3264G12c C00K60600   7.311  10.997  11.224 -0.2209 -0.0944 -0.3295
  3264G12c C00N60601   7.218  10.637  11.257  0.2778 -0.1750  1.9925
  3264G12c C00060602   7.406  10.611  11.374  0.9088 -2.1173 -0.1200
  3264G12c C01J60603   7.600  10.685  11.281  0.0866 -0.3252 -0.5623
  3264G12c C01K60604   7.730  10.692  11.240 -1.3129  0.3409  0.6748
  3264G12c C01P60605   7.842  10.601  11.271 -0.7429  1.6397  0.5085
  3264G12c C01Q60606   7.843  10.515  11.382 -1.5677  1.3935 -1.0186
  3264G12c H00G60607   7.846  10.407  11.378 -7.2011  1.1280 -1.7514
  3264G12c C01R60608   7.838  10.575  11.510 -0.6061 -0.4199  0.7614
  3264G12c H00F60609   7.822  10.518  11.601 -0.8714 -2.3759 -0.4859
  3264G12c C01S60610   7.794  10.712  11.546 -2.0395  0.4279 -0.4891
  3264G12c H00E60611   7.744  10.710  11.643  0.2469 -6.4015  0.8226
  3264G12c H00D60612   7.710  10.744  11.483 -3.1782 -2.1132 -0.3408
  3264G12c O00560613   7.898  10.801  11.522  0.6182  0.8134  0.4578
  3264G12c H00C60614   7.902  10.839  11.435 -0.3493  7.5830  3.0278
  3264G12c C01O60615   7.968  10.602  11.191  2.3370 -1.2344  0.9467
  3264G12c H00H60616   7.999  10.509  11.236  0.4373 -2.9491 -1.1847
  3264G12c C01N60617   7.982  10.704  11.088 -0.5913  0.3809  0.2736
  3264G12c O00660618   8.085  10.683  10.990  0.0703 -1.1805 -0.4755
  3264G12c C01T60619   8.183  10.796  10.989 -0.6990  0.8848 -0.0027
  3264G12c H00K60620   8.259  10.787  11.066 -1.9763  2.1380  1.4242
  3264G12c H00J60621   8.234  10.792  10.892 -0.3405  2.6500  0.0958
  3264G12c H00I60622   8.151  10.900  10.981  0.6429  1.1242 -3.0104
  3264G12c C01M60623   7.884  10.812  11.081 -0.4753  0.0514  0.7679
  3264G12c C02060624   7.457  11.029  11.236 -0.4799  0.1235 -0.0385
  3264G12c C02160625   7.523  11.144  11.182  0.6229  1.6384 -1.2452
  3264G12c C01L60626   7.762  10.811  11.170  0.1872  0.2515 -0.3690
  3264G12c O00760627   7.907  10.915  10.998 -0.4996  0.2624  1.5474
  3264G12c C02260628   7.645  11.146  11.125 -0.0288 -2.4365  0.0844
  3264G12c C02360629   7.457  11.240  11.101 -0.2685 -0.3003  0.9556
  3264G12c C00G60630   7.356  11.340  10.871  0.7451  0.4935 -0.2791
  3264G12c C00E60631   7.375  11.498  10.672 -0.2971 -1.3295 -0.5328
  3264G12c O00A60632   7.283  11.581  10.611 -0.2649 -0.5154  1.4780
  3264G12c C02460633   7.338  11.625  10.474 -0.4885 -0.9409  0.3787
  3264G12c H00V60634   7.337  11.531  10.418 -4.7182 -0.2568 -0.8892
  3264G12c H00U60635   7.294  11.721  10.446 -0.8734 -0.9956  0.7839
  3264G12c H00T60636   7.446  11.634  10.488  0.5760 -9.3241  0.2408
  3274G12c C00D60637   6.754  10.246   0.579  0.7522  0.0759  0.1914
  3274G12c O00B60638   6.837  10.302   0.682 -0.4328 -0.1933 -1.0560
  3274G12c C02560639   6.771  10.385   0.773  1.4647  1.8622  0.4653
  3274G12c C02660640   6.733  10.512   0.710  0.0442  1.2182 -1.4538
  3274G12c H00Y60641   6.712  10.580   0.792  1.2858  1.2000 -1.1068
  3274G12c H00X60642   6.644  10.484   0.654 -0.8765  4.5501 -1.7205
  3274G12c O00C60643   6.817  10.597   0.650  0.6729  0.6016  0.4311
  3274G12c H00W60644   6.779  10.681   0.668  5.8365  3.2994 -0.3979
  3274G12c C02760645   6.726  10.330   0.891 -1.6012 -1.0548  0.0995
  3274G12c O00D60646   6.757  10.200   0.925 -0.4832  0.6605  1.7448
  3274G12c H00Z60647   6.822  10.156   0.872 -5.6331 -4.8095 -0.5344
  3274G12c C02860648   6.634  10.416   0.975 -0.5747 -0.2186 -1.5591
  3274G12c C02960649   6.512  10.483   0.958  0.6835 -0.7887 -1.1603
  3274G12c H01060650   6.469  10.495   0.859  0.2789  6.2698 -0.4040
  3274G12c C02T60651   6.428  10.552   1.051  0.7580  1.0222  0.9712
  3274G12c H01O60652   6.349  10.617   1.016 -2.7629 -3.2920  0.4499
  3274G12c C02S60653   6.446  10.516   1.188 -2.4573  0.2443 -0.5511
  3274G12c O00J60654   6.356  10.550   1.276 -0.0592 -0.0888 -0.1044
  3274G12c H01P60655   6.363  10.486   1.345  1.7625  3.2985  2.9698
  3274G12c C02R60656   6.561  10.445   1.231 -1.0409 -0.5778  1.6613
  3274G12c O00I60657   6.599  10.438   1.363 -1.2818 -2.0174  0.6347
  3274G12c C02Q60658   6.744  10.473   1.367  0.1297 -1.2607 -1.6612
  3274G12c H01N60659   6.760  10.447   1.472-13.4870  1.2768  2.0244
  3274G12c H01R60660   6.752  10.576   1.401  0.9392 -1.0227 -2.5650
  3274G12c H01Q60661   6.814  10.482   1.284  0.8991  1.4724 -0.7580
  3274G12c C02A60662   6.655  10.416   1.119  0.5716  0.8392  1.1824
  3274G12c H01160663   6.743  10.355   1.137  0.2648 -0.7938 -2.4411
  3274G12c C00C60664   6.625  10.220   0.613  1.0045 -0.6644  0.0446
  3274G12c H01260665   6.570  10.254   0.700 -3.9060 -8.4923  0.5017
  3274G12c C00B60666   6.518  10.187   0.516  0.2488 -0.2464  0.5658
  3274G12c C00A60667   6.376  10.194   0.529  0.9004 -0.5313  1.4491
  3274G12c C00960668   6.298  10.190   0.644 -0.1121  1.2219  0.0938
  3274G12c C00860669   6.320  10.163   0.781 -1.4357 -0.4467  1.3128
  3274G12c H01360670   6.421  10.155   0.819 -1.7792 -0.6892  2.1842
  3274G12c C00760671   6.231  10.098   0.873 -1.4125  0.2999  0.0491
  3274G12c H01460672   6.280  10.042   0.951  4.8525  1.2553 -2.8579
  3274G12c C00660673   6.107  10.052   0.807  0.0006 -1.0050  2.0358
  3274G12c C00560674   6.099  10.052   0.664  0.9721  0.0474 -0.9764
  3274G12c C00460675   6.000   9.981   0.598 -0.5259  0.3922 -1.0322
  3274G12c C00360676   6.006   9.964   0.456  0.3844  0.8224  0.5423
  3274G12c C00260677   5.896   9.889   0.405 -0.3853 -0.2514 -0.1732
  3274G12c C00160678   5.890   9.838   0.280 -1.5226 -0.3737  0.1464
  3274G12c C00M60679   6.007   9.798   0.201 -1.1437  0.7682  0.1207
  3274G12c C00L60680   6.144   9.837   0.200  0.1503 -1.6253  0.9511
  3274G12c C00R60681   6.244   9.802   0.119  1.1436  0.5617 -1.9200
  3274G12c C00Q60682   6.276   9.681   0.039 -0.2269 -0.7915  0.5906
  3274G12c C00V60683   6.422   9.680   0.023  0.4048  0.8689  0.9962
  3274G12c C00U60684   6.514   9.781   0.056  0.9594 -0.3404 -0.4982
  3274G12c C00T60685   6.466   9.894   0.132  0.0243 -1.5281  1.7468
  3274G12c C01660686   6.552   9.984   0.195 -0.9793  0.8079 -0.8303
  3274G12c C01560687   6.686   9.964   0.186 -0.6817  0.3813  0.8334
  3274G12c C01060688   6.736   9.864   0.097 -1.6585 -0.3400 -1.5510
  3274G12c C01160689   6.875   9.874   0.053  1.2465 -0.4344 -0.0453
  3274G12c H00560690   6.935   9.793   0.015 -2.9223 -1.5960 -4.6955
  3274G12c C01260691   6.951   9.980   0.102  0.0104 -0.5071 -2.9122
  3274G12c C01760692   7.086   9.963   0.069  0.7888  0.7683  0.0332
  3274G12c O00260693   7.156   9.875   0.146 -0.6073 -0.2220 -0.0307
  3274G12c H00460694   7.116   9.842   0.225  4.2606 -2.5108  1.6830
  3274G12c C01860695   7.149  10.014  -0.046 -0.4496  0.0753 -0.5332
  3274G12c O00160696   7.063  10.088  -0.112  0.0134 -0.5978 -0.4973
  3274G12c H00360697   6.971  10.088  -0.087  0.4201 -5.5922  1.7552
  3274G12c C01960698   7.291  10.003  -0.098 -1.3821  1.5245 -0.5829
  3274G12c H00260699   7.268  10.021  -0.203  3.7047  2.1618 -1.7224
  3274G12c H00160700   7.358  10.086  -0.076  4.0886 -3.7472  4.5839
  3274G12c O00060701   7.344   9.869  -0.068  0.9812 -0.6993 -1.8433
  3274G12c C01A60702   7.481   9.859  -0.059 -0.8737  0.4981  0.8140
  3274G12c C02K60703   7.520   9.758   0.033  0.6393  2.3052 -0.1857
  3274G12c O00G60704   7.416   9.711   0.120 -0.3572  0.7647 -0.1207
  3274G12c C02M60705   7.410   9.575   0.167 -0.3421 -0.3047 -0.7768
  3274G12c H01G60706   7.314   9.545   0.209 -0.3590  1.1854  0.2827
  3274G12c H01F60707   7.503   9.558   0.221  0.5342 -2.2658 -2.8275
  3274G12c H01E60708   7.400   9.508   0.081  9.5902 -1.5551 -1.5103
  3274G12c C02J60709   7.658   9.704   0.021  0.3924 -0.5945 -0.4534
  3274G12c H01H60710   7.699   9.628   0.085 -4.9691 -2.7523  0.6759
  3274G12c C02I60711   7.756   9.746  -0.069 -0.1461  1.4955  0.2703
  3274G12c C02N60712   7.891   9.697  -0.066  0.0741 -0.2445  0.1075
  3274G12c H01M60713   7.936   9.680  -0.163 -0.9322 -0.5749 -0.3027
  3274G12c C02O60714   7.959   9.672   0.044 -0.7384 -0.2390  1.1452
  3274G12c H01L60715   7.910   9.703   0.135  4.3955  8.3073  1.5023
  3274G12c C02P60716   8.111   9.618   0.052  0.8648  0.3973  1.2429
  3274G12c H01K60717   8.126   9.510   0.041 -2.7703  0.0802 -1.4002
  3274G12c H01J60718   8.149   9.633  -0.049  4.2959  4.2852  2.9695
  3274G12c O00H60719   8.206   9.674   0.143  0.5660 -0.0581  1.0122
  3274G12c H01I60720   8.223   9.756   0.099 -0.0959 -1.1172 -1.3125
  3274G12c C02H60721   7.714   9.854  -0.146 -0.4293 -0.1950 -0.2655
  3274G12c H01C60722   7.769   9.900  -0.227 -2.9123  3.3391 -0.0340
  3274G12c C02L60723   7.573   9.898  -0.160 -0.4160  1.7401  0.3443
  3274G12c H01D60724   7.533   9.981  -0.216 -2.7717  3.3872  4.2097
  3274G12c C01360725   6.901  10.053   0.216  0.4128 -1.1183 -0.6150
  3274G12c H00060726   6.974  10.128   0.241 -1.7271  1.0402 -0.6062
  3274G12c C01460727   6.772  10.061   0.254  1.2201 -1.1720  0.2434
  3274G12c C00F60728   6.713  10.138   0.363  0.9848 -1.1817 -0.3884
  3274G12c C00H60729   6.498  10.087   0.282 -1.4888 -0.1112  0.0559
  3274G12c C00I60730   6.358  10.101   0.301 -2.3735  0.0935  1.0887
  3274G12c C00J60731   6.288   9.999   0.228  0.4439 -0.9643  0.2709
  3274G12c C00Z60732   6.643   9.758   0.051 -0.0085 -0.1426  0.9647
  3274G12c C00Y60733   6.696   9.642  -0.012  0.2980  0.4607 -0.2596
  3274G12c H00660734   6.802   9.619  -0.004  0.1578 -0.1817 -0.1793
  3274G12c C00X60735   6.617   9.532  -0.043  0.3160  0.8365 -1.7698
  3274G12c O00360736   6.683   9.402  -0.072  1.2066 -1.7110 -0.1475
  3274G12c C01B60737   6.594   9.279  -0.083  0.0227  0.7810 -0.6912
  3274G12c H00960738   6.553   9.227   0.004  3.2721  2.2439  1.8290
  3274G12c H00860739   6.522   9.319  -0.153 -0.1240 -1.5819 -1.9602
  3274G12c H00760740   6.657   9.223  -0.152  0.4092 -1.8374  1.6928
  3274G12c C00W60741   6.485   9.552  -0.001 -0.8397 -1.2662 -1.6207
  3274G12c O00460742   6.401   9.447  -0.007  0.7704 -0.5671 -0.2395
  3274G12c C01C60743   6.264   9.472  -0.041 -1.8429  1.1064  1.9057
  3274G12c H00A60744   6.229   9.384  -0.093  6.0161 -2.3673  1.7884
  3274G12c C00P60745   6.200   9.576   0.027  0.1199 -0.1382 -2.1596
  3274G12c C00O60746   6.071   9.556   0.105 -1.7500  0.4997  0.3254
  3274G12c C01D60747   6.036   9.423   0.107  0.9291  0.9803 -0.5673
  3274G12c H00S60748   6.086   9.336   0.066  4.1830  3.1434 -1.3582
  3274G12c C01E60749   5.926   9.383   0.186 -0.5061  0.4741 -2.6441
  3274G12c O00860750   5.874   9.247   0.219 -0.0554  0.1504  0.6006
  3274G12c C01V60751   5.899   9.154   0.107  0.2182  2.5712  0.4769
  3274G12c C01Z60752   6.033   9.073   0.141 -2.3798  0.0913  0.2400
  3274G12c H00R60753   6.116   9.091   0.073 -2.2808 -3.0694 -0.5314
  3274G12c H00Q60754   6.058   9.091   0.245 -0.3580  0.9691 -0.3681
  3274G12c O00960755   6.024   8.949   0.127 -1.2494  1.3093 -0.3006
  3274G12c H00P60756   5.948   8.911   0.086  1.0019 -0.3645 -3.1415
  3274G12c C01W60757   5.828   9.143  -0.004 -0.8712 -0.3452  0.7577
  3274G12c H00O60758   5.747   9.214  -0.000  1.1966  2.8178 -6.3786
  3274G12c C01X60759   5.859   9.071  -0.138  0.7766 -0.6491 -0.5240
  3274G12c H00N60760   5.850   8.967  -0.108  0.4849 -1.1114 -2.1856
  3274G12c H00M60761   5.783   9.090  -0.214  3.0708  3.7917 -1.9155
  3274G12c C01Y60762   5.997   9.105  -0.201 -0.9811  0.5749 -0.2135
  3274G12c C02D60763   5.995   9.221  -0.283  1.8287  1.0549 -1.8724
  3274G12c H01960764   5.917   9.294  -0.292  0.1289 -1.0317 -5.3452
  3274G12c C02C60765   6.127   9.249  -0.341  2.1007  1.3594  1.2825
  3274G12c H01A60766   6.126   9.345  -0.390  2.3753  1.4344  1.4182
  3274G12c C02B60767   6.246   9.167  -0.317  0.7459  1.5090 -0.3274
  3274G12c O00E60768   6.350   9.216  -0.364 -1.1425  0.1073  0.4907
  3274G12c H01B60769   6.403   9.139  -0.350 -1.4223  0.0463  1.2156
  3274G12c C02F60770   6.236   9.056  -0.233 -1.2146  0.6451  0.4025
  3274G12c O00F60771   6.344   8.995  -0.177  1.3270  0.6085  3.1163
  3274G12c C02G60772   6.353   8.931  -0.041  0.3506 -0.1406 -0.2484
  3274G12c H01760773   6.354   9.007   0.037  2.4586 -2.4919  2.1284
  3274G12c H01660774   6.441   8.868  -0.030  0.4105 -1.6905 -7.0175
  3274G12c H01560775   6.273   8.869  -0.000  0.7650 -3.2594 -3.8845
  3274G12c C02E60776   6.119   9.035  -0.172  0.1048  2.2117  0.1263
  3274G12c H01860777   6.122   8.946  -0.111 -3.3407  3.7423  2.6863
  3274G12c C01F60778   5.852   9.488   0.246  0.8660 -0.5070 -0.0100
  3274G12c C01G60779   5.789   9.474   0.375 -0.0923  1.1421 -0.4146
  3274G12c H00L60780   5.774   9.374   0.412  4.4571 -0.0301 -1.4820
  3274G12c C01H60781   5.747   9.582   0.472  0.6274 -0.1885  0.2648
  3274G12c H00B60782   5.728   9.564   0.577 -1.7856 -0.0448 -0.1273
  3274G12c C01I60783   5.765   9.714   0.423 -0.1586 -0.1683 -0.8744
  3274G12c C01U60784   5.861   9.626   0.208  0.1439 -1.1865  0.2177
  3274G12c C00S60785   6.328   9.916   0.129  0.9877  0.1317 -1.5277
  3274G12c C00K60786   6.157   9.979   0.245  1.3169 -1.2700  1.3207
  3274G12c C00N60787   5.985   9.657   0.164 -1.4474 -0.9938 -0.0427
  3274G12c C00060788   5.808   9.723   0.288 -1.7924 -1.1340 -0.7645
  3274G12c C01J60789   5.786   9.836   0.483  0.0792  1.1232 -0.6023
  3274G12c C01K60790   5.799   9.834   0.617  3.4800 -0.2839  0.2491
  3274G12c C01P60791   5.703   9.768   0.714 -0.8265 -0.6103  1.0317
  3274G12c C01Q60792   5.578   9.737   0.667 -1.0873 -1.2048 -0.7003
  3274G12c H00G60793   5.534   9.768   0.573 -6.0555  0.4574  2.0313
  3274G12c C01R60794   5.499   9.662   0.739 -0.9044 -0.7653 -0.0681
  3274G12c H00F60795   5.522   9.627   0.838  1.3095 -3.9524 -1.6204
  3274G12c C01S60796   5.372   9.617   0.687 -1.7372 -1.6227 -0.5806
  3274G12c H00E60797   5.272   9.640   0.724  0.6394  1.6531  4.3901
  3274G12c H00D60798   5.349   9.669   0.594 -5.7443  1.8382  2.1729
  3274G12c O00560799   5.385   9.481   0.704  0.2258  0.3263  0.6632
  3274G12c H00C60800   5.383   9.462   0.797 -5.2221 -0.7681  0.4532
  3274G12c C01O60801   5.727   9.773   0.859 -1.6691 -0.5762  0.0410
  3274G12c H00H60802   5.672   9.698   0.914 -1.5042 -4.7486 -5.1054
  3274G12c C01N60803   5.852   9.822   0.907 -0.0497 -0.5505 -1.2537
  3274G12c O00660804   5.861   9.807   1.042 -1.3742  0.3179 -1.5953
  3274G12c C01T60805   5.906   9.917   1.118 -0.4406 -0.6419  0.0066
  3274G12c H00K60806   5.839   9.955   1.195  3.6793  2.2771  2.3176
  3274G12c H00J60807   5.988   9.984   1.093 -5.5133  5.8912 -0.5501
  3274G12c H00I60808   5.962   9.852   1.186  1.3504 -0.4282 -1.2443
  3274G12c C01M60809   5.936   9.894   0.824 -1.5695  0.4486  2.4229
  3274G12c C02060810   6.105  10.020   0.377 -1.2407 -0.6325 -1.1518
  3274G12c C02160811   6.172  10.115   0.455 -0.6105  0.7587  0.0345
  3274G12c C01L60812   5.915   9.901   0.673  0.8356 -0.3206 -0.3416
  3274G12c O00760813   6.037   9.973   0.883  1.5610  0.3847 -0.3020
  3274G12c C02260814   6.171  10.135   0.586  1.4894 -1.7327 -1.2844
  3274G12c C02360815   6.290  10.171   0.411 -0.4982 -1.5176 -1.1772
  3274G12c C00G60816   6.578  10.142   0.384  0.3870  1.9987 -1.8894
  3274G12c C00E60817   6.795  10.202   0.455 -1.4558  0.1147 -0.6644
  3274G12c O00A60818   6.933  10.195   0.436 -0.6344 -1.2733 -0.7040
  3274G12c C02460819   7.037  10.176   0.530  0.2921 -1.1278  0.6643
  3274G12c H00V60820   7.004  10.127   0.621  5.8496 -1.2256  2.7902
  3274G12c H00U60821   7.050  10.283   0.548  4.2614 -0.7383 -3.4790
  3274G12c H00T60822   7.126  10.123   0.496  0.2899 -1.3094  0.9403
  3284G12c C00D60823  13.294   9.973   9.007  0.9450  0.4135 -0.1172
  3284G12c O00B60824  13.154   9.988   9.023  0.3185  0.5776  0.1986
  3284G12c C02560825  13.117  10.127   9.032  0.0134 -0.8781  0.4772
  3284G12c C02660826  13.027  10.127   9.149  0.3629  0.4171 -1.5995
  3284G12c H00Y60827  13.038  10.025   9.187 -7.2468  1.0426  3.3301
  3284G12c H00X60828  12.928  10.164   9.123 -0.3598  3.3636  4.5062
  3284G12c O00C60829  13.076  10.199   9.256 -0.4498 -1.0103 -0.3650
  3284G12c H00W60830  13.064  10.293   9.264  2.9493 -0.3018 -2.3883
  3284G12c C02760831  13.172  10.239   8.958 -0.0119 -0.4530  0.9324
  3284G12c O00D60832  13.264  10.244   8.862 -0.1796 -0.1864  1.4302
  3284G12c H00Z60833  13.290  10.164   8.819 -7.8402 -1.5912 -1.3448
  3284G12c C02860834  13.122  10.365   9.018  0.8131  1.1865 -0.2796
  3284G12c C02960835  12.993  10.426   8.992 -0.6140  1.2927  1.7724
  3284G12c H01060836  12.940  10.373   8.915 -1.0406 -3.6493  5.2455
  3284G12c C02T60837  12.953  10.552   9.041  0.4117  1.0963 -0.3106
  3284G12c H01O60838  12.846  10.553   9.025  0.6497  5.5244 -2.3381
  3284G12c C02S60839  13.022  10.592   9.154 -0.5316  1.6770  0.4233
  3284G12c O00J60840  12.963  10.690   9.224 -1.8870 -0.0302 -0.5332
  3284G12c H01P60841  12.991  10.706   9.313  5.5430  6.8914 -3.5167
  3284G12c C02R60842  13.148  10.532   9.201  0.8490 -0.3969 -0.3100
  3284G12c O00I60843  13.207  10.577   9.309 -0.5501 -0.3475  1.2189
  3284G12c C02Q60844  13.338  10.623   9.311  1.8577 -1.1755 -3.2322
  3284G12c H01N60845  13.363  10.668   9.215  0.1048  1.1881 -2.6204
  3284G12c H01R60846  13.397  10.537   9.341  2.3940  2.0261  6.4876
  3284G12c H01Q60847  13.394  10.662   9.395  3.0126 -0.5168 -4.2930
  3284G12c C02A60848  13.205  10.429   9.117  0.1732  0.2671  1.0951
  3284G12c H01160849  13.309  10.401   9.125 -1.0250 -6.1979 -2.3463
  3284G12c C00C60850  13.345   9.956   9.127 -1.0302 -0.0729 -1.4099
  3284G12c H01260851  13.279   9.967   9.212 -0.6406  1.7590 -1.3421
  3284G12c C00B60852  13.473   9.918   9.155  0.4702 -1.8449  0.5447
  3284G12c C00A60853  13.535   9.924   9.281  1.8434  2.3860  0.7263
  3284G12c C00960854  13.524  10.028   9.389  0.4386  0.9474 -0.8510
  3284G12c C00860855  13.458  10.143   9.395 -1.7101  0.3128 -1.5517
  3284G12c H01360856  13.383  10.170   9.323 -0.4615  3.5779 -1.6877
  3284G12c C00760857  13.504  10.262   9.471 -0.7123  0.5377  0.0992
  3284G12c H01460858  13.450  10.355   9.471 -2.2711 -0.3368  3.0285
  3284G12c C00660859  13.611  10.241   9.570  0.2820  0.7640  0.5314
  3284G12c C00560860  13.677  10.118   9.554 -1.5153  0.1627  0.5732
  3284G12c C00460861  13.811  10.098   9.612 -1.5731  0.5124  0.3526
  3284G12c C00360862  13.886   9.979   9.573  0.9564 -0.4870 -1.7612
  3284G12c C00260863  14.024  10.000   9.599 -1.6648 -0.2863  1.3136
  3284G12c C00160864  14.148   9.928   9.560  1.1328 -0.6295 -1.6728
  3284G12c C00M60865  14.167   9.913   9.424 -0.0261 -0.0218 -1.5809
  3284G12c C00L60866  14.088   9.851   9.334 -1.1967  0.6182  0.3364
  3284G12c C00R60867  14.098   9.891   9.186  1.1149  0.7896 -0.3701
  3284G12c C00Q60868  14.199   9.972   9.109 -1.4670 -1.6577  0.7227
  3284G12c C00V60869  14.158   9.982   8.960 -1.0906 -1.0074 -0.1120
  3284G12c C00U60870  14.025   9.958   8.917 -0.9730 -1.5035 -0.3753
  3284G12c C00T60871  13.926   9.921   9.005 -1.7744  0.9779  2.9509
  3284G12c C01660872  13.792   9.919   8.979 -0.0016  1.4237  0.8521
  3284G12c C01560873  13.760   9.929   8.845  0.0714 -0.8079  1.1139
  3284G12c C01060874  13.859   9.938   8.742 -0.0279 -0.3820 -0.9762
  3284G12c C01160875  13.816   9.952   8.607  0.2045 -1.5480 -0.3549
  3284G12c H00560876  13.900   9.953   8.539 -0.6309 -1.8453 -1.4057
  3284G12c C01260877  13.674   9.945   8.566 -0.3812  0.0051  0.0771
  3284G12c C01760878  13.606  10.009   8.457  0.0364 -0.4390 -1.6979
  3284G12c O00260879  13.536  10.119   8.459 -0.4126 -1.1294 -0.0588
  3284G12c H00460880  13.563  10.117   8.549 -1.2384 -5.2686  0.1999
  3284G12c C01860881  13.611   9.954   8.336  0.3534 -0.9621 -0.3875
  3284G12c O00160882  13.719   9.882   8.309  0.8811 -1.4896  0.8143
  3284G12c H00360883  13.729   9.873   8.216  3.1829 -6.0807  1.3286
  3284G12c C01960884  13.511   9.986   8.226  0.5527 -0.1730  0.3740
  3284G12c H00260885  13.413   9.990   8.274  1.1330  3.0839  1.4333
  3284G12c H00160886  13.512  10.093   8.203 -3.4131 -0.2979 -0.8548
  3284G12c O00060887  13.529   9.891   8.123  0.6945  0.4344  0.1367
  3284G12c C01A60888  13.451   9.775   8.126  0.5918  1.9766  0.9842
  3284G12c C02K60889  13.356   9.748   8.018 -1.0441  1.2649 -0.4641
  3284G12c O00G60890  13.349   9.832   7.910  0.8803 -1.4282 -1.3295
  3284G12c C02M60891  13.236   9.847   7.829  2.6122 -0.2411 -1.6489
  3284G12c H01G60892  13.146   9.873   7.885  1.6234 -1.3535 -2.7060
  3284G12c H01F60893  13.269   9.931   7.767  3.4348 -1.8351 -3.4137
  3284G12c H01E60894  13.223   9.765   7.759  2.1066 -3.0030  1.5706
  3284G12c C02J60895  13.304   9.624   8.004  2.2212  0.6301 -1.5006
  3284G12c H01H60896  13.235   9.634   7.922  6.8881  3.7902 -5.3300
  3284G12c C02I60897  13.341   9.523   8.089 -1.4139  0.0541  0.7022
  3284G12c C02N60898  13.276   9.397   8.055 -0.8707 -1.2037  0.1933
  3284G12c H01M60899  13.272   9.390   7.947  1.8668  6.0576 -0.6744
  3284G12c C02O60900  13.256   9.297   8.151  0.0234 -2.0893  0.8008
  3284G12c H01L60901  13.235   9.316   8.255  1.3195 -5.0316  1.6661
  3284G12c C02P60902  13.170   9.176   8.101  0.4357 -0.4615 -1.4558
  3284G12c H01K60903  13.080   9.208   8.154 -1.2637  1.2896 -5.2116
  3284G12c H01J60904  13.132   9.164   8.000  0.2741 -3.4394 -1.0921
  3284G12c O00H60905  13.183   9.057   8.186  0.8585  0.2480 -1.0714
  3284G12c H01I60906  13.135   8.985   8.149  2.6267 -2.4080  1.6213
  3284G12c C02H60907  13.436   9.529   8.191 -0.7703 -0.9632 -0.4769
  3284G12c H01C60908  13.462   9.445   8.253  4.0563  2.3349  2.2417
  3284G12c C02L60909  13.485   9.667   8.213 -1.0670  0.1117 -0.6170
  3284G12c H01D60910  13.550   9.712   8.287 -7.8270 -0.8390  6.5042
  3284G12c C01360911  13.591   9.923   8.679  0.4778  0.5176 -0.3008
  3284G12c H00060912  13.490   9.915   8.644 -0.9014 -5.9142  4.0931
  3284G12c C01460913  13.629   9.922   8.809 -1.0778  1.8666 -0.2252
  3284G12c C00F60914  13.531   9.917   8.911 -0.6173 -0.3785 -1.6666
  3284G12c C00H60915  13.705   9.879   9.071  1.3697 -0.9568  1.0222
  3284G12c C00I60916  13.743   9.822   9.198  1.1150  0.9577 -0.4373
  3284G12c C00J60917  13.885   9.821   9.226  1.8424 -0.1022 -2.2912
  3284G12c C00Z60918  13.995   9.963   8.790  1.3439  1.0798  1.5508
  3284G12c C00Y60919  14.080  10.029   8.691  0.6475 -0.5345 -1.0731
  3284G12c H00660920  14.071  10.084   8.598  4.9037  3.9811  0.9931
  3284G12c C00X60921  14.214  10.050   8.725  1.0683  0.5357 -0.2621
  3284G12c O00360922  14.292  10.131   8.639 -0.6487 -0.3219 -0.0324
  3284G12c C01B60923  14.415  10.073   8.592  1.9016  1.1034 -1.7632
  3284G12c H00960924  14.405  10.057   8.484 -0.6925 -5.0430 -0.8502
  3284G12c H00860925  14.513  10.106   8.626  2.3706  0.5884 -2.5840
  3284G12c H00760926  14.408   9.967   8.619  5.3189  1.4482  0.8995
  3284G12c C00W60927  14.249  10.029   8.855 -0.1285 -0.5802  1.2150
  3284G12c O00460928  14.356  10.092   8.897  1.2742 -0.2869 -1.4207
  3284G12c C01C60929  14.389  10.115   9.031  0.1254  0.1023 -1.4425
  3284G12c H00A60930  14.490  10.094   9.063  0.0828 -0.2199 -1.5140
  3284G12c C00P60931  14.318  10.034   9.138  0.0559  1.3270 -0.5521
  3284G12c C00O60932  14.353  10.056   9.276 -0.3480  1.4147  1.8830
  3284G12c C01D60933  14.458  10.158   9.310 -0.3056 -0.1195  0.8785
  3284G12c H00S60934  14.506  10.205   9.225  0.1059 -1.5861  0.2760
  3284G12c C01E60935  14.487  10.207   9.435  1.0920 -0.7382 -0.3278
  3284G12c O00860936  14.598  10.295   9.440 -1.1222 -0.4533 -1.1752
  3284G12c C01V60937  14.693  10.304   9.338 -0.7411 -0.1721 -0.2353
  3284G12c C01Z60938  14.650  10.417   9.239  0.9526  0.3851 -1.3875
  3284G12c H00R60939  14.666  10.364   9.145 -3.3476  1.2715 -2.7386
  3284G12c H00Q60940  14.549  10.455   9.254 -0.9609 -4.3316 -1.4910
  3284G12c O00960941  14.739  10.523   9.266 -0.6479  1.4797 -0.8547
  3284G12c H00P60942  14.826  10.486   9.273 -0.8388  1.2257  0.3942
  3284G12c C01W60943  14.797  10.216   9.330  0.1278 -0.9584 -1.8386
  3284G12c H00O60944  14.816  10.138   9.403  0.9837  0.1398 -0.8720
  3284G12c C01X60945  14.920  10.212   9.229  0.6691  0.1906 -0.7750
  3284G12c H00N60946  14.910  10.310   9.182  0.8979 -0.6234 -2.5476
  3284G12c H00M60947  15.020  10.213   9.271 -1.4662 -4.9755  5.3390
  3284G12c C01Y60948  14.905  10.145   9.098  1.4543 -0.3548 -0.4194
  3284G12c C02D60949  14.807  10.044   9.084 -0.2426  0.8965  1.5710
  3284G12c H01960950  14.767   9.988   9.168  2.2998 -0.9364  1.6249
  3284G12c C02C60951  14.766   9.993   8.959  0.1023 -0.0275 -0.5895
  3284G12c H01A60952  14.684   9.924   8.972 -2.2439  2.9756  1.2295
  3284G12c C02B60953  14.812  10.064   8.839  1.8970  1.3614 -0.9041
  3284G12c O00E60954  14.764  10.009   8.723 -0.2363  0.9783 -0.2615
  3284G12c H01B60955  14.796  10.055   8.647  5.1313  2.4580  2.6821
  3284G12c C02F60956  14.905  10.162   8.848  0.0467  1.2131  0.3522
  3284G12c O00F60957  14.955  10.196   8.721  1.7020 -0.6822  0.2615
  3284G12c C02G60958  15.031  10.100   8.639  0.6451  0.0774  1.2985
  3284G12c H01760959  15.002  10.118   8.535 -4.3070 -1.4728  2.2513
  3284G12c H01660960  15.136  10.130   8.636  1.6284 -3.3101 -0.2344
  3284G12c H01560961  15.000  10.000   8.668  2.3061 -1.8315 -3.0363
  3284G12c C02E60962  14.958  10.211   8.961  1.0806  1.4221 -0.8108
  3284G12c H01860963  15.000  10.311   8.963 -1.9903  2.7607 -0.8951
  3284G12c C01F60964  14.405  10.152   9.538  0.1448  0.4680  1.4587
  3284G12c C01G60965  14.392  10.215   9.663  0.3843  0.4854  1.9178
  3284G12c H00L60966  14.444  10.303   9.699  3.1327  0.2092 -1.1317
  3284G12c C01H60967  14.271  10.204   9.743 -0.7587 -0.8361  0.6293
  3284G12c H00B60968  14.275  10.289   9.810 10.0039 -3.5848  4.4680
  3284G12c C01I60969  14.193  10.083   9.725  1.2204 -1.5373  2.3050
  3284G12c C01U60970  14.322  10.042   9.520  0.9522  1.9032  0.2339
  3284G12c C00S60971  13.966   9.855   9.123 -0.9158 -0.7848  0.3345
  3284G12c C00K60972  13.937   9.842   9.358 -1.3774  0.0991 -1.0575
  3284G12c C00N60973  14.286  10.005   9.390  0.7468  0.1897 -0.4030
  3284G12c C00060974  14.250   9.979   9.632 -0.0260 -1.6768 -0.1519
  3284G12c C01J60975  14.052  10.084   9.722 -0.8437  1.1988  2.1597
  3284G12c C01K60976  13.967  10.179   9.784  0.4185  0.8717  0.0399
  3284G12c C01P60977  13.971  10.256   9.903  0.8126 -0.4821 -0.1479
  3284G12c C01Q60978  14.056  10.191  10.002  0.6592  2.3224 -1.0707
  3284G12c H00G60979  14.057  10.084  10.018 -0.3104  2.6497  1.5212
  3284G12c C01R60980  14.145  10.245  10.093 -0.6831  1.0484 -0.2093
  3284G12c H00F60981  14.195  10.179  10.162  3.0211 -1.6542 -5.1464
  3284G12c C01S60982  14.170  10.376  10.134 -0.9214  0.6249  0.8219
  3284G12c H00E60983  14.266  10.400  10.180  1.7037 -1.7290 -3.1351
  3284G12c H00D60984  14.160  10.442  10.048 -0.5632  0.5984  0.7602
  3284G12c O00560985  14.057  10.384  10.240  0.5017 -1.1069 -1.5554
  3284G12c H00C60986  14.089  10.313  10.293  5.5134  0.5113 -2.1323
  3284G12c C01O60987  13.886  10.363   9.921  2.1649  1.6810 -0.3296
  3284G12c H00H60988  13.848  10.383  10.020  3.4017  0.8914  0.3242
  3284G12c C01N60989  13.799  10.396   9.829  0.3306 -0.6618  0.3954
  3284G12c O00660990  13.704  10.507   9.829  1.4599  0.7917  1.2832
  3284G12c C01T60991  13.612  10.480   9.945 -1.3752 -0.4355  0.5087
  3284G12c H00K60992  13.674  10.530  10.020 -3.7102  0.3491  1.9698
  3284G12c H00J60993  13.610  10.371   9.948  0.3959 -0.4431  2.6741
  3284G12c H00I60994  13.514  10.524   9.927  0.0457  5.0873  4.8100
  3284G12c C01M60995  13.761  10.300   9.735 -0.6498  0.0624  1.1817
  3284G12c C02060996  13.846   9.897   9.453  0.1629  1.1197  0.1465
  3284G12c C02160997  13.706   9.885   9.421 -0.4907  2.2671 -0.0534
  3284G12c C01L60998  13.847  10.195   9.712 -0.8758  0.4049  0.7871
  3284G12c O00760999  13.680  10.340   9.635  2.1380 -0.4955 -0.7966
  3284G12c C02261000  13.625   9.991   9.482  1.0051 -1.3361  0.3283
  3284G12c C02361001  13.646   9.837   9.303  0.0564 -0.9302 -0.0994
  3284G12c C00G61002  13.561   9.898   9.051 -1.0656 -0.9724  0.6005
  3284G12c C00E61003  13.383   9.948   8.895  1.9182 -1.9453 -0.0340
  3284G12c O00A61004  13.342   9.994   8.779  0.2575  0.6400 -2.1103
  3284G12c C02461005  13.223   9.959   8.735  0.8704 -0.7773 -0.7005
  3284G12c H00V61006  13.168   9.888   8.796 -2.5582 -1.9709 -4.8640
  3284G12c H00U61007  13.160  10.047   8.743  2.2945  0.1702  0.1631
  3284G12c H00T61008  13.200   9.922   8.635  2.2655 -4.4285  0.2350
  3294G12c C00D61009   9.025  12.505  11.473 -0.4657  0.7700 -2.4871
  3294G12c O00B61010   8.899  12.470  11.529  0.1702 -0.2306 -2.1148
  3294G12c C02561011   8.854  12.461  11.671 -0.5930  0.2247  0.9383
  3294G12c C02661012   8.796  12.335  11.726  0.0666 -0.4990  0.7608
  3294G12c H00Y61013   8.689  12.335  11.749 -2.0143 -1.2866 -7.2744
  3294G12c H00X61014   8.857  12.340  11.816 -2.3817  1.1881  2.3924
  3294G12c O00C61015   8.868  12.216  11.683  1.5381  0.6224 -0.7743
  3294G12c H00W61016   8.956  12.219  11.719  2.4581  1.4715 -3.0156
  3294G12c C02761017   8.870  12.570  11.741 -1.3760  0.1808  1.5924
  3294G12c O00D61018   8.939  12.678  11.677  1.2556  0.7822  0.4815
  3294G12c H00Z61019   8.879  12.687  11.605 -3.6941 -1.0201  4.0408
  3294G12c C02861020   8.838  12.584  11.874  0.2265  0.2072 -0.3203
  3294G12c C02961021   8.942  12.546  11.975 -0.1240  0.8496 -0.7604
  3294G12c H01061022   9.021  12.488  11.930 -0.8598  0.0780 -1.0771
  3294G12c C02T61023   8.917  12.577  12.114  0.3155 -0.3525 -0.4420
  3294G12c H01O61024   8.988  12.598  12.193 -1.6660  1.5040  0.9155
  3294G12c C02S61025   8.790  12.618  12.158 -2.0467  0.0400 -1.7718
  3294G12c O00J61026   8.765  12.644  12.290 -0.6525  0.1988 -0.9262
  3294G12c H01P61027   8.685  12.689  12.265  0.5296  5.9959  4.3442
  3294G12c C02R61028   8.675  12.626  12.071 -0.9549  0.8223  0.4979
  3294G12c O00I61029   8.559  12.667  12.115 -0.3564 -0.0265 -0.1433
  3294G12c C02Q61030   8.487  12.542  12.103  0.8785 -0.8954  0.1641
  3294G12c H01N61031   8.412  12.525  12.180 -1.2321  0.3683 -1.5435
  3294G12c H01R61032   8.551  12.459  12.132 -0.2058 -1.6557  0.3959
  3294G12c H01Q61033   8.440  12.510  12.009 -3.4784  4.2854  0.3293
  3294G12c C02A61034   8.709  12.596  11.933  2.4145  0.9314 -0.3408
  3294G12c H01161035   8.633  12.601  11.856  3.1855  3.4422 -0.9877
  3294G12c C00C61036   9.156  12.494  11.535  1.2297 -0.5538  1.0370
  3294G12c H01261037   9.181  12.478  11.639 -5.4249 -2.7419  2.5029
  3294G12c C00B61038   9.278  12.521  11.473  0.1338  1.2559  0.3908
  3294G12c C00A61039   9.395  12.569  11.538 -0.4924  0.5847  0.1587
  3294G12c C00961040   9.405  12.666  11.636 -0.2182 -1.0407 -0.0070
  3294G12c C00861041   9.314  12.691  11.743 -1.4746  0.3159  1.3333
  3294G12c H01361042   9.242  12.612  11.760 -4.8415  1.5505 -5.4379
  3294G12c C00761043   9.335  12.821  11.806 -0.2614  1.2449 -0.2230
  3294G12c H01461044   9.260  12.855  11.876  3.3256  1.6062  3.6415
  3294G12c C00661045   9.445  12.908  11.789 -0.8027 -0.2441 -0.9691
  3294G12c C00561046   9.531  12.863  11.689  0.8895  0.2457 -0.3791
  3294G12c C00461047   9.619  12.955  11.621  1.7145  1.1430  0.4289
  3294G12c C00361048   9.692  12.912  11.514  2.9669  1.4864 -0.6240
  3294G12c C00261049   9.779  13.009  11.456  0.2899 -1.3410 -0.8674
  3294G12c C00161050   9.863  13.005  11.353  0.1417  1.0069 -0.2315
  3294G12c C00M61051   9.812  12.973  11.217  0.0756  0.0081 -0.9946
  3294G12c C00L61052   9.737  12.864  11.197 -0.3273  1.8808 -0.8428
  3294G12c C00R61053   9.666  12.829  11.076 -0.6282 -0.0341 -0.8404
  3294G12c C00Q61054   9.624  12.905  10.961 -0.7573  0.1319  0.6273
  3294G12c C00V61055   9.541  12.824  10.879  0.8437 -0.4797 -0.3444
  3294G12c C00U61056   9.446  12.747  10.939 -0.5045  0.5269 -0.1804
  3294G12c C00T61057   9.454  12.709  11.069  0.2117  0.4847  0.6147
  3294G12c C01661058   9.370  12.621  11.138  0.4340 -0.6307  0.8025
  3294G12c C01561059   9.259  12.595  11.060  0.1443  0.9854  0.3571
  3294G12c C01061060   9.270  12.606  10.921 -0.2103  0.9321  0.3805
  3294G12c C01161061   9.164  12.552  10.833 -1.3808 -0.7149  1.4539
  3294G12c H00561062   9.157  12.570  10.727 -1.7119 -5.0473  0.6658
  3294G12c C01261063   9.043  12.502  10.891 -0.8756  0.4777  0.4371
  3294G12c C01761064   8.942  12.447  10.795 -0.8989 -0.5047 -0.6240
  3294G12c O00261065   8.827  12.497  10.813  1.3471  0.4220  0.9150
  3294G12c H00461066   8.844  12.536  10.898 -4.7043  0.9001  2.0972
  3294G12c C01861067   8.990  12.372  10.684  0.7996 -0.0192 -0.0269
  3294G12c O00161068   9.106  12.294  10.685  0.4262  0.2360 -1.0833
  3294G12c H00361069   9.122  12.282  10.593 -1.4361  0.4760 -1.4604
  3294G12c C01961070   8.904  12.367  10.554 -0.1349 -0.0205  1.5751
  3294G12c H00261071   8.806  12.332  10.586 -1.2654  3.6954  2.4601
  3294G12c H00161072   8.947  12.426  10.473 -3.4196  1.3341  0.7354
  3294G12c O00061073   8.971  12.249  10.487  0.3960  0.7079 -0.1603
  3294G12c C01A61074   8.943  12.229  10.357 -2.3871  0.1851  0.6948
  3294G12c C02K61075   9.037  12.152  10.282 -0.3663  0.9208 -1.4309
  3294G12c O00G61076   9.168  12.131  10.304 -0.9115  1.2449 -0.1156
  3294G12c C02M61077   9.203  11.999  10.335  1.0510  0.3872 -2.3523
  3294G12c H01G61078   9.205  11.964  10.231 -3.8609  0.9520 -2.7538
  3294G12c H01F61079   9.124  11.946  10.388  0.2705  0.6288 -3.2760
  3294G12c H01E61080   9.300  12.022  10.380 -0.8256  2.4457  0.7398
  3294G12c C02J61081   9.013  12.130  10.152  1.8775 -0.7212  1.0154
  3294G12c H01H61082   9.097  12.088  10.098  0.5464 -5.3198  2.2752
  3294G12c C02I61083   8.883  12.141  10.094  1.2495 -0.6264  1.2128
  3294G12c C02N61084   8.858  12.086   9.969  0.1818 -0.3835 -1.5834
  3294G12c H01M61085   8.868  12.145   9.878  3.1624 -0.5716 -1.4229
  3294G12c C02O61086   8.897  11.962   9.930  1.2829 -0.0201 -0.6277
  3294G12c H01L61087   8.921  11.889  10.007 -3.3479 -0.0624  0.9390
  3294G12c C02P61088   8.883  11.923   9.785  0.2591  1.1125  0.7472
  3294G12c H01K61089   8.920  11.964   9.691 -6.9029 -0.9892 -3.4289
  3294G12c H01J61090   8.925  11.824   9.802 -0.5443  0.0319 -3.0198
  3294G12c O00H61091   8.734  11.918   9.744  0.7269 -1.1239  0.1292
  3294G12c H01I61092   8.731  11.843   9.686  0.1705 -0.1841 -1.0583
  3294G12c C02H61093   8.780  12.170  10.191  0.7133  0.3277  0.4123
  3294G12c H01C61094   8.673  12.175  10.172 -0.2382 -6.5218  2.5889
  3294G12c C02L61095   8.808  12.228  10.326 -2.3379 -0.8835  1.4301
  3294G12c H01D61096   8.718  12.253  10.380  0.4540  2.1377  4.8939
  3294G12c C01361097   9.044  12.494  11.044  0.2604 -0.8267  0.2341
  3294G12c H00061098   8.999  12.405  11.087 -0.4180  1.4610  4.5475
  3294G12c C01461099   9.140  12.554  11.120  0.1170  0.1373  1.2969
  3294G12c C00F61100   9.145  12.531  11.265  0.0557  0.3575  0.4920
  3294G12c C00H61101   9.382  12.583  11.265 -0.1766  1.2859 -0.5172
  3294G12c C00I61102   9.506  12.621  11.328  0.6462 -1.5972  0.7488
  3294G12c C00J61103   9.606  12.678  11.251  0.3033  1.5396 -1.8158
  3294G12c C00Z61104   9.366  12.683  10.853 -0.8437 -1.0001 -1.2536
  3294G12c C00Y61105   9.385  12.705  10.715  0.4294  2.5303  1.2951
  3294G12c H00661106   9.326  12.627  10.668  4.0526 -1.2738  2.7724
  3294G12c C00X61107   9.475  12.783  10.661 -0.3333 -2.0226 -0.2421
  3294G12c O00361108   9.496  12.782  10.521  0.0197 -0.5012 -0.5482
  3294G12c C01B61109   9.581  12.865  10.444 -1.6878  0.0511  0.6653
  3294G12c H00961110   9.550  12.969  10.432  1.8763  1.5176  3.0268
  3294G12c H00861111   9.635  12.857  10.350  1.1568  3.7834  1.8450
  3294G12c H00761112   9.683  12.853  10.480 -1.7790-10.2491 -1.0733
  3294G12c C00W61113   9.547  12.862  10.755  0.2363 -1.3698  1.7333
  3294G12c O00461114   9.632  12.969  10.698 -1.6814  1.1741 -0.0700
  3294G12c C01C61115   9.658  13.066  10.780 -0.5178 -1.0458  0.3606
  3294G12c H00A61116   9.604  13.160  10.783 -3.2793 -2.4475 -2.6927
  3294G12c C00P61117   9.689  13.023  10.913 -0.1608  1.6036  0.6090
  3294G12c C00O61118   9.756  13.112  11.002  0.2032  0.0982  0.1625
  3294G12c C01D61119   9.779  13.233  10.949 -0.5612 -0.7339 -0.5129
  3294G12c H00S61120   9.757  13.254  10.845  2.0823 -3.2825 -1.6659
  3294G12c C01E61121   9.832  13.342  11.037 -0.9128 -0.6110 -0.9384
  3294G12c O00861122   9.822  13.470  10.991 -0.0393  0.1443  0.6013
  3294G12c C01V61123   9.793  13.490  10.866 -0.1114  1.5082  1.1656
  3294G12c C01Z61124   9.907  13.470  10.779  1.4872  1.5239 -0.7647
  3294G12c H00R61125   9.956  13.563  10.807  0.6497  1.3278  1.4275
  3294G12c H00Q61126   9.951  13.370  10.773  1.3300  1.5001 -1.6538
  3294G12c O00961127   9.889  13.514  10.646 -0.1275 -0.5641  0.1917
  3294G12c H00P61128   9.848  13.442  10.600 -2.0203  0.8028 -0.2823
  3294G12c C01W61129   9.668  13.531  10.820 -0.7166  2.6515 -0.3367
  3294G12c H00O61130   9.661  13.561  10.717 -1.8201 -4.5911 -2.6608
  3294G12c C01X61131   9.536  13.545  10.879  3.0166 -2.7570  1.2023
  3294G12c H00N61132   9.576  13.630  10.935 -3.6650  2.6809 -1.5664
  3294G12c H00M61133   9.474  13.568  10.792  5.6337 -1.2572 -0.3513
  3294G12c C01Y61134   9.497  13.440  10.980 -0.2183 -1.4949  0.4836
  3294G12c C02D61135   9.471  13.304  10.938  0.2741  1.0569  0.7891
  3294G12c H01961136   9.454  13.271  10.837 -3.0560  6.1574 -0.5401
  3294G12c C02C61137   9.451  13.203  11.037  0.8260  0.3360  0.2229
  3294G12c H01A61138   9.441  13.106  10.991-10.1542  1.6358 -1.4843
  3294G12c C02B61139   9.451  13.242  11.172  1.9230 -1.2962  0.3913
  3294G12c O00E61140   9.480  13.142  11.268 -1.8352 -0.6792  1.0986
  3294G12c H01B61141   9.505  13.189  11.346  0.3291 -1.6781  1.0435
  3294G12c C02F61142   9.478  13.375  11.212 -1.1923  0.3814 -0.9631
  3294G12c O00F61143   9.514  13.408  11.337 -0.1695 -0.7471 -0.1753
  3294G12c C02G61144   9.404  13.357  11.428  0.3974  1.0016 -0.0024
  3294G12c H01761145   9.330  13.291  11.383  0.4840 -2.3228  4.3849
  3294G12c H01661146   9.321  13.418  11.461  0.8334 -0.0340  3.1870
  3294G12c H01561147   9.459  13.289  11.493 -0.9823 -4.8386 -4.5776
  3294G12c C02E61148   9.521  13.457  11.111 -0.6249 -0.7190 -0.8664
  3294G12c H01861149   9.567  13.549  11.144 -0.8736  0.9742 -4.9717
  3294G12c C01F61150   9.872  13.318  11.176  1.4763  0.4385 -0.1422
  3294G12c C01G61151   9.881  13.406  11.290 -0.5265 -0.1400 -1.4633
  3294G12c H00L61152   9.835  13.503  11.300  5.7185  2.7265  3.2336
  3294G12c C01H61153   9.878  13.360  11.415  0.0915 -0.0021 -0.7392
  3294G12c H00B61154   9.810  13.400  11.489 -2.2425 -2.9653 -1.1721
  3294G12c C01I61155   9.881  13.221  11.427 -0.1077 -1.2212 -0.2357
  3294G12c C01U61156   9.896  13.176  11.212 -0.6771  0.6050  1.6012
  3294G12c C00S61157   9.580  12.726  11.123 -1.6381  0.1415 -0.1599
  3294G12c C00K61158   9.666  12.792  11.296  0.5406 -0.9395  1.3198
  3294G12c C00N61159   9.816  13.076  11.139  0.7094 -1.1376  0.4551
  3294G12c C00061160   9.933  13.128  11.339 -0.6640  0.4216 -0.5676
  3294G12c C01J61161   9.798  13.145  11.513 -1.1826 -0.6301 -0.2189
  3294G12c C01K61162   9.724  13.178  11.636  0.1783  0.1261 -0.8771
  3294G12c C01P61163   9.740  13.300  11.732  1.4177 -2.2492  0.7640
  3294G12c C01Q61164   9.861  13.384  11.749 -0.4203 -0.4479 -0.7402
  3294G12c H00G61165   9.836  13.488  11.760  1.5262 -0.0023 -0.2682
  3294G12c C01R61166   9.984  13.314  11.749 -1.7304  0.4740 -0.3968
  3294G12c H00F61167  10.010  13.221  11.699  6.8957  2.1605  0.2857
  3294G12c C01S61168  10.115  13.385  11.782  1.2560  0.0928  0.8617
  3294G12c H00E61169  10.089  13.468  11.848  8.0856  2.4527  1.0004
  3294G12c H00D61170  10.195  13.317  11.809 -1.2123 -1.3569  5.0534
  3294G12c O00561171  10.154  13.436  11.660 -1.1535 -1.2699  1.6296
  3294G12c H00C61172  10.079  13.440  11.602  2.0944-11.0744 -4.4071
  3294G12c C01O61173   9.648  13.339  11.829  1.9769  1.2318  0.5944
  3294G12c H00H61174   9.661  13.419  11.901  2.7703 -1.8663  4.0486
  3294G12c C01N61175   9.540  13.240  11.851 -0.0885 -1.4613 -1.3124
  3294G12c O00661176   9.472  13.271  11.961 -0.9815  0.3320  0.5304
  3294G12c C01T61177   9.353  13.197  11.999  0.1011 -0.5531 -0.4942
  3294G12c H00K61178   9.380  13.096  12.031  1.9996 -0.1592 -0.8112
  3294G12c H00J61179   9.275  13.185  11.924 -1.8521 -1.7000  1.6541
  3294G12c H00I61180   9.281  13.234  12.072 -0.0689  0.5980 -1.2310
  3294G12c C01M61181   9.537  13.124  11.763 -0.1855 -0.7513  1.2933
  3294G12c C02061182   9.657  12.793  11.436 -1.6594 -0.4396 -1.4212
  3294G12c C02161183   9.602  12.690  11.521 -0.8078  0.8270  0.6031
  3294G12c C01L61184   9.629  13.080  11.673  0.2515 -0.2284 -1.2127
  3294G12c O00761185   9.436  13.038  11.814  0.6393  0.0161 -1.5469
  3294G12c C02261186   9.522  12.731  11.626  0.9404  0.4480  1.4345
  3294G12c C02361187   9.512  12.596  11.469  0.3370  0.6073 -0.1937
  3294G12c C00G61188   9.270  12.549  11.335  2.2676  0.9612 -0.8062
  3294G12c C00E61189   9.025  12.535  11.335 -0.6948 -1.8904  0.3876
  3294G12c O00A61190   8.897  12.566  11.271 -0.8262  1.6940  1.5771
  3294G12c C02461191   8.814  12.445  11.250  0.0177 -0.2384 -1.7579
  3294G12c H00V61192   8.867  12.360  11.292  4.8831  3.3444 -0.1212
  3294G12c H00U61193   8.812  12.416  11.145  1.4548 -1.7189 -1.3988
  3294G12c H00T61194   8.713  12.428  11.288 -0.6212  6.0023 -0.1571
  3304G12c C00D61195   0.241   9.102   7.492  0.9561 -1.1434  0.1662
  3304G12c O00B61196   0.333   9.159   7.409  1.0052  0.3013 -0.6991
  3304G12c C02561197   0.372   9.299   7.411  0.3150 -1.5118 -0.2787
  3304G12c C02661198   0.456   9.324   7.290  0.2861  1.0582  0.5303
  3304G12c H00Y61199   0.384   9.358   7.217  2.0959 -2.6662 -3.1691
  3304G12c H00X61200   0.492   9.227   7.255 -3.6455  1.0449 -3.8987
  3304G12c O00C61201   0.554   9.418   7.277  1.1204 -1.0949  1.2066
  3304G12c H00W61202   0.548   9.472   7.354 -2.6551  2.8681 -1.6290
  3304G12c C02761203   0.385   9.376   7.519  1.9440  0.0056  0.0741
  3304G12c O00D61204   0.357   9.310   7.635 -1.0850 -0.2874  0.0071
  3304G12c H00Z61205   0.436   9.294   7.686 -1.7431 -3.1826  0.1796
  3304G12c C02861206   0.437   9.516   7.523 -0.4138 -0.4365 -0.7419
  3304G12c C02961207   0.562   9.541   7.567 -0.9872  0.8999 -0.7346
  3304G12c H01061208   0.613   9.467   7.628  1.8681  2.8800 -0.6234
  3304G12c C02T61209   0.612   9.666   7.570 -0.4630  0.9531  0.3910
  3304G12c H01O61210   0.698   9.679   7.633 -1.4918  1.6455  1.6859
  3304G12c C02S61211   0.544   9.773   7.503 -1.3248 -0.3460  1.2366
  3304G12c O00J61212   0.630   9.869   7.466  0.7559 -0.1753 -0.1824
  3304G12c H01P61213   0.628   9.963   7.476  1.9556  0.0094 -1.6539
  3304G12c C02R61214   0.426   9.745   7.458  1.1577 -0.5756 -1.0910
  3304G12c O00I61215   0.377   9.845   7.380  0.2057  0.1704  0.6618
  3304G12c C02Q61216   0.269   9.837   7.274  0.4990  0.1196 -0.4201
  3304G12c H01N61217   0.161   9.834   7.285  0.2147  2.3215 -2.1766
  3304G12c H01R61218   0.272   9.745   7.215  2.3355 -1.4983  2.1028
  3304G12c H01Q61219   0.286   9.926   7.214  5.0032  0.7046  1.5481
  3304G12c C02A61220   0.366   9.614   7.448 -0.5586  0.5683  0.0070
  3304G12c H01161221   0.275   9.578   7.402  0.5119 -0.5193 -1.2725
  3304G12c C00C61222   0.123   9.176   7.521 -2.0859 -0.4339  0.1322
  3304G12c H01261223   0.113   9.281   7.500  0.9843  0.1350  1.2919
  3304G12c C00B61224   0.005   9.114   7.574 -0.3936  0.1692  0.8266
  3304G12c C00A61225  -0.132   9.152   7.565  1.2492  0.1985 -0.3215
  3304G12c C00961226  -0.175   9.280   7.590  1.5495  1.2340 -0.4021
  3304G12c C00861227  -0.127   9.409   7.596  0.4503 -0.1243 -0.1629
  3304G12c H01361228  -0.023   9.415   7.568  1.4137 -3.7764  2.2417
  3304G12c C00761229  -0.210   9.510   7.640 -0.2183  1.0555 -0.0445
  3304G12c H01461230  -0.188   9.610   7.605  4.1414 -1.9323 -6.6307
  3304G12c C00661231  -0.348   9.503   7.687 -0.3778 -0.4277  0.2614
  3304G12c C00561232  -0.392   9.373   7.674  1.2259 -0.9801  0.5520
  3304G12c C00461233  -0.507   9.328   7.745 -1.6472 -2.0780  1.7714
  3304G12c C00361234  -0.537   9.191   7.766  1.1192  0.0482  0.7955
  3304G12c C00261235  -0.632   9.156   7.872 -0.7700 -1.4895  0.2988
  3304G12c C00161236  -0.673   9.045   7.943  0.8410  1.7778 -0.0758
  3304G12c C00M61237  -0.597   8.928   7.976 -0.1456 -1.8232 -1.8631
  3304G12c C00L61238  -0.491   8.885   7.898  0.3518 -0.1377 -0.6697
  3304G12c C00R61239  -0.405   8.782   7.903 -1.6029  0.0709 -1.0256
  3304G12c C00Q61240  -0.377   8.723   8.037 -0.5016 -0.8496  0.6747
  3304G12c C00V61241  -0.239   8.673   8.045 -0.5027  0.5525 -0.9934
  3304G12c C00U61242  -0.130   8.698   7.949 -0.3948  0.8175  0.7211
  3304G12c C00T61243  -0.176   8.745   7.835  0.6519 -0.0884  0.4765
  3304G12c C01661244  -0.071   8.810   7.757 -0.5210 -1.0957 -1.1009
  3304G12c C01561245   0.067   8.776   7.775  1.7669 -1.8013  0.5792
  3304G12c C01061246   0.105   8.686   7.874  1.3202  0.0608  1.1017
  3304G12c C01161247   0.243   8.648   7.905 -0.2241 -0.9203  0.9419
  3304G12c H00561248   0.277   8.590   7.990 -1.8071 -0.2957  2.0376
  3304G12c C01261249   0.335   8.681   7.808 -0.2857  1.2069  0.7849
  3304G12c C01761250   0.472   8.633   7.812  0.8130 -0.8637 -1.1543
  3304G12c O00261251   0.555   8.688   7.900 -0.9406  0.1880  0.2539
  3304G12c H00461252   0.640   8.648   7.887 -0.5034  1.2533 -0.2248
  3304G12c C01861253   0.514   8.545   7.725 -0.8457 -1.7645 -1.2458
  3304G12c O00161254   0.426   8.487   7.647 -0.1609 -1.3019 -2.1016
  3304G12c H00361255   0.352   8.511   7.700  1.9442  0.7267  0.0244
  3304G12c C01961256   0.671   8.481   7.731  1.9677 -1.6517 -0.2713
  3304G12c H00261257   0.675   8.440   7.832  0.7031  1.4881  1.1190
  3304G12c H00161258   0.647   8.395   7.669 -1.2317  0.2366 -1.8028
  3304G12c O00061259   0.778   8.567   7.736  0.3533 -0.0191 -0.7643
  3304G12c C01A61260   0.809   8.650   7.633  0.3425  0.9695 -0.2223
  3304G12c C02K61261   0.922   8.717   7.628  0.2806  0.2388 -1.8559
  3304G12c O00G61262   1.028   8.695   7.713  0.3676 -1.1556 -2.0058
  3304G12c C02M61263   1.070   8.573   7.722 -0.6670 -1.8678  0.8281
  3304G12c H01G61264   1.142   8.593   7.802 -3.9402 -0.1890  3.4647
  3304G12c H01F61265   1.105   8.537   7.625 -2.3433  7.7936 -3.9180
  3304G12c H01E61266   0.998   8.508   7.773  0.1743 -5.6173 -2.4451
  3304G12c C02J61267   0.965   8.804   7.514  0.1859  0.3826 -2.3185
  3304G12c H01H61268   1.053   8.866   7.502  0.8296 -0.1719 -0.5716
  3304G12c C02I61269   0.870   8.797   7.399  0.1865 -0.6503 -0.3178
  3304G12c C02N61270   0.895   8.877   7.278 -1.7910 -1.2164 -1.7733
  3304G12c H01M61271   0.996   8.878   7.242 -0.9503  0.3146  0.4970
  3304G12c C02O61272   0.802   8.942   7.224 -1.6412 -1.5198 -0.4433
  3304G12c H01L61273   0.695   8.938   7.241 -1.1168 -1.5679  3.3421
  3304G12c C02P61274   0.838   9.052   7.124 -0.1481  1.1404 -1.6651
  3304G12c H01K61275   0.945   9.074   7.136  0.9282 -4.3440 -0.0449
  3304G12c H01J61276   0.812   8.993   7.037 -2.3256 -1.9835  0.9899
  3304G12c O00H61277   0.742   9.167   7.118  1.4304  0.0771  0.7378
  3304G12c H01I61278   0.773   9.218   7.191  3.6604 -5.3076  3.9117
  3304G12c C02H61279   0.749   8.720   7.400 -1.6176 -0.0159  0.4935
  3304G12c H01C61280   0.683   8.731   7.315 -2.2392  5.3220  1.5150
  3304G12c C02L61281   0.725   8.632   7.517 -0.3622  0.1392  2.5625
  3304G12c H01D61282   0.659   8.556   7.478 -0.5269  2.8754 -3.1334
  3304G12c C01361283   0.309   8.786   7.719  1.3282  2.1838  1.6378
  3304G12c H00061284   0.377   8.859   7.678 -0.1150  1.1315 -2.9350
  3304G12c C01461285   0.170   8.831   7.695  1.2663 -1.0566  0.6340
  3304G12c C00F61286   0.140   8.933   7.606  0.5868  1.8679 -0.5655
  3304G12c C00H61287  -0.102   8.912   7.669  0.6200 -1.3022  0.7020
  3304G12c C00I61288  -0.226   8.964   7.671  1.9247  1.6243  1.5888
  3304G12c C00J61289  -0.323   8.896   7.737 -1.6179 -0.3891 -0.8793
  3304G12c C00Z61290   0.005   8.651   7.961  0.0398 -0.5977 -0.0632
  3304G12c C00Y61291   0.027   8.570   8.076 -0.0101  1.2307 -0.9241
  3304G12c H00661292   0.120   8.517   8.088 -1.9277 -1.1754  5.3287
  3304G12c C00X61293  -0.070   8.535   8.175  0.7948  0.6520  1.2323
  3304G12c O00361294  -0.050   8.433   8.252  1.1212 -1.0405 -0.1315
  3304G12c C01B61295  -0.032   8.488   8.400 -0.0529  0.5331 -0.2765
  3304G12c H00961296  -0.092   8.576   8.422 -6.0334 -3.1827 -0.4478
  3304G12c H00861297   0.074   8.503   8.379 -0.2764  3.3491  0.4880
  3304G12c H00761298  -0.035   8.405   8.471  4.7726 -3.1653 -3.9891
  3304G12c C00W61299  -0.195   8.606   8.163  0.8091  0.7026  2.3291
  3304G12c O00461300  -0.277   8.574   8.264  0.5962  0.7633  0.2913
  3304G12c C01C61301  -0.387   8.652   8.274 -1.8887  0.2667  2.2359
  3304G12c H00A61302  -0.463   8.616   8.342 -4.3276 -4.9239 -2.7889
  3304G12c C00P61303  -0.432   8.744   8.165 -1.6767  1.2065 -1.3624
  3304G12c C00O61304  -0.519   8.850   8.210  1.0021  0.5318  2.1834
  3304G12c C01D61305  -0.502   8.911   8.346 -1.6530  0.3224 -0.0298
  3304G12c H00S61306  -0.421   8.874   8.407 -2.2169 -0.9322 -0.0265
  3304G12c C01E61307  -0.553   9.046   8.370  0.9308  1.1160  1.0755
  3304G12c O00861308  -0.524   9.091   8.497 -0.4627 -0.3054  1.0452
  3304G12c C01V61309  -0.620   9.126   8.592  1.1503 -0.8359  0.2897
  3304G12c C01Z61310  -0.627   9.260   8.672  0.2553 -0.2292  0.7865
  3304G12c H00R61311  -0.551   9.335   8.652  1.8532 -1.9089  0.3875
  3304G12c H00Q61312  -0.732   9.281   8.690  0.4799  0.7825  0.9336
  3304G12c O00961313  -0.572   9.194   8.789  0.4114 -1.9140 -1.1190
  3304G12c H00P61314  -0.631   9.121   8.799 -2.1138  0.4899  2.9957
  3304G12c C01W61315  -0.708   9.021   8.612  0.5545 -0.4114 -0.8196
  3304G12c H00O61316  -0.676   8.933   8.559  0.4890 -0.9896  0.0869
  3304G12c C01X61317  -0.859   9.004   8.641  1.3822 -0.3559 -1.1902
  3304G12c H00N61318  -0.918   9.086   8.602  4.5605  2.5570 -0.1206
  3304G12c H00M61319  -0.925   8.931   8.595  1.2146  1.7313 -4.4052
  3304G12c C01Y61320  -0.852   9.009   8.789 -1.4968 -1.5863 -0.3267
  3304G12c C02D61321  -0.801   8.920   8.890  1.1672 -0.4790  0.1338
  3304G12c H01961322  -0.760   8.824   8.861 -2.5910 -1.2575 -3.0406
  3304G12c C02C61323  -0.785   8.952   9.022  1.6870  0.3750 -0.1777
  3304G12c H01A61324  -0.732   8.893   9.095 -3.9060 -2.3244  1.9955
  3304G12c C02B61325  -0.832   9.069   9.060 -2.3803 -1.3165 -0.5077
  3304G12c O00E61326  -0.794   9.114   9.187  0.9302  1.0186  0.0410
  3304G12c H01B61327  -0.788   9.209   9.189  1.5363  1.0246 -1.3250
  3304G12c C02F61328  -0.874   9.161   8.965 -1.0056 -0.3449 -0.6104
  3304G12c O00F61329  -0.931   9.277   9.005  1.0028 -0.9982 -0.1544
  3304G12c C02G61330  -0.837   9.374   8.994 -1.1819 -0.2219 -0.2034
  3304G12c H01761331  -0.733   9.344   9.005 -2.0178 -1.5357  6.0134
  3304G12c H01661332  -0.854   9.474   9.035 -2.7495  1.3056 -4.2767
  3304G12c H01561333  -0.840   9.405   8.889  0.9849 -4.1710 -1.5451
  3304G12c C02E61334  -0.896   9.125   8.830  0.4444  0.4948 -1.1271
  3304G12c H01861335  -0.954   9.192   8.768  6.8981  4.3350 -3.5071
  3304G12c C01F61336  -0.649   9.105   8.288 -0.3791  2.0103  1.1210
  3304G12c C01G61337  -0.695   9.240   8.303  1.2847 -1.5066  0.8969
  3304G12c H00L61338  -0.627   9.311   8.348  0.4236  2.1566 -3.2564
  3304G12c C01H61339  -0.736   9.317   8.184  0.3895 -0.2001 -0.1752
  3304G12c H00B61340  -0.690   9.413   8.168 -0.5619  0.2615 -0.1853
  3304G12c C01I61341  -0.742   9.239   8.065 -0.6055  0.1293 -0.1940
  3304G12c C01U61342  -0.669   9.041   8.172  0.7158 -2.5608 -2.6934
  3304G12c C00S61343  -0.305   8.773   7.810  0.0484 -0.7035 -1.8218
  3304G12c C00K61344  -0.438   8.966   7.795 -1.0075  1.0675  0.0832
  3304G12c C00N61345  -0.606   8.927   8.124  0.0589 -0.9603  1.5564
  3304G12c C00061346  -0.740   9.101   8.064  0.1693 -0.2626 -0.0767
  3304G12c C01J61347  -0.690   9.276   7.935 -0.5191 -0.8776  0.4378
  3304G12c C01K61348  -0.700   9.402   7.871  0.0275 -1.0303 -1.6933
  3304G12c C01P61349  -0.760   9.527   7.931 -0.7473 -0.4757  0.7582
  3304G12c C01Q61350  -0.868   9.527   8.016  0.4311  1.3387  0.2818
  3304G12c H00G61351  -0.966   9.499   7.979  1.0304  2.6738 -2.4531
  3304G12c C01R61352  -0.876   9.606   8.126  1.0226 -2.3725  0.6931
  3304G12c H00F61353  -0.795   9.672   8.152  2.7995 -1.9639 -5.1694
  3304G12c C01S61354  -1.011   9.641   8.200  0.3565 -0.9103  0.2500
  3304G12c H00E61355  -1.040   9.745   8.189  0.9239 -0.0055  5.8989
  3304G12c H00D61356  -1.082   9.562   8.172  0.5896 -2.1328  2.9360
  3304G12c O00561357  -0.984   9.634   8.338  1.2741  0.0260 -0.6545
  3304G12c H00C61358  -0.901   9.661   8.373  0.2980  2.2259  0.1033
  3304G12c C01O61359  -0.747   9.660   7.874 -0.8310 -0.3314  0.2933
  3304G12c H00H61360  -0.790   9.752   7.910 -0.1139  0.2041 -0.2296
  3304G12c C01N61361  -0.662   9.675   7.771  1.1973 -0.4608  1.6915
  3304G12c O00661362  -0.650   9.793   7.684  0.2366  1.5746 -0.1177
  3304G12c C01T61363  -0.707   9.919   7.729  0.1465  0.7911 -0.9308
  3304G12c H00K61364  -0.658  10.010   7.693  0.8534  1.0970  0.7556
  3304G12c H00J61365  -0.721   9.940   7.835 -2.4124 -6.8069  0.4904
  3304G12c H00I61366  -0.797   9.941   7.672 -2.9775 -1.6238  2.8557
  3304G12c C01M61367  -0.575   9.567   7.724  1.1386 -0.4496  0.1968
  3304G12c C02061368  -0.441   9.098   7.741 -1.0073 -1.2462  0.1179
  3304G12c C02161369  -0.349   9.147   7.642 -0.1686 -1.2367  0.2203
  3304G12c C01L61370  -0.601   9.431   7.773  1.2340 -1.9474 -0.5012
  3304G12c O00761371  -0.445   9.597   7.711  0.3989 -0.3444 -0.3861
  3304G12c C02261372  -0.310   9.268   7.635 -0.1936  0.3040  0.0774
  3304G12c C02361373  -0.239   9.078   7.604  0.9564 -0.2834 -0.2159
  3304G12c C00G61374   0.013   8.982   7.618  0.2105  0.1054  0.1155
  3304G12c C00E61375   0.243   8.963   7.519 -0.2642 -0.7519 -1.3024
  3304G12c O00A61376   0.314   8.870   7.430 -0.6282 -0.9017 -0.5309
  3304G12c C02461377   0.261   8.741   7.375  0.5588 -1.1983 -0.7508
  3304G12c H00V61378   0.179   8.746   7.304 -2.1775  2.1647  2.4657
  3304G12c H00U61379   0.349   8.705   7.323  0.9584  0.0185 -0.9345
  3304G12c H00T61380   0.243   8.667   7.453 -1.7634  2.7537  2.6916
  3314G12c C00D61381   3.897  10.846   5.978 -1.1394 -0.7539 -0.4838
  3314G12c O00B61382   3.956  10.910   5.870  0.3717  0.5188  0.8818
  3314G12c C02561383   4.032  10.851   5.767 -0.1820 -0.5829 -0.1225
  3314G12c C02661384   4.159  10.782   5.796 -2.1881 -0.0281 -0.7208
  3314G12c H00Y61385   4.224  10.811   5.713  0.6771 -3.1733  0.3190
  3314G12c H00X61386   4.146  10.674   5.796 -2.2648 -0.0396  1.8660
  3314G12c O00C61387   4.180  10.824   5.931 -0.7493  0.6264  0.9173
  3314G12c H00W61388   4.106  10.883   5.932 -1.3279 -0.0745  2.0378
  3314G12c C02761389   3.993  10.842   5.629 -0.2508 -0.5632 -1.4599
  3314G12c O00D61390   3.882  10.906   5.601  1.3170  1.5913  2.7172
  3314G12c H00Z61391   3.809  10.868   5.647 -1.8021  4.9023  0.7510
  3314G12c C02861392   4.077  10.782   5.529 -1.9019  1.2442 -0.5295
  3314G12c C02961393   4.099  10.858   5.400  0.8224  2.2164  0.5256
  3314G12c H01061394   4.087  10.965   5.408 -5.7294  1.7196 -0.1211
  3314G12c C02T61395   4.164  10.803   5.289  0.3742  0.8055 -1.4584
  3314G12c H01O61396   4.176  10.874   5.208  5.7980  1.2546 -0.4905
  3314G12c C02S61397   4.193  10.668   5.297 -0.6595  0.3708 -1.1982
  3314G12c O00J61398   4.229  10.604   5.181  0.5704  0.4856  0.2018
  3314G12c H01P61399   4.293  10.623   5.114 -0.6591 -2.5977 -1.9474
  3314G12c C02R61400   4.166  10.582   5.415  0.6786  0.2137  1.3938
  3314G12c O00I61401   4.165  10.447   5.416  0.3492  0.2909  0.8311
  3314G12c C02Q61402   4.278  10.401   5.359 -2.3341  0.7907 -0.2132
  3314G12c H01N61403   4.272  10.389   5.251  1.8174 -0.7262 -0.3691
  3314G12c H01R61404   4.272  10.294   5.379 -1.7298 -0.9407 -7.7587
  3314G12c H01Q61405   4.372  10.456   5.364 -4.8362  5.6291 -2.6884
  3314G12c C02A61406   4.113  10.641   5.525  1.5389  0.3667  0.0280
  3314G12c H01161407   4.072  10.585   5.607 -1.1866 -0.2902 -1.7021
  3314G12c C00C61408   3.840  10.942   6.051 -0.4602  0.0447 -0.8754
  3314G12c H01261409   3.863  11.044   6.022  0.2432  1.0554  2.9054
  3314G12c C00B61410   3.762  10.908   6.152 -0.3271  0.4413 -0.0294
  3314G12c C00A61411   3.710  11.011   6.234 -0.6059 -0.8215  0.4597
  3314G12c C00961412   3.793  11.131   6.286 -1.5026  0.8678 -2.0154
  3314G12c C00861413   3.933  11.149   6.247  1.3912 -1.1199 -0.5377
  3314G12c H01361414   3.968  11.171   6.148 -0.3042  0.5131 -0.7944
  3314G12c C00761415   4.019  11.180   6.356  0.3134  0.0536 -0.2792
  3314G12c H01461416   4.116  11.211   6.321  2.8523 -4.0876  2.5590
  3314G12c C00661417   3.969  11.190   6.493  1.0545  0.9808  0.2226
  3314G12c C00561418   3.844  11.139   6.523 -1.3627  1.1378 -0.2754
  3314G12c C00461419   3.796  11.127   6.657  1.2659 -2.2704  1.1121
  3314G12c C00361420   3.675  11.065   6.676  0.4885  1.1238  0.1298
  3314G12c C00261421   3.657  11.027   6.818 -0.5638 -1.6621 -0.7871
  3314G12c C00161422   3.551  10.959   6.886 -0.4980  0.2981 -0.8747
  3314G12c C00M61423   3.502  10.833   6.842  0.6451  0.3994  0.6319
  3314G12c C00L61424   3.491  10.809   6.696 -1.1104  0.4420  1.2131
  3314G12c C00R61425   3.484  10.667   6.639  0.2625 -0.9917 -0.5010
  3314G12c C00Q61426   3.456  10.547   6.717 -0.4548 -0.2136  0.4107
  3314G12c C00V61427   3.459  10.438   6.617 -1.3823  0.6051  1.4000
  3314G12c C00U61428   3.506  10.450   6.483 -0.1787 -0.6349  1.2020
  3314G12c C00T61429   3.510  10.572   6.423  0.4980  1.8519  0.9684
  3314G12c C01661430   3.601  10.604   6.323 -0.4362 -1.5210  1.0926
  3314G12c C01561431   3.639  10.517   6.229  1.6016  2.5304  0.1545
  3314G12c C01061432   3.605  10.386   6.274  0.3426  0.4309 -0.3743
  3314G12c C01161433   3.622  10.282   6.177  0.5346 -1.0813 -0.7244
  3314G12c H00561434   3.599  10.178   6.195  3.9563 -1.3435  2.7203
  3314G12c C01261435   3.667  10.316   6.041  0.8286  0.9181 -0.2476
  3314G12c C01761436   3.630  10.225   5.936 -0.7623 -1.1597  0.8630
  3314G12c O00261437   3.676  10.096   5.966 -0.3682  0.6361 -0.0198
  3314G12c H00461438   3.658  10.026   5.905 -3.8846 -4.1111  5.9349
  3314G12c C01861439   3.580  10.270   5.825  0.2150 -1.2260 -0.0819
  3314G12c O00161440   3.571  10.407   5.782 -0.4534 -0.1127 -0.1133
  3314G12c H00361441   3.479  10.425   5.779 -1.0442 -0.0995  7.7132
  3314G12c C01961442   3.559  10.185   5.704  1.1447  0.8315 -1.3367
  3314G12c H00261443   3.538  10.252   5.621 -3.1479 -3.9257 -4.3795
  3314G12c H00161444   3.647  10.131   5.668 -1.2612 -1.5275 -3.9471
  3314G12c O00061445   3.436  10.089   5.738 -0.5416 -0.0066 -0.4294
  3314G12c C01A61446   3.312  10.140   5.734 -0.8794 -0.3614  0.5734
  3314G12c C02K61447   3.231  10.134   5.614 -1.7669 -0.2778 -0.6982
  3314G12c O00G61448   3.281  10.057   5.509 -0.2956 -0.9401 -0.4037
  3314G12c C02M61449   3.335  10.127   5.396  0.9666 -0.0139 -0.6884
  3314G12c H01G61450   3.442  10.142   5.382  0.0063  5.9845 -3.1433
  3314G12c H01F61451   3.319  10.231   5.425 -0.0457  0.7857 -3.9516
  3314G12c H01E61452   3.286  10.097   5.304 -0.6628  0.0557  0.1413
  3314G12c C02J61453   3.113  10.222   5.608 -0.7554 -0.3065 -0.7605
  3314G12c H01H61454   3.044  10.192   5.530 -7.1818  6.0676  1.8623
  3314G12c C02I61455   3.080  10.301   5.717  0.2678  0.1408  0.3880
  3314G12c C02N61456   2.951  10.393   5.725  0.5165 -0.0684  2.2855
  3314G12c H01M61457   2.977  10.496   5.746  2.2781  0.3464 -1.5011
  3314G12c C02O61458   2.823  10.356   5.710  0.3516 -0.3242  0.0341
  3314G12c H01L61459   2.822  10.256   5.671  3.2898 -0.1846 -0.4615
  3314G12c C02P61460   2.694  10.426   5.739  0.1199 -0.5770  0.3367
  3314G12c H01K61461   2.738  10.524   5.758  5.4784 -3.6507  5.8436
  3314G12c H01J61462   2.636  10.455   5.651 -2.4886 -1.4990  1.7013
  3314G12c O00H61463   2.652  10.362   5.864  1.3834  0.2657 -1.0092
  3314G12c H01I61464   2.721  10.392   5.921 -1.0920 -4.8647  5.3827
  3314G12c C02H61465   3.158  10.282   5.831 -0.7917  0.9624  1.1231
  3314G12c H01C61466   3.134  10.340   5.918 -1.9342  4.4975 -1.4171
  3314G12c C02L61467   3.277  10.221   5.838 -0.1089  1.1839 -0.2219
  3314G12c H01D61468   3.337  10.238   5.927 -3.7734  1.4258  2.3022
  3314G12c C01361469   3.733  10.438   6.026  1.2651  2.0051  0.3261
  3314G12c H00061470   3.779  10.461   5.931 -1.3259  3.8285 -0.5298
  3314G12c C01461471   3.718  10.543   6.118 -1.3273  0.2602  0.1429
  3314G12c C00F61472   3.765  10.674   6.084 -0.3030 -0.7501  0.7038
  3314G12c C00H61473   3.639  10.739   6.289 -0.2117  0.3460 -1.5664
  3314G12c C00I61474   3.573  10.849   6.362 -0.1939 -0.3069  0.1049
  3314G12c C00J61475   3.500  10.810   6.473 -0.9634 -0.4548  0.4661
  3314G12c C00Z61476   3.540  10.347   6.390 -0.7554  0.7217 -0.0669
  3314G12c C00Y61477   3.504  10.218   6.430  1.3587 -0.4481  0.2367
  3314G12c H00661478   3.552  10.134   6.383  8.8201  1.2843  3.9035
  3314G12c C00X61479   3.448  10.203   6.561 -0.0421 -0.4586  1.5046
  3314G12c O00361480   3.451  10.084   6.603  0.4807 -0.6927 -0.9055
  3314G12c C01B61481   3.330  10.021   6.588 -1.7465  0.3720 -1.1515
  3314G12c H00961482   3.341   9.934   6.653  0.1351 -0.3480 -2.3921
  3314G12c H00861483   3.258  10.055   6.663 -0.8461 -0.5567  0.1509
  3314G12c H00761484   3.302   9.972   6.494 -4.3031  0.3881 -0.4359
  3314G12c C00W61485   3.427  10.303   6.652 -0.8110  1.3377 -0.1371
  3314G12c O00461486   3.386  10.279   6.780 -0.5023 -0.9991  1.1507
  3314G12c C01C61487   3.394  10.377   6.878 -0.8207  0.9335  0.8376
  3314G12c H00A61488   3.338  10.373   6.970 -0.8660 -6.2345  0.7407
  3314G12c C00P61489   3.450  10.511   6.840  0.4453  0.0518 -0.9936
  3314G12c C00O61490   3.526  10.584   6.946  0.3753  0.0868  0.1513
  3314G12c C01D61491   3.627  10.523   7.019  1.7859  0.3763 -0.5549
  3314G12c H00S61492   3.633  10.419   7.047 -5.2539 -0.0203  0.3160
  3314G12c C01E61493   3.687  10.596   7.123 -0.5828  1.0848 -0.2733
  3314G12c O00861494   3.776  10.524   7.210  1.3858  0.1767  0.7363
  3314G12c C01V61495   3.748  10.413   7.275  0.3398 -0.4661 -0.8981
  3314G12c C01Z61496   3.792  10.278   7.221 -1.0603  0.1682  0.6395
  3314G12c H00R61497   3.853  10.207   7.276  8.0018  1.2751 -6.7422
  3314G12c H00Q61498   3.696  10.231   7.199 -2.7292  5.6764 -5.5517
  3314G12c O00961499   3.843  10.299   7.093 -2.0824 -0.7705 -0.3633
  3314G12c H00P61500   3.838  10.393   7.103  5.5055 -0.3754  3.2865
  3314G12c C01W61501   3.708  10.436   7.402  1.8782  2.3645 -2.2906
  3314G12c H00O61502   3.687  10.541   7.415-10.2687  0.2078  3.3581
  3314G12c C01X61503   3.667  10.350   7.515 -0.8070  0.0604  1.3217
  3314G12c H00N61504   3.558  10.344   7.519 -1.2597  5.8255  1.5152
  3314G12c H00M61505   3.720  10.254   7.507  2.5873  2.0464 -1.5302
  3314G12c C01Y61506   3.714  10.408   7.636  0.9865 -0.1299  1.4237
  3314G12c C02D61507   3.837  10.386   7.683  0.5047  0.0042 -0.1414
  3314G12c H01961508   3.900  10.345   7.606 -3.1643 -1.7939 -2.3150
  3314G12c C02C61509   3.877  10.453   7.811 -0.5293  1.3805 -0.1300
  3314G12c H01A61510   3.959  10.404   7.861 -1.2958  2.4759  2.3105
  3314G12c C02B61511   3.788  10.549   7.859  2.3862  0.5023 -0.4794
  3314G12c O00E61512   3.831  10.610   7.981 -1.5271 -1.3224 -0.1983
  3314G12c H01B61513   3.786  10.686   8.015  0.0462 -0.9007  0.9697
  3314G12c C02F61514   3.668  10.587   7.804  1.3253  1.2696 -1.9232
  3314G12c O00F61515   3.582  10.673   7.830  0.7540 -0.3089 -1.1004
  3314G12c C02G61516   3.602  10.770   7.929  0.7203  0.1633 -0.3669
  3314G12c H01761517   3.624  10.755   8.035 -5.1830 -0.8748  0.8774
  3314G12c H01661518   3.505  10.812   7.955  0.1062  1.6876 -4.8265
  3314G12c H01561519   3.621  10.868   7.887 -7.9172  1.4164 -2.2109
  3314G12c C02E61520   3.631  10.496   7.713 -0.5573 -0.0555  1.1472
  3314G12c H01861521   3.530  10.514   7.680 -0.0633 -3.1977 -2.4720
  3314G12c C01F61522   3.685  10.735   7.120 -0.3278  0.6716  0.3856
  3314G12c C01G61523   3.788  10.812   7.194  0.6141 -1.7191 -0.3855
  3314G12c H00L61524   3.855  10.773   7.270 -0.4646  1.1828  2.1665
  3314G12c C01H61525   3.816  10.929   7.116 -0.0869 -0.1378 -0.4335
  3314G12c H00B61526   3.922  10.948   7.112  1.2383 -6.5742 -1.3444
  3314G12c C01I61527   3.737  10.993   7.038  1.2772  0.8158 -0.6394
  3314G12c C01U61528   3.595  10.802   7.038  0.4754 -0.9572  0.9626
  3314G12c C00S61529   3.488  10.674   6.511 -1.0711 -1.5362  0.6848
  3314G12c C00K61530   3.526  10.893   6.587 -0.6343 -1.1119 -1.7422
  3314G12c C00N61531   3.533  10.729   6.936  0.4161  1.7847 -2.8088
  3314G12c C00061532   3.606  10.934   7.011  1.3869  0.4423  0.4297
  3314G12c C01J61533   3.750  11.069   6.923  0.6766  1.1095  1.3146
  3314G12c C01K61534   3.861  11.148   6.897 -0.9302 -0.9790  1.5052
  3314G12c C01P61535   3.956  11.214   6.981 -1.4268 -0.1573  0.3287
  3314G12c C01Q61536   3.934  11.239   7.124  0.1616 -0.7214 -0.1147
  3314G12c H00G61537   3.835  11.260   7.160  0.6261 -0.9223  1.3124
  3314G12c C01R61538   4.018  11.228   7.224 -0.3445  2.3127  0.9909
  3314G12c H00F61539   4.115  11.236   7.178  2.1826 -8.2994  3.1771
  3314G12c C01S61540   3.989  11.292   7.375 -1.6681  1.2852  2.2878
  3314G12c H00E61541   3.992  11.400   7.384  4.0048  2.1671 -5.3029
  3314G12c H00D61542   3.890  11.248   7.390 -1.5774  0.8011  1.4616
  3314G12c O00561543   4.082  11.242   7.464  1.3158 -0.6673  1.2343
  3314G12c H00C61544   4.101  11.174   7.401 -2.7621  0.7240 -1.7074
  3314G12c C01O61545   4.081  11.272   6.924  0.6158 -0.1890 -0.4978
  3314G12c H00H61546   4.137  11.348   6.976  0.1657  2.9106 -4.3325
  3314G12c C01N61547   4.106  11.268   6.796 -1.5862  0.9121  1.2633
  3314G12c O00661548   4.249  11.312   6.786 -0.7620  1.6945  0.0818
  3314G12c C01T61549   4.295  11.365   6.670  0.0312 -1.4033 -0.7442
  3314G12c H00K61550   4.267  11.471   6.669 -0.9796 -1.6528 -3.6400
  3314G12c H00J61551   4.262  11.315   6.579  0.2279 -3.8013  0.4810
  3314G12c H00I61552   4.402  11.347   6.659  0.5930 -1.4949  4.0868
  3314G12c C01M61553   4.010  11.221   6.715 -0.5256  0.1502 -1.4046
  3314G12c C02061554   3.595  11.017   6.566  0.8358 -1.9234 -1.7248
  3314G12c C02161555   3.620  11.071   6.445 -1.1334  1.4057  0.3131
  3314G12c C01L61556   3.888  11.161   6.761  1.6019  0.8116 -1.5562
  3314G12c O00761557   4.051  11.226   6.585  0.9607 -0.0275  1.1164
  3314G12c C02261558   3.745  11.139   6.420 -0.6490  0.0524 -0.5766
  3314G12c C02361559   3.629  10.976   6.345 -0.1201  0.6690  0.8331
  3314G12c C00G61560   3.731  10.776   6.181 -0.6197 -0.0764 -0.6631
  3314G12c C00E61561   3.888  10.709   6.000  0.9515  0.9730 -0.8483
  3314G12c O00A61562   3.947  10.607   5.926  1.0166  0.4683  0.1391
  3314G12c C02461563   4.066  10.536   5.989 -0.4696  1.5994 -1.0503
  3314G12c H00V61564   4.104  10.595   6.072 -2.2054  0.6992  0.4335
  3314G12c H00U61565   4.039  10.441   6.035  2.3269  0.2294 -2.1432
  3314G12c H00T61566   4.134  10.519   5.905 -0.2872 -4.6278  0.1230
  3324G12c C00D61567   2.361  10.393   1.032 -0.0117  1.0831 -0.9281
  3324G12c O00B61568   2.376  10.276   1.110  0.8937 -0.7674 -0.2599
  3324G12c C02561569   2.485  10.282   1.197  0.3630 -1.4047 -0.8733
  3324G12c C02661570   2.434  10.358   1.315  0.0839  1.1149 -1.0389
  3324G12c H00Y61571   2.515  10.403   1.372 -3.0035 -5.2354  9.8152
  3324G12c H00X61572   2.367  10.443   1.329  1.5142  2.5408 -2.6298
  3324G12c O00C61573   2.379  10.260   1.370 -0.8136 -0.3099  0.2839
  3324G12c H00W61574   2.312  10.234   1.309 -1.4602 -0.5653  1.0889
  3324G12c C02761575   2.603  10.240   1.149  0.9967  0.6786  1.5237
  3324G12c O00D61576   2.589  10.182   1.038  0.1539 -1.4382 -0.1715
  3324G12c H00Z61577   2.513  10.223   0.999  0.6766 -0.1706  0.0987
  3324G12c C02861578   2.732  10.259   1.227  1.1340  0.7552  0.0313
  3324G12c C02961579   2.845  10.258   1.146 -0.5360  1.2303 -0.4046
  3324G12c H01061580   2.827  10.229   1.043  6.8069 -1.7889 -1.0832
  3324G12c C02T61581   2.970  10.256   1.212  0.2822  0.1473 -0.1402
  3324G12c H01O61582   3.075  10.250   1.188  0.6015 -1.6237  1.5926
  3324G12c C02S61583   2.981  10.233   1.348 -0.5307 -0.5925 -0.1278
  3324G12c O00J61584   3.104  10.194   1.402  1.7628 -0.0090 -0.1697
  3324G12c H01P61585   3.118  10.116   1.351 -0.8528  0.4121 -1.6182
  3324G12c C02R61586   2.871  10.241   1.434 -0.3572  0.3524  2.8445
  3324G12c O00I61587   2.883  10.239   1.576  0.1818  1.3824  0.0399
  3324G12c C02Q61588   2.807  10.340   1.651  0.7035  0.2081 -0.7237
  3324G12c H01N61589   2.815  10.345   1.760 -0.5692 -0.3560 -0.5813
  3324G12c H01R61590   2.699  10.333   1.639  1.1031 -5.7033 -2.5355
  3324G12c H01Q61591   2.839  10.437   1.613 -0.0544  0.2837 -1.1937
  3324G12c C02A61592   2.752  10.281   1.366 -0.0327  0.2466 -0.5996
  3324G12c H01161593   2.664  10.303   1.425  0.9195 -3.3599  2.4165
  3324G12c C00C61594   2.470  10.477   1.005  1.0759 -1.0331  0.6841
  3324G12c H01261595   2.574  10.474   1.035  2.4759 -6.9548 -3.6369
  3324G12c C00B61596   2.453  10.601   0.935 -1.2115  0.0204 -0.6345
  3324G12c C00A61597   2.546  10.715   0.948 -0.1355 -0.2686 -0.2352
  3324G12c C00961598   2.608  10.757   1.076 -0.0671  0.6797  0.6315
  3324G12c C00861599   2.617  10.707   1.221 -2.3266 -0.9520 -0.0184
  3324G12c H01361600   2.604  10.609   1.264  1.7066 -1.2881  0.6596
  3324G12c C00761601   2.688  10.809   1.293  1.2194 -0.3790  0.5489
  3324G12c H01461602   2.700  10.801   1.400 -4.8967  2.0323  1.6290
  3324G12c C00661603   2.747  10.931   1.253  1.3988  1.0693  0.1891
  3324G12c C00561604   2.685  10.978   1.139 -0.2582  0.7276  0.5525
  3324G12c C00461605   2.675  11.112   1.116 -1.4734 -0.7450 -0.2539
  3324G12c C00361606   2.595  11.157   1.004 -1.1839 -0.2076 -1.5790
  3324G12c C00261607   2.574  11.302   0.983  1.8538 -1.0130 -0.6686
  3324G12c C00161608   2.501  11.373   0.895  1.1388  0.9341 -0.6859
  3324G12c C00M61609   2.356  11.322   0.844 -1.8127  0.4552  0.0338
  3324G12c C00L61610   2.323  11.190   0.792 -0.0844  0.2608 -1.2441
  3324G12c C00R61611   2.196  11.159   0.738 -0.1681  0.7698  0.0312
  3324G12c C00Q61612   2.063  11.214   0.734  0.5856 -0.6058  1.0064
  3324G12c C00V61613   1.974  11.108   0.734  0.8421  0.4202  1.3710
  3324G12c C00U61614   2.006  10.971   0.742  0.4594  0.1197 -0.7235
  3324G12c C00T61615   2.133  10.939   0.765  0.7186  1.3051  0.3756
  3324G12c C01661616   2.168  10.802   0.782  0.8640  0.4503 -0.5015
  3324G12c C01561617   2.066  10.704   0.772 -0.4693 -0.9976 -0.1318
  3324G12c C01061618   1.940  10.743   0.748  0.6768  1.0019 -1.0573
  3324G12c C01161619   1.848  10.648   0.708 -1.2460  0.9461  0.7589
  3324G12c H00561620   1.753  10.669   0.662  0.7122  2.9072 -2.6429
  3324G12c C01261621   1.876  10.517   0.744 -0.8120  1.1012  0.7036
  3324G12c C01761622   1.776  10.401   0.752 -0.9602  1.1203  1.2788
  3324G12c O00261623   1.807  10.280   0.686 -1.4159  0.0564 -0.6608
  3324G12c H00461624   1.754  10.203   0.694  1.5744 -1.6117  5.8430
  3324G12c C01861625   1.675  10.416   0.834  0.3144 -1.3365  0.1935
  3324G12c O00161626   1.644  10.539   0.873  0.6202 -0.5098 -2.6048
  3324G12c H00361627   1.562  10.554   0.917  0.1752 -1.9854 -2.8872
  3324G12c C01961628   1.598  10.291   0.898 -0.9841  0.3562 -0.1110
  3324G12c H00261629   1.511  10.351   0.870  2.4188  7.2996  2.9377
  3324G12c H00161630   1.604  10.210   0.825  5.1120  2.8865 -2.8047
  3324G12c O00061631   1.632  10.270   1.028 -2.1238  0.4848 -0.0533
  3324G12c C01A61632   1.654  10.135   1.042  1.2830  0.2988 -0.1267
  3324G12c C02K61633   1.557  10.063   1.104 -1.7167 -0.7321 -1.2759
  3324G12c O00G61634   1.433  10.093   1.136  1.4433  0.4977  0.2320
  3324G12c C02M61635   1.418  10.170   1.262 -0.0789 -0.7614  0.0372
  3324G12c H01G61636   1.320  10.181   1.309  1.4135  3.7151  2.3887
  3324G12c H01F61637   1.458  10.097   1.332 -2.1226 -0.3702  1.6936
  3324G12c H01E61638   1.479  10.257   1.285 -0.9742 -0.8308  2.8523
  3324G12c C02J61639   1.600   9.935   1.133 -0.3999  0.0803  0.1165
  3324G12c H01H61640   1.535   9.868   1.187  4.0657  2.0328  8.8716
  3324G12c C02I61641   1.714   9.867   1.097  0.0407 -1.3358  2.0748
  3324G12c C02N61642   1.740   9.738   1.144  1.5992 -1.1471  0.4181
  3324G12c H01M61643   1.757   9.679   1.055 -1.8232 -2.5995  0.6277
  3324G12c C02O61644   1.726   9.694   1.270  0.4323 -0.4387  0.1957
  3324G12c H01L61645   1.671   9.748   1.347 -0.4100 -2.2551  0.8951
  3324G12c C02P61646   1.762   9.566   1.323 -0.7285 -1.6867  0.9922
  3324G12c H01K61647   1.696   9.486   1.355 -3.3752  2.2075  5.8283
  3324G12c H01J61648   1.861   9.525   1.301 -3.1502 -4.4507 -6.5581
  3324G12c O00H61649   1.801   9.606   1.454 -0.9669  0.6139 -0.3498
  3324G12c H01I61650   1.874   9.548   1.474 -2.7918 -1.9090 -0.8135
  3324G12c C02H61651   1.806   9.946   1.023  1.6527 -0.2884  1.0803
  3324G12c H01C61652   1.898   9.904   0.985  0.6857 -2.1955  0.7872
  3324G12c C02L61653   1.772  10.074   0.980  0.2800  0.3257 -0.3170
  3324G12c H01D61654   1.818  10.165   0.944 -1.8137  1.3439 -0.4931
  3324G12c C01361655   2.013  10.475   0.784  1.4671  1.2725 -1.2578
  3324G12c H00061656   2.046  10.380   0.823 -3.2173 -1.4965 -3.5878
  3324G12c C01461657   2.102  10.581   0.822 -0.0833  3.4876 -0.9681
  3324G12c C00F61658   2.219  10.561   0.906  1.0520 -0.5774 -1.3273
  3324G12c C00H61659   2.310  10.776   0.826  0.6099 -0.8357  0.2995
  3324G12c C00I61660   2.404  10.870   0.810  0.3898 -0.0572  0.2202
  3324G12c C00J61661   2.367  10.986   0.748 -0.7388 -0.4607  0.4480
  3324G12c C00Z61662   1.908  10.881   0.726  0.6758  0.6575  0.0952
  3324G12c C00Y61663   1.776  10.920   0.705 -0.4596 -1.3804  0.1183
  3324G12c H00661664   1.701  10.842   0.708 -3.3781  1.3580  1.1344
  3324G12c C00X61665   1.749  11.049   0.686  0.4337 -1.8399 -0.2187
  3324G12c O00361666   1.631  11.077   0.626  0.4615 -0.2714  0.9404
  3324G12c C01B61667   1.589  11.021   0.504 -0.0119  1.0890 -0.3470
  3324G12c H00961668   1.501  11.079   0.476 -0.0595 -0.9117 -4.8301
  3324G12c H00861669   1.563  10.921   0.540  5.5053 -1.0196 -1.7026
  3324G12c H00761670   1.676  11.008   0.440 -0.8761  0.6630 -1.4511
  3324G12c C00W61671   1.854  11.150   0.709 -0.1423  2.3955 -0.1754
  3324G12c O00461672   1.807  11.283   0.722 -1.0944  0.2838 -0.4414
  3324G12c C01C61673   1.884  11.370   0.783 -1.3949  0.6301  0.3312
  3324G12c H00A61674   1.867  11.474   0.758 -2.6711 -0.1339 -2.2146
  3324G12c C00P61675   2.026  11.343   0.792 -0.3488  0.1693 -0.0848
  3324G12c C00O61676   2.119  11.442   0.839  0.6510  1.4225  0.4451
  3324G12c C01D61677   2.055  11.563   0.904 -1.3526  0.9315  2.6380
  3324G12c H00S61678   1.947  11.572   0.898 -1.0218  6.1092  2.3668
  3324G12c C01E61679   2.129  11.661   0.976  0.9308 -0.5916  0.0269
  3324G12c O00861680   2.086  11.774   1.043  1.2433  0.9280  0.4929
  3324G12c C01V61681   1.964  11.820   0.993  1.4091 -0.4560  0.1533
  3324G12c C01Z61682   1.840  11.818   1.069  0.2187  0.0065  0.4571
  3324G12c H00R61683   1.806  11.919   1.048 -1.9745  0.3061  4.8975
  3324G12c H00Q61684   1.779  11.742   1.020 -1.8078  2.2264 -0.5841
  3324G12c O00961685   1.859  11.780   1.199 -0.2528  0.2326  0.8361
  3324G12c H00P61686   1.953  11.775   1.185  0.5586  0.1520  5.6646
  3324G12c C01W61687   1.973  11.872   0.865  0.1429  1.2764  0.2777
  3324G12c H00O61688   2.050  11.817   0.813 -1.9648  3.8332 -6.0624
  3324G12c C01X61689   1.902  11.975   0.771 -0.2179  0.9568  0.6282
  3324G12c H00N61690   1.894  11.903   0.689 -4.6852 -3.2058  4.3589
  3324G12c H00M61691   1.802  11.991   0.813  0.2164  1.9079  1.3145
  3324G12c C01Y61692   1.965  12.107   0.731 -1.7160  1.8531  0.8862
  3324G12c C02D61693   2.041  12.099   0.611 -0.6242 -1.9960  0.8432
  3324G12c H01961694   2.071  12.007   0.563 -6.0207 -4.6186  2.0952
  3324G12c C02C61695   2.111  12.215   0.567 -0.3086 -1.6631 -0.7655
  3324G12c H01A61696   2.190  12.211   0.493  2.0643  0.3371  1.5106
  3324G12c C02B61697   2.095  12.333   0.631 -1.6616  1.0427  0.6966
  3324G12c O00E61698   2.182  12.436   0.601 -1.0606 -0.4210 -0.7280
  3324G12c H01B61699   2.223  12.426   0.685  0.1066 -2.0955 -1.4719
  3324G12c C02F61700   2.019  12.347   0.750  0.5046 -0.7770  0.3595
  3324G12c O00F61701   2.028  12.457   0.827  0.7448 -1.6078 -0.0427
  3324G12c C02G61702   2.124  12.440   0.926  0.1848  0.1626  0.0443
  3324G12c H01761703   2.115  12.526   0.992 -3.3719  2.0864 -2.7690
  3324G12c H01661704   2.218  12.440   0.871 -1.7874  4.1949 -3.6107
  3324G12c H01561705   2.136  12.354   0.992  0.4499  1.0932  1.2181
  3324G12c C02E61706   1.948  12.236   0.805 -0.2156  1.8987  0.7248
  3324G12c H01861707   1.863  12.238   0.872  0.5144 -1.4893  1.8468
  3324G12c C01F61708   2.270  11.625   1.010  0.6706  1.2302 -0.8845
  3324G12c C01G61709   2.340  11.676   1.120 -0.6266 -1.0323 -0.0634
  3324G12c H00L61710   2.300  11.732   1.204  3.3027 -2.1041  2.6645
  3324G12c C01H61711   2.473  11.603   1.151 -0.0326  0.6058 -1.4140
  3324G12c H00B61712   2.509  11.602   1.253 -2.6776 -0.8641 -0.4637
  3324G12c C01I61713   2.525  11.499   1.073  1.0042  0.0805 -0.9334
  3324G12c C01U61714   2.334  11.529   0.933 -0.5313  0.3117 -0.7175
  3324G12c C00S61715   2.229  11.014   0.714 -1.1380 -0.6446 -0.7972
  3324G12c C00K61716   2.424  11.097   0.826 -0.1199 -0.6810 -0.2334
  3324G12c C00N61717   2.263  11.430   0.856 -0.6971 -0.9566  0.1105
  3324G12c C00061718   2.475  11.502   0.932  0.8801 -0.7021  0.8171
  3324G12c C01J61719   2.608  11.384   1.096  1.7624  2.0364  0.3518
  3324G12c C01K61720   2.701  11.348   1.198 -0.2653 -0.1355  0.5441
  3324G12c C01P61721   2.785  11.425   1.289 -0.3155 -0.2869 -0.1216
  3324G12c C01Q61722   2.786  11.565   1.263  0.7490  1.3058  1.3119
  3324G12c H00G61723   2.790  11.641   1.340 -0.4504  5.1035 -2.1600
  3324G12c C01R61724   2.848  11.615   1.152 -0.5335  0.8075 -0.0904
  3324G12c H00F61725   2.871  11.532   1.087  1.8206  1.3946 -0.0219
  3324G12c C01S61726   2.921  11.757   1.134 -0.3265 -0.3005 -0.6817
  3324G12c H00E61727   2.957  11.758   1.032  0.6499  9.2052 -0.7430
  3324G12c H00D61728   2.841  11.815   1.182  1.1892  6.6874 -5.8004
  3324G12c O00561729   3.027  11.750   1.236  0.5852  1.6392  1.1438
  3324G12c H00C61730   2.995  11.708   1.314 -5.8668 -0.1399 -2.1762
  3324G12c C01O61731   2.849  11.378   1.401  0.5303 -0.0258 -0.6627
  3324G12c H00H61732   2.914  11.442   1.458 -5.3792 -2.2175  9.7814
  3324G12c C01N61733   2.859  11.238   1.423  0.0556  2.9123 -0.2082
  3324G12c O00661734   2.924  11.185   1.538 -0.0590  0.1498 -0.8778
  3324G12c C01T61735   2.967  11.279   1.649 -0.9032  0.8498  0.3824
  3324G12c H00K61736   2.985  11.211   1.733 -6.8197 -2.8050 -0.9520
  3324G12c H00J61737   3.014  11.359   1.592  3.1311 -4.8331 -4.9447
  3324G12c H00I61738   2.873  11.321   1.684 -0.0957  0.5107  3.0438
  3324G12c C01M61739   2.802  11.159   1.326  0.9336 -0.5812  0.0137
  3324G12c C02061740   2.541  11.062   0.897 -0.8201  0.0323 -0.1557
  3324G12c C02161741   2.601  10.938   0.922  0.3721  0.6663 -0.0241
  3324G12c C01L61742   2.721  11.206   1.223 -0.0737  0.4385  0.3315
  3324G12c O00761743   2.804  11.023   1.352 -0.3201  0.6336 -0.6263
  3324G12c C02261744   2.615  10.897   1.053 -1.2097  1.6287  0.5767
  3324G12c C02361745   2.539  10.834   0.854  1.2015  0.8780  0.0094
  3324G12c C00G61746   2.329  10.647   0.879 -0.0701 -1.3155 -1.1692
  3324G12c C00E61747   2.240  10.428   0.984 -1.5972 -0.2481  0.1102
  3324G12c O00A61748   2.138  10.355   1.026 -0.8886  0.1383  0.3817
  3324G12c C02461749   2.053  10.389   1.119 -0.9336 -0.0548  0.5047
  3324G12c H00V61750   2.135  10.420   1.184  1.7815 -0.7571 -2.4816
  3324G12c H00U61751   1.986  10.316   1.165  1.0986  1.9974  7.3358
  3324G12c H00T61752   1.987  10.459   1.068 -2.4334 -3.4321 -2.4029
  3334G12c C00D61753  11.694   5.262   2.001 -0.2809 -0.0292 -0.9790
  3334G12c O00B61754  11.573   5.245   2.056  1.3540  1.6235  0.2747
  3334G12c C02561755  11.504   5.129   2.000 -0.2441 -0.4091 -0.4278
  3334G12c C02661756  11.440   5.148   1.860  0.1458  0.9158 -0.2147
  3334G12c H00Y61757  11.381   5.240   1.859  4.5517  3.9320  1.7829
  3334G12c H00X61758  11.363   5.071   1.854  0.8735  0.0923  0.7717
  3334G12c O00C61759  11.505   5.172   1.745 -0.6801  0.3612  0.1370
  3334G12c H00W61760  11.422   5.207   1.717  0.5524  0.1926 -4.1466
  3334G12c C02761761  11.478   5.023   2.102 -0.1158  0.2889  0.0564
  3334G12c O00D61762  11.533   5.033   2.224 -0.9456 -0.1052  1.6884
  3334G12c H00Z61763  11.615   5.080   2.224  2.4730 -5.5557 -1.3648
  3334G12c C02861764  11.410   4.893   2.063  0.2965  0.0304 -1.0956
  3334G12c C02961765  11.421   4.833   1.946 -0.0143 -0.3339 -0.3641
  3334G12c H01061766  11.506   4.879   1.898 -3.0948 -0.1484 -5.9755
  3334G12c C02T61767  11.346   4.715   1.919  1.6231 -0.1256 -0.0287
  3334G12c H01O61768  11.372   4.648   1.838  2.6302  2.7296 -2.1313
  3334G12c C02S61769  11.235   4.681   2.009  0.7098  1.3942  0.9402
  3334G12c O00J61770  11.164   4.565   1.981 -0.1507  1.6126  1.1361
  3334G12c H01P61771  11.141   4.559   1.890  3.3353  1.6344  0.1575
  3334G12c C02R61772  11.244   4.739   2.145 -0.2341  1.2030  0.0175
  3334G12c O00I61773  11.148   4.710   2.243  0.0742  0.0647 -0.5356
  3334G12c C02Q61774  11.048   4.801   2.212 -0.9278 -0.5884  1.2108
  3334G12c H01N61775  10.956   4.746   2.192  1.2332 -4.5062  1.6527
  3334G12c H01R61776  11.073   4.892   2.158 -1.4137  0.6837  3.0835
  3334G12c H01Q61777  11.037   4.840   2.313  2.5602 -1.4858  1.9739
  3334G12c C02A61778  11.330   4.852   2.165  1.3604  1.5401 -0.7627
  3334G12c H01161779  11.314   4.894   2.264  2.9296  1.2999 -0.3902
  3334G12c C00C61780  11.769   5.149   1.937 -0.2676  1.9527  1.3008
  3334G12c H01261781  11.733   5.048   1.925 -8.3172  4.9269 -2.9461
  3334G12c C00B61782  11.896   5.174   1.875 -0.5682 -1.3720 -0.1551
  3334G12c C00A61783  11.988   5.065   1.840 -0.7683  2.4232 -1.1655
  3334G12c C00961784  12.000   4.916   1.894 -0.1865 -1.1974  1.0442
  3334G12c C00861785  11.914   4.831   1.965 -1.1933 -0.0190  1.5949
  3334G12c H01361786  11.810   4.846   1.990 -1.7440 -0.2743 -0.4077
  3334G12c C00761787  11.980   4.723   2.053  1.8799 -0.0157  0.1107
  3334G12c H01461788  11.922   4.665   2.123  3.9681 -2.6807 -0.2526
  3334G12c C00661789  12.122   4.716   2.067 -0.1683  0.5170  1.1973
  3334G12c C00561790  12.195   4.802   1.968 -1.0493  0.8035 -1.1641
  3334G12c C00461791  12.342   4.809   1.968 -0.1546  0.2618 -0.6747
  3334G12c C00361792  12.422   4.897   1.878 -0.0385 -1.5775  1.3126
  3334G12c C00261793  12.565   4.909   1.893  0.8675 -0.6100  0.3252
  3334G12c C00161794  12.657   4.999   1.841  0.9478 -0.3939 -1.3375
  3334G12c C00M61795  12.644   5.134   1.849 -1.8371 -0.6053 -0.1840
  3334G12c C00L61796  12.534   5.206   1.787  0.6075 -1.2223 -1.3437
  3334G12c C00R61797  12.522   5.340   1.819 -0.0659 -1.3820 -1.4332
  3334G12c C00Q61798  12.593   5.446   1.881  1.4108 -0.2261 -0.2956
  3334G12c C00V61799  12.508   5.564   1.914 -1.4783 -0.5157 -1.2379
  3334G12c C00U61800  12.367   5.563   1.898 -0.2396 -0.8830  0.5768
  3334G12c C00T61801  12.296   5.463   1.848  0.8080  0.0757  0.1399
  3334G12c C01661802  12.159   5.436   1.863 -0.8893  0.9057  0.6329
  3334G12c C01561803  12.089   5.548   1.912  0.4390 -1.0986 -0.4444
  3334G12c C01061804  12.156   5.672   1.941 -0.1959 -0.6978  0.1673
  3334G12c C01161805  12.090   5.778   1.999 -1.0566 -0.0623  1.3951
  3334G12c H00561806  12.126   5.860   2.060 -2.3827  3.4091 -2.2535
  3334G12c C01261807  11.954   5.785   1.991  1.1710  0.9815 -0.0578
  3334G12c C01761808  11.895   5.917   1.981  1.9248  1.0151 -0.9983
  3334G12c O00261809  11.817   5.927   1.863  0.8760 -1.0750 -0.6752
  3334G12c H00461810  11.815   5.833   1.854  2.3955 -0.9993 -1.9916
  3334G12c C01861811  11.900   6.005   2.079 -0.5527  0.0620 -0.3083
  3334G12c O00161812  11.941   5.943   2.205  0.9022 -0.3782  0.6544
  3334G12c H00361813  11.960   6.000   2.278  1.6247  0.8224 -0.4543
  3334G12c C01961814  11.854   6.152   2.080 -0.9376 -0.6514 -0.2829
  3334G12c H00261815  11.941   6.192   2.133  0.3269 -1.9892 -1.2927
  3334G12c H00161816  11.857   6.178   1.974 -1.5480 -1.7393 -0.5765
  3334G12c O00061817  11.735   6.192   2.160 -1.6833  0.8660  1.5516
  3334G12c C01A61818  11.625   6.128   2.133 -1.6079 -0.6333  0.7304
  3334G12c C02K61819  11.567   6.170   2.026 -2.3028  1.7187  0.1089
  3334G12c O00G61820  11.562   6.300   1.954  1.3103 -0.4748 -0.1596
  3334G12c C02M61821  11.562   6.410   2.037  0.1703  3.0976  0.6696
  3334G12c H01G61822  11.500   6.461   1.963 -2.6341 -3.9041 -2.2667
  3334G12c H01F61823  11.657   6.463   2.028  2.1777 -0.8525 -4.0402
  3334G12c H01E61824  11.521   6.392   2.136 -1.8468 -3.4030 -1.0710
  3334G12c C02J61825  11.464   6.101   1.970  0.4345  0.0970 -1.2114
  3334G12c H01H61826  11.449   6.155   1.878  0.1166  1.9909 -0.0694
  3334G12c C02I61827  11.434   5.962   1.998 -3.7693  0.3241  0.0899
  3334G12c C02N61828  11.358   5.877   1.907 -0.9611 -0.4087  1.9526
  3334G12c H01M61829  11.372   5.771   1.915  2.5463  0.0598  3.0450
  3334G12c C02O61830  11.281   5.937   1.816  0.6422 -1.0803 -1.1168
  3334G12c H01L61831  11.267   6.041   1.793 -0.1777 -1.0734 -0.5904
  3334G12c C02P61832  11.264   5.879   1.685 -0.4250 -0.0152  0.3278
  3334G12c H01K61833  11.207   5.945   1.621 -0.8869 -2.4701 -1.8860
  3334G12c H01J61834  11.366   5.877   1.648 -0.2342 -3.4418  0.8183
  3334G12c O00H61835  11.182   5.775   1.710 -0.4378 -0.7474 -0.6980
  3334G12c H01I61836  11.110   5.810   1.660 -1.6883 -2.8909 -0.4285
  3334G12c C02H61837  11.494   5.913   2.119 -0.4996 -1.4545 -0.9482
  3334G12c H01C61838  11.443   5.848   2.188  1.5206  4.0012  6.2794
  3334G12c C02L61839  11.594   5.994   2.188 -0.1817 -1.9641 -0.9261
  3334G12c H01D61840  11.640   5.941   2.270  6.9335  5.1854  0.3765
  3334G12c C01361841  11.891   5.658   1.966 -1.1130 -0.4747  0.2153
  3334G12c H00061842  11.785   5.669   1.984 -1.7299 -1.5155 -2.4175
  3334G12c C01461843  11.950   5.540   1.928  0.2979 -0.6325  1.0266
  3334G12c C00F61844  11.890   5.400   1.939 -0.4034  1.4199 -0.6059
  3334G12c C00H61845  12.097   5.320   1.843 -0.6676 -0.3662 -0.9834
  3334G12c C00I61846  12.181   5.217   1.783  1.7763  1.0956 -0.0311
  3334G12c C00J61847  12.320   5.240   1.797 -0.5816 -1.5175  0.9443
  3334G12c C00Z61848  12.300   5.690   1.929  1.1547  0.3781 -0.8469
  3334G12c C00Y61849  12.367   5.800   1.973 -0.3011 -1.1573 -1.0074
  3334G12c H00661850  12.324   5.896   1.998  1.3135 -2.4245  9.0778
  3334G12c C00X61851  12.508   5.800   2.000  0.4184 -0.5031  0.3889
  3334G12c O00361852  12.581   5.901   2.034 -0.8248  0.0513 -0.9365
  3334G12c C01B61853  12.555   6.033   1.992  0.3216 -0.5581  0.4074
  3334G12c H00961854  12.462   6.061   2.043  1.4711 -3.0390  4.1098
  3334G12c H00861855  12.563   6.045   1.884  9.4791 -0.1764  0.7914
  3334G12c H00761856  12.630   6.094   2.043  0.5758  3.0964 -4.0628
  3334G12c C00W61857  12.575   5.683   1.968 -1.0361  0.2743  0.7712
  3334G12c O00461858  12.716   5.671   2.000 -0.1505 -0.0531  0.2614
  3334G12c C01C61859  12.773   5.578   1.962  0.2438  0.2449  0.2058
  3334G12c H00A61860  12.880   5.566   1.961 -0.2366 -6.4094  3.1788
  3334G12c C00P61861  12.722   5.448   1.929 -0.7888  0.0298 -1.0589
  3334G12c C00O61862  12.805   5.323   1.947  0.2048  0.9837  0.9121
  3334G12c C01D61863  12.913   5.344   2.044 -0.0748  1.0584 -0.5723
  3334G12c H00S61864  12.948   5.419   2.114  2.0896 -1.5085  1.1916
  3334G12c C01E61865  12.978   5.229   2.091  0.1551 -1.1851  0.3899
  3334G12c O00861866  13.048   5.255   2.197 -0.8509  0.7879 -0.2284
  3334G12c C01V61867  13.190   5.223   2.184  0.6030  0.4041  0.6967
  3334G12c C01Z61868  13.284   5.318   2.259 -0.8391 -1.0454 -0.4913
  3334G12c H00R61869  13.288   5.292   2.365  6.4622  4.2981  0.9540
  3334G12c H00Q61870  13.375   5.318   2.199  4.0827 -1.0510  6.3967
  3334G12c O00961871  13.219   5.454   2.275 -0.5990 -0.8955 -1.5771
  3334G12c H00P61872  13.142   5.435   2.326  1.9556 -1.7610  2.1756
  3334G12c C01W61873  13.231   5.088   2.146  0.0825  1.4942  0.5348
  3334G12c H00O61874  13.160   5.010   2.123  0.8273  1.2083 -0.8232
  3334G12c C01X61875  13.371   5.031   2.189  0.6981 -0.5829  0.6862
  3334G12c H00N61876  13.401   5.052   2.291 -2.6252  4.1467  0.8915
  3334G12c H00M61877  13.379   4.923   2.187 -0.1272 -0.7018  2.7185
  3334G12c C01Y61878  13.468   5.081   2.096  1.6929  0.0809 -1.4321
  3334G12c C02D61879  13.433   5.126   1.960  0.1134  0.5036  0.5275
  3334G12c H01961880  13.348   5.122   1.894  1.3177 -0.4466 -0.9994
  3334G12c C02C61881  13.521   5.172   1.867  0.4754  0.2914  0.5512
  3334G12c H01A61882  13.463   5.217   1.787  1.6121  1.0296  0.1354
  3334G12c C02B61883  13.658   5.183   1.892  0.3669 -1.3493 -0.1208
  3334G12c O00E61884  13.751   5.229   1.806  0.4035  0.5605 -0.6764
  3334G12c H01B61885  13.723   5.302   1.753 -5.2431  0.3910  1.7720
  3334G12c C02F61886  13.705   5.149   2.028  0.3601  0.4219  0.2780
  3334G12c O00F61887  13.834   5.171   2.046 -0.1031  0.5517  0.3225
  3334G12c C02G61888  13.896   5.077   2.125 -1.6876  0.6475 -0.1048
  3334G12c H01761889  13.909   4.986   2.066 -3.9616 -0.9845  1.8306
  3334G12c H01661890  13.841   5.067   2.219 -5.2644  2.1403 -1.9144
  3334G12c H01561891  13.997   5.113   2.143  0.0095 -5.0483  2.8037
  3334G12c C02E61892  13.614   5.094   2.118  0.8434 -1.0873  0.1067
  3334G12c H01861893  13.646   5.091   2.221 -4.3348 -1.6590  1.8650
  3334G12c C01F61894  12.927   5.100   2.058  0.3516 -1.0253  1.9354
  3334G12c C01G61895  12.910   4.998   2.149  0.3187 -0.0127  0.3759
  3334G12c H00L61896  12.967   5.019   2.239  0.0172  3.0262 -0.1143
  3334G12c C01H61897  12.806   4.889   2.150  1.5803  0.6840  0.3047
  3334G12c H00B61898  12.767   4.842   2.239  2.8979 -1.0997 -0.0324
  3334G12c C01I61899  12.739   4.875   2.017  1.1764  1.2107 -0.0403
  3334G12c C01U61900  12.857   5.076   1.936 -0.9883  0.3682  0.7954
  3334G12c C00S61901  12.377   5.361   1.790 -0.4381 -0.5420 -0.1072
  3334G12c C00K61902  12.414   5.133   1.790  0.1581 -0.5994  0.4037
  3334G12c C00N61903  12.769   5.196   1.901 -0.5263 -1.0265 -0.0775
  3334G12c C00061904  12.783   4.964   1.906 -0.6995 -0.0656 -0.2915
  3334G12c C01J61905  12.611   4.814   1.990 -0.4078  2.0663  0.7137
  3334G12c C01K61906  12.547   4.706   2.072  1.7773 -0.0530 -0.5281
  3334G12c C01P61907  12.586   4.619   2.192 -0.8188 -0.5325  0.2007
  3334G12c C01Q61908  12.716   4.558   2.196 -2.0288 -0.4184  0.2916
  3334G12c H00G61909  12.803   4.616   2.223 -3.3294  1.8748 -0.3261
  3334G12c C01R61910  12.730   4.430   2.143  0.6531 -0.7666  0.3281
  3334G12c H00F61911  12.651   4.360   2.123  3.3611 -3.9488  0.2660
  3334G12c C01S61912  12.871   4.359   2.131  1.8092 -0.2012 -0.7809
  3334G12c H00E61913  12.848   4.296   2.044  0.8124 -1.9236  0.6793
  3334G12c H00D61914  12.940   4.440   2.108  1.0522  1.1470  1.4814
  3334G12c O00561915  12.896   4.273   2.246 -0.6121 -0.1691 -0.7043
  3334G12c H00C61916  12.855   4.189   2.232  1.2319 -0.4276 -5.6591
  3334G12c C01O61917  12.499   4.643   2.308 -1.7479  0.2917  0.6318
  3334G12c H00H61918  12.537   4.635   2.409 -1.1110  0.7268  0.4360
  3334G12c C01N61919  12.360   4.661   2.302  0.9898  0.2273  1.2372
  3334G12c O00661920  12.283   4.649   2.410  0.3804 -0.2065  0.1081
  3334G12c C01T61921  12.156   4.573   2.405 -0.6058  0.4238  0.5964
  3334G12c H00K61922  12.061   4.615   2.370 -1.7845 -3.6946 -1.4955
  3334G12c H00J61923  12.113   4.537   2.498  1.8918  0.9230  1.9812
  3334G12c H00I61924  12.172   4.477   2.355 -3.6486 -0.8510  1.9453
  3334G12c C01M61925  12.321   4.683   2.165  0.6938  0.9044 -1.8489
  3334G12c C02061926  12.347   5.011   1.816  0.2813  0.3989  1.6592
  3334G12c C02161927  12.209   4.990   1.811 -1.4301 -0.9851 -0.8790
  3334G12c C01L61928  12.406   4.726   2.059 -0.2256 -0.0081 -1.1501
  3334G12c O00761929  12.182   4.656   2.161  0.4138  1.8386 -0.0906
  3334G12c C02261930  12.135   4.883   1.873 -0.9918 -0.4544 -2.0133
  3334G12c C02361931  12.120   5.089   1.790 -1.8992 -2.1653 -1.3487
  3334G12c C00G61932  11.969   5.292   1.893 -0.5812 -0.1726  2.3060
  3334G12c C00E61933  11.755   5.377   1.993  0.1607 -1.4996 -0.4199
  3334G12c O00A61934  11.684   5.479   2.058 -0.5418 -0.1118  0.7338
  3334G12c C02461935  11.563   5.522   2.009  0.7387  0.2713 -0.7421
  3334G12c H00V61936  11.474   5.461   2.024  0.0412  2.2406  4.4219
  3334G12c H00U61937  11.549   5.540   1.903 -3.5399  0.0393 -0.3249
  3334G12c H00T61938  11.527   5.608   2.066 -1.2822  1.2319 -3.3602
  3344G12c C00D61939   5.801   6.493   9.730 -0.4318  0.4911  1.3528
  3344G12c O00B61940   5.786   6.391   9.637  0.8116 -0.5771  2.2535
  3344G12c C02561941   5.818   6.255   9.664 -0.7940  0.5620 -1.2207
  3344G12c C02661942   5.693   6.170   9.679 -0.2982 -0.3736 -0.2889
  3344G12c H00Y61943   5.665   6.196   9.781  3.8568  6.3652 -0.5354
  3344G12c H00X61944   5.713   6.065   9.703  1.4465  0.6290  2.7717
  3344G12c O00C61945   5.620   6.176   9.556  0.5785  0.7668  0.8359
  3344G12c H00W61946   5.541   6.227   9.547 -3.6323 -4.9672  1.8697
  3344G12c C02761947   5.945   6.209   9.667  0.2033 -0.3871 -0.7742
  3344G12c O00D61948   6.056   6.269   9.618  0.3354  0.8455  1.0332
  3344G12c H00Z61949   6.127   6.213   9.647 -0.0077  0.7305  1.6634
  3344G12c C02861950   5.966   6.069   9.670  1.1291  1.7032 -0.5083
  3344G12c C02961951   5.934   6.004   9.545 -0.1822  0.4264 -1.2420
  3344G12c H01061952   5.900   6.052   9.454 -2.7986  2.2999  0.6310
  3344G12c C02T61953   5.931   5.870   9.534 -1.6266  0.7470 -1.0767
  3344G12c H01O61954   5.902   5.845   9.433 -0.8033 -2.5822 -0.5289
  3344G12c C02S61955   5.968   5.787   9.634  1.8523 -0.6551  0.8493
  3344G12c O00J61956   5.971   5.653   9.607  1.2050  1.7373 -1.5045
  3344G12c H01P61957   6.012   5.602   9.675 -0.1137 -0.4818 -2.3143
  3344G12c C02R61958   6.013   5.840   9.755 -0.7327  0.3204 -1.9009
  3344G12c O00I61959   6.099   5.768   9.841 -0.4491  0.3795 -0.9763
  3344G12c C02Q61960   6.227   5.752   9.795 -1.7318 -1.3394 -0.7096
  3344G12c H01N61961   6.222   5.674   9.719 -4.0691 -0.7702 -1.1840
  3344G12c H01R61962   6.257   5.696   9.883  3.1284  3.4860  0.9371
  3344G12c H01Q61963   6.309   5.823   9.801 -4.1147  1.5814 -1.0624
  3344G12c C02A61964   6.000   5.983   9.777 -1.5406 -1.2398 -0.5928
  3344G12c H01161965   6.053   6.017   9.865 -3.9140 -1.3398  0.9133
  3344G12c C00C61966   5.718   6.500   9.837 -0.5279  0.0559  0.4775
  3344G12c H01261967   5.631   6.436   9.833  1.0166 -1.9858 -6.4166
  3344G12c C00B61968   5.789   6.571   9.947 -0.9076 -0.6145 -0.9246
  3344G12c C00A61969   5.744   6.573  10.079 -0.3009 -0.7799  1.1681
  3344G12c C00961970   5.611   6.543  10.119 -0.6028  0.4869  1.7585
  3344G12c C00861971   5.480   6.561  10.056 -0.0791 -0.2227  1.7970
  3344G12c H01361972   5.464   6.578   9.950  3.7026 -2.1328  0.8192
  3344G12c C00761973   5.376   6.601  10.149 -1.1020  0.0111  1.7087
  3344G12c H01461974   5.291   6.616  10.084 -2.9809  4.7144  4.9616
  3344G12c C00661975   5.397   6.641  10.276 -0.4769 -1.0018  0.2937
  3344G12c C00561976   5.525   6.633  10.324 -0.7710 -0.3727  1.1531
  3344G12c C00461977   5.564   6.658  10.461  0.0818  1.6258  0.8303
  3344G12c C00361978   5.700   6.673  10.489 -0.1602  0.2981  0.1734
  3344G12c C00261979   5.720   6.728  10.618  1.0609 -0.8997  0.2512
  3344G12c C00161980   5.835   6.779  10.687 -0.6980 -0.7179 -0.4351
  3344G12c C00M61981   5.958   6.831  10.629  1.1155 -0.4863 -0.1218
  3344G12c C00L61982   5.986   6.797  10.493  1.5094  0.3717  0.4057
  3344G12c C00R61983   6.089   6.842  10.407  0.8991 -0.9245  0.5092
  3344G12c C00Q61984   6.176   6.963  10.429  3.0687 -0.3978 -0.7477
  3344G12c C00V61985   6.235   6.993  10.302  0.2574 -1.7313  0.6908
  3344G12c C00U61986   6.212   6.930  10.182  0.1642 -0.9097  0.2889
  3344G12c C00T61987   6.141   6.813  10.164 -1.1407 -0.9928 -0.5022
  3344G12c C01661988   6.075   6.774  10.050 -0.3609 -0.1978  0.8204
  3344G12c C01561989   6.124   6.812   9.922 -0.5120 -1.1055  0.0925
  3344G12c C01061990   6.228   6.911   9.930  0.9512  0.5295 -0.8652
  3344G12c C01161991   6.307   6.936   9.821 -0.2044 -0.3007 -0.3726
  3344G12c H00561992   6.385   7.006   9.798 -0.8768  2.2498  4.4403
  3344G12c C01261993   6.290   6.858   9.710 -1.8221 -0.6164  1.3573
  3344G12c C01761994   6.409   6.842   9.627 -1.3867  1.2429 -0.2017
  3344G12c O00261995   6.493   6.733   9.658  0.7141 -2.2779 -0.0032
  3344G12c H00461996   6.438   6.665   9.693  0.3054 -4.1259 -3.8720
  3344G12c C01861997   6.437   6.929   9.518 -1.9486  0.5491  0.0195
  3344G12c O00161998   6.554   6.948   9.459 -0.9062 -0.3990  0.4612
  3344G12c H00361999   6.619   6.880   9.472  1.3021  2.4995  5.8040
  3344G12c C01962000   6.339   7.037   9.462  0.4796 -1.3071 -1.8544
  3344G12c H00262001   6.355   7.042   9.354 -2.2524 -0.2722 -2.2692
  3344G12c H00162002   6.260   6.962   9.457  1.4826 -2.6647  1.4431
  3344G12c O00062003   6.326   7.161   9.511 -2.0029 -0.8459  0.6652
  3344G12c C01A62004   6.233   7.255   9.471 -2.5292  0.0380  1.2633
  3344G12c C02K62005   6.241   7.349   9.569 -0.4230 -0.3380  1.4832
  3344G12c O00G62006   6.289   7.331   9.691  0.7429 -0.0975 -1.1664
  3344G12c C02M62007   6.230   7.237   9.780 -0.6418  0.9639  1.0405
  3344G12c H01G62008   6.201   7.138   9.744  3.4774 -1.9923  5.3135
  3344G12c H01F62009   6.147   7.278   9.836 -2.5690  0.7927 -1.5774
  3344G12c H01E62010   6.289   7.219   9.869 -4.2436 -3.1284  2.7893
  3344G12c C02J62011   6.179   7.476   9.545  0.2493 -0.7398 -1.0808
  3344G12c H01H62012   6.192   7.562   9.609 -2.0827 -1.6284  0.6345
  3344G12c C02I62013   6.091   7.489   9.428 -0.6387  0.1029  2.1159
  3344G12c C02N62014   6.044   7.624   9.387 -0.3135  0.6317 -1.0543
  3344G12c H01M62015   6.050   7.718   9.440  2.3267  1.0849 -2.0930
  3344G12c C02O62016   5.977   7.661   9.269 -0.6443  1.1400  0.6682
  3344G12c H01L62017   5.993   7.588   9.190  1.6717  1.9505  0.3710
  3344G12c C02P62018   5.870   7.781   9.257  1.1494  0.9716 -0.5297
  3344G12c H01K62019   5.878   7.804   9.363  7.9452 -2.0609 -0.1225
  3344G12c H01J62020   5.911   7.860   9.195 -3.2196  5.2899  1.7556
  3344G12c O00H62021   5.743   7.729   9.202  1.7068  0.0110 -0.6142
  3344G12c H01I62022   5.682   7.802   9.201  1.6400 -0.0052 -3.2712
  3344G12c C02H62023   6.072   7.383   9.335 -0.3323  0.1093  1.0144
  3344G12c H01C62024   6.016   7.371   9.244 -0.5452 -2.8906  1.4792
  3344G12c C02L62025   6.153   7.274   9.349  0.5203  1.2343  0.0617
  3344G12c H01D62026   6.170   7.186   9.289 -2.4069 -0.1152  1.1158
  3344G12c C01362027   6.182   6.769   9.690  1.6056 -1.9568 -1.4595
  3344G12c H00062028   6.187   6.715   9.597  0.3398  4.1379 -5.3035
  3344G12c C01462029   6.084   6.757   9.801 -2.2071 -0.3421 -1.2481
  3344G12c C00F62030   5.966   6.662   9.813 -0.5309  0.1636  0.6172
  3344G12c C00H62031   5.967   6.686  10.056 -1.3589  1.5706  2.5204
  3344G12c C00I62032   5.934   6.627  10.175 -0.1968  0.5299 -0.9949
  3344G12c C00J62033   6.002   6.671  10.294 -1.0090  1.3156  0.0397
  3344G12c C00Z62034   6.262   6.961  10.058 -0.6251 -1.2040 -0.5863
  3344G12c C00Y62035   6.366   7.058  10.073 -1.7273  0.5554 -0.6066
  3344G12c H00662036   6.450   7.061  10.005 -1.8491  4.0248 -0.6956
  3344G12c C00X62037   6.394   7.135  10.203 -0.4340  0.4698  1.5695
  3344G12c O00362038   6.458   7.245  10.205 -1.6893 -0.0052 -1.2136
  3344G12c C01B62039   6.530   7.298  10.088 -0.0830  0.5367  1.5374
  3344G12c H00962040   6.458   7.297  10.006  6.2325  9.3488 -5.2026
  3344G12c H00862041   6.598   7.230  10.038 -1.5682 -0.8503  1.3712
  3344G12c H00762042   6.558   7.403  10.093 -6.5902  2.3644  7.2580
  3344G12c C00W62043   6.304   7.119  10.301 -1.6615  0.6087 -1.2531
  3344G12c O00462044   6.296   7.216  10.399 -0.7135 -0.1940  1.3404
  3344G12c C01C62045   6.293   7.152  10.517  1.0642 -1.4855  0.5029
  3344G12c H00A62046   6.387   7.121  10.562 -0.2064 -8.4442 -1.1411
  3344G12c C00P62047   6.188   7.044  10.534 -0.2775 -1.5017 -0.7874
  3344G12c C00O62048   6.089   7.062  10.641  2.1305  1.8111 -0.7705
  3344G12c C01D62049   6.076   7.183  10.716 -0.8280 -0.7292  1.0258
  3344G12c H00S62050   6.149   7.258  10.693 -0.5439 -3.0235 -6.7628
  3344G12c C01E62051   5.950   7.222  10.785 -0.4465 -0.7776  0.8865
  3344G12c O00862052   5.915   7.351  10.793 -0.7225  1.3392 -0.6167
  3344G12c C01V62053   6.006   7.440  10.853  0.1015 -1.2686  0.9622
  3344G12c C01Z62054   6.004   7.453  11.009  1.4376 -0.0450 -0.1447
  3344G12c H00R62055   5.904   7.445  11.053  3.9657 -1.5905  5.8670
  3344G12c H00Q62056   6.015   7.353  11.050 -0.8522 -1.6091 -3.1106
  3344G12c O00962057   6.068   7.558  11.072 -0.4558 -0.5046 -0.7304
  3344G12c H00P62058   6.095   7.635  11.025  4.1759 -0.9089  1.0398
  3344G12c C01W62059   6.105   7.492  10.778  0.6258 -1.0069  1.3245
  3344G12c H00O62060   6.089   7.464  10.675  1.1761  2.7340  0.1588
  3344G12c C01X62061   6.220   7.603  10.786 -0.3323 -1.3735  1.0820
  3344G12c H00N62062   6.225   7.606  10.677  0.6015  5.8411  1.0604
  3344G12c H00M62063   6.192   7.707  10.805 -2.1008 -0.9454 -3.2436
  3344G12c C01Y62064   6.361   7.581  10.815  0.9668 -0.0097 -0.3980
  3344G12c C02D62065   6.393   7.506  10.932 -1.1283  0.3140  1.0118
  3344G12c H01962066   6.339   7.429  10.985 -0.3071 -0.2791  0.9911
  3344G12c C02C62067   6.528   7.485  10.978 -0.0623  0.1321  0.7086
  3344G12c H01A62068   6.566   7.428  11.061  0.3901  3.3553  2.7842
  3344G12c C02B62069   6.620   7.594  10.946  0.3413 -0.1225  1.5428
  3344G12c O00E62070   6.725   7.613  11.030  0.6187  0.9963 -1.4873
  3344G12c H01B62071   6.759   7.700  11.020  1.4453  0.5742 -2.4628
  3344G12c C02F62072   6.583   7.705  10.861 -1.1971  1.1210 -0.2461
  3344G12c O00F62073   6.653   7.810  10.836 -1.2854 -0.6458  0.0069
  3344G12c C02G62074   6.610   7.954  10.825  0.3094  0.5425  0.3610
  3344G12c H01762075   6.565   8.002  10.738 -0.5104 -3.4305 -1.5104
  3344G12c H01662076   6.712   7.995  10.825  1.4037 -2.0008 -2.4547
  3344G12c H01562077   6.560   8.011  10.903  2.3506 -4.3670  5.5334
  3344G12c C02E62078   6.451   7.688  10.798  0.6487  0.6751 -0.8587
  3344G12c H01862079   6.421   7.780  10.750  2.0455  1.1158 -0.9064
  3344G12c C01F62080   5.860   7.108  10.803  0.4072 -1.8217  1.6133
  3344G12c C01G62081   5.733   7.147  10.844  0.6003  0.5412 -0.0234
  3344G12c H00L62082   5.708   7.252  10.840  2.4595  1.0150  0.2333
  3344G12c C01H62083   5.639   7.038  10.832 -1.7118  0.8289  0.7584
  3344G12c H00B62084   5.532   7.044  10.817 -1.4029  5.8499 -0.3182
  3344G12c C01I62085   5.655   6.898  10.792 -0.6248 -0.6332 -0.2655
  3344G12c C01U62086   5.889   6.982  10.783  1.5309  0.8949 -0.1451
  3344G12c C00S62087   6.079   6.780  10.288  0.3987  0.0395 -0.8869
  3344G12c C00K62088   5.935   6.691  10.418  1.5233  0.7996 -0.9316
  3344G12c C00N62089   5.984   6.960  10.675  1.2585 -0.1098  0.4096
  3344G12c C00062090   5.786   6.866  10.796  0.3254  1.0376  0.1268
  3344G12c C01J62091   5.611   6.782  10.710 -0.0447  0.0201  1.0203
  3344G12c C01K62092   5.475   6.783  10.667  0.7624  0.6288  0.0552
  3344G12c C01P62093   5.360   6.810  10.753 -1.4955 -0.1755  0.1631
  3344G12c C01Q62094   5.354   6.862  10.873  1.1693 -0.0527  0.4586
  3344G12c H00G62095   5.428   6.819  10.939 -1.9046 -2.0218  2.7672
  3344G12c C01R62096   5.256   6.954  10.916 -0.9542  1.3344 -1.7158
  3344G12c H00F62097   5.178   7.010  10.866 -2.8996 -1.1257 -1.5590
  3344G12c C01S62098   5.269   6.993  11.070 -1.1166  2.1025  1.8017
  3344G12c H00E62099   5.374   7.020  11.059 -1.3544  4.3909  4.5392
  3344G12c H00D62100   5.185   7.059  11.094  3.5427  8.6755  1.5627
  3344G12c O00562101   5.232   6.864  11.131  0.7927  1.1619  0.3014
  3344G12c H00C62102   5.163   6.877  11.195 -2.3636 -0.6363 -2.5828
  3344G12c C01O62103   5.238   6.773  10.702  0.8812 -0.0260  2.1487
  3344G12c H00H62104   5.160   6.779  10.777 -0.8237 -3.4556  0.7662
  3344G12c C01N62105   5.212   6.753  10.560  1.4487 -0.1226  0.0767
  3344G12c O00662106   5.096   6.731  10.490 -0.1698  0.2467 -1.2420
  3344G12c C01T62107   4.975   6.740  10.571  0.7667  0.3563 -0.8838
  3344G12c H00K62108   4.977   6.659  10.644  1.0275 -3.2870 -4.8075
  3344G12c H00J62109   4.973   6.825  10.640  1.2805 -1.2046  1.0908
  3344G12c H00I62110   4.870   6.725  10.548  0.0752  2.8555  0.4206
  3344G12c C01M62111   5.327   6.719  10.485 -0.6986 -0.4334 -2.5813
  3344G12c C02062112   5.811   6.616  10.412 -0.5253 -0.3116 -0.2665
  3344G12c C02162113   5.764   6.547  10.286  0.3240 -0.4522 -0.7419
  3344G12c C01L62114   5.463   6.719  10.539 -0.3330 -0.5397  0.0022
  3344G12c O00762115   5.296   6.683  10.358 -0.4288 -0.5936  0.2185
  3344G12c C02262116   5.623   6.552  10.256 -0.2582 -0.4876  0.6018
  3344G12c C02362117   5.837   6.540  10.167 -1.3000 -0.7272 -0.5908
  3344G12c C00G62118   5.908   6.639   9.939 -0.3737  0.1561  0.2696
  3344G12c C00E62119   5.913   6.586   9.708  0.1349 -0.5996  1.4468
  3344G12c O00A62120   5.979   6.599   9.582 -0.2317 -0.3006 -0.1713
  3344G12c C02462121   5.889   6.654   9.495  0.6034 -0.8670  0.0412
  3344G12c H00V62122   5.970   6.683   9.428  0.6903  0.1125  0.5612
  3344G12c H00U62123   5.847   6.754   9.508  0.4711 -0.3852 -3.4514
  3344G12c H00T62124   5.821   6.577   9.459  0.4924 -1.4031  1.3657
  3354G12c C00D62125   2.572   4.958  13.142 -1.3502 -0.8879  1.1801
  3354G12c O00B62126   2.475   5.041  13.201 -0.3809  0.8591  0.6452
  3354G12c C02562127   2.454   5.040  13.334  1.1332 -0.3794  0.3786
  3354G12c C02662128   2.388   4.912  13.381 -0.2190  1.8584 -1.0760
  3354G12c H00Y62129   2.370   4.865  13.284 -1.1017  3.5378 -1.7322
  3354G12c H00X62130   2.297   4.900  13.439  1.3642  5.2004  2.2819
  3354G12c O00C62131   2.461   4.796  13.431  0.1309  0.4707 -0.8357
  3354G12c H00W62132   2.516   4.762  13.363 -0.3631  3.2534 -2.6664
  3354G12c C02762133   2.546   5.125  13.397  1.3887 -0.0635  0.1056
  3354G12c O00D62134   2.593   5.227  13.318 -0.8154 -0.3783 -0.2989
  3354G12c H00Z62135   2.553   5.199  13.237  0.0369  0.4723 -1.0277
  3354G12c C02862136   2.609   5.099  13.535 -1.0651  0.2894 -0.6535
  3354G12c C02962137   2.570   5.001  13.619  1.0604  0.7100 -1.3314
  3354G12c H01062138   2.533   4.899  13.612  3.5699 -0.9643  5.7004
  3354G12c C02T62139   2.580   5.027  13.753 -0.9651 -0.8987 -0.5268
  3354G12c H01O62140   2.581   4.937  13.813 -2.4902 -1.1782 -0.8996
  3354G12c C02S62141   2.628   5.155  13.800 -0.3377 -0.3122  1.1333
  3354G12c O00J62142   2.614   5.196  13.929 -0.1913  0.3726 -0.2237
  3354G12c H01P62143   2.587   5.286  13.936 -2.8654 -0.5170  1.8860
  3354G12c C02R62144   2.654   5.262  13.715 -0.9544 -1.0935  0.8973
  3354G12c O00I62145   2.699   5.389  13.730  2.2312  0.0757  0.9617
  3354G12c C02Q62146   2.819   5.403  13.798 -0.3247  0.2722  0.8606
  3354G12c H01N62147   2.854   5.494  13.749 -9.5754  4.0238  0.0814
  3354G12c H01R62148   2.885   5.320  13.822 -2.5343  0.0391  7.2445
  3354G12c H01Q62149   2.757   5.443  13.879 -0.1298 -2.4535  2.4286
  3354G12c C02A62150   2.640   5.218  13.588  2.7365 -0.7312 -0.1296
  3354G12c H01162151   2.653   5.290  13.509  0.6068 -2.2683 -1.9407
  3354G12c C00C62152   2.670   4.896  13.208 -1.9050 -1.0279 -2.3024
  3354G12c H01262153   2.684   4.844  13.301  3.8991 -2.4325 -3.7894
  3354G12c C00B62154   2.788   4.838  13.144 -0.5150  0.0205  1.6407
  3354G12c C00A62155   2.871   4.725  13.167  1.5097  1.3063 -1.0677
  3354G12c C00962156   2.938   4.712  13.307 -0.6286  0.8204 -1.2696
  3354G12c C00862157   2.949   4.805  13.416 -0.3068 -2.6489  0.2217
  3354G12c H01362158   2.865   4.871  13.434 -2.2424 -4.8696 -0.3760
  3354G12c C00762159   3.077   4.820  13.474  1.2638 -1.4514  0.9444
  3354G12c H01462160   3.063   4.857  13.574 -4.1606  0.6926 -0.4484
  3354G12c C00662161   3.188   4.733  13.451 -0.6418  0.2476  1.0314
  3354G12c C00562162   3.173   4.654  13.333 -0.3763 -0.2434 -0.7235
  3354G12c C00462163   3.287   4.613  13.260  0.2736 -0.3296  0.4773
  3354G12c C00362164   3.275   4.592  13.119 -1.6252  1.4684 -1.5492
  3354G12c C00262165   3.399   4.549  13.062 -1.5220 -0.3443 -0.1789
  3354G12c C00162166   3.438   4.524  12.920  0.9652  1.3978 -0.7772
  3354G12c C00M62167   3.388   4.608  12.817 -1.2210  0.1429  1.9284
  3354G12c C00L62168   3.258   4.616  12.786  0.1787 -0.2064 -0.5093
  3354G12c C00R62169   3.193   4.699  12.691  0.6224 -1.0806 -0.7947
  3354G12c C00Q62170   3.254   4.777  12.587  1.9070 -1.1812 -0.9770
  3354G12c C00V62171   3.166   4.862  12.525 -1.7876  1.5928  0.3661
  3354G12c C00U62172   3.042   4.898  12.584 -0.0542 -1.1314  1.1226
  3354G12c C00T62173   2.997   4.831  12.691  0.9430  0.8533  1.1821
  3354G12c C01662174   2.895   4.856  12.772 -0.2398 -0.2111  0.2623
  3354G12c C01562175   2.817   4.966  12.728 -0.2389  2.2387  0.3215
  3354G12c C01062176   2.854   5.041  12.619  0.4491 -0.4306  0.5997
  3354G12c C01162177   2.785   5.153  12.584  0.2917  0.0682  0.8946
  3354G12c H00562178   2.794   5.225  12.504 -2.4236 -3.0135 -2.3407
  3354G12c C01262179   2.690   5.215  12.673 -0.2005 -0.6104  1.8228
  3354G12c C01762180   2.613   5.348  12.644 -0.9005 -0.4119 -1.4194
  3354G12c O00262181   2.665   5.468  12.700 -0.5223 -0.2029 -0.0456
  3354G12c H00462182   2.692   5.464  12.790  3.0464 -0.5856 -1.0617
  3354G12c C01862183   2.512   5.348  12.568 -0.5242  0.2354  1.0040
  3354G12c O00162184   2.484   5.224  12.493  0.6882 -0.3190 -1.4850
  3354G12c H00362185   2.498   5.148  12.547 -1.1856 -1.8354 -3.0677
  3354G12c C01962186   2.394   5.436  12.529 -1.3459 -0.6918 -0.5039
  3354G12c H00262187   2.434   5.536  12.513  0.8394 -1.6328 -1.0786
  3354G12c H00162188   2.379   5.409  12.424 -3.0503 -1.2668 -0.1271
  3354G12c O00062189   2.281   5.381  12.586 -0.0407  0.5870 -0.0336
  3354G12c C01A62190   2.181   5.458  12.639 -1.4470 -0.6943  0.6384
  3354G12c C02K62191   2.057   5.402  12.671 -0.4807  0.9578  1.1921
  3354G12c O00G62192   2.042   5.268  12.662 -0.4712  0.6409 -1.8584
  3354G12c C02M62193   1.914   5.205  12.597  1.4706  1.4183 -1.1922
  3354G12c H01G62194   1.885   5.152  12.688  2.8386  1.6095 -0.6325
  3354G12c H01F62195   1.945   5.127  12.526 -2.5076  2.4664 -4.2843
  3354G12c H01E62196   1.841   5.263  12.542  0.6905  0.3110 -1.3508
  3354G12c C02J62197   1.956   5.463  12.733  1.5078 -1.0788 -1.2600
  3354G12c H01H62198   1.860   5.415  12.742  2.2580 -2.4527 -0.2678
  3354G12c C02I62199   1.950   5.610  12.746  0.4579  0.2516 -0.0879
  3354G12c C02N62200   1.826   5.669  12.813 -2.2647 -0.0325  0.0331
  3354G12c H01M62201   1.736   5.618  12.843 -2.9002  0.4842 -0.9500
  3354G12c C02O62202   1.821   5.801  12.835 -0.2828  0.6978  0.9447
  3354G12c H01L62203   1.907   5.858  12.804  0.3719 -2.0151 -2.5004
  3354G12c C02P62204   1.697   5.875  12.872 -0.0746  0.6448 -0.7197
  3354G12c H01K62205   1.613   5.808  12.856  0.9494 -0.4552 -1.5590
  3354G12c H01J62206   1.720   5.939  12.957 -2.1679 -3.5217  3.2318
  3354G12c O00H62207   1.661   5.943  12.767 -0.6817 -0.1316 -0.2999
  3354G12c H01I62208   1.670   5.888  12.690  4.3406 -0.6471  0.4352
  3354G12c C02H62209   2.089   5.673  12.731 -1.3076 -0.5582  0.0878
  3354G12c H01C62210   2.096   5.780  12.718  0.2932 -0.2661  2.9026
  3354G12c C02L62211   2.201   5.600  12.668 -1.0378 -2.2295  0.7172
  3354G12c H01D62212   2.299   5.640  12.647  1.2409 -5.4454  4.4274
  3354G12c C01362213   2.670   5.150  12.790  0.0322 -0.3312 -0.7252
  3354G12c H00062214   2.597   5.193  12.857  4.0817  2.1342  2.3623
  3354G12c C01462215   2.745   5.034  12.822 -0.4702 -0.4381  0.0476
  3354G12c C00F62216   2.714   4.969  12.941  1.7412 -1.3250 -0.3049
  3354G12c C00H62217   2.886   4.823  12.909  0.9496  0.7484 -0.2004
  3354G12c C00I62218   2.943   4.699  12.940 -0.6611 -0.2340 -0.0088
  3354G12c C00J62219   3.038   4.665  12.851  1.6966 -1.6192 -1.0847
  3354G12c C00Z62220   2.958   5.002  12.537  0.7612  0.2560 -0.0845
  3354G12c C00Y62221   3.000   5.086  12.422 -0.7508 -0.5089  0.6017
  3354G12c H00662222   2.928   5.155  12.382 -0.2061 -4.9360 -9.6879
  3354G12c C00X62223   3.126   5.036  12.368  2.1128  0.0999 -1.6133
  3354G12c O00362224   3.171   5.101  12.243 -0.0092 -0.2084  0.4069
  3354G12c C01B62225   3.172   5.032  12.117  1.6806 -0.0901 -1.0094
  3354G12c H00962226   3.225   5.109  12.060 -3.8112  0.0162 -6.5231
  3354G12c H00862227   3.235   4.956  12.072 -1.1935  0.8068 -7.1236
  3354G12c H00762228   3.076   5.069  12.082  1.3503  0.5475  0.5178
  3354G12c C00W62229   3.215   4.943  12.427  0.6868 -0.1198  0.3343
  3354G12c O00462230   3.337   4.940  12.372  2.6449  0.8072  0.0362
  3354G12c C01C62231   3.419   4.851  12.433 -0.0191  0.0758 -1.0439
  3354G12c H00A62232   3.471   4.787  12.363 -2.1419 -0.5616 -2.0825
  3354G12c C00P62233   3.389   4.804  12.567  0.2408  0.5646 -0.5802
  3354G12c C00O62234   3.501   4.752  12.642 -1.2326 -0.0629  0.9193
  3354G12c C01D62235   3.630   4.798  12.606  0.1551  1.6624  0.3356
  3354G12c H00S62236   3.630   4.830  12.503 -1.0008  4.7070  1.2318
  3354G12c C01E62237   3.740   4.818  12.703  0.4527  0.2608  0.1789
  3354G12c O00862238   3.841   4.895  12.652  1.3941 -0.2652 -0.8203
  3354G12c C01V62239   3.970   4.877  12.679 -0.5548  0.1384  0.0805
  3354G12c C01Z62240   4.038   4.753  12.615 -2.7393  2.1211  0.0417
  3354G12c H00R62241   3.974   4.665  12.600 -1.0978  0.6265  1.6653
  3354G12c H00Q62242   4.064   4.800  12.520  1.7137  1.0986  0.6881
  3354G12c O00962243   4.156   4.701  12.672  0.5454 -1.4682  0.1506
  3354G12c H00P62244   4.223   4.705  12.605 -0.6653  4.0486 -0.9922
  3354G12c C01W62245   4.042   4.972  12.737 -0.1250  0.3536  0.1173
  3354G12c H00O62246   4.140   4.940  12.771 -0.3523 -1.8778 -1.2325
  3354G12c C01X62247   4.048   5.118  12.796  1.0927 -0.6110 -0.0103
  3354G12c H00N62248   4.142   5.159  12.760 -0.2135  2.2136 -0.3530
  3354G12c H00M62249   3.967   5.170  12.746  1.6514  0.7227  0.4691
  3354G12c C01Y62250   4.032   5.133  12.944  0.4404  0.4136 -0.6741
  3354G12c C02D62251   4.152   5.138  13.014  0.0523  0.4317  1.3401
  3354G12c H01962252   4.245   5.163  12.965  0.0136 -0.1888  0.9465
  3354G12c C02C62253   4.142   5.165  13.158 -0.0018  1.7695 -0.3431
  3354G12c H01A62254   4.217   5.196  13.229 -1.1379  0.5704  1.4213
  3354G12c C02B62255   4.021   5.196  13.214 -0.0006  0.6106 -1.5480
  3354G12c O00E62256   4.012   5.205  13.347 -0.8533 -0.6747 -0.1981
  3354G12c H01B62257   3.941   5.154  13.383  0.3845 -1.0149  1.8479
  3354G12c C02F62258   3.896   5.211  13.139  1.2759  0.0689  0.9437
  3354G12c O00F62259   3.798   5.247  13.226 -0.9258  0.1481  0.0883
  3354G12c C02G62260   3.675   5.242  13.177  0.6739  1.1764 -0.9793
  3354G12c H01762261   3.664   5.308  13.091 -1.7692  2.1789  0.0475
  3354G12c H01662262   3.617   5.295  13.254  4.8972  5.9897 -0.8474
  3354G12c H01562263   3.631   5.143  13.172 -0.3344  1.4611  1.4426
  3354G12c C02E62264   3.899   5.144  13.019 -0.2954 -0.2892 -0.5732
  3354G12c H01862265   3.812   5.122  12.959 -0.9837  1.7977 -0.3639
  3354G12c C01F62266   3.726   4.741  12.817  0.6784  0.3189 -0.5835
  3354G12c C01G62267   3.798   4.718  12.935 -0.1345  1.2983 -0.8019
  3354G12c H00L62268   3.877   4.791  12.933 -1.3361  2.7035  0.6710
  3354G12c C01H62269   3.753   4.636  13.054  0.1877  0.9903 -0.3712
  3354G12c H00B62270   3.792   4.653  13.153 -2.7743  0.6357  0.8929
  3354G12c C01I62271   3.642   4.550  13.044  0.8955 -0.2669 -1.3951
  3354G12c C01U62272   3.608   4.659  12.830 -0.5154  0.3259 -0.3685
  3354G12c C00S62273   3.079   4.738  12.745  0.5591  1.4501 -0.6114
  3354G12c C00K62274   3.156   4.612  12.892 -0.8101 -0.8653 -0.1337
  3354G12c C00N62275   3.502   4.674  12.749 -0.4431 -0.1051 -1.5253
  3354G12c C00062276   3.581   4.548  12.915 -1.1944 -0.8028  0.1629
  3354G12c C01J62277   3.525   4.553  13.139  0.3808  0.1933  0.7748
  3354G12c C01K62278   3.526   4.564  13.279 -0.7727  1.0901 -0.1834
  3354G12c C01P62279   3.644   4.550  13.359 -1.0218  2.1190  0.1382
  3354G12c C01Q62280   3.776   4.479  13.328 -0.1898  0.9216 -0.1649
  3354G12c H00G62281   3.863   4.538  13.305 -2.7948  4.3197 -1.8371
  3354G12c C01R62282   3.765   4.357  13.265  1.3416 -2.3022  0.5758
  3354G12c H00F62283   3.669   4.315  13.290  2.9810 -7.9419 -1.8779
  3354G12c C01S62284   3.870   4.293  13.175  0.6767 -1.1973 -0.3466
  3354G12c H00E62285   3.839   4.268  13.073 -5.5993  1.2802  0.6821
  3354G12c H00D62286   3.973   4.318  13.198  0.7859 -1.4254 -0.5859
  3354G12c O00562287   3.902   4.173  13.232  0.3605 -0.0976  0.1961
  3354G12c H00C62288   3.899   4.186  13.325 -2.7061 -5.4069  1.0830
  3354G12c C01O62289   3.643   4.611  13.475 -0.6575  0.2622  0.0781
  3354G12c H00H62290   3.724   4.610  13.547 -0.1325 -2.6358 -0.5075
  3354G12c C01N62291   3.524   4.682  13.522  0.3672 -0.2581 -0.1556
  3354G12c O00662292   3.517   4.708  13.665  1.0628 -1.1173 -0.5366
  3354G12c C01T62293   3.450   4.595  13.732  1.4368  0.3144 -1.7118
  3354G12c H00K62294   3.452   4.613  13.840 -0.9478 -0.7975 -1.4397
  3354G12c H00J62295   3.490   4.497  13.707  6.3946  0.9513  2.9527
  3354G12c H00I62296   3.347   4.606  13.697  1.4218 -2.2561 -2.6493
  3354G12c C01M62297   3.412   4.694  13.442  1.0232  1.0537 -0.4049
  3354G12c C02062298   3.158   4.585  13.050  1.7628 -1.1359  1.5711
  3354G12c C02162299   3.045   4.581  13.125  0.5443  0.1751  0.1208
  3354G12c C01L62300   3.409   4.622  13.324 -0.0284  0.1825 -0.0098
  3354G12c O00762301   3.310   4.770  13.487 -0.9346  1.4382  0.1877
  3354G12c C02262302   3.051   4.646  13.260  0.3685  0.8950 -1.2604
  3354G12c C02362303   2.935   4.648  13.069  0.3651 -0.4281 -0.4089
  3354G12c C00G62304   2.800   4.883  13.002  0.2193 -0.6731 -1.4652
  3354G12c C00E62305   2.589   4.991  13.009  2.2417  0.4009  0.2228
  3354G12c O00A62306   2.478   5.032  12.934 -0.8874  1.1729 -0.8724
  3354G12c C02462307   2.358   4.958  12.940  1.0483 -0.3540 -1.1834
  3354G12c H00V62308   2.375   4.870  12.879 -0.8845 -4.5868  3.9187
  3354G12c H00U62309   2.277   5.018  12.899 -2.0617 -0.1988  4.5293
  3354G12c H00T62310   2.344   4.933  13.046 -4.2093  1.2680 -1.3242
  3364G12c C00D62311   8.520   3.657   1.791 -1.2374 -0.4288  0.7163
  3364G12c O00B62312   8.432   3.740   1.844  0.2959  0.1441 -1.7668
  3364G12c C02562313   8.417   3.721   1.997  1.6631 -1.1289  0.3977
  3364G12c C02662314   8.328   3.600   2.038 -0.9451  1.3413 -0.8177
  3364G12c H00Y62315   8.311   3.583   2.144  0.6890 -3.9838 -1.2564
  3364G12c H00X62316   8.401   3.519   2.037 -1.6606  0.6783  0.1189
  3364G12c O00C62317   8.221   3.569   1.967  1.4388 -0.3271  0.1016
  3364G12c H00W62318   8.215   3.607   1.881 -1.5139 -1.6666 -0.3653
  3364G12c C02762319   8.414   3.842   2.062  0.1496 -0.1667  0.6812
  3364G12c O00D62320   8.460   3.961   2.004 -0.5074  1.3481  1.9379
  3364G12c H00Z62321   8.477   3.913   1.925 -2.5500 -2.0393  3.4327
  3364G12c C02862322   8.393   3.848   2.209  1.5900 -0.7850 -1.1498
  3364G12c C02962323   8.266   3.879   2.272  0.0767 -0.7756 -1.4144
  3364G12c H01062324   8.191   3.901   2.198 -0.1851  2.5672 -0.2284
  3364G12c C02T62325   8.243   3.864   2.408  2.3041  0.7362  0.3109
  3364G12c H01O62326   8.157   3.890   2.469 -1.6291 -8.2735 -0.5881
  3364G12c C02S62327   8.348   3.851   2.495 -0.5071 -1.0837  0.5173
  3364G12c O00J62328   8.316   3.836   2.627 -0.2520  0.2537  1.9908
  3364G12c H01P62329   8.323   3.747   2.657 -4.0057 -0.9566 -0.4236
  3364G12c C02R62330   8.472   3.819   2.445 -0.7083  0.3048  0.7525
  3364G12c O00I62331   8.598   3.796   2.531  0.2616  0.0680  0.4915
  3364G12c C02Q62332   8.608   3.750   2.678 -0.1817 -1.4096 -0.4257
  3364G12c H01N62333   8.705   3.718   2.715 -2.7003  0.5698  9.1077
  3364G12c H01R62334   8.528   3.679   2.698  0.4604 -1.6932  1.2429
  3364G12c H01Q62335   8.561   3.836   2.726 -1.4754 -1.6017 -1.3384
  3364G12c C02A62336   8.482   3.815   2.301  0.8064 -0.4772 -1.8728
  3364G12c H01162337   8.575   3.775   2.263 -1.7576 -1.4150 -7.7095
  3364G12c C00C62338   8.650   3.715   1.802 -1.5273  0.9071  1.8863
  3364G12c H01262339   8.632   3.803   1.863  2.4660  0.9415  3.1909
  3364G12c C00B62340   8.767   3.668   1.730 -0.7916 -0.3736  0.5002
  3364G12c C00A62341   8.906   3.712   1.735 -1.6484  0.4175 -2.7076
  3364G12c C00962342   8.970   3.825   1.746 -0.2720 -0.8583 -0.8798
  3364G12c C00862343   8.927   3.947   1.736  1.2284 -0.2127 -0.3413
  3364G12c H01362344   8.822   3.953   1.712  0.9407 -1.5860  0.5304
  3364G12c C00762345   9.007   4.057   1.685  2.0170 -2.0501  1.2455
  3364G12c H01462346   8.993   4.158   1.651  1.6994 -2.8265 -0.9784
  3364G12c C00662347   9.145   4.034   1.668 -0.8053 -0.1003 -0.9116
  3364G12c C00562348   9.193   3.902   1.701 -0.7794 -0.1533  0.3981
  3364G12c C00462349   9.319   3.851   1.669  1.6955 -2.0037 -0.0892
  3364G12c C00362350   9.351   3.713   1.650  0.3174 -0.9717  0.0369
  3364G12c C00262351   9.473   3.693   1.572 -0.3937  0.5445 -2.3986
  3364G12c C00162352   9.514   3.582   1.492 -0.3287  0.8759  0.6003
  3364G12c C00M62353   9.416   3.499   1.412 -2.0923 -1.9714 -0.0311
  3364G12c C00L62354   9.296   3.457   1.466  0.9780  1.0072 -0.9880
  3364G12c C00R62355   9.201   3.383   1.393  0.1155  0.8808 -0.3753
  3364G12c C00Q62356   9.200   3.320   1.257 -0.3474  1.2450 -1.9554
  3364G12c C00V62357   9.071   3.264   1.217  0.2219  0.6437 -1.2315
  3364G12c C00U62358   8.957   3.281   1.300  0.6496 -0.8696  1.1751
  3364G12c C00T62359   8.962   3.349   1.415  0.2176  0.2941  0.2027
  3364G12c C01662360   8.858   3.395   1.482 -0.9420 -0.9735 -0.8092
  3364G12c C01562361   8.730   3.362   1.436  0.4184  0.2471 -0.3951
  3364G12c C01062362   8.719   3.296   1.305  0.0410 -0.6743 -1.0225
  3364G12c C01162363   8.595   3.238   1.289 -2.0225 -0.0177 -0.5137
  3364G12c H00562364   8.572   3.174   1.205 -6.3176  0.6978  0.0202
  3364G12c C01262365   8.478   3.277   1.360 -1.4479  1.0153  1.1426
  3364G12c C01762366   8.353   3.218   1.340 -0.7835  0.9707 -0.3923
  3364G12c O00262367   8.293   3.141   1.432 -0.1973 -0.0427 -0.9991
  3364G12c H00462368   8.344   3.102   1.502 -0.4931  1.8058  0.2663
  3364G12c C01862369   8.304   3.235   1.220  0.8636 -0.2756  0.4611
  3364G12c O00162370   8.333   3.315   1.124  0.9040 -0.2334 -1.4775
  3364G12c H00362371   8.285   3.266   1.059  0.6796 -1.9939 -0.0138
  3364G12c C01962372   8.160   3.183   1.184 -0.2487  1.3816  1.1456
  3364G12c H00262373   8.148   3.099   1.253 -1.0173  1.0620  0.6188
  3364G12c H00162374   8.081   3.249   1.220 -2.4277 -1.0644  0.9526
  3364G12c O00062375   8.115   3.149   1.049  1.1349 -0.2758 -0.5930
  3364G12c C01A62376   8.146   3.025   0.995  0.9710 -0.2919 -1.3643
  3364G12c C02K62377   8.264   3.017   0.924 -0.4910  0.3172 -0.8277
  3364G12c O00G62378   8.343   3.129   0.881  0.3435 -0.4353 -0.6366
  3364G12c C02M62379   8.387   3.143   0.751 -0.3549 -0.4399 -1.5191
  3364G12c H01G62380   8.462   3.217   0.778 -2.2576 -1.2587  7.4233
  3364G12c H01F62381   8.304   3.211   0.731  0.0099 -0.3206 -2.6706
  3364G12c H01E62382   8.418   3.056   0.693  3.0960 -2.0016  2.4343
  3364G12c C02J62383   8.308   2.886   0.907 -0.5545 -0.1081 -0.3081
  3364G12c H01H62384   8.401   2.894   0.853 -1.7255  3.5546 -1.9037
  3364G12c C02I62385   8.247   2.769   0.962 -0.7323  1.4343  2.4050
  3364G12c C02N62386   8.289   2.634   0.933 -0.4660  0.6750 -0.7625
  3364G12c H01M62387   8.319   2.569   1.014  2.2017  2.1450 -0.5046
  3364G12c C02O62388   8.269   2.579   0.816  0.3507  0.3670 -0.4244
  3364G12c H01L62389   8.301   2.478   0.795  0.4107  0.9073 -3.1174
  3364G12c C02P62390   8.197   2.651   0.699  0.8618  1.1118 -0.8861
  3364G12c H01K62391   8.186   2.756   0.669  6.7919  2.0304 -0.4155
  3364G12c H01J62392   8.271   2.637   0.620 -0.9155 -2.7365 -1.9701
  3364G12c O00H62393   8.081   2.589   0.642  0.1858  0.2021 -0.0331
  3364G12c H01I62394   8.065   2.664   0.587 -5.2038 -2.8354 -3.0677
  3364G12c C02H62395   8.123   2.787   1.020  0.2238  0.8553  0.1579
  3364G12c H01C62396   8.083   2.690   1.042 -3.0465  1.9146 -0.7478
  3364G12c C02L62397   8.063   2.917   1.035 -1.4393 -0.0214 -1.0523
  3364G12c H01D62398   7.963   2.916   1.076 -0.4444 -5.7120  1.6675
  3364G12c C01362399   8.501   3.354   1.473 -0.4664 -0.0148 -1.1635
  3364G12c H00062400   8.404   3.354   1.520 -2.0672  5.2699 -4.0139
  3364G12c C01462401   8.621   3.415   1.503 -0.5747  0.9050  0.5223
  3364G12c C00F62402   8.624   3.500   1.618 -0.0840 -0.8680 -0.0297
  3364G12c C00H62403   8.870   3.480   1.594  0.0289  0.8461  1.1195
  3364G12c C00I62404   8.999   3.508   1.647  1.6917  0.8010  1.0546
  3364G12c C00J62405   9.105   3.455   1.585 -0.1702  0.7376  0.2251
  3364G12c C00Z62406   8.832   3.261   1.242 -0.1627 -0.3503  0.4955
  3364G12c C00Y62407   8.817   3.219   1.108 -0.2270 -0.4088 -0.7211
  3364G12c H00662408   8.726   3.182   1.063  2.5600 -7.0315 -1.5306
  3364G12c C00X62409   8.923   3.204   1.028  0.3329  1.1403 -0.4688
  3364G12c O00362410   8.917   3.175   0.898  1.7427 -0.5949  1.2704
  3364G12c C01B62411   8.832   3.276   0.825  0.1037 -1.0693  1.1382
  3364G12c H00962412   8.739   3.234   0.863 -0.4283  0.3745  1.4691
  3364G12c H00862413   8.855   3.381   0.843  2.0670 -0.3945 -4.2173
  3364G12c H00762414   8.812   3.254   0.720  0.6545 -1.9830  1.2250
  3364G12c C00W62415   9.047   3.229   1.075 -0.0664 -1.1468 -0.6719
  3364G12c O00462416   9.157   3.219   0.992 -0.0311  0.8907 -0.7508
  3364G12c C01C62417   9.291   3.240   1.040  1.0462 -0.2165 -0.7500
  3364G12c H00A62418   9.370   3.167   1.031 -0.4011 -1.6967 -1.7090
  3364G12c C00P62419   9.295   3.329   1.152 -0.3156 -2.3091  1.1376
  3364G12c C00O62420   9.400   3.431   1.160 -0.8200  0.2314 -1.4356
  3364G12c C01D62421   9.436   3.493   1.045 -0.4966  0.6547  0.2316
  3364G12c H00S62422   9.409   3.486   0.941 -0.1418  2.9760 -0.0416
  3364G12c C01E62423   9.542   3.595   1.028 -0.7104 -0.8183 -1.6042
  3364G12c O00862424   9.598   3.657   0.896 -0.0631 -1.9238 -0.1203
  3364G12c C01V62425   9.496   3.696   0.808  0.9784  0.6166  0.4622
  3364G12c C01Z62426   9.448   3.612   0.682 -0.2258  0.9940  0.2805
  3364G12c H00R62427   9.457   3.637   0.577 -2.5048 -4.6401 -1.4538
  3364G12c H00Q62428   9.514   3.526   0.684  2.2772  2.8787  1.8670
  3364G12c O00962429   9.307   3.566   0.688 -1.1218  0.0848 -0.9575
  3364G12c H00P62430   9.253   3.638   0.657 -3.7694 -2.1470 -1.6994
  3364G12c C01W62431   9.421   3.801   0.850  0.6779  0.3569  0.1775
  3364G12c H00O62432   9.469   3.844   0.937  0.8453 -0.7150  0.6288
  3364G12c C01X62433   9.293   3.874   0.782  0.9984  0.5033 -1.9001
  3364G12c H00N62434   9.297   3.982   0.767  0.1126  0.5180 -2.0081
  3364G12c H00M62435   9.235   3.839   0.697  1.3886 -3.0754 -0.7508
  3364G12c C01Y62436   9.197   3.860   0.914 -0.8857  0.6305 -1.2391
  3364G12c C02D62437   9.137   3.721   0.928 -0.8913 -0.7251 -0.1608
  3364G12c H01962438   9.147   3.652   0.846  1.0216 -0.6755 -0.0085
  3364G12c C02C62439   9.048   3.679   1.032 -0.7111 -1.6741 -1.2703
  3364G12c H01A62440   9.003   3.581   1.024 -2.9041 -1.3661  4.6462
  3364G12c C02B62441   9.047   3.759   1.147 -0.4135 -1.1454 -0.8351
  3364G12c O00E62442   8.985   3.717   1.261  0.4032  0.0610 -0.3939
  3364G12c H01B62443   9.018   3.772   1.331  0.4622 -0.4552 -0.0148
  3364G12c C02F62444   9.110   3.887   1.143  0.7834 -0.4078 -1.0318
  3364G12c O00F62445   9.053   3.975   1.242 -0.4952 -1.2461  0.0725
  3364G12c C02G62446   9.127   3.973   1.357 -0.4855 -0.1636  0.4233
  3364G12c H01762447   9.140   4.067   1.410 11.5708 -3.1321  4.2051
  3364G12c H01662448   9.224   3.924   1.355  1.2207  2.4518  6.6367
  3364G12c H01562449   9.097   3.895   1.427  4.9691  0.0950  3.3216
  3364G12c C02E62450   9.188   3.940   1.033  0.4368  1.1844 -0.3607
  3364G12c H01862451   9.241   4.034   1.027 -2.6511  2.9377 -0.9501
  3364G12c C01F62452   9.602   3.641   1.156 -1.1277  1.6020  0.0840
  3364G12c C01G62453   9.659   3.769   1.172 -0.8315  0.6265 -1.1734
  3364G12c H00L62454   9.690   3.829   1.088  8.1334 -0.7324  0.6826
  3364G12c C01H62455   9.685   3.818   1.294  1.3471 -0.6737 -0.2581
  3364G12c H00B62456   9.700   3.925   1.290  0.1576 -0.5536 -3.5449
  3364G12c C01I62457   9.630   3.762   1.409 -1.0005 -0.0604 -0.7882
  3364G12c C01U62458   9.584   3.564   1.272  0.6530  0.5471 -0.9601
  3364G12c C00S62459   9.080   3.375   1.467  0.6121 -1.6639  0.0246
  3364G12c C00K62460   9.234   3.503   1.585 -0.7035 -0.5332  0.6260
  3364G12c C00N62461   9.467   3.486   1.271 -0.6412 -0.4336  0.0069
  3364G12c C00062462   9.608   3.616   1.402 -1.1696 -0.0556 -0.3450
  3364G12c C01J62463   9.556   3.815   1.526 -0.4893  0.3925 -0.1865
  3364G12c C01K62464   9.536   3.952   1.567  0.5351 -0.7343  0.4291
  3364G12c C01P62465   9.617   4.064   1.547 -1.2782  0.3590 -0.6565
  3364G12c C01Q62466   9.760   4.028   1.556 -0.6185 -0.4097  0.6613
  3364G12c H00G62467   9.839   4.072   1.497  0.1514 -4.6968 -1.6805
  3364G12c C01R62468   9.789   3.949   1.656  0.1904 -1.8131  2.5358
  3364G12c H00F62469   9.709   3.928   1.725 -0.5086  0.4754  2.4767
  3364G12c C01S62470   9.926   3.889   1.683 -0.0094 -0.2278  1.3535
  3364G12c H00E62471   9.994   3.946   1.746  0.7390  4.4061 -3.3443
  3364G12c H00D62472   9.892   3.793   1.722  0.8225 -0.5905  1.1915
  3364G12c O00562473   9.985   3.855   1.564  0.4141 -0.3023  1.4548
  3364G12c H00C62474  10.073   3.879   1.540  0.4774  1.6107  3.4037
  3364G12c C01O62475   9.573   4.198   1.559  0.3597 -0.3734 -1.7277
  3364G12c H00H62476   9.630   4.289   1.546  3.2567 -1.2821  3.1312
  3364G12c C01N62477   9.445   4.224   1.562  0.1015  0.8755  0.5629
  3364G12c O00662478   9.379   4.353   1.544 -0.4063  1.3945  0.7143
  3364G12c C01T62479   9.247   4.354   1.482  1.0920 -1.0617  0.5970
  3364G12c H00K62480   9.250   4.280   1.403  6.9751 -1.4054  0.9333
  3364G12c H00J62481   9.212   4.446   1.436  0.3977 -3.0077 -2.9110
  3364G12c H00I62482   9.179   4.352   1.567  3.5680  2.1682  2.8095
  3364G12c C01M62483   9.366   4.115   1.612 -0.0859  0.5486  0.9639
  3364G12c C02062484   9.256   3.619   1.677  0.2054  0.7841 -0.7144
  3364G12c C02162485   9.143   3.676   1.748  2.6557 -0.0619 -0.4734
  3364G12c C01L62486   9.407   3.967   1.631  1.3398 -0.6643 -0.2669
  3364G12c O00762487   9.238   4.136   1.651 -0.1488 -0.3869 -1.3808
  3364G12c C02262488   9.115   3.811   1.761 -0.2582  0.6253 -0.4842
  3364G12c C02362489   9.007   3.620   1.736 -0.7775 -0.4003 -0.7173
  3364G12c C00G62490   8.755   3.546   1.659  0.9836  1.3510 -1.0993
  3364G12c C00E62491   8.504   3.557   1.691 -0.7448  1.0024  0.0019
  3364G12c O00A62492   8.372   3.518   1.655 -0.7801 -1.5209 -0.9142
  3364G12c C02462493   8.333   3.584   1.525  0.1661  1.8900  0.0052
  3364G12c H00V62494   8.398   3.591   1.438  4.6569  5.1077  3.3460
  3364G12c H00U62495   8.352   3.691   1.536  0.8770  1.6908  0.7913
  3364G12c H00T62496   8.232   3.569   1.486 -0.3306  4.1102  0.3808
  3374G12c C00D62497   3.468   3.028   6.427  0.7648  0.2304 -1.1612
  3374G12c O00B62498   3.496   2.946   6.321 -1.0269  1.3037 -0.3195
  3374G12c C02562499   3.469   2.800   6.308 -0.0142 -0.5405 -1.0684
  3374G12c C02662500   3.605   2.725   6.300 -0.6854  0.0591 -1.2447
  3374G12c H00Y62501   3.659   2.753   6.390 -3.8774 -0.5177  0.9607
  3374G12c H00X62502   3.596   2.617   6.286  4.9773 -0.4140 -2.3706
  3374G12c O00C62503   3.659   2.759   6.178 -0.2063  0.4521  0.3613
  3374G12c H00W62504   3.620   2.841   6.152 -0.6729 -1.0313 -4.0336
  3374G12c C02762505   3.355   2.731   6.269  1.6617 -2.2059  1.4432
  3374G12c O00D62506   3.341   2.593   6.227 -0.3692  0.6724  1.3122
  3374G12c H00Z62507   3.417   2.613   6.174 -2.4230  0.5349 -1.8018
  3374G12c C02862508   3.232   2.821   6.232 -0.4256  0.4596 -0.7221
  3374G12c C02962509   3.159   2.884   6.331  1.0050  0.3341 -0.1084
  3374G12c H01062510   3.203   2.841   6.421 -3.1544 -3.6626  0.1912
  3374G12c C02T62511   3.050   2.962   6.320 -0.2034 -0.8598  0.6077
  3374G12c H01O62512   3.028   3.024   6.406  0.6080  2.1161 -1.2434
  3374G12c C02S62513   3.020   3.015   6.189 -0.6622 -1.0320  1.1256
  3374G12c O00J62514   2.945   3.132   6.175  0.7617  1.3228  0.5215
  3374G12c H01P62515   2.962   3.170   6.090 -1.6466 -0.7981 -0.9835
  3374G12c C02R62516   3.098   2.962   6.070 -1.0164 -0.0624 -0.5226
  3374G12c O00I62517   3.081   3.031   5.949  0.4985  0.0033  0.3269
  3374G12c C02Q62518   3.204   3.072   5.893  0.1708 -1.1040 -0.5534
  3374G12c H01N62519   3.204   3.009   5.805 -3.5789  1.2357 -2.3764
  3374G12c H01R62520   3.280   3.063   5.971 -2.2826  3.7247  2.6553
  3374G12c H01Q62521   3.204   3.177   5.864 -1.9734 -1.6667 -2.7618
  3374G12c C02A62522   3.204   2.862   6.094  0.0801 -2.1959  1.8466
  3374G12c H01162523   3.258   2.826   6.008  4.0979  5.9651  0.5042
  3374G12c C00C62524   3.431   2.985   6.556  0.4151 -0.2588  0.7896
  3374G12c H01262525   3.437   2.877   6.557  0.3012 -0.2838 -0.4285
  3374G12c C00B62526   3.383   3.094   6.639  0.1282 -0.7725  0.3883
  3374G12c C00A62527   3.305   3.068   6.759 -0.6348  0.5126  1.1804
  3374G12c C00962528   3.219   2.951   6.783 -1.5035 -1.6697 -0.0481
  3374G12c C00862529   3.206   2.828   6.726  0.6054 -0.7065  0.7577
  3374G12c H01362530   3.293   2.778   6.687  3.1711 -1.1237  6.5382
  3374G12c C00762531   3.077   2.772   6.748  0.2559  0.1942  0.0869
  3374G12c H01462532   3.057   2.671   6.714 -7.3583  1.8047 -1.0434
  3374G12c C00662533   2.960   2.826   6.816  1.3108 -0.2810 -0.4541
  3374G12c C00562534   3.000   2.949   6.877  1.4842 -1.1667  1.2859
  3374G12c C00462535   2.902   3.038   6.919 -1.0527  0.5135 -0.5443
  3374G12c C00362536   2.937   3.180   6.962 -0.3439  1.1129  0.1353
  3374G12c C00262537   2.832   3.253   7.010 -0.6108 -2.4913 -1.3960
  3374G12c C00162538   2.821   3.389   7.054  1.3911  0.7527  1.2366
  3374G12c C00M62539   2.875   3.499   6.996 -0.0210 -0.5475 -1.2132
  3374G12c C00L62540   3.021   3.493   6.985  0.8968 -0.8555  1.6745
  3374G12c C00R62541   3.091   3.585   6.887 -0.3343 -1.8955 -0.4279
  3374G12c C00Q62542   3.040   3.696   6.814  0.7335 -0.5713  0.6504
  3374G12c C00V62543   3.140   3.751   6.734 -0.6882  0.2122 -0.7479
  3374G12c C00U62544   3.248   3.671   6.687 -0.0207  0.1698  0.5328
  3374G12c C00T62545   3.274   3.542   6.720 -1.2213 -0.7676 -0.0856
  3374G12c C01662546   3.362   3.456   6.660 -0.6245  0.2030  1.3388
  3374G12c C01562547   3.421   3.498   6.549 -2.3311  0.5813  0.6858
  3374G12c C01062548   3.405   3.627   6.506  1.3904  0.6081  1.7464
  3374G12c C01162549   3.462   3.665   6.389 -1.3047  0.8775  0.7883
  3374G12c H00562550   3.456   3.754   6.327 -2.0637  2.7433  3.4693
  3374G12c C01262551   3.557   3.584   6.319  0.2151  1.3651  1.4666
  3374G12c C01762552   3.604   3.626   6.189  0.1317 -0.0250  1.5285
  3374G12c O00262553   3.587   3.525   6.091 -0.9815 -0.5015 -1.2042
  3374G12c H00462554   3.567   3.564   6.008 -3.4390  3.7681  1.1713
  3374G12c C01862555   3.637   3.760   6.156  1.0293  0.9050  0.4281
  3374G12c O00162556   3.644   3.855   6.250 -0.0644  1.0991  0.2660
  3374G12c H00362557   3.672   3.946   6.250 -5.9551  3.1447  1.8101
  3374G12c C01962558   3.669   3.800   6.007  0.3970  0.7282 -0.1673
  3374G12c H00262559   3.642   3.902   6.034  0.5297  0.6937  0.0951
  3374G12c H00162560   3.765   3.841   5.974  0.4786  0.9949  0.4063
  3374G12c O00062561   3.583   3.738   5.919 -1.1459  2.8311  0.9033
  3374G12c C01A62562   3.460   3.758   5.941  1.4446  1.0392  0.5790
  3374G12c C02K62563   3.402   3.884   5.960  1.9846 -1.4847  0.3099
  3374G12c O00G62564   3.479   3.995   5.927  1.1494  0.4927 -0.3274
  3374G12c C02M62565   3.400   4.092   5.850  0.3391  0.5643  0.3818
  3374G12c H01G62566   3.322   4.058   5.781  0.1845  4.1428 -1.3132
  3374G12c H01F62567   3.403   4.173   5.922  1.8178  0.4704  0.4397
  3374G12c H01E62568   3.461   4.103   5.760  1.5085  2.0258  1.3335
  3374G12c C02J62569   3.274   3.898   6.024  0.5769 -0.1067 -0.9033
  3374G12c H01H62570   3.237   3.996   6.047  1.9134  1.2292 -4.0692
  3374G12c C02I62571   3.183   3.790   6.058  0.5621  2.1747  0.1232
  3374G12c C02N62572   3.044   3.792   6.096 -0.2537 -0.2110 -0.4518
  3374G12c H01M62573   3.033   3.724   6.180  0.8291  4.3312  3.5570
  3374G12c C02O62574   2.954   3.878   6.037  0.4050  2.3274 -1.2370
  3374G12c H01L62575   3.010   3.934   5.964 -0.6591  5.5441  0.3062
  3374G12c C02P62576   2.814   3.915   6.093  0.9107  0.7666  0.5536
  3374G12c H01K62577   2.753   3.950   6.010 -0.2526  0.0269  1.0748
  3374G12c H01J62578   2.822   3.995   6.166  4.0228  1.1042 -0.0916
  3374G12c O00H62579   2.789   3.825   6.203 -0.1066 -0.8293 -0.5654
  3374G12c H01I62580   2.701   3.838   6.236  1.6356  8.5956  1.7084
  3374G12c C02H62581   3.245   3.670   6.029 -0.0768  0.3868  0.6465
  3374G12c H01C62582   3.178   3.586   6.021  0.2076  0.1343  0.8905
  3374G12c C02L62583   3.372   3.644   5.979  0.4182 -0.7549  0.5138
  3374G12c H01D62584   3.381   3.539   5.958  3.7326 -0.2248 -1.1872
  3374G12c C01362585   3.551   3.446   6.371  0.0889  0.9796 -0.4454
  3374G12c H00062586   3.618   3.371   6.330 -2.1417 -1.3546  0.0644
  3374G12c C01462587   3.482   3.403   6.480 -0.4026  0.8867  0.6272
  3374G12c C00F62588   3.473   3.267   6.498  0.2199 -1.4191 -2.1755
  3374G12c C00H62589   3.359   3.327   6.707  0.6594 -0.3589  1.7003
  3374G12c C00I62590   3.289   3.293   6.834 -0.1840 -0.4056  0.3041
  3374G12c C00J62591   3.236   3.400   6.902  0.1013  0.0279 -0.0481
  3374G12c C00Z62592   3.316   3.706   6.568  0.0380 -1.4123 -0.9806
  3374G12c C00Y62593   3.284   3.839   6.508 -1.0310 -1.1053 -1.2786
  3374G12c H00662594   3.355   3.878   6.437 -0.3629  0.4003  0.2007
  3374G12c C00X62595   3.197   3.927   6.577  0.7372  0.6355  0.2648
  3374G12c O00362596   3.165   4.045   6.516  1.7331 -0.6642 -0.5064
  3374G12c C01B62597   3.181   4.158   6.605  1.2289  0.4071  0.4666
  3374G12c H00962598   3.105   4.166   6.683  1.8306 -1.0595  1.2328
  3374G12c H00862599   3.167   4.221   6.518 -5.2219 -1.6554 -0.2078
  3374G12c H00762600   3.279   4.152   6.654  0.7747 -1.4220  1.2119
  3374G12c C00W62601   3.111   3.880   6.673 -0.8185  1.1887  0.1453
  3374G12c O00462602   3.021   3.967   6.729  0.5928  0.2705 -1.2492
  3374G12c C01C62603   2.911   3.912   6.790 -0.4467  0.9313  0.2964
  3374G12c H00A62604   2.814   3.959   6.795 -3.9430 -5.7409  1.3643
  3374G12c C00P62605   2.925   3.770   6.830 -1.6947 -0.8602 -0.2386
  3374G12c C00O62606   2.799   3.708   6.868  0.5259  0.5804  0.2592
  3374G12c C01D62607   2.673   3.747   6.821 -0.0617 -0.1179  0.8992
  3374G12c H00S62608   2.656   3.817   6.741  2.5407  2.1347  2.2332
  3374G12c C01E62609   2.556   3.698   6.842  0.8259  0.1515  0.9508
  3374G12c O00862610   2.459   3.745   6.752 -1.2986 -0.0430 -0.0296
  3374G12c C01V62611   2.404   3.685   6.652  1.2316  1.2663 -0.6560
  3374G12c C01Z62612   2.293   3.782   6.622  1.0831 -1.1363  0.6840
  3374G12c H00R62613   2.217   3.787   6.701  0.9824  5.9451  0.4127
  3374G12c H00Q62614   2.327   3.884   6.642 -1.5036  0.1623 -1.1974
  3374G12c O00962615   2.232   3.774   6.508  0.5636 -1.1126  1.1267
  3374G12c H00P62616   2.147   3.737   6.527  0.8559 -2.8773 -0.8285
  3374G12c C01W62617   2.460   3.575   6.596 -0.3109 -1.2634 -1.3883
  3374G12c H00O62618   2.550   3.538   6.644 -2.7205 -3.4884  1.7416
  3374G12c C01X62619   2.444   3.502   6.474  0.9692  0.2921  2.8560
  3374G12c H00N62620   2.421   3.574   6.396 -0.4492  0.6069  3.5402
  3374G12c H00M62621   2.503   3.412   6.455 -7.2175 -4.8555 -1.2307
  3374G12c C01Y62622   2.303   3.446   6.467  0.2055  0.3239 -0.3470
  3374G12c C02D62623   2.265   3.339   6.551 -0.1576 -0.4967 -0.1601
  3374G12c H01962624   2.355   3.314   6.607  1.7579  0.9305 -2.5335
  3374G12c C02C62625   2.127   3.281   6.547 -0.5150 -0.5161  2.3296
  3374G12c H01A62626   2.107   3.186   6.594 -1.0763 -0.8726  1.3846
  3374G12c C02B62627   2.035   3.318   6.447  0.2737  2.5630 -0.0797
  3374G12c O00E62628   1.927   3.238   6.424 -0.4834 -1.0259 -0.5908
  3374G12c H01B62629   1.891   3.255   6.338 -3.5368  5.3751  1.6966
  3374G12c C02F62630   2.091   3.405   6.341  1.0250  0.9845 -0.3404
  3374G12c O00F62631   2.022   3.391   6.214 -1.5920  0.2943 -0.5480
  3374G12c C02G62632   1.922   3.497   6.221  0.9908 -0.1727  0.3311
  3374G12c H01762633   1.948   3.594   6.264  5.5517 -0.6383 -1.0904
  3374G12c H01662634   1.844   3.448   6.280  2.2130 -0.6923  1.5272
  3374G12c H01562635   1.863   3.515   6.131 -0.4125  0.5493  1.3741
  3374G12c C02E62636   2.214   3.463   6.348  1.2607  0.4000 -1.7690
  3374G12c H01862637   2.222   3.539   6.271 -3.9876 -1.2826 -4.2288
  3374G12c C01F62638   2.547   3.573   6.916 -2.1409 -0.1914  1.2925
  3374G12c C01G62639   2.442   3.491   6.958  0.4506  1.1241  2.1080
  3374G12c H00L62640   2.336   3.511   6.955  0.4508  1.0707 -3.2812
  3374G12c C01H62641   2.453   3.348   7.009 -0.0447 -0.2573 -1.2038
  3374G12c H00B62642   2.368   3.283   6.996 -0.3054 -0.0360 -0.6223
  3374G12c C01I62643   2.602   3.301   7.016 -0.8646 -0.6044  0.8386
  3374G12c C01U62644   2.657   3.537   6.984 -0.9180  0.2719  0.8570
  3374G12c C00S62645   3.205   3.512   6.831  0.1811  0.1783 -0.5668
  3374G12c C00K62646   3.095   3.368   6.939  0.9679 -0.3037 -0.6311
  3374G12c C00N62647   2.786   3.595   6.953 -0.4589  1.8235 -1.5443
  3374G12c C00062648   2.676   3.416   7.048 -0.2770 -0.8129 -0.4209
  3374G12c C01J62649   2.700   3.196   7.014 -1.6167  1.2102 -0.0572
  3374G12c C01K62650   2.677   3.052   7.028  0.1881 -0.7134  0.2693
  3374G12c C01P62651   2.562   2.972   7.073 -2.0243  1.2786  1.1744
  3374G12c C01Q62652   2.470   3.030   7.161 -0.0167  0.3265  0.6110
  3374G12c H00G62653   2.523   3.109   7.213 -1.5735  3.3110 -2.1374
  3374G12c C01R62654   2.341   2.980   7.180 -0.4958 -0.6261 -0.3007
  3374G12c H00F62655   2.295   2.905   7.119 -0.4354 -4.3606  3.9819
  3374G12c C01S62656   2.226   3.064   7.233 -1.3529  0.8463 -0.0806
  3374G12c H00E62657   2.134   3.006   7.241 -2.3355  2.6129  2.0154
  3374G12c H00D62658   2.247   3.115   7.327 -3.1540  0.7180  0.4054
  3374G12c O00562659   2.184   3.160   7.147 -0.7927  0.1102  0.7037
  3374G12c H00C62660   2.252   3.161   7.082 -0.0751  2.9275  1.4307
  3374G12c C01O62661   2.544   2.832   7.027  0.1166 -2.4823 -0.3403
  3374G12c H00H62662   2.454   2.783   7.060  1.4796 -7.6780 -3.8508
  3374G12c C01N62663   2.630   2.776   6.947  0.2813 -1.5016 -0.6313
  3374G12c O00662664   2.597   2.653   6.923  0.6296  0.3481 -0.6869
  3374G12c C01T62665   2.666   2.547   6.848  1.1367 -1.1725  0.0706
  3374G12c H00K62666   2.617   2.523   6.754  1.9582 -2.0105 -0.1466
  3374G12c H00J62667   2.766   2.563   6.806  1.6238  7.5438  3.4303
  3374G12c H00I62668   2.627   2.446   6.853  0.4526 -0.8281  2.0795
  3374G12c C01M62669   2.734   2.848   6.894 -1.2276 -0.5124 -0.1047
  3374G12c C02062670   3.069   3.235   6.943  0.4454 -1.7449  0.6256
  3374G12c C02162671   3.163   3.124   6.938 -0.3860 -0.5664 -0.4654
  3374G12c C01L62672   2.776   2.984   6.942  1.5532  1.5643  0.3679
  3374G12c O00762673   2.835   2.777   6.825 -0.3822  0.4946  1.2913
  3374G12c C02262674   3.129   2.997   6.883 -0.3252  0.9301 -0.3383
  3374G12c C02362675   3.290   3.156   6.872  1.4753 -0.2526  2.1121
  3374G12c C00G62676   3.397   3.228   6.611 -1.6673 -0.2204 -0.4295
  3374G12c C00E62677   3.490   3.168   6.403  1.0370  0.8445  0.9224
  3374G12c O00A62678   3.512   3.188   6.261 -0.7169 -0.9809  1.3617
  3374G12c C02462679   3.408   3.246   6.174 -0.1689  0.7463  0.2581
  3374G12c H00V62680   3.361   3.338   6.207 -1.6271  1.0105 -2.4389
  3374G12c H00U62681   3.309   3.201   6.165 -1.2257  3.2293 -0.9602
  3374G12c H00T62682   3.394   3.224   6.068 -7.1501 -5.2148  2.0138
  3384G12c C00D62683  11.616   2.170   7.400  1.4439 -1.0920  1.4292
  3384G12c O00B62684  11.746   2.213   7.411 -0.2179  0.6091 -0.1050
  3384G12c C02562685  11.795   2.262   7.294  0.0920  0.4664  0.0582
  3384G12c C02662686  11.822   2.144   7.193  0.4287 -0.1509 -1.5167
  3384G12c H00Y62687  11.887   2.176   7.111 -1.5728  0.0959 -3.0489
  3384G12c H00X62688  11.751   2.078   7.143 -0.4380 -0.6216  0.3172
  3384G12c O00C62689  11.927   2.077   7.253 -0.4371  1.4596  0.0463
  3384G12c H00W62690  11.923   2.064   7.346 -1.3176 -1.9821 -0.4065
  3384G12c C02762691  11.849   2.392   7.285 -1.3650  0.2142  0.1421
  3384G12c O00D62692  11.815   2.465   7.388 -0.3818 -0.3939 -0.6729
  3384G12c H00Z62693  11.743   2.414   7.422  1.0101 -3.1286 -1.6003
  3384G12c C02862694  11.963   2.411   7.180  1.0217 -2.4048 -2.1844
  3384G12c C02962695  11.935   2.388   7.040  1.1651 -1.7090  0.4905
  3384G12c H01062696  11.835   2.376   7.002  0.3682 -0.4214  2.0903
  3384G12c C02T62697  12.017   2.397   6.924 -0.3840  0.5492 -0.3588
  3384G12c H01O62698  11.969   2.378   6.829  4.0319  0.9371 -2.8158
  3384G12c C02S62699  12.158   2.408   6.953  0.3136 -0.0577  0.4842
  3384G12c O00J62700  12.266   2.377   6.868  1.7765 -0.3368 -1.1003
  3384G12c H01P62701  12.315   2.442   6.916 -2.8024 -1.4987  5.8523
  3384G12c C02R62702  12.195   2.467   7.084  1.7015  0.3118 -0.8290
  3384G12c O00I62703  12.322   2.517   7.097  0.7741  0.5515 -1.0429
  3384G12c C02Q62704  12.336   2.621   7.182  0.6022 -1.0998 -0.3263
  3384G12c H01N62705  12.352   2.714   7.128  5.9130 -0.2148  2.3653
  3384G12c H01R62706  12.253   2.684   7.214  2.4377  0.4609  1.5178
  3384G12c H01Q62707  12.392   2.609   7.275  0.4444 -5.3986 -0.7049
  3384G12c C02A62708  12.102   2.477   7.192 -0.1183 -0.5343 -0.6182
  3384G12c H01162709  12.106   2.543   7.278  0.8966 -3.1320  1.3879
  3384G12c C00C62710  11.572   2.040   7.373 -1.5315 -0.8060  0.0978
  3384G12c H01262711  11.653   1.972   7.395  1.8438  1.2170 -5.0749
  3384G12c C00B62712  11.438   1.991   7.382  0.0696 -1.0119  0.9133
  3384G12c C00A62713  11.394   1.864   7.410 -0.6319  0.3978  0.0386
  3384G12c C00962714  11.447   1.745   7.364  0.4971  0.6825 -0.2850
  3384G12c C00862715  11.545   1.699   7.267 -0.7991 -0.7412 -1.5096
  3384G12c H01362716  11.630   1.766   7.261  1.3477 -3.3346 -0.9616
  3384G12c C00762717  11.536   1.565   7.190  0.7566 -1.5082  0.8513
  3384G12c H01462718  11.611   1.513   7.132  1.4783 -1.0267  1.3415
  3384G12c C00662719  11.409   1.509   7.220 -0.1171  0.1026 -0.5529
  3384G12c C00562720  11.299   1.548   7.302  1.4726 -1.6404 -0.3661
  3384G12c C00462721  11.179   1.487   7.315 -0.1843 -0.1826  1.3502
  3384G12c C00362722  11.072   1.561   7.360 -0.7070  0.8324  0.4777
  3384G12c C00262723  10.939   1.518   7.322  0.2112  0.2209  1.2921
  3384G12c C00162724  10.809   1.550   7.357  0.7373 -0.9611  0.6465
  3384G12c C00M62725  10.753   1.686   7.372  1.6385  0.1658  0.6506
  3384G12c C00L62726  10.831   1.798   7.422 -1.4309  0.1076  0.0575
  3384G12c C00R62727  10.810   1.941   7.367 -2.0373 -0.7676 -0.7770
  3384G12c C00Q62728  10.714   1.996   7.280  0.4693 -0.6633 -0.8423
  3384G12c C00V62729  10.751   2.129   7.247  0.6117 -1.0895  0.6905
  3384G12c C00U62730  10.879   2.197   7.276 -0.4415 -2.4319  0.9153
  3384G12c C00T62731  10.979   2.116   7.330  0.6337 -1.4965  1.7382
  3384G12c C01662732  11.105   2.159   7.359 -1.0459 -1.2269 -1.1105
  3384G12c C01562733  11.139   2.282   7.310 -0.0519  0.3759 -1.2918
  3384G12c C01062734  11.044   2.358   7.247 -0.0509  0.4284  0.5806
  3384G12c C01162735  11.071   2.503   7.217 -0.1246 -0.5988 -2.6839
  3384G12c H00562736  11.012   2.563   7.150 -2.5754 -5.2418 -4.9223
  3384G12c C01262737  11.209   2.554   7.226  0.7507 -0.0306 -0.8126
  3384G12c C01762738  11.253   2.687   7.210 -0.2094  0.5934 -1.0556
  3384G12c O00262739  11.359   2.742   7.274 -0.2793  0.4571 -0.1442
  3384G12c H00462740  11.354   2.830   7.240  2.7494  0.7183 -0.0118
  3384G12c C01862741  11.193   2.775   7.119 -0.4526  0.8984 -0.6842
  3384G12c O00162742  11.089   2.730   7.037 -0.1349 -0.2562 -0.7475
  3384G12c H00362743  11.056   2.643   7.020 -4.4946  1.8301 -4.0944
  3384G12c C01962744  11.269   2.908   7.088 -0.1674 -0.3074 -0.9848
  3384G12c H00262745  11.359   2.900   7.027 -0.7869 -6.8260 -1.3764
  3384G12c H00162746  11.190   2.979   7.061 -2.6672 -3.3666 -2.0441
  3384G12c O00062747  11.304   2.960   7.207  0.5531  0.4211 -0.8274
  3384G12c C01A62748  11.343   3.087   7.231 -0.3324  0.1924 -0.7684
  3384G12c C02K62749  11.413   3.112   7.353 -0.8192 -1.1455  0.0852
  3384G12c O00G62750  11.448   3.031   7.456 -0.7878 -0.0850  0.2287
  3384G12c C02M62751  11.533   2.934   7.441 -0.0015  0.0221 -1.7360
  3384G12c H01G62752  11.511   2.838   7.489 -2.4834  1.0549 -0.7018
  3384G12c H01F62753  11.554   2.905   7.338 -6.0300  5.7236 -4.9492
  3384G12c H01E62754  11.624   2.976   7.483  3.0147 -4.3627 -3.4754
  3384G12c C02J62755  11.460   3.242   7.371 -0.3073 -0.8768 -0.7850
  3384G12c H01H62756  11.522   3.276   7.454  3.2883 -1.3302 -3.1526
  3384G12c C02I62757  11.426   3.357   7.297 -1.0636  1.5049 -1.2989
  3384G12c C02N62758  11.461   3.497   7.316  0.0709 -0.4291 -1.0439
  3384G12c H01M62759  11.397   3.561   7.256 -5.5757 -0.2137  4.6032
  3384G12c C02O62760  11.560   3.532   7.394  0.6186 -0.4094  0.5971
  3384G12c H01L62761  11.631   3.470   7.447 -6.8507 -5.5420  5.7229
  3384G12c C02P62762  11.580   3.675   7.405  0.0234 -2.4162 -0.5216
  3384G12c H01K62763  11.679   3.699   7.365 -0.8272  0.6642 -0.8550
  3384G12c H01J62764  11.500   3.739   7.369  5.4498  3.1540 -3.6562
  3384G12c O00H62765  11.589   3.712   7.549  1.3366  0.1367 -0.4467
  3384G12c H01I62766  11.633   3.645   7.600 -0.0237 -0.7819 -0.4607
  3384G12c C02H62767  11.376   3.310   7.168 -0.7737 -0.6843 -0.1894
  3384G12c H01C62768  11.390   3.366   7.076  3.9828  0.7384  1.2348
  3384G12c C02L62769  11.340   3.171   7.135 -0.4192  1.2734 -0.0185
  3384G12c H01D62770  11.300   3.153   7.036 -0.7248  0.3722  0.2728
  3384G12c C01362771  11.291   2.464   7.289  2.0172 -1.1101  1.0345
  3384G12c H00062772  11.392   2.494   7.269  0.0631  3.4837 -2.7481
  3384G12c C01462773  11.269   2.332   7.342  0.3320  0.5032  1.3015
  3384G12c C00F62774  11.373   2.235   7.390  2.0573  0.3521 -0.7714
  3384G12c C00H62775  11.198   2.057   7.402  1.8222 -0.4730 -0.1663
  3384G12c C00I62776  11.158   1.939   7.445 -0.6580 -0.0943  0.3538
  3384G12c C00J62777  11.019   1.917   7.427  0.3909  0.5593 -1.1133
  3384G12c C00Z62778  10.905   2.322   7.235 -0.3953 -1.1255 -0.4649
  3384G12c C00Y62779  10.805   2.390   7.171  0.7740  0.4575  1.5993
  3384G12c H00662780  10.843   2.487   7.141  6.7041 -1.6095  1.6718
  3384G12c C00X62781  10.676   2.352   7.153  0.3204  1.8327  1.0755
  3384G12c O00362782  10.575   2.433   7.079 -1.1169  0.5072 -0.5271
  3384G12c C01B62783  10.491   2.493   7.169  0.3895 -0.0889 -1.8480
  3384G12c H00962784  10.408   2.502   7.098 -2.9526 -3.3946  1.3833
  3384G12c H00862785  10.487   2.595   7.208 -4.3532 -1.0231  0.5890
  3384G12c H00762786  10.465   2.412   7.238  0.7980  0.6078 -0.8602
  3384G12c C00W62787  10.661   2.214   7.171 -0.1977 -0.8473  0.4016
  3384G12c O00462788  10.539   2.158   7.143  0.1140 -0.8498  0.6600
  3384G12c C01C62789  10.534   2.022   7.143  0.9746  1.8064 -0.3218
  3384G12c H00A62790  10.474   1.982   7.062  0.1284 -3.0134  2.4541
  3384G12c C00P62791  10.603   1.927   7.223  0.6261  1.7451 -0.0906
  3384G12c C00O62792  10.570   1.782   7.216  0.5772 -0.4941 -1.8124
  3384G12c C01D62793  10.490   1.747   7.104  0.3296 -1.2340 -3.0323
  3384G12c H00S62794  10.409   1.799   7.054 -1.8262 -0.3251  1.2024
  3384G12c C01E62795  10.525   1.622   7.043 -1.3225  0.9270  0.2973
  3384G12c O00862796  10.455   1.580   6.923 -1.1432 -0.4041 -0.4258
  3384G12c C01V62797  10.388   1.655   6.825 -0.2069 -2.4295  0.0968
  3384G12c C01Z62798  10.477   1.752   6.749 -0.1199 -0.6673  0.3002
  3384G12c H00R62799  10.581   1.771   6.775  0.2741 -1.7031 -0.4588
  3384G12c H00Q62800  10.487   1.727   6.643 -3.7227 -4.4515  0.7285
  3384G12c O00962801  10.424   1.893   6.761  0.3302  0.2585 -0.5250
  3384G12c H00P62802  10.350   1.922   6.711 -1.6243 -2.2755  0.7240
  3384G12c C01W62803  10.262   1.603   6.811 -0.1824  0.3712 -0.3939
  3384G12c H00O62804  10.245   1.515   6.872 -1.3036  0.6275 -0.3179
  3384G12c C01X62805  10.132   1.647   6.748 -0.5508  0.1894 -2.1751
  3384G12c H00N62806  10.059   1.591   6.807  3.4481  2.6336  5.8637
  3384G12c H00M62807  10.128   1.751   6.780  4.5328  2.1091 -6.9976
  3384G12c C01Y62808  10.122   1.645   6.608 -0.7652 -0.8902 -2.0179
  3384G12c C02D62809  10.012   1.619   6.544  0.4015 -0.9593  0.1993
  3384G12c H01962810   9.923   1.649   6.597  1.3168  1.9007  0.2459
  3384G12c C02C62811   9.993   1.617   6.399  0.6360 -1.5690 -1.4486
  3384G12c H01A62812   9.893   1.649   6.372  1.3586  0.1289 -2.1188
  3384G12c C02B62813  10.122   1.618   6.331 -0.7254  0.1854 -0.8450
  3384G12c O00E62814  10.137   1.632   6.193 -0.8818 -0.6864 -0.5896
  3384G12c H01B62815  10.208   1.583   6.154 -1.1074 -1.5120  0.0497
  3384G12c C02F62816  10.235   1.571   6.398 -1.5134 -0.0298 -0.8536
  3384G12c O00F62817  10.349   1.598   6.329  0.4515 -0.3785  1.0987
  3384G12c C02G62818  10.383   1.737   6.319 -0.6929  0.9210  2.1873
  3384G12c H01762819  10.452   1.760   6.399 -0.2478 -3.6352  3.2496
  3384G12c H01662820  10.309   1.786   6.381 -4.7894 -0.7144 -1.0956
  3384G12c H01562821  10.343   1.794   6.235 -3.9801 -0.2268  2.8918
  3384G12c C02E62822  10.236   1.593   6.536  0.0471  0.9719 -1.2460
  3384G12c H01862823  10.334   1.556   6.564  1.4343  4.9838 -0.5165
  3384G12c C01F62824  10.613   1.530   7.104  0.3679  0.3545  0.1196
  3384G12c C01G62825  10.677   1.419   7.031  0.0177 -1.3917  2.0934
  3384G12c H00L62826  10.683   1.427   6.924  1.7501  1.5414  2.3613
  3384G12c C01H62827  10.757   1.340   7.112  0.1151 -1.2479 -0.6470
  3384G12c H00B62828  10.826   1.290   7.046  2.7669  5.0580 -3.0560
  3384G12c C01I62829  10.792   1.355   7.260  0.5644 -0.0482  2.4052
  3384G12c C01U62830  10.639   1.552   7.234 -0.0624 -0.3118  0.2618
  3384G12c C00S62831  10.927   2.002   7.381  0.1356 -0.3602 -0.7251
  3384G12c C00K62832  10.973   1.786   7.426  0.2190  1.7918 -1.5504
  3384G12c C00N62833  10.639   1.685   7.279  0.9292 -0.2466 -2.6191
  3384G12c C00062834  10.721   1.461   7.302  0.6250  0.0437 -0.8422
  3384G12c C01J62835  10.936   1.376   7.284 -0.5031  1.4240 -1.1813
  3384G12c C01K62836  11.041   1.297   7.242  0.5398  0.5133 -0.5468
  3384G12c C01P62837  11.051   1.161   7.206 -0.9794 -0.2819 -0.8324
  3384G12c C01Q62838  10.926   1.076   7.196 -0.7291 -1.0109  0.3969
  3384G12c H00G62839  10.827   1.099   7.158  1.0733  4.1314 -1.5274
  3384G12c C01R62840  10.921   0.955   7.259  0.3006 -0.1337 -0.2945
  3384G12c H00F62841  11.005   0.895   7.292  3.4560  4.3928  0.4178
  3384G12c C01S62842  10.802   0.888   7.330  1.2342 -1.2017 -0.6730
  3384G12c H00E62843  10.780   0.791   7.286  1.5198 -3.2982  3.5701
  3384G12c H00D62844  10.813   0.854   7.433  1.3172 -6.4531 -2.3006
  3384G12c O00562845  10.691   0.972   7.321 -0.7595  0.1879  0.0377
  3384G12c H00C62846  10.707   1.058   7.357 -3.0267  0.2812  0.8832
  3384G12c C01O62847  11.175   1.092   7.187  1.9559  0.1694 -0.4988
  3384G12c H00H62848  11.185   0.985   7.192 -1.0393 -0.0333  7.1865
  3384G12c C01N62849  11.295   1.165   7.175  1.6265  0.1025  0.9230
  3384G12c O00662850  11.412   1.112   7.136 -0.2404 -0.4104 -0.4893
  3384G12c C01T62851  11.415   1.009   7.049 -1.1128  0.3776 -0.2005
  3384G12c H00K62852  11.495   0.998   6.976  1.9651  3.4991  2.5382
  3384G12c H00J62853  11.353   1.059   6.974 -2.8740 -4.7173 -2.3188
  3384G12c H00I62854  11.349   0.923   7.065 -0.3678 -0.2329 -0.4129
  3384G12c C01M62855  11.300   1.295   7.224  0.8443  0.2280  1.4048
  3384G12c C02062856  11.078   1.689   7.426 -0.3748  1.7670  1.1647
  3384G12c C02162857  11.219   1.722   7.461  0.0399  0.3851 -0.6962
  3384G12c C01L62858  11.171   1.363   7.258 -0.6506  0.6532 -0.2269
  3384G12c O00762859  11.410   1.376   7.173  1.8338 -1.3199  0.3642
  3384G12c C02262860  11.324   1.657   7.399 -0.5717  0.0949 -0.5043
  3384G12c C02362861  11.262   1.853   7.483 -0.1100  0.4843 -0.1837
  3384G12c C00G62862  11.331   2.090   7.400  0.7789 -0.5233  1.0083
  3384G12c C00E62863  11.512   2.275   7.415  1.4250  0.1460 -0.0855
  3384G12c O00A62864  11.546   2.402   7.464  0.1702  0.8317 -0.7602
  3384G12c C02462865  11.506   2.422   7.596  0.0079  0.4451  0.0292
  3384G12c H00V62866  11.577   2.501   7.621 -0.7701  3.5129 -6.3230
  3384G12c H00U62867  11.526   2.354   7.678  5.1993  0.2718 -1.1522
  3384G12c H00T62868  11.405   2.463   7.598 -0.2125  0.0487 -1.9133
  3394G12c C00D62869   8.988  10.466   7.692  0.3565  1.7616 -0.8593
  3394G12c O00B62870   8.927  10.464   7.807 -0.1893 -0.3927  0.4310
  3394G12c C02562871   8.794  10.456   7.839 -0.9082 -1.6882  0.1323
  3394G12c C02662872   8.748  10.313   7.808 -1.8419  1.2064  1.2020
  3394G12c H00Y62873   8.674  10.269   7.874 -5.0492  4.2509 -0.2038
  3394G12c H00X62874   8.820  10.276   7.881  0.0441 -1.4500 -1.8485
  3394G12c O00C62875   8.783  10.263   7.669 -0.3854  1.7516 -0.0547
  3394G12c H00W62876   8.870  10.226   7.669  0.5599  3.7426 -4.0052
  3394G12c C02762877   8.718  10.548   7.904 -0.2395 -1.1759  0.4334
  3394G12c O00D62878   8.786  10.662   7.929 -1.2769 -0.3614 -1.6360
  3394G12c H00Z62879   8.846  10.671   7.856 -1.6091  4.4347 -1.4640
  3394G12c C02862880   8.579  10.533   7.957  0.8627 -0.3249  0.7706
  3394G12c C02962881   8.549  10.633   8.055 -1.1417  1.0740 -2.1218
  3394G12c H01062882   8.633  10.693   8.087  2.8189 -1.1474 -7.7547
  3394G12c C02T62883   8.438  10.621   8.145  1.6199  0.2987 -1.2302
  3394G12c H01O62884   8.413  10.677   8.233 -1.6681 -5.9893  2.2033
  3394G12c C02S62885   8.327  10.545   8.102  0.2912  1.2661  0.2823
  3394G12c O00J62886   8.258  10.517   8.209  0.0824 -2.4471 -0.9483
  3394G12c H01P62887   8.271  10.423   8.208 -0.1596 -2.8805  6.7058
  3394G12c C02R62888   8.356  10.441   8.013  1.2679 -0.5084 -0.2596
  3394G12c O00I62889   8.292  10.321   8.045 -1.2870 -0.6452 -0.6113
  3394G12c C02Q62890   8.299  10.196   7.965  1.6589 -0.3488  1.6092
  3394G12c H01N62891   8.251  10.103   7.997 -1.0761  0.5106  0.1976
  3394G12c H01R62892   8.284  10.191   7.857  3.7833  0.3640  1.2706
  3394G12c H01Q62893   8.401  10.160   7.952  0.4486 -2.1577 -4.6629
  3394G12c C02A62894   8.479  10.443   7.938  0.9025  0.2733 -1.1363
  3394G12c H01162895   8.509  10.355   7.882  2.0062 -3.0067  4.2901
  3394G12c C00C62896   8.988  10.591   7.629  0.0945 -0.8787 -0.0912
  3394G12c H01262897   8.924  10.672   7.658  5.4820  1.9693  4.8336
  3394G12c C00B62898   9.091  10.611   7.538 -1.1594 -0.0208 -1.3301
  3394G12c C00A62899   9.114  10.740   7.486 -1.1193 -1.6147  0.8536
  3394G12c C00962900   9.010  10.828   7.462 -0.1640  0.3457  1.5579
  3394G12c C00862901   8.866  10.861   7.490 -0.3187 -2.9446  0.3259
  3394G12c H01362902   8.802  10.809   7.559 -5.1783 -2.5969 -3.6866
  3394G12c C00762903   8.789  10.937   7.391 -0.6581  0.0003 -0.2635
  3394G12c H01462904   8.687  10.956   7.418  0.4633  1.0975  3.6418
  3394G12c C00662905   8.854  11.015   7.292 -0.4154  1.5371 -1.0244
  3394G12c C00562906   8.996  10.997   7.280  0.8587  0.2056  0.5336
  3394G12c C00462907   9.057  11.037   7.153  0.6328 -1.0194 -0.2046
  3394G12c C00362908   9.178  10.977   7.126  1.9288  0.9976 -0.9730
  3394G12c C00262909   9.250  10.997   6.994  1.2914 -0.1395  1.1657
  3394G12c C00162910   9.376  10.966   6.932  0.4699 -1.6803 -0.6087
  3394G12c C00M62911   9.401  10.825   6.923 -0.7231 -1.2309 -1.2494
  3394G12c C00L62912   9.373  10.737   7.022  1.3226  1.0609 -1.0351
  3394G12c C00R62913   9.408  10.596   7.034 -1.6425 -1.2121  0.6888
  3394G12c C00Q62914   9.437  10.500   6.941  0.7502  0.4672 -0.6692
  3394G12c C00V62915   9.466  10.376   7.010 -0.2562  1.1327 -2.0517
  3394G12c C00U62916   9.429  10.346   7.147 -0.7924 -1.2568  0.7382
  3394G12c C00T62917   9.387  10.441   7.230 -1.4859 -0.1173  1.2068
  3394G12c C01662918   9.339  10.423   7.355 -1.5458  0.6754 -0.6102
  3394G12c C01562919   9.344  10.294   7.397  1.9128 -0.5291 -1.0999
  3394G12c C01062920   9.399  10.180   7.327 -1.2301 -1.1658 -0.6357
  3394G12c C01162921   9.348  10.056   7.361  0.8128  0.5436 -1.7223
  3394G12c H00562922   9.372   9.959   7.319 -6.2460 -3.5868  2.6608
  3394G12c C01262923   9.247  10.022   7.464 -0.7644 -0.7434 -0.6514
  3394G12c C01762924   9.181   9.902   7.491  1.3380  1.7361 -0.2797
  3394G12c O00262925   9.244   9.785   7.453 -0.3549  0.7960  0.6207
  3394G12c H00462926   9.195   9.706   7.439  3.7081 -1.2810 -3.2744
  3394G12c C01862927   9.042   9.899   7.531 -0.7043  0.4851  2.1741
  3394G12c O00162928   8.969  10.017   7.516  0.4290  0.6493  0.2733
  3394G12c H00362929   9.005  10.024   7.429 -5.6153  7.6066 -2.2318
  3394G12c C01962930   8.964   9.783   7.580  0.9131 -0.5703 -0.6880
  3394G12c H00262931   9.017   9.756   7.671 -7.8715 -4.2576  4.0040
  3394G12c H00162932   8.862   9.816   7.603  0.4282 -3.7798  2.2808
  3394G12c O00062933   8.987   9.680   7.494 -0.1383  1.0414  1.5264
  3394G12c C01A62934   8.939   9.554   7.488 -0.1967 -0.5236  0.9575
  3394G12c C02K62935   8.806   9.526   7.434 -1.0774  0.6362 -0.3463
  3394G12c O00G62936   8.711   9.618   7.398 -1.0541 -0.6086 -0.4891
  3394G12c C02M62937   8.743   9.714   7.303  1.2770 -0.6711  0.4856
  3394G12c H01G62938   8.730   9.821   7.316  4.1709  0.1939 -2.9736
  3394G12c H01F62939   8.733   9.676   7.202 -1.2150 -0.7137  0.7371
  3394G12c H01E62940   8.850   9.731   7.291  1.1050 -0.9639 -1.5478
  3394G12c C02J62941   8.778   9.389   7.415 -1.3977  0.7199  0.6049
  3394G12c H01H62942   8.680   9.367   7.375  0.7711 -4.7066 -2.3411
  3394G12c C02I62943   8.869   9.286   7.418 -1.4748  1.9266 -1.5701
  3394G12c C02N62944   8.828   9.139   7.398 -0.3716 -1.5009 -0.5019
  3394G12c H01M62945   8.776   9.084   7.321  1.5117 -4.1338  0.0085
  3394G12c C02O62946   8.877   9.029   7.481  1.6138  0.4678 -0.4638
  3394G12c H01L62947   8.854   8.931   7.442 -3.8984  1.3467  0.1948
  3394G12c C02P62948   8.990   9.010   7.569  0.0123  2.0853 -0.2111
  3394G12c H01K62949   8.976   9.096   7.634 -5.5719 -1.9604  4.4919
  3394G12c H01J62950   8.961   8.922   7.627 -7.3783 -0.4227 -6.9104
  3394G12c O00H62951   9.120   9.008   7.493 -0.5987  0.8167  1.4509
  3394G12c H01I62952   9.120   9.042   7.405 -3.6492  1.6245  1.6984
  3394G12c C02H62953   9.000   9.330   7.458 -0.9927 -0.3811  1.0515
  3394G12c H01C62954   9.068   9.249   7.477 -0.4108  0.3147  1.9738
  3394G12c C02L62955   9.042   9.468   7.474  0.6578  0.2343  0.9291
  3394G12c H01D62956   9.140   9.513   7.488  1.5458 -0.9284 -1.4613
  3394G12c C01362957   9.205  10.148   7.533  0.9799  1.2299  1.7184
  3394G12c H00062958   9.128  10.145   7.609 -0.0108 -0.4617  0.6584
  3394G12c C01462959   9.241  10.279   7.506 -0.2657 -0.7362 -0.6746
  3394G12c C00F62960   9.179  10.387   7.567  0.6689 -0.3171  1.9868
  3394G12c C00H62961   9.293  10.530   7.421  0.1855 -1.2915 -0.0358
  3394G12c C00I62962   9.297  10.663   7.361 -1.2007 -1.6382  0.1029
  3394G12c C00J62963   9.361  10.676   7.237 -0.9082 -0.9870  0.4822
  3394G12c C00Z62964   9.449  10.218   7.203 -0.5046  0.3038 -0.5684
  3394G12c C00Y62965   9.503  10.111   7.135 -0.2467 -0.3898  0.4347
  3394G12c H00662966   9.534  10.011   7.161 -1.3777 -0.6897  0.6406
  3394G12c C00X62967   9.543  10.134   6.996  0.3219 -0.1491 -0.2286
  3394G12c O00362968   9.579  10.048   6.902 -0.4430 -0.7739  1.1293
  3394G12c C01B62969   9.471   9.955   6.882 -0.1048  1.3398  0.9945
  3394G12c H00962970   9.369   9.992   6.869 -0.2142  0.1274 -2.1128
  3394G12c H00862971   9.471   9.855   6.924  3.0081  0.2629 -1.3633
  3394G12c H00762972   9.503   9.929   6.781  3.2969 -5.6499  3.6035
  3394G12c C00W62973   9.488  10.251   6.935 -1.4965 -2.6392 -1.8780
  3394G12c O00462974   9.516  10.275   6.806 -0.8079  0.4310 -1.0133
  3394G12c C01C62975   9.505  10.393   6.742  0.9875  0.2805 -1.0910
  3394G12c H00A62976   9.457  10.379   6.646  2.4997  1.0238 -1.9707
  3394G12c C00P62977   9.460  10.514   6.802 -0.8102  0.3783 -2.1282
  3394G12c C00O62978   9.448  10.651   6.745 -1.6271 -0.1368 -0.2239
  3394G12c C01D62979   9.434  10.651   6.606 -1.9502 -0.2257 -2.3468
  3394G12c H00S62980   9.490  10.566   6.569  0.4784 -1.0190  2.7360
  3394G12c C01E62981   9.384  10.756   6.522 -0.2284  0.2298 -0.4794
  3394G12c O00862982   9.358  10.718   6.384  0.1373  0.1595  0.8812
  3394G12c C01V62983   9.245  10.635   6.364  1.2327 -0.6199 -0.6816
  3394G12c C01Z62984   9.255  10.504   6.453 -0.7563  0.7808 -0.1631
  3394G12c H00R62985   9.214  10.498   6.555  5.1041  2.3083  2.4763
  3394G12c H00Q62986   9.207  10.423   6.399  4.0720 -4.5328  2.9689
  3394G12c O00962987   9.372  10.437   6.411 -0.3989 -0.1285 -0.0348
  3394G12c H00P62988   9.400  10.466   6.326  0.4180 -3.6182 -1.0324
  3394G12c C01W62989   9.168  10.653   6.266 -1.7216 -1.2693  1.0055
  3394G12c H00O62990   9.205  10.720   6.190  5.0431 -4.9257  0.6381
  3394G12c C01X62991   9.036  10.590   6.232 -0.6877  0.3182 -0.8279
  3394G12c H00N62992   9.009  10.519   6.310 -2.1523  1.4301 -0.2924
  3394G12c H00M62993   8.947  10.651   6.215 -2.8443 -2.7399 -0.9362
  3394G12c C01Y62994   9.041  10.478   6.122  1.5297 -0.4445 -1.2244
  3394G12c C02D62995   8.936  10.373   6.132 -1.7114 -1.9244  0.2093
  3394G12c H01962996   8.840  10.361   6.181  0.3681 -3.9140  4.0399
  3394G12c C02C62997   8.929  10.273   6.031 -0.4873 -0.1322 -1.7624
  3394G12c H01A62998   8.871  10.182   6.035  2.2277 -1.9659 -2.6213
  3394G12c C02B62999   9.035  10.281   5.925  1.0103  0.3834 -0.6956
  3394G12c O00E63000   9.051  10.172   5.855 -1.8144 -0.4869  0.3439
  3394G12c H01B63001   9.140  10.181   5.826 -1.8479  2.1074  0.9499
  3394G12c C02F63002   9.151  10.362   5.935 -0.4920  1.9544 -0.3439
  3394G12c O00F63003   9.236  10.388   5.837 -1.0985 -0.0235 -0.6075
  3394G12c C02G63004   9.197  10.481   5.742 -0.9807  1.3864 -0.6189
  3394G12c H01763005   9.261  10.472   5.654  5.6586 -3.3697  4.2480
  3394G12c H01663006   9.221  10.581   5.778  4.9852  1.4874 -4.1571
  3394G12c H01563007   9.099  10.466   5.695 -1.6512 -0.2864  1.2447
  3394G12c C02E63008   9.155  10.455   6.030  2.0467  0.2328  1.5641
  3394G12c H01863009   9.248  10.509   6.042  1.7658  0.5348  2.4225
  3394G12c C01F63010   9.353  10.881   6.572 -0.7898 -1.5810  0.3779
  3394G12c C01G63011   9.247  10.977   6.540 -0.9559 -0.0195 -0.2855
  3394G12c H00L63012   9.208  10.953   6.442 -2.6657 -2.6820  1.0119
  3394G12c C01H63013   9.189  11.062   6.638  1.1368  0.9495  0.1745
  3394G12c H00B63014   9.102  11.122   6.619  2.0765  3.4407  3.3844
  3394G12c C01I63015   9.252  11.074   6.772 -0.5694  0.0178 -0.1334
  3394G12c C01U63016   9.407  10.897   6.713 -0.6870 -1.0762 -1.0366
  3394G12c C00S63017   9.402  10.568   7.165 -1.4383  0.8306 -0.3867
  3394G12c C00K63018   9.328  10.772   7.146  0.0541 -0.4080 -0.8216
  3394G12c C00N63019   9.415  10.780   6.793  1.2749  0.6670 -0.7787
  3394G12c C00063020   9.385  11.009   6.806  2.7098 -0.3142 -0.6165
  3394G12c C01J63021   9.180  11.084   6.902  0.2059  0.3180  0.3255
  3394G12c C01K63022   9.060  11.160   6.953  0.0758 -1.0138 -0.1296
  3394G12c C01P63023   8.997  11.276   6.891 -1.1017  0.2014 -0.1373
  3394G12c C01Q63024   9.045  11.343   6.771  1.0040  1.5846  0.2343
  3394G12c H00G63025   8.968  11.386   6.709  3.6534  2.7227 -2.4190
  3394G12c C01R63026   9.173  11.381   6.740 -1.1675 -0.4063  0.9429
  3394G12c H00F63027   9.245  11.340   6.810 -1.1069 -2.4210 -0.2899
  3394G12c C01S63028   9.230  11.471   6.624  0.8669  1.4872  0.0468
  3394G12c H00E63029   9.312  11.528   6.669  0.4553  1.8563  0.3268
  3394G12c H00D63030   9.273  11.423   6.537 -2.6366  2.0885 -2.0984
  3394G12c O00563031   9.121  11.558   6.574  0.4221  0.9663  1.3408
  3394G12c H00C63032   9.042  11.508   6.559  2.4285 -2.2110  0.8577
  3394G12c C01O63033   8.891  11.343   6.965 -3.1737 -1.4910  0.1465
  3394G12c H00H63034   8.888  11.436   6.910  2.1453 -5.0045 -6.9695
  3394G12c C01N63035   8.819  11.290   7.068  2.1516 -0.1866  0.0803
  3394G12c O00663036   8.705  11.334   7.115 -0.6736  1.0116 -0.1838
  3394G12c C01T63037   8.671  11.461   7.062 -0.8268  1.2020  0.2857
  3394G12c H00K63038   8.697  11.559   7.102 -0.0600  2.7375 -3.7242
  3394G12c H00J63039   8.564  11.478   7.070 -1.3520 -1.0938 -1.4731
  3394G12c H00I63040   8.656  11.464   6.954 -1.4024 -2.5862  0.2124
  3394G12c C01M63041   8.868  11.170   7.122 -1.1557  3.3390  0.1082
  3394G12c C02063042   9.260  10.890   7.205  0.4035 -0.0574  1.7294
  3394G12c C02163043   9.204  10.877   7.342 -0.8041 -1.2012  0.7329
  3394G12c C01L63044   9.000  11.127   7.078 -1.0598  0.8331 -1.7276
  3394G12c O00763045   8.788  11.091   7.209 -0.6847 -0.0129 -0.9609
  3394G12c C02263046   9.079  10.918   7.356 -1.9803  0.8475 -1.3213
  3394G12c C02363047   9.227  10.770   7.424  0.0285  0.1592  1.4150
  3394G12c C00G63048   9.182  10.511   7.513 -1.0243  0.6276 -0.4099
  3394G12c C00E63049   9.091  10.376   7.677  0.9944 -0.2703 -0.2081
  3394G12c O00A63050   9.108  10.262   7.772  0.9229 -0.2666 -1.1179
  3394G12c C02463051   9.218  10.308   7.849  0.2672  0.2275  0.1564
  3394G12c H00V63052   9.198  10.378   7.931 -1.1707 -0.3261  0.2846
  3394G12c H00U63053   9.240  10.243   7.934 -0.2910 -2.2698 -1.5670
  3394G12c H00T63054   9.301  10.362   7.804 -4.8776  7.5191 -1.5191
  3404G12c C00D63055   9.388   5.741   6.369  1.5236 -2.4690 -0.6570
  3404G12c O00B63056   9.367   5.716   6.238  0.3474 -0.3289 -1.2402
  3404G12c C02563057   9.384   5.593   6.166 -1.8348 -2.5532  1.9220
  3404G12c C02663058   9.262   5.499   6.174 -1.5461  0.5292 -0.9398
  3404G12c H00Y63059   9.218   5.475   6.077 -0.3717 -2.2528 -0.8130
  3404G12c H00X63060   9.204   5.479   6.265 -0.6572 -0.2839 -0.5445
  3404G12c O00C63061   9.335   5.374   6.143  0.4611  0.9577 -0.2507
  3404G12c H00W63062   9.298   5.315   6.206  3.0411 -0.4820 -0.0050
  3404G12c C02763063   9.521   5.594   6.131 -2.7771  0.7066 -0.6874
  3404G12c O00D63064   9.584   5.708   6.158 -1.4091 -1.3193  1.0127
  3404G12c H00Z63065   9.507   5.762   6.150 -0.9161 -0.8508 -0.9832
  3404G12c C02863066   9.605   5.482   6.083  0.1608 -0.0479  0.0079
  3404G12c C02963067   9.729   5.461   6.136  0.3967 -1.3224  2.6000
  3404G12c H01063068   9.772   5.507   6.224  2.7402  0.5412  0.5421
  3404G12c C02T63069   9.782   5.329   6.106 -0.6206  0.5317 -0.4496
  3404G12c H01O63070   9.875   5.292   6.148  0.1360  2.9428  0.0786
  3404G12c C02S63071   9.738   5.237   6.015 -1.4408 -0.2949  0.5487
  3404G12c O00J63072   9.778   5.118   5.975 -1.0322 -0.7147  0.4496
  3404G12c H01P63073   9.865   5.105   5.942  0.0746 -6.1877  4.7925
  3404G12c C02R63074   9.633   5.293   5.923 -1.8233  0.4982 -2.2419
  3404G12c O00I63075   9.585   5.262   5.805 -0.3454 -1.2832  0.8541
  3404G12c C02Q63076   9.634   5.167   5.725  1.6483 -0.3489 -0.4469
  3404G12c H01N63077   9.614   5.184   5.620  4.8180 -3.6535 -1.6756
  3404G12c H01R63078   9.583   5.075   5.756 -5.4026  2.7327 -1.8682
  3404G12c H01Q63079   9.743   5.172   5.726  1.6452 -0.2908 -0.4503
  3404G12c C02A63080   9.575   5.409   5.956  0.5339 -0.8825  0.2827
  3404G12c H01163081   9.499   5.458   5.897 -1.3553 -1.2983  2.2852
  3404G12c C00C63082   9.419   5.633   6.459  1.1960 -0.7983  0.6758
  3404G12c H01263083   9.403   5.540   6.406 -0.3143 -2.0702  3.2489
  3404G12c C00B63084   9.423   5.629   6.601 -0.6941  0.6980 -0.1844
  3404G12c C00A63085   9.466   5.526   6.700 -0.5529  0.8847 -0.2537
  3404G12c C00963086   9.499   5.384   6.693  0.7040  0.7168 -0.5781
  3404G12c C00863087   9.474   5.294   6.574 -0.5815 -0.0945 -1.0207
  3404G12c H01363088   9.478   5.343   6.478  1.3503  0.5785 -0.6149
  3404G12c C00763089   9.416   5.168   6.606 -0.3374  0.7364  1.3129
  3404G12c H01463090   9.373   5.105   6.530  2.3490  0.8375 -0.3460
  3404G12c C00663091   9.404   5.129   6.739  1.4869 -1.0257 -1.7164
  3404G12c C00563092   9.434   5.222   6.848 -0.4652  1.3219 -0.0018
  3404G12c C00463093   9.371   5.200   6.978 -1.5280  0.8678 -1.6001
  3404G12c C00363094   9.382   5.297   7.070  0.2219 -0.3009 -1.0832
  3404G12c C00263095   9.355   5.257   7.209 -0.9741 -0.9817  0.5193
  3404G12c C00163096   9.335   5.340   7.326  0.1595 -0.0659 -0.0649
  3404G12c C00M63097   9.264   5.464   7.332  1.1007 -0.8657  0.8167
  3404G12c C00L63098   9.262   5.555   7.216  0.6451 -0.4518 -1.1573
  3404G12c C00R63099   9.193   5.677   7.190 -0.1151 -1.0576  0.1177
  3404G12c C00Q63100   9.060   5.715   7.239  0.1274  1.0896 -0.3583
  3404G12c C00V63101   9.012   5.828   7.160 -1.1219 -0.0833 -0.7749
  3404G12c C00U63102   9.058   5.863   7.027  0.2229  0.7865 -0.2453
  3404G12c C00T63103   9.166   5.808   6.981 -1.1142  2.0930 -0.4646
  3404G12c C01663104   9.224   5.820   6.856 -0.4504 -0.7975  3.0334
  3404G12c C01563105   9.152   5.898   6.768 -0.6667 -1.0899 -0.9133
  3404G12c C01063106   9.044   5.976   6.820 -0.1909  2.0735 -0.1779
  3404G12c C01163107   8.993   6.063   6.730  0.7607 -0.7004 -0.2660
  3404G12c H00563108   8.908   6.129   6.746 -2.1461 -3.6178 -2.8956
  3404G12c C01263109   9.030   6.061   6.589  1.0927 -0.2192  1.3205
  3404G12c C01763110   8.948   6.135   6.496 -1.3419  0.6145  0.2841
  3404G12c O00263111   8.904   6.264   6.540 -0.6393 -0.1439  0.5920
  3404G12c H00463112   8.851   6.319   6.485  1.1189  3.6033  2.5264
  3404G12c C01863113   8.928   6.080   6.374  1.2382 -0.8396 -0.4740
  3404G12c O00163114   8.939   5.955   6.338  1.5525  0.6505  0.5095
  3404G12c H00363115   8.993   5.912   6.402 -0.1819  3.8357  4.3697
  3404G12c C01963116   8.841   6.164   6.271 -0.0686 -1.0396 -0.8967
  3404G12c H00263117   8.798   6.098   6.196 -0.2882  3.5863 -5.0673
  3404G12c H00163118   8.750   6.193   6.325 -0.8772 -1.7799 -1.8614
  3404G12c O00063119   8.911   6.290   6.231 -1.8415  0.5210  0.4768
  3404G12c C01A63120   8.886   6.361   6.115  1.0253 -0.2823 -1.3060
  3404G12c C02K63121   8.768   6.453   6.102  0.3597  1.6789  0.8179
  3404G12c O00G63122   8.669   6.471   6.176 -0.4601  0.4673 -1.6127
  3404G12c C02M63123   8.692   6.508   6.328  0.4927  1.5200  0.4366
  3404G12c H01G63124   8.600   6.553   6.364 -0.0660  0.0993  0.8178
  3404G12c H01F63125   8.664   6.429   6.398  4.4627  0.8190  1.3437
  3404G12c H01E63126   8.778   6.565   6.364 -0.6724  1.9374  2.6373
  3404G12c C02J63127   8.760   6.519   5.970 -2.4294  0.9998 -1.5345
  3404G12c H01H63128   8.681   6.592   5.956 -1.0444  2.2690 -2.8519
  3404G12c C02I63129   8.873   6.539   5.879  0.8070  0.2829 -1.4497
  3404G12c C02N63130   8.874   6.614   5.749 -0.3303  0.3347  0.2489
  3404G12c H01M63131   8.774   6.642   5.718  0.7381  1.7992 -2.0152
  3404G12c C02O63132   8.976   6.696   5.715 -0.9423 -0.2374 -0.2232
  3404G12c H01L63133   8.951   6.759   5.631 -2.1827  0.1217  0.3974
  3404G12c C02P63134   9.119   6.726   5.781 -0.3475 -1.5115  0.7792
  3404G12c H01K63135   9.147   6.814   5.722 -4.5200  0.5981  1.8082
  3404G12c H01J63136   9.101   6.782   5.872  1.0128 -3.1336  2.0808
  3404G12c O00H63137   9.227   6.637   5.787 -0.0237  0.8684 -0.7659
  3404G12c H01I63138   9.276   6.663   5.864  0.8481  6.1287 -2.8986
  3404G12c C02H63139   8.980   6.436   5.904 -0.9304 -0.3821 -1.5425
  3404G12c H01C63140   9.052   6.437   5.824 -0.5751 -3.3867 -1.3182
  3404G12c C02L63141   8.971   6.334   6.010 -0.6380 -0.0527 -0.2672
  3404G12c H01D63142   9.034   6.249   6.027  3.1144  1.0883 -6.8045
  3404G12c C01363143   9.129   5.973   6.549 -0.1249  0.1951  0.6262
  3404G12c H00063144   9.183   5.998   6.459  2.9740 -1.8134  1.8235
  3404G12c C01463145   9.193   5.899   6.635 -0.6720 -0.9361 -0.8875
  3404G12c C00F63146   9.315   5.829   6.586  1.8702  0.0082 -0.6780
  3404G12c C00H63147   9.329   5.731   6.806 -0.2451 -0.5767  0.6295
  3404G12c C00I63148   9.390   5.648   6.902  1.6872 -0.0062  1.4510
  3404G12c C00J63149   9.336   5.651   7.033 -1.8304 -0.4703 -1.0753
  3404G12c C00Z63150   9.005   5.966   6.944 -1.5084  0.8092  1.1061
  3404G12c C00Y63151   8.891   6.025   6.984 -1.2793  0.4565  0.6562
  3404G12c H00663152   8.846   6.095   6.916 -0.7752 -2.2496 -2.5710
  3404G12c C00X63153   8.854   6.018   7.121  1.4004  0.8703  0.4464
  3404G12c O00363154   8.753   6.109   7.137  0.6195 -2.0097 -0.2444
  3404G12c C01B63155   8.686   6.093   7.254 -0.5858 -0.9262  1.9297
  3404G12c H00963156   8.769   6.128   7.314  6.9266 -1.4521 -7.0771
  3404G12c H00863157   8.607   6.024   7.287 -3.3441  2.5612  2.9018
  3404G12c H00763158   8.601   6.153   7.288  0.6900  0.6683  2.3238
  3404G12c C00W63159   8.915   5.911   7.212 -0.5452  0.1026 -0.4623
  3404G12c O00463160   8.887   5.876   7.340  0.1583 -1.4753  0.4678
  3404G12c C01C63161   8.878   5.740   7.373 -0.6781 -0.7831  0.2475
  3404G12c H00A63162   8.795   5.672   7.368 -3.4550  2.6670 -4.3788
  3404G12c C00P63163   8.995   5.672   7.354 -0.0797 -0.4035 -2.0398
  3404G12c C00O63164   9.023   5.543   7.422 -0.8450  0.7441 -0.4053
  3404G12c C01D63165   8.910   5.481   7.491  0.9298  0.9380  2.3229
  3404G12c H00S63166   8.842   5.555   7.530 -3.2484 -1.9597  0.9349
  3404G12c C01E63167   8.914   5.345   7.512  0.8431 -0.8953 -0.7637
  3404G12c O00863168   8.832   5.291   7.602  0.8440 -0.8924  0.0024
  3404G12c C01V63169   8.828   5.338   7.732 -0.6506 -1.0142  1.0007
  3404G12c C01Z63170   8.926   5.281   7.820  0.7221  0.6396 -0.7130
  3404G12c H00R63171   8.907   5.176   7.799 -3.8638  0.6585  2.5715
  3404G12c H00Q63172   9.018   5.298   7.765  1.9024  6.7400  2.5915
  3404G12c O00963173   8.932   5.322   7.955  1.8496  0.3313  0.1997
  3404G12c H00P63174   9.024   5.333   7.977  3.5026 -5.1127 -2.9820
  3404G12c C01W63175   8.723   5.414   7.783 -1.5257 -0.0649 -0.1002
  3404G12c H00O63176   8.734   5.470   7.874 -4.6675 -1.8144  1.4309
  3404G12c C01X63177   8.618   5.452   7.667  0.4559 -0.8803 -0.9369
  3404G12c H00N63178   8.615   5.557   7.636 -6.1341  0.2383  2.5143
  3404G12c H00M63179   8.610   5.398   7.573 -0.2511 -1.5165 -0.5151
  3404G12c C01Y63180   8.473   5.421   7.696 -0.2100 -0.2985 -1.1553
  3404G12c C02D63181   8.446   5.304   7.768  1.4956  1.5009  0.1585
  3404G12c H01963182   8.502   5.214   7.750 -6.7377 -3.7872 -1.7383
  3404G12c C02C63183   8.319   5.259   7.815 -2.1922  0.1433 -0.3143
  3404G12c H01A63184   8.304   5.171   7.877 -0.3436 -1.6612 -2.3250
  3404G12c C02B63185   8.226   5.374   7.815 -0.2406 -0.4912  0.4827
  3404G12c O00E63186   8.107   5.363   7.883  0.4838 -0.8790 -0.0850
  3404G12c H01B63187   8.050   5.436   7.901 -5.9702 -6.2745  4.2452
  3404G12c C02F63188   8.265   5.509   7.784  1.0666  0.0872 -0.2642
  3404G12c O00F63189   8.174   5.628   7.812 -0.9291  0.4475 -1.7059
  3404G12c C02G63190   8.236   5.759   7.801  0.3594 -0.0104 -1.1280
  3404G12c H01763191   8.173   5.810   7.875  0.8356 -2.3209  0.9419
  3404G12c H01663192   8.213   5.829   7.721 -0.1862  5.5377  3.5279
  3404G12c H01563193   8.345   5.759   7.804  0.3399 -1.7250  1.0833
  3404G12c C02E63194   8.373   5.522   7.696 -2.2064  0.2645  1.4256
  3404G12c H01863195   8.361   5.603   7.626 -2.1504  1.5470  2.8533
  3404G12c C01F63196   9.026   5.260   7.490 -0.4832  0.7967 -0.6632
  3404G12c C01G63197   9.010   5.124   7.486  0.1725  0.1296  0.9356
  3404G12c H00L63198   8.933   5.057   7.521  0.2717 -0.4563  0.0264
  3404G12c C01H63199   9.115   5.061   7.425 -2.7760 -0.0851  0.3176
  3404G12c H00B63200   9.123   4.957   7.396 -3.3429  0.4525 -1.8010
  3404G12c C01I63201   9.235   5.131   7.374 -0.5319  2.3884 -0.6069
  3404G12c C01U63202   9.150   5.330   7.456  1.2782 -0.0438  2.5338
  3404G12c C00S63203   9.239   5.728   7.073  0.2256  0.2354  0.8466
  3404G12c C00K63204   9.342   5.531   7.106  0.2405  0.9213 -0.6919
  3404G12c C00N63205   9.142   5.449   7.398  2.3626 -0.7941 -0.3156
  3404G12c C00063206   9.269   5.264   7.425  0.4595 -0.0143  1.0643
  3404G12c C01J63207   9.296   5.133   7.231  0.5867 -0.0463  0.0040
  3404G12c C01K63208   9.296   5.028   7.129  0.4847  0.7316 -0.0306
  3404G12c C01P63209   9.267   4.887   7.161 -0.6897 -0.2963  1.5362
  3404G12c C01Q63210   9.307   4.843   7.304 -1.4139 -2.5262 -0.6787
  3404G12c H00G63211   9.406   4.881   7.325 -1.1558 -2.3181 -2.2623
  3404G12c C01R63212   9.265   4.725   7.334  0.9520 -0.1689 -1.2573
  3404G12c H00F63213   9.327   4.706   7.421  6.4392 -0.8463 -5.0517
  3404G12c C01S63214   9.139   4.636   7.286  0.6370 -1.5997 -0.4867
  3404G12c H00E63215   9.151   4.583   7.192 -7.4182 -0.7217 -2.3210
  3404G12c H00D63216   9.151   4.556   7.359 -3.1920  0.0978  2.1673
  3404G12c O00563217   9.048   4.752   7.283  2.1859  0.6518  1.0123
  3404G12c H00C63218   9.043   4.803   7.203  1.0025  3.8578  3.0325
  3404G12c C01O63219   9.264   4.796   7.055 -2.1969  0.2467  1.6042
  3404G12c H00H63220   9.278   4.692   7.081 -1.6111  0.6319  2.8489
  3404G12c C01N63221   9.284   4.831   6.911  0.2147 -0.3423 -1.0757
  3404G12c O00663222   9.286   4.727   6.814  1.0776  0.8105 -0.5177
  3404G12c C01T63223   9.418   4.718   6.767  1.6572  1.6309 -0.5197
  3404G12c H00K63224   9.435   4.642   6.691  3.5551 -1.9521  3.2944
  3404G12c H00J63225   9.472   4.699   6.861  0.4031 -4.9622 -0.9087
  3404G12c H00I63226   9.448   4.801   6.703  4.2328  0.6036 -0.7174
  3404G12c C01M63227   9.316   4.969   6.896  1.1800 -0.3858 -0.3562
  3404G12c C02063228   9.414   5.427   7.038 -1.4891 -0.6159  1.4205
  3404G12c C02163229   9.471   5.436   6.907 -0.3406 -1.0958 -0.7767
  3404G12c C01L63230   9.324   5.068   7.009 -1.2124  0.2394 -0.7242
  3404G12c O00763231   9.372   5.002   6.772 -0.1736 -0.2534  1.1387
  3404G12c C02263232   9.510   5.343   6.820  0.0098 -2.0359  1.9576
  3404G12c C02363233   9.480   5.563   6.839 -0.4632 -0.0626  0.6954
  3404G12c C00G63234   9.365   5.734   6.672 -0.2280  0.6935  0.4584
  3404G12c C00E63235   9.361   5.852   6.446  0.2235  0.5862  1.4877
  3404G12c O00A63236   9.416   5.968   6.404 -0.1491  1.6083 -0.3876
  3404G12c C02463237   9.557   5.992   6.418 -0.1763  1.1568 -0.4993
  3404G12c H00V63238   9.620   5.903   6.417 -2.3504 -0.4923  1.9079
  3404G12c H00U63239   9.548   6.021   6.523 -6.5795  4.0226 -1.5705
  3404G12c H00T63240   9.590   6.061   6.340 -6.7063 -2.1744 -6.7729
  3414G12c C00D63241   5.823   7.310   1.253  1.1896  0.6642  2.1050
  3414G12c O00B63242   5.905   7.351   1.150  1.2502 -0.3772  0.6432
  3414G12c C02563243   5.891   7.490   1.125  0.0504 -0.8359 -1.5920
  3414G12c C02663244   5.825   7.524   1.009  0.8472  0.5919 -2.4628
  3414G12c H00Y63245   5.811   7.622   0.963 -4.2487  0.3118 -1.8644
  3414G12c H00X63246   5.723   7.508   1.046  1.5581 -1.3739 -1.2792
  3414G12c O00C63247   5.880   7.426   0.927  0.0089 -0.1579 -0.8173
  3414G12c H00W63248   5.971   7.445   0.914  0.9167 -1.0609  3.5084
  3414G12c C02763249   5.968   7.575   1.191  0.2859 -1.5545 -0.5509
  3414G12c O00D63250   6.066   7.511   1.265 -1.5319  0.2034 -0.3693
  3414G12c H00Z63251   6.004   7.444   1.289 -3.0153  0.6995 -2.6627
  3414G12c C02863252   5.952   7.707   1.158  0.5984  1.2498 -0.0597
  3414G12c C02963253   5.841   7.773   1.229 -0.7216 -2.1698  0.0646
  3414G12c H01063254   5.810   7.727   1.322 -0.0179 -4.8012 -0.9428
  3414G12c C02T63255   5.769   7.884   1.183  0.2301 -0.0233 -1.0715
  3414G12c H01O63256   5.701   7.947   1.238  4.0150  0.1746  3.7066
  3414G12c C02S63257   5.823   7.942   1.059  1.6037 -2.0112  0.8402
  3414G12c O00J63258   5.752   8.047   1.007 -0.5353 -2.6250  0.8879
  3414G12c H01P63259   5.781   8.026   0.920 -4.0528  4.7680 -2.5367
  3414G12c C02R63260   5.925   7.889   0.992 -0.9933 -1.2886  1.5289
  3414G12c O00I63261   5.966   7.938   0.877  1.2232 -0.0469 -1.3696
  3414G12c C02Q63262   5.974   8.081   0.847 -0.4836  0.7558 -0.0088
  3414G12c H01N63263   6.050   8.123   0.913  0.5072 -1.6810  0.4890
  3414G12c H01R63264   5.889   8.148   0.835 -3.7795 -2.8269  2.0952
  3414G12c H01Q63265   6.023   8.067   0.751  5.1908  4.6670  2.0477
  3414G12c C02A63266   5.991   7.776   1.036 -1.6752  2.0737 -0.3202
  3414G12c H01163267   6.061   7.745   0.960 -0.5814 -1.0080  1.8243
  3414G12c C00C63268   5.680   7.331   1.269 -1.6069 -0.1120  2.3511
  3414G12c H01263269   5.647   7.381   1.179  2.9074  2.7614  2.1071
  3414G12c C00B63270   5.610   7.287   1.389 -1.6290 -0.3229 -0.3132
  3414G12c C00A63271   5.464   7.314   1.418  0.9743 -0.7664  0.1980
  3414G12c C00963272   5.432   7.445   1.469  0.1161  1.0885  0.8917
  3414G12c C00863273   5.497   7.568   1.454  1.4028 -0.8074  1.4811
  3414G12c H01363274   5.571   7.576   1.375  2.8315 -5.2432  2.2180
  3414G12c C00763275   5.460   7.678   1.542  0.4454 -0.1739 -1.5984
  3414G12c H01463276   5.503   7.773   1.513 -0.7422  0.2365 -2.0605
  3414G12c C00663277   5.363   7.660   1.650  0.2095 -0.4367  0.2218
  3414G12c C00563278   5.310   7.531   1.670  0.6374  1.4169  0.1273
  3414G12c C00463279   5.231   7.490   1.777  0.3246  0.2798 -0.9876
  3414G12c C00363280   5.206   7.342   1.786 -0.8159 -0.3275 -0.8106
  3414G12c C00263281   5.138   7.317   1.903  0.5896 -1.0122  1.0558
  3414G12c C00163282   5.118   7.207   1.977 -1.1538 -1.0330 -0.9149
  3414G12c C00M63283   5.216   7.105   2.010 -0.2399 -0.8616 -0.6468
  3414G12c C00L63284   5.285   7.044   1.909  0.8449 -0.5646 -0.8228
  3414G12c C00R63285   5.421   6.980   1.939 -1.0466 -0.3981 -0.1747
  3414G12c C00Q63286   5.495   6.954   2.061  1.8893 -0.1129  0.5556
  3414G12c C00V63287   5.621   6.905   2.028 -1.1724 -1.8823  0.3605
  3414G12c C00U63288   5.683   6.941   1.906  0.3303  1.1230 -0.2770
  3414G12c C00T63289   5.624   6.992   1.793 -1.4252  0.9117 -1.9207
  3414G12c C01663290   5.683   7.061   1.684  1.6753  0.1289  0.4791
  3414G12c C01563291   5.813   7.062   1.676 -0.7246 -0.0460  0.2447
  3414G12c C01063292   5.884   7.017   1.794 -1.2778 -0.2153 -1.0084
  3414G12c C01163293   6.030   7.026   1.798  0.8162 -1.1126 -1.5860
  3414G12c H00563294   6.101   6.988   1.870  0.0792  7.2906  4.4074
  3414G12c C01263295   6.090   7.092   1.701 -0.5983 -0.9922  0.7334
  3414G12c C01763296   6.244   7.113   1.692 -0.1765 -0.1126 -0.1900
  3414G12c O00263297   6.266   7.222   1.783 -2.3544 -1.9010 -0.5350
  3414G12c H00463298   6.359   7.211   1.792 -1.6443 -1.2607 -5.7203
  3414G12c C01863299   6.318   7.012   1.639  0.5569  0.2474 -1.0951
  3414G12c O00163300   6.262   6.913   1.561 -0.1605 -1.3913 -0.0807
  3414G12c H00363301   6.217   6.946   1.485  1.0192 -2.1151 -1.1118
  3414G12c C01963302   6.471   7.013   1.670  0.5618  0.3055  0.3251
  3414G12c H00263303   6.483   6.907   1.694 -6.3926 -1.6661 -3.4955
  3414G12c H00163304   6.541   7.041   1.592  2.0915 -0.4802  1.3936
  3414G12c O00063305   6.530   7.079   1.790  0.5789 -1.0229 -0.6673
  3414G12c C01A63306   6.645   7.173   1.786  1.2350 -0.4927  1.1832
  3414G12c C02K63307   6.660   7.263   1.681  0.8391  1.3899 -1.8557
  3414G12c O00G63308   6.536   7.295   1.612 -0.6457 -1.1071 -0.5231
  3414G12c C02M63309   6.554   7.291   1.470  0.9436 -0.2434  1.0013
  3414G12c H01G63310   6.592   7.195   1.437 -1.4296 -3.0800  5.9218
  3414G12c H01F63311   6.610   7.381   1.445  5.3890 -3.1065  0.1343
  3414G12c H01E63312   6.458   7.310   1.422  2.9626  3.2587 -1.8986
  3414G12c C02J63313   6.781   7.331   1.656 -2.0314 -0.1288 -1.6491
  3414G12c H01H63314   6.781   7.411   1.584 -0.2456  0.9999 -0.4394
  3414G12c C02I63315   6.890   7.328   1.750  1.0328  0.9813 -0.5703
  3414G12c C02N63316   6.984   7.430   1.726 -0.5921 -0.0313  0.0468
  3414G12c H01M63317   6.926   7.520   1.711 -5.6984 -2.8407  1.7855
  3414G12c C02O63318   7.093   7.418   1.656  0.1494  0.5477 -0.8010
  3414G12c H01L63319   7.133   7.509   1.615  3.5172  0.8118  2.7498
  3414G12c C02P63320   7.176   7.289   1.627  0.4165 -1.4088 -0.4666
  3414G12c H01K63321   7.119   7.200   1.652  1.3620 -2.2766 -1.4156
  3414G12c H01J63322   7.225   7.272   1.531 -0.2491  0.5435 -1.1958
  3414G12c O00H63323   7.289   7.279   1.715  0.4509 -1.2459  0.9377
  3414G12c H01I63324   7.348   7.344   1.679 -1.2563 -1.3678 -2.3171
  3414G12c C02H63325   6.870   7.234   1.853 -1.7219  0.8362 -0.7989
  3414G12c H01C63326   6.955   7.209   1.915 -1.0473 -3.4405 -3.2256
  3414G12c C02L63327   6.745   7.162   1.878  0.9955 -0.0153  0.0815
  3414G12c H01D63328   6.734   7.098   1.964  0.4128  0.7490  0.5790
  3414G12c C01363329   6.025   7.131   1.584  0.8307 -0.5930  0.1976
  3414G12c H00063330   6.103   7.166   1.518  0.0502  0.7821 -0.0124
  3414G12c C01463331   5.882   7.121   1.569 -0.5021 -0.5060  0.2922
  3414G12c C00F63332   5.808   7.185   1.464 -0.5963 -1.7874 -0.7215
  3414G12c C00H63333   5.604   7.130   1.583  1.0548 -1.0146 -0.0886
  3414G12c C00I63334   5.463   7.124   1.601  1.4527 -1.1583  0.6635
  3414G12c C00J63335   5.405   7.057   1.707 -0.5127 -1.6968 -1.3855
  3414G12c C00Z63336   5.818   6.975   1.909 -1.4948 -0.7287  0.6428
  3414G12c C00Y63337   5.888   6.941   2.032  0.7132 -0.5989 -1.3948
  3414G12c H00663338   5.982   6.969   2.079 -2.5595  3.0479  3.6030
  3414G12c C00X63339   5.820   6.857   2.140 -1.5979  0.1240 -0.8804
  3414G12c O00363340   5.898   6.844   2.260  0.4067  0.6025 -0.6341
  3414G12c C01B63341   5.937   6.698   2.266 -0.5409 -0.6876 -0.6060
  3414G12c H00963342   5.858   6.624   2.258  3.7988 -5.4749 -2.2856
  3414G12c H00863343   5.996   6.670   2.353 -1.6666 -3.9343 -0.8306
  3414G12c H00763344   5.992   6.668   2.176 -2.1059 -2.1329 -1.1172
  3414G12c C00W63345   5.687   6.831   2.142 -1.8341  1.3815  1.0083
  3414G12c O00463346   5.648   6.802   2.269 -0.7013  1.1360 -1.2793
  3414G12c C01C63347   5.534   6.887   2.297  2.0440  0.8081  1.9067
  3414G12c H00A63348   5.486   6.860   2.390 -0.4402  2.3362  1.0914
  3414G12c C00P63349   5.453   6.950   2.194  1.1093 -1.2806  0.0614
  3414G12c C00O63350   5.332   7.026   2.244  0.4047  0.2997 -0.6210
  3414G12c C01D63351   5.299   7.047   2.378 -0.8303 -0.2645 -0.3336
  3414G12c H00S63352   5.347   6.971   2.438 -6.9011 -2.7940  1.6806
  3414G12c C01E63353   5.228   7.157   2.425  0.5122  0.6786  1.1685
  3414G12c O00863354   5.195   7.170   2.551 -0.4756 -0.9828  0.8305
  3414G12c C01V63355   5.203   7.064   2.629 -1.1744 -1.2942 -0.6134
  3414G12c C01Z63356   5.291   7.109   2.742 -1.8794 -0.0089 -0.3480
  3414G12c H00R63357   5.269   7.213   2.768  4.9047  2.8971 -4.6138
  3414G12c H00Q63358   5.277   7.063   2.839  1.7248 -1.2193 -0.3453
  3414G12c O00963359   5.413   7.136   2.686  0.7014 -0.0071 -0.8383
  3414G12c H00P63360   5.476   7.065   2.691 -0.5316 -1.3124 -3.2480
  3414G12c C01W63361   5.148   6.942   2.640 -0.7473 -1.8425  1.6515
  3414G12c H00O63362   5.135   6.867   2.717 -2.5512 -0.7679  2.4254
  3414G12c C01X63363   5.054   6.880   2.528 -0.6978 -0.1884  2.0735
  3414G12c H00N63364   4.965   6.895   2.589 -0.4913 -3.3549  3.2498
  3414G12c H00M63365   5.018   6.951   2.453  0.4134  0.4605  2.1375
  3414G12c C01Y63366   5.085   6.744   2.475  0.8785  1.0767 -2.3539
  3414G12c C02D63367   5.055   6.723   2.338  1.0023 -0.3538 -0.6784
  3414G12c H01963368   4.967   6.748   2.281  2.2795 -1.4181 -3.2429
  3414G12c C02C63369   5.134   6.661   2.247 -1.1848  0.2520  0.3776
  3414G12c H01A63370   5.125   6.665   2.139 -0.9018 -5.9238 -0.0733
  3414G12c C02B63371   5.264   6.633   2.300 -0.5098  0.0291 -0.1005
  3414G12c O00E63372   5.372   6.625   2.226 -1.7331  0.2709  0.6924
  3414G12c H01B63373   5.452   6.623   2.278 -0.2560 -1.0190 -1.5352
  3414G12c C02F63374   5.299   6.628   2.448 -0.6963 -1.0203  0.3952
  3414G12c O00F63375   5.415   6.572   2.486 -0.5090 -0.4462  0.5794
  3414G12c C02G63376   5.387   6.452   2.559  0.1693  1.3171 -0.1892
  3414G12c H01763377   5.378   6.467   2.666 -0.7109 -4.1708  0.6642
  3414G12c H01663378   5.491   6.422   2.550 -1.0670 -3.7852  1.1716
  3414G12c H01563379   5.304   6.391   2.524  0.4204  3.8349 -5.7112
  3414G12c C02E63380   5.192   6.670   2.542  0.8069  0.7241  0.6367
  3414G12c H01863381   5.212   6.685   2.647 -1.3132  0.1292  1.1473
  3414G12c C01F63382   5.164   7.232   2.328 -1.0587 -0.3477  0.2825
  3414G12c C01G63383   5.100   7.363   2.346 -0.8061  0.0021  1.1514
  3414G12c H00L63384   5.097   7.402   2.446  3.4064 -7.1399  4.5144
  3414G12c C01H63385   5.045   7.444   2.232 -0.1248 -0.7876 -0.5461
  3414G12c H00B63386   5.039   7.550   2.250  2.3427 -0.7238  0.1453
  3414G12c C01I63387   5.034   7.382   2.098 -1.3507 -0.7660 -0.4046
  3414G12c C01U63388   5.133   7.187   2.200 -0.0659 -0.2527  1.3023
  3414G12c C00S63389   5.485   7.001   1.808  0.5078  0.4639 -0.0110
  3414G12c C00K63390   5.287   7.104   1.779  0.3120  0.0682  0.5966
  3414G12c C00N63391   5.246   7.104   2.160 -2.2336 -0.4697  0.5316
  3414G12c C00063392   5.043   7.242   2.095 -0.3373  0.5283 -1.5207
  3414G12c C01J63393   5.093   7.436   1.981 -1.4110 -0.0601  0.1023
  3414G12c C01K63394   5.081   7.574   1.945 -0.1649  1.3999 -1.3170
  3414G12c C01P63395   4.995   7.681   1.989 -0.3273  1.1588  0.2912
  3414G12c C01Q63396   4.897   7.677   2.089 -0.6715  0.1489  0.6733
  3414G12c H00G63397   4.795   7.643   2.079 -0.9082  1.6191 -2.6720
  3414G12c C01R63398   4.909   7.755   2.199  0.6184  0.1155 -1.0071
  3414G12c H00F63399   4.998   7.803   2.238  2.2088 -2.4855 -1.3188
  3414G12c C01S63400   4.797   7.779   2.290 -0.8494  0.6389  0.9595
  3414G12c H00E63401   4.743   7.867   2.256  1.9947 -0.3043 -7.0749
  3414G12c H00D63402   4.722   7.700   2.285 -3.3715  3.0490 -0.3487
  3414G12c O00563403   4.853   7.796   2.425  0.0860 -0.0224  0.5813
  3414G12c H00C63404   4.798   7.752   2.488  0.8207 -2.8767 -0.6894
  3414G12c C01O63405   5.031   7.812   1.950  0.2858 -1.1716 -0.6357
  3414G12c H00H63406   4.956   7.890   1.954  4.0256  2.5107  3.8429
  3414G12c C01N63407   5.146   7.833   1.863 -2.1252  0.8015 -0.9012
  3414G12c O00663408   5.203   7.962   1.812  1.0757 -0.0840  0.1169
  3414G12c C01T63409   5.275   8.020   1.922 -0.8747 -0.2269  0.8524
  3414G12c H00K63410   5.274   7.947   2.002  2.1719 -1.3806 -0.0908
  3414G12c H00J63411   5.244   8.114   1.969 -1.5372 -0.5028  0.9677
  3414G12c H00I63412   5.379   8.032   1.891  0.3473 -0.8854  4.4810
  3414G12c C01M63413   5.202   7.714   1.810 -0.5457 -0.9248  0.4592
  3414G12c C02063414   5.252   7.230   1.715 -0.0387 -0.3768  0.1701
  3414G12c C02163415   5.293   7.275   1.590 -1.2393  0.0724 -0.1697
  3414G12c C01L63416   5.185   7.589   1.860 -0.1414 -0.2938  0.3755
  3414G12c O00763417   5.312   7.744   1.740  1.0361  1.1460 -0.6097
  3414G12c C02263418   5.345   7.420   1.573  2.1679  0.1470 -0.6852
  3414G12c C02363419   5.400   7.214   1.510 -0.7105 -0.1696 -1.2981
  3414G12c C00G63420   5.668   7.208   1.485  1.5648 -1.2553  2.6837
  3414G12c C00E63421   5.881   7.220   1.344  0.8285 -0.1310  0.1863
  3414G12c O00A63422   6.011   7.187   1.314 -0.1511  0.6920  0.8265
  3414G12c C02463423   6.021   7.066   1.226 -0.4734  0.2831  1.4961
  3414G12c H00V63424   6.119   7.019   1.227  0.3609  1.8854 -0.8782
  3414G12c H00U63425   6.020   7.128   1.137 -0.4220  6.2206  5.3380
  3414G12c H00T63426   5.940   6.993   1.235  5.6075 -7.7764 -2.8335
  3424G12c C00D63427   2.054   9.686   7.454  0.1081 -2.2333  2.3409
  3424G12c O00B63428   2.046   9.563   7.382 -0.6979  0.0654  0.2938
  3424G12c C02563429   1.960   9.468   7.424  0.5073  0.4246  0.7015
  3424G12c C02663430   1.851   9.436   7.307  0.2008 -1.8615  0.0945
  3424G12c H00Y63431   1.744   9.430   7.327 -0.1604  2.2120 -0.3092
  3424G12c H00X63432   1.850   9.327   7.302 -1.9136 -2.0116  2.7166
  3424G12c O00C63433   1.859   9.531   7.185 -1.6650 -0.8392 -0.8873
  3424G12c H00W63434   1.823   9.490   7.107  0.0283 -5.5466  0.6501
  3424G12c C02763435   1.939   9.415   7.561  1.1276  0.0323 -0.6961
  3424G12c O00D63436   2.042   9.426   7.663  0.5250 -0.8058 -1.1106
  3424G12c H00Z63437   2.123   9.441   7.618  1.1169  4.9386  1.4652
  3424G12c C02863438   1.811   9.380   7.590 -0.7832 -0.5474 -1.1179
  3424G12c C02963439   1.770   9.253   7.576 -0.1464 -0.3387 -0.9392
  3424G12c H01063440   1.864   9.206   7.551  0.9713  2.2720 -1.8405
  3424G12c C02T63441   1.635   9.209   7.560  0.1651  0.2504 -1.6826
  3424G12c H01O63442   1.592   9.125   7.507 -3.0985  0.7998 -0.0662
  3424G12c C02S63443   1.547   9.301   7.601 -0.3391 -0.5444  0.7342
  3424G12c O00J63444   1.426   9.286   7.639 -0.6362 -0.0432 -1.7075
  3424G12c H01P63445   1.394   9.370   7.666 -1.4192 -2.2802  5.1023
  3424G12c C02R63446   1.578   9.437   7.610  0.2798  0.3591  0.7995
  3424G12c O00I63447   1.482   9.525   7.614  1.1320 -0.6372  1.7884
  3424G12c C02Q63448   1.519   9.650   7.663  0.5047  1.6460  0.4608
  3424G12c H01N63449   1.552   9.682   7.762  0.8094  4.7207 -0.5818
  3424G12c H01R63450   1.443   9.728   7.657  0.4894  1.5809 -0.2481
  3424G12c H01Q63451   1.596   9.696   7.603 -2.7798  4.4505 -1.7904
  3424G12c C02A63452   1.710   9.471   7.594 -0.4589  0.0367 -1.1032
  3424G12c H01163453   1.747   9.572   7.587  4.5790 -1.1650  3.7097
  3424G12c C00C63454   1.939   9.753   7.476  0.5053  0.3964 -1.3401
  3424G12c H01263455   1.851   9.714   7.426  1.6823 -1.8366 -1.7522
  3424G12c C00B63456   1.914   9.852   7.566  1.1448 -1.5617  0.1392
  3424G12c C00A63457   1.793   9.929   7.587  0.7460 -1.6391 -0.9988
  3424G12c C00963458   1.665   9.936   7.512  0.5176 -0.9727 -0.5579
  3424G12c C00863459   1.648   9.878   7.378 -0.8447  0.8876  0.1849
  3424G12c H01363460   1.643   9.786   7.324 -1.8074  2.5018 -2.5614
  3424G12c C00763461   1.616   9.969   7.283 -0.2597 -0.6293  0.7634
  3424G12c H01463462   1.619   9.932   7.182 -1.9464  3.1659 -0.7559
  3424G12c C00663463   1.572  10.099   7.324 -0.5368 -1.5105 -0.9687
  3424G12c C00563464   1.599  10.152   7.448  2.7382 -0.3377  0.8327
  3424G12c C00463465   1.577  10.294   7.480 -1.4323  0.0263 -1.0172
  3424G12c C00363466   1.634  10.336   7.613  1.8186 -1.6311 -0.2787
  3424G12c C00263467   1.623  10.487   7.630  0.3531  1.1182 -0.1759
  3424G12c C00163468   1.685  10.571   7.720  0.1368  2.1015 -1.2617
  3424G12c C00M63469   1.839  10.562   7.733  0.3633  1.2082  0.9704
  3424G12c C00L63470   1.900  10.449   7.746  1.9514 -1.2199  0.4066
  3424G12c C00R63471   2.028  10.422   7.794 -0.8843 -0.3746  0.2774
  3424G12c C00Q63472   2.148  10.498   7.784  1.5379 -0.3700 -0.4509
  3424G12c C00V63473   2.274  10.438   7.806  1.0083  0.9288  0.4996
  3424G12c C00U63474   2.280  10.304   7.768 -1.6097  1.4689 -0.3004
  3424G12c C00T63475   2.173  10.223   7.763  0.5368 -1.4665 -0.7378
  3424G12c C01663476   2.157  10.098   7.724  0.0908  1.6226  0.0532
  3424G12c C01563477   2.276  10.019   7.723  0.4925 -0.5154  0.8062
  3424G12c C01063478   2.399  10.088   7.757 -1.1406  2.0119  0.7577
  3424G12c C01163479   2.483   9.994   7.818  0.0203 -1.1976  0.3913
  3424G12c H00563480   2.553  10.025   7.893  3.6195  0.3624 -3.3923
  3424G12c C01263481   2.513   9.868   7.744  0.5612 -1.4721 -0.9551
  3424G12c C01763482   2.621   9.782   7.779  1.4718  0.1270  1.5490
  3424G12c O00263483   2.736   9.809   7.723  1.6578 -0.6113  0.7183
  3424G12c H00463484   2.786   9.884   7.753  2.2379  0.4832 -2.7480
  3424G12c C01863485   2.601   9.697   7.876 -0.2649 -0.6115 -0.8478
  3424G12c O00163486   2.470   9.675   7.944  1.3102 -0.6132  0.2386
  3424G12c H00363487   2.494   9.645   8.031  1.5006  3.7373  1.8043
  3424G12c C01963488   2.712   9.629   7.941  0.3520  1.2794 -1.0158
  3424G12c H00263489   2.717   9.534   7.889 -5.2075  1.6638 -2.5676
  3424G12c H00163490   2.806   9.682   7.928  0.2399  2.1008  1.2860
  3424G12c O00063491   2.660   9.648   8.081  0.7253 -0.0923  0.6472
  3424G12c C01A63492   2.742   9.679   8.188 -0.3971  1.9242  0.5996
  3424G12c C02K63493   2.682   9.765   8.284 -0.8104 -0.6306  0.4452
  3424G12c O00G63494   2.554   9.837   8.277  0.7333  1.3288  3.1513
  3424G12c C02M63495   2.439   9.739   8.306 -0.2857  0.0664 -1.2103
  3424G12c H01G63496   2.396   9.739   8.206 -0.6617  3.7840 -1.1286
  3424G12c H01F63497   2.481   9.649   8.350  0.7292  0.8110 -0.6107
  3424G12c H01E63498   2.364   9.805   8.351 -1.3601  0.3835 -3.3856
  3424G12c C02J63499   2.767   9.838   8.387 -1.1695  0.0512 -0.1324
  3424G12c H01H63500   2.735   9.884   8.479  1.3456  6.2479 -2.1388
  3424G12c C02I63501   2.907   9.786   8.404 -0.3835  1.8685  0.2073
  3424G12c C02N63502   2.988   9.816   8.510 -0.3236  0.3602 -0.0923
  3424G12c H01M63503   2.999   9.923   8.522  0.2531  0.7577 -3.5007
  3424G12c C02O63504   3.053   9.723   8.593  0.7609 -0.6319 -1.0700
  3424G12c H01L63505   3.104   9.756   8.682  3.3830 -1.1703 -2.3431
  3424G12c C02P63506   2.975   9.592   8.628  0.2070  0.2301 -0.8053
  3424G12c H01K63507   2.906   9.601   8.544  2.0750 -1.4653 -2.5634
  3424G12c H01J63508   3.054   9.517   8.620  1.9265  2.1268 -2.3428
  3424G12c O00H63509   2.894   9.605   8.743 -0.5934 -0.3215 -1.0015
  3424G12c H01I63510   2.805   9.613   8.712 -1.9590 -0.1818  2.6792
  3424G12c C02H63511   2.959   9.687   8.312 -1.3159 -1.0014  1.5223
  3424G12c H01C63512   3.060   9.655   8.289 -0.6270  1.8197  0.4268
  3424G12c C02L63513   2.875   9.646   8.199 -0.6261  0.1031  0.0553
  3424G12c H01D63514   2.912   9.607   8.105  3.7265 -0.5889  1.9600
  3424G12c C01363515   2.401   9.824   7.677  0.4455  0.5669  1.3460
  3424G12c H00063516   2.416   9.726   7.634  2.3521  2.3247 -2.2260
  3424G12c C01463517   2.279   9.901   7.662 -1.4432  0.0908  0.0960
  3424G12c C00F63518   2.162   9.840   7.608 -0.5731 -0.5474  1.5329
  3424G12c C00H63519   2.044  10.021   7.705 -0.0007  2.0129 -0.8617
  3424G12c C00I63520   1.907  10.083   7.736 -2.3728  0.3036 -0.8747
  3424G12c C00J63521   1.925  10.215   7.794  0.0978 -0.1344 -0.3173
  3424G12c C00Z63522   2.400  10.227   7.779 -0.2962  0.5778 -0.4657
  3424G12c C00Y63523   2.523  10.304   7.807 -0.0329 -0.3114 -0.0185
  3424G12c H00663524   2.608  10.238   7.805  4.2275  4.5373  5.3648
  3424G12c C00X63525   2.522  10.442   7.818 -0.5252 -0.0947  0.3055
  3424G12c O00363526   2.643  10.517   7.821 -0.2798  0.0360 -0.4816
  3424G12c C01B63527   2.728  10.471   7.721  0.2826  1.3304  1.1987
  3424G12c H00963528   2.816  10.533   7.704  1.2859 -1.8605 -7.8085
  3424G12c H00863529   2.686  10.464   7.621  2.4945 -2.4759  0.4348
  3424G12c H00763530   2.762  10.368   7.721  6.0725  3.0707 -0.5783
  3424G12c C00W63531   2.396  10.509   7.814  0.7979 -0.4917  0.4088
  3424G12c O00463532   2.400  10.633   7.789 -0.6858 -2.5221  0.9029
  3424G12c C01C63533   2.275  10.714   7.796  0.1017  0.4812  0.4769
  3424G12c H00A63534   2.304  10.815   7.768  0.4324  0.6852  1.5182
  3424G12c C00P63535   2.157  10.646   7.762  0.5806 -0.3865 -0.2261
  3424G12c C00O63536   2.041  10.721   7.716 -1.2132  1.0098 -0.0952
  3424G12c C01D63537   2.073  10.851   7.657 -0.7443 -1.5213  2.0759
  3424G12c H00S63538   2.168  10.885   7.617 -2.9169  1.0068 -1.3403
  3424G12c C01E63539   1.971  10.920   7.588 -0.3481 -0.4444  0.6782
  3424G12c O00863540   1.998  11.044   7.530 -0.3200  0.1267 -0.7736
  3424G12c C01V63541   2.111  11.030   7.441  0.2075  0.2327 -0.1101
  3424G12c C01Z63542   2.203  11.141   7.482  1.3605  0.4150  1.3595
  3424G12c H00R63543   2.250  11.151   7.385 -2.8646  6.9340 -0.4210
  3424G12c H00Q63544   2.142  11.222   7.524 -2.5240 -1.4289 -0.4643
  3424G12c O00963545   2.310  11.108   7.572  1.8800 -1.1957  0.5471
  3424G12c H00P63546   2.254  11.138   7.642 -3.0206  3.6207 -4.8739
  3424G12c C01W63547   2.141  10.931   7.354  0.8528  1.0487  1.1834
  3424G12c H00O63548   2.044  10.890   7.331 -0.3712  1.1781  5.7070
  3424G12c C01X63549   2.272  10.918   7.268 -2.1435  0.5981 -0.4821
  3424G12c H00N63550   2.239  10.938   7.166 -1.7528 -7.4165 -2.4992
  3424G12c H00M63551   2.340  10.991   7.313  3.8346 -5.1938  0.6306
  3424G12c C01Y63552   2.349  10.781   7.279  0.0899 -1.9674 -0.6056
  3424G12c C02D63553   2.260  10.670   7.290 -3.7690 -0.5166 -0.1833
  3424G12c H01963554   2.165  10.696   7.244 -1.6522  3.8290 -2.4242
  3424G12c C02C63555   2.308  10.543   7.322 -0.0504 -1.7469 -1.1964
  3424G12c H01A63556   2.233  10.467   7.336 -0.4443 -1.4672 -1.8027
  3424G12c C02B63557   2.427  10.527   7.385  1.0229 -0.0754 -0.3694
  3424G12c O00E63558   2.464  10.404   7.443  0.4062 -0.0499 -0.1867
  3424G12c H01B63559   2.529  10.450   7.494 -1.5450 -2.0741  4.3836
  3424G12c C02F63560   2.527  10.622   7.348  1.0424 -0.1498 -0.2920
  3424G12c O00F63561   2.655  10.584   7.358  0.9168  0.3570  0.2867
  3424G12c C02G63562   2.761  10.678   7.352 -0.1031 -0.1056  1.6221
  3424G12c H01763563   2.742  10.714   7.454  1.7185 -2.5085  2.8546
  3424G12c H01663564   2.770  10.752   7.273 -1.3689 -1.8237 -0.1588
  3424G12c H01563565   2.865  10.658   7.328 -0.0206  0.2556  1.6747
  3424G12c C02E63566   2.497  10.756   7.298  1.5116 -0.1791  0.4053
  3424G12c H01863567   2.562  10.841   7.287 -2.5406  3.1997  1.4845
  3424G12c C01F63568   1.842  10.871   7.571  2.1269  1.1773  1.3147
  3424G12c C01G63569   1.741  10.885   7.459 -0.3936  2.9336  0.4900
  3424G12c H00L63570   1.786  10.950   7.385 -2.1436 -2.4363 -5.8654
  3424G12c C01H63571   1.625  10.800   7.450 -0.4643 -0.7370 -0.4080
  3424G12c H00B63572   1.573  10.775   7.359  4.0894 -6.2397 -1.8248
  3424G12c C01I63573   1.593  10.707   7.552  0.8156 -0.2878  0.8392
  3424G12c C01U63574   1.806  10.774   7.662 -1.4561  0.0886 -0.5893
  3424G12c C00S63575   2.049  10.290   7.780  0.3243 -0.8321  1.1086
  3424G12c C00K63576   1.832  10.324   7.755 -0.5592  1.4484  1.0735
  3424G12c C00N63577   1.903  10.687   7.710  0.1108  0.8486  1.1142
  3424G12c C00063578   1.668  10.709   7.671 -1.2050 -0.2658 -0.4718
  3424G12c C01J63579   1.569  10.571   7.515  0.0550  0.7766 -0.6769
  3424G12c C01K63580   1.502  10.519   7.406 -0.4220 -0.3098  0.5134
  3424G12c C01P63581   1.414  10.591   7.320  0.9413  1.1071  1.3964
  3424G12c C01Q63582   1.331  10.710   7.364 -0.7997  0.5748  1.6025
  3424G12c H00G63583   1.384  10.800   7.393 -4.5368  2.7639  1.9685
  3424G12c C01R63584   1.195  10.684   7.354 -1.0272  0.0229  0.0799
  3424G12c H00F63585   1.146  10.588   7.363 -1.4755  0.4486  2.6950
  3424G12c C01S63586   1.084  10.774   7.328 -0.9499 -0.5132 -0.3097
  3424G12c H00E63587   1.077  10.826   7.423  2.9819 -2.1080  0.9700
  3424G12c H00D63588   1.137  10.846   7.265 -0.3862  1.5566  2.4528
  3424G12c O00563589   0.969  10.703   7.286  0.0500  1.1755 -0.5502
  3424G12c H00C63590   0.986  10.673   7.198 -1.8896 -2.0097  0.1111
  3424G12c C01O63591   1.392  10.540   7.192  0.7526  1.7369  1.3701
  3424G12c H00H63592   1.328  10.590   7.121 -2.0821 -2.8290  0.4732
  3424G12c C01N63593   1.418  10.409   7.167  0.6727  2.0440  0.0086
  3424G12c O00663594   1.321  10.366   7.064  1.3292  0.7903 -1.4961
  3424G12c C01T63595   1.247  10.249   7.093 -1.2637 -0.6566 -2.2480
  3424G12c H00K63596   1.211  10.206   6.999 -3.8356 -9.1199  2.1722
  3424G12c H00J63597   1.160  10.231   7.156  0.1502  0.7432  0.1689
  3424G12c H00I63598   1.292  10.152   7.108 -0.0718  0.2631  0.2518
  3424G12c C01M63599   1.489  10.315   7.249 -0.2364 -0.7214 -0.9306
  3424G12c C02063600   1.701  10.257   7.710 -2.1431  1.5095 -1.0841
  3424G12c C02163601   1.683  10.118   7.668 -0.1052  0.2695 -0.3166
  3424G12c C01L63602   1.535  10.380   7.377  0.9004 -1.4621 -0.6895
  3424G12c O00763603   1.485  10.166   7.253 -0.9031 -2.1174  0.8196
  3424G12c C02263604   1.623  10.070   7.556  0.8055 -1.5317  0.7962
  3424G12c C02363605   1.786  10.034   7.679 -0.1643  0.4712  0.0525
  3424G12c C00G63606   2.045   9.903   7.614  0.8682  0.5784 -1.3680
  3424G12c C00E63607   2.174   9.735   7.508 -0.6622  0.9687 -0.6122
  3424G12c O00A63608   2.284   9.689   7.442 -0.0610  0.6561  0.0764
  3424G12c C02463609   2.331   9.759   7.337 -0.5309  0.2148 -0.3809
  3424G12c H00V63610   2.276   9.852   7.325  1.6988  0.8527 -8.4915
  3424G12c H00U63611   2.313   9.693   7.252 -6.9399 -0.4212  1.1833
  3424G12c H00T63612   2.440   9.765   7.343 -0.2762 -2.4132 -1.6999
  3434G12c C00D63613   6.815  10.534   2.840  0.5395  0.2823  1.7389
  3434G12c O00B63614   6.920  10.569   2.761 -0.3440 -0.5674  0.5378
  3434G12c C02563615   6.905  10.561   2.636  0.4002  0.2239  0.8955
  3434G12c C02663616   6.979  10.687   2.562 -0.8164 -0.9759 -1.0984
  3434G12c H00Y63617   7.086  10.670   2.550  0.3600  1.1916  4.8607
  3434G12c H00X63618   6.974  10.768   2.635  1.2891 -0.2488 -1.7156
  3434G12c O00C63619   6.915  10.758   2.450 -0.6375 -0.1567 -0.2469
  3434G12c H00W63620   6.990  10.800   2.412 -0.8599 -0.3236 -0.8966
  3434G12c C02763621   6.873  10.450   2.561  0.6207  2.5854 -1.0974
  3434G12c O00D63622   6.814  10.338   2.600 -1.0194  1.1053  0.8386
  3434G12c H00Z63623   6.748  10.299   2.544 -1.9545  2.6087  0.8787
  3434G12c C02863624   6.913  10.430   2.425  0.2894 -0.3865  0.9622
  3434G12c C02963625   7.049  10.409   2.415  0.9999  0.8301  2.4069
  3434G12c H01063626   7.117  10.409   2.499  6.2801  2.8386 -1.6448
  3434G12c C02T63627   7.099  10.371   2.289  0.9702 -0.0635  0.0378
  3434G12c H01O63628   7.198  10.329   2.273  1.6117 -0.4406  4.2088
  3434G12c C02S63629   7.019  10.393   2.170 -0.2650 -0.6912 -0.8780
  3434G12c O00J63630   7.095  10.364   2.056  0.0986 -1.3335  0.6241
  3434G12c H01P63631   7.060  10.304   1.992  5.3703 -0.9646 -2.9063
  3434G12c C02R63632   6.871  10.416   2.185  0.6489  2.0173 -1.9053
  3434G12c O00I63633   6.786  10.427   2.082 -0.8223 -0.2924  0.2852
  3434G12c C02Q63634   6.818  10.555   2.021 -0.3133  0.7094  1.7263
  3434G12c H01N63635   6.758  10.577   1.933  3.6714  3.4272 -0.4565
  3434G12c H01R63636   6.901  10.517   1.962 -1.4795 -6.2285  4.0377
  3434G12c H01Q63637   6.856  10.652   2.054 -0.6123  0.5020  2.6962
  3434G12c C02A63638   6.827  10.414   2.313 -0.7895  2.0004 -1.3151
  3434G12c H01163639   6.723  10.441   2.329 -0.3816  4.1231 -2.1230
  3434G12c C00C63640   6.684  10.502   2.796  0.9332 -0.2330 -1.0017
  3434G12c H01263641   6.646  10.503   2.694  4.1936  0.8867 -2.2535
  3434G12c C00B63642   6.588  10.475   2.891 -0.4722  1.4533  0.1164
  3434G12c C00A63643   6.452  10.457   2.869 -0.3119  1.0847 -1.2556
  3434G12c C00963644   6.376  10.521   2.767 -0.2461 -0.9483  0.3620
  3434G12c C00863645   6.409  10.562   2.641  0.3756 -1.8386 -1.5525
  3434G12c H01363646   6.498  10.536   2.585  0.2373 -0.5735 -2.3890
  3434G12c C00763647   6.328  10.683   2.599 -0.6350 -0.1915  0.8227
  3434G12c H01463648   6.403  10.752   2.562 -1.8274 -1.3719 -4.0948
  3434G12c C00663649   6.219  10.736   2.674 -0.2334 -0.4613  0.8407
  3434G12c C00563650   6.198  10.677   2.799 -0.0224  1.4362  0.8299
  3434G12c C00463651   6.123  10.746   2.897  0.7159 -1.0895 -0.6458
  3434G12c C00363652   6.123  10.701   3.030  1.2391 -1.1473  0.9002
  3434G12c C00263653   6.028  10.764   3.125  1.4853  1.0146 -0.2318
  3434G12c C00163654   5.975  10.744   3.261  0.0235 -2.1671 -0.0593
  3434G12c C00M63655   6.084  10.712   3.364 -2.0887  0.0598 -1.4982
  3434G12c C00L63656   6.191  10.617   3.341  1.4936  0.0719 -1.2979
  3434G12c C00R63657   6.310  10.622   3.427 -0.4552 -0.7014 -1.7560
  3434G12c C00Q63658   6.352  10.695   3.536  1.3637  0.6495  0.8276
  3434G12c C00V63659   6.468  10.638   3.596  0.3849  2.1708 -2.4504
  3434G12c C00U63660   6.554  10.564   3.503  0.8856 -1.0632 -0.3946
  3434G12c C00T63661   6.506  10.533   3.378 -0.2009 -0.1208 -0.5601
  3434G12c C01663662   6.598  10.496   3.272  1.5877  1.0476 -2.1135
  3434G12c C01563663   6.734  10.493   3.299  1.3332  1.1958 -0.0280
  3434G12c C01063664   6.777  10.505   3.427  0.1181  0.0521 -0.4151
  3434G12c C01163665   6.916  10.468   3.453  2.0331  0.2657 -0.8858
  3434G12c H00563666   6.957  10.424   3.543 -6.7020 -1.2734  2.8212
  3434G12c C01263667   7.000  10.535   3.369 -0.9456 -0.9676  0.9236
  3434G12c C01763668   7.135  10.592   3.399  0.3606 -2.1311 -1.2290
  3434G12c O00263669   7.194  10.540   3.505  0.1758  0.9937  0.6446
  3434G12c H00463670   7.282  10.571   3.488  0.9911 -0.9089  1.2224
  3434G12c C01863671   7.180  10.711   3.349 -0.7342  0.1885 -0.2776
  3434G12c O00163672   7.094  10.785   3.269 -0.7611  0.3692 -0.2209
  3434G12c H00363673   7.001  10.771   3.267 -2.3686  6.7793  7.1886
  3434G12c C01963674   7.305  10.785   3.385  0.3803 -0.3483 -1.1476
  3434G12c H00263675   7.309  10.888   3.348  3.3399  0.0778  0.2380
  3434G12c H00163676   7.285  10.771   3.492 -3.7606 -0.4624 -1.8358
  3434G12c O00063677   7.413  10.707   3.320  0.0270 -2.0574  0.5951
  3434G12c C01A63678   7.547  10.738   3.335 -0.0204 -0.0292  0.1015
  3434G12c C02K63679   7.596  10.867   3.311 -0.4483  0.0097  0.9516
  3434G12c O00G63680   7.507  10.969   3.307 -0.5926  0.8958 -1.8302
  3434G12c C02M63681   7.556  11.087   3.249  0.9266 -0.3164  1.6034
  3434G12c H01G63682   7.537  11.076   3.142 -0.0996  0.2641  1.7195
  3434G12c H01F63683   7.650  11.137   3.273  0.8267  0.6985 -0.0180
  3434G12c H01E63684   7.496  11.171   3.284  2.8952  1.0019  1.9451
  3434G12c C02J63685   7.739  10.912   3.312 -1.0682  0.7460  1.2287
  3434G12c H01H63686   7.786  11.009   3.302 -0.3427  0.4523  1.7741
  3434G12c C02I63687   7.827  10.811   3.320 -0.1793  1.0896  0.6177
  3434G12c C02N63688   7.968  10.848   3.302  0.0402 -0.7746 -0.6257
  3434G12c H01M63689   8.025  10.939   3.318 -1.2894  0.2303 -1.4633
  3434G12c C02O63690   8.066  10.759   3.272 -0.5800 -1.3269  1.7598
  3434G12c H01L63691   8.052  10.660   3.231 -2.8894 -2.1515  4.3495
  3434G12c C02P63692   8.218  10.804   3.234 -0.3073  2.0488 -0.7254
  3434G12c H01K63693   8.256  10.825   3.334 -1.1559  1.0577 -0.1804
  3434G12c H01J63694   8.249  10.714   3.182 -4.4175  0.9920 -1.5634
  3434G12c O00H63695   8.213  10.915   3.152  0.3658  0.5717 -0.4827
  3434G12c H01I63696   8.180  10.900   3.065  4.1460  0.1445 -1.9380
  3434G12c C02H63697   7.770  10.671   3.327 -0.0903 -0.2428 -2.0542
  3434G12c H01C63698   7.817  10.577   3.298  1.2638  0.2371 -1.4803
  3434G12c C02L63699   7.635  10.639   3.332 -0.5057  1.2134  0.0023
  3434G12c H01D63700   7.614  10.534   3.322 -4.8594  2.0591 -0.8700
  3434G12c C01363701   6.959  10.544   3.234  0.4917  0.5496  0.3059
  3434G12c H00063702   7.034  10.559   3.158  2.1541  0.9880  2.0120
  3434G12c C01463703   6.817  10.503   3.194  1.5459  0.5596 -0.7295
  3434G12c C00F63704   6.763  10.491   3.064  0.9008  0.1306  1.2052
  3434G12c C00H63705   6.553  10.470   3.143  3.1581  0.1025  1.3015
  3434G12c C00I63706   6.413  10.479   3.119  1.0735 -0.6669  0.2066
  3434G12c C00J63707   6.333  10.483   3.238 -0.4421  0.2602  0.2219
  3434G12c C00Z63708   6.684  10.535   3.540 -0.3257  0.1805 -0.1462
  3434G12c C00Y63709   6.738  10.569   3.672  0.5874  0.2371  0.6410
  3434G12c H00663710   6.824  10.512   3.703  0.3098 -1.7501 -1.9881
  3434G12c C00X63711   6.653  10.653   3.757 -1.9615  0.4069  0.5950
  3434G12c O00363712   6.708  10.683   3.878 -0.6615 -0.0624 -0.8818
  3434G12c C01B63713   6.812  10.797   3.876 -1.4104  0.1890 -0.9299
  3434G12c H00963714   6.811  10.849   3.780  1.1801  4.1987  1.0772
  3434G12c H00863715   6.918  10.787   3.898  0.5003  9.3919 -3.7482
  3434G12c H00763716   6.761  10.869   3.940 -3.3145 -0.1572 -2.0066
  3434G12c C00W63717   6.523  10.699   3.712 -0.8838 -2.4352 -0.6789
  3434G12c O00463718   6.444  10.806   3.784 -1.5073  1.0737 -0.4777
  3434G12c C01C63719   6.354  10.865   3.699  1.0859  0.9667 -0.4499
  3434G12c H00A63720   6.377  10.970   3.701  1.2461  0.9570  3.2345
  3434G12c C00P63721   6.291  10.798   3.600 -0.0132 -0.3311 -0.4260
  3434G12c C00O63722   6.161  10.849   3.575  0.1905  0.6390  1.5541
  3434G12c C01D63723   6.114  10.965   3.635 -1.1684  0.3959  0.9040
  3434G12c H00S63724   6.169  11.024   3.706 -0.1725 -2.2159  2.3801
  3434G12c C01E63725   6.037  11.063   3.594 -0.6609 -0.9156 -1.2678
  3434G12c O00863726   6.049  11.197   3.659  0.8108  0.4349 -0.3376
  3434G12c C01V63727   5.943  11.295   3.647  0.8743 -0.1484  0.1915
  3434G12c C01Z63728   6.002  11.434   3.660 -0.1804 -1.3166  0.1810
  3434G12c H00R63729   6.077  11.425   3.583  1.7626  2.0994  1.5379
  3434G12c H00Q63730   5.935  11.518   3.638  0.9972 -0.4214 -0.0197
  3434G12c O00963731   6.015  11.419   3.801  0.5734 -0.9669  0.4230
  3434G12c H00P63732   6.033  11.328   3.818 -1.0799 -0.6719  4.0804
  3434G12c C01W63733   5.812  11.283   3.628  0.6245  1.0141  1.7979
  3434G12c H00O63734   5.767  11.186   3.616 -3.3926  3.3658 -4.4298
  3434G12c C01X63735   5.719  11.405   3.588  1.5126  0.2532 -0.8213
  3434G12c H00N63736   5.751  11.488   3.525 -2.5731 -0.1680 -3.6038
  3434G12c H00M63737   5.640  11.364   3.526  0.7451  6.8850 -4.7190
  3434G12c C01Y63738   5.617  11.453   3.692 -0.1249 -0.4994 -1.1602
  3434G12c C02D63739   5.521  11.551   3.645  1.0086  0.7603  0.8131
  3434G12c H01963740   5.551  11.556   3.541 -1.4288  1.7880  0.1127
  3434G12c C02C63741   5.417  11.606   3.726 -1.1114  0.1609 -1.6576
  3434G12c H01A63742   5.357  11.673   3.666 -1.0848 -2.3904 -4.6523
  3434G12c C02B63743   5.404  11.539   3.852  1.0349  0.9231  0.6401
  3434G12c O00E63744   5.304  11.584   3.930 -0.0969  0.4934 -0.6958
  3434G12c H01B63745   5.267  11.515   3.983  2.7432 -0.9087 -0.4771
  3434G12c C02F63746   5.494  11.437   3.894 -0.6041 -0.2997  0.6352
  3434G12c O00F63747   5.486  11.404   4.030  0.8517 -1.4421  1.2713
  3434G12c C02G63748   5.562  11.486   4.124 -0.3737 -0.5301  0.5668
  3434G12c H01763749   5.520  11.587   4.122 -0.6297 -0.6440 -1.3984
  3434G12c H01663750   5.667  11.466   4.142 -0.9040  0.4442  5.3084
  3434G12c H01563751   5.515  11.443   4.212 -2.9166  5.3015  2.3015
  3434G12c C02E63752   5.599  11.394   3.809 -0.4275 -0.6952 -0.1404
  3434G12c H01863753   5.658  11.328   3.870  4.1232  3.3755  0.1956
  3434G12c C01F63754   5.986  11.043   3.454  1.1703 -0.2160  0.2587
  3434G12c C01G63755   5.944  11.141   3.359 -0.4105 -1.5909 -0.1208
  3434G12c H00L63756   5.975  11.241   3.388 -3.1810 -1.7461  3.7622
  3434G12c C01H63757   5.920  11.095   3.213 -0.4137 -0.0330 -1.5076
  3434G12c H00B63758   5.924  11.144   3.117  4.3478  2.6891 -0.0542
  3434G12c C01I63759   5.918  10.958   3.192  0.7167 -1.1946 -1.6629
  3434G12c C01U63760   5.994  10.903   3.401  0.9662  0.0183 -0.0275
  3434G12c C00S63761   6.378  10.520   3.365  1.2712 -1.1096 -0.0583
  3434G12c C00K63762   6.209  10.552   3.214 -0.3473  1.4258 -0.7041
  3434G12c C00N63763   6.093  10.818   3.455 -0.9053  0.5999 -1.1912
  3434G12c C00063764   5.912  10.859   3.301  0.1621  0.2523  0.4621
  3434G12c C01J63765   5.963  10.888   3.086  0.4627 -0.0561  0.4457
  3434G12c C01K63766   5.950  10.923   2.945 -0.2262  0.3785 -1.1218
  3434G12c C01P63767   5.870  11.035   2.901  0.7067 -1.2482  0.2031
  3434G12c C01Q63768   5.749  11.074   2.958 -0.7263  0.2203 -1.6212
  3434G12c H00G63769   5.661  11.011   2.958  1.2251 -2.6553 -4.8890
  3434G12c C01R63770   5.747  11.210   2.963 -0.6355 -0.5507 -0.2339
  3434G12c H00F63771   5.832  11.276   2.951 -2.1029  1.5802  0.8275
  3434G12c C01S63772   5.637  11.285   3.021  0.6387 -0.6574  0.6236
  3434G12c H00E63773   5.681  11.332   3.109  1.1308 -1.0564  0.5906
  3434G12c H00D63774   5.617  11.382   2.975  5.2880  1.3529  2.4419
  3434G12c O00563775   5.532  11.215   3.063  1.0633  1.2189 -1.9454
  3434G12c H00C63776   5.524  11.143   3.002 -1.0397  2.8813 -3.7074
  3434G12c C01O63777   5.909  11.078   2.777 -0.1686  0.3971 -0.2330
  3434G12c H00H63778   5.837  11.145   2.733  3.6973  0.8599 -6.6596
  3434G12c C01N63779   6.009  11.031   2.702  0.2285 -1.3823  2.4703
  3434G12c O00663780   6.031  11.077   2.565  0.7666 -0.4534 -1.2423
  3434G12c C01T63781   5.961  11.192   2.524  1.0068 -0.0769  1.9257
  3434G12c H00K63782   5.854  11.171   2.527  1.1101 -0.9721  0.0448
  3434G12c H00J63783   5.991  11.197   2.419 -3.4745 -5.2088  0.1852
  3434G12c H00I63784   5.963  11.293   2.566 -6.5907  2.0916 -1.8389
  3434G12c C01M63785   6.078  10.926   2.743 -0.2233 -0.7138  0.7775
  3434G12c C02063786   6.187  10.584   3.077 -0.1388 -0.2789 -0.0468
  3434G12c C02163787   6.262  10.521   2.969 -1.1738 -1.5901 -0.4534
  3434G12c C01L63788   6.053  10.860   2.865  0.6485  1.4529 -0.3604
  3434G12c O00763789   6.153  10.871   2.639  0.8213  0.9176  0.5952
  3434G12c C02263790   6.255  10.564   2.838  0.3809  2.5027  1.7804
  3434G12c C02363791   6.369  10.454   2.988  0.2108 -2.1429  0.5418
  3434G12c C00G63792   6.634  10.466   3.027  0.5183  0.2444  0.2768
  3434G12c C00E63793   6.849  10.492   2.959  0.1917  0.7051 -0.2905
  3434G12c O00A63794   6.964  10.421   2.990 -0.8325  0.7325  0.4296
  3434G12c C02463795   7.006  10.317   2.900  0.3193 -0.1018 -1.4516
  3434G12c H00V63796   7.033  10.359   2.803 -1.5037  2.8635 -0.7510
  3434G12c H00U63797   6.911  10.277   2.864 -1.5795 -1.3723  4.4006
  3434G12c H00T63798   7.070  10.233   2.925 -2.3398 -1.2251  2.0750
  3444G12c C00D63799  12.748   2.776   3.351  0.4111 -1.1062  0.5505
  3444G12c O00B63800  12.770   2.647   3.390 -2.2786 -1.4673 -0.4759
  3444G12c C02563801  12.885   2.580   3.372  0.4063 -1.5520 -0.4444
  3444G12c C02663802  12.967   2.575   3.500  1.0525 -0.6716  0.9176
  3444G12c H00Y63803  13.076   2.572   3.490  0.6035 -0.7424 -7.6741
  3444G12c H00X63804  12.942   2.481   3.550 -0.1290  1.0796  3.7220
  3444G12c O00C63805  12.911   2.667   3.595 -1.8917  0.0243 -0.1073
  3444G12c H00W63806  12.817   2.670   3.582 -1.7275 -1.1910 -1.8052
  3444G12c C02763807  12.907   2.521   3.262 -0.5977 -0.1447 -0.6120
  3444G12c O00D63808  12.848   2.563   3.143 -0.2325 -0.1964 -0.5123
  3444G12c H00Z63809  12.780   2.611   3.186 -1.5165 -2.4769  0.0788
  3444G12c C02863810  13.051   2.498   3.239  0.2871 -0.3264 -1.5174
  3444G12c C02963811  13.094   2.363   3.212  0.7334 -0.8681  0.9985
  3444G12c H01063812  13.016   2.298   3.176 -2.2193  5.1261 -4.1351
  3444G12c C02T63813  13.229   2.360   3.167 -0.9617  1.5364 -1.2182
  3444G12c H01O63814  13.272   2.269   3.128 -7.3736 -1.2789 -2.3581
  3444G12c C02S63815  13.307   2.471   3.149  0.4510 -0.3868  0.5780
  3444G12c O00J63816  13.427   2.470   3.115 -0.1216  0.3927  0.4789
  3444G12c H01P63817  13.477   2.545   3.142 -1.4069  0.7069  2.0994
  3444G12c C02R63818  13.270   2.595   3.213  0.3718  1.1885 -1.1867
  3444G12c O00I63819  13.330   2.711   3.211  1.2769 -0.9005 -0.6913
  3444G12c C02Q63820  13.348   2.767   3.074  1.2057 -0.8460  1.9423
  3444G12c H01N63821  13.448   2.774   3.032  0.8796 -0.7118  1.1804
  3444G12c H01R63822  13.304   2.867   3.079  1.1358 -0.6273 -1.7241
  3444G12c H01Q63823  13.284   2.721   2.998 -3.9536  3.3194  3.4832
  3444G12c C02A63824  13.146   2.605   3.257  0.4273  1.6961 -1.0689
  3444G12c H01163825  13.117   2.707   3.276  4.0060  2.8051 -1.3045
  3444G12c C00C63826  12.861   2.846   3.359 -0.6266  0.7246  0.3293
  3444G12c H01263827  12.955   2.804   3.392  0.2682  6.0957  5.5578
  3444G12c C00B63828  12.889   2.985   3.326 -0.3124  0.5990  0.1423
  3444G12c C00A63829  13.017   3.048   3.345  0.2891  0.6587  0.9791
  3444G12c C00963830  13.120   3.018   3.456  1.3014 -1.0532 -0.6207
  3444G12c C00863831  13.158   2.926   3.555 -0.1773  1.1138 -1.5800
  3444G12c H01363832  13.116   2.826   3.561  4.6741 -0.9475  2.6897
  3444G12c C00763833  13.245   2.972   3.655  2.5883 -1.0285  0.5629
  3444G12c H01463834  13.270   2.918   3.745 -2.1168  3.4301  4.9556
  3444G12c C00663835  13.298   3.109   3.654  1.0511  1.2341 -0.2396
  3444G12c C00563836  13.263   3.183   3.549 -0.5503 -0.4734 -0.3304
  3444G12c C00463837  13.304   3.320   3.536 -0.4124 -0.7190  1.2846
  3444G12c C00363838  13.229   3.411   3.454  0.6461 -1.0196 -0.3845
  3444G12c C00263839  13.271   3.559   3.475 -0.3293 -0.6760  2.0817
  3444G12c C00163840  13.208   3.675   3.435  0.1435  0.8197  1.1279
  3444G12c C00M63841  13.068   3.696   3.398  1.2672  0.5676 -0.1630
  3444G12c C00L63842  13.009   3.600   3.297  1.0187 -0.7519 -0.2426
  3444G12c C00R63843  12.859   3.603   3.275  1.9169 -1.0270 -0.1649
  3444G12c C00Q63844  12.747   3.689   3.314  0.5634 -0.9221 -0.3597
  3444G12c C00V63845  12.623   3.631   3.307  0.1896  0.1315 -0.3267
  3444G12c C00U63846  12.597   3.493   3.299  1.4728 -1.1848  0.3070
  3444G12c C00T63847  12.705   3.408   3.279  0.1867 -2.7934  0.0219
  3444G12c C01663848  12.692   3.276   3.250  0.9730  1.1162 -0.9702
  3444G12c C01563849  12.572   3.222   3.243  1.5288 -3.1378  0.9574
  3444G12c C01063850  12.452   3.297   3.263  0.5988 -0.4819  0.6763
  3444G12c C01163851  12.327   3.247   3.251  0.8437  0.2774 -1.6283
  3444G12c H00563852  12.237   3.297   3.282  0.4168  0.4908 -3.1715
  3444G12c C01263853  12.309   3.119   3.202  1.2538 -0.3826  1.0741
  3444G12c C01763854  12.176   3.074   3.184  2.3809 -0.3547  0.5263
  3444G12c O00263855  12.071   3.104   3.267  0.1907 -0.7976  0.3581
  3444G12c H00463856  12.071   3.047   3.342 -1.9862  0.8231  1.6549
  3444G12c C01863857  12.141   2.993   3.087  1.0860  0.1358 -1.7501
  3444G12c O00163858  12.224   2.942   3.006  0.1097 -0.8913 -1.0527
  3444G12c H00363859  12.201   2.897   2.926  1.6407 -2.8496 -0.4104
  3444G12c C01963860  12.000   2.945   3.048  1.8156 -0.4845 -1.0336
  3444G12c H00263861  11.952   2.857   3.090  2.8741 -0.8480 -0.5455
  3444G12c H00163862  11.917   3.012   3.068  4.5443  2.8626 -0.5594
  3444G12c O00063863  11.983   2.899   2.917  0.2209 -0.8209 -0.5657
  3444G12c C01A63864  11.928   2.984   2.836 -1.3759 -0.6841  0.5031
  3444G12c C02K63865  11.845   2.918   2.736  0.3430  0.6493 -0.1053
  3444G12c O00G63866  11.853   2.792   2.695 -0.0242 -0.2928  1.3132
  3444G12c C02M63867  11.784   2.684   2.758  1.6268 -1.2628 -0.3110
  3444G12c H01G63868  11.756   2.605   2.689  7.0240 -1.3756 -2.6606
  3444G12c H01F63869  11.678   2.706   2.756  1.7067 -0.6289  1.6000
  3444G12c H01E63870  11.812   2.672   2.863 -4.9281  0.8261  1.9169
  3444G12c C02J63871  11.756   3.017   2.671  0.0476 -0.3686  0.3113
  3444G12c H01H63872  11.664   2.979   2.629 -0.3413  0.0323  0.7908
  3444G12c C02I63873  11.787   3.163   2.661 -0.6587 -0.7861  0.5323
  3444G12c C02N63874  11.752   3.232   2.528  0.2119 -0.1867 -0.2493
  3444G12c H01M63875  11.759   3.167   2.441 -0.4165  1.8741 -1.8857
  3444G12c C02O63876  11.711   3.362   2.523  0.2974 -0.0967  0.2445
  3444G12c H01L63877  11.715   3.426   2.610 -6.6661  5.3189 -2.9384
  3444G12c C02P63878  11.703   3.428   2.401 -0.2387  1.5658  1.1650
  3444G12c H01K63879  11.639   3.404   2.316 -0.2297  0.0655  1.5751
  3444G12c H01J63880  11.704   3.536   2.412 -2.9957  1.8328 -0.6635
  3444G12c O00H63881  11.820   3.388   2.320 -1.3520 -1.3199 -0.7963
  3444G12c H01I63882  11.779   3.308   2.290 -0.5336 -2.0418 -0.0009
  3444G12c C02H63883  11.904   3.206   2.726 -1.0479 -0.8181 -1.4971
  3444G12c H01C63884  11.966   3.292   2.706  0.3666 -3.1151 -8.6532
  3444G12c C02L63885  11.973   3.121   2.823 -0.5572  0.7565  0.6031
  3444G12c H01D63886  12.058   3.145   2.885  0.4785 -2.6423  0.5694
  3444G12c C01363887  12.423   3.031   3.199 -0.1769  2.1418 -2.6379
  3444G12c H00063888  12.418   2.924   3.183 -1.3280  0.4128  6.7176
  3444G12c C01463889  12.558   3.075   3.232  1.2945  0.7989  0.0027
  3444G12c C00F63890  12.660   2.990   3.266  0.2212  0.4328 -0.9602
  3444G12c C00H63891  12.802   3.187   3.243  0.2806 -0.2520  1.4399
  3444G12c C00I63892  12.933   3.251   3.233  0.1661  0.5781 -0.7778
  3444G12c C00J63893  12.939   3.395   3.230 -2.2263 -0.0503  0.1018
  3444G12c C00Z63894  12.469   3.429   3.304 -2.1252  0.6314 -1.4696
  3444G12c C00Y63895  12.364   3.523   3.324  1.9851 -1.0904  0.4588
  3444G12c H00663896  12.260   3.496   3.320  0.2127  5.3382 -3.5390
  3444G12c C00X63897  12.369   3.670   3.323 -1.7803 -0.9791  0.9673
  3444G12c O00363898  12.285   3.781   3.352  0.1082  1.1566  0.5770
  3444G12c C01B63899  12.159   3.718   3.373 -1.3730  0.0234  0.2715
  3444G12c H00963900  12.119   3.816   3.400 -6.0908 -2.1563  1.6155
  3444G12c H00863901  12.157   3.660   3.465 -2.9538 -2.4712 -1.2982
  3444G12c H00763902  12.126   3.674   3.279 -3.9819 -1.7525  1.9474
  3444G12c C00W63903  12.506   3.710   3.322 -1.0447  1.6641 -1.7875
  3444G12c O00463904  12.535   3.845   3.307  0.8159  0.4558 -0.3745
  3444G12c C01C63905  12.635   3.876   3.404 -0.0824 -0.9096 -0.7763
  3444G12c H00A63906  12.655   3.982   3.396 -3.2569  0.1523  3.6326
  3444G12c C00P63907  12.760   3.816   3.385 -2.4761  0.7056 -0.1917
  3444G12c C00O63908  12.875   3.846   3.478  0.1783 -0.4260  0.1783
  3444G12c C01D63909  12.852   3.957   3.572 -0.7891  1.2778  0.0203
  3444G12c H00S63910  12.770   4.027   3.570 -5.4242 -3.8461  0.2477
  3444G12c C01E63911  12.949   3.969   3.683 -0.0343 -1.2140 -1.4754
  3444G12c O00863912  12.934   4.054   3.778 -0.0227  1.8257 -0.8638
  3444G12c C01V63913  12.879   4.014   3.902 -0.6806  0.8055 -1.1016
  3444G12c C01Z63914  12.789   3.893   3.907  0.3075  1.2737 -1.1304
  3444G12c H00R63915  12.689   3.889   3.951 -0.2269 -3.8003 -2.4661
  3444G12c H00Q63916  12.771   3.838   3.815 -2.7414 -4.0416  2.3673
  3444G12c O00963917  12.870   3.782   3.956  0.4640 -0.5312  0.0115
  3444G12c H00P63918  12.883   3.760   4.047 -1.9772 -0.4794  0.3947
  3444G12c C01W63919  12.953   4.066   4.004 -0.3709 -0.1065 -0.2129
  3444G12c H00O63920  13.003   4.161   3.990 -0.7738  0.3056  1.0278
  3444G12c C01X63921  12.962   4.031   4.145  0.1923 -0.0302  0.3830
  3444G12c H00N63922  12.925   4.129   4.177 -4.9177 -1.2745 -1.0900
  3444G12c H00M63923  12.873   3.978   4.180 -1.7192  1.5069 -1.9291
  3444G12c C01Y63924  13.071   3.935   4.192  1.3808  0.4046 -1.1499
  3444G12c C02D63925  13.204   3.926   4.150  0.3636 -0.1053 -0.5224
  3444G12c H01963926  13.217   3.983   4.059  3.8922  0.9039  0.5259
  3444G12c C02C63927  13.306   3.838   4.193 -1.2355 -0.7148 -0.3264
  3444G12c H01A63928  13.407   3.821   4.160  0.3616 -1.4825  4.4844
  3444G12c C02B63929  13.280   3.778   4.315  0.0121  1.1195 -1.5740
  3444G12c O00E63930  13.372   3.701   4.375 -1.3227 -0.9213  0.4626
  3444G12c H01B63931  13.311   3.661   4.435 -1.4471 -0.5074  0.6084
  3444G12c C02F63932  13.162   3.801   4.393 -0.2784  0.0751  0.5004
  3444G12c O00F63933  13.140   3.744   4.508 -0.0825  0.0023 -1.0313
  3444G12c C02G63934  13.039   3.635   4.485 -0.8621 -0.6485 -1.4136
  3444G12c H01763935  13.092   3.554   4.534  3.4415  4.1301  2.4376
  3444G12c H01663936  13.014   3.607   4.383 -2.0942 -7.3850  0.4985
  3444G12c H01563937  12.967   3.631   4.567  0.0256  0.9138 -0.5248
  3444G12c C02E63938  13.056   3.893   4.328 -0.5342  2.3229 -0.3234
  3444G12c H01863939  12.954   3.893   4.363 -1.8743  0.2654 -3.9372
  3444G12c C01F63940  13.076   3.897   3.669 -0.2781 -2.0848 -1.9473
  3444G12c C01G63941  13.185   3.891   3.766  1.1228 -0.2042 -2.1079
  3444G12c H00L63942  13.159   3.934   3.862  0.0806 -5.9674  0.4723
  3444G12c C01H63943  13.288   3.794   3.759  0.9919 -1.2317  0.7666
  3444G12c H00B63944  13.353   3.797   3.846  2.9340 -2.3653 -0.6138
  3444G12c C01I63945  13.290   3.707   3.650  0.6031  0.0650 -0.0013
  3444G12c C01U63946  13.101   3.829   3.554 -2.8359 -0.7333 -0.5029
  3444G12c C00S63947  12.828   3.469   3.243  0.0713  0.3858 -0.0444
  3444G12c C00K63948  13.051   3.461   3.285 -0.0015 -0.6161 -0.8103
  3444G12c C00N63949  13.011   3.799   3.467  0.7706 -0.1980  2.2220
  3444G12c C00063950  13.220   3.755   3.536 -0.7697  2.2203 -1.1075
  3444G12c C01J63951  13.345   3.592   3.591 -0.5806  1.3700  0.3034
  3444G12c C01K63952  13.439   3.496   3.661 -0.0692 -0.7917 -0.0927
  3444G12c C01P63953  13.576   3.509   3.734  2.3847 -0.3299 -0.8611
  3444G12c C01Q63954  13.631   3.641   3.754 -0.7398  0.3881 -0.4717
  3444G12c H00G63955  13.571   3.729   3.740  0.2344  2.3095  5.8022
  3444G12c C01R63956  13.764   3.655   3.777 -2.5596  0.1059 -0.3161
  3444G12c H00F63957  13.835   3.575   3.791  3.4833  4.4969 -3.1877
  3444G12c C01S63958  13.833   3.788   3.780 -0.2475 -0.9842 -1.1486
  3444G12c H00E63959  13.919   3.780   3.847 -4.6874 -4.5260  4.6161
  3444G12c H00D63960  13.879   3.838   3.695  3.5013 -2.2983 -0.0008
  3444G12c O00563961  13.762   3.857   3.885 -0.8733 -0.3822 -0.1927
  3444G12c H00C63962  13.804   3.906   3.954 -2.7368 -2.0278  2.2107
  3444G12c C01O63963  13.646   3.387   3.772 -0.6066  0.9009 -0.4535
  3444G12c H00H63964  13.751   3.378   3.795 -0.8368  4.8255  2.5070
  3444G12c C01N63965  13.583   3.259   3.772  0.0222  1.9620 -0.9049
  3444G12c O00663966  13.642   3.148   3.844 -0.3471 -0.1950 -0.0550
  3444G12c C01T63967  13.680   3.045   3.746 -0.9913 -0.3694  0.1923
  3444G12c H00K63968  13.723   3.085   3.654  5.5714 -2.6569  1.9673
  3444G12c H00J63969  13.591   3.000   3.704 -4.5974  2.6062  4.1599
  3444G12c H00I63970  13.744   2.987   3.813 -0.0639 -2.2880 -2.3149
  3444G12c C01M63971  13.466   3.251   3.697 -0.3410 -1.5444 -0.2649
  3444G12c C02063972  13.149   3.371   3.347 -1.5374 -1.1178 -0.3350
  3444G12c C02163973  13.145   3.224   3.345 -2.0742 -1.2019 -1.4128
  3444G12c C01L63974  13.398   3.365   3.622  1.4516  1.5011 -0.6080
  3444G12c O00763975  13.402   3.135   3.727  0.6085  1.8044  0.5533
  3444G12c C02263976  13.170   3.141   3.446 -0.5655  2.2291  1.2680
  3444G12c C02363977  13.033   3.169   3.276 -0.3073  0.3639  0.1652
  3444G12c C00G63978  12.791   3.049   3.265 -0.2871 -1.7659  0.5375
  3444G12c C00E63979  12.629   2.854   3.307  0.3562  0.1792 -0.2040
  3444G12c O00A63980  12.501   2.789   3.300 -0.3566 -0.7162  1.6520
  3444G12c C02463981  12.504   2.664   3.349 -0.1060 -0.0540  0.7365
  3444G12c H00V63982  12.497   2.640   3.455  7.3311 -4.4584  0.5518
  3444G12c H00U63983  12.427   2.592   3.321  2.1092 -2.5098  0.6866
  3444G12c H00T63984  12.568   2.595   3.295 -2.2027 -2.7611  1.5809
  3454G12c C00D63985   4.389   4.216  13.485 -0.0759  0.0680 -0.6165
  3454G12c O00B63986   4.284   4.217  13.396 -0.7395 -0.2743  0.6971
  3454G12c C02563987   4.250   4.335  13.324 -0.4311  1.9883 -0.1797
  3454G12c C02663988   4.150   4.420  13.377 -0.1874 -0.4511 -1.0404
  3454G12c H00Y63989   4.084   4.338  13.406 -0.7544 -0.0446 -1.1633
  3454G12c H00X63990   4.088   4.495  13.327 -0.5252  0.8769  1.3155
  3454G12c O00C63991   4.211   4.454  13.491 -0.0091  1.3099  1.0329
  3454G12c H00W63992   4.212   4.545  13.469  1.6334  0.2999 -3.5891
  3454G12c C02763993   4.315   4.365  13.206 -0.9921 -1.2896 -0.3126
  3454G12c O00D63994   4.392   4.267  13.164 -0.4744  1.0290  0.5155
  3454G12c H00Z63995   4.373   4.185  13.206 -2.2907  3.2064  4.1470
  3454G12c C02863996   4.325   4.493  13.155  0.1415 -0.6375  1.2011
  3454G12c C02963997   4.325   4.509  13.003 -0.6284  0.4586 -1.1025
  3454G12c H01063998   4.320   4.436  12.923 -5.4183  3.8637 -4.1716
  3454G12c C02T63999   4.334   4.645  12.964 -1.4590  0.4039 -0.8140
  3454G12c H01O64000   4.323   4.655  12.857  0.7052 -3.0996 -1.4150
  3454G12c C02S64001   4.343   4.756  13.046 -0.2094 -1.1335  0.5066
  3454G12c O00J64002   4.368   4.880  12.996 -1.5071 -0.6623  1.4324
  3454G12c H01P64003   4.391   4.942  13.064 -7.1607  1.8009  1.4110
  3454G12c C02R64004   4.356   4.737  13.188 -0.4702 -0.5409  1.1601
  3454G12c O00I64005   4.383   4.839  13.264  0.9110 -2.1738  0.4823
  3454G12c C02Q64006   4.331   4.844  13.410  1.9378  0.1622  0.4801
  3454G12c H01N64007   4.322   4.953  13.412  2.4183  0.1889  3.4700
  3454G12c H01R64008   4.232   4.800  13.420  2.1673  0.6757  6.2209
  3454G12c H01Q64009   4.422   4.809  13.458 -3.8215 -3.8311  9.9579
  3454G12c C02A64010   4.347   4.606  13.248  1.6608  0.7572  0.0273
  3454G12c H01164011   4.363   4.588  13.353  1.6120  3.3426  0.5127
  3454G12c C00C64012   4.496   4.297  13.488 -0.9655 -0.9477  1.7145
  3454G12c H01264013   4.530   4.351  13.401 -2.1427 -2.8673  0.0278
  3454G12c C00B64014   4.599   4.297  13.596  0.2538 -0.6688 -0.1282
  3454G12c C00A64015   4.692   4.405  13.630  0.5712 -0.0229  1.4756
  3454G12c C00964016   4.799   4.476  13.545 -0.6235 -1.1913 -1.4341
  3454G12c C00864017   4.827   4.491  13.407 -1.6400  0.4042 -1.6392
  3454G12c H01364018   4.751   4.477  13.332 -0.1913  1.3489 -3.3282
  3454G12c C00764019   4.967   4.516  13.363  0.2546  0.6729  1.0451
  3454G12c H01464020   5.002   4.490  13.265 -1.7732  5.4028 -1.0570
  3454G12c C00664021   5.068   4.555  13.462 -0.1356  0.2783 -0.3502
  3454G12c C00564022   5.032   4.560  13.600 -0.1152  1.6282  0.6920
  3454G12c C00464023   5.127   4.558  13.709 -0.5868  1.7510  0.3101
  3454G12c C00364024   5.088   4.532  13.843  0.8022 -0.2537 -1.0688
  3454G12c C00264025   5.198   4.523  13.936 -2.5664 -0.9330  0.1533
  3454G12c C00164026   5.214   4.483  14.077  0.1901  1.5744  0.7361
  3454G12c C00M64027   5.123   4.375  14.126  2.0486  0.7030 -0.4623
  3454G12c C00L64028   5.004   4.319  14.084  2.2984 -0.6174 -0.3743
  3454G12c C00R64029   4.926   4.201  14.132 -0.9606 -1.1397  0.5048
  3454G12c C00Q64030   4.968   4.097  14.203  0.5484  0.4696  0.1000
  3454G12c C00V64031   4.883   3.991  14.191 -1.4719  0.4896 -1.1326
  3454G12c C00U64032   4.768   4.002  14.100  0.9223  2.2687  0.0045
  3454G12c C00T64033   4.742   4.111  14.029 -0.3112  1.5447  1.9761
  3454G12c C01664034   4.655   4.118  13.925 -0.0959  0.3090  0.1320
  3454G12c C01564035   4.561   4.025  13.915 -1.1779 -1.3278 -2.1300
  3454G12c C01064036   4.571   3.903  13.996  1.8303 -1.0287 -0.0296
  3454G12c C01164037   4.475   3.809  13.971  1.2837  0.0693 -0.0816
  3454G12c H00564038   4.488   3.713  14.017  0.3226  1.9252  4.3327
  3454G12c C01264039   4.351   3.840  13.907 -1.7531 -0.0720  0.6880
  3454G12c C01764040   4.267   3.728  13.906  0.4182  0.1718  1.2805
  3454G12c O00264041   4.314   3.594  13.883 -1.5293 -0.4605  0.5071
  3454G12c H00464042   4.284   3.547  13.959 -2.0572  0.8601  1.1389
  3454G12c C01864043   4.138   3.737  13.891  0.4740  0.1920  0.3974
  3454G12c O00164044   4.093   3.866  13.886  0.9919 -1.5066 -0.9231
  3454G12c H00364045   4.101   3.917  13.965 -0.3372 -1.6430 -0.6929
  3454G12c C01964046   4.041   3.612  13.872  0.4419 -2.4987 -0.1809
  3454G12c H00264047   3.932   3.621  13.872  0.4312 -2.1488  2.6869
  3454G12c H00164048   4.083   3.562  13.785  3.0025 -2.7742  1.1745
  3454G12c O00064049   4.051   3.537  13.988 -0.3040 -0.6353 -1.6211
  3454G12c C01A64050   3.975   3.439  13.998  1.1742 -0.4588 -0.2089
  3454G12c C02K64051   4.036   3.350  14.093 -0.1673 -0.0156 -0.7059
  3454G12c O00G64052   4.165   3.368  14.139 -1.2031  1.1778  0.7387
  3454G12c C02M64053   4.181   3.377  14.267 -1.1073  0.5872  0.7688
  3454G12c H01G64054   4.119   3.460  14.303 -0.6001  1.3226 -0.0222
  3454G12c H01F64055   4.134   3.330  14.353  3.5267  0.1652  3.2553
  3454G12c H01E64056   4.281   3.411  14.293 -3.2056  6.4029  2.0977
  3454G12c C02J64057   3.978   3.230  14.113  0.3934  0.6478  0.8832
  3454G12c H01H64058   4.052   3.170  14.165  0.5656 -0.9526 -1.1697
  3454G12c C02I64059   3.844   3.186  14.074  1.9174  0.8565  0.2964
  3454G12c C02N64060   3.765   3.060  14.073 -0.0564  0.8441 -0.4956
  3454G12c H01M64061   3.742   3.023  13.974  8.2899 -1.6701 -1.9168
  3454G12c C02O64062   3.751   2.983  14.183 -1.6751  0.9604  0.9732
  3454G12c H01L64063   3.784   3.011  14.282  3.5340 -4.7598  1.1410
  3454G12c C02P64064   3.704   2.844  14.186 -0.1571 -0.8203  0.2105
  3454G12c H01K64065   3.638   2.825  14.101  0.8868 -8.4061  0.7316
  3454G12c H01J64066   3.777   2.765  14.204 -0.7530 -3.9496 -8.4855
  3454G12c O00H64067   3.604   2.864  14.287 -0.7708  1.2858  1.0813
  3454G12c H01I64068   3.535   2.912  14.245 -1.2740 -2.0210 -2.2008
  3454G12c C02H64069   3.779   3.287  13.994 -0.3240  0.2761  0.6993
  3454G12c H01C64070   3.679   3.288  13.952  3.6076  1.6381-10.2944
  3454G12c C02L64071   3.848   3.403  13.949  0.5847  0.5835 -0.5992
  3454G12c H01D64072   3.773   3.432  13.877 -6.6956 -2.9720  4.8235
  3454G12c C01364073   4.346   3.956  13.829  0.6006  0.4187  0.2029
  3454G12c H00064074   4.247   3.995  13.810  1.0247  6.3458  7.8557
  3454G12c C01464075   4.468   4.037  13.819  1.4880 -0.5256  1.5361
  3454G12c C00F64076   4.486   4.121  13.704  0.3505  0.6275 -1.8280
  3454G12c C00H64077   4.652   4.224  13.839  0.2138 -0.2706  1.0606
  3454G12c C00I64078   4.736   4.324  13.862  1.3198 -2.6327 -0.6015
  3454G12c C00J64079   4.832   4.312  13.965  1.3377  0.4910 -0.5617
  3454G12c C00Z64080   4.680   3.891  14.088  0.0445  0.7878 -0.8321
  3454G12c C00Y64081   4.713   3.775  14.180  1.1236  1.1367  1.6703
  3454G12c H00664082   4.673   3.678  14.157 -0.5894  2.1596  0.2156
  3454G12c C00X64083   4.792   3.785  14.297 -0.9308 -0.4083 -1.2231
  3454G12c O00364084   4.845   3.679  14.373  0.9699  0.4979 -0.7847
  3454G12c C01B64085   4.729   3.605  14.419 -0.4611  0.2193  0.3759
  3454G12c H00964086   4.680   3.549  14.339 -3.4301  1.3664  1.3142
  3454G12c H00864087   4.671   3.664  14.490 -0.0979  3.7626 -2.1168
  3454G12c H00764088   4.793   3.526  14.456  4.2373  4.0394  0.8220
  3454G12c C00W64089   4.883   3.895  14.298  0.4311 -0.2326  0.0448
  3454G12c O00464090   4.964   3.905  14.401  0.4104  0.2819 -0.3189
  3454G12c C01C64091   5.075   3.999  14.395  0.7584 -1.5907 -0.5529
  3454G12c H00A64092   5.111   4.030  14.492  1.1204 -1.5002 -0.7187
  3454G12c C00P64093   5.086   4.074  14.272  1.9573 -0.7136 -0.5181
  3454G12c C00O64094   5.200   4.149  14.241 -0.5057 -0.4195 -0.8298
  3454G12c C01D64095   5.329   4.089  14.276  1.5541  0.5595  0.2592
  3454G12c H00S64096   5.334   3.993  14.324  2.9712  0.3468 -0.2641
  3454G12c C01E64097   5.464   4.134  14.242 -0.3671  0.6379 -0.9346
  3454G12c O00864098   5.563   4.030  14.239 -0.5003  1.0153 -0.7954
  3454G12c C01V64099   5.653   4.044  14.352  1.1560 -1.0914 -0.6822
  3454G12c C01Z64100   5.746   4.177  14.323 -0.7566  0.5876  1.2318
  3454G12c H00R64101   5.684   4.262  14.354 -2.8805  0.0988 -1.4213
  3454G12c H00Q64102   5.821   4.199  14.399  5.8888 -1.0886 -4.3082
  3454G12c O00964103   5.829   4.189  14.214  1.5950  0.3609  0.7697
  3454G12c H00P64104   5.784   4.267  14.186 -1.0455 -0.6845  1.9029
  3454G12c C01W64105   5.704   3.944  14.425 -0.7312  0.8249  1.0680
  3454G12c H00O64106   5.718   3.843  14.389 -7.5157  0.8642 -2.3883
  3454G12c C01X64107   5.731   3.974  14.573  0.6000  1.1017 -0.6134
  3454G12c H00N64108   5.805   3.895  14.573 -2.5133 -1.9812 -3.6717
  3454G12c H00M64109   5.796   4.059  14.596  1.3361  0.7152 -1.2661
  3454G12c C01Y64110   5.613   3.941  14.673 -0.0449 -0.2148  1.0985
  3454G12c C02D64111   5.605   3.834  14.770  0.5935  0.1761  0.1642
  3454G12c H01964112   5.702   3.785  14.776  0.9520  0.6245 -1.7375
  3454G12c C02C64113   5.489   3.805  14.849 -0.3092 -0.2316  0.0405
  3454G12c H01A64114   5.505   3.735  14.929 -3.3970  3.6838  4.3544
  3454G12c C02B64115   5.386   3.880  14.852 -1.5736 -0.5228 -0.7203
  3454G12c O00E64116   5.305   3.875  14.954  0.7616  0.6210  0.8921
  3454G12c H01B64117   5.230   3.921  14.921  2.9685  1.3575 -3.4172
  3454G12c C02F64118   5.388   3.986  14.751 -0.6953  0.4896  1.0520
  3454G12c O00F64119   5.276   4.051  14.743  0.9275  0.9146  0.8810
  3454G12c C02G64120   5.250   4.180  14.688 -0.8078 -1.0155 -1.1664
  3454G12c H01764121   5.248   4.199  14.580 -0.5104  1.6344 -0.7371
  3454G12c H01664122   5.323   4.257  14.711  1.1042 -3.7020  2.2301
  3454G12c H01564123   5.155   4.228  14.709 -1.3967 -2.8508  0.5093
  3454G12c C02E64124   5.492   4.013  14.655 -1.2260 -1.1332  0.9377
  3454G12c H01864125   5.470   4.082  14.575 -1.2547  2.0736  3.6235
  3454G12c C01F64126   5.475   4.258  14.170 -0.2339 -0.7835  0.4897
  3454G12c C01G64127   5.586   4.308  14.081 -1.6288 -0.6624  0.7825
  3454G12c H00L64128   5.667   4.244  14.049 -0.4550  2.0232 -1.8739
  3454G12c C01H64129   5.554   4.424  13.986 -0.0433  0.4902  0.4760
  3454G12c H00B64130   5.604   4.433  13.890  3.2732 -0.3195  2.0369
  3454G12c C01I64131   5.426   4.474  13.990 -0.1542  0.6249 -0.5165
  3454G12c C01U64132   5.351   4.329  14.167 -0.9315 -0.1015  0.5464
  3454G12c C00S64133   4.810   4.219  14.066 -0.2012 -0.1201 -0.6420
  3454G12c C00K64134   4.938   4.395  13.994 -0.7744  0.7978 -1.6456
  3454G12c C00N64135   5.213   4.288  14.204  0.6330 -0.6758 -0.6975
  3454G12c C00064136   5.348   4.453  14.105 -0.6268 -0.4097 -0.7759
  3454G12c C01J64137   5.333   4.534  13.887 -0.3557 -0.1541 -0.0490
  3454G12c C01K64138   5.375   4.575  13.756 -0.1229  0.3703  0.1345
  3454G12c C01P64139   5.506   4.624  13.698 -0.7531  1.3947  0.6501
  3454G12c C01Q64140   5.617   4.648  13.791 -0.1039 -0.8040  1.1004
  3454G12c H00G64141   5.572   4.659  13.889  1.7344 -3.4955  2.3021
  3454G12c C01R64142   5.753   4.645  13.757 -0.9501  0.7629 -0.0198
  3454G12c H00F64143   5.775   4.633  13.652  3.3364 -4.2751  1.2259
  3454G12c C01S64144   5.873   4.650  13.854  0.3909 -0.4812  0.4078
  3454G12c H00E64145   5.872   4.541  13.851 -3.2622 -0.5410  1.4382
  3454G12c H00D64146   5.955   4.701  13.805  0.9787 -1.2166  0.6110
  3454G12c O00564147   5.838   4.708  13.973  1.0193  0.7961  0.8788
  3454G12c H00C64148   5.829   4.802  13.965 -2.9308  0.2465 -2.6229
  3454G12c C01O64149   5.529   4.619  13.562 -1.4411  1.7195  0.5897
  3454G12c H00H64150   5.615   4.678  13.535 -3.0995  4.6916  1.5827
  3454G12c C01N64151   5.432   4.579  13.472  0.5319 -0.5664  0.4481
  3454G12c O00664152   5.470   4.600  13.344  0.2456 -0.8564  0.1846
  3454G12c C01T64153   5.401   4.715  13.295  0.2933  1.0878  1.4594
  3454G12c H00K64154   5.304   4.682  13.258  1.8656 -0.1360 -1.7556
  3454G12c H00J64155   5.420   4.778  13.208  1.0724  1.2109  1.7185
  3454G12c H00I64156   5.413   4.801  13.361  1.2405  3.4971 -1.6859
  3454G12c C01M64157   5.297   4.562  13.528 -0.3180 -1.2118 -0.8959
  3454G12c C02064158   4.956   4.483  13.881 -0.9703 -1.0502 -0.2579
  3454G12c C02164159   4.867   4.498  13.767 -0.0376 -1.2673 -1.3648
  3454G12c C01L64160   5.259   4.552  13.671  0.7307 -0.2756  1.2324
  3454G12c O00764161   5.200   4.566  13.430 -0.9044 -0.9186 -2.1981
  3454G12c C02264162   4.899   4.534  13.637 -0.9252  0.4015 -0.3018
  3454G12c C02364163   4.733   4.435  13.771  0.7951 -1.6203 -0.1269
  3454G12c C00G64164   4.588   4.219  13.715  0.8399 -0.2610  1.1095
  3454G12c C00E64165   4.392   4.121  13.593  0.6347 -0.4799 -0.1365
  3454G12c O00A64166   4.276   4.044  13.597  0.3606 -0.2300 -1.5139
  3454G12c C02464167   4.239   3.963  13.492 -0.3843  0.1146  0.4661
  3454G12c H00V64168   4.213   4.025  13.406  1.7185  2.3026  1.3767
  3454G12c H00U64169   4.232   3.854  13.491  0.1485  0.0378 -3.6379
  3454G12c H00T64170   4.145   3.970  13.548 -1.3206 -1.4529 -0.8338
  3464G12c C00D64171  10.466   4.291  11.189  0.5278 -0.2963 -0.4558
  3464G12c O00B64172  10.527   4.374  11.261 -0.8601 -0.5590 -0.5006
  3464G12c C02564173  10.494   4.519  11.265 -1.6808  1.4630  1.0349
  3464G12c C02664174  10.587   4.611  11.172  0.4019  0.9760 -0.5506
  3464G12c H00Y64175  10.684   4.638  11.215 -0.6210  3.7946  0.1105
  3464G12c H00X64176  10.525   4.699  11.157 -2.9671 -1.9063 -4.6273
  3464G12c O00C64177  10.631   4.554  11.047 -0.4625 -1.0313 -0.0707
  3464G12c H00W64178  10.571   4.511  10.988 -1.2582  1.1978 -0.9269
  3464G12c C02764179  10.401   4.557  11.350  0.1473 -0.4896 -1.4265
  3464G12c O00D64180  10.346   4.465  11.437 -1.2254  0.3759  0.9850
  3464G12c H00Z64181  10.413   4.400  11.417 -3.6221 -1.2200 -2.5856
  3464G12c C02864182  10.350   4.689  11.372  0.9294  0.2010  0.2529
  3464G12c C02964183  10.291   4.774  11.282  2.4753 -0.4484 -0.3300
  3464G12c H01064184  10.248   4.746  11.187  4.9645 -0.4280 -1.5046
  3464G12c C02T64185  10.288   4.909  11.292  1.0238  0.7766  0.4103
  3464G12c H01O64186  10.292   4.969  11.202  4.2382 -3.1496 -2.2392
  3464G12c C02S64187  10.329   4.975  11.411 -0.6330  0.7201 -1.3363
  3464G12c O00J64188  10.352   5.100  11.440  1.2882  1.1868 -1.1754
  3464G12c H01P64189  10.401   5.115  11.519 -0.1653  1.9942 -0.4040
  3464G12c C02R64190  10.356   4.874  11.511 -1.1777 -0.3581  0.8199
  3464G12c O00I64191  10.389   4.920  11.643 -0.1716  0.9872  1.7813
  3464G12c C02Q64192  10.302   4.857  11.744 -0.6944 -1.6405  0.5529
  3464G12c H01N64193  10.226   4.905  11.805 -4.3538 -0.5708 -4.5283
  3464G12c H01R64194  10.245   4.774  11.704  4.1492 -1.7361 -7.2959
  3464G12c H01Q64195  10.364   4.830  11.829  0.5128 -2.2715 -0.5216
  3464G12c C02A64196  10.383   4.748  11.485  1.2804 -0.5075  1.8356
  3464G12c H01164197  10.426   4.684  11.561 -2.5612  0.0028  4.5739
  3464G12c C00C64198  10.331   4.308  11.173 -0.0303 -0.9223 -0.5058
  3464G12c H01264199  10.280   4.398  11.205 -0.1622 -0.1803 -2.7241
  3464G12c C00B64200  10.255   4.217  11.088 -1.1526 -0.8267  0.5924
  3464G12c C00A64201  10.117   4.219  11.062  1.1986  0.1276 -0.1268
  3464G12c C00964202  10.003   4.262  11.143 -0.6540  1.1716 -0.5196
  3464G12c C00864203   9.980   4.325  11.266  0.7756 -0.4875  0.0450
  3464G12c H01364204  10.071   4.329  11.324  1.9264  0.1887 -1.7625
  3464G12c C00764205   9.848   4.327  11.318  0.1743  0.4742  0.8385
  3464G12c H01464206   9.848   4.393  11.404 -2.3273  2.6847 -0.7866
  3464G12c C00664207   9.733   4.265  11.260 -0.3706 -0.6645  0.1969
  3464G12c C00564208   9.755   4.197  11.140 -1.5372 -0.9059 -1.1631
  3464G12c C00464209   9.681   4.089  11.106 -1.6804 -1.4863  1.2353
  3464G12c C00364210   9.727   4.015  10.994  0.3971  0.4059 -1.1088
  3464G12c C00264211   9.615   3.927  10.952 -1.1642  0.7065 -0.4249
  3464G12c C00164212   9.619   3.807  10.871 -1.7132 -2.1399 -0.3358
  3464G12c C00M64213   9.743   3.734  10.853 -1.4450  1.2629  0.5232
  3464G12c C00L64214   9.860   3.787  10.805 -1.6210  0.8576  1.0493
  3464G12c C00R64215   9.981   3.703  10.803 -0.9042 -0.4828 -2.1136
  3464G12c C00Q64216  10.021   3.564  10.845  0.7251  0.1210  0.7892
  3464G12c C00V64217  10.159   3.540  10.822 -0.2972 -0.4772 -0.3868
  3464G12c C00U64218  10.264   3.639  10.855 -0.8762 -0.2105  0.1574
  3464G12c C00T64219  10.230   3.766  10.884  0.4222 -0.7721  0.1137
  3464G12c C01664220  10.307   3.873  10.941 -0.5020 -0.1350 -0.7454
  3464G12c C01564221  10.434   3.845  10.975 -0.5179  1.2712  0.4664
  3464G12c C01064222  10.491   3.721  10.935  0.2504 -0.9939  0.9291
  3464G12c C01164223  10.623   3.701  10.965 -0.9418 -1.4545 -0.9975
  3464G12c H00564224  10.647   3.614  10.907  7.9131  0.0267 -0.2173
  3464G12c C01264225  10.705   3.785  11.046 -0.8702 -0.0505 -0.1347
  3464G12c C01764226  10.824   3.735  11.105 -0.0162 -0.1292  0.2422
  3464G12c O00264227  10.845   3.592  11.096 -0.2108 -0.1090  0.4036
  3464G12c H00464228  10.892   3.560  11.021  3.5589  2.4636  1.5564
  3464G12c C01864229  10.935   3.812  11.143 -1.3708  0.8368 -0.3836
  3464G12c O00164230  10.923   3.930  11.096 -0.6285  0.1845 -0.7315
  3464G12c H00364231  10.834   3.963  11.094  1.4218  6.7983  1.6880
  3464G12c C01964232  11.074   3.776  11.113 -2.4211  0.7724  1.3208
  3464G12c H00264233  11.103   3.747  11.013 -3.5471 -0.0272  1.2164
  3464G12c H00164234  11.148   3.856  11.117 -1.0642 -0.5079  1.9814
  3464G12c O00064235  11.108   3.677  11.206  1.0105  0.8796 -0.9946
  3464G12c C01A64236  11.215   3.594  11.168 -1.5500 -1.3868 -0.5265
  3464G12c C02K64237  11.325   3.615  11.256 -0.5749  1.3419 -1.8143
  3464G12c O00G64238  11.315   3.700  11.362  0.4455  1.5187  0.5503
  3464G12c C02M64239  11.284   3.658  11.506  0.3033  0.4540 -1.2026
  3464G12c H01G64240  11.178   3.640  11.485 -0.3100  6.3898 -4.1180
  3464G12c H01F64241  11.346   3.575  11.537 -3.2370 -2.4858 -1.6098
  3464G12c H01E64242  11.266   3.716  11.597  2.8331 -2.9027  1.5676
  3464G12c C02J64243  11.456   3.563  11.224 -1.7602 -0.5354 -0.7016
  3464G12c H01H64244  11.536   3.612  11.278 -2.7650  6.2841 -4.7939
  3464G12c C02I64245  11.478   3.523  11.085 -1.3903  1.1571 -1.4203
  3464G12c C02N64246  11.618   3.523  11.049  0.7358  0.1171  0.0012
  3464G12c H01M64247  11.669   3.450  10.987 -0.1619  4.5787 -6.5484
  3464G12c C02O64248  11.686   3.645  11.040 -0.8941  1.4258 -0.4045
  3464G12c H01L64249  11.628   3.733  11.061 -2.5328 -0.5086  3.5449
  3464G12c C02P64250  11.811   3.661  10.964 -1.6874 -1.2353  0.8599
  3464G12c H01K64251  11.796   3.564  10.916 -0.2720 -0.6766 -0.7478
  3464G12c H01J64252  11.789   3.741  10.894 -1.2094 -1.1174  0.8442
  3464G12c O00H64253  11.901   3.703  11.060  0.4722 -0.0008 -0.4081
  3464G12c H01I64254  11.878   3.785  11.100  4.2936  3.4134 -4.6353
  3464G12c C02H64255  11.357   3.478  11.022 -0.3080  0.0673  0.0699
  3464G12c H01C64256  11.339   3.428  10.928  4.9085 -4.9017  1.4383
  3464G12c C02L64257  11.231   3.526  11.048 -0.5255  0.0833  0.2667
  3464G12c H01D64258  11.141   3.543  10.991  0.4085 -0.1748 -1.3206
  3464G12c C01364259  10.638   3.902  11.089  0.9910  1.1665 -1.1356
  3464G12c H00064260  10.672   3.976  11.159 -3.6734 -0.7693  3.5045
  3464G12c C01464261  10.512   3.947  11.033 -0.7595  0.0353  0.4313
  3464G12c C00F64262  10.454   4.064  11.079 -0.7892 -1.7658 -0.7761
  3464G12c C00H64263  10.250   3.992  10.955  0.9834 -0.2899 -1.5174
  3464G12c C00I64264  10.119   4.023  10.910 -0.7415 -0.4476 -1.2318
  3464G12c C00J64265  10.044   3.919  10.840  0.1007 -0.6975 -0.6489
  3464G12c C00Z64266  10.411   3.623  10.879  1.1288  0.4732 -0.0870
  3464G12c C00Y64267  10.440   3.480  10.868  0.5089  1.6122  0.0919
  3464G12c H00664268  10.538   3.438  10.886 -1.8568 -3.3455  2.4973
  3464G12c C00X64269  10.343   3.383  10.845 -0.5974  1.5048 -0.3879
  3464G12c O00364270  10.409   3.258  10.826  0.8682  0.3885 -0.4229
  3464G12c C01B64271  10.375   3.195  10.699  0.7977 -0.9075  1.4235
  3464G12c H00964272  10.464   3.142  10.664 -1.0731 -4.3656  1.7112
  3464G12c H00864273  10.351   3.278  10.632 -0.9752 -2.4390  0.1203
  3464G12c H00764274  10.281   3.142  10.710  0.7046 -1.6248 -2.0136
  3464G12c C00W64275  10.211   3.405  10.841 -0.9480 -0.1507 -0.6367
  3464G12c O00464276  10.136   3.296  10.841  0.6517 -0.5408  0.2459
  3464G12c C01C64277  10.009   3.332  10.914  1.0344  1.3630  0.1423
  3464G12c H00A64278  10.003   3.283  11.011 -2.5776 -0.0875 -0.7568
  3464G12c C00P64279   9.948   3.465  10.898  0.5955 -0.4856 -1.6506
  3464G12c C00O64280   9.825   3.481  10.940  0.0383 -0.1153 -1.1527
  3464G12c C01D64281   9.759   3.368  11.018  0.8700  0.4868  0.8286
  3464G12c H00S64282   9.793   3.272  10.981  2.2850  0.1699  2.8616
  3464G12c C01E64283   9.637   3.391  11.087  0.5250  1.0913 -1.3152
  3464G12c O00864284   9.578   3.316  11.168  0.1937  0.0603 -1.4280
  3464G12c C01V64285   9.642   3.225  11.255  1.0904 -0.2627 -0.0103
  3464G12c C01Z64286   9.541   3.100  11.260  0.8477 -0.2509 -2.4944
  3464G12c H00R64287   9.511   3.104  11.155  1.2596 -1.6227 -2.6676
  3464G12c H00Q64288   9.575   2.998  11.278 -3.0202 -1.7370 -3.0578
  3464G12c O00964289   9.432   3.121  11.356 -0.4739  0.4248 -1.7987
  3464G12c H00P64290   9.398   3.204  11.326 -2.3353 -0.2088 -1.5306
  3464G12c C01W64291   9.730   3.241  11.343 -0.9989 -0.8779 -0.9603
  3464G12c H00O64292   9.790   3.331  11.347  0.7808 -2.1173  5.3378
  3464G12c C01X64293   9.775   3.148  11.458 -0.2171  0.0048  0.2118
  3464G12c H00N64294   9.841   3.202  11.526 -2.5133  5.2109 -1.3959
  3464G12c H00M64295   9.696   3.093  11.508  1.5156 -1.4097  1.4705
  3464G12c C01Y64296   9.878   3.055  11.380  1.8433  1.1250 -0.0590
  3464G12c C02D64297   9.981   3.111  11.307  0.5081  0.3099 -0.3459
  3464G12c H01964298  10.033   3.203  11.331 -1.0423  0.6414  1.9795
  3464G12c C02C64299  10.050   3.029  11.223 -1.9434  0.8074 -0.2624
  3464G12c H01A64300  10.118   3.077  11.154  2.9722 -0.3795  3.4576
  3464G12c C02B64301  10.040   2.894  11.204 -0.2551  0.4421  0.5686
  3464G12c O00E64302  10.126   2.810  11.118  0.6037  0.7140  1.3218
  3464G12c H01B64303  10.061   2.745  11.096 -0.6549  1.9093  1.4342
  3464G12c C02F64304   9.937   2.836  11.273  0.6147 -0.6996  0.1248
  3464G12c O00F64305   9.917   2.700  11.270 -0.4219 -1.1239 -0.3393
  3464G12c C02G64306   9.773   2.660  11.245 -0.7102 -2.6392  0.4059
  3464G12c H01764307   9.761   2.629  11.141  1.5755 -1.9782 -0.0756
  3464G12c H01664308   9.718   2.746  11.205  0.4236  1.0797  6.1262
  3464G12c H01564309   9.714   2.633  11.333 -0.0362 -2.6585  0.8571
  3464G12c C02E64310   9.844   2.915  11.356 -0.1730  0.2449  0.9027
  3464G12c H01864311   9.790   2.837  11.407 -5.1529  1.7147 -1.8381
  3464G12c C01F64312   9.570   3.511  11.058  1.3789 -0.4644  0.5116
  3464G12c C01G64313   9.451   3.556  11.137  1.8016 -0.1527  0.9176
  3464G12c H00L64314   9.415   3.482  11.207  4.4384  2.6985  5.5462
  3464G12c C01H64315   9.393   3.688  11.120  0.5116  0.1865 -0.3426
  3464G12c H00B64316   9.328   3.743  11.187 -2.7776 -2.2000 -1.4076
  3464G12c C01I64317   9.455   3.776  11.024 -0.9131  0.8084 -0.5029
  3464G12c C01U64318   9.593   3.595  10.949  0.5610 -0.1084 -0.3745
  3464G12c C00S64319  10.085   3.792  10.844  1.2227 -0.4319  0.3143
  3464G12c C00K64320   9.905   3.903  10.857  0.0213 -0.4426 -0.9473
  3464G12c C00N64321   9.729   3.592  10.909  0.5256 -0.7901  1.3460
  3464G12c C00064322   9.529   3.727  10.925 -0.4641  1.3074  0.2892
  3464G12c C01J64323   9.486   3.917  11.029 -0.6631 -1.2440  0.2007
  3464G12c C01K64324   9.441   4.016  11.125  1.1109  2.1279 -0.0745
  3464G12c C01P64325   9.317   4.040  11.162 -0.4251  1.0026 -1.5507
  3464G12c C01Q64326   9.205   3.967  11.125 -1.5396  0.3582  0.7458
  3464G12c H00G64327   9.170   3.874  11.167 -5.2471  1.7904  1.0892
  3464G12c C01R64328   9.124   4.018  11.028 -1.0086  0.1303  0.4981
  3464G12c H00F64329   9.182   4.096  10.979  2.9075 -3.8335 -1.5923
  3464G12c C01S64330   8.980   3.997  11.014 -0.3571 -0.5744  1.3283
  3464G12c H00E64331   8.948   3.899  11.048 -0.1638 -1.3829 -0.7448
  3464G12c H00D64332   8.941   4.071  11.084 -3.5384  0.7832 -1.7827
  3464G12c O00564333   8.946   4.035  10.876  1.1253 -0.1093  0.1407
  3464G12c H00C64334   8.978   4.124  10.866  2.9491 -1.2105 -7.4182
  3464G12c C01O64335   9.283   4.165  11.240 -0.0771 -0.8838 -0.0130
  3464G12c H00H64336   9.183   4.205  11.236 -2.1337 -5.5956  0.0037
  3464G12c C01N64337   9.386   4.238  11.293 -1.0330  1.1942 -1.4561
  3464G12c O00664338   9.347   4.331  11.380  0.6902  0.8487 -0.0070
  3464G12c C01T64339   9.303   4.273  11.510  2.1459  1.6357  0.6632
  3464G12c H00K64340   9.373   4.192  11.529 -0.0674 -0.7640 -1.1136
  3464G12c H00J64341   9.225   4.201  11.486  2.2687  3.1311 -5.0116
  3464G12c H00I64342   9.288   4.333  11.600  0.9748 -0.5337  1.9616
  3464G12c C01M64343   9.516   4.203  11.256  2.6329 -0.4712  0.4873
  3464G12c C02064344   9.841   4.010  10.930 -0.2476 -0.5280  0.2628
  3464G12c C02164345   9.915   4.138  10.959 -1.6341  1.4841 -0.8322
  3464G12c C01L64346   9.541   4.093  11.158 -0.6585 -0.8276 -1.2848
  3464G12c O00764347   9.616   4.254  11.326  1.0664  0.8287 -1.4968
  3464G12c C02264348   9.885   4.215  11.073  0.7581  0.3316 -0.4325
  3464G12c C02364349  10.059   4.147  10.949  0.1051  1.7277 -0.9000
  3464G12c C00G64350  10.320   4.099  11.034  1.8595  0.1540 -0.4828
  3464G12c C00E64351  10.534   4.187  11.128 -2.0543 -1.7067  1.5490
  3464G12c O00A64352  10.667   4.199  11.112  0.2479 -0.8005  0.0905
  3464G12c C02464353  10.715   4.223  10.978 -0.3279  0.3236  0.6918
  3464G12c H00V64354  10.671   4.322  10.962 -4.1150 -1.6676 -1.9091
  3464G12c H00U64355  10.822   4.201  10.972  2.2879  9.9460  2.9455
  3464G12c H00T64356  10.669   4.156  10.906 -2.3114  3.3878 -1.0071
  3474G12c C00D64357   0.327  11.409  12.514  0.4650 -0.4868 -0.4623
  3474G12c O00B64358   0.289  11.516  12.597  0.0507 -0.2111  0.3680
  3474G12c C02564359   0.404  11.604  12.607 -1.0069 -0.9527  1.1359
  3474G12c C02664360   0.440  11.687  12.480 -0.3696 -0.3486  0.8275
  3474G12c H00Y64361   0.412  11.791  12.461  4.2901  0.0231 -5.6890
  3474G12c H00X64362   0.368  11.635  12.417 -1.2573  1.1249  0.5983
  3474G12c O00C64363   0.543  11.627  12.407  0.5125  0.0021  1.0641
  3474G12c H00W64364   0.537  11.549  12.460  0.8622 -2.7844 -2.8059
  3474G12c C02764365   0.469  11.652  12.712 -0.8910  2.0965 -0.2598
  3474G12c O00D64366   0.587  11.719  12.694  0.7623  1.2797  0.5923
  3474G12c H00Z64367   0.636  11.719  12.776  1.3739  0.8177  0.2270
  3474G12c C02864368   0.406  11.654  12.844  0.2863 -0.5197  1.6350
  3474G12c C02964369   0.483  11.726  12.938  2.0833  0.6059  0.8248
  3474G12c H01064370   0.570  11.785  12.912  0.5838  2.1395 -0.8927
  3474G12c C02T64371   0.416  11.752  13.066 -1.5514 -0.2566 -1.3479
  3474G12c H01O64372   0.445  11.832  13.132 -1.5368 -1.3228 -0.0293
  3474G12c C02S64373   0.284  11.696  13.097 -0.7581  0.5776 -1.0232
  3474G12c O00J64374   0.219  11.729  13.212 -0.3458  0.1225 -0.1549
  3474G12c H01P64375   0.126  11.709  13.209 -0.2301 -1.4805  3.6338
  3474G12c C02R64376   0.244  11.597  13.015  1.6352 -0.7397  0.9813
  3474G12c O00I64377   0.133  11.521  13.027 -1.7391 -0.6497  0.8438
  3474G12c C02Q64378   0.146  11.392  13.072  0.5790  0.0845  1.0334
  3474G12c H01N64379   0.240  11.348  13.038 -0.1574  1.7003 -3.5151
  3474G12c H01R64380   0.057  11.352  13.023  1.1697  2.4775 -2.1362
  3474G12c H01Q64381   0.135  11.379  13.179  4.8324  2.6664  1.9037
  3474G12c C02A64382   0.301  11.580  12.894 -0.2437  1.3205  0.0469
  3474G12c H01164383   0.245  11.522  12.823 -2.4046 -4.9501  6.3135
  3474G12c C00C64384   0.279  11.399  12.392 -0.6515 -0.9002 -1.1997
  3474G12c H01264385   0.221  11.477  12.345  0.2859 -3.3322 -6.7297
  3474G12c C00B64386   0.279  11.280  12.323 -0.8447 -1.3102  0.5271
  3474G12c C00A64387   0.212  11.258  12.189 -0.3511 -0.7272  0.3924
  3474G12c C00964388   0.075  11.286  12.166  0.0182 -1.5595 -2.4484
  3474G12c C00864389  -0.029  11.372  12.229 -1.6072 -0.8948  1.1606
  3474G12c H01364390  -0.004  11.411  12.326  3.3893 -1.6436  0.3295
  3474G12c C00764391  -0.154  11.393  12.162  0.0525  0.3584  1.0697
  3474G12c H01464392  -0.209  11.471  12.212  3.4049  1.3471  3.3613
  3474G12c C00664393  -0.205  11.294  12.088  1.7565 -1.2781  1.8329
  3474G12c C00564394  -0.112  11.207  12.031  0.5471 -0.1825  0.6855
  3474G12c C00464395  -0.146  11.079  11.994  0.3921  0.3161  0.1099
  3474G12c C00364396  -0.050  10.980  11.969  0.1481  0.9044  0.1772
  3474G12c C00264397  -0.097  10.849  11.916 -0.3745 -0.6587 -0.5706
  3474G12c C00164398  -0.048  10.706  11.914 -1.0759  0.1258 -0.1433
  3474G12c C00M64399   0.066  10.646  11.985  0.0170  0.3693  1.8489
  3474G12c C00L64400   0.129  10.724  12.090 -0.3324 -0.2203 -0.0044
  3474G12c C00R64401   0.238  10.678  12.154 -0.9475 -2.7377  1.5892
  3474G12c C00Q64402   0.278  10.547  12.211 -0.0617 -1.0370  0.9593
  3474G12c C00V64403   0.366  10.558  12.325 -0.7877 -0.3110 -0.0571
  3474G12c C00U64404   0.427  10.684  12.368 -0.2371  0.1186  0.0363
  3474G12c C00T64405   0.399  10.800  12.303  0.1780  1.8071 -0.2341
  3474G12c C01664406   0.425  10.931  12.343  1.9763 -1.2114 -1.0456
  3474G12c C01564407   0.489  10.932  12.463  2.0274 -0.1677 -1.0314
  3474G12c C01064408   0.546  10.818  12.512 -0.4801  0.3599  0.0363
  3474G12c C01164409   0.632  10.834  12.632  0.2535 -0.1669  1.9657
  3474G12c H00564410   0.660  10.739  12.675  0.8664 -0.5151  0.8441
  3474G12c C01264411   0.656  10.943  12.705  0.5870 -2.0811 -0.2001
  3474G12c C01764412   0.760  10.952  12.818  0.6738 -0.9331  1.8246
  3474G12c O00264413   0.891  10.896  12.825  0.4747  0.5466  0.4875
  3474G12c H00464414   0.961  10.953  12.854  1.6698 -3.2791  5.9748
  3474G12c C01864415   0.742  11.031  12.925 -0.3116  0.8143  0.5103
  3474G12c O00164416   0.621  11.090  12.935  1.5327  0.4149 -0.5961
  3474G12c H00364417   0.597  11.088  12.844  6.4337  5.2640 -2.2712
  3474G12c C01964418   0.860  11.069  13.039  0.1258  1.0413 -0.2283
  3474G12c H00264419   0.812  11.132  13.114 -5.5863 -2.6237 -0.4706
  3474G12c H00164420   0.853  10.981  13.104  2.1106 -0.8932 -2.5174
  3474G12c O00064421   0.975  11.139  13.006  1.1138  0.8539 -1.5529
  3474G12c C01A64422   1.052  11.116  12.907 -2.2014  0.5623 -1.2233
  3474G12c C02K64423   1.054  11.183  12.786 -0.5804  1.2933  1.5641
  3474G12c O00G64424   0.954  11.279  12.760  0.2910 -0.0301  0.2865
  3474G12c C02M64425   0.906  11.303  12.635  0.8387  0.6526  0.8285
  3474G12c H01G64426   0.935  11.383  12.567  3.6360  2.2112  3.6762
  3474G12c H01F64427   0.805  11.342  12.644  1.1256  0.4035  8.9112
  3474G12c H01E64428   0.907  11.209  12.580 -3.1736 -0.8427  3.0739
  3474G12c C02J64429   1.127  11.120  12.675  0.5307 -0.4893 -0.7081
  3474G12c H01H64430   1.131  11.176  12.583 -2.6523  6.1096  2.8412
  3474G12c C02I64431   1.209  11.010  12.703  0.5544  0.7520 -1.0849
  3474G12c C02N64432   1.292  10.962  12.590  0.7447 -0.0300 -0.9279
  3474G12c H01M64433   1.243  10.900  12.517  0.1983  1.2279 -1.6591
  3474G12c C02O64434   1.401  11.039  12.547  1.5341 -0.7301  0.6964
  3474G12c H01L64435   1.412  11.123  12.614 -2.3583 -0.2208  0.8140
  3474G12c C02P64436   1.501  10.994  12.424  1.7936  0.2049  0.8058
  3474G12c H01K64437   1.583  11.065  12.430 -2.8666  5.6675  3.8383
  3474G12c H01J64438   1.551  10.899  12.446  5.3345  0.5589 -4.6413
  3474G12c O00H64439   1.429  10.991  12.298  0.1582  1.1141 -0.7400
  3474G12c H01I64440   1.338  10.975  12.318  1.2905 -1.5418  2.9374
  3474G12c C02H64441   1.202  10.931  12.824  1.4099 -0.3632  0.7194
  3474G12c H01C64442   1.235  10.829  12.833  5.9368  1.4204  8.5820
  3474G12c C02L64443   1.131  10.993  12.936 -1.8576 -2.0954 -0.6234
  3474G12c H01D64444   1.097  10.954  13.030 -6.7944  0.1903 -1.3325
  3474G12c C01364445   0.570  11.056  12.658 -0.3591 -1.3035 -0.2261
  3474G12c H00064446   0.565  11.149  12.712 -2.1350 -3.0773  2.7597
  3474G12c C01464447   0.500  11.062  12.529  1.8454 -0.0475  0.1292
  3474G12c C00F64448   0.422  11.172  12.492 -1.5620  0.6195  1.1245
  3474G12c C00H64449   0.361  11.045  12.289  0.0198 -0.3886 -1.3064
  3474G12c C00I64450   0.301  11.028  12.174 -1.2076 -0.0290  0.6741
  3474G12c C00J64451   0.272  10.892  12.128  0.5189 -0.6816 -1.1298
  3474G12c C00Z64452   0.509  10.687  12.476 -1.1220 -0.0071 -0.1736
  3474G12c C00Y64453   0.556  10.553  12.534 -0.8941 -0.0826 -0.9393
  3474G12c H00664454   0.637  10.523  12.599 -3.3214 -2.3819  1.1650
  3474G12c C00X64455   0.492  10.439  12.495 -0.5238  0.4986 -1.0967
  3474G12c O00364456   0.534  10.331  12.549  0.2008 -0.6629  0.4276
  3474G12c C01B64457   0.461  10.265  12.639 -0.7291  1.3183  0.6926
  3474G12c H00964458   0.439  10.165  12.600 -0.8440 -0.5811  5.2710
  3474G12c H00864459   0.356  10.283  12.614 -1.1934 -1.8811  0.0935
  3474G12c H00764460   0.490  10.248  12.743 -1.0346 -2.9897  0.1806
  3474G12c C00W64461   0.395  10.441  12.402  1.3348 -1.1596  0.2718
  3474G12c O00464462   0.342  10.319  12.380 -0.8997  0.3864  0.0697
  3474G12c C01C64463   0.223  10.333  12.306  0.2515  0.0729 -0.3662
  3474G12c H00A64464   0.178  10.236  12.292 -0.6129 -0.5578  5.7242
  3474G12c C00P64465   0.193  10.433  12.193  0.9179  1.0450  1.2669
  3474G12c C00O64466   0.069  10.443  12.133  0.8243 -0.8220 -0.1424
  3474G12c C01D64467  -0.023  10.380  12.217  1.1014 -0.5603  1.4783
  3474G12c H00S64468  -0.011  10.318  12.304 -2.8389 -0.1060  2.4362
  3474G12c C01E64469  -0.160  10.410  12.206 -0.7058  0.1561  1.5833
  3474G12c O00864470  -0.249  10.342  12.297 -0.3755 -0.3298  0.0417
  3474G12c C01V64471  -0.309  10.423  12.398 -1.1416  0.6802  0.0528
  3474G12c C01Z64472  -0.465  10.416  12.383 -0.1645  0.3574  0.2020
  3474G12c H00R64473  -0.516  10.494  12.440 -0.9623  2.1670 -2.8519
  3474G12c H00Q64474  -0.506  10.462  12.292 -1.9244 -0.5953  0.4878
  3474G12c O00964475  -0.506  10.292  12.409  2.0897  1.0133  0.6348
  3474G12c H00P64476  -0.478  10.234  12.339 -0.9887 -4.4573  3.5751
  3474G12c C01W64477  -0.254  10.522  12.471  0.7870 -1.0040  1.5716
  3474G12c H00O64478  -0.336  10.574  12.519 -3.6352 -5.3293 -0.8326
  3474G12c C01X64479  -0.112  10.571  12.482  1.8796 -0.7071 -0.8499
  3474G12c H00N64480  -0.103  10.496  12.561 -0.1979 -2.5090 -2.2416
  3474G12c H00M64481  -0.058  10.517  12.404 -2.6946 -2.4515 -2.9806
  3474G12c C01Y64482  -0.079  10.718  12.482  3.0476 -0.8293 -0.2405
  3474G12c C02D64483   0.031  10.781  12.547 -0.4717  1.3645 -0.2078
  3474G12c H01964484   0.115  10.733  12.595 -3.9932 -3.6196  1.5337
  3474G12c C02C64485   0.037  10.911  12.589  0.3709  0.5281 -1.4628
  3474G12c H01A64486   0.125  10.937  12.645 -2.2154 -0.6450  3.4651
  3474G12c C02B64487  -0.076  10.989  12.560 -0.5701 -0.7513  1.6271
  3474G12c O00E64488  -0.087  11.113  12.580 -0.0420 -0.4497  0.7672
  3474G12c H01B64489  -0.127  11.169  12.514 -6.1956 -4.9824  0.2628
  3474G12c C02F64490  -0.197  10.935  12.498  0.6207  0.6151 -0.0101
  3474G12c O00F64491  -0.300  11.029  12.467  1.0309 -0.5456  1.4636
  3474G12c C02G64492  -0.422  10.959  12.435  1.2237  0.6489 -1.1977
  3474G12c H01764493  -0.484  10.939  12.523  3.4948 -3.2630 -0.3414
  3474G12c H01664494  -0.485  11.001  12.356 -2.1234 -2.8683 -0.5739
  3474G12c H01564495  -0.404  10.861  12.390 -1.2611 -0.7237  0.6502
  3474G12c C02E64496  -0.174  10.808  12.438 -0.0730  0.7327  1.6563
  3474G12c H01864497  -0.258  10.758  12.393 -0.3175  2.3148  0.3099
  3474G12c C01F64498  -0.209  10.481  12.082  2.6129  2.5368 -1.9314
  3474G12c C01G64499  -0.339  10.508  12.057  0.3410 -0.1383  0.4630
  3474G12c H00L64500  -0.402  10.444  12.116  3.4740 -4.0855 -0.2248
  3474G12c C01H64501  -0.382  10.615  11.955  0.7636 -1.7387  0.1686
  3474G12c H00B64502  -0.488  10.625  11.968  0.7721 -3.2582  1.5980
  3474G12c C01I64503  -0.271  10.688  11.892  1.5251  0.1650 -0.6182
  3474G12c C01U64504  -0.114  10.517  11.986 -1.0696  0.0984 -0.1384
  3474G12c C00S64505   0.308  10.789  12.208 -0.4238 -0.8763  0.9413
  3474G12c C00K64506   0.151  10.863  12.077 -0.3446 -1.4546 -0.3593
  3474G12c C00N64507   0.012  10.525  12.036  1.7724 -0.5873  0.4007
  3474G12c C00064508  -0.153  10.609  11.884 -0.0651  1.1839  0.0500
  3474G12c C01J64509  -0.248  10.840  11.893 -0.0471 -0.4852 -0.6350
  3474G12c C01K64510  -0.338  10.949  11.893 -0.6605  1.3288  0.5517
  3474G12c C01P64511  -0.489  10.950  11.871  0.0058 -0.0240  1.1947
  3474G12c C01Q64512  -0.560  10.847  11.806  0.3511  0.6289 -0.9156
  3474G12c H00G64513  -0.540  10.803  11.709 -1.5629  0.8824 -1.4441
  3474G12c C01R64514  -0.682  10.817  11.835  0.5638 -1.3924 -1.3356
  3474G12c H00F64515  -0.738  10.860  11.917  3.4171  2.2101 -1.1420
  3474G12c C01S64516  -0.774  10.693  11.796  1.2418  0.2814 -0.1644
  3474G12c H00E64517  -0.748  10.597  11.841 -1.3487 -0.2719  0.2737
  3474G12c H00D64518  -0.879  10.720  11.806  1.2100 -0.9436  4.3865
  3474G12c O00564519  -0.768  10.680  11.666 -0.9564  2.0215  0.4019
  3474G12c H00C64520  -0.735  10.602  11.623 -0.6511  4.5423 -4.2407
  3474G12c C01O64521  -0.550  11.057  11.905  0.0648  1.8386  0.1467
  3474G12c H00H64522  -0.644  11.058  11.851 -2.9453 -2.8800  4.8340
  3474G12c C01N64523  -0.504  11.168  11.984 -1.7422 -0.8743  1.2617
  3474G12c O00664524  -0.571  11.282  11.985 -0.0901  0.3723 -0.6127
  3474G12c C01T64525  -0.509  11.414  11.959 -0.6179 -1.3461 -0.7492
  3474G12c H00K64526  -0.437  11.459  12.027 -2.0764  4.3900 -2.6801
  3474G12c H00J64527  -0.440  11.450  11.883 -5.7774  7.1390 -2.0878
  3474G12c H00I64528  -0.584  11.492  11.946 -1.6099 -0.5363  7.1690
  3474G12c C01M64529  -0.380  11.156  12.009 -1.0326 -0.6932 -0.2388
  3474G12c C02064530   0.074  10.982  12.034 -0.7060 -0.5365  1.0927
  3474G12c C02164531   0.124  11.112  12.033  0.9717 -0.2159  0.5395
  3474G12c C01L64532  -0.286  11.059  11.963  0.6580 -0.2356  0.7683
  3474G12c O00764533  -0.339  11.266  12.093 -1.0956 -1.6069 -0.0574
  3474G12c C02264534   0.026  11.213  12.037  0.8535  0.4681  0.6576
  3474G12c C02364535   0.234  11.135  12.121 -1.3199  0.4720 -0.9976
  3474G12c C00G64536   0.365  11.164  12.367  1.1337  0.1177 -0.4848
  3474G12c C00E64537   0.397  11.289  12.572 -0.9369 -0.3217  0.4477
  3474G12c O00A64538   0.411  11.284  12.710  0.1796 -0.4730 -1.1570
  3474G12c C02464539   0.301  11.208  12.773  0.7299  1.9728 -0.6677
  3474G12c H00V64540   0.315  11.188  12.879  0.5816 -0.5731 -1.1111
  3474G12c H00U64541   0.292  11.120  12.710  1.1182  1.8903 -0.6052
  3474G12c H00T64542   0.218  11.278  12.789 -0.4710  0.8124 -1.7546
  3484G12c C00D64543   2.930   1.766   6.832 -0.2657 -0.1249  0.4964
  3484G12c O00B64544   2.805   1.761   6.884 -0.4705 -0.4278  0.6406
  3484G12c C02564545   2.762   1.711   7.011 -0.6000 -1.0913  1.3119
  3484G12c C02664546   2.723   1.573   7.038  1.0389 -0.5090 -0.1796
  3484G12c H00Y64547   2.700   1.520   6.946  1.5561 -5.1986  2.2360
  3484G12c H00X64548   2.662   1.530   7.118  2.4326  2.3751  2.5501
  3484G12c O00C64549   2.849   1.521   7.071 -1.0797  0.2234 -0.4052
  3484G12c H00W64550   2.849   1.431   7.040 -0.4733  0.7514 -1.9882
  3484G12c C02764551   2.764   1.798   7.119 -0.9511 -0.3748 -0.2815
  3484G12c O00D64552   2.788   1.925   7.103  0.4397 -0.7499  0.5863
  3484G12c H00Z64553   2.715   1.965   7.147  0.0034  0.4956 -1.2284
  3484G12c C02864554   2.725   1.758   7.261  1.8900 -0.0683  0.5876
  3484G12c C02964555   2.828   1.780   7.344  0.4766  0.1471  0.3785
  3484G12c H01064556   2.932   1.794   7.320  0.7378  1.5568  2.1652
  3484G12c C02T64557   2.803   1.791   7.483 -1.0976 -0.7700  0.1341
  3484G12c H01O64558   2.869   1.807   7.568 10.5190  0.5232 -7.9223
  3484G12c C02S64559   2.678   1.752   7.531 -1.3955  0.5735 -0.6808
  3484G12c O00J64560   2.665   1.724   7.662 -1.4262  1.7126  1.0445
  3484G12c H01P64561   2.582   1.744   7.703 -5.5892  6.4160 -8.1808
  3484G12c C02R64562   2.583   1.696   7.444  0.4313  0.3737  0.8991
  3484G12c O00I64563   2.465   1.660   7.497  0.2377  1.5207 -1.1179
  3484G12c C02Q64564   2.467   1.517   7.525  0.3770  2.4634 -0.5691
  3484G12c H01N64565   2.556   1.459   7.552 -3.8729 -4.6828 -0.4588
  3484G12c H01R64566   2.422   1.507   7.624  3.5853 -1.5887  0.6509
  3484G12c H01Q64567   2.444   1.451   7.440 -0.2806  4.3984 -1.9241
  3484G12c C02A64568   2.620   1.691   7.304  0.7088 -0.3166 -1.3019
  3484G12c H01164569   2.546   1.634   7.249  0.3264 -1.1020  0.0043
  3484G12c C00C64570   2.923   1.815   6.701 -1.0916 -0.5287  0.3757
  3484G12c H01264571   2.822   1.845   6.679  0.8770  9.5199  2.2351
  3484G12c C00B64572   3.039   1.893   6.655 -0.6437  0.4138  0.3529
  3484G12c C00A64573   3.049   2.004   6.572  0.1168  1.2023  1.1683
  3484G12c C00964574   2.962   2.023   6.452 -0.7204  1.3305  0.6480
  3484G12c C00864575   2.844   1.941   6.391  1.0709 -0.3733 -1.5905
  3484G12c H01364576   2.779   1.877   6.450  2.9535 -1.3277 -0.5074
  3484G12c C00764577   2.828   1.953   6.259 -0.1349 -0.8004 -0.4093
  3484G12c H01464578   2.741   1.911   6.211  2.5730 -2.9805 -3.6424
  3484G12c C00664579   2.918   2.030   6.180 -1.1940  0.6889 -0.5164
  3484G12c C00564580   3.017   2.108   6.240  1.3878 -0.2839 -1.3366
  3484G12c C00464581   3.129   2.134   6.154 -0.7312  0.5542 -0.0693
  3484G12c C00364582   3.252   2.171   6.205 -0.8991  0.6354  0.9115
  3484G12c C00264583   3.361   2.204   6.101 -0.1259 -1.0214  0.3731
  3484G12c C00164584   3.495   2.237   6.102 -1.0483 -0.3644  0.6247
  3484G12c C00M64585   3.582   2.142   6.170  0.1503 -0.5846 -2.2262
  3484G12c C00L64586   3.531   2.089   6.295  1.8000 -0.1759 -1.4317
  3484G12c C00R64587   3.586   1.987   6.371 -2.1894 -0.9618  0.2701
  3484G12c C00Q64588   3.695   1.898   6.352  0.7877 -0.5844  0.8537
  3484G12c C00V64589   3.714   1.801   6.457 -0.6559 -0.8011 -1.2869
  3484G12c C00U64590   3.625   1.777   6.560  1.4577  1.2372  0.4069
  3484G12c C00T64591   3.508   1.846   6.572 -0.5878 -1.8967 -1.8874
  3484G12c C01664592   3.401   1.817   6.644 -0.2776  0.0358  1.6472
  3484G12c C01564593   3.407   1.709   6.730 -0.8692 -0.5752  0.2947
  3484G12c C01064594   3.524   1.635   6.734 -0.6158 -2.3508  1.4710
  3484G12c C01164595   3.526   1.525   6.812 -0.5136 -0.1488 -0.5257
  3484G12c H00564596   3.627   1.495   6.837 -1.2379 -3.8510 -1.6823
  3484G12c C01264597   3.416   1.485   6.890 -1.2787  0.0483 -0.8663
  3484G12c C01764598   3.424   1.448   7.029 -0.8841 -2.4907  0.6633
  3484G12c O00264599   3.437   1.554   7.114  0.4200 -1.7033  0.6800
  3484G12c H00464600   3.402   1.533   7.199 -4.7961 -2.2202 -1.4147
  3484G12c C01864601   3.408   1.318   7.054 -0.4463  0.1700 -0.5205
  3484G12c O00164602   3.424   1.231   6.967  1.3144  0.7764  1.1625
  3484G12c H00364603   3.374   1.211   6.890  2.8827 -2.6878  0.9641
  3484G12c C01964604   3.449   1.244   7.180  0.1741 -0.3174 -0.2592
  3484G12c H00264605   3.391   1.262   7.270  3.4537  5.1768  1.0037
  3484G12c H00164606   3.428   1.139   7.161  0.4117 -0.6417  1.1858
  3484G12c O00064607   3.592   1.218   7.209 -0.2055  0.8704 -0.2125
  3484G12c C01A64608   3.677   1.321   7.258  1.6499 -0.8758 -0.0318
  3484G12c C02K64609   3.635   1.440   7.333 -1.0845 -0.7913  0.0724
  3484G12c O00G64610   3.503   1.447   7.384 -0.1395  0.0848 -0.1924
  3484G12c C02M64611   3.503   1.487   7.521  1.1007  0.7007 -0.1099
  3484G12c H01G64612   3.568   1.568   7.555  1.5523  2.0969 -4.0877
  3484G12c H01F64613   3.552   1.404   7.573 -0.9363 -2.1636 -2.5707
  3484G12c H01E64614   3.400   1.504   7.553  0.3050  0.4739 -2.4594
  3484G12c C02J64615   3.738   1.544   7.332  1.3991 -0.7403 -1.2676
  3484G12c H01H64616   3.720   1.648   7.356 -2.4696  0.5660 -8.3292
  3484G12c C02I64617   3.862   1.536   7.264 -0.5340 -1.1492 -1.0417
  3484G12c C02N64618   3.954   1.641   7.229 -0.5113 -0.5756 -0.0190
  3484G12c H01M64619   4.029   1.679   7.297  5.1379 -4.0071 -3.9125
  3484G12c C02O64620   3.942   1.719   7.120  0.9249 -0.1614  0.6680
  3484G12c H01L64621   4.042   1.760   7.116  1.8446 -1.7318  4.9215
  3484G12c C02P64622   3.827   1.717   7.008  1.1802 -0.8996  0.5916
  3484G12c H01K64623   3.867   1.648   6.934  7.4182  3.6699 -0.6696
  3484G12c H01J64624   3.720   1.726   7.028  0.9193 -4.1752  1.0260
  3484G12c O00H64625   3.855   1.846   6.933 -0.1535  0.5469 -1.1538
  3484G12c H01I64626   3.897   1.803   6.860  2.9816  5.3119 -2.3940
  3484G12c C02H64627   3.902   1.402   7.223  0.0196 -0.9137  0.4478
  3484G12c H01C64628   3.997   1.380   7.177 -2.7984 -0.7953 -5.8942
  3484G12c C02L64629   3.807   1.297   7.219 -0.0774  0.4233  1.5332
  3484G12c H01D64630   3.820   1.216   7.149 -1.5263 -1.5864  3.5143
  3484G12c C01364631   3.298   1.533   6.847  0.0451  1.1146 -0.3583
  3484G12c H00064632   3.208   1.506   6.900  1.5499 -1.3563  1.0468
  3484G12c C01464633   3.294   1.664   6.790  0.0938  1.7601  1.2061
  3484G12c C00F64634   3.172   1.744   6.790  2.4782 -1.3606 -0.1047
  3484G12c C00H64635   3.277   1.901   6.647 -0.1769 -1.2278  0.6857
  3484G12c C00I64636   3.282   2.025   6.572  0.6707  0.6789  0.7195
  3484G12c C00J64637   3.404   2.052   6.495  0.0395 -0.5306 -0.3461
  3484G12c C00Z64638   3.640   1.665   6.655  1.2827 -1.2566 -0.2147
  3484G12c C00Y64639   3.763   1.594   6.637  0.9081 -1.1084  0.7777
  3484G12c H00664640   3.762   1.511   6.705  1.2912 -0.0421  2.0961
  3484G12c C00X64641   3.850   1.611   6.532  0.5086  0.2138 -0.1203
  3484G12c O00364642   3.967   1.544   6.488  1.0402  0.4606  0.2530
  3484G12c C01B64643   4.045   1.447   6.543  1.8193 -0.0193  0.0619
  3484G12c H00964644   4.061   1.449   6.651  4.4171 -1.7039 -0.2576
  3484G12c H00864645   4.147   1.443   6.506  3.0794  0.9091  3.3000
  3484G12c H00764646   3.986   1.358   6.520  5.0889 -1.1393 -4.6846
  3484G12c C00W64647   3.830   1.721   6.449 -0.2837 -1.2741  0.8656
  3484G12c O00464648   3.912   1.737   6.331  1.1704  0.3654 -1.0416
  3484G12c C01C64649   3.884   1.815   6.231 -1.2490 -0.8375  0.5832
  3484G12c H00A64650   3.975   1.815   6.172 -1.4194 -1.1086  0.3175
  3484G12c C00P64651   3.775   1.898   6.239  0.9620 -0.7155 -0.1991
  3484G12c C00O64652   3.751   1.961   6.109 -0.3572  0.2154  0.7355
  3484G12c C01D64653   3.801   1.897   5.989 -0.2813 -0.2808 -0.1221
  3484G12c H00S64654   3.862   1.807   5.991  0.3565  0.1751  1.3648
  3484G12c C01E64655   3.728   1.923   5.874  1.3645  0.3560 -0.1352
  3484G12c O00864656   3.736   1.838   5.765 -0.7447 -1.6928  0.5546
  3484G12c C01V64657   3.672   1.714   5.786 -0.1718 -3.8076  0.2831
  3484G12c C01Z64658   3.719   1.605   5.692  1.6969  0.2718 -1.9760
  3484G12c H00R64659   3.809   1.628   5.634 -0.4091  1.0752 -5.0543
  3484G12c H00Q64660   3.750   1.512   5.739 -0.9936  0.8303  1.0202
  3484G12c O00964661   3.601   1.594   5.618 -1.3266  0.3400  0.1189
  3484G12c H00P64662   3.555   1.677   5.618 -4.8997 -1.5391  2.1613
  3484G12c C01W64663   3.550   1.702   5.868 -0.5902  0.6663 -0.1635
  3484G12c H00O64664   3.503   1.787   5.915  0.0138  2.1756 -2.2524
  3484G12c C01X64665   3.496   1.563   5.895 -0.2535 -0.9333  1.6223
  3484G12c H00N64666   3.420   1.580   5.819  2.8140  2.2474 -0.8876
  3484G12c H00M64667   3.538   1.479   5.840  6.2531  3.7596 -1.1610
  3484G12c C01Y64668   3.417   1.546   6.033  0.7219  0.5861  0.9329
  3484G12c C02D64669   3.493   1.521   6.160  0.9704 -0.3660 -0.6350
  3484G12c H01964670   3.596   1.539   6.134 -0.6350  2.7029 -5.5137
  3484G12c C02C64671   3.432   1.514   6.286 -1.0725  0.5716 -1.6219
  3484G12c H01A64672   3.505   1.534   6.364 -0.3614  2.9926 -2.8414
  3484G12c C02B64673   3.295   1.510   6.294  0.3627  0.7422 -0.2508
  3484G12c O00E64674   3.231   1.542   6.408 -0.7563 -0.2390  0.7928
  3484G12c H01B64675   3.276   1.494   6.476  0.6596  4.9696  3.8568
  3484G12c C02F64676   3.222   1.529   6.171  0.5163  0.7027  0.8055
  3484G12c O00F64677   3.079   1.513   6.169 -0.4831 -1.0239 -0.1853
  3484G12c C02G64678   3.013   1.626   6.173 -0.3175 -1.1815 -1.4186
  3484G12c H01764679   2.905   1.610   6.165 -0.0063 -2.6981 -2.9328
  3484G12c H01664680   3.003   1.686   6.264  3.0623 -1.0047 -1.0952
  3484G12c H01564681   3.062   1.700   6.110  4.7768 -4.4790 -1.6401
  3484G12c C02E64682   3.277   1.528   6.045 -0.6284  0.1847  1.8427
  3484G12c H01864683   3.217   1.520   5.956  0.9341 -1.0494  0.8642
  3484G12c C01F64684   3.652   2.039   5.847  0.1407  0.2915  1.6460
  3484G12c C01G64685   3.573   2.061   5.734 -0.8248  1.6644 -0.6541
  3484G12c H00L64686   3.564   2.008   5.640  4.5013  4.4831 -2.9909
  3484G12c C01H64687   3.459   2.129   5.764  2.4581  0.8070  0.0307
  3484G12c H00B64688   3.395   2.129   5.677 -0.0806  0.3180  1.8450
  3484G12c C01I64689   3.442   2.202   5.884  1.6654 -0.0123 -0.6098
  3484G12c C01U64690   3.634   2.123   5.960  0.1256 -1.9235 -1.0489
  3484G12c C00S64691   3.518   1.978   6.496  0.0612  3.2656 -0.3336
  3484G12c C00K64692   3.420   2.129   6.380 -1.3073  0.5895 -0.9769
  3484G12c C00N64693   3.669   2.070   6.084 -1.1010 -0.2551 -0.0820
  3484G12c C00064694   3.552   2.229   5.958 -0.3461 -0.4621  0.5786
  3484G12c C01J64695   3.318   2.216   5.966 -0.9478  1.1246 -1.3661
  3484G12c C01K64696   3.184   2.206   5.921 -0.0414 -0.8884 -0.8217
  3484G12c C01P64697   3.142   2.235   5.786  0.5125  0.9449  0.8329
  3484G12c C01Q64698   3.213   2.305   5.679 -0.0698 -1.3256  0.1795
  3484G12c H00G64699   3.318   2.325   5.688 -0.8680  1.5341  5.2785
  3484G12c C01R64700   3.151   2.386   5.583 -0.7476 -1.6747  0.1742
  3484G12c H00F64701   3.049   2.418   5.601  1.1518  4.2680  1.7743
  3484G12c C01S64702   3.229   2.456   5.480 -0.3392  0.3359 -0.5973
  3484G12c H00E64703   3.183   2.544   5.435  0.9075  1.4749  0.3195
  3484G12c H00D64704   3.326   2.491   5.516  2.8512  1.2041 -8.9842
  3484G12c O00564705   3.299   2.363   5.393  1.1530  1.5413  0.3150
  3484G12c H00C64706   3.387   2.382   5.366  2.7069-11.1732 -7.7851
  3484G12c C01O64707   3.023   2.189   5.756  1.1866  0.3483 -1.4235
  3484G12c H00H64708   3.003   2.183   5.650 -6.3774 -1.7277 -0.1736
  3484G12c C01N64709   2.925   2.143   5.852  1.1767 -0.7621  2.1615
  3484G12c O00664710   2.808   2.097   5.769 -1.3419 -0.4879  3.3763
  3484G12c C01T64711   2.772   1.964   5.817  0.3903  0.9431 -0.9949
  3484G12c H00K64712   2.848   1.894   5.851  1.7009  4.5179  4.1048
  3484G12c H00J64713   2.700   1.979   5.898 -2.9150 -0.1366 -3.6413
  3484G12c H00I64714   2.730   1.914   5.730  0.8422  1.1736 -1.3401
  3484G12c C01M64715   2.970   2.105   5.974 -0.5644 -0.2248 -1.1964
  3484G12c C02064716   3.281   2.174   6.344  0.1011  0.8784  1.0076
  3484G12c C02164717   3.152   2.154   6.431  1.2297  1.0662 -0.0033
  3484G12c C01L64718   3.103   2.151   6.019  0.5527  2.4044 -0.6007
  3484G12c O00764719   2.879   2.051   6.052  1.5409 -0.1563  0.0905
  3484G12c C02264720   3.031   2.120   6.376  0.6201  0.6937 -1.2274
  3484G12c C02364721   3.159   2.090   6.555  0.8131  0.2383 -0.9853
  3484G12c C00G64722   3.166   1.849   6.695  1.5708 -0.2097 -1.4003
  3484G12c C00E64723   3.056   1.724   6.874  2.1814  0.9767  1.1660
  3484G12c O00A64724   3.076   1.656   6.993  1.2683 -0.4465  1.3218
  3484G12c C02464725   3.129   1.718   7.112 -1.1717  0.8768 -1.5763
  3484G12c H00V64726   3.234   1.705   7.138 -1.3661 -0.2514 -1.3558
  3484G12c H00U64727   3.065   1.669   7.185 -0.8645 -2.2893 -3.3349
  3484G12c H00T64728   3.119   1.826   7.123 -4.1107  1.0304 -5.0725
  3494G12c C00D64729  12.579   1.364   9.332 -1.0146 -0.4297  1.3358
  3494G12c O00B64730  12.694   1.292   9.337 -0.0139 -0.2159  0.6781
  3494G12c C02564731  12.736   1.246   9.206  0.9076  0.2204  0.4621
  3494G12c C02664732  12.814   1.327   9.115  0.4203  0.3127 -0.9871
  3494G12c H00Y64733  12.826   1.264   9.027 -4.0055 -3.5215  0.9232
  3494G12c H00X64734  12.892   1.398   9.142 -1.8936  2.0484  1.3811
  3494G12c O00C64735  12.703   1.406   9.042 -0.3248  0.4384 -0.3282
  3494G12c H00W64736  12.690   1.490   9.083 -1.6360  0.2292 -0.2945
  3494G12c C02764737  12.720   1.113   9.187 -1.2471  1.1454 -0.0040
  3494G12c O00D64738  12.650   1.039   9.293 -0.3583 -0.0492  0.1808
  3494G12c H00Z64739  12.612   1.093   9.362  2.3053 -1.8266  3.1705
  3494G12c C02864740  12.716   1.046   9.059  0.8557 -0.5329 -0.1847
  3494G12c C02964741  12.636   1.103   8.946 -0.0393 -0.1618  0.0928
  3494G12c H01064742  12.590   1.200   8.960  0.1150 -0.4973  3.2743
  3494G12c C02T64743  12.638   1.052   8.826  1.7674 -1.1220 -0.8584
  3494G12c H01O64744  12.602   1.127   8.757  1.9974 -2.8188 -2.8858
  3494G12c C02S64745  12.694   0.916   8.820 -0.1858 -0.5222 -0.7110
  3494G12c O00J64746  12.697   0.834   8.713  0.1588 -1.1765  0.9233
  3494G12c H01P64747  12.728   0.757   8.759  3.7115  0.3265  1.1869
  3494G12c C02R64748  12.737   0.838   8.924 -0.0578  1.3199 -0.0531
  3494G12c O00I64749  12.736   0.700   8.900  1.0853  0.2232 -1.0091
  3494G12c C02Q64750  12.872   0.645   8.944  0.6744 -0.1705 -0.6276
  3494G12c H01N64751  12.966   0.692   8.916 -1.8008  3.0989 -4.0514
  3494G12c H01R64752  12.854   0.621   9.049  6.3053 -0.8390  0.3568
  3494G12c H01Q64753  12.868   0.546   8.900 -2.1866  0.7439 -2.5959
  3494G12c C02A64754  12.737   0.913   9.043 -0.6322  0.0686 -1.0013
  3494G12c H01164755  12.747   0.871   9.142  0.3415  6.1959  1.7178
  3494G12c C00C64756  12.490   1.364   9.221 -1.4565  1.4400  0.6779
  3494G12c H01264757  12.481   1.279   9.155  4.6560  1.8002 -0.8844
  3494G12c C00B64758  12.365   1.420   9.220  1.4249 -1.1648 -2.0729
  3494G12c C00A64759  12.260   1.418   9.110  0.0894 -0.2319  0.2351
  3494G12c C00964760  12.255   1.397   8.967  0.1152 -0.8533  0.9586
  3494G12c C00864761  12.360   1.411   8.880  2.2670  1.1275  0.5509
  3494G12c H01364762  12.450   1.448   8.926  3.0740 -0.1761  0.0397
  3494G12c C00764763  12.322   1.441   8.743  2.0812  0.8579  0.9007
  3494G12c H01464764  12.371   1.441   8.646  0.8127  1.5970  0.2559
  3494G12c C00664765  12.184   1.491   8.729  1.3501 -0.5949  3.3865
  3494G12c C00564766  12.090   1.511   8.824  0.8445  1.3284 -1.1004
  3494G12c C00464767  11.964   1.584   8.823 -0.7880 -2.6219 -0.1118
  3494G12c C00364768  11.902   1.618   8.937 -1.3377  0.5822  0.8115
  3494G12c C00264769  11.791   1.704   8.907  0.1866  1.3484  0.3272
  3494G12c C00164770  11.702   1.768   9.003 -0.2724  0.5634 -0.7278
  3494G12c C00M64771  11.747   1.814   9.133  1.4809  1.0597 -1.6898
  3494G12c C00L64772  11.850   1.756   9.217 -0.1213  0.4440  1.1895
  3494G12c C00R64773  11.892   1.808   9.347 -0.5774 -0.4556  1.7923
  3494G12c C00Q64774  11.919   1.941   9.370 -1.4952 -0.4958 -0.2527
  3494G12c C00V64775  12.013   1.951   9.487  0.3034 -0.1763 -0.3377
  3494G12c C00U64776  12.104   1.850   9.531 -0.1412  2.0179  3.5947
  3494G12c C00T64777  12.096   1.731   9.460  1.9710  0.4027 -0.1566
  3494G12c C01664778  12.197   1.642   9.463 -0.2374  0.6695 -1.4786
  3494G12c C01564779  12.288   1.665   9.567 -0.3738 -1.2932  0.3865
  3494G12c C01064780  12.260   1.760   9.668  0.6167 -2.0805  0.5404
  3494G12c C01164781  12.331   1.745   9.784  1.1341  0.7933  0.0937
  3494G12c H00564782  12.312   1.823   9.857 -0.6863 -0.6286  1.1800
  3494G12c C01264783  12.454   1.677   9.790 -0.2273  0.8076 -0.1585
  3494G12c C01764784  12.524   1.677   9.919 -0.9810  0.6050 -0.0899
  3494G12c O00264785  12.594   1.563   9.946 -0.1993  0.4424  0.6076
  3494G12c H00464786  12.576   1.555  10.038 -4.7399 -2.6880 -0.3653
  3494G12c C01864787  12.544   1.783   9.990  0.5980  1.0295  1.1712
  3494G12c O00164788  12.477   1.901   9.971  0.9559  0.1877  0.9387
  3494G12c H00364789  12.500   1.976  10.023  2.8432 -3.1274  5.1818
  3494G12c C01964790  12.651   1.791  10.111  0.1525 -1.5362  1.2799
  3494G12c H00264791  12.674   1.694  10.156  2.7405  0.4809  4.4696
  3494G12c H00164792  12.755   1.796  10.078  0.9252  1.8588  3.9556
  3494G12c O00064793  12.599   1.883  10.206  0.4964  1.4273 -1.0845
  3494G12c C01A64794  12.638   1.880  10.329  0.4627  0.2796 -0.0508
  3494G12c C02K64795  12.766   1.926  10.354 -1.6111 -0.2757  0.6320
  3494G12c O00G64796  12.835   1.958  10.246  1.0370 -0.8166  0.1418
  3494G12c C02M64797  12.880   2.092  10.246  1.6200  0.3988  0.7069
  3494G12c H01G64798  12.821   2.182  10.266  2.0762  0.2655  2.7630
  3494G12c H01F64799  12.900   2.100  10.139  2.9297 -6.5670  0.1753
  3494G12c H01E64800  12.981   2.096  10.287  3.0682  0.3748 -2.7530
  3494G12c C02J64801  12.816   1.964  10.487 -1.1796 -1.5687  0.2152
  3494G12c H01H64802  12.897   2.034  10.504 -0.5637 -1.1745 -3.8573
  3494G12c C02I64803  12.740   1.939  10.593 -1.6667 -0.8507 -0.3779
  3494G12c C02N64804  12.812   1.942  10.723 -0.7909  0.9287 -1.4242
  3494G12c H01M64805  12.882   1.875  10.771 -4.0033  2.1594  5.6948
  3494G12c C02O64806  12.787   2.048  10.801  0.2713  0.3326  0.7372
  3494G12c H01L64807  12.715   2.125  10.779 -2.8530 -1.4607  4.1780
  3494G12c C02P64808  12.859   2.095  10.918 -0.3825  1.3932 -1.4200
  3494G12c H01K64809  12.949   2.036  10.903  2.9624  5.4299  1.6378
  3494G12c H01J64810  12.894   2.198  10.908 -0.2318  1.2445 -2.5102
  3494G12c O00H64811  12.779   2.033  11.020  2.0155 -0.0481  0.6018
  3494G12c H01I64812  12.829   2.016  11.099  0.5267 -2.2504  1.1221
  3494G12c C02H64813  12.623   1.864  10.564  0.5136  0.1089  0.1441
  3494G12c H01C64814  12.556   1.842  10.646  3.0565 -3.1814  1.4257
  3494G12c C02L64815  12.566   1.837  10.437  1.7552  1.5498 -0.4610
  3494G12c H01D64816  12.463   1.822  10.409  2.2880  1.3073 -2.3155
  3494G12c C01364817  12.487   1.610   9.668 -0.8972  2.7153  0.1211
  3494G12c H00064818  12.586   1.568   9.681 -0.8755  1.0330 -4.4147
  3494G12c C01464819  12.406   1.602   9.553  0.0414 -1.0378  0.1085
  3494G12c C00F64820  12.432   1.518   9.446  1.8614 -1.5945 -0.6854
  3494G12c C00H64821  12.214   1.553   9.363  0.1032  0.7020  1.2903
  3494G12c C00I64822  12.109   1.535   9.274 -1.3269  0.5608 -0.9627
  3494G12c C00J64823  11.990   1.601   9.313 -1.0564 -1.0447 -0.9916
  3494G12c C00Z64824  12.197   1.868   9.626 -0.7618 -1.4204 -0.9320
  3494G12c C00Y64825  12.206   1.991   9.694  0.5354  1.4214 -1.4498
  3494G12c H00664826  12.258   2.011   9.787 -4.9352  1.8574  1.7379
  3494G12c C00X64827  12.121   2.107   9.638 -0.0446 -0.3768 -0.2450
  3494G12c O00364828  12.168   2.239   9.642 -1.4952 -0.1044 -1.0176
  3494G12c C01B64829  12.207   2.309   9.748  0.1342  0.4723 -1.2800
  3494G12c H00964830  12.310   2.324   9.716  2.1402 -1.2983  3.7534
  3494G12c H00864831  12.192   2.272   9.850 -0.8739  1.2517 -1.1394
  3494G12c H00764832  12.135   2.390   9.761 -0.7217 -1.0869  5.3972
  3494G12c C00W64833  12.042   2.090   9.530 -0.1447 -1.4508  0.7979
  3494G12c O00464834  11.994   2.207   9.479  1.4180  0.2672 -1.8833
  3494G12c C01C64835  11.889   2.186   9.403  0.0778 -0.4783  1.8454
  3494G12c H00A64836  11.812   2.261   9.398 -0.3017 -1.0607 -1.7379
  3494G12c C00P64837  11.852   2.055   9.332 -0.1602 -0.2712 -1.6125
  3494G12c C00O64838  11.773   2.063   9.213  1.2213 -2.1060  0.0887
  3494G12c C01D64839  11.720   2.192   9.186  0.3421 -1.2219  1.5198
  3494G12c H00S64840  11.728   2.283   9.245  1.2566  0.1726 -0.6834
  3494G12c C01E64841  11.657   2.213   9.055 -0.3648  0.1198  0.5451
  3494G12c O00864842  11.656   2.347   9.022 -0.6113  0.5781  0.0055
  3494G12c C01V64843  11.796   2.398   9.030 -0.3532 -2.3601 -0.7425
  3494G12c C01Z64844  11.813   2.491   9.128 -0.9593 -0.1574  0.4614
  3494G12c H00R64845  11.825   2.592   9.087 -3.9002 -0.9695 -2.6725
  3494G12c H00Q64846  11.728   2.496   9.196  0.2782 -2.5715  2.2620
  3494G12c O00964847  11.912   2.476   9.225 -0.2767 -0.7715 -0.5324
  3494G12c H00P64848  11.873   2.528   9.294  0.8363 -3.7962  2.5273
  3494G12c C01W64849  11.891   2.332   8.969  0.9572  0.7914 -0.9937
  3494G12c H00O64850  11.876   2.230   8.935  2.7493 -0.8733  2.8588
  3494G12c C01X64851  12.024   2.383   8.965 -1.7468  0.1954 -2.4967
  3494G12c H00N64852  12.029   2.445   8.876  6.3950 -0.5879 -2.9472
  3494G12c H00M64853  12.064   2.478   9.001  0.5145 -1.2755 -1.0551
  3494G12c C01Y64854  12.113   2.251   8.976  1.7792  0.7300  2.0932
  3494G12c C02D64855  12.150   2.200   8.848  0.0313 -1.0827  1.8205
  3494G12c H01964856  12.115   2.253   8.761  0.7090  1.3904  3.0142
  3494G12c C02C64857  12.178   2.065   8.817  0.2510 -0.7938  0.5406
  3494G12c H01A64858  12.196   2.057   8.711 -5.7980 -3.7472 -0.5005
  3494G12c C02B64859  12.178   1.973   8.926 -0.3401  0.2611  0.7899
  3494G12c O00E64860  12.192   1.847   8.897 -0.0713 -0.4410  0.9410
  3494G12c H01B64861  12.241   1.785   8.949  0.8786 -2.4859 -2.2666
  3494G12c C02F64862  12.166   2.032   9.059  1.6942 -0.4296  0.7061
  3494G12c O00F64863  12.165   1.971   9.183 -0.7393  1.4527  1.0204
  3494G12c C02G64864  12.278   1.994   9.263 -2.1164 -0.5028 -1.3576
  3494G12c H01764865  12.325   1.896   9.263 -4.7058 -1.7862  0.9360
  3494G12c H01664866  12.268   1.984   9.371  4.0285 -0.3375 -0.5500
  3494G12c H01564867  12.339   2.085   9.254  0.8638 -2.7005 -4.4719
  3494G12c C02E64868  12.137   2.173   9.077  1.7148  1.0317  1.2147
  3494G12c H01864869  12.132   2.214   9.177 -5.7077 -0.5431  1.7325
  3494G12c C01F64870  11.659   2.108   8.965 -1.0382 -0.0250 -0.0121
  3494G12c C01G64871  11.668   2.111   8.812  1.0175  2.0883  0.2909
  3494G12c H00L64872  11.677   2.213   8.776 -1.8814  0.0993 -6.8587
  3494G12c C01H64873  11.697   2.001   8.732 -0.7559  1.6765  1.5327
  3494G12c H00B64874  11.744   2.012   8.635  0.3520  1.7901  2.0752
  3494G12c C01I64875  11.672   1.871   8.792  0.4358 -0.7256  1.4486
  3494G12c C01U64876  11.636   1.986   9.008 -0.2627  1.0793  0.8914
  3494G12c C00S64877  11.965   1.711   9.407 -0.8732  1.3604 -1.1194
  3494G12c C00K64878  11.906   1.630   9.199 -0.6505 -1.1489  0.3429
  3494G12c C00N64879  11.718   1.956   9.130  0.9180  2.3013 -0.6024
  3494G12c C00064880  11.630   1.865   8.933 -1.0546  0.5238  1.8850
  3494G12c C01J64881  11.773   1.770   8.775 -1.7827 -0.0750 -0.7701
  3494G12c C01K64882  11.835   1.723   8.653  1.4326 -2.0476  1.2345
  3494G12c C01P64883  11.807   1.759   8.518  0.0073 -0.1905 -0.9158
  3494G12c C01Q64884  11.719   1.848   8.456 -0.5927  1.0026 -1.4858
  3494G12c H00G64885  11.742   1.935   8.396  1.5673 -0.0967 -2.3294
  3494G12c C01R64886  11.588   1.815   8.484  0.1063 -0.3645  0.3382
  3494G12c H00F64887  11.557   1.739   8.554 -2.2769 -0.2352 -0.5382
  3494G12c C01S64888  11.481   1.898   8.419  1.9726 -0.3887  0.2585
  3494G12c H00E64889  11.493   1.935   8.317  1.7953  3.0179  1.3929
  3494G12c H00D64890  11.378   1.868   8.434  2.0818 -0.5790  0.6207
  3494G12c O00564891  11.514   2.019   8.465  0.1875 -0.1487 -0.8844
  3494G12c H00C64892  11.446   2.040   8.527  2.5115  2.5930  0.9089
  3494G12c C01O64893  11.885   1.697   8.411  0.8561  1.6292 -0.1044
  3494G12c H00H64894  11.908   1.721   8.309  1.2109  0.6473 -0.2621
  3494G12c C01N64895  11.950   1.587   8.455 -0.5299  1.4333  0.5145
  3494G12c O00664896  12.022   1.512   8.354  0.6912  1.6512 -0.1761
  3494G12c C01T64897  11.926   1.429   8.292 -1.0835 -0.7664 -1.0737
  3494G12c H00K64898  11.945   1.436   8.184 -0.8040 -3.4624 -1.2287
  3494G12c H00J64899  11.827   1.473   8.301  0.2576  2.2236 -0.2945
  3494G12c H00I64900  11.925   1.341   8.357 -1.8224  2.6846  3.8211
  3494G12c C01M64901  11.998   1.568   8.588  1.0961  0.4841 -0.0210
  3494G12c C02064902  11.930   1.560   9.079  0.5496  0.2279  0.2818
  3494G12c C02164903  12.043   1.461   9.070  0.4500 -1.7923  1.8437
  3494G12c C01L64904  11.934   1.630   8.689  1.6515 -0.1425 -0.0463
  3494G12c O00764905  12.116   1.502   8.596  0.1374  0.2243  2.2165
  3494G12c C02264906  12.125   1.446   8.947  0.5919 -0.4239  0.6560
  3494G12c C02364907  12.133   1.438   9.174  0.4019 -0.1090 -1.3747
  3494G12c C00G64908  12.333   1.485   9.351 -0.0410 -0.5351 -0.4906
  3494G12c C00E64909  12.557   1.455   9.432  0.5413 -0.3173  0.8943
  3494G12c O00A64910  12.648   1.438   9.537 -0.1389 -0.7013  1.1683
  3494G12c C02464911  12.595   1.327   9.621  0.2855 -0.0035 -2.0883
  3494G12c H00V64912  12.693   1.294   9.658  1.2736  3.2823 -1.5386
  3494G12c H00U64913  12.521   1.260   9.577  2.2940 -4.8547  1.4306
  3494G12c H00T64914  12.557   1.364   9.717  0.1032 -5.2434  0.0177
  3504G12c C00D64915   9.428   9.557  12.249  1.4448  0.3297  0.4146
  3504G12c O00B64916   9.525   9.627  12.315 -0.3988 -0.4781  0.5637
  3504G12c C02564917   9.495   9.748  12.353 -1.4845  0.5705 -0.8256
  3504G12c C02664918   9.466   9.861  12.252 -1.8729 -0.4486 -0.6933
  3504G12c H00Y64919   9.363   9.866  12.218 -1.5229 -1.3852 -1.9370
  3504G12c H00X64920   9.472   9.965  12.285 -3.4892 -0.1049 -1.4713
  3504G12c O00C64921   9.554   9.846  12.131 -0.7516 -0.4222 -0.3457
  3504G12c H00W64922   9.557   9.757  12.101  7.5197 -0.9936  0.9197
  3504G12c C02764923   9.494   9.788  12.490 -0.4595  0.4507 -0.6309
  3504G12c O00D64924   9.516   9.688  12.557 -0.2054  0.1862  0.8619
  3504G12c H00Z64925   9.535   9.631  12.485 -0.5910  0.6550  0.3827
  3504G12c C02864926   9.438   9.909  12.559  0.7417  0.4011  0.3204
  3504G12c C02964927   9.336   9.995  12.499 -0.5930 -1.3726  0.3323
  3504G12c H01064928   9.293   9.986  12.400 -8.5136  0.9220  3.1669
  3504G12c C02T64929   9.268  10.088  12.584  0.2534 -0.3870 -0.4347
  3504G12c H01O64930   9.177  10.126  12.541  0.4483  1.3308  0.6516
  3504G12c C02S64931   9.303  10.113  12.703 -1.5796 -0.3468  1.0489
  3504G12c O00J64932   9.197  10.176  12.767 -0.3613 -1.6682  0.7297
  3504G12c H01P64933   9.215  10.163  12.859  3.0919 -4.8413 -0.2747
  3504G12c C02R64934   9.419  10.055  12.764  1.3734 -1.2099 -0.4576
  3504G12c O00I64935   9.445  10.098  12.889 -0.5819 -0.3905  1.9785
  3504G12c C02Q64936   9.476  10.233  12.890 -0.3227  0.4979 -1.1317
  3504G12c H01N64937   9.555  10.288  12.839  1.4273  0.2050  1.1556
  3504G12c H01R64938   9.465  10.274  12.991  0.6477  1.4460 -1.4041
  3504G12c H01Q64939   9.402  10.311  12.873  1.4100  5.0420  8.5623
  3504G12c C02A64940   9.460   9.932  12.702  1.0488  0.4722  1.1669
  3504G12c H01164941   9.556   9.892  12.732  0.4035 -3.4901 -1.6824
  3504G12c C00C64942   9.295   9.598  12.278  0.4087 -0.0976  0.8972
  3504G12c H01264943   9.267   9.675  12.348 -1.5431  1.9412 -1.9707
  3504G12c C00B64944   9.193   9.542  12.194  0.7098 -1.5294  0.9206
  3504G12c C00A64945   9.055   9.579  12.182  0.8278  0.4022  0.0054
  3504G12c C00964946   8.960   9.634  12.278 -1.1988 -0.5907 -1.0873
  3504G12c C00864947   8.953   9.663  12.416 -1.5137 -0.2681 -1.2922
  3504G12c H01364948   9.049   9.679  12.462 -0.4813  1.0735 -3.8497
  3504G12c C00764949   8.832   9.668  12.493 -0.4379 -0.7089  0.6934
  3504G12c H01464950   8.837   9.696  12.598 -1.1609  0.5048  0.4160
  3504G12c C00664951   8.704   9.645  12.434 -0.8469  2.2337 -0.5650
  3504G12c C00564952   8.711   9.598  12.310 -0.8325  1.4908  0.1462
  3504G12c C00464953   8.613   9.545  12.227  1.0804  1.0037 -1.0633
  3504G12c C00364954   8.629   9.453  12.117 -0.7415 -0.4411 -0.7844
  3504G12c C00264955   8.521   9.387  12.050 -0.4342 -1.7569  0.4401
  3504G12c C00164956   8.510   9.316  11.939 -0.1736 -0.9575 -0.0666
  3504G12c C00M64957   8.613   9.244  11.877  1.1407 -0.1136 -0.1647
  3504G12c C00L64958   8.742   9.281  11.842 -0.3205  0.3870 -1.1050
  3504G12c C00R64959   8.849   9.191  11.792  0.9583  0.5760 -1.3812
  3504G12c C00Q64960   8.852   9.063  11.756 -0.4816  0.2973 -1.0981
  3504G12c C00V64961   8.986   9.025  11.722  0.0161 -1.5174  0.0648
  3504G12c C00U64962   9.090   9.095  11.789  1.2860  0.8991 -0.6832
  3504G12c C00T64963   9.080   9.223  11.837 -0.0245  0.4403 -1.1960
  3504G12c C01664964   9.171   9.285  11.913 -0.6285  0.0792 -0.0140
  3504G12c C01564965   9.307   9.246  11.895  1.6421 -0.7280 -1.2097
  3504G12c C01064966   9.328   9.137  11.813  0.2051 -0.2468 -1.0853
  3504G12c C01164967   9.465   9.103  11.799  0.4558  0.7818 -0.1406
  3504G12c H00564968   9.499   9.025  11.732 -1.1589  0.2241 -0.3419
  3504G12c C01264969   9.562   9.200  11.825 -1.1456  0.2512  0.0091
  3504G12c C01764970   9.702   9.167  11.836  1.3854  0.8746  0.1987
  3504G12c O00264971   9.748   9.183  11.956  0.2384 -0.5665 -0.9338
  3504G12c H00464972   9.666   9.198  12.001  2.5608 -4.4460  5.1611
  3504G12c C01864973   9.764   9.085  11.740  0.4427 -0.4224 -0.0691
  3504G12c O00164974   9.714   9.044  11.630 -0.7974  1.8634  0.2404
  3504G12c H00364975   9.779   9.070  11.567  1.6136  0.2834  2.0028
  3504G12c C01964976   9.909   9.046  11.779  1.2622  0.6199 -0.0784
  3504G12c H00264977   9.930   9.114  11.696 -1.8210  0.5850 -0.9513
  3504G12c H00164978   9.948   9.071  11.878 -0.4935 -3.3104  1.6796
  3504G12c O00064979   9.946   8.931  11.711 -0.3077 -0.3521  0.5835
  3504G12c C01A64980   9.893   8.805  11.770 -0.9003 -0.0919  0.3866
  3504G12c C02K64981   9.825   8.785  11.905  0.5743  0.3850 -1.3380
  3504G12c O00G64982   9.803   8.908  11.981  1.3729 -0.9307  0.5833
  3504G12c C02M64983   9.860   8.890  12.105  0.8861  1.2798 -1.0553
  3504G12c H01G64984   9.830   8.965  12.178  5.9034  5.2665 -2.6947
  3504G12c H01F64985   9.966   8.898  12.079  0.8998 -2.1485 -2.3064
  3504G12c H01E64986   9.846   8.801  12.166  0.7167  3.0085  1.5023
  3504G12c C02J64987   9.797   8.656  11.947  2.5448 -0.7665  2.0803
  3504G12c H01H64988   9.760   8.650  12.049 -0.7708  0.0116  0.9573
  3504G12c C02I64989   9.829   8.548  11.866  0.3959  0.1474  2.3959
  3504G12c C02N64990   9.778   8.429  11.920 -0.6392 -0.6509 -0.7211
  3504G12c H01M64991   9.838   8.417  12.009  0.7342  2.5520 -1.1621
  3504G12c C02O64992   9.699   8.346  11.853 -0.4933 -0.4687  0.2653
  3504G12c H01L64993   9.656   8.365  11.757  1.1971 -3.4609 -1.1677
  3504G12c C02P64994   9.688   8.198  11.871 -0.0301 -0.0623  0.1603
  3504G12c H01K64995   9.738   8.150  11.787 -3.3390 -4.7283  0.6405
  3504G12c H01J64996   9.732   8.171  11.967  0.9243 -0.9632 -0.5157
  3504G12c O00H64997   9.546   8.162  11.852  1.3381  0.1806 -0.1661
  3504G12c H01I64998   9.504   8.165  11.937 -2.3625  0.5074 -1.9033
  3504G12c C02H64999   9.836   8.559  11.735 -2.5227 -1.4447 -1.2971
  3504G12c H01C65000   9.841   8.474  11.668 -2.6534 -3.1011  0.7233
  3504G12c C02L65001   9.873   8.684  11.699  0.8619 -0.0462  0.5798
  3504G12c H01D65002   9.904   8.684  11.595  3.1340  0.9722  1.2253
  3504G12c C01365003   9.523   9.319  11.890  0.1598 -1.2876  0.2156
  3504G12c H00065004   9.602   9.389  11.912 -0.2834 -0.0208 -2.1471
  3504G12c C01465005   9.397   9.333  11.945  0.0818 -1.3534  0.2289
  3504G12c C00F65006   9.364   9.419  12.059  1.6584  0.0553 -0.0968
  3504G12c C00H65007   9.136   9.395  11.994  0.1511 -1.3574 -0.2226
  3504G12c C00I65008   9.012   9.447  11.981  0.8166  0.9337 -0.4344
  3504G12c C00J65009   8.928   9.372  11.896  0.8334 -1.3850 -0.7153
  3504G12c C00Z65010   9.221   9.064  11.760 -1.0551  0.7725 -1.3340
  3504G12c C00Y65011   9.246   8.943  11.701  0.7532 -1.7140  0.7600
  3504G12c H00665012   9.345   8.938  11.657  0.2305 -4.5301 -0.1410
  3504G12c C00X65013   9.148   8.857  11.639  0.4701  0.3375  0.9994
  3504G12c O00365014   9.192   8.724  11.579 -0.3370  0.2318  0.1352
  3504G12c C01B65015   9.326   8.685  11.623 -1.7907  0.8233 -1.1735
  3504G12c H00965016   9.421   8.727  11.591 -0.1256 -0.6887  1.6296
  3504G12c H00865017   9.346   8.578  11.629  1.6815  1.6186  5.1810
  3504G12c H00765018   9.349   8.691  11.729  2.8885  1.9291 -2.1363
  3504G12c C00W65019   9.003   8.895  11.647  1.6281  1.1443 -1.5508
  3504G12c O00465020   8.902   8.804  11.609 -0.1580 -0.3924  1.1928
  3504G12c C01C65021   8.776   8.840  11.669  0.4396 -1.6941 -0.1450
  3504G12c H00A65022   8.690   8.774  11.669 -1.6193  0.8382  3.1337
  3504G12c C00P65023   8.752   8.958  11.752  0.1934  0.7678  1.3101
  3504G12c C00O65024   8.624   8.995  11.813  1.0732  1.4674 -0.5801
  3504G12c C01D65025   8.561   8.877  11.869  1.3045  0.3339  0.5892
  3504G12c H00S65026   8.627   8.793  11.890 -0.7575 -3.0702 -5.2543
  3504G12c C01E65027   8.444   8.874  11.954 -0.5034  1.2919 -0.3956
  3504G12c O00865028   8.430   8.760  12.021  0.3194 -0.1951  0.9764
  3504G12c C01V65029   8.397   8.644  11.942 -0.3173 -1.1447  0.4833
  3504G12c C01Z65030   8.240   8.654  11.926 -0.0543  1.9892 -0.2987
  3504G12c H00R65031   8.229   8.609  12.025 -0.8502  0.4914 -1.0501
  3504G12c H00Q65032   8.205   8.756  11.939  0.5990  2.0791  0.7860
  3504G12c O00965033   8.172   8.574  11.812 -0.4604  0.8576  0.3759
  3504G12c H00P65034   8.181   8.480  11.816 -2.4390  0.7065  3.3022
  3504G12c C01W65035   8.496   8.548  11.897  0.2966 -0.6481  0.0388
  3504G12c H00O65036   8.601   8.546  11.925  0.6365  1.2016 -1.0484
  3504G12c C01X65037   8.482   8.436  11.791 -0.7493 -0.1704 -0.3593
  3504G12c H00N65038   8.486   8.503  11.704  0.3069 -2.8426 -2.4475
  3504G12c H00M65039   8.571   8.374  11.796  3.0949  5.2118  2.7526
  3504G12c C01Y65040   8.372   8.330  11.820  0.7778 -0.4153 -0.5941
  3504G12c C02D65041   8.261   8.340  11.750 -0.8819  1.2906  0.7504
  3504G12c H01965042   8.236   8.402  11.665 -5.6414 -5.0953 -3.0015
  3504G12c C02C65043   8.148   8.270  11.805  0.5930  1.3326  0.3593
  3504G12c H01A65044   8.046   8.298  11.783 -0.4159 -1.1598  1.6649
  3504G12c C02B65045   8.164   8.153  11.880  0.0018  1.0326  0.5725
  3504G12c O00E65046   8.043   8.072  11.897  1.7486  0.7413  0.3824
  3504G12c H01B65047   8.024   7.982  11.880 -1.2415  1.2829  0.5850
  3504G12c C02F65048   8.308   8.108  11.902  0.1808  1.1717  0.6376
  3504G12c O00F65049   8.353   7.994  11.969  1.1579 -0.7465  1.0748
  3504G12c C02G65050   8.273   7.879  11.920 -0.2397 -2.7682  0.2984
  3504G12c H01765051   8.329   7.786  11.933  0.0240 -2.2241  3.6232
  3504G12c H01665052   8.204   7.904  12.001  1.3331  2.9693  0.0928
  3504G12c H01565053   8.230   7.877  11.820  3.0494  4.0349 -1.5579
  3504G12c C02E65054   8.409   8.204  11.872 -0.1687  1.5267  0.2805
  3504G12c H01865055   8.510   8.193  11.909 -2.1503 -1.2190  5.4262
  3504G12c C01F65056   8.376   9.001  11.991  0.3547 -0.6314  1.4759
  3504G12c C01G65057   8.290   9.037  12.092 -0.3734  0.6567  0.1771
  3504G12c H00L65058   8.238   8.962  12.151  0.8563 -4.3045 -4.7009
  3504G12c C01H65059   8.281   9.171  12.138  2.3119  0.2661  0.9590
  3504G12c H00B65060   8.258   9.185  12.242 -1.9730  4.7037 -0.4334
  3504G12c C01I65061   8.342   9.271  12.079 -1.2920  0.9645 -0.1718
  3504G12c C01U65062   8.432   9.112  11.922  1.4916  1.9206 -1.1761
  3504G12c C00S65063   8.961   9.275  11.813  0.0454  1.6789  1.0821
  3504G12c C00K65064   8.797   9.370  11.932 -0.6665  0.1912 -0.9245
  3504G12c C00N65065   8.565   9.107  11.860 -1.3584  0.1839 -0.7420
  3504G12c C00065066   8.404   9.246  11.955  0.1740 -0.4914  2.0005
  3504G12c C01J65067   8.414   9.378  12.132  1.3194 -1.7369 -0.5531
  3504G12c C01K65068   8.385   9.453  12.259 -0.5039  1.5058 -0.0033
  3504G12c C01P65069   8.262   9.481  12.332  0.5639  0.0612 -0.6940
  3504G12c C01Q65070   8.131   9.421  12.322 -0.7155 -0.7354 -1.9899
  3504G12c H00G65071   8.091   9.333  12.370 -5.2588  4.7605  5.2556
  3504G12c C01R65072   8.041   9.507  12.260  1.7897 -1.5201 -0.5883
  3504G12c H00F65073   8.093   9.594  12.223  2.4539 -1.7351 -0.1795
  3504G12c C01S65074   7.893   9.519  12.293 -0.1010  1.3772  1.6614
  3504G12c H00E65075   7.866   9.426  12.344 -2.0574 -0.5477 -2.6746
  3504G12c H00D65076   7.863   9.623  12.285  5.7652  3.2691  2.1393
  3504G12c O00565077   7.864   9.480  12.157 -0.0426  0.1544 -0.1713
  3504G12c H00C65078   7.782   9.511  12.122  0.2592 -0.5641 -1.5268
  3504G12c C01O65079   8.257   9.583  12.434 -1.1512  0.5444  0.5119
  3504G12c H00H65080   8.164   9.623  12.470  0.7789  4.5569  1.3844
  3504G12c C01N65081   8.361   9.660  12.491  0.5656  0.2689  1.2078
  3504G12c O00665082   8.358   9.737  12.596  0.6955 -0.4124 -0.2744
  3504G12c C01T65083   8.387   9.676  12.729  0.5327 -0.7397 -0.3752
  3504G12c H00K65084   8.486   9.718  12.712  2.3051 -4.9601 -1.3037
  3504G12c H00J65085   8.357   9.718  12.825 -3.6185 -4.0830 -0.0653
  3504G12c H00I65086   8.395   9.569  12.749  3.8066 -0.3620  0.6592
  3504G12c C01M65087   8.474   9.627  12.415 -2.4089  1.0674 -0.1575
  3504G12c C02065088   8.767   9.445  12.051  1.6614  0.9689 -0.4015
  3504G12c C02165089   8.846   9.540  12.119  0.8603  1.1837 -0.2077
  3504G12c C01L65090   8.485   9.528  12.303 -1.9795 -0.6219 -0.8821
  3504G12c O00765091   8.586   9.670  12.486  1.4631  0.7740  0.6282
  3504G12c C02265092   8.831   9.603  12.236 -0.3995 -0.3771  0.2453
  3504G12c C02365093   8.974   9.560  12.067 -0.9122 -0.3296 -0.4775
  3504G12c C00G65094   9.231   9.461  12.088 -1.6426 -0.2124  1.2868
  3504G12c C00E65095   9.471   9.465  12.149  0.3611  0.7873 -0.2215
  3504G12c O00A65096   9.603   9.436  12.149 -0.1132  0.0559  1.0480
  3504G12c C02465097   9.716   9.512  12.092 -0.0864 -0.5415 -1.0249
  3504G12c H00V65098   9.695   9.616  12.067  5.1150  1.1992  1.2157
  3504G12c H00U65099   9.732   9.466  11.995 -1.7778 -3.6332  0.0854
  3504G12c H00T65100   9.805   9.459  12.125  2.1419  2.1755 -2.5785
  3514G12c C00D65101   1.501   5.402   8.641 -1.8752  2.6217  0.7186
  3514G12c O00B65102   1.348   5.410   8.612 -1.2592  1.0786  1.2710
  3514G12c C02565103   1.317   5.472   8.500  0.7875  1.0008  0.1108
  3514G12c C02665104   1.289   5.392   8.379  0.0954 -0.8050 -2.1997
  3514G12c H00Y65105   1.378   5.341   8.344  1.2611 -1.2396  1.2722
  3514G12c H00X65106   1.257   5.448   8.291 -1.2939  1.1842 -0.5056
  3514G12c O00C65107   1.190   5.293   8.414 -1.4350 -1.5520  0.9148
  3514G12c H00W65108   1.209   5.248   8.495  3.8062 -1.0255  0.1024
  3514G12c C02765109   1.330   5.608   8.505  0.3244 -1.3900 -0.9221
  3514G12c O00D65110   1.324   5.682   8.389 -1.0047  0.7541  0.7365
  3514G12c H00Z65111   1.384   5.731   8.335 -3.5765  3.9596  0.5903
  3514G12c C02865112   1.354   5.685   8.624  0.3490  0.4508  0.8536
  3514G12c C02965113   1.258   5.670   8.725 -0.6796  0.2441 -1.5986
  3514G12c H01065114   1.166   5.619   8.699  0.2574 -1.1966 -2.1395
  3514G12c C02T65115   1.280   5.714   8.864  0.1022 -0.1447  1.0705
  3514G12c H01O65116   1.211   5.671   8.935  1.2049 -1.7709  1.1964
  3514G12c C02S65117   1.396   5.780   8.905  1.3061 -0.2001  0.2611
  3514G12c O00J65118   1.403   5.832   9.041  0.0588  0.2080 -1.0662
  3514G12c H01P65119   1.438   5.918   9.023 -2.5708  2.4288  3.4904
  3514G12c C02R65120   1.496   5.788   8.814 -0.9185  1.6535  0.8064
  3514G12c O00I65121   1.614   5.854   8.857  0.9541  0.4216  0.7728
  3514G12c C02Q65122   1.723   5.784   8.800  1.4397  1.2274  0.1602
  3514G12c H01N65123   1.806   5.841   8.759 -0.2148  3.0643 -0.7282
  3514G12c H01R65124   1.711   5.679   8.775  0.1670  1.2076  0.8065
  3514G12c H01Q65125   1.756   5.777   8.904 -3.7849 -2.5745  1.7668
  3514G12c C02A65126   1.482   5.753   8.665  1.2125 -0.4885  0.3670
  3514G12c H01165127   1.574   5.739   8.610  3.0894 -2.4126  3.8753
  3514G12c C00C65128   1.618   5.426   8.564 -0.5171 -2.1303 -0.9470
  3514G12c H01265129   1.606   5.485   8.475 -2.9905  2.2842  2.1012
  3514G12c C00B65130   1.727   5.362   8.593 -1.2989 -1.2399 -1.5765
  3514G12c C00A65131   1.834   5.312   8.512  1.4558 -0.5204  0.8349
  3514G12c C00965132   1.828   5.235   8.382 -0.3666  0.1945 -0.1682
  3514G12c C00865133   1.729   5.164   8.325  0.7068 -0.9467  0.7811
  3514G12c H01365134   1.623   5.182   8.336  0.0275 -1.6353 -3.5431
  3514G12c C00765135   1.759   5.025   8.276  0.0419 -1.0725 -0.6470
  3514G12c H01465136   1.693   4.974   8.207 -0.0189 -0.2758 -1.1896
  3514G12c C00665137   1.894   4.982   8.284 -1.9170 -1.3356 -0.3470
  3514G12c C00565138   2.002   5.060   8.331  0.4079  2.6033 -0.1501
  3514G12c C00465139   2.115   5.009   8.377  0.2720  1.5259  0.5533
  3514G12c C00365140   2.190   5.071   8.475 -1.1978 -0.4772  0.4913
  3514G12c C00265141   2.317   5.008   8.484  0.3423 -0.5166 -0.0035
  3514G12c C00165142   2.417   5.035   8.572  0.1217 -0.3847 -0.8349
  3514G12c C00M65143   2.414   5.073   8.712  0.2345 -0.3718 -0.4921
  3514G12c C00L65144   2.305   5.144   8.759  0.2347 -0.3164  2.7047
  3514G12c C00R65145   2.241   5.159   8.881  0.5859  2.1477 -1.0412
  3514G12c C00Q65146   2.265   5.084   9.002 -0.0611 -1.0238 -0.8841
  3514G12c C00V65147   2.170   5.087   9.101  0.5205 -1.6733  0.1751
  3514G12c C00U65148   2.056   5.169   9.071  1.0644 -2.9676 -0.0237
  3514G12c C00T65149   2.031   5.236   8.959 -0.2882  0.6893  0.3138
  3514G12c C01665150   1.905   5.265   8.907  0.1439  0.1825 -0.8689
  3514G12c C01565151   1.802   5.264   9.000  0.3293 -1.7712  0.1648
  3514G12c C01065152   1.829   5.211   9.139  0.4582  0.5689  0.6589
  3514G12c C01165153   1.724   5.227   9.231 -0.1967  0.3689  0.6396
  3514G12c H00565154   1.730   5.200   9.335  2.2658  2.1869  1.0155
  3514G12c C01265155   1.599   5.291   9.204 -1.3016 -0.4667 -0.6138
  3514G12c C01765156   1.496   5.302   9.293 -1.4543  0.5677  0.0603
  3514G12c O00265157   1.485   5.208   9.387 -0.6101 -0.5514 -0.8434
  3514G12c H00465158   1.405   5.241   9.424 -2.2278 -5.9387  0.9407
  3514G12c C01865159   1.390   5.374   9.269 -0.3179 -0.8006  0.7022
  3514G12c O00165160   1.395   5.488   9.178 -0.6607  1.3587 -0.0188
  3514G12c H00365161   1.482   5.513   9.205 -2.4850  1.4710  6.7269
  3514G12c C01965162   1.238   5.354   9.321 -0.6551  1.8129 -0.4789
  3514G12c H00265163   1.189   5.415   9.245  2.8025 -1.3601 -5.4803
  3514G12c H00165164   1.188   5.260   9.298  2.2650  1.7101 -7.3886
  3514G12c O00065165   1.227   5.392   9.453 -0.9642 -0.0771  2.1121
  3514G12c C01A65166   1.106   5.359   9.486  0.3667  0.6879 -0.4102
  3514G12c C02K65167   1.095   5.255   9.589 -0.2839  0.6929  1.2889
  3514G12c O00G65168   1.201   5.180   9.624 -0.1006  0.5283  0.1714
  3514G12c C02M65169   1.277   5.235   9.743 -0.0594  1.0644  0.2110
  3514G12c H01G65170   1.333   5.324   9.712  4.4133 -0.5715  3.0015
  3514G12c H01F65171   1.362   5.171   9.720 -0.6044 -2.4761  6.7343
  3514G12c H01E65172   1.211   5.224   9.829 -0.8380 -4.7239 -0.9556
  3514G12c C02J65173   0.988   5.261   9.673 -0.2862  1.3433 -1.0085
  3514G12c H01H65174   0.977   5.180   9.743 -0.6201  2.3007  0.0764
  3514G12c C02I65175   0.872   5.348   9.645 -1.2321  0.9116  0.7162
  3514G12c C02N65176   0.744   5.326   9.715 -1.6725  0.0171  1.4987
  3514G12c H01M65177   0.722   5.221   9.731  0.0851 -0.4902  0.8142
  3514G12c C02O65178   0.652   5.411   9.752  0.4135 -0.9508  0.6909
  3514G12c H01L65179   0.661   5.519   9.750 -4.0345 -0.5230 -0.2278
  3514G12c C02P65180   0.553   5.376   9.848  1.7588  0.5568 -0.4672
  3514G12c H01K65181   0.555   5.270   9.873  1.4926  0.3975 -1.1012
  3514G12c H01J65182   0.577   5.429   9.940 -1.1717  5.2934 -2.2346
  3514G12c O00H65183   0.419   5.399   9.807 -1.9797  1.0975 -1.8615
  3514G12c H01I65184   0.367   5.478   9.808 -2.8386  0.6026  2.6029
  3514G12c C02H65185   0.880   5.436   9.524  0.9998  1.3216  1.3727
  3514G12c H01C65186   0.797   5.504   9.513 -1.0442 -1.1831  0.8654
  3514G12c C02L65187   0.998   5.440   9.457 -0.7711  0.5665 -1.0551
  3514G12c H01D65188   1.004   5.537   9.408  0.6093  0.7121 -0.6050
  3514G12c C01365189   1.584   5.311   9.064 -0.6562 -1.5918  0.8409
  3514G12c H00065190   1.482   5.319   9.030  0.1023  2.7390 -0.8265
  3514G12c C01465191   1.682   5.317   8.953  1.5634 -1.0227  0.9551
  3514G12c C00F65192   1.654   5.343   8.828  1.9769 -0.9983  3.5784
  3514G12c C00H65193   1.889   5.313   8.774  0.9018  0.1624 -0.6759
  3514G12c C00I65194   2.005   5.330   8.689  0.0200  0.7261  0.3386
  3514G12c C00J65195   2.144   5.297   8.738 -0.5897  1.3739  0.5729
  3514G12c C00Z65196   1.942   5.153   9.165  0.1147  1.5117 -0.3365
  3514G12c C00Y65197   1.961   5.058   9.270  0.0953 -0.0571  1.2737
  3514G12c H00665198   1.885   5.037   9.344  0.2360  1.2354  1.7957
  3514G12c C00X65199   2.068   4.978   9.286  0.7506  1.3058 -1.6667
  3514G12c O00365200   2.083   4.891   9.388  0.7211 -1.2299  0.3019
  3514G12c C01B65201   2.064   4.763   9.371  0.3248  1.5601  1.0828
  3514G12c H00965202   2.129   4.694   9.424 -3.3095 -2.0150  1.0973
  3514G12c H00865203   1.967   4.729   9.406  1.1166  2.1412  3.9734
  3514G12c H00765204   2.104   4.755   9.270 -2.8026 -1.0067 -0.0408
  3514G12c C00W65205   2.185   5.002   9.221  0.4502 -0.2391  0.9633
  3514G12c O00465206   2.300   4.936   9.263  0.9125  0.1252 -0.1356
  3514G12c C01C65207   2.406   4.980   9.167 -0.5379 -0.5903  0.2301
  3514G12c H00A65208   2.495   5.033   9.196 -3.7367  6.0049 -1.0525
  3514G12c C00P65209   2.384   5.008   9.030  1.4575  0.3831 -0.6568
  3514G12c C00O65210   2.466   4.932   8.935  0.0848  0.3966 -1.0446
  3514G12c C01D65211   2.540   4.824   8.974 -1.7485 -0.5627 -0.7479
  3514G12c H00S65212   2.565   4.793   9.075  5.5521 -1.2470 -2.5175
  3514G12c C01E65213   2.608   4.742   8.872  1.8948 -1.4081 -0.3630
  3514G12c O00865214   2.679   4.641   8.915  0.0521  4.1301  0.1013
  3514G12c C01V65215   2.792   4.575   8.864  0.5422 -0.3122  0.1876
  3514G12c C01Z65216   2.929   4.601   8.917  1.0223  0.9263 -0.6072
  3514G12c H00R65217   2.885   4.602   9.017  1.2572  3.0590 -0.4851
  3514G12c H00Q65218   3.005   4.528   8.888  4.9178  3.3381  2.8944
  3514G12c O00965219   2.962   4.735   8.906  0.4235 -0.5264  1.2656
  3514G12c H00P65220   2.893   4.799   8.912  1.5002  0.4368  4.7696
  3514G12c C01W65221   2.770   4.440   8.841  0.1675 -1.3269  1.3089
  3514G12c H00O65222   2.853   4.374   8.823  6.1903  5.4068  1.8720
  3514G12c C01X65223   2.645   4.369   8.804 -0.0521  0.7022 -0.5953
  3514G12c H00N65224   2.610   4.461   8.757  0.7243  0.2333 -2.1220
  3514G12c H00M65225   2.679   4.288   8.741  2.2794  3.1391 -2.5608
  3514G12c C01Y65226   2.617   4.325   8.943 -0.5227  0.6266 -0.7426
  3514G12c C02D65227   2.681   4.213   8.986  0.0694  0.6937 -0.4790
  3514G12c H01965228   2.782   4.200   8.948  0.6941 -2.6466  2.0457
  3514G12c C02C65229   2.620   4.140   9.081  1.0424  0.4836  0.6678
  3514G12c H01A65230   2.662   4.042   9.103  8.7322  3.1912 -0.5050
  3514G12c C02B65231   2.482   4.165   9.109  2.4055  1.2294 -0.1507
  3514G12c O00E65232   2.401   4.067   9.174 -0.4902  0.0303  0.7939
  3514G12c H01B65233   2.330   4.102   9.226 -3.0283 -1.3101 -1.6317
  3514G12c C02F65234   2.423   4.286   9.069 -0.0635  2.6049  0.1533
  3514G12c O00F65235   2.310   4.322   9.131 -0.4115 -0.4442  0.0368
  3514G12c C02G65236   2.208   4.277   9.040  0.7377 -0.6819 -0.9991
  3514G12c H01765237   2.118   4.294   9.098 -0.0489  4.7554 -3.5213
  3514G12c H01665238   2.214   4.173   9.005  2.6288 -2.4670  4.2151
  3514G12c H01565239   2.215   4.302   8.934  2.4804 -4.0509 -1.7736
  3514G12c C02E65240   2.495   4.365   8.990  0.2453 -0.3910 -0.7215
  3514G12c H01865241   2.444   4.458   8.969  1.8700  1.2994  2.5141
  3514G12c C01F65242   2.589   4.759   8.737  0.1632  0.7730  0.8538
  3514G12c C01G65243   2.617   4.683   8.622 -2.0698 -0.6530 -0.8183
  3514G12c H00L65244   2.700   4.614   8.621  0.1444  1.7775 -7.0273
  3514G12c C01H65245   2.561   4.710   8.499 -0.1681  1.8803 -1.2125
  3514G12c H00B65246   2.581   4.622   8.440 -3.5608  3.6256 -5.1759
  3514G12c C01I65247   2.476   4.828   8.491 -1.7253 -1.1991  0.0193
  3514G12c C01U65248   2.547   4.895   8.701 -0.8658  1.3476 -1.0485
  3514G12c C00S65249   2.133   5.234   8.863 -0.6530 -0.2908  1.9126
  3514G12c C00K65250   2.218   5.202   8.661 -0.8423  1.6015  0.0224
  3514G12c C00N65251   2.475   4.976   8.799 -0.6413  0.6513  1.7039
  3514G12c C00065252   2.519   4.934   8.577 -0.1442 -2.3771  1.2700
  3514G12c C01J65253   2.349   4.879   8.428  0.3908  1.3817  0.0888
  3514G12c C01K65254   2.264   4.797   8.356  1.1556 -0.5154 -1.4532
  3514G12c C01P65255   2.283   4.668   8.291  1.2564 -1.8805 -1.3598
  3514G12c C01Q65256   2.407   4.599   8.265 -1.4323 -1.1054 -0.5809
  3514G12c H00G65257   2.432   4.507   8.314 -0.1576 -0.3227  0.2653
  3514G12c C01R65258   2.492   4.660   8.187  1.0600  0.0148 -1.6520
  3514G12c H00F65259   2.483   4.760   8.147  4.1518  3.4753  5.3626
  3514G12c C01S65260   2.628   4.613   8.135  0.1859 -0.9377  0.8048
  3514G12c H00E65261   2.654   4.691   8.063 -0.5282  0.0421  1.6013
  3514G12c H00D65262   2.692   4.662   8.208 -2.6558 -1.0423  3.4525
  3514G12c O00565263   2.642   4.468   8.102  0.3174 -2.1633  0.2675
  3514G12c H00C65264   2.689   4.472   8.020  3.3244 -1.5926  1.9437
  3514G12c C01O65265   2.178   4.615   8.236  0.7879 -0.0464  1.8008
  3514G12c H00H65266   2.199   4.512   8.209  0.3809 -0.7527  4.0707
  3514G12c C01N65267   2.050   4.668   8.244  1.6549  0.6646  0.6912
  3514G12c O00665268   1.956   4.581   8.191 -0.7877 -0.2141 -0.0203
  3514G12c C01T65269   1.897   4.479   8.308 -0.7250 -0.4196 -0.6165
  3514G12c H00K65270   1.795   4.456   8.276 -1.0548  1.5728 -1.0889
  3514G12c H00J65271   1.931   4.382   8.273  3.4773  0.2843  1.2804
  3514G12c H00I65272   1.904   4.489   8.416 -8.2608  7.8756 -0.2620
  3514G12c C01M65273   2.032   4.799   8.281  1.5154  0.7939 -0.4154
  3514G12c C02065274   2.156   5.183   8.533  0.8468  1.5028  0.2154
  3514G12c C02165275   2.060   5.252   8.474 -1.1946 -0.4361  0.5040
  3514G12c C01L65276   2.141   4.869   8.342  0.0344 -0.3039  0.7354
  3514G12c O00765277   1.911   4.858   8.257 -0.5241 -0.8777 -1.2195
  3514G12c C02265278   1.969   5.186   8.371 -1.4103 -0.7363  0.9221
  3514G12c C02365279   1.972   5.343   8.552 -1.4869  0.7196  1.5515
  3514G12c C00G65280   1.760   5.339   8.727  1.0001 -1.0765 -0.9902
  3514G12c C00E65281   1.529   5.329   8.764 -0.3669 -0.2902  0.1922
  3514G12c O00A65282   1.404   5.293   8.830 -0.3500  0.9854  1.7370
  3514G12c C02465283   1.363   5.165   8.799 -0.1511  0.3743  0.5865
  3514G12c H00V65284   1.407   5.079   8.849 -1.8074  2.0237  5.2165
  3514G12c H00U65285   1.383   5.154   8.692 -0.0580  3.1743  0.2849
  3514G12c H00T65286   1.257   5.160   8.824 -2.8294 -0.2281 -8.9903
  3524G12c C00D65287   8.051   7.384  10.780  0.0457  0.0143 -0.3606
  3524G12c O00B65288   8.104   7.509  10.844  0.1198  0.7449  0.2254
  3524G12c C02565289   8.001   7.598  10.884 -0.4333  0.0764 -0.3580
  3524G12c C02665290   7.992   7.634  11.032  1.6729  0.4525 -0.8864
  3524G12c H00Y65291   7.885   7.622  11.044  1.9045  1.5619  2.8707
  3524G12c H00X65292   7.996   7.740  11.058 -0.6217 -0.3932  3.2970
  3524G12c O00C65293   8.086   7.553  11.103 -0.2398  0.5975 -0.1498
  3524G12c H00W65294   8.117   7.490  11.040 -3.8811 -0.4842 -1.0018
  3524G12c C02765295   7.928   7.672  10.804  1.1593  1.1290  0.2515
  3524G12c O00D65296   7.960   7.677  10.670 -1.0547 -0.3754  0.8311
  3524G12c H00Z65297   8.023   7.606  10.672 -0.7992 -0.2122 -0.9266
  3524G12c C02865298   7.824   7.746  10.846  1.7039  0.4574  1.0494
  3524G12c C02965299   7.862   7.889  10.849 -0.1573  0.1770 -1.1720
  3524G12c H01065300   7.958   7.925  10.815  1.4366  3.2211  5.7574
  3524G12c C02T65301   7.762   7.975  10.856  0.1780  0.3181  0.5600
  3524G12c H01O65302   7.777   8.082  10.849  2.1865  0.1205  1.5496
  3524G12c C02S65303   7.624   7.931  10.838 -2.8686  0.5954 -0.8924
  3524G12c O00J65304   7.545   8.032  10.813  0.9041 -0.7329  1.4519
  3524G12c H01P65305   7.463   7.997  10.784  0.4143  5.8656 -7.1393
  3524G12c C02R65306   7.592   7.804  10.861 -1.0150  0.1882 -0.8369
  3524G12c O00I65307   7.465   7.782  10.819  1.4690 -0.2056  1.4136
  3524G12c C02Q65308   7.431   7.644  10.831  0.0579  0.3707  0.8663
  3524G12c H01N65309   7.461   7.583  10.915 -2.6580  0.0740  1.6784
  3524G12c H01R65310   7.322   7.632  10.836 -1.4462  6.2857 -6.9240
  3524G12c H01Q65311   7.445   7.582  10.742  0.7559  6.6228 -3.7964
  3524G12c C02A65312   7.692   7.707  10.871 -0.0058 -1.1487 -0.0046
  3524G12c H01165313   7.688   7.601  10.847 -3.1769 -0.3208 -3.6561
  3524G12c C00C65314   7.927   7.313  10.805  2.1110  0.3006  1.0912
  3524G12c H01265315   7.876   7.330  10.899  6.2503 -2.8156  4.0881
  3524G12c C00B65316   7.873   7.206  10.726  0.2873  0.9222  1.4140
  3524G12c C00A65317   7.754   7.136  10.750 -2.5038  0.4090  0.0091
  3524G12c C00965318   7.673   7.113  10.877  0.2833 -0.3030  0.8531
  3524G12c C00865319   7.688   7.156  11.012  0.8560 -0.1094 -0.5382
  3524G12c H01365320   7.738   7.250  11.032  2.3534  0.2918 -5.4553
  3524G12c C00765321   7.635   7.057  11.108  1.2772  0.7289 -1.3747
  3524G12c H01465322   7.633   7.084  11.212  2.8837 -4.5293  0.1654
  3524G12c C00665323   7.590   6.922  11.083 -1.1749 -0.0882  0.9504
  3524G12c C00565324   7.583   6.901  10.948  0.7796 -0.5811  1.0683
  3524G12c C00465325   7.571   6.762  10.895  0.6731 -0.4608  0.2320
  3524G12c C00365326   7.602   6.732  10.753 -0.7515  1.3065 -1.2263
  3524G12c C00265327   7.584   6.586  10.742  0.6165 -0.2402 -0.5879
  3524G12c C00165328   7.570   6.509  10.613  0.9444  0.2842 -0.8766
  3524G12c C00M65329   7.671   6.529  10.511 -0.0448 -0.1008  0.4319
  3524G12c C00L65330   7.700   6.644  10.436 -1.7389  0.1054 -1.4581
  3524G12c C00R65331   7.828   6.682  10.369 -0.9457 -0.5478 -1.3067
  3524G12c C00Q65332   7.941   6.592  10.339  0.4369 -0.1707 -0.9932
  3524G12c C00V65333   8.066   6.658  10.311  1.2238 -0.0498  1.7161
  3524G12c C00U65334   8.073   6.807  10.332 -0.7496 -1.0480  0.7896
  3524G12c C00T65335   7.976   6.877  10.375  0.4933 -0.9757 -0.9367
  3524G12c C01665336   7.994   7.001  10.441 -0.2557 -0.9913  0.9218
  3524G12c C01565337   8.111   7.064  10.423  0.4005 -0.6648  0.7681
  3524G12c C01065338   8.205   6.997  10.346 -0.0525  2.0788  0.1606
  3524G12c C01165339   8.315   7.067  10.281  1.1533 -0.7107 -0.3519
  3524G12c H00565340   8.395   7.025  10.221  3.4106  3.7362 -0.6429
  3524G12c C01265341   8.357   7.183  10.331  0.6819 -0.4395  0.8892
  3524G12c C01765342   8.481   7.260  10.298 -0.1974 -0.0350  0.0997
  3524G12c O00265343   8.467   7.398  10.270  0.8938 -1.1923  0.8851
  3524G12c H00465344   8.481   7.378  10.179 -0.9022  7.1124 -1.6725
  3524G12c C01865345   8.601   7.210  10.274 -0.1858 -0.9192 -1.6016
  3524G12c O00165346   8.619   7.076  10.252  0.4707  0.5166  0.5539
  3524G12c H00365347   8.595   6.997  10.297  2.2359  0.1052  0.8025
  3524G12c C01965348   8.722   7.307  10.254 -0.5587 -1.1078 -0.1235
  3524G12c H00265349   8.718   7.368  10.344 -1.0801 -1.2050 -0.0789
  3524G12c H00165350   8.813   7.257  10.286  1.0885  1.9437  0.1175
  3524G12c O00065351   8.756   7.373  10.133 -0.3098 -0.1947  0.1394
  3524G12c C01A65352   8.876   7.455  10.131 -0.2812 -0.2126  0.4536
  3524G12c C02K65353   8.980   7.459  10.027  0.7581  0.1041  0.5476
  3524G12c O00G65354   8.979   7.372   9.923  0.6677  1.7765  0.0488
  3524G12c C02M65355   8.936   7.230   9.945 -1.1764  1.6908  0.0344
  3524G12c H01G65356   8.964   7.229  10.050 -3.5984  7.0191  0.9451
  3524G12c H01F65357   8.827   7.233   9.951 -1.1825  0.8002  0.3304
  3524G12c H01E65358   8.963   7.134   9.902 -2.0727 -0.2835  3.6245
  3524G12c C02J65359   9.051   7.583  10.016  1.5556 -0.0369 -0.3447
  3524G12c H01H65360   9.078   7.601   9.914 -0.8921  1.7972 -0.7081
  3524G12c C02I65361   9.049   7.701  10.099 -0.1338  0.8320 -0.7184
  3524G12c C02N65362   9.069   7.843  10.048 -0.7276 -0.1206  0.9790
  3524G12c H01M65363   9.008   7.890   9.972 -2.6269 -1.4112  1.6496
  3524G12c C02O65364   9.193   7.889  10.034 -0.8396  0.4027 -0.7900
  3524G12c H01L65365   9.283   7.832  10.051 -3.2729 -2.8780  1.8718
  3524G12c C02P65366   9.216   8.013   9.935 -0.7136 -0.2560  0.9447
  3524G12c H01K65367   9.190   8.003   9.829 -1.1347 -4.0204  1.3374
  3524G12c H01J65368   9.167   8.105   9.967 -0.9740 -0.4192  1.0195
  3524G12c O00H65369   9.357   8.046   9.927  0.2966  1.5116 -2.5194
  3524G12c H01I65370   9.373   8.023  10.018  2.0054 -2.2268 -3.6338
  3524G12c C02H65371   8.976   7.675  10.222 -1.5966 -2.0031 -0.4126
  3524G12c H01C65372   8.951   7.758  10.287  0.4814 -2.6974  1.3148
  3524G12c C02L65373   8.895   7.553  10.234 -0.3603 -1.1609  0.2861
  3524G12c H01D65374   8.822   7.542  10.312  0.7687 -2.2388  1.2055
  3524G12c C01365375   8.269   7.249  10.419  0.6102  1.2203  1.2577
  3524G12c H00065376   8.297   7.338  10.474 -5.1351  1.9384  3.3285
  3524G12c C01465377   8.159   7.181  10.486  0.4746 -2.8362  2.3770
  3524G12c C00F65378   8.075   7.232  10.583 -0.7926  0.4475  0.9383
  3524G12c C00H65379   7.908   7.069  10.523  0.3312  1.6173 -1.1105
  3524G12c C00I65380   7.781   6.996  10.531  0.8027  0.8723  1.6200
  3524G12c C00J65381   7.753   6.869  10.464 -1.0889 -1.8597  0.5491
  3524G12c C00Z65382   8.197   6.863  10.315  0.0615 -0.6976  1.2210
  3524G12c C00Y65383   8.306   6.789  10.286 -1.0747  0.1780  0.2684
  3524G12c H00665384   8.406   6.829  10.296  0.4087 -3.4192  0.7751
  3524G12c C00X65385   8.297   6.644  10.283 -0.1088  0.1451 -0.2787
  3524G12c O00365386   8.392   6.561  10.300  0.0267  0.3825  0.1207
  3524G12c C01B65387   8.520   6.614  10.333 -0.7823  0.7427  1.1174
  3524G12c H00965388   8.554   6.629  10.230 -2.2558 -3.4532 -0.0765
  3524G12c H00865389   8.537   6.703  10.394  4.5181 -0.5322  1.7271
  3524G12c H00765390   8.591   6.545  10.379 -1.2658 -2.8158 -3.0732
  3524G12c C00W65391   8.168   6.584  10.270 -0.5164 -0.1101 -1.3971
  3524G12c O00465392   8.165   6.459  10.213  0.1681 -0.8305  1.1953
  3524G12c C01C65393   8.063   6.384  10.268  1.1414  1.1964 -1.3939
  3524G12c H00A65394   8.107   6.302  10.322 -4.6413  0.2212  2.2400
  3524G12c C00P65395   7.951   6.446  10.336 -0.1197  0.8955 -0.0173
  3524G12c C00O65396   7.867   6.371  10.420 -1.9471 -0.2640 -0.4229
  3524G12c C01D65397   7.909   6.246  10.462  0.8798 -0.0657 -0.2680
  3524G12c H00S65398   7.988   6.205  10.400  0.1329  0.0107 -1.2943
  3524G12c C01E65399   7.865   6.168  10.574  0.7128 -0.6657  0.7595
  3524G12c O00865400   7.931   6.057  10.611  0.6020  1.4672  0.2089
  3524G12c C01V65401   8.070   6.082  10.631  0.2723 -0.9685 -0.1462
  3524G12c C01Z65402   8.130   6.134  10.773  2.4477 -0.5827 -0.0478
  3524G12c H00R65403   8.186   6.224  10.800 -0.1693 -0.8161  7.1618
  3524G12c H00Q65404   8.072   6.100  10.859  0.2119  0.3739 -1.1299
  3524G12c O00965405   8.218   6.049  10.794  0.0022 -0.0162  0.1088
  3524G12c H00P65406   8.190   5.985  10.857  6.6713  0.7179  4.2715
  3524G12c C01W65407   8.139   6.046  10.533  0.9021  0.9605 -0.7835
  3524G12c H00O65408   8.072   6.008  10.457  1.1678 -0.5483 -0.2778
  3524G12c C01X65409   8.284   6.011  10.510 -0.2893  0.0637 -0.9522
  3524G12c H00N65410   8.261   5.905  10.526  2.0788 -0.2967  0.2802
  3524G12c H00M65411   8.326   6.058  10.599  4.7301 -2.9770 -1.5174
  3524G12c C01Y65412   8.340   6.022  10.359  2.5027  0.9282 -1.8752
  3524G12c C02D65413   8.375   6.143  10.298  2.1471  0.0842  0.9431
  3524G12c H01965414   8.356   6.243  10.335 -1.9270 -0.9397  1.8582
  3524G12c C02C65415   8.407   6.147  10.167 -0.0420  0.1910  0.6703
  3524G12c H01A65416   8.449   6.225  10.105 -1.2090  0.9171  0.7837
  3524G12c C02B65417   8.380   6.036  10.086 -1.1253  1.4505 -1.6516
  3524G12c O00E65418   8.436   6.030   9.958  0.6805 -0.8333 -0.8134
  3524G12c H01B65419   8.451   5.938   9.942  6.1991 -0.9008  3.3002
  3524G12c C02F65420   8.349   5.906  10.142 -0.2675 -0.8219 -1.1105
  3524G12c O00F65421   8.351   5.804  10.058 -0.0884  0.4124  0.2696
  3524G12c C02G65422   8.233   5.744  10.001  0.5777  0.1922  0.8898
  3524G12c H01765423   8.257   5.642  10.029  1.2369 -1.0940 -3.8358
  3524G12c H01665424   8.167   5.807  10.061 -2.6712 -4.4744  2.4704
  3524G12c H01565425   8.205   5.737   9.896 -3.2756 -0.0724  1.8518
  3524G12c C02E65426   8.331   5.899  10.286  0.6747 -0.3868 -0.1920
  3524G12c H01865427   8.293   5.822  10.351  4.5944 -0.7443  1.7664
  3524G12c C01F65428   7.760   6.210  10.646  0.7835 -0.8707  0.1834
  3524G12c C01G65429   7.723   6.171  10.778 -1.3244 -0.0332 -1.3631
  3524G12c H00L65430   7.794   6.115  10.838 -2.5091  2.4088  2.5356
  3524G12c C01H65431   7.622   6.246  10.839  0.3651 -1.2823 -1.9491
  3524G12c H00B65432   7.577   6.225  10.934  5.1296 -5.3835 -0.3681
  3524G12c C01I65433   7.572   6.357  10.771  0.8104  0.4336 -0.1230
  3524G12c C01U65434   7.686   6.314  10.579  1.3435 -0.8055 -0.5501
  3524G12c C00S65435   7.844   6.823  10.367  0.6615 -1.3229  0.0071
  3524G12c C00K65436   7.670   6.766  10.522 -1.6852 -1.8282  0.0890
  3524G12c C00N65437   7.744   6.405  10.485  0.4826  0.8327  0.9284
  3524G12c C00065438   7.572   6.367  10.633  1.1390  1.1259  1.1017
  3524G12c C01J65439   7.541   6.496  10.836  0.7212  0.9128 -1.7220
  3524G12c C01K65440   7.508   6.525  10.974  1.0749  1.0006  0.5108
  3524G12c C01P65441   7.454   6.449  11.085  0.1515 -0.2206 -0.2917
  3524G12c C01Q65442   7.373   6.328  11.070  1.0809  0.0114 -1.9092
  3524G12c H00G65443   7.309   6.325  10.983  1.3865 -1.9785 -2.0985
  3524G12c C01R65444   7.373   6.233  11.170  0.9069  0.5896  0.3646
  3524G12c H00F65445   7.453   6.228  11.243  3.4192 -2.8841 -2.4710
  3524G12c C01S65446   7.290   6.111  11.191 -0.2583  0.0513 -0.2236
  3524G12c H00E65447   7.297   6.051  11.281 -1.1735  1.7241  0.9955
  3524G12c H00D65448   7.199   6.169  11.175 -3.8352 -5.7435 -2.3634
  3524G12c O00565449   7.269   6.036  11.081 -0.2026  0.8651  0.3812
  3524G12c H00C65450   7.314   6.075  11.008  0.6346  2.6633  1.8265
  3524G12c C01O65451   7.413   6.509  11.211  0.3959  0.7781  0.1370
  3524G12c H00H65452   7.348   6.469  11.287  1.3696 -0.1530  0.4657
  3524G12c C01N65453   7.436   6.651  11.224  0.7438  0.3913 -1.3959
  3524G12c O00665454   7.432   6.695  11.357 -0.0503 -0.8935  0.5303
  3524G12c C01T65455   7.367   6.832  11.362  0.3804 -0.1358  1.6551
  3524G12c H00K65456   7.370   6.856  11.468 -2.4148  2.5950  1.1604
  3524G12c H00J65457   7.441   6.903  11.326  0.1425 -1.9855 -2.8748
  3524G12c H00I65458   7.260   6.837  11.342  0.7529  0.6543 -0.1988
  3524G12c C01M65459   7.508   6.725  11.124 -0.8689 -1.9665 -0.2656
  3524G12c C02065460   7.615   6.821  10.648  1.1488  0.9582 -0.6170
  3524G12c C02165461   7.616   6.950  10.707  0.6281  0.2497 -0.3373
  3524G12c C01L65462   7.538   6.670  10.998 -0.9136  0.3229 -0.4788
  3524G12c O00765463   7.561   6.833  11.174  0.2576  0.0904  0.2508
  3524G12c C02265464   7.618   6.991  10.842 -1.8216 -0.0715 -0.2038
  3524G12c C02365465   7.699   7.049  10.645  0.9724  1.5693 -0.3169
  3524G12c C00G65466   7.947   7.169  10.610 -2.0976 -0.0865 -0.7223
  3524G12c C00E65467   8.129   7.331  10.675 -0.4262  0.4539 -0.4405
  3524G12c O00A65468   8.258   7.361  10.702 -0.9070  1.1767 -1.7333
  3524G12c C02465469   8.333   7.257  10.779 -0.3050 -1.3243 -0.1442
  3524G12c H00V65470   8.434   7.218  10.789 -0.9668 -4.1467 -3.4430
  3524G12c H00U65471   8.323   7.164  10.723 -5.4509  1.9776 -5.3696
  3524G12c H00T65472   8.295   7.226  10.876 -0.2287 -1.7855 -0.2614
  3534G12c C00D65473   1.166   9.720   5.534 -0.4436 -0.4455  1.2266
  3534G12c O00B65474   1.101   9.849   5.547  0.1113 -0.3308 -0.3579
  3534G12c C02565475   1.179   9.964   5.524  0.8403 -1.2166 -1.8729
  3534G12c C02665476   1.186  10.076   5.630  0.6768 -2.0546  1.0732
  3534G12c H00Y65477   1.264  10.140   5.670 -2.5223 -0.4314  5.0608
  3534G12c H00X65478   1.194  10.019   5.722 -5.6941 -0.6724  2.7163
  3534G12c O00C65479   1.055  10.146   5.630 -0.3291 -0.5248  0.5894
  3534G12c H00W65480   1.020  10.119   5.547 -1.5787 -0.2409  1.0194
  3534G12c C02765481   1.172  10.023   5.408  1.1272 -0.2641  0.5055
  3534G12c O00D65482   1.103   9.969   5.299  0.3215  0.3735 -0.6446
  3534G12c H00Z65483   1.085   9.877   5.306 -5.0884  0.9542 -4.1196
  3534G12c C02865484   1.269  10.136   5.389 -0.1048 -0.4267 -0.0524
  3534G12c C02965485   1.409  10.106   5.401 -0.8062  0.2044 -0.9846
  3534G12c H01065486   1.454  10.020   5.448 -4.3750 -0.5089  1.3301
  3534G12c C02T65487   1.498  10.202   5.356  1.1929  0.7410  0.4073
  3534G12c H01O65488   1.596  10.172   5.324  1.5325 -2.0991  3.8094
  3534G12c C02S65489   1.446  10.340   5.343  0.0676 -0.1770 -0.4239
  3534G12c O00J65490   1.526  10.441   5.336 -0.3669  0.2250  0.4424
  3534G12c H01P65491   1.469  10.516   5.326 -3.0664 -2.0649 -2.3177
  3534G12c C02R65492   1.300  10.374   5.356 -2.4341  0.0933  0.6136
  3534G12c O00I65493   1.270  10.498   5.309 -1.4231  0.8649 -1.5574
  3534G12c C02Q65494   1.228  10.504   5.171  0.7218  0.0503 -1.1054
  3534G12c H01N65495   1.177  10.409   5.156  2.5356 -0.4186 -4.7840
  3534G12c H01R65496   1.310  10.501   5.099  0.8679  0.9422 -0.9815
  3534G12c H01Q65497   1.151  10.575   5.140 -3.9992 -3.2664  2.3858
  3534G12c C02A65498   1.217  10.273   5.354 -0.9962 -1.5807  1.8222
  3534G12c H01165499   1.121  10.307   5.318 -0.4918 -1.3875  0.6193
  3534G12c C00C65500   1.276   9.682   5.624  0.5592 -1.5523  0.5302
  3534G12c H01265501   1.294   9.741   5.713  1.7721 -2.6266  1.0168
  3534G12c C00B65502   1.347   9.570   5.589  0.0668 -0.3352  0.4160
  3534G12c C00A65503   1.432   9.494   5.676 -1.4331 -1.3397  1.3259
  3534G12c C00965504   1.495   9.564   5.780  1.7117  0.2293  0.0351
  3534G12c C00865505   1.471   9.679   5.867  0.6500 -0.5383  0.8949
  3534G12c H01365506   1.367   9.689   5.894  1.3471  1.4914  3.0219
  3534G12c C00765507   1.570   9.727   5.945 -1.3578 -2.1601  0.2143
  3534G12c H01465508   1.564   9.793   6.031  1.7240 -2.8820  1.0539
  3534G12c C00665509   1.693   9.686   5.925  0.0470  2.3529 -0.2504
  3534G12c C00565510   1.722   9.581   5.838  1.7031 -1.4519  1.1473
  3534G12c C00465511   1.847   9.581   5.781  0.6418  0.8256  1.2020
  3534G12c C00365512   1.867   9.506   5.665 -0.2015 -0.0647 -0.0927
  3534G12c C00265513   2.002   9.509   5.606  2.2156 -0.1310  0.2636
  3534G12c C00165514   2.047   9.470   5.488 -1.4276 -0.8254  0.3727
  3534G12c C00M65515   1.983   9.472   5.352  0.4203 -0.6590  0.3837
  3534G12c C00L65516   1.849   9.413   5.342 -1.8859  1.0007  0.0592
  3534G12c C00R65517   1.784   9.410   5.218 -1.4339  0.8275 -1.0694
  3534G12c C00Q65518   1.783   9.511   5.104 -0.0212  0.5130 -1.1632
  3534G12c C00V65519   1.663   9.510   5.023  0.3227 -0.3122  0.8025
  3534G12c C00U65520   1.545   9.466   5.078 -1.1587  0.8600  0.4456
  3534G12c C00T65521   1.534   9.406   5.202 -0.8155 -0.2339  1.1821
  3534G12c C01665522   1.419   9.416   5.273 -0.9773 -0.2650 -0.1476
  3534G12c C01565523   1.297   9.439   5.210 -2.5502 -0.5895  0.7907
  3534G12c C01065524   1.300   9.446   5.071  0.1002  0.2680  0.4100
  3534G12c C01165525   1.180   9.486   5.006 -1.2341  0.4664  0.7678
  3534G12c H00565526   1.157   9.520   4.906 -1.0129  1.2680  0.9927
  3534G12c C01265527   1.057   9.456   5.062 -1.4771 -0.9528 -1.5599
  3534G12c C01765528   0.940   9.410   4.990  0.6765  1.0950 -0.4592
  3534G12c O00265529   0.911   9.277   4.978 -0.5199  0.7273 -0.5572
  3534G12c H00465530   0.984   9.228   4.943 -0.0699 -3.1805  5.2071
  3534G12c C01865531   0.860   9.483   4.916 -0.4505  0.7426  2.2534
  3534G12c O00165532   0.857   9.626   4.942  0.0352  0.9555  0.8974
  3534G12c H00365533   0.873   9.695   4.879 -3.5129 -0.1141 -1.3706
  3534G12c C01965534   0.810   9.436   4.783 -2.2098 -0.6547  1.2739
  3534G12c H00265535   0.732   9.361   4.787  0.9917 -4.1880  0.4823
  3534G12c H00165536   0.762   9.522   4.738 -1.9907 -2.5053 -2.6493
  3534G12c O00065537   0.910   9.391   4.707 -1.2512  0.8636  1.2924
  3534G12c C01A65538   0.897   9.368   4.569  1.0295  0.3518  0.3011
  3534G12c C02K65539   0.779   9.375   4.476 -0.9608 -1.0992 -1.1821
  3534G12c O00G65540   0.662   9.441   4.528 -1.2121  0.1261 -0.1307
  3534G12c C02M65541   0.589   9.526   4.457 -0.4437 -1.4010  0.3871
  3534G12c H01G65542   0.483   9.533   4.481 -1.3649 -0.5685 -3.5689
  3534G12c H01F65543   0.596   9.502   4.351 -0.2866  1.0958 -0.1875
  3534G12c H01E65544   0.651   9.615   4.468 -0.2808 -1.6545  1.5959
  3534G12c C02J65545   0.785   9.324   4.359 -1.7508  0.9290 -1.3843
  3534G12c H01H65546   0.696   9.337   4.299  3.1129  2.4487 -9.0186
  3534G12c C02I65547   0.898   9.272   4.301  1.9021  1.1477  0.6589
  3534G12c C02N65548   0.896   9.201   4.171 -1.3876 -1.2257 -0.8203
  3534G12c H01M65549   0.990   9.201   4.119  0.0213  3.8560  1.4894
  3534G12c C02O65550   0.800   9.149   4.109  0.5073  1.9815  0.2126
  3534G12c H01L65551   0.703   9.146   4.158  0.8092  5.2771  1.1139
  3534G12c C02P65552   0.792   9.072   3.988 -0.8978  0.3844  0.1090
  3534G12c H01K65553   0.713   9.060   3.914 -0.7915 -1.0356  0.2072
  3534G12c H01J65554   0.883   9.105   3.937  0.7054 -0.2068  2.5033
  3534G12c O00H65555   0.832   8.946   4.013  0.6223 -0.3555 -0.1604
  3534G12c H01I65556   0.836   8.939   4.107  6.4740  0.4598 -0.1453
  3534G12c C02H65557   1.012   9.268   4.382  0.2884  0.2714  1.2053
  3534G12c H01C65558   1.114   9.240   4.360 -0.2307 -0.0117 -0.9695
  3534G12c C02L65559   1.009   9.313   4.513 -0.9342 -2.8991 -1.5203
  3534G12c H01D65560   1.084   9.317   4.590  0.1206  1.0080 -2.6361
  3534G12c C01365561   1.054   9.453   5.195 -1.0697  1.2924 -1.1654
  3534G12c H00065562   0.978   9.399   5.249  0.6366 -6.4090 -5.5738
  3534G12c C01465563   1.181   9.450   5.277 -0.6591  0.6370 -0.3364
  3534G12c C00F65564   1.203   9.533   5.388  0.8064 -0.4405  2.2129
  3534G12c C00H65565   1.428   9.424   5.417 -0.0659 -1.0777 -0.7569
  3534G12c C00I65566   1.530   9.371   5.489  1.6075  0.5804 -0.7392
  3534G12c C00J65567   1.633   9.331   5.411  1.4595 -0.2890  0.1547
  3534G12c C00Z65568   1.420   9.479   5.010 -0.7013  0.2217 -1.0295
  3534G12c C00Y65569   1.424   9.524   4.856  0.9904  2.6857  1.0868
  3534G12c H00665570   1.332   9.500   4.805  2.3136 -6.4840  2.0278
  3534G12c C00X65571   1.550   9.570   4.805  1.7778  0.1253 -1.3718
  3534G12c O00365572   1.556   9.638   4.694 -0.5055 -0.8134  0.2691
  3534G12c C01B65573   1.465   9.742   4.686  2.6243  0.7637 -0.7110
  3534G12c H00965574   1.494   9.810   4.606 -4.3353  4.9543 -0.0136
  3534G12c H00865575   1.369   9.705   4.649  2.1326  3.4932 -2.2378
  3534G12c H00765576   1.497   9.785   4.781 -2.1212  2.7306  0.1462
  3534G12c C00W65577   1.660   9.565   4.892  2.0348  1.7538  0.3096
  3534G12c O00465578   1.781   9.637   4.829 -1.3544 -1.0466 -0.9139
  3534G12c C01C65579   1.898   9.623   4.913 -0.9009 -0.0098 -1.1449
  3534G12c H00A65580   1.996   9.623   4.867  0.1461 -5.3183  0.7343
  3534G12c C00P65581   1.884   9.591   5.050  0.1836 -0.1264  0.7008
  3534G12c C00O65582   1.991   9.627   5.134  1.3387 -2.3403 -0.9439
  3534G12c C01D65583   2.059   9.738   5.091 -0.6016 -1.6204  0.6160
  3534G12c H00S65584   2.023   9.811   5.020 -5.7058 -2.6628  1.8976
  3534G12c C01E65585   2.176   9.798   5.162  0.5863 -0.4583 -0.5039
  3534G12c O00865586   2.221   9.926   5.143  0.5459  0.6045  0.9553
  3534G12c C01V65587   2.128  10.030   5.159  0.0347 -1.1978  0.3058
  3534G12c C01Z65588   2.183  10.153   5.079  0.2128  0.7897  0.1450
  3534G12c H00R65589   2.201  10.220   5.163  7.4504  4.1561 -3.6271
  3534G12c H00Q65590   2.278  10.134   5.028  0.1275 -4.1724  1.5271
  3534G12c O00965591   2.096  10.187   4.972  1.2402  0.1104  0.1671
  3534G12c H00P65592   2.104  10.274   4.935 -3.9019  0.3063 -0.7625
  3534G12c C01W65593   2.018  10.045   5.230  0.5573 -1.0810  1.4477
  3534G12c H00O65594   1.973   9.973   5.297 -0.6791 -2.0930 -0.4305
  3534G12c C01X65595   1.923  10.160   5.237 -1.0625 -0.5673  0.1874
  3534G12c H00N65596   1.977  10.244   5.192  0.0192 -2.0722 -1.3758
  3534G12c H00M65597   1.819  10.168   5.206 -0.9316  2.5442  0.3521
  3534G12c C01Y65598   1.890  10.231   5.380  0.2641  1.2404  0.6791
  3534G12c C02D65599   1.878  10.149   5.487 -0.0696 -0.6354  0.1457
  3534G12c H01965600   1.913  10.047   5.481  1.3641 -0.4030  3.5871
  3534G12c C02C65601   1.814  10.196   5.600  0.5354  0.2594  0.8462
  3534G12c H01A65602   1.832  10.154   5.698 -0.0136 -4.2615 -0.8420
  3534G12c C02B65603   1.781  10.328   5.601  0.8670 -0.5818 -0.7932
  3534G12c O00E65604   1.756  10.367   5.720  1.8509 -0.2313  0.2523
  3534G12c H01B65605   1.749  10.461   5.714  2.4178 -0.2723 -1.0920
  3534G12c C02F65606   1.808  10.422   5.507 -0.8112  0.0771  0.9134
  3534G12c O00F65607   1.787  10.568   5.501 -0.2672  0.3173  0.9311
  3534G12c C02G65608   1.836  10.637   5.608  0.5913 -0.5544  0.2333
  3534G12c H01765609   1.747  10.643   5.670 -4.1757  3.0458 -6.3619
  3534G12c H01665610   1.837  10.745   5.591 -3.0466  0.0402  3.1169
  3534G12c H01565611   1.925  10.598   5.658 -2.1253 -1.6942  4.5170
  3534G12c C02E65612   1.860  10.360   5.378 -1.7146 -0.0929 -0.9162
  3534G12c H01865613   1.876  10.423   5.291 -1.7762  0.4868 -0.5071
  3534G12c C01F65614   2.214   9.737   5.284 -0.9667 -0.3319 -0.3134
  3534G12c C01G65615   2.276   9.816   5.391  1.9466  0.0301 -0.7785
  3534G12c H00L65616   2.321   9.913   5.375  0.9574  0.4080 -1.3168
  3534G12c C01H65617   2.258   9.774   5.517 -2.0975 -0.5953 -0.5132
  3534G12c H00B65618   2.272   9.849   5.594  5.8878 -8.7340  7.2669
  3534G12c C01I65619   2.183   9.647   5.547 -0.9320 -0.7915 -0.8966
  3534G12c C01U65620   2.169   9.611   5.329  0.3997  1.6777 -1.1921
  3534G12c C00S65621   1.648   9.367   5.267  0.7011 -1.5022 -0.1733
  3534G12c C00K65622   1.758   9.393   5.454  0.1071  0.7745 -0.7700
  3534G12c C00N65623   2.042   9.569   5.259 -0.0376 -0.2111 -0.1767
  3534G12c C00065624   2.167   9.550   5.458 -0.8759 -0.0899 -1.0562
  3534G12c C01J65625   2.099   9.601   5.652 -0.0151 -0.9699 -0.6351
  3534G12c C01K65626   2.077   9.673   5.779  0.3026  1.1937 -0.0879
  3534G12c C01P65627   2.163   9.739   5.867 -1.7746  0.5256  1.9415
  3534G12c C01Q65628   2.310   9.723   5.854 -0.4076 -0.6629 -1.0680
  3534G12c H00G65629   2.379   9.649   5.889 -6.5609 -5.6889  1.4628
  3534G12c C01R65630   2.376   9.861   5.843 -1.0701 -0.4404 -0.0623
  3534G12c H00F65631   2.481   9.843   5.827 -0.8956 -0.2050  0.7950
  3534G12c C01S65632   2.309  10.002   5.814  0.1132 -1.5487  2.2872
  3534G12c H00E65633   2.201   9.998   5.824 -0.9513  1.5301 -4.6767
  3534G12c H00D65634   2.353  10.011   5.914  4.2993  1.0548  0.3695
  3534G12c O00565635   2.375  10.098   5.730 -1.4375 -0.5468 -0.6521
  3534G12c H00C65636   2.436  10.146   5.784 -2.4766  2.9724 -2.4085
  3534G12c C01O65637   2.116   9.803   5.980 -1.6238  0.8810 -0.2441
  3534G12c H00H65638   2.197   9.859   6.024 -1.9041 -2.7507  5.3889
  3534G12c C01N65639   1.993   9.825   6.037 -0.4553  0.0863  0.6043
  3534G12c O00665640   1.962   9.900   6.137 -0.3671  0.1227  0.1098
  3534G12c C01T65641   1.931   9.811   6.240  0.3454 -0.6335  0.1122
  3534G12c H00K65642   1.941   9.704   6.253  2.4232 -0.0907  3.8842
  3534G12c H00J65643   1.977   9.857   6.328  0.5583  0.1400 -0.3927
  3534G12c H00I65644   1.826   9.825   6.269 -0.2988 -3.6199 -0.6773
  3534G12c C01M65645   1.902   9.741   5.955  0.7043 -0.6056  0.7624
  3534G12c C02065646   1.778   9.422   5.597 -2.0949 -1.8864  0.1436
  3534G12c C02165647   1.655   9.401   5.682 -0.3959  0.8165  1.4869
  3534G12c C01L65648   1.947   9.663   5.835 -1.4327  0.3866  0.7698
  3534G12c O00765649   1.782   9.761   5.978  0.4071  1.2204 -0.0706
  3534G12c C02265650   1.626   9.500   5.773 -2.6685 -0.6779 -0.1689
  3534G12c C02365651   1.526   9.399   5.625  0.0205  0.9839 -0.3814
  3534G12c C00G65652   1.329   9.517   5.467 -0.2920  0.2387 -0.0700
  3534G12c C00E65653   1.133   9.657   5.409 -0.7205 -0.8230 -0.4107
  3534G12c O00A65654   1.037   9.700   5.322  2.0930  1.8686 -0.5727
  3534G12c C02465655   0.908   9.740   5.373 -0.8924  1.2835 -0.4598
  3534G12c H00V65656   0.923   9.832   5.429  0.6803 -1.8668  4.6482
  3534G12c H00U65657   0.848   9.681   5.442 -6.7890  5.2906 -1.8143
  3534G12c H00T65658   0.851   9.750   5.281  1.4319 -0.4296 -2.1537
  3544G12c C00D65659  12.756   2.348   2.282  1.1983  1.8439 -1.5906
  3544G12c O00B65660  12.888   2.384   2.283 -0.5693 -0.8707 -0.5708
  3544G12c C02565661  12.963   2.354   2.168 -1.2615 -0.0067 -1.3154
  3544G12c C02665662  12.977   2.428   2.042  2.0482 -0.7991 -0.9685
  3544G12c H00Y65663  12.897   2.501   2.031  3.0201  1.1578  3.7874
  3544G12c H00X65664  12.926   2.352   1.982  7.3620 -0.7567 -5.9670
  3544G12c O00C65665  13.111   2.435   1.970  0.9346  0.4799  1.2126
  3544G12c H00W65666  13.152   2.351   1.980 -1.6427 -1.4173 -2.9142
  3544G12c C02765667  13.067   2.263   2.186  1.2662  0.6487 -0.5763
  3544G12c O00D65668  13.148   2.194   2.101 -1.2747  0.4551 -0.5756
  3544G12c H00Z65669  13.173   2.120   2.154  0.5349  1.5183  0.0967
  3544G12c C02865670  13.118   2.231   2.323  0.9214  1.5740  0.3988
  3544G12c C02965671  13.045   2.126   2.391  1.2439 -0.5581 -0.1403
  3544G12c H01065672  12.971   2.072   2.334 -1.4362 -0.8713  3.4260
  3544G12c C02T65673  13.086   2.103   2.530 -0.2811 -1.8569  0.0451
  3544G12c H01O65674  12.992   2.080   2.577 -0.2608 -2.4848 -0.2167
  3544G12c C02S65675  13.160   2.192   2.594 -1.6102 -1.7630 -0.1106
  3544G12c O00J65676  13.130   2.199   2.733  0.5061  0.1502  0.6200
  3544G12c H01P65677  13.182   2.254   2.789  2.1112 -1.8029  1.1025
  3544G12c C02R65678  13.217   2.309   2.534  2.0095 -0.7101 -2.3388
  3544G12c O00I65679  13.283   2.394   2.629 -0.1754 -0.6953 -0.9700
  3544G12c C02Q65680  13.371   2.476   2.566  1.0038  0.5673  0.2268
  3544G12c H01N65681  13.464   2.423   2.548  1.7518  0.3514  4.2385
  3544G12c H01R65682  13.312   2.536   2.497  2.1531 -3.9272 -5.0107
  3544G12c H01Q65683  13.378   2.558   2.638  4.2223 -0.0790  0.7351
  3544G12c C02A65684  13.183   2.332   2.394  0.7801  0.3882 -0.0547
  3544G12c H01165685  13.226   2.406   2.327  2.0954  1.0837  1.4959
  3544G12c C00C65686  12.706   2.213   2.224 -0.0526 -0.9673 -0.7989
  3544G12c H01265687  12.789   2.146   2.207 -0.0398 -1.1476 -0.0507
  3544G12c C00B65688  12.576   2.178   2.210  1.6461 -1.7004  0.6290
  3544G12c C00A65689  12.505   2.061   2.133  1.4647 -1.4111 -0.2314
  3544G12c C00965690  12.548   1.974   2.023  0.5033  0.7002 -0.6088
  3544G12c C00865691  12.651   2.004   1.930 -1.5127  0.3414  0.4322
  3544G12c H01365692  12.739   2.048   1.976 -2.4532 -0.0578  2.6652
  3544G12c C00765693  12.659   1.932   1.814  0.1231 -0.3508 -0.3317
  3544G12c H01465694  12.752   1.980   1.789 -3.0413  8.1184  2.5332
  3544G12c C00665695  12.557   1.834   1.782  1.3258 -1.9444  1.4711
  3544G12c C00565696  12.438   1.841   1.866  1.6792  0.6018 -0.2461
  3544G12c C00465697  12.303   1.830   1.806  0.1267  0.3540  0.7224
  3544G12c C00365698  12.190   1.870   1.889  0.3956 -1.1665  0.8740
  3544G12c C00265699  12.058   1.847   1.833  0.7420  1.3984  0.9942
  3544G12c C00165700  11.929   1.877   1.879  0.2558 -0.5529 -0.7012
  3544G12c C00M65701  11.909   2.018   1.907 -0.1198 -0.3374  0.2169
  3544G12c C00L65702  12.011   2.093   1.962 -0.8460 -0.1568 -0.6195
  3544G12c C00R65703  11.983   2.214   2.030  0.5935 -0.3269 -0.6957
  3544G12c C00Q65704  11.893   2.318   1.989  1.3190  0.5046  0.7007
  3544G12c C00V65705  11.928   2.437   2.058 -0.7608 -0.5124  1.2366
  3544G12c C00U65706  12.044   2.448   2.137 -0.9155  0.3228  1.0351
  3544G12c C00T65707  12.124   2.350   2.165 -0.4698 -1.3041 -1.0976
  3544G12c C01665708  12.254   2.354   2.215  1.5003 -0.8661 -0.2072
  3544G12c C01565709  12.292   2.483   2.255 -0.2737 -1.5421  0.0066
  3544G12c C01065710  12.201   2.573   2.265  0.6446  0.8956  0.0197
  3544G12c C01165711  12.231   2.714   2.304 -0.9778 -0.9884  1.7067
  3544G12c H00565712  12.142   2.775   2.308  2.9652  5.1122  3.2552
  3544G12c C01265713  12.359   2.751   2.345 -0.8455 -0.7013  0.5238
  3544G12c C01765714  12.382   2.883   2.399  0.4686  0.2271 -0.0464
  3544G12c O00265715  12.335   2.902   2.520  1.3767  0.7804 -0.5852
  3544G12c H00465716  12.311   2.813   2.544 -3.1149  1.4432 -2.0897
  3544G12c C01865717  12.386   2.970   2.297 -1.5896  0.2891  0.3862
  3544G12c O00165718  12.421   2.927   2.169  0.9182  0.9615 -1.5648
  3544G12c H00365719  12.409   3.016   2.139  1.3840 -0.6382 -7.2159
  3544G12c C01965720  12.321   3.114   2.292  0.2730  1.3037 -1.0257
  3544G12c H00265721  12.328   3.169   2.386 -4.0412  1.4772 -0.7251
  3544G12c H00165722  12.223   3.077   2.260  0.1552 -1.0480  1.7839
  3544G12c O00065723  12.341   3.198   2.179 -1.7643  0.2022  0.3974
  3544G12c C01A65724  12.251   3.262   2.107 -0.9415  1.1765  0.8770
  3544G12c C02K65725  12.264   3.401   2.082 -1.1533  0.3480  0.8152
  3544G12c O00G65726  12.347   3.465   2.175 -0.5369  1.5111  0.3240
  3544G12c C02M65727  12.345   3.612   2.170 -0.8751 -0.2548 -0.5761
  3544G12c H01G65728  12.423   3.626   2.244 -3.6915 -0.7574  2.6163
  3544G12c H01F65729  12.388   3.678   2.094  0.6880 -0.7746 -0.1450
  3544G12c H01E65730  12.250   3.649   2.208 -1.9071 -1.0253 -2.3463
  3544G12c C02J65731  12.187   3.443   1.984  1.3881 -0.3582  0.1423
  3544G12c H01H65732  12.204   3.549   1.971 -0.5765 -0.5140 -4.8865
  3544G12c C02I65733  12.140   3.361   1.882  0.3083  1.0906  1.1326
  3544G12c C02N65734  12.095   3.424   1.772  0.4019  0.3333  0.3539
  3544G12c H01M65735  12.152   3.506   1.730 -1.4034  2.0807  1.2237
  3544G12c C02O65736  11.962   3.410   1.731  0.3889 -0.6635 -0.8515
  3544G12c H01L65737  11.897   3.331   1.763  1.0021  0.3900  3.1832
  3544G12c C02P65738  11.910   3.494   1.619  1.1205 -0.0761 -0.1913
  3544G12c H01K65739  11.988   3.550   1.568  1.2309 -2.1874 -2.4334
  3544G12c H01J65740  11.866   3.553   1.700 -1.1998  1.8378 -2.7249
  3544G12c O00H65741  11.847   3.409   1.539 -0.4226 -0.7652 -0.3190
  3544G12c H01I65742  11.893   3.328   1.527  3.6847  1.1623  1.4437
  3544G12c C02H65743  12.144   3.223   1.897 -1.0857  0.0876  1.0094
  3544G12c H01C65744  12.111   3.139   1.837 -0.1389  0.6885 -0.3717
  3544G12c C02L65745  12.186   3.184   2.024 -0.8740 -0.8767  1.6261
  3544G12c H01D65746  12.159   3.082   2.044  0.6693 -1.9331 -1.2783
  3544G12c C01365747  12.443   2.636   2.345 -0.0307  0.4768 -1.5910
  3544G12c H00065748  12.531   2.694   2.370  0.1428  0.9240 -3.2210
  3544G12c C01465749  12.416   2.506   2.302 -0.7177  0.1791 -0.4457
  3544G12c C00F65750  12.517   2.408   2.285  0.8077 -1.6387  0.3140
  3544G12c C00H65751  12.342   2.246   2.224  0.7997  0.4432 -0.3305
  3544G12c C00I65752  12.286   2.118   2.191 -0.0703 -0.1525  1.4304
  3544G12c C00J65753  12.152   2.131   2.140  1.9107  1.5005  0.2679
  3544G12c C00Z65754  12.070   2.567   2.203 -0.7949  0.6300 -0.1686
  3544G12c C00Y65755  11.999   2.683   2.155 -0.8590  2.2452  0.9416
  3544G12c H00665756  12.000   2.789   2.173 -3.7546  2.1072  2.2617
  3544G12c C00X65757  11.894   2.674   2.079  1.2753  0.7086 -0.7551
  3544G12c O00365758  11.821   2.781   2.054 -0.5758 -0.2836 -1.4684
  3544G12c C01B65759  11.732   2.810   2.175  0.2321 -1.9869  1.4867
  3544G12c H00965760  11.744   2.866   2.268  3.4252  1.5598 -0.9261
  3544G12c H00865761  11.675   2.876   2.110  2.7822  1.5339  2.6962
  3544G12c H00765762  11.669   2.725   2.201 -2.0663 -0.3033  1.5625
  3544G12c C00W65763  11.868   2.547   2.025  0.3550 -0.1140 -1.5400
  3544G12c O00465764  11.785   2.546   1.911  0.1353 -0.5144  0.6505
  3544G12c C01C65765  11.700   2.436   1.899 -0.2133 -1.7823 -0.5119
  3544G12c H00A65766  11.611   2.437   1.959 -2.8303  0.7982 -4.2559
  3544G12c C00P65767  11.786   2.317   1.898  1.6157  0.8124 -0.7010
  3544G12c C00O65768  11.737   2.214   1.820 -0.7874  0.6808  0.3245
  3544G12c C01D65769  11.632   2.226   1.731 -0.9042 -0.1913 -0.7443
  3544G12c H00S65770  11.571   2.312   1.707  1.4812  1.8572  0.2914
  3544G12c C01E65771  11.618   2.140   1.629  0.3595  0.6334 -0.7236
  3544G12c O00865772  11.530   2.123   1.513  1.3426 -0.2126  1.8703
  3544G12c C01V65773  11.460   2.231   1.481 -0.1092 -0.5793  0.5042
  3544G12c C01Z65774  11.308   2.188   1.507  0.2927  0.4191 -1.3729
  3544G12c H00R65775  11.259   2.282   1.482  0.9501  0.4125 -2.7495
  3544G12c H00Q65776  11.276   2.090   1.472 -5.6145  0.7430  2.4395
  3544G12c O00965777  11.298   2.155   1.651  0.0287  0.5114 -0.5465
  3544G12c H00P65778  11.371   2.205   1.684  2.0502 -3.6984  1.8571
  3544G12c C01W65779  11.488   2.319   1.395 -0.6345  1.6462 -0.1703
  3544G12c H00O65780  11.423   2.405   1.381  1.5596  2.8262 -3.7337
  3544G12c C01X65781  11.594   2.300   1.288  0.3840 -2.0462  0.7974
  3544G12c H00N65782  11.622   2.195   1.286 -0.3005 -2.2161 -0.3829
  3544G12c H00M65783  11.532   2.320   1.200  6.5901 -3.5036 -4.2307
  3544G12c C01Y65784  11.726   2.377   1.267 -0.4521 -0.2520 -1.2395
  3544G12c C02D65785  11.851   2.317   1.254  0.3945 -1.4899  0.3239
  3544G12c H01965786  11.854   2.209   1.251  1.6877 -1.6717  4.9088
  3544G12c C02C65787  11.962   2.401   1.191  1.9636 -0.1395 -1.1317
  3544G12c H01A65788  12.060   2.358   1.178  0.4389 -2.9616 -3.9426
  3544G12c C02B65789  11.921   2.535   1.162 -0.6925 -0.3244  0.0338
  3544G12c O00E65790  12.023   2.617   1.112  1.6665 -0.5890 -0.1903
  3544G12c H01B65791  11.981   2.694   1.077 -3.1759 -3.5105 -1.2701
  3544G12c C02F65792  11.801   2.593   1.196  0.5869  0.6867  0.2195
  3544G12c O00F65793  11.790   2.732   1.171 -0.3018 -0.5877 -0.0705
  3544G12c C02G65794  11.678   2.741   1.101  1.3434  0.6556  0.5889
  3544G12c H01765795  11.587   2.691   1.133  3.3422 -3.1689  0.6151
  3544G12c H01665796  11.684   2.702   1.000 -0.6560  3.2238 -0.5679
  3544G12c H01565797  11.668   2.849   1.088  3.9728  1.0097  1.1744
  3544G12c C02E65798  11.700   2.511   1.260  0.9398  0.7540 -1.9939
  3544G12c H01865799  11.601   2.543   1.288  1.2803 -0.3858  0.7325
  3544G12c C01F65800  11.711   2.026   1.627  0.2136  0.3886 -0.0670
  3544G12c C01G65801  11.778   1.976   1.516 -0.0946 -0.3427 -1.4364
  3544G12c H00L65802  11.736   2.016   1.425  3.5263  4.8623 -1.0399
  3544G12c C01H65803  11.903   1.902   1.534 -0.4114  0.5898  1.8915
  3544G12c H00B65804  11.973   1.883   1.454 -2.3986  1.1644 -0.0511
  3544G12c C01I65805  11.932   1.849   1.656  0.6822  0.0592  2.0322
  3544G12c C01U65806  11.743   1.964   1.764  1.2462 -0.1457  0.3995
  3544G12c C00S65807  12.053   2.224   2.141 -0.2716 -1.1784 -0.9768
  3544G12c C00K65808  12.115   2.027   2.042  0.3711 -0.7628 -0.2930
  3544G12c C00N65809  11.787   2.077   1.839 -0.5494  2.3301  0.2912
  3544G12c C00065810  11.848   1.862   1.762  0.3037  0.0063 -1.1527
  3544G12c C01J65811  12.052   1.790   1.700 -0.7952  0.8560  0.6971
  3544G12c C01K65812  12.169   1.783   1.613  0.0746  0.0705 -0.6429
  3544G12c C01P65813  12.189   1.711   1.487 -0.7059  0.2944  0.3062
  3544G12c C01Q65814  12.099   1.626   1.418 -0.3624 -0.2467 -0.5322
  3544G12c H00G65815  12.095   1.609   1.311  0.2071 -3.8361 -0.0589
  3544G12c C01R65816  11.996   1.558   1.473  1.7659 -0.6169  0.4541
  3544G12c H00F65817  11.974   1.575   1.577 -6.7823  3.1362 -1.5770
  3544G12c C01S65818  11.929   1.440   1.389 -0.7742 -0.1832  1.0414
  3544G12c H00E65819  11.963   1.370   1.465  0.6443  4.6519  5.1639
  3544G12c H00D65820  11.827   1.404   1.374  1.1684 -5.4433 -0.7809
  3544G12c O00565821  11.961   1.440   1.244  0.7820 -0.6722 -1.3240
  3544G12c H00C65822  11.912   1.374   1.198 -2.1247 -1.0001  2.0231
  3544G12c C01O65823  12.297   1.751   1.401 -1.0719 -1.2054 -0.1749
  3544G12c H00H65824  12.291   1.716   1.299 -1.6593 -3.6624  0.6724
  3544G12c C01N65825  12.426   1.785   1.453  0.3306  1.8870 -1.2216
  3544G12c O00665826  12.532   1.743   1.395  0.4507  0.1997 -0.6492
  3544G12c C01T65827  12.570   1.792   1.265 -1.6129 -0.3881 -0.6150
  3544G12c H00K65828  12.538   1.894   1.244 -1.1423 -0.3123 -0.9548
  3544G12c H00J65829  12.556   1.725   1.180 -2.7485 -0.4088 -0.4208
  3544G12c H00I65830  12.672   1.830   1.263 -1.0027 -1.1027  6.1756
  3544G12c C01M65831  12.415   1.804   1.591  0.1801  0.0339  1.1925
  3544G12c C02065832  12.203   1.919   2.026  0.1772 -0.4648  0.9268
  3544G12c C02165833  12.332   1.907   2.083  0.7551  0.1785 -2.0486
  3544G12c C01L65834  12.296   1.805   1.668 -0.3562 -0.8421 -2.0581
  3544G12c O00765835  12.536   1.812   1.638  0.7080 -0.5338  0.3317
  3544G12c C02265836  12.441   1.891   1.991 -1.1491 -1.0174 -1.9130
  3544G12c C02365837  12.386   2.017   2.161  1.1170  0.3193  0.9624
  3544G12c C00G65838  12.481   2.270   2.255 -0.7992  0.4318 -1.3951
  3544G12c C00E65839  12.652   2.453   2.297  1.0330  1.6461 -0.4091
  3544G12c O00A65840  12.709   2.576   2.334 -1.1679 -0.0356  1.4115
  3544G12c C02465841  12.820   2.663   2.268  0.3274 -0.2336 -1.7521
  3544G12c H00V65842  12.839   2.767   2.294  2.1292 -0.7776 -0.8156
  3544G12c H00U65843  12.817   2.676   2.160 -3.0725  2.8871 -1.3550
  3544G12c H00T65844  12.917   2.619   2.294 -0.0294  1.8681  3.9257
  3554G12c C00D65845  12.892   1.305  10.460 -1.2106  0.9312  0.2565
  3554G12c O00B65846  12.773   1.329  10.387 -1.5817 -0.8227 -0.5707
  3554G12c C02565847  12.675   1.399  10.442  0.9575 -0.2719  0.3810
  3554G12c C02665848  12.723   1.510  10.522 -1.1916 -0.6733  1.4621
  3554G12c H00Y65849  12.778   1.523  10.616 -5.7746  5.5157  3.5639
  3554G12c H00X65850  12.633   1.569  10.533  0.7064  2.9214 -1.2596
  3554G12c O00C65851  12.798   1.613  10.469  2.0413 -0.8095 -0.6263
  3554G12c H00W65852  12.835   1.611  10.382  3.1433 -1.1556 -0.1599
  3554G12c C02765853  12.563   1.329  10.451  0.6135 -0.1192 -1.2041
  3554G12c O00D65854  12.567   1.204  10.390 -0.3128 -0.1325 -0.6615
  3554G12c H00Z65855  12.659   1.188  10.381 -1.1831 -4.8942 -2.7521
  3554G12c C02865856  12.443   1.388  10.501 -0.3765  0.2717  0.8466
  3554G12c C02965857  12.360   1.295  10.576 -1.3502 -0.1462 -1.0173
  3554G12c H01065858  12.386   1.191  10.591 -1.1765  0.0453  0.0681
  3554G12c C02T65859  12.264   1.341  10.654 -0.1485 -0.3710 -0.6011
  3554G12c H01O65860  12.232   1.258  10.716 -2.9389  1.1298  0.0833
  3554G12c C02S65861  12.223   1.477  10.638  0.4281  1.7231  0.2874
  3554G12c O00J65862  12.107   1.527  10.697  1.3300  0.1635  1.9711
  3554G12c H01P65863  12.095   1.621  10.689 -5.7335 -0.7478 -5.1547
  3554G12c C02R65864  12.292   1.557  10.543 -0.6142  0.0222  0.4962
  3554G12c O00I65865  12.245   1.681  10.520  0.1371 -0.6696  0.7277
  3554G12c C02Q65866  12.186   1.704  10.385 -1.8126 -0.1139 -1.9765
  3554G12c H01N65867  12.113   1.782  10.405 -2.7588  0.6261 -7.6867
  3554G12c H01R65868  12.132   1.627  10.332 -0.1831 -0.6855 -2.8428
  3554G12c H01Q65869  12.250   1.729  10.301  0.9341 -0.4828 -0.0786
  3554G12c C02A65870  12.410   1.518  10.473  2.2215  2.3151  1.8711
  3554G12c H01165871  12.445   1.570  10.386  2.8849 -2.6950 -1.0655
  3554G12c C00C65872  12.898   1.248  10.585 -0.4783 -0.2328 -0.0563
  3554G12c H01265873  12.809   1.271  10.642 -0.2294  2.6788 -0.7645
  3554G12c C00B65874  13.011   1.199  10.656  1.0864 -1.2067 -0.2280
  3554G12c C00A65875  13.032   1.152  10.787  1.1847  0.5861 -0.4739
  3554G12c C00965876  12.949   1.163  10.918 -0.8633  0.5523 -0.5376
  3554G12c C00865877  12.841   1.239  10.965 -0.2354 -0.6113  0.4926
  3554G12c H01365878  12.759   1.294  10.920 -2.0460 -0.9040  3.3124
  3554G12c C00765879  12.839   1.282  11.097 -1.2787 -0.1725 -0.6654
  3554G12c H01465880  12.756   1.346  11.123  0.0623 -0.1624  4.0386
  3554G12c C00665881  12.948   1.237  11.193 -0.0271 -0.3699  0.7623
  3554G12c C00565882  13.068   1.167  11.134 -0.2893 -1.6878 -0.1375
  3554G12c C00465883  13.167   1.140  11.222 -1.8109 -1.0270  0.6473
  3554G12c C00365884  13.283   1.084  11.142 -0.4096 -1.1209 -0.1438
  3554G12c C00265885  13.397   1.067  11.219 -0.7992 -0.0707  0.8821
  3554G12c C00165886  13.526   1.007  11.196 -0.6310 -1.0092  2.8959
  3554G12c C00M65887  13.611   1.024  11.073  0.1049  0.4506  0.0902
  3554G12c C00L65888  13.543   1.026  10.941 -0.8027 -0.7168 -0.4824
  3554G12c C00R65889  13.607   1.079  10.816 -0.0384  0.4459  1.2306
  3554G12c C00Q65890  13.732   1.124  10.778 -1.9404 -1.0221  1.6829
  3554G12c C00V65891  13.742   1.164  10.639  0.2105 -1.0596  0.1902
  3554G12c C00U65892  13.626   1.178  10.556  0.1578 -0.4394 -0.8892
  3554G12c C00T65893  13.504   1.145  10.610 -1.6203  0.0855 -1.0171
  3554G12c C01665894  13.386   1.188  10.571 -2.5488  2.4499  1.6032
  3554G12c C01565895  13.385   1.249  10.445 -2.5941  1.0094 -0.4739
  3554G12c C01065896  13.503   1.273  10.366  0.7621 -1.4086 -0.3606
  3554G12c C01165897  13.503   1.331  10.236 -0.8696  0.3985  0.5926
  3554G12c H00565898  13.593   1.371  10.193  0.2718  2.1823  4.3836
  3554G12c C01265899  13.386   1.348  10.171 -0.9370 -0.4760  0.6523
  3554G12c C01765900  13.374   1.399  10.037 -1.2024  0.3151 -0.0715
  3554G12c O00265901  13.396   1.525  10.014  0.5293 -0.9652 -0.2238
  3554G12c H00465902  13.380   1.574   9.934  1.0891 -0.6774 -0.1611
  3554G12c C01865903  13.357   1.329   9.917  0.9676 -1.4059 -0.2656
  3554G12c O00165904  13.353   1.201   9.939 -0.7571  0.3870  0.0462
  3554G12c H00365905  13.343   1.221  10.031 -3.3346 -1.2203  0.1431
  3554G12c C01965906  13.356   1.358   9.769 -2.1917  0.4084 -1.1281
  3554G12c H00265907  13.447   1.355   9.709 -2.0352 -4.3778 -0.8965
  3554G12c H00165908  13.312   1.267   9.728  3.1805 -3.7020  1.5930
  3554G12c O00065909  13.257   1.450   9.739 -0.9623 -0.1068  0.2161
  3554G12c C01A65910  13.289   1.582   9.697  0.1048 -1.6199 -2.0007
  3554G12c C02K65911  13.264   1.692   9.782  0.6358 -1.2166  0.9301
  3554G12c O00G65912  13.192   1.668   9.903  0.2207 -0.9024  0.1386
  3554G12c C02M65913  13.167   1.790   9.974  0.3975 -0.0485  1.8698
  3554G12c H01G65914  13.103   1.785  10.063 -6.2428  1.9832 -2.3783
  3554G12c H01F65915  13.099   1.847   9.910  0.6548 -4.1952 -2.3616
  3554G12c H01E65916  13.254   1.853   9.992  0.2473 -0.6205  4.8144
  3554G12c C02J65917  13.318   1.831   9.752 -0.6843  0.5558  0.2901
  3554G12c H01H65918  13.298   1.915   9.817  5.0284  1.8936  0.5744
  3554G12c C02I65919  13.347   1.853   9.623 -0.2240  1.1204 -0.8982
  3554G12c C02N65920  13.355   1.981   9.553  0.6368 -0.8939 -0.1152
  3554G12c H01M65921  13.328   1.984   9.449  0.3276 -4.5740 -0.2129
  3554G12c C02O65922  13.340   2.095   9.623 -0.4177  1.5103  0.0777
  3554G12c H01L65923  13.378   2.083   9.723 -5.6922 -5.6649  1.5993
  3554G12c C02P65924  13.318   2.243   9.555 -2.0343  2.4579  0.5622
  3554G12c H01K65925  13.405   2.286   9.603  1.0022 -0.7347 -1.7781
  3554G12c H01J65926  13.338   2.268   9.451  0.2671 -1.9190 -0.1611
  3554G12c O00H65927  13.204   2.292   9.599  1.4007 -0.3576  0.0596
  3554G12c H01I65928  13.179   2.363   9.543 -9.1509 -0.9676  2.9432
  3554G12c C02H65929  13.359   1.747   9.534  0.1989  0.1730  0.3010
  3554G12c H01C65930  13.366   1.784   9.433  1.6336 -0.2039  0.2572
  3554G12c C02L65931  13.336   1.614   9.574 -0.6292 -1.1907 -0.1989
  3554G12c H01D65932  13.365   1.532   9.510 -3.1546 -0.4709 -2.3365
  3554G12c C01365933  13.277   1.319  10.241 -0.1581  0.6116 -0.2715
  3554G12c H00065934  13.183   1.320  10.188 -0.9512  1.0067  1.1169
  3554G12c C01465935  13.264   1.267  10.376 -0.2638  0.1684 -0.5210
  3554G12c C00F65936  13.140   1.241  10.443  0.7085  0.2578  1.9172
  3554G12c C00H65937  13.258   1.157  10.629 -0.7178 -1.0118 -2.1525
  3554G12c C00I65938  13.265   1.072  10.742 -2.1336  0.1044  0.8637
  3554G12c C00J65939  13.388   1.045  10.791 -0.5990  0.9439 -0.9493
  3554G12c C00Z65940  13.623   1.254  10.440  0.4201 -0.2173  1.6190
  3554G12c C00Y65941  13.747   1.295  10.391  0.2347  0.1187 -0.6831
  3554G12c H00665942  13.751   1.355  10.301  2.6778  0.4360 -0.4144
  3554G12c C00X65943  13.873   1.274  10.463  0.0819 -0.5000 -0.1316
  3554G12c O00365944  14.000   1.327  10.431 -0.4106 -0.0822  0.3438
  3554G12c C01B65945  14.077   1.205  10.381  0.6852  1.9378  1.7807
  3554G12c H00965946  14.178   1.220  10.341  0.3112  4.7348  1.8204
  3554G12c H00865947  14.080   1.120  10.449 -1.2200 -1.3888 -2.0587
  3554G12c H00765948  14.025   1.140  10.310  4.3828 -0.4521  1.1053
  3554G12c C00W65949  13.858   1.216  10.590 -1.1175  1.3697  0.3101
  3554G12c O00465950  13.967   1.203  10.679  0.2764 -1.6613  0.3796
  3554G12c C01C65951  13.956   1.252  10.819 -0.5980  1.5741 -0.4524
  3554G12c H00A65952  13.947   1.358  10.840 -2.1550  1.0032  1.9306
  3554G12c C00P65953  13.827   1.181  10.865 -1.6040  0.2921 -0.0506
  3554G12c C00O65954  13.789   1.214  11.004 -0.0223 -0.1759 -0.0130
  3554G12c C01D65955  13.878   1.305  11.080 -0.0331 -0.0263 -2.1635
  3554G12c H00S65956  13.937   1.386  11.040  2.9955  2.7191  6.5858
  3554G12c C01E65957  13.877   1.307  11.223 -0.9681 -0.6431  0.2382
  3554G12c O00865958  13.974   1.398  11.271  0.4837  0.7641 -1.4321
  3554G12c C01V65959  14.104   1.346  11.302 -0.4503 -0.3323 -0.9937
  3554G12c C01Z65960  14.135   1.418  11.437 -0.3243 -0.5994  0.5191
  3554G12c H00R65961  14.171   1.517  11.408 -0.1292 -1.3373 -1.8609
  3554G12c H00Q65962  14.051   1.366  11.482 -0.3475  1.6550  3.2750
  3554G12c O00965963  14.275   1.385  11.452 -0.0800 -0.4269  0.8592
  3554G12c H00P65964  14.298   1.442  11.380 -3.4113 -0.1980 -0.0822
  3554G12c C01W65965  14.139   1.216  11.268  0.1897  1.0899 -0.1367
  3554G12c H00O65966  14.071   1.158  11.207 -0.2255  0.0918  1.2525
  3554G12c C01X65967  14.229   1.120  11.344 -0.1774 -0.2927  0.7206
  3554G12c H00N65968  14.246   1.151  11.447 -3.3710 -0.6440  1.4167
  3554G12c H00M65969  14.182   1.026  11.370 -2.2887  1.3167  2.9746
  3554G12c C01Y65970  14.345   1.085  11.266 -1.1751 -0.1260  0.1939
  3554G12c C02D65971  14.328   0.997  11.152  0.6369  0.4421 -2.0465
  3554G12c H01965972  14.226   0.968  11.131 -0.4291  3.4268 -1.2887
  3554G12c C02C65973  14.429   0.934  11.082 -0.3930 -1.3366 -1.2503
  3554G12c H01A65974  14.395   0.878  10.996 -2.7858 -0.7856 -0.7159
  3554G12c C02B65975  14.558   0.947  11.135 -0.7532 -1.1997 -1.8050
  3554G12c O00E65976  14.653   0.867  11.080 -1.1796 -0.9530  0.3701
  3554G12c H01B65977  14.637   0.783  11.039 -1.2413  1.3843 -4.8338
  3554G12c C02F65978  14.587   1.032  11.232 -0.6009  0.0861  0.6499
  3554G12c O00F65979  14.694   1.038  11.307 -1.1325 -0.6392  0.9142
  3554G12c C02G65980  14.802   1.047  11.215  0.4867 -0.9824  1.4668
  3554G12c H01765981  14.782   1.057  11.108 -0.3669  1.5004  1.8164
  3554G12c H01665982  14.868   1.124  11.254 -0.9950  1.4423 -0.6631
  3554G12c H01565983  14.864   0.966  11.255  0.5684 -1.5457  0.2175
  3554G12c C02E65984  14.489   1.131  11.277 -1.2168 -0.6821 -0.4741
  3554G12c H01865985  14.495   1.205  11.355 -1.4843 -1.5850  0.4159
  3554G12c C01F65986  13.783   1.248  11.300 -0.0882 -0.6029  0.7832
  3554G12c C01G65987  13.751   1.298  11.430  2.0628 -0.0217  0.3752
  3554G12c H00L65988  13.803   1.388  11.461 -3.7612  3.0310  1.9615
  3554G12c C01H65989  13.619   1.252  11.469  0.1957 -0.0815  0.6700
  3554G12c H00B65990  13.590   1.320  11.548 -1.5087 -0.0376  0.0269
  3554G12c C01I65991  13.541   1.162  11.384 -0.7504  0.3083  0.0076
  3554G12c C01U65992  13.720   1.129  11.241 -0.8109 -1.0074  2.4619
  3554G12c C00S65993  13.505   1.060  10.732  0.1197  1.4031  1.2849
  3554G12c C00K65994  13.399   1.022  10.927 -1.2185  0.2458 -1.2063
  3554G12c C00N65995  13.708   1.130  11.102  0.3595  0.2924  0.3537
  3554G12c C00065996  13.606   1.069  11.288  1.7299 -1.0283 -0.3740
  3554G12c C01J65997  13.401   1.125  11.350  0.2765 -0.3222  0.5051
  3554G12c C01K65998  13.293   1.189  11.420 -1.1040  1.0813  0.4482
  3554G12c C01P65999  13.278   1.194  11.556 -0.5052  0.4101  1.2919
  3554G12c C01Q66000  13.395   1.138  11.636  0.5943 -0.3786 -1.3352
  3554G12c H00G66001  13.479   1.194  11.673  1.1734 -0.1194 -2.9973
  3554G12c C01R66002  13.356   1.036  11.715  0.7575 -0.7184 -0.0417
  3554G12c H00F66003  13.404   1.013  11.809 -0.9868  1.3746  1.4360
  3554G12c C01S66004  13.248   0.924  11.706 -0.2072  0.9161 -0.4909
  3554G12c H00E66005  13.267   0.824  11.747  0.6111  1.2818  0.0337
  3554G12c H00D66006  13.144   0.943  11.679  0.0992 -4.8562 -7.0875
  3554G12c O00566007  13.295   0.886  11.584 -1.8369  0.4454  0.8110
  3554G12c H00C66008  13.311   0.958  11.525  4.9111 -1.4083 -0.0658
  3554G12c C01O66009  13.165   1.240  11.622  0.8559 -0.6969 -0.9627
  3554G12c H00H66010  13.147   1.262  11.727  3.6983  3.0779 -1.1440
  3554G12c C01N66011  13.050   1.272  11.548  0.2844 -1.2483  0.8893
  3554G12c O00666012  12.932   1.320  11.593  0.3859  0.0671  1.3374
  3554G12c C01T66013  12.859   1.202  11.654  0.7650 -0.0407  0.4286
  3554G12c H00K66014  12.875   1.130  11.573  4.1816 -0.9001  1.7547
  3554G12c H00J66015  12.758   1.216  11.690  1.5108  4.3473  1.1185
  3554G12c H00I66016  12.919   1.151  11.729 -1.8279 -2.1750  1.1051
  3554G12c C01M66017  13.046   1.230  11.415  1.1071 -1.0035  1.9393
  3554G12c C02066018  13.289   1.033  11.005 -0.5668  0.0343 -0.3447
  3554G12c C02166019  13.157   1.029  10.952 -1.5083 -0.2962 -2.0792
  3554G12c C01L66020  13.168   1.193  11.353  0.6965  0.4989  0.1110
  3554G12c O00766021  12.924   1.231  11.333  0.6538 -1.9004 -0.3010
  3554G12c C02266022  13.062   1.104  11.005 -0.3285 -0.3132 -0.2287
  3554G12c C02366023  13.150   1.088  10.820 -0.3866  0.0563  1.3737
  3554G12c C00G66024  13.134   1.196  10.572 -0.6781 -1.8876  0.7517
  3554G12c C00E66025  13.014   1.285  10.387 -0.0705  0.3478 -0.7176
  3554G12c O00A66026  12.996   1.302  10.257  2.4547 -0.6759  0.4844
  3554G12c C02466027  12.950   1.203  10.169 -0.7206  0.9380  1.5462
  3554G12c H00V66028  13.022   1.123  10.154 -5.1536 -3.8713  4.1059
  3554G12c H00U66029  12.934   1.255  10.075 -1.5530  6.9540  4.8107
  3554G12c H00T66030  12.851   1.157  10.179 -3.2451  3.9238 -6.3520
  3564G12c C00D66031   4.455   9.613   8.397  0.0747 -0.0149 -0.2091
  3564G12c O00B66032   4.510   9.521   8.479  0.2454 -0.5163  0.9033
  3564G12c C02566033   4.631   9.556   8.541  1.0052 -1.1811 -0.1981
  3564G12c C02666034   4.759   9.584   8.467 -0.5820  1.0884  0.5997
  3564G12c H00Y66035   4.858   9.584   8.512 -2.2578 -2.1964  4.5966
  3564G12c H00X66036   4.747   9.654   8.384  2.1493 -0.0851 -0.8481
  3564G12c O00C66037   4.772   9.462   8.387 -0.2136  0.3917  0.4522
  3564G12c H00W66038   4.726   9.475   8.305  3.0463  1.7667 -1.2727
  3564G12c C02766039   4.623   9.523   8.680 -0.0652  1.1379  0.3702
  3564G12c O00D66040   4.508   9.483   8.737 -0.1228  0.3968  0.3912
  3564G12c H00Z66041   4.488   9.415   8.674 -4.4476 -0.9598  2.9609
  3564G12c C02866042   4.743   9.529   8.746  0.7140 -0.4005  1.5090
  3564G12c C02966043   4.834   9.421   8.744 -2.2866  1.2404 -0.8522
  3564G12c H01066044   4.805   9.329   8.695 -5.7318 -0.1274  3.4611
  3564G12c C02T66045   4.956   9.414   8.829 -0.5425 -2.0705 -1.0307
  3564G12c H01O66046   5.036   9.341   8.823  0.9402 -0.3635 -3.2473
  3564G12c C02S66047   4.985   9.522   8.917  0.9813  0.0620 -2.2297
  3564G12c O00J66048   5.085   9.548   8.998 -1.5936  0.5643  0.1943
  3564G12c H01P66049   5.122   9.634   9.009  4.2340 -1.3742 -2.3557
  3564G12c C02R66050   4.888   9.623   8.903  0.9399 -1.0051  1.6385
  3564G12c O00I66051   4.929   9.727   8.971  1.1881  0.2611 -0.8984
  3564G12c C02Q66052   4.876   9.820   9.059  1.8715  1.7496 -2.2781
  3564G12c H01N66053   4.786   9.877   9.036  1.3284  3.9524  4.3241
  3564G12c H01R66054   4.924   9.918   9.055 -2.8067  4.4106  1.9034
  3564G12c H01Q66055   4.928   9.803   9.153 -4.4343  5.9240  2.3169
  3564G12c C02A66056   4.774   9.640   8.821  0.2291 -0.6894 -1.3016
  3564G12c H01166057   4.717   9.731   8.831  0.9917  0.3141 -5.2383
  3564G12c C00C66058   4.410   9.736   8.451 -1.6194  0.2296  0.1266
  3564G12c H01266059   4.429   9.720   8.556  1.9984  6.4750  0.6727
  3564G12c C00B66060   4.378   9.851   8.388  1.2232 -1.1137  0.1087
  3564G12c C00A66061   4.290   9.949   8.433  0.7551 -0.4921 -0.7486
  3564G12c C00966062   4.213   9.972   8.552  0.9558  0.2870  2.5829
  3564G12c C00866063   4.187   9.871   8.631  0.9986 -0.0193 -0.7837
  3564G12c H01366064   4.242   9.788   8.673  1.4766  0.0624 -1.2430
  3564G12c C00766065   4.065   9.867   8.698 -0.2897  1.2820  2.3473
  3564G12c H01466066   4.015   9.781   8.742 -2.7055 -0.5388 -3.4106
  3564G12c C00666067   3.962   9.956   8.660  1.4620 -0.3428 -1.2832
  3564G12c C00566068   3.990  10.058   8.573  1.3018 -0.7246 -1.3906
  3564G12c C00466069   3.891  10.123   8.502 -1.9500  0.4970  0.0780
  3564G12c C00366070   3.925  10.182   8.387  1.0471 -0.6805  0.2589
  3564G12c C00266071   3.812  10.250   8.323 -1.9516  1.1000 -0.1862
  3564G12c C00166072   3.803  10.314   8.194  2.9471  1.0339 -0.8941
  3564G12c C00M66073   3.850  10.259   8.076 -0.8222 -0.1566  1.1009
  3564G12c C00L66074   3.983  10.208   8.058  0.2969 -0.1726 -0.8229
  3564G12c C00R66075   4.036  10.121   7.959  1.5584  1.5582  0.1066
  3564G12c C00Q66076   3.978  10.064   7.842 -0.4517  0.1757 -0.0610
  3564G12c C00V66077   4.070   9.996   7.760 -1.5456 -0.1716 -0.0150
  3564G12c C00U66078   4.185   9.951   7.812  1.2875 -1.0686  0.7455
  3564G12c C00T66079   4.205   9.952   7.946  0.3245 -0.1737 -0.9496
  3564G12c C01666080   4.287   9.877   8.025 -1.9099 -0.2848  0.8227
  3564G12c C01566081   4.377   9.798   7.961  1.9067  1.1681  0.5498
  3564G12c C01066082   4.362   9.773   7.820  0.3866  0.5794  1.1202
  3564G12c C01166083   4.466   9.674   7.768  0.1637  1.8440  1.6344
  3564G12c H00566084   4.444   9.612   7.683 -9.7798 -0.6234  5.3354
  3564G12c C01266085   4.582   9.642   7.835  0.7787  1.7989  0.3984
  3564G12c C01766086   4.694   9.578   7.770  1.4431 -0.2236 -0.3407
  3564G12c O00266087   4.676   9.523   7.648  0.8000  0.5340  2.2698
  3564G12c H00466088   4.761   9.513   7.607  0.3061  0.7890  1.1470
  3564G12c C01866089   4.830   9.567   7.809 -0.5139  0.6447 -0.1331
  3564G12c O00166090   4.856   9.599   7.936 -0.4504 -0.9792 -0.7660
  3564G12c H00366091   4.778   9.579   7.987 -1.5352  5.8859  0.8775
  3564G12c C01966092   4.939   9.493   7.726  1.4511 -1.5554  1.2154
  3564G12c H00266093   4.910   9.489   7.621  4.1174 -2.7968  0.4785
  3564G12c H00166094   5.012   9.574   7.733 -0.6622  0.2311  2.9834
  3564G12c O00066095   4.976   9.387   7.802 -0.2666  0.1576  0.8551
  3564G12c C01A66096   5.081   9.312   7.768  0.3518  0.5478 -1.2310
  3564G12c C02K66097   5.135   9.220   7.862  0.4115 -0.5212 -1.0611
  3564G12c O00G66098   5.051   9.219   7.972 -0.1664  1.0924  0.4554
  3564G12c C02M66099   4.997   9.329   8.057  1.0413  0.9631 -0.3284
  3564G12c H01G66100   4.891   9.316   8.077  1.0404  4.3386  2.3453
  3564G12c H01F66101   5.042   9.306   8.154  0.7203  0.8560 -0.2028
  3564G12c H01E66102   5.004   9.433   8.025  0.4288  0.4780 -2.0662
  3564G12c C02J66103   5.277   9.192   7.841 -0.3872  0.2200 -0.3316
  3564G12c H01H66104   5.331   9.146   7.922 -1.4715  0.2781  0.4382
  3564G12c C02I66105   5.326   9.207   7.702  1.2052 -1.3011  2.6317
  3564G12c C02N66106   5.443   9.155   7.673  1.1125 -1.4533  1.1323
  3564G12c H01M66107   5.449   9.052   7.641 -0.8618 -2.5499  4.0110
  3564G12c C02O66108   5.534   9.257   7.683  1.3582  1.7121  1.2636
  3564G12c H01L66109   5.480   9.336   7.733  5.2357  3.0309  3.5364
  3564G12c C02P66110   5.679   9.262   7.631 -0.4960 -0.3566  0.1586
  3564G12c H01K66111   5.700   9.327   7.716 -5.1098  3.0260 -1.0521
  3564G12c H01J66112   5.694   9.155   7.616  0.4126 -0.3015  0.6148
  3564G12c O00H66113   5.689   9.330   7.507  0.6500 -0.7766  0.8908
  3564G12c H01I66114   5.772   9.351   7.466 -0.5787 -0.4364 -1.5159
  3564G12c C02H66115   5.249   9.249   7.598  0.5669 -0.1874 -0.8913
  3564G12c H01C66116   5.284   9.265   7.497 -0.0286 -2.3706 -1.4718
  3564G12c C02L66117   5.115   9.312   7.636 -0.0665  1.5593 -1.2488
  3564G12c H01D66118   5.064   9.366   7.559 -0.8520 -2.2719 -3.5179
  3564G12c C01366119   4.576   9.658   7.973  2.0948  0.8020 -0.6926
  3564G12c H00066120   4.641   9.592   8.029  0.6099  0.5701  0.8100
  3564G12c C01466121   4.474   9.735   8.042 -0.4513 -0.7228 -0.7986
  3564G12c C00F66122   4.453   9.726   8.178  0.1439  0.3587 -0.3686
  3564G12c C00H66123   4.320   9.914   8.163 -0.2020 -0.9878  0.8525
  3564G12c C00I66124   4.263  10.043   8.212  0.4218 -0.7106 -0.3581
  3564G12c C00J66125   4.178  10.122   8.129 -0.9983 -0.9123  1.0943
  3564G12c C00Z66126   4.263   9.851   7.756 -0.2347 -0.0923  1.3905
  3564G12c C00Y66127   4.237   9.820   7.627  0.3498 -0.1142  2.3861
  3564G12c H00666128   4.307   9.775   7.559  2.1834  8.8699 -2.5238
  3564G12c C00X66129   4.116   9.882   7.556 -0.3547 -1.4258 -0.8080
  3564G12c O00366130   4.080   9.873   7.424 -1.5556 -0.7144  0.8876
  3564G12c C01B66131   4.122   9.758   7.350  2.2172  0.7804  1.6546
  3564G12c H00966132   4.042   9.684   7.353 -0.1730  3.1020 -0.8168
  3564G12c H00866133   4.223   9.730   7.378  3.4246 -3.3750 -5.5294
  3564G12c H00766134   4.116   9.766   7.241  4.4753  6.8343  1.7740
  3564G12c C00W66135   4.022   9.942   7.644  1.2078  1.1928  0.3562
  3564G12c O00466136   3.904   9.992   7.599  0.0760  0.7837 -0.1809
  3564G12c C01C66137   3.800  10.016   7.675 -0.0744  0.1889  1.0154
  3564G12c H00A66138   3.702  10.009   7.629  0.9298 -2.2250 -0.8442
  3564G12c C00P66139   3.834  10.072   7.804  1.3078  0.9816 -0.1805
  3564G12c C00O66140   3.735  10.163   7.868 -0.9063  1.9591  0.0165
  3564G12c C01D66141   3.600  10.151   7.828 -0.0423 -0.3757  0.6301
  3564G12c H00S66142   3.578  10.125   7.725  1.7163  3.2028 -0.7116
  3564G12c C01E66143   3.475  10.166   7.902  1.6479 -1.0067  1.4183
  3564G12c O00866144   3.340  10.151   7.836 -1.3273  0.9631  0.1596
  3564G12c C01V66145   3.330  10.137   7.695  1.3811  0.5333  1.0857
  3564G12c C01Z66146   3.270  10.251   7.626  1.3590 -1.0128  0.7293
  3564G12c H00R66147   3.310  10.351   7.610  0.5659  0.0653  4.8158
  3564G12c H00Q66148   3.248  10.203   7.531 -1.0978  0.0409  0.7360
  3564G12c O00966149   3.151  10.283   7.696 -0.3497 -2.3896  0.3027
  3564G12c H00P66150   3.194  10.265   7.778 -3.8175 -2.2930  2.2390
  3564G12c C01W66151   3.364  10.014   7.638  0.2623 -0.6270 -1.7403
  3564G12c H00O66152   3.366   9.943   7.720 -5.1571  1.3653  0.2978
  3564G12c C01X66153   3.351   9.969   7.481  1.8874  0.1819  1.2904
  3564G12c H00N66154   3.358  10.061   7.422-12.0416  5.0242  5.3582
  3564G12c H00M66155   3.424   9.888   7.478 -2.7932 -4.3605 -5.4690
  3564G12c C01Y66156   3.216   9.908   7.453  0.3416  1.0552 -1.6968
  3564G12c C02D66157   3.116   9.958   7.369  0.3829 -0.9779 -2.1916
  3564G12c H01966158   3.140  10.057   7.334 -0.1227 -0.3006 -0.6688
  3564G12c C02C66159   2.994   9.889   7.346  0.3256 -1.7055 -0.5337
  3564G12c H01A66160   2.944   9.935   7.261 -0.4818  0.0242  0.8424
  3564G12c C02B66161   2.961   9.774   7.418  0.0009 -2.1608  0.0825
  3564G12c O00E66162   2.835   9.728   7.397 -0.2727 -1.0187  0.5601
  3564G12c H01B66163   2.810   9.648   7.441 -4.1024 -1.0249 -1.3936
  3564G12c C02F66164   3.059   9.715   7.502  0.4420  0.6411 -1.2751
  3564G12c O00F66165   3.050   9.585   7.537 -0.9004 -0.1678 -0.2565
  3564G12c C02G66166   2.955   9.558   7.634 -0.4819  0.4377 -0.8533
  3564G12c H01766167   2.889   9.489   7.581 -3.2136  3.2980 -1.3000
  3564G12c H01666168   2.913   9.653   7.666  2.4921  0.7403  2.5119
  3564G12c H01566169   3.015   9.547   7.725 -0.2671  1.1058 -0.9168
  3564G12c C02E66170   3.188   9.777   7.498 -0.0521 -0.6371 -0.0316
  3564G12c H01866171   3.273   9.719   7.530 -2.4717 -6.5786 -3.4623
  3564G12c C01F66172   3.504  10.230   8.027 -1.3461 -0.4525 -1.0833
  3564G12c C01G66173   3.417  10.203   8.126  0.2571  0.7353 -1.6015
  3564G12c H00L66174   3.313  10.182   8.104  0.1047  2.6097 -2.8121
  3564G12c C01H66175   3.470  10.210   8.266  0.9128 -0.5821  0.3265
  3564G12c H00B66176   3.416  10.157   8.343 -1.0526  0.9150  0.0331
  3564G12c C01I66177   3.575  10.294   8.286 -0.9754 -0.4724  0.3270
  3564G12c C01U66178   3.627  10.301   8.054  1.3395  2.4238  0.7572
  3564G12c C00S66179   4.169  10.084   8.002  1.3573 -0.3397  0.0119
  3564G12c C00K66180   4.067  10.193   8.180 -1.2410 -1.0898  2.5036
  3564G12c C00N66181   3.737  10.238   7.993 -1.6505  0.0009 -0.4572
  3564G12c C00066182   3.662  10.345   8.180 -0.3589  1.7226 -0.2585
  3564G12c C01J66183   3.685  10.245   8.385 -0.7218  1.1769  0.2081
  3564G12c C01K66184   3.650  10.184   8.506 -0.0753 -0.2760  0.9799
  3564G12c C01P66185   3.533  10.194   8.581 -0.1092  1.1738  0.5008
  3564G12c C01Q66186   3.462  10.322   8.563 -0.3241  0.2632 -0.4740
  3564G12c H00G66187   3.359  10.346   8.542  0.3255  2.6667 -1.0093
  3564G12c C01R66188   3.523  10.437   8.613  2.6161  0.3914 -0.4951
  3564G12c H00F66189   3.460  10.526   8.618  4.4575  1.6408  1.1992
  3564G12c C01S66190   3.669  10.481   8.636  0.6274  0.9347  2.7638
  3564G12c H00E66191   3.728  10.467   8.545  0.2283  2.6326  2.2205
  3564G12c H00D66192   3.687  10.400   8.706 -0.2094 -1.1334  0.6251
  3564G12c O00566193   3.671  10.622   8.653 -0.3001 -0.3954  0.9145
  3564G12c H00C66194   3.589  10.657   8.685  0.8306  1.5589  1.7626
  3564G12c C01O66195   3.511  10.104   8.683  0.4468 -0.9344 -1.0960
  3564G12c H00H66196   3.418  10.131   8.732  2.6323 -1.4418  3.6826
  3564G12c C01N66197   3.606  10.016   8.721 -0.1519  0.1340  0.8315
  3564G12c O00666198   3.596   9.957   8.844 -0.6608 -0.2360  0.4174
  3564G12c C01T66199   3.678  10.026   8.936 -0.2591  0.9707  0.1234
  3564G12c H00K66200   3.779  10.034   8.894  1.7351 -3.2046  3.7836
  3564G12c H00J66201   3.698   9.946   9.006  5.0172 -1.3690 -3.6979
  3564G12c H00I66202   3.650  10.127   8.966 -1.1540  1.9649 -3.7742
  3564G12c C01M66203   3.732  10.008   8.652 -1.0049 -1.4687 -0.9993
  3564G12c C02066204   4.054  10.185   8.323  0.2222  0.0917  0.9036
  3564G12c C02166205   4.161  10.146   8.418  1.4122 -1.4113  0.3186
  3564G12c C01L66206   3.762  10.102   8.548 -1.0160  0.9080  0.5788
  3564G12c O00766207   3.825   9.921   8.696  0.1384  0.2531  2.0172
  3564G12c C02266208   4.121  10.072   8.526  0.1184  0.8051  1.1440
  3564G12c C02366209   4.255  10.051   8.354  0.4877  0.8743  0.4924
  3564G12c C00G66210   4.394   9.828   8.244 -0.3374 -0.2663  0.6959
  3564G12c C00E66211   4.489   9.616   8.266  0.8850  0.7735  2.1531
  3564G12c O00A66212   4.545   9.505   8.211  0.9915  0.0583  0.2710
  3564G12c C02466213   4.459   9.384   8.176  1.0336 -0.5486  2.2002
  3564G12c H00V66214   4.359   9.390   8.133  0.0620 -1.8378  4.1708
  3564G12c H00U66215   4.425   9.340   8.270 -3.3046 -1.0231  0.5676
  3564G12c H00T66216   4.507   9.307   8.117 -5.0239 -0.5913 -3.2483
  3574G12c C00D66217   2.668  10.459  11.820  1.0340  0.4268  1.2963
  3574G12c O00B66218   2.526  10.442  11.784 -1.5458 -0.9633  0.3596
  3574G12c C02566219   2.419  10.524  11.818  0.4566 -0.1781 -0.8132
  3574G12c C02666220   2.308  10.430  11.828 -0.2976 -1.4426  1.0231
  3574G12c H00Y66221   2.347  10.334  11.862  0.0822 -2.8055 -2.9420
  3574G12c H00X66222   2.275  10.403  11.727 -0.0325 -0.3865  0.6535
  3574G12c O00C66223   2.232  10.410  11.943  0.0570 -0.2885  0.7054
  3574G12c H00W66224   2.174  10.337  11.958 -1.3139  0.6519  0.1021
  3574G12c C02766225   2.399  10.656  11.795  1.1119 -1.4764  0.0508
  3574G12c O00D66226   2.497  10.723  11.744  0.1582 -0.7488  0.0640
  3574G12c H00Z66227   2.541  10.641  11.723  1.5613  0.9212 -4.0682
  3574G12c C02866228   2.262  10.725  11.828 -0.2712 -0.2420  0.3481
  3574G12c C02966229   2.192  10.734  11.945  0.6476 -0.3092  0.3820
  3574G12c H01066230   2.216  10.657  12.017  1.8508  1.5583  2.0031
  3574G12c C02T66231   2.099  10.824  11.985  0.1290 -0.8950  0.0996
  3574G12c H01O66232   2.040  10.803  12.073 -4.2876 -1.4910 -2.8429
  3574G12c C02S66233   2.038  10.898  11.886  0.2607 -1.7276  0.2905
  3574G12c O00J66234   1.948  10.983  11.935 -0.8566 -1.0505  0.8759
  3574G12c H01P66235   1.946  11.067  11.890  1.4134 -2.1114 -1.2942
  3574G12c C02R66236   2.085  10.881  11.750 -0.7193 -0.8259  0.5792
  3574G12c O00I66237   2.006  10.939  11.656  0.5365 -0.0094  0.1414
  3574G12c C02Q66238   2.008  10.902  11.523  1.1045  0.6673  0.2927
  3574G12c H01N66239   2.097  10.876  11.467 -1.5887 -3.3695 -2.4049
  3574G12c H01R66240   1.952  10.809  11.540  0.9333 -0.3997 -5.1765
  3574G12c H01Q66241   1.957  10.958  11.445 -0.2995 -3.6723 -2.0814
  3574G12c C02A66242   2.191  10.791  11.724 -1.7550 -1.6253 -0.8489
  3574G12c H01166243   2.237  10.781  11.627  3.6131  2.3346  1.0556
  3574G12c C00C66244   2.720  10.537  11.925  0.6880  0.7486 -0.4112
  3574G12c H01266245   2.655  10.614  11.964 -3.6890 -1.1266 -3.6068
  3574G12c C00B66246   2.852  10.516  11.967  1.0491  1.0237 -1.1344
  3574G12c C00A66247   2.916  10.576  12.084  1.0803 -0.7542 -0.9264
  3574G12c C00966248   2.862  10.688  12.164 -0.0456 -1.4795 -0.1586
  3574G12c C00866249   2.741  10.773  12.165  0.7234 -0.5090 -0.1177
  3574G12c H01366250   2.668  10.804  12.092 -2.4417 -4.3876  1.2075
  3574G12c C00766251   2.736  10.858  12.281 -0.4997 -0.2915 -1.8943
  3574G12c H01466252   2.648  10.905  12.321  2.0678  1.4203  2.0977
  3574G12c C00666253   2.864  10.902  12.345 -0.7485  0.0646  2.3489
  3574G12c C00566254   2.975  10.836  12.297 -0.1476 -1.6167 -0.4252
  3574G12c C00466255   3.098  10.897  12.310  1.8265  1.2830  0.6603
  3574G12c C00366256   3.207  10.821  12.265 -0.0209 -0.1364  0.3117
  3574G12c C00266257   3.332  10.878  12.295 -1.8698 -0.4620 -0.6762
  3574G12c C00166258   3.452  10.849  12.264  2.1518  0.4734 -0.7376
  3574G12c C00M66259   3.497  10.793  12.136 -0.6008 -0.8119 -1.1583
  3574G12c C00L66260   3.412  10.713  12.067  0.7971  0.0618  0.2837
  3574G12c C00R66261   3.436  10.646  11.943  0.4142 -0.6797  0.4014
  3574G12c C00Q66262   3.538  10.667  11.854  0.4645 -0.7759 -1.4801
  3574G12c C00V66263   3.499  10.590  11.744  0.6885 -0.2041  0.4702
  3574G12c C00U66264   3.391  10.520  11.718  0.9389  0.1713 -1.3581
  3574G12c C00T66265   3.309  10.496  11.808  0.6980  0.8260 -0.6578
  3574G12c C01666266   3.173  10.451  11.805 -0.6432  0.9339 -0.4309
  3574G12c C01566267   3.141  10.385  11.690  1.2650 -0.6250  0.6968
  3574G12c C01066268   3.230  10.381  11.579 -0.2694  1.4530  1.7108
  3574G12c C01166269   3.191  10.315  11.457 -0.8078 -0.1916 -1.1935
  3574G12c H00566270   3.249  10.299  11.366  1.1673 -5.0878  0.7013
  3574G12c C01266271   3.069  10.243  11.458  2.7594 -1.6934 -0.0889
  3574G12c C01766272   3.025  10.162  11.357 -0.6448 -0.0201  0.9835
  3574G12c O00266273   2.911  10.183  11.281  1.3857  1.2139  0.5508
  3574G12c H00466274   2.893  10.096  11.248  4.1158  1.3595 -1.4775
  3574G12c C01866275   3.106  10.064  11.300  0.4568  1.3283 -0.4673
  3574G12c O00166276   3.239  10.040  11.330  0.8094  0.4828 -1.1649
  3574G12c H00366277   3.234   9.953  11.295  3.0873  0.9627 -2.8427
  3574G12c C01966278   3.049   9.989  11.182  0.6237  0.3404  1.0061
  3574G12c H00266279   2.996  10.054  11.111 -3.2402  0.3026  3.7017
  3574G12c H00166280   3.124   9.945  11.116 -4.4950 -4.0647 -2.3930
  3574G12c O00066281   2.952   9.889  11.217  1.2416 -0.1519  0.4251
  3574G12c C01A66282   2.964   9.759  11.191 -1.8875  1.1402  2.2760
  3574G12c C02K66283   2.996   9.676  11.308  0.4159  0.6921  0.2000
  3574G12c O00G66284   3.032   9.738  11.422 -0.2974 -0.8336  0.3760
  3574G12c C02M66285   3.001   9.698  11.551 -0.9829 -0.5418  0.1824
  3574G12c H01G66286   3.098   9.719  11.596  2.2081 -5.3186 -3.9223
  3574G12c H01F66287   2.951   9.601  11.547 -3.9443  0.9209  0.6283
  3574G12c H01E66288   2.900   9.720  11.583  0.2608  5.2791  0.5219
  3574G12c C02J66289   3.001   9.536  11.293 -0.9577  0.0716  1.7823
  3574G12c H01H66290   3.023   9.487  11.387 -5.1541 -6.3571 -0.2196
  3574G12c C02I66291   2.969   9.474  11.172  0.2069  0.0746  0.5217
  3574G12c C02N66292   2.945   9.322  11.163  0.6756  0.2770  0.8869
  3574G12c H01M66293   2.863   9.282  11.106 -0.9608 -0.0214  3.3865
  3574G12c C02O66294   2.977   9.245  11.265  1.3481  1.9218  0.0258
  3574G12c H01L66295   3.026   9.294  11.348 -2.8315  7.1116 -0.2990
  3574G12c C02P66296   2.922   9.108  11.312  0.7865 -0.0316  0.3339
  3574G12c H01K66297   2.929   9.037  11.230 -3.4788 -3.1167  2.5049
  3574G12c H01J66298   2.997   9.076  11.385 -4.1273  5.9139  8.8917
  3574G12c O00H66299   2.815   9.097  11.406  0.2198  0.4625  2.0044
  3574G12c H01I66300   2.768   9.021  11.376  0.2325  0.8788  0.8876
  3574G12c C02H66301   2.923   9.559  11.064 -0.1653  0.8181 -0.7135
  3574G12c H01C66302   2.894   9.513  10.971  2.0094 -1.4987 -0.3174
  3574G12c C02L66303   2.927   9.695  11.072 -0.5037 -0.2451 -0.1982
  3574G12c H01D66304   2.873   9.749  10.996  4.3867  6.1390  0.5241
  3574G12c C01366305   2.974  10.278  11.556  0.0023 -0.2722  0.5496
  3574G12c H00066306   2.879  10.227  11.549 -0.6189  1.0457 -0.9879
  3574G12c C01466307   3.005  10.374  11.661 -0.9093 -2.2080  0.9401
  3574G12c C00F66308   2.916  10.438  11.743 -1.3440  0.5479 -0.9565
  3574G12c C00H66309   3.087  10.478  11.912  1.3687  1.8065  1.2700
  3574G12c C00I66310   3.140  10.504  12.041 -0.2628 -0.2214 -0.6839
  3574G12c C00J66311   3.269  10.542  12.051  0.9688  0.5751  1.7813
  3574G12c C00Z66312   3.358  10.454  11.597  0.7976 -1.1451  0.4921
  3574G12c C00Y66313   3.440  10.485  11.482 -0.1445  1.1299 -0.9546
  3574G12c H00666314   3.445  10.428  11.390 11.6776  2.8115 -2.1947
  3574G12c C00X66315   3.561  10.553  11.496 -1.1433 -1.8004  1.6860
  3574G12c O00366316   3.669  10.561  11.407 -0.5397 -0.8461  0.0766
  3574G12c C01B66317   3.640  10.524  11.280 -1.2108 -1.3814 -0.9915
  3574G12c H00966318   3.696  10.463  11.208  1.7488 -0.2449  0.2442
  3574G12c H00866319   3.672  10.616  11.230 -0.1333  3.0587  7.0771
  3574G12c H00766320   3.538  10.531  11.242 -1.9809  1.8923  1.4525
  3574G12c C00W66321   3.579  10.600  11.628  0.3597 -0.0316 -0.2238
  3574G12c O00466322   3.699  10.680  11.640 -0.6785 -0.0310  0.2085
  3574G12c C01C66323   3.699  10.778  11.724  1.6149 -0.8695  1.4596
  3574G12c H00A66324   3.702  10.878  11.683  2.1047 -1.6152 -0.3298
  3574G12c C00P66325   3.652  10.768  11.858 -0.8388  0.7842 -0.6829
  3574G12c C00O66326   3.670  10.869  11.969 -0.2474  0.7295  1.9267
  3574G12c C01D66327   3.738  10.994  11.935 -1.0977  0.4561  1.1913
  3574G12c H00S66328   3.814  10.998  11.858 -4.6940 -3.6022 -2.7953
  3574G12c C01E66329   3.738  11.097  12.023 -0.2021  0.1515 -1.6001
  3574G12c O00866330   3.809  11.209  11.979 -0.4597 -0.0300 -0.5372
  3574G12c C01V66331   3.935  11.210  11.940  0.7603  0.1853  0.1903
  3574G12c C01Z66332   4.033  11.220  12.063  0.4401 -0.5081 -0.8230
  3574G12c H00R66333   3.996  11.161  12.147  3.1846  3.8035  3.7442
  3574G12c H00Q66334   4.133  11.176  12.062  0.0265 -1.6012  1.9792
  3574G12c O00966335   4.068  11.346  12.083 -0.8916  0.4109 -0.3302
  3574G12c H00P66336   4.020  11.393  12.016 -1.9881  6.0782  4.0293
  3574G12c C01W66337   3.948  11.217  11.805  1.3162 -0.0929 -1.8523
  3574G12c H00O66338   3.868  11.218  11.732 -0.4936 -5.1929 -0.1152
  3574G12c C01X66339   4.085  11.237  11.756 -0.4451  0.7634  0.1139
  3574G12c H00N66340   4.035  11.318  11.703  4.0998  0.6747 -4.7030
  3574G12c H00M66341   4.160  11.268  11.828 -1.4669  2.2473  0.5702
  3574G12c C01Y66342   4.112  11.118  11.677  0.2193 -0.2594  0.5561
  3574G12c C02D66343   4.182  11.015  11.745  0.2564  1.1438  0.6592
  3574G12c H01966344   4.205  11.012  11.850  1.0092  0.8739  0.4983
  3574G12c C02C66345   4.258  10.928  11.668 -1.0466 -0.6232 -0.7249
  3574G12c H01A66346   4.305  10.844  11.717  4.5554  0.6401 -3.5017
  3574G12c C02B66347   4.263  10.924  11.535  1.2982 -0.1152  0.7733
  3574G12c O00E66348   4.342  10.833  11.469 -0.7347  0.1036 -0.0764
  3574G12c H01B66349   4.380  10.848  11.384  0.6028 -2.6751 -0.0279
  3574G12c C02F66350   4.162  10.984  11.464  1.3524  0.8317 -0.6134
  3574G12c O00F66351   4.175  10.945  11.334  0.8003  0.5902 -0.0766
  3574G12c C02G66352   4.052  10.963  11.269  0.5738 -0.4230 -0.2286
  3574G12c H01766353   3.953  10.940  11.310  0.2641 -0.6790 -1.1214
  3574G12c H01666354   4.087  11.061  11.239 -1.3674  0.4616  0.3024
  3574G12c H01566355   4.033  10.900  11.182  0.1199  0.1110 -0.5165
  3574G12c C02E66356   4.100  11.095  11.537  0.2481 -2.7661  0.0155
  3574G12c H01866357   4.017  11.133  11.480  2.5960  2.2587 -0.4255
  3574G12c C01F66358   3.653  11.100  12.141 -0.5966  1.1088 -2.1676
  3574G12c C01G66359   3.612  11.216  12.228 -0.1407 -0.2422 -1.3177
  3574G12c H00L66360   3.644  11.318  12.213  2.4482 -1.5915 -5.9415
  3574G12c C01H66361   3.509  11.214  12.317  0.1526 -0.5498 -1.2536
  3574G12c H00B66362   3.468  11.308  12.350  0.6763 -0.8420  0.2468
  3574G12c C01I66363   3.456  11.080  12.346  1.1582  0.4616 -0.8413
  3574G12c C01U66364   3.619  10.984  12.197 -0.3113  0.1663  0.7916
  3574G12c C00S66365   3.335  10.566  11.923  0.7873  0.8827 -0.5177
  3574G12c C00K66366   3.278  10.663  12.119 -1.2443 -1.2905  1.1837
  3574G12c C00N66367   3.608  10.871  12.090 -0.3940 -1.9325 -1.0367
  3574G12c C00066368   3.531  10.954  12.305  1.4587  0.4622 -1.4210
  3574G12c C01J66369   3.324  11.017  12.336  0.1611 -0.0424  0.8517
  3574G12c C01K66370   3.234  11.066  12.437  2.2595 -0.2200 -1.4454
  3574G12c C01P66371   3.240  11.169  12.543  0.8484  1.6628 -0.0572
  3574G12c C01Q66372   3.344  11.206  12.617 -1.7460  0.5529  0.0354
  3574G12c H00G66373   3.382  11.141  12.695 -5.4439  0.0363  1.5032
  3574G12c C01R66374   3.382  11.329  12.595 -1.2386  3.8707 -0.2971
  3574G12c H00F66375   3.339  11.408  12.535 -3.1639 -0.3900 -4.9079
  3574G12c C01S66376   3.529  11.367  12.642  0.7116 -0.7198  0.0539
  3574G12c H00E66377   3.546  11.465  12.598  0.6862  2.1566  5.9301
  3574G12c H00D66378   3.599  11.319  12.574  0.7920 -2.2707  1.1909
  3574G12c O00566379   3.531  11.384  12.781 -1.2630 -0.4024  0.0600
  3574G12c H00C66380   3.520  11.311  12.840  6.8504 -0.9563  1.4987
  3574G12c C01O66381   3.114  11.228  12.580  0.2731 -0.8805  2.1550
  3574G12c H00H66382   3.121  11.318  12.639 -0.0649 -0.4159  1.4882
  3574G12c C01N66383   2.989  11.178  12.529 -1.6536  0.3888  1.0737
  3574G12c O00666384   2.858  11.215  12.543 -1.0325  0.3757  0.6496
  3574G12c C01T66385   2.843  11.324  12.628  0.4626  0.7826 -0.5157
  3574G12c H00K66386   2.748  11.375  12.620  0.1259  0.6802  2.3338
  3574G12c H00J66387   2.894  11.413  12.592 -1.2186 -0.8593 -7.6670
  3574G12c H00I66388   2.853  11.296  12.733 -4.6472  1.0270  0.1398
  3574G12c C01M66389   2.978  11.062  12.446 -0.6271 -1.2143 -1.6845
  3574G12c C02066390   3.196  10.689  12.223  0.9273  0.0618  0.0067
  3574G12c C02166391   3.071  10.627  12.237  0.2917  0.4059  0.3687
  3574G12c C01L66392   3.109  11.003  12.402 -0.3125 -0.3065  0.4747
  3574G12c O00766393   2.866  11.019  12.403 -0.2642 -0.5180  0.4325
  3574G12c C02266394   2.968  10.705  12.256 -0.1360 -1.4141  0.7507
  3574G12c C02366395   3.040  10.535  12.132 -0.0149 -0.3906  0.7056
  3574G12c C00G66396   2.951  10.464  11.881  0.6979 -0.7994  1.2661
  3574G12c C00E66397   2.764  10.419  11.730  0.5736  0.5011 -0.9616
  3574G12c O00A66398   2.710  10.352  11.621  0.5759  1.0540  0.7143
  3574G12c C02466399   2.709  10.399  11.487 -0.3366 -0.6780  0.1036
  3574G12c H00V66400   2.804  10.438  11.451 -3.6498  2.1857 -6.2881
  3574G12c H00U66401   2.628  10.465  11.458 -0.1486  1.2943  3.8237
  3574G12c H00T66402   2.710  10.300  11.440 -3.2372 -2.2551  3.1288
  3584G12c C00D66403   5.785   5.861   9.138  0.0279 -0.6182  0.8902
  3584G12c O00B66404   5.647   5.839   9.139 -1.5468 -0.9337 -0.2248
  3584G12c C02566405   5.589   5.770   9.031 -0.5315 -1.9524 -1.2398
  3584G12c C02666406   5.482   5.667   9.055 -0.1459  0.2340 -0.2489
  3584G12c H00Y66407   5.464   5.597   8.974 -2.2989 -6.7981  5.7133
  3584G12c H00X66408   5.404   5.740   9.034 -5.0940 -4.0034  2.2283
  3584G12c O00C66409   5.469   5.628   9.188 -0.1302 -1.4384 -0.2745
  3584G12c H00W66410   5.545   5.582   9.220 -4.1037 -8.8205 -0.3107
  3584G12c C02766411   5.629   5.796   8.907 -0.3636 -0.7944  0.7765
  3584G12c O00D66412   5.643   5.930   8.879  1.4845 -1.3429  1.0241
  3584G12c H00Z66413   5.719   5.925   8.823  0.8513 -6.8041  0.3926
  3584G12c C02866414   5.617   5.697   8.802 -0.0736 -0.5341 -2.0612
  3584G12c C02966415   5.571   5.741   8.672  0.2142 -0.8361  0.5233
  3584G12c H01066416   5.535   5.842   8.659 -7.2420 -2.7529  3.9142
  3584G12c C02T66417   5.583   5.667   8.558  0.1174  0.0624  0.0616
  3584G12c H01O66418   5.549   5.722   8.471  0.8997 -2.0779 -1.6362
  3584G12c C02S66419   5.617   5.531   8.552 -0.0949  1.2043 -0.7224
  3584G12c O00J66420   5.612   5.447   8.454 -3.4456  0.0278  0.3940
  3584G12c H01P66421   5.597   5.495   8.374 -2.2996  0.8888  0.6778
  3584G12c C02R66422   5.683   5.484   8.674 -0.6898  0.5699  1.7687
  3584G12c O00I66423   5.695   5.351   8.694  0.9770 -0.2791 -0.1921
  3584G12c C02Q66424   5.640   5.243   8.631  0.0395 -1.5924  0.5058
  3584G12c H01N66425   5.675   5.234   8.529 -3.2979  5.5947 -1.5632
  3584G12c H01R66426   5.531   5.248   8.633  0.0234  1.0450 -3.1864
  3584G12c H01Q66427   5.640   5.151   8.690 -4.4603  1.4302  5.7759
  3584G12c C02A66428   5.680   5.565   8.793  1.3237 -1.1499 -0.1199
  3584G12c H01166429   5.686   5.539   8.897 -7.3271 -2.1987  0.4048
  3584G12c C00C66430   5.809   6.001   9.163  1.0218  0.1916 -0.0016
  3584G12c H01266431   5.728   6.071   9.147  0.6772 -1.1039 -4.7470
  3584G12c C00B66432   5.926   6.075   9.157  0.6247 -0.7017 -0.9713
  3584G12c C00A66433   5.949   6.208   9.212 -1.2230  0.7574  0.4913
  3584G12c C00966434   5.877   6.338   9.213 -0.2848  1.1632 -0.9262
  3584G12c C00866435   5.760   6.351   9.151 -0.5727  1.2711 -0.9151
  3584G12c H01366436   5.697   6.263   9.151 -2.9549  2.8664  2.2285
  3584G12c C00766437   5.724   6.470   9.089  1.0260  0.2857 -0.9351
  3584G12c H01466438   5.626   6.438   9.056  1.8613 -2.4915 -0.8805
  3584G12c C00666439   5.833   6.570   9.056  0.8257 -0.1269  1.7003
  3584G12c C00566440   5.953   6.545   9.119  0.9244 -1.6799  1.0119
  3584G12c C00466441   6.076   6.618   9.074 -0.5838 -1.4119  1.1441
  3584G12c C00366442   6.208   6.579   9.121  0.9825 -1.6016  0.5118
  3584G12c C00266443   6.321   6.660   9.074 -1.0472 -1.2826  0.3289
  3584G12c C00166444   6.466   6.627   9.062  0.6985  0.4170  0.1534
  3584G12c C00M66445   6.529   6.495   9.020  0.3010  1.5174  0.1215
  3584G12c C00L66446   6.476   6.365   9.072  1.1842  1.6880  0.6631
  3584G12c C00R66447   6.493   6.260   8.998 -0.0697  0.9299  2.3839
  3584G12c C00Q66448   6.581   6.238   8.884 -0.0915  1.7443 -1.1096
  3584G12c C00V66449   6.574   6.096   8.854  2.4693  1.8700  1.6259
  3584G12c C00U66450   6.458   6.009   8.880 -0.6048  0.5637 -1.0429
  3584G12c C00T66451   6.360   6.059   8.965  0.5024  0.7421  0.5274
  3584G12c C01666452   6.250   5.990   9.010 -0.2412  1.4044  1.5059
  3584G12c C01566453   6.206   5.880   8.925 -0.7440  1.1059 -0.9875
  3584G12c C01066454   6.299   5.828   8.835  0.8227 -0.9335 -0.1625
  3584G12c C01166455   6.249   5.735   8.742 -0.4606  1.6294 -0.2340
  3584G12c H00566456   6.299   5.704   8.652  3.7797  1.4132  2.0545
  3584G12c C01266457   6.120   5.682   8.759  0.8442  1.6716  0.7834
  3584G12c C01766458   6.079   5.588   8.635 -2.5354 -0.1015  0.9989
  3584G12c O00266459   6.076   5.634   8.510  0.6838 -0.0185 -0.1292
  3584G12c H00466460   6.016   5.582   8.461  2.9807 -2.9454  0.0448
  3584G12c C01866461   6.060   5.462   8.667  0.2692 -0.9238  1.5282
  3584G12c O00166462   6.075   5.421   8.785  0.6569 -0.9138 -0.5036
  3584G12c H00366463   6.112   5.341   8.751  4.6557  1.9556 -3.4168
  3584G12c C01966464   6.026   5.343   8.577 -1.3183 -0.4932 -0.4296
  3584G12c H00266465   5.926   5.300   8.583 -1.1370 -1.0795 -1.5497
  3584G12c H00166466   6.052   5.390   8.481 -0.2894  0.7016  0.4206
  3584G12c O00066467   6.142   5.259   8.558  0.7776  0.0338 -1.9858
  3584G12c C01A66468   6.123   5.139   8.469 -0.8667 -0.1612 -1.5640
  3584G12c C02K66469   6.094   5.010   8.492  1.5598 -0.8576  1.6859
  3584G12c O00G66470   6.111   4.978   8.626 -1.1962 -1.9140  1.0402
  3584G12c C02M66471   6.000   5.006   8.703 -2.2339  0.8462  2.1740
  3584G12c H01G66472   5.963   4.917   8.754  2.3253  0.4916  5.1497
  3584G12c H01F66473   5.909   5.065   8.697 -1.9106  1.3668  2.3037
  3584G12c H01E66474   6.068   4.999   8.788 -3.9378 -3.6090  3.3371
  3584G12c C02J66475   6.101   4.917   8.385  0.8681  0.4981  0.6485
  3584G12c H01H66476   6.080   4.813   8.406-10.7372  0.5130 -6.4890
  3584G12c C02I66477   6.143   4.967   8.252  0.7236  0.4124  2.8031
  3584G12c C02N66478   6.129   4.886   8.131 -0.5307  1.4461 -0.4708
  3584G12c H01M66479   6.197   4.888   8.047 -0.9502 -1.0193 -0.9196
  3584G12c C02O66480   6.025   4.803   8.112  1.0215  0.9548 -0.1445
  3584G12c H01L66481   5.965   4.771   8.196 -0.1053  4.5511  0.5034
  3584G12c C02P66482   5.994   4.772   7.957 -1.4393  0.8598 -0.0747
  3584G12c H01K66483   5.998   4.678   7.902 -1.2388 -2.6720  5.5215
  3584G12c H01J66484   5.887   4.754   7.968 -0.6940 -1.5040  4.6040
  3584G12c O00H66485   5.991   4.896   7.894  1.3099 -0.8926  0.1977
  3584G12c H01I66486   5.935   4.969   7.914  2.0232  1.3609 -5.1265
  3584G12c C02H66487   6.176   5.109   8.236  0.5846  0.3649 -0.4012
  3584G12c H01C66488   6.183   5.138   8.133 -1.1373 -1.6687 -1.1314
  3584G12c C02L66489   6.152   5.188   8.346  0.4031  0.2142 -0.4969
  3584G12c H01D66490   6.139   5.291   8.316 -1.1161 -0.0650 -0.8372
  3584G12c C01366491   6.028   5.730   8.846 -1.0809 -2.8093  0.9150
  3584G12c H00066492   5.928   5.689   8.840 -0.0852 -4.9135 -3.7429
  3584G12c C01466493   6.082   5.816   8.950  2.0855  0.4082 -0.5492
  3584G12c C00F66494   6.006   5.880   9.042 -0.0628  0.2729  0.5034
  3584G12c C00H66495   6.164   6.048   9.100  1.0383 -0.6712 -0.7758
  3584G12c C00I66496   6.188   6.172   9.150  1.5491  0.0708 -0.2272
  3584G12c C00J66497   6.310   6.235   9.113  0.4529  0.7977  1.2813
  3584G12c C00Z66498   6.428   5.898   8.812  0.5113  0.1418  0.0292
  3584G12c C00Y66499   6.525   5.845   8.723 -2.3926 -0.7726 -0.4580
  3584G12c H00666500   6.525   5.757   8.661  5.2270  1.4381 -4.1402
  3584G12c C00X66501   6.642   5.926   8.680 -0.3555  0.6562 -0.2467
  3584G12c O00366502   6.735   5.856   8.599 -0.2646  1.8422  0.5809
  3584G12c C01B66503   6.852   5.824   8.665 -0.9672  1.9462 -0.9367
  3584G12c H00966504   6.904   5.916   8.690  0.8614  0.7759 -0.3470
  3584G12c H00866505   6.821   5.756   8.745  3.8183  1.5450  0.6908
  3584G12c H00766506   6.892   5.769   8.580 -4.4002 -3.4831  0.6944
  3584G12c C00W66507   6.656   6.054   8.743 -0.1479 -1.6413  0.0546
  3584G12c O00466508   6.762   6.121   8.692  0.2277  0.1782 -0.4910
  3584G12c C01C66509   6.783   6.255   8.728  0.2378 -0.0062  1.4215
  3584G12c H00A66510   6.848   6.337   8.702 -2.1248  1.5881  0.3402
  3584G12c C00P66511   6.680   6.323   8.808  0.4522  0.0252 -0.2297
  3584G12c C00O66512   6.637   6.456   8.784 -0.4088  0.4766  0.6093
  3584G12c C01D66513   6.634   6.505   8.643  2.4277  0.5637 -0.3382
  3584G12c H00S66514   6.676   6.442   8.566 -7.3626 -1.1703 -5.0072
  3584G12c C01E66515   6.591   6.629   8.624 -0.2367  0.1220  1.6137
  3584G12c O00866516   6.582   6.682   8.493 -0.4685  0.6792  1.0273
  3584G12c C01V66517   6.474   6.662   8.402  0.6130  0.8903 -0.6790
  3584G12c C01Z66518   6.348   6.710   8.468 -0.4505  0.4085 -0.7829
  3584G12c H00R66519   6.273   6.631   8.461 -0.8279  0.1167  4.3941
  3584G12c H00Q66520   6.344   6.744   8.571 -4.0292 -0.7018 -0.4855
  3584G12c O00966521   6.250   6.778   8.391 -0.5517  0.7925  0.0989
  3584G12c H00P66522   6.279   6.747   8.306 -1.9636  4.3327 -1.7928
  3584G12c C01W66523   6.496   6.617   8.273 -0.8444  1.4517  0.0387
  3584G12c H00O66524   6.435   6.591   8.188 -2.0036 -0.7596  1.4805
  3584G12c C01X66525   6.626   6.561   8.232  1.1186  1.7737 -1.9073
  3584G12c H00N66526   6.675   6.543   8.328  4.1684 -1.0457 -3.8898
  3584G12c H00M66527   6.618   6.476   8.165 -3.3290 -2.2616  3.2555
  3584G12c C01Y66528   6.681   6.645   8.109  0.5117  1.2790  0.7245
  3584G12c C02D66529   6.741   6.772   8.151 -0.2657 -2.0853  0.8156
  3584G12c H01966530   6.713   6.818   8.245 -2.4108  3.8557 -2.5022
  3584G12c C02C66531   6.758   6.853   8.037  0.0454 -0.4080  1.1003
  3584G12c H01A66532   6.748   6.952   8.078  0.0107  0.6772 -1.3901
  3584G12c C02B66533   6.782   6.814   7.905 -0.1194  0.6816  0.1352
  3584G12c O00E66534   6.775   6.895   7.795  0.0456  1.1998  0.0569
  3584G12c H01B66535   6.699   6.859   7.753  2.4535 -4.0883 -0.1224
  3584G12c C02F66536   6.725   6.685   7.868 -1.9993  1.2019  0.5713
  3584G12c O00F66537   6.718   6.657   7.733 -0.8629  0.7925 -1.9918
  3584G12c C02G66538   6.693   6.530   7.691 -0.3221  0.6577 -0.1550
  3584G12c H01766539   6.686   6.448   7.762 -3.2900  2.1214  1.3438
  3584G12c H01666540   6.784   6.485   7.652 -2.0986 -0.3740 -3.2956
  3584G12c H01566541   6.624   6.508   7.610 -3.5674 -3.0996  3.4036
  3584G12c C02E66542   6.677   6.600   7.976 -0.1418 -0.6384  0.1318
  3584G12c H01866543   6.637   6.503   7.951 -3.9982  1.7240 -3.5999
  3584G12c C01F66544   6.567   6.712   8.725  0.2356  2.0240  0.1379
  3584G12c C01G66545   6.525   6.852   8.723  0.3933 -0.6157  0.2118
  3584G12c H00L66546   6.529   6.887   8.621  2.2231 -2.4314 -0.3805
  3584G12c C01H66547   6.424   6.886   8.818 -1.8460 -2.1642 -0.1162
  3584G12c H00B66548   6.331   6.930   8.784 -2.8203 -2.1959  2.4315
  3584G12c C01I66549   6.416   6.827   8.943 -0.1299  0.4811  1.1382
  3584G12c C01U66550   6.567   6.659   8.862 -0.1728 -0.6572  0.7353
  3584G12c C00S66551   6.392   6.179   9.027  0.1023  0.2121 -0.0404
  3584G12c C00K66552   6.338   6.358   9.136 -0.0413  0.0679 -0.0749
  3584G12c C00N66553   6.577   6.516   8.892 -1.4045  0.7238  0.6014
  3584G12c C00066554   6.501   6.723   8.970  1.1278 -0.5579  1.3225
  3584G12c C01J66555   6.303   6.794   9.022 -0.6292 -0.1083  0.5779
  3584G12c C01K66556   6.159   6.837   9.001 -0.3871  1.1174  1.7464
  3584G12c C01P66557   6.121   6.965   8.967  0.8178  1.4296  1.0142
  3584G12c C01Q66558   6.204   7.075   9.010 -0.6885  0.3096  0.1988
  3584G12c H00G66559   6.310   7.069   9.031 -1.2214  3.0368  4.1773
  3584G12c C01R66560   6.189   7.200   8.988 -0.1011 -1.7764 -0.2570
  3584G12c H00F66561   6.086   7.220   8.966 -0.1462 -5.5322 -4.2579
  3584G12c C01S66562   6.283   7.312   9.001 -0.1286  1.1293  1.1659
  3584G12c H00E66563   6.303   7.336   9.105 -0.9973  1.5421  1.2432
  3584G12c H00D66564   6.378   7.317   8.947  2.1836 -1.4203  4.7877
  3584G12c O00566565   6.249   7.457   8.998 -0.5830  2.0838  0.5917
  3584G12c H00C66566   6.299   7.485   9.073  1.3129 -2.5782  1.2740
  3584G12c C01O66567   5.999   6.978   8.880 -0.4162  0.2352  0.3760
  3584G12c H00H66568   5.962   7.073   8.845 -0.6691  0.3446  0.9417
  3584G12c C01N66569   5.908   6.872   8.866 -1.6746  1.3057  1.8717
  3584G12c O00666570   5.779   6.896   8.801 -1.3223 -0.1697  0.4075
  3584G12c C01T66571   5.665   6.894   8.871 -0.7583  0.2096  0.9286
  3584G12c H00K66572   5.599   6.980   8.885  3.4041  2.9379  5.2362
  3584G12c H00J66573   5.685   6.879   8.977 -3.4623  1.1475  1.6082
  3584G12c H00I66574   5.582   6.824   8.856 -2.4915  1.2712  4.9381
  3584G12c C01M66575   5.927   6.758   8.940  1.0013 -0.8616  0.4138
  3584G12c C02066576   6.222   6.447   9.164  1.5186 -0.0328  1.1909
  3584G12c C02166577   6.112   6.385   9.249 -1.2902 -0.6033 -0.4952
  3584G12c C01L66578   6.057   6.739   9.006 -0.5896  0.0726  0.1676
  3584G12c O00766579   5.828   6.661   8.946  1.8536  1.4247  1.0834
  3584G12c C02266580   5.981   6.432   9.203  0.8221  0.0936 -1.4469
  3584G12c C02366581   6.091   6.244   9.230  0.1332  0.4598  0.5444
  3584G12c C00G66582   6.034   6.002   9.106  1.4218  0.3108 -0.1706
  3584G12c C00E66583   5.885   5.802   9.080 -1.4290  0.0811 -0.5687
  3584G12c O00A66584   5.889   5.663   9.080  0.3012 -0.6971  1.8886
  3584G12c C02466585   5.964   5.609   9.186  0.5305 -0.3625 -0.6663
  3584G12c H00V66586   5.945   5.510   9.147  3.6033 -2.6647  3.2434
  3584G12c H00U66587   6.071   5.632   9.190  0.0016  1.9984  1.9286
  3584G12c H00T66588   5.924   5.665   9.271  4.0759  1.1593  0.1046
  3594G12c C00D66589   1.443   4.547  11.462 -0.1706  0.1107 -0.5213
  3594G12c O00B66590   1.520   4.612  11.370  1.4659 -0.4804 -0.1219
  3594G12c C02566591   1.524   4.741  11.325  0.6544 -0.6152 -0.7488
  3594G12c C02666592   1.395   4.799  11.277  0.8998 -0.2027 -1.1408
  3594G12c H00Y66593   1.330   4.769  11.359  5.5290 -2.8732  1.7890
  3594G12c H00X66594   1.380   4.763  11.175 -5.5892 10.5672 -4.8236
  3594G12c O00C66595   1.367   4.950  11.295 -0.3476  1.2686 -0.4845
  3594G12c H00W66596   1.458   4.975  11.293 -0.0861  0.2669 -2.5790
  3594G12c C02766597   1.647   4.802  11.353  0.4593  0.3951  1.1237
  3594G12c O00D66598   1.760   4.735  11.397  0.0138  0.3883 -1.1971
  3594G12c H00Z66599   1.724   4.701  11.477  3.6370 -0.0797  0.3093
  3594G12c C02866600   1.666   4.916  11.272  1.7580  0.3471 -0.9715
  3594G12c C02966601   1.692   5.042  11.329  0.2618  1.2646 -0.0571
  3594G12c H01066602   1.675   5.054  11.435  4.9271  0.4593  0.9106
  3594G12c C02T66603   1.766   5.140  11.255  0.8489  1.1610 -0.7311
  3594G12c H01O66604   1.804   5.220  11.317  6.7335  2.4118 -5.4539
  3594G12c C02S66605   1.796   5.123  11.115  0.0072  1.7523 -0.6593
  3594G12c O00J66606   1.831   5.233  11.036  1.2834  0.6479  0.4421
  3594G12c H01P66607   1.828   5.197  10.949  0.7145  0.1100  0.6818
  3594G12c C02R66608   1.732   5.003  11.051  2.0217 -0.8065  1.6374
  3594G12c O00I66609   1.736   4.990  10.917 -0.5502  0.3327  0.4665
  3594G12c C02Q66610   1.864   4.928  10.904 -0.5538 -1.7744  0.4521
  3594G12c H01N66611   1.929   4.945  10.989 -3.7300 -0.8917  2.8087
  3594G12c H01R66612   1.826   4.827  10.889 -8.0893  1.0570 -2.1701
  3594G12c H01Q66613   1.898   4.976  10.812 -4.6491  9.4619  3.9565
  3594G12c C02A66614   1.687   4.898  11.130 -1.7409  1.8909  0.8748
  3594G12c H01166615   1.640   4.808  11.092  1.2624  1.5433 -2.2806
  3594G12c C00C66616   1.456   4.409  11.478 -2.4134  0.8965  0.4315
  3594G12c H01266617   1.509   4.353  11.403 -4.3908 -5.5113  3.4770
  3594G12c C00B66618   1.399   4.328  11.587 -0.2851 -0.7252 -0.8507
  3594G12c C00A66619   1.415   4.190  11.622 -1.4037  0.8200  1.1062
  3594G12c C00966620   1.447   4.074  11.538  1.0301  0.1572 -1.1636
  3594G12c C00866621   1.503   4.050  11.409  1.0289 -0.2436 -1.4145
  3594G12c H01366622   1.591   4.110  11.391 -1.3051  3.0321 -2.3467
  3594G12c C00766623   1.462   3.939  11.338  1.0032  0.5517 -1.7178
  3594G12c H01466624   1.515   3.913  11.248  1.5369 -4.4385 -0.1217
  3594G12c C00666625   1.381   3.833  11.413 -1.4199 -0.3850 -0.1668
  3594G12c C00566626   1.349   3.869  11.554 -1.8448 -1.5153  0.4204
  3594G12c C00466627   1.226   3.811  11.600  1.0854 -0.4195 -0.1738
  3594G12c C00366628   1.170   3.837  11.726 -0.4937 -0.5389  0.9301
  3594G12c C00266629   1.059   3.754  11.785 -0.2880  0.1658 -0.0210
  3594G12c C00166630   0.956   3.769  11.895  0.4467  1.7611  0.0099
  3594G12c C00M66631   0.897   3.891  11.939 -1.2991  1.2145  0.9838
  3594G12c C00L66632   0.980   4.011  11.931  0.1342  0.6996 -1.0999
  3594G12c C00R66633   0.953   4.141  11.985  0.8355  0.0522  0.4124
  3594G12c C00Q66634   0.810   4.192  12.004 -1.5553  0.6794 -1.4894
  3594G12c C00V66635   0.801   4.335  12.000  0.6764 -0.0778 -0.0809
  3594G12c C00U66636   0.914   4.415  11.977  0.2914 -0.7853 -0.2934
  3594G12c C00T66637   1.029   4.357  11.927  0.2016  1.3774  0.6162
  3594G12c C01666638   1.125   4.416  11.839 -0.5619  1.9736  0.5226
  3594G12c C01566639   1.098   4.544  11.820  0.1854 -1.1091  0.2072
  3594G12c C01066640   0.987   4.612  11.882  1.2158 -0.4800  0.4017
  3594G12c C01166641   0.983   4.756  11.870 -0.4028  1.3002  0.6324
  3594G12c H00566642   0.943   4.833  11.934 -1.1804  0.2890  1.3737
  3594G12c C01266643   1.037   4.823  11.765  0.3493 -0.6560  1.4637
  3594G12c C01766644   0.999   4.964  11.720  0.8312  2.3614 -1.2123
  3594G12c O00266645   1.089   5.065  11.755 -1.5673 -0.1849 -0.2344
  3594G12c H00466646   1.152   5.015  11.804  2.6408  1.7367 -3.4137
  3594G12c C01866647   0.880   4.990  11.676  1.0446 -0.4019 -1.3334
  3594G12c O00166648   0.841   5.122  11.651 -0.0032  0.5792  0.6053
  3594G12c H00366649   0.911   5.183  11.638  2.1741 -0.7940  4.7828
  3594G12c C01966650   0.755   4.911  11.659  1.1297  0.3446 -0.4372
  3594G12c H00266651   0.674   4.972  11.698  0.2246  1.5433 -4.0129
  3594G12c H00166652   0.750   4.897  11.550  6.9352 -4.0080 -0.3926
  3594G12c O00066653   0.739   4.789  11.722 -1.2047 -0.3940  1.6384
  3594G12c C01A66654   0.672   4.671  11.668 -0.4324  0.6249  0.6231
  3594G12c C02K66655   0.536   4.701  11.595 -0.2752  0.6125 -1.1489
  3594G12c O00G66656   0.479   4.823  11.596 -0.5501 -0.3111  0.3609
  3594G12c C02M66657   0.404   4.847  11.481  1.1412 -0.8426  1.2620
  3594G12c H01G66658   0.297   4.825  11.474  0.8505  0.4464  1.5774
  3594G12c H01F66659   0.457   4.803  11.396  4.2224 -1.0756  3.2359
  3594G12c H01E66660   0.414   4.952  11.507  0.7648 -0.0253 -1.6662
  3594G12c C02J66661   0.451   4.584  11.603  0.3451 -0.5648  2.0259
  3594G12c H01H66662   0.358   4.577  11.549 -0.7984  0.9749  3.7491
  3594G12c C02I66663   0.500   4.449  11.650 -1.2043 -0.5240 -1.4223
  3594G12c C02N66664   0.436   4.321  11.622  0.0666 -0.4217  0.1717
  3594G12c H01M66665   0.465   4.230  11.673 -3.6123 -1.3228  0.8564
  3594G12c C02O66666   0.332   4.327  11.534  1.7549 -0.2230  0.2991
  3594G12c H01L66667   0.334   4.409  11.464 -1.5112 -4.9399 -5.8154
  3594G12c C02P66668   0.224   4.228  11.495 -1.1889  0.2855  0.2749
  3594G12c H01K66669   0.193   4.242  11.391 -0.5177 -2.6347 -0.3707
  3594G12c H01J66670   0.261   4.131  11.527  2.7052  0.0179 -4.4109
  3594G12c O00H66671   0.110   4.281  11.580 -1.1072 -0.0005  0.5468
  3594G12c H01I66672   0.074   4.210  11.632  1.2632 -3.9356 -2.9168
  3594G12c C02H66673   0.637   4.440  11.694  0.4092 -0.1717 -0.4475
  3594G12c H01C66674   0.676   4.359  11.754 -4.1922 -4.8529 -3.4185
  3594G12c C02L66675   0.732   4.545  11.678 -0.4849 -1.3721  0.9453
  3594G12c H01D66676   0.815   4.543  11.747 -2.7962 -0.9457  3.8220
  3594G12c C01366677   1.153   4.765  11.707  0.3181  0.7349 -0.3206
  3594G12c H00066678   1.202   4.837  11.643  0.0072  0.8345 -0.4526
  3594G12c C01466679   1.194   4.626  11.731 -0.4245  0.6209 -1.0252
  3594G12c C00F66680   1.296   4.551  11.657 -0.3801 -1.2647 -0.4273
  3594G12c C00H66681   1.232   4.347  11.777 -0.3316  0.3562 -1.5970
  3594G12c C00I66682   1.254   4.230  11.818  0.2312  2.1439  0.9645
  3594G12c C00J66683   1.164   4.166  11.909  0.2622  1.9766 -0.3735
  3594G12c C00Z66684   0.904   4.552  11.968 -0.0820 -0.1255  0.3488
  3594G12c C00Y66685   0.790   4.613  12.031  0.1760  0.7196  0.9229
  3594G12c H00666686   0.766   4.718  12.038 -1.6948  0.4945 -1.3335
  3594G12c C00X66687   0.692   4.526  12.075 -1.3121  1.7364 -0.8752
  3594G12c O00366688   0.586   4.561  12.139 -0.6040 -1.3903 -0.6113
  3594G12c C01B66689   0.602   4.670  12.238 -1.4562  0.3543  0.5783
  3594G12c H00966690   0.638   4.652  12.339 -2.5976  3.0634  1.4952
  3594G12c H00866691   0.643   4.758  12.189 -0.2080  3.1372  6.3048
  3594G12c H00766692   0.503   4.714  12.251 -2.3970  1.0306 -6.4901
  3594G12c C00W66693   0.672   4.387  12.024 -0.0216 -1.1019 -0.3420
  3594G12c O00466694   0.579   4.317  12.088  0.5747  0.0201 -0.5596
  3594G12c C01C66695   0.561   4.198  12.013  1.6400  1.0509  0.9943
  3594G12c H00A66696   0.489   4.199  11.933  0.7866 -2.5537  1.6398
  3594G12c C00P66697   0.680   4.117  11.994  0.1592 -1.0726 -1.6381
  3594G12c C00O66698   0.665   3.988  11.939  2.1705  0.3970  0.5439
  3594G12c C01D66699   0.534   3.938  11.898  0.5094  2.2305 -0.6189
  3594G12c H00S66700   0.452   3.996  11.936 -1.2486 -2.6589  3.5491
  3594G12c C01E66701   0.500   3.829  11.816 -2.4723  1.2731 -0.9135
  3594G12c O00866702   0.371   3.832  11.767 -0.3593  0.0242  0.2596
  3594G12c C01V66703   0.275   3.729  11.808 -0.7823  0.2531 -0.2384
  3594G12c C01Z66704   0.132   3.773  11.802 -0.5663 -0.0851  0.7132
  3594G12c H00R66705   0.053   3.735  11.867  0.8472 -3.6712  0.4267
  3594G12c H00Q66706   0.183   3.865  11.830 -1.8588  1.0317 -0.5222
  3594G12c O00966707   0.081   3.783  11.664  0.3904  0.0109  0.5660
  3594G12c H00P66708   0.121   3.725  11.601  2.2309  0.4330  1.3165
  3594G12c C01W66709   0.297   3.607  11.869  0.1261  0.4602 -0.5530
  3594G12c H00O66710   0.401   3.580  11.858  0.6371  3.0782 -2.8452
  3594G12c C01X66711   0.176   3.509  11.868 -0.4121 -0.9645 -1.2139
  3594G12c H00N66712   0.077   3.524  11.826 -0.1237  1.4185 -1.0770
  3594G12c H00M66713   0.211   3.429  11.803  6.5151  2.9534 -2.8250
  3594G12c C01Y66714   0.189   3.442  12.005 -1.2236  2.0064 -0.1346
  3594G12c C02D66715   0.155   3.510  12.124  0.6868 -0.7907  0.8380
  3594G12c H01966716   0.145   3.618  12.119 -1.6942 -1.0838 -2.0308
  3594G12c C02C66717   0.160   3.446  12.239 -0.0917 -0.2917  0.0696
  3594G12c H01A66718   0.112   3.507  12.314 -2.9443  0.5869 -2.3814
  3594G12c C02B66719   0.242   3.327  12.249  2.3067 -1.0101  0.5923
  3594G12c O00E66720   0.287   3.278  12.372 -0.4778  0.5454 -0.6299
  3594G12c H01B66721   0.313   3.188  12.355  6.0838  1.9165  0.6140
  3594G12c C02F66722   0.288   3.268  12.132 -1.3261 -1.0133  1.6096
  3594G12c O00F66723   0.379   3.174  12.160 -0.7345 -0.0750  0.7582
  3594G12c C02G66724   0.498   3.233  12.165 -2.7822 -1.0765  1.1140
  3594G12c H01766725   0.580   3.183  12.113 -1.3900 -1.6661  3.7597
  3594G12c H01666726   0.531   3.216  12.267 -4.4752  5.6831  3.0784
  3594G12c H01566727   0.489   3.341  12.176 -7.5746 -1.5687  3.3751
  3594G12c C02E66728   0.264   3.329  12.014 -1.5055  0.6626  1.9208
  3594G12c H01866729   0.277   3.270  11.924 -3.2048 -1.6387  3.1115
  3594G12c C01F66730   0.615   3.758  11.776 -0.9906 -1.6707 -0.2761
  3594G12c C01G66731   0.628   3.674  11.660 -0.0490 -0.2473  0.5498
  3594G12c H00L66732   0.551   3.676  11.585 -3.8070 -4.5943  3.9771
  3594G12c C01H66733   0.753   3.600  11.635  1.6447 -0.5232 -0.6300
  3594G12c H00B66734   0.793   3.546  11.551 -2.7356 -1.9599 -1.8981
  3594G12c C01I66735   0.863   3.617  11.721  1.0447 -1.1960 -1.3049
  3594G12c C01U66736   0.729   3.765  11.859 -1.6739 -0.7676 -0.1789
  3594G12c C00S66737   1.059   4.230  11.969 -0.0851  0.3572 -1.7643
  3594G12c C00K66738   1.120   4.025  11.880 -0.2861  1.8102  0.8274
  3594G12c C00N66739   0.756   3.888  11.927 -0.2453 -0.5678  1.5729
  3594G12c C00066740   0.841   3.679  11.854 -0.5205  0.1020 -0.1300
  3594G12c C01J66741   1.002   3.652  11.706  0.3423  0.2310  0.3589
  3594G12c C01K66742   1.078   3.606  11.582  1.2893 -0.2293  1.4736
  3594G12c C01P66743   1.053   3.480  11.508 -1.8955 -0.9150 -0.1818
  3594G12c C01Q66744   0.978   3.367  11.535 -0.5533 -1.7672  1.4357
  3594G12c H00G66745   0.929   3.347  11.441  0.0897 -2.4657  1.2528
  3594G12c C01R66746   0.958   3.305  11.649 -0.8990  0.6378 -0.9126
  3594G12c H00F66747   0.990   3.384  11.715 -2.2911  1.4964 -1.2480
  3594G12c C01S66748   0.852   3.214  11.716  0.2918 -1.2125  0.1707
  3594G12c H00E66749   0.828   3.255  11.813  1.6534 -0.7160  0.3087
  3594G12c H00D66750   0.908   3.132  11.762 -1.6625 -1.3742  2.3078
  3594G12c O00566751   0.750   3.165  11.631  1.3035  0.5379 -0.9953
  3594G12c H00C66752   0.711   3.246  11.604  4.5436  3.4506  2.5694
  3594G12c C01O66753   1.094   3.468  11.375 -0.8219 -0.9524 -0.8265
  3594G12c H00H66754   1.071   3.386  11.309  5.0521 -0.2696 -4.1027
  3594G12c C01N66755   1.199   3.555  11.342 -1.0629 -1.8387  1.1803
  3594G12c O00666756   1.261   3.509  11.238 -0.0647  1.0553 -0.1985
  3594G12c C01T66757   1.400   3.475  11.247 -0.5794 -0.1603 -1.0347
  3594G12c H00K66758   1.455   3.544  11.312 -2.0484  5.5972 -5.4975
  3594G12c H00J66759   1.447   3.454  11.151 -3.8644  6.3620 -4.4073
  3594G12c H00I66760   1.442   3.406  11.320  0.0846 -4.3226 -5.1261
  3594G12c C01M66761   1.225   3.668  11.411 -0.8266 -1.4756 -0.1862
  3594G12c C02066762   1.216   3.952  11.794  2.4460  0.5509  0.0592
  3594G12c C02166763   1.342   4.006  11.743  2.1306 -0.1016  0.2995
  3594G12c C01L66764   1.170   3.697  11.541  0.7775 -1.1418  0.3313
  3594G12c O00766765   1.304   3.752  11.340 -0.4444 -0.5357  0.2671
  3594G12c C02266766   1.405   3.965  11.629 -0.8510  0.3807 -0.0167
  3594G12c C02366767   1.348   4.149  11.735  0.0912  0.0909 -0.4019
  3594G12c C00G66768   1.303   4.408  11.668 -2.2910 -0.9356 -1.2991
  3594G12c C00E66769   1.381   4.624  11.562  0.6390 -0.8827  1.1875
  3594G12c O00A66770   1.398   4.760  11.571 -0.1434  1.0898  1.0331
  3594G12c C02466771   1.523   4.805  11.637 -0.4979  0.4522 -0.3335
  3594G12c H00V66772   1.595   4.725  11.659  3.1225  4.5755  3.9771
  3594G12c H00U66773   1.485   4.859  11.723 -1.5225 -6.4675  3.9155
  3594G12c H00T66774   1.588   4.873  11.581 -4.6241  3.1281 -2.0640
  3604G12c C00D66775   3.309   4.286   9.200 -0.1271 -0.9927 -1.8530
  3604G12c O00B66776   3.189   4.348   9.171 -0.3968 -1.3590 -1.3681
  3604G12c C02566777   3.098   4.374   9.282 -0.9402  1.2889 -0.2322
  3604G12c C02666778   2.992   4.271   9.322 -1.0413  0.1993  0.5791
  3604G12c H00Y66779   2.989   4.215   9.228 -0.3635 -0.0283  0.6919
  3604G12c H00X66780   2.905   4.336   9.335  0.1927  1.0540  5.1402
  3604G12c O00C66781   3.031   4.194   9.449 -0.9784  0.1836  0.1865
  3604G12c H00W66782   2.954   4.146   9.476 -1.1583 -2.4679 -4.5367
  3604G12c C02766783   3.111   4.484   9.363 -0.9403  0.2285  1.5652
  3604G12c O00D66784   3.204   4.562   9.326 -0.0280 -0.0651 -1.3492
  3604G12c H00Z66785   3.182   4.595   9.240 -4.3331 -6.0124 -2.7697
  3604G12c C02866786   3.041   4.525   9.481  0.4386 -0.4235  0.1045
  3604G12c C02966787   3.088   4.487   9.613 -0.3106 -2.0807  0.5037
  3604G12c H01066788   3.190   4.457   9.632  1.0540 -0.9766 -4.4974
  3604G12c C02T66789   3.004   4.508   9.730 -0.9105 -0.7552  0.0400
  3604G12c H01O66790   3.063   4.520   9.820  1.6396  7.8790 -2.2778
  3604G12c C02S66791   2.870   4.550   9.734 -0.5845 -0.4454 -1.9772
  3604G12c O00J66792   2.806   4.543   9.858 -0.8488  0.4265  1.3742
  3604G12c H01P66793   2.753   4.464   9.860 -2.5378  1.2489 -3.9045
  3604G12c C02R66794   2.809   4.562   9.604 -0.6284  0.6428  0.2752
  3604G12c O00I66795   2.682   4.612   9.595 -0.0299 -1.0286 -0.6453
  3604G12c C02Q66796   2.613   4.529   9.518 -0.7293  1.7860  1.5360
  3604G12c H01N66797   2.665   4.517   9.423 -5.2032  3.6531 -1.3437
  3604G12c H01R66798   2.569   4.460   9.590 -3.2607  3.1253  1.3203
  3604G12c H01Q66799   2.520   4.581   9.493 -1.6150 -0.7491 -0.7584
  3604G12c C02A66800   2.894   4.563   9.485 -0.9141 -0.7863  0.0106
  3604G12c H01166801   2.868   4.583   9.382  0.2802 -5.4621 -1.3375
  3604G12c C00C66802   3.341   4.199   9.309 -1.2292 -0.2128  0.4849
  3604G12c H01266803   3.250   4.197   9.366 -2.1207  0.6205 -0.8846
  3604G12c C00B66804   3.473   4.143   9.318 -1.4977  0.5453 -1.5095
  3604G12c C00A66805   3.525   4.047   9.409  0.3104 -0.8975 -1.0403
  3604G12c C00966806   3.494   4.042   9.558 -0.8988  0.0397 -2.1338
  3604G12c C00866807   3.415   4.126   9.634 -0.6359  0.1985 -2.0143
  3604G12c H01366808   3.358   4.214   9.608 -3.5001  1.3653  6.5474
  3604G12c C00766809   3.421   4.096   9.782 -2.3672 -1.4173  1.0148
  3604G12c H01466810   3.408   4.159   9.869  2.4873 -0.2363  1.0250
  3604G12c C00666811   3.534   4.041   9.848 -0.0502  0.6920  0.0521
  3604G12c C00566812   3.629   3.994   9.752  1.4167  1.6701  1.4833
  3604G12c C00466813   3.770   3.974   9.783 -0.2683 -0.7911  0.0804
  3604G12c C00366814   3.866   3.929   9.677 -0.8127  0.4872  1.2486
  3604G12c C00266815   4.004   3.912   9.726 -0.2067  0.7731 -0.8657
  3604G12c C00166816   4.129   3.905   9.664 -1.3120 -1.0997 -1.7658
  3604G12c C00M66817   4.161   3.985   9.540  2.4632 -0.0137  0.9165
  3604G12c C00L66818   4.065   3.990   9.429  2.3831  0.2027  0.1806
  3604G12c C00R66819   4.097   4.057   9.304  0.2883  0.6113 -0.5734
  3604G12c C00Q66820   4.207   4.144   9.251 -1.0538 -0.7588 -0.9792
  3604G12c C00V66821   4.165   4.215   9.147 -0.6545 -0.0843 -0.5421
  3604G12c C00U66822   4.033   4.250   9.106  0.4900 -0.7938 -1.6579
  3604G12c C00T66823   3.925   4.185   9.172  0.1047 -0.9648 -0.6826
  3604G12c C01666824   3.788   4.212   9.150  0.2830  0.7427 -0.9700
  3604G12c C01566825   3.765   4.300   9.049 -0.7336 -1.4493  0.3673
  3604G12c C01066826   3.859   4.368   8.974 -0.7910  1.0565 -0.0867
  3604G12c C01166827   3.830   4.424   8.842 -0.0691 -1.2257  0.1957
  3604G12c H00566828   3.905   4.442   8.767  3.9679 -5.7307  2.8660
  3604G12c C01266829   3.689   4.424   8.805 -0.2919 -0.9491 -0.1607
  3604G12c C01766830   3.654   4.474   8.671  1.9429  0.5587  0.1473
  3604G12c O00266831   3.748   4.553   8.621  1.0373  0.1348  1.3091
  3604G12c H00466832   3.702   4.599   8.553  7.7654  2.5908 -2.0073
  3604G12c C01866833   3.540   4.441   8.613 -1.0182  1.5285 -0.9643
  3604G12c O00166834   3.457   4.354   8.675 -0.5225  0.6460  0.4143
  3604G12c H00366835   3.493   4.346   8.762 -1.3959 -1.3654  0.6080
  3604G12c C01966836   3.498   4.477   8.481  0.0905  0.0593 -0.5785
  3604G12c H00266837   3.460   4.395   8.419  4.7028 -1.0082 -2.2334
  3604G12c H00166838   3.416   4.520   8.537  1.4094 -0.4462  1.8003
  3604G12c O00066839   3.555   4.581   8.412 -0.6874 -1.5413 -0.0786
  3604G12c C01A66840   3.652   4.533   8.313 -0.6007 -0.1093 -0.2227
  3604G12c C02K66841   3.729   4.423   8.307  0.0229  0.0068  0.2123
  3604G12c O00G66842   3.713   4.325   8.389 -1.9060  0.2837 -0.3818
  3604G12c C02M66843   3.665   4.198   8.347 -0.8088  1.2639  0.3609
  3604G12c H01G66844   3.558   4.184   8.367 -0.5621 -1.5139 -0.0370
  3604G12c H01F66845   3.697   4.159   8.251 -2.5888  4.5466 -1.6650
  3604G12c H01E66846   3.692   4.150   8.441 -6.9068 -0.9752  1.2526
  3604G12c C02J66847   3.798   4.406   8.192  0.7424  1.3694  0.4322
  3604G12c H01H66848   3.876   4.333   8.178  1.4934  0.9688  5.7166
  3604G12c C02I66849   3.837   4.499   8.104 -1.2918  0.5751 -0.1758
  3604G12c C02N66850   3.907   4.477   7.975 -2.3109 -0.4551  3.2772
  3604G12c H01M66851   3.861   4.409   7.904  1.9949 -1.2018  1.0584
  3604G12c C02O66852   4.003   4.559   7.924  0.9976 -0.3461 -1.5137
  3604G12c H01L66853   4.048   4.627   7.995  0.6155 -3.1664  1.5292
  3604G12c C02P66854   4.049   4.554   7.763  0.0582 -1.0716 -0.8835
  3604G12c H01K66855   4.148   4.509   7.770 -1.2286 -3.8822 -0.0425
  3604G12c H01J66856   3.977   4.559   7.681  2.7862  0.5428 -3.2801
  3604G12c O00H66857   4.130   4.666   7.737 -0.4461  1.5953 -1.6540
  3604G12c H01I66858   4.143   4.712   7.818  0.0258 -3.5378  1.3759
  3604G12c C02H66859   3.801   4.626   8.128  1.0312 -0.4181 -0.6446
  3604G12c H01C66860   3.782   4.697   8.049 -6.4341 -4.7165 -3.2635
  3604G12c C02L66861   3.706   4.631   8.238  0.4544  1.2588  0.8644
  3604G12c H01D66862   3.642   4.718   8.243 -0.5368  0.3744  4.5791
  3604G12c C01366863   3.593   4.403   8.909 -0.2376 -1.7334 -0.8117
  3604G12c H00066864   3.499   4.449   8.879 -0.0171  0.2692  1.3715
  3604G12c C01466865   3.624   4.325   9.024 -0.5652  0.8151  0.4945
  3604G12c C00F66866   3.529   4.267   9.114 -0.2221  0.1553 -0.5145
  3604G12c C00H66867   3.687   4.134   9.221 -1.1100  1.2615  0.6668
  3604G12c C00I66868   3.731   4.048   9.318  1.7014  0.1321 -1.2836
  3604G12c C00J66869   3.871   4.029   9.334 -0.6461 -0.1383  0.8079
  3604G12c C00Z66870   3.993   4.355   9.017  1.6332  0.3363  1.4819
  3604G12c C00Y66871   4.084   4.419   8.946  1.0458 -0.6486 -0.6577
  3604G12c H00666872   4.075   4.501   8.877  2.1125 -0.6807 -0.8449
  3604G12c C00X66873   4.208   4.398   8.984  0.8716 -0.7899 -0.5233
  3604G12c O00366874   4.306   4.467   8.907  1.1738 -0.0624 -1.9997
  3604G12c C01B66875   4.399   4.388   8.830  0.0563  2.1556 -0.1760
  3604G12c H00966876   4.330   4.354   8.752  0.7849  0.6364 -0.1772
  3604G12c H00866877   4.460   4.322   8.893 -7.1691  0.9652  6.4220
  3604G12c H00766878   4.471   4.465   8.806  0.3184  2.2326  0.8427
  3604G12c C00W66879   4.247   4.313   9.081  0.4023  0.7713 -0.3190
  3604G12c O00466880   4.379   4.353   9.135 -0.2417 -0.2713  0.2327
  3604G12c C01C66881   4.412   4.299   9.264 -0.9935  0.3618 -0.2647
  3604G12c H00A66882   4.455   4.371   9.332  2.8888 -3.3631  1.5258
  3604G12c C00P66883   4.322   4.187   9.324 -1.3106 -0.1722  1.3628
  3604G12c C00O66884   4.356   4.139   9.460 -0.2142  0.5477  0.5286
  3604G12c C01D66885   4.467   4.202   9.533 -0.3737 -0.2890 -0.9997
  3604G12c H00S66886   4.534   4.266   9.477 -0.0137 -3.0894 -3.8939
  3604G12c C01E66887   4.460   4.225   9.666 -0.3336 -0.0357 -0.1364
  3604G12c O00866888   4.560   4.306   9.705  0.6201 -1.6230 -0.8829
  3604G12c C01V66889   4.631   4.257   9.802 -0.4464 -1.2241 -1.4540
  3604G12c C01Z66890   4.659   4.348   9.926  1.1177  1.6040  0.2909
  3604G12c H00R66891   4.567   4.405   9.944  0.3414 -1.2806  6.5959
  3604G12c H00Q66892   4.648   4.323  10.031  1.6290  0.6794  0.1297
  3604G12c O00966893   4.766   4.439   9.891  0.1806 -1.0452  1.4140
  3604G12c H00P66894   4.814   4.481   9.960  5.1865 -1.3969 -1.6007
  3604G12c C01W66895   4.732   4.166   9.754 -0.1053 -1.3878 -1.3920
  3604G12c H00O66896   4.739   4.162   9.646  0.4597 -1.7582 -1.3370
  3604G12c C01X66897   4.847   4.100   9.828 -0.5177  0.6980  0.7502
  3604G12c H00N66898   4.832   4.092   9.936 -1.5021 -1.3051  0.4830
  3604G12c H00M66899   4.843   4.000   9.785  3.2773  2.0138 -2.9415
  3604G12c C01Y66900   4.980   4.140   9.781 -0.1700 -1.9808 -0.3426
  3604G12c C02D66901   5.084   4.100   9.876 -0.3164  1.3865  0.7332
  3604G12c H01966902   5.073   4.059   9.976  3.5459 -1.3250  0.1627
  3604G12c C02C66903   5.211   4.150   9.835 -0.0294 -0.8903 -1.2862
  3604G12c H01A66904   5.292   4.152   9.905  1.5210 -3.9796 -2.8976
  3604G12c C02B66905   5.230   4.223   9.719 -1.2525  1.6660 -2.1342
  3604G12c O00E66906   5.343   4.222   9.648 -2.1605  0.0081 -0.0704
  3604G12c H01B66907   5.302   4.287   9.593  6.6029  7.2544  0.8351
  3604G12c C02F66908   5.121   4.261   9.629  1.8955  1.5906  0.2529
  3604G12c O00F66909   5.155   4.344   9.530 -0.2890  0.5038 -0.3249
  3604G12c C02G66910   5.066   4.432   9.456  1.2862  0.3384  1.5909
  3604G12c H01766911   5.023   4.380   9.371  0.6100 -0.3282  2.3217
  3604G12c H01666912   5.125   4.509   9.406  6.4503 -1.7005  4.1416
  3604G12c H01566913   4.983   4.483   9.506 -5.5816 -1.2501 -6.9708
  3604G12c C02E66914   5.000   4.212   9.667  0.7721  0.1281 -0.1448
  3604G12c H01866915   4.908   4.246   9.621 -4.2641 -6.3836  4.2802
  3604G12c C01F66916   4.374   4.133   9.734  1.2486 -1.8273 -0.4481
  3604G12c C01G66917   4.354   4.173   9.860  0.9736  0.3616  0.9958
  3604G12c H00L66918   4.418   4.250   9.901  1.2137  3.1953 -4.2049
  3604G12c C01H66919   4.255   4.091   9.924 -0.5658 -1.3528 -1.7548
  3604G12c H00B66920   4.199   4.134  10.006  0.5993 -5.3096  1.3147
  3604G12c C01I66921   4.193   3.978   9.873  0.5989 -0.3496  0.0772
  3604G12c C01U66922   4.312   4.015   9.675  1.0279 -1.1452  1.0359
  3604G12c C00S66923   3.963   4.073   9.248  1.6161  0.1436 -0.2514
  3604G12c C00K66924   3.931   3.956   9.439  1.0278 -1.3842 -1.3022
  3604G12c C00N66925   4.284   4.043   9.541 -0.4813  0.3170 -2.4374
  3604G12c C00066926   4.236   3.917   9.754 -0.0845 -0.5750  0.5506
  3604G12c C01J66927   4.044   3.963   9.852 -2.1061  2.4005 -0.0782
  3604G12c C01K66928   3.946   4.005   9.958  0.2058 -0.9288 -0.1711
  3604G12c C01P66929   3.979   4.032  10.093  0.4324 -0.5177 -2.4485
  3604G12c C01Q66930   4.104   4.011  10.166 -1.1777  1.0862  0.2692
  3604G12c H00G66931   4.175   4.087  10.196  2.5778 -1.3385 -2.0135
  3604G12c C01R66932   4.125   3.879  10.199  0.2369 -0.4677 -2.0004
  3604G12c H00F66933   4.067   3.803  10.149 -4.3074  4.4092 -4.6123
  3604G12c C01S66934   4.222   3.830  10.306 -0.2867 -1.6909  0.4458
  3604G12c H00E66935   4.230   3.721  10.314 -2.1318 -1.7259  2.2577
  3604G12c H00D66936   4.327   3.818  10.281  0.1726 -2.7988  2.8374
  3604G12c O00566937   4.129   3.834  10.418 -0.5774 -0.4242  1.4097
  3604G12c H00C66938   4.056   3.889  10.394 -3.1741 -3.0169  3.1033
  3604G12c C01O66939   3.883   4.089  10.173 -0.6707 -0.6863  0.3993
  3604G12c H00H66940   3.888   4.104  10.280 -1.5926  3.8946 -0.0680
  3604G12c C01N66941   3.751   4.103  10.125  1.3499 -0.1325 -0.8842
  3604G12c O00666942   3.649   4.174  10.172 -0.1204 -0.0810 -1.3475
  3604G12c C01T66943   3.655   4.278  10.263  0.8258  0.7374  1.3417
  3604G12c H00K66944   3.760   4.305  10.270  1.3463 -1.8657  5.6449
  3604G12c H00J66945   3.636   4.251  10.367 -1.9470 -2.5464  0.0924
  3604G12c H00I66946   3.627   4.383  10.251  2.5770  1.3110  2.0684
  3604G12c C01M66947   3.717   4.044  10.004  0.4811 -0.1042  0.6552
  3604G12c C02066948   3.829   3.927   9.539 -0.9278 -0.7212  0.5274
  3604G12c C02166949   3.690   3.915   9.519 -0.2215 -0.6750 -1.0486
  3604G12c C01L66950   3.813   4.007   9.912  0.6347  0.4214 -0.4954
  3604G12c O00766951   3.573   4.061   9.976 -0.3876  0.3596 -0.7799
  3604G12c C02266952   3.603   3.974   9.617  1.6478  2.0431  0.9677
  3604G12c C02366953   3.646   3.965   9.394  0.8667  0.1703  0.5992
  3604G12c C00G66954   3.554   4.177   9.215 -0.1341 -0.6288  0.0518
  3604G12c C00E66955   3.406   4.295   9.097  0.1970  0.7707  1.2559
  3604G12c O00A66956   3.352   4.300   8.962  1.0065  0.0052 -1.1135
  3604G12c C02466957   3.321   4.167   8.922 -0.1557 -0.7278  0.2055
  3604G12c H00V66958   3.235   4.151   8.986  2.7851 -0.7026  4.4062
  3604G12c H00U66959   3.302   4.195   8.819  0.1271  4.0741  1.3339
  3604G12c H00T66960   3.389   4.090   8.960 -0.0079  1.0150  3.6688
  3614G12c C00D66961   5.370   6.839  11.466 -1.4708  0.5207  0.0319
  3614G12c O00B66962   5.333   6.720  11.383  0.7591 -0.0107  0.6771
  3614G12c C02566963   5.417   6.609  11.346 -0.3382 -0.7101  0.0216
  3614G12c C02666964   5.347   6.478  11.385 -0.2604  1.0296 -0.6138
  3614G12c H00Y66965   5.383   6.409  11.308  2.7611 -6.5003  6.7721
  3614G12c H00X66966   5.241   6.487  11.362 -0.5180 -4.0044 -2.0671
  3614G12c O00C66967   5.367   6.435  11.526  0.2348 -0.1788 -0.8237
  3614G12c H00W66968   5.298   6.404  11.582 -1.4222  3.5079 -0.6741
  3614G12c C02766969   5.527   6.623  11.283 -1.9486 -1.5114 -0.3845
  3614G12c O00D66970   5.556   6.751  11.243 -0.2584 -0.0772 -0.9691
  3614G12c H00Z66971   5.500   6.826  11.259 -4.3892 -3.2624  0.3477
  3614G12c C02866972   5.606   6.519  11.228 -0.4337 -1.8822  2.9456
  3614G12c C02966973   5.605   6.506  11.094 -2.1420  0.0516 -0.6533
  3614G12c H01066974   5.591   6.600  11.043  4.5550  0.3198 -2.3964
  3614G12c C02T66975   5.667   6.394  11.026  0.3573  0.2522  1.6847
  3614G12c H01O66976   5.703   6.416  10.927 -5.4349 -1.0743 -0.9071
  3614G12c C02S66977   5.736   6.283  11.086  0.3041  0.2385  1.7650
  3614G12c O00J66978   5.802   6.191  11.002  0.1964  1.3916  0.8371
  3614G12c H01P66979   5.778   6.189  10.910  4.3130  1.1734 -0.2988
  3614G12c C02R66980   5.745   6.319  11.227 -0.7064 -1.0384  0.2291
  3614G12c O00I66981   5.810   6.223  11.295 -1.5592 -0.0203  0.2836
  3614G12c C02Q66982   5.946   6.269  11.311  0.0356  1.3799 -2.1999
  3614G12c H01N66983   6.004   6.177  11.302  3.7428  3.4808 -0.6720
  3614G12c H01R66984   5.988   6.316  11.400 -1.3292 -2.3176  0.5583
  3614G12c H01Q66985   5.980   6.336  11.233  1.8048  0.7284 -2.0079
  3614G12c C02A66986   5.667   6.418  11.302  0.8394  0.5525 -1.9846
  3614G12c H01166987   5.621   6.368  11.386 -7.5345  4.8736 -3.3993
  3614G12c C00C66988   5.515   6.830  11.517  1.5227  1.0348 -1.4009
  3614G12c H01266989   5.591   6.757  11.493  4.1423  0.2995  7.4488
  3614G12c C00B66990   5.563   6.892  11.621 -1.4113  0.1533 -0.6245
  3614G12c C00A66991   5.686   6.854  11.703  1.4674 -1.2900  0.2162
  3614G12c C00966992   5.726   6.722  11.736  2.3012 -0.2823 -0.6905
  3614G12c C00866993   5.756   6.613  11.657  0.8463  0.4251 -1.5189
  3614G12c H01366994   5.714   6.591  11.560 -3.0953 -0.3443  0.2409
  3614G12c C00766995   5.824   6.504  11.727 -0.5250 -1.3360  1.3113
  3614G12c H01466996   5.827   6.409  11.675  0.1319 -0.8808  0.4992
  3614G12c C00666997   5.834   6.480  11.861 -1.1480  1.1206 -0.9341
  3614G12c C00566998   5.826   6.600  11.922  0.6569 -0.3691 -0.4718
  3614G12c C00466999   5.819   6.608  12.064 -0.3849 -2.3279 -1.3179
  3614G12c C00367000   5.802   6.735  12.128  1.2881 -0.6883 -0.4520
  3614G12c C00267001   5.789   6.728  12.272 -0.9336  0.2716 -0.8794
  3614G12c C00167002   5.748   6.841  12.352 -0.8129 -0.7079 -2.0257
  3614G12c C00M67003   5.646   6.942  12.344  0.4197 -0.9381 -0.4680
  3614G12c C00L67004   5.617   6.992  12.229  0.3816  1.1596  0.3408
  3614G12c C00R67005   5.500   7.053  12.201  2.1551 -1.3026 -0.0194
  3614G12c C00Q67006   5.392   7.112  12.278 -0.5557 -1.8022 -0.0837
  3614G12c C00V67007   5.293   7.185  12.208  0.6172  0.8708  0.9438
  3614G12c C00U67008   5.295   7.205  12.057  2.0847 -0.0878  1.0261
  3614G12c C00T67009   5.402   7.163  11.998 -0.6450  1.3318 -0.3161
  3614G12c C01667010   5.413   7.123  11.859  1.0229 -0.6411 -0.2835
  3614G12c C01567011   5.305   7.176  11.787  0.0928  1.3228  0.9925
  3614G12c C01067012   5.213   7.260  11.845 -0.5844 -0.3372 -1.5922
  3614G12c C01167013   5.122   7.346  11.768  0.3595  1.1441 -0.0037
  3614G12c H00567014   5.041   7.413  11.793 -0.8304 -0.7514  1.3333
  3614G12c C01267015   5.138   7.335  11.620  0.8832  2.3485  1.0085
  3614G12c C01767016   5.084   7.434  11.530 -1.4847  1.2391 -1.4413
  3614G12c O00267017   5.137   7.554  11.554 -0.0110 -0.6191  0.3619
  3614G12c H00467018   5.143   7.594  11.639 -5.7864 -0.5313  0.8880
  3614G12c C01867019   4.958   7.414  11.497  1.7408  0.6961 -0.0773
  3614G12c O00167020   4.882   7.305  11.479 -1.5362 -1.2567  0.6702
  3614G12c H00367021   4.831   7.301  11.399  4.0258  0.1186 -3.2505
  3614G12c C01967022   4.857   7.524  11.459 -0.2004 -0.7726 -0.4753
  3614G12c H00267023   4.896   7.615  11.505  7.9185 -6.4604  5.5150
  3614G12c H00167024   4.905   7.549  11.365  0.0248 -0.1640 -0.1995
  3614G12c O00067025   4.731   7.491  11.457  0.4632  1.0549  0.4593
  3614G12c C01A67026   4.655   7.584  11.516  0.4117  1.2388 -0.2638
  3614G12c C02K67027   4.613   7.714  11.465  0.5936 -0.0461  0.1624
  3614G12c O00G67028   4.575   7.729  11.331 -0.1349  0.8738 -0.8566
  3614G12c C02M67029   4.546   7.610  11.242 -0.2754  0.6903 -0.7737
  3614G12c H01G67030   4.505   7.532  11.306  1.8756  1.4526  1.6628
  3614G12c H01F67031   4.643   7.569  11.215  2.0428  4.5995  1.1005
  3614G12c H01E67032   4.563   7.620  11.135 -4.9544 -2.9204 -1.9830
  3614G12c C02J67033   4.615   7.829  11.544  1.8392 -0.0378  0.7542
  3614G12c H01H67034   4.578   7.901  11.473  2.1758  2.3480  2.9418
  3614G12c C02I67035   4.611   7.838  11.692  0.1745  0.9157  1.7079
  3614G12c C02N67036   4.603   7.953  11.764  1.2600 -0.5694 -0.7639
  3614G12c H01M67037   4.614   7.935  11.870 -0.1816 -4.1582 -1.1298
  3614G12c C02O67038   4.591   8.069  11.712  1.2387 -0.5207  1.2757
  3614G12c H01L67039   4.594   8.065  11.604 -2.5559 -8.8385  1.0195
  3614G12c C02P67040   4.595   8.210  11.781  0.5932 -0.7861 -0.1019
  3614G12c H01K67041   4.643   8.303  11.748  1.3074 -0.1954  2.4909
  3614G12c H01J67042   4.501   8.258  11.757  2.1440  3.6281  2.0120
  3614G12c O00H67043   4.655   8.193  11.919 -0.9654  0.1542  0.2059
  3614G12c H01I67044   4.637   8.103  11.940  0.3838 -0.5050 -1.4031
  3614G12c C02H67045   4.643   7.718  11.738 -0.5501 -0.8280 -0.5161
  3614G12c H01C67046   4.646   7.705  11.845  3.0426  1.9900 -0.1553
  3614G12c C02L67047   4.670   7.602  11.655  1.0836  0.3060 -0.3413
  3614G12c H01D67048   4.721   7.516  11.696  1.8062  1.0336  0.2889
  3614G12c C01367049   5.235   7.251  11.573 -2.2265  1.5258 -0.4929
  3614G12c H00067050   5.269   7.221  11.475  2.3616 -1.5941  1.8681
  3614G12c C01467051   5.303   7.148  11.649  1.5550  0.4178  0.3328
  3614G12c C00F67052   5.365   7.034  11.602 -1.0769 -1.0346 -1.1646
  3614G12c C00H67053   5.497   7.031  11.798 -0.3873  1.3278  0.4668
  3614G12c C00I67054   5.613   7.010  11.878  0.0936 -0.4011  1.0719
  3614G12c C00J67055   5.606   7.032  12.019  0.6286 -0.9246 -0.1773
  3614G12c C00Z67056   5.200   7.264  11.986 -2.1410  0.2241  0.7012
  3614G12c C00Y67057   5.097   7.329  12.063 -0.5358 -1.1488 -1.1529
  3614G12c H00667058   5.014   7.348  11.996 -0.9252  0.2060 -0.2998
  3614G12c C00X67059   5.072   7.300  12.190 -0.0131 -1.4822 -0.3027
  3614G12c O00367060   4.980   7.384  12.260  0.5340  0.7512  2.1524
  3614G12c C01B67061   4.876   7.317  12.320  0.0778 -1.7233  0.3692
  3614G12c H00967062   4.787   7.278  12.270 -4.2997  1.5802  5.0320
  3614G12c H00867063   4.839   7.362  12.412 -0.4395 -4.3616  1.4909
  3614G12c H00767064   4.928   7.240  12.376  1.3627  2.4245  5.3038
  3614G12c C00W67065   5.172   7.224  12.263 -0.1725 -0.7994  0.4312
  3614G12c O00467066   5.146   7.202  12.390  0.6383 -0.5683 -1.1869
  3614G12c C01C67067   5.256   7.160  12.465  0.4999  0.7003  0.8390
  3614G12c H00A67068   5.287   7.205  12.558 -1.1999  0.5779  1.4860
  3614G12c C00P67069   5.369   7.086  12.414  0.8568 -0.2900  0.1544
  3614G12c C00O67070   5.426   6.992  12.492 -1.1398  1.5166 -0.3999
  3614G12c C01D67071   5.348   6.925  12.589 -0.4461 -0.0162  0.1651
  3614G12c H00S67072   5.260   6.982  12.616 -3.1458 -3.7876 -0.2869
  3614G12c C01E67073   5.381   6.795  12.624  1.0606 -0.1828  0.1027
  3614G12c O00867074   5.293   6.710  12.665  0.2749  0.0493 -0.2000
  3614G12c C01V67075   5.175   6.675  12.583 -0.6161  0.5092 -0.4989
  3614G12c C01Z67076   5.087   6.792  12.551  0.7357 -0.0853 -0.4897
  3614G12c H00R67077   5.112   6.853  12.638  3.0017 -0.5452 -0.7844
  3614G12c H00Q67078   5.125   6.875  12.493  0.3289  1.2634  1.1418
  3614G12c O00967079   4.949   6.769  12.582 -1.3083 -1.2305  0.2840
  3614G12c H00P67080   4.904   6.848  12.607  1.6283  1.4828 -2.4376
  3614G12c C01W67081   5.154   6.557  12.525 -1.7968 -0.4465  1.1292
  3614G12c H00O67082   5.228   6.487  12.562 -3.1079 -1.3560  2.0903
  3614G12c C01X67083   5.058   6.490  12.447 -0.2954  1.7164 -0.1221
  3614G12c H00N67084   4.975   6.474  12.515  0.7860  0.7281  1.0056
  3614G12c H00M67085   5.007   6.549  12.371 -2.9538  3.3764  2.8580
  3614G12c C01Y67086   5.109   6.369  12.391 -0.1249 -0.3868 -0.8725
  3614G12c C02D67087   5.178   6.374  12.276 -0.5544 -1.1106  1.3066
  3614G12c H01967088   5.189   6.473  12.234 -3.1253 -2.1534 -1.9972
  3614G12c C02C67089   5.236   6.266  12.215 -0.8066 -0.5516 -0.2435
  3614G12c H01A67090   5.277   6.287  12.118 -4.2755 -3.1573 -2.3748
  3614G12c C02B67091   5.236   6.140  12.272 -1.3347  0.8791 -0.2095
  3614G12c O00E67092   5.332   6.030  12.231 -0.5304 -1.2532 -0.9069
  3614G12c H01B67093   5.349   5.976  12.307  1.5756 -1.2810 -1.3665
  3614G12c C02F67094   5.168   6.131  12.395 -1.3125  1.4331  0.1237
  3614G12c O00F67095   5.189   6.004  12.448 -0.1663 -0.6156 -1.3238
  3614G12c C02G67096   5.069   5.918  12.479 -0.1441 -0.7674 -0.7517
  3614G12c H01767097   5.093   5.813  12.462 -3.7686 -1.7039 -0.5716
  3614G12c H01667098   4.999   5.944  12.400  0.2454  1.4399 -0.4091
  3614G12c H01567099   5.055   5.921  12.587  2.6756  5.4483 -0.3236
  3614G12c C02E67100   5.094   6.238  12.451 -0.4369  0.4816 -0.3092
  3614G12c H01867101   5.053   6.237  12.551 -5.2183  4.7414 -1.9982
  3614G12c C01F67102   5.511   6.745  12.609  2.4722  0.8186  1.9154
  3614G12c C01G67103   5.548   6.607  12.633  0.6287  0.2446 -0.6889
  3614G12c H00L67104   5.491   6.547  12.702 -2.8711  6.4560  2.2698
  3614G12c C01H67105   5.655   6.560  12.552  0.5823  0.2734  0.6015
  3614G12c H00B67106   5.690   6.458  12.537  6.8356  1.9011  2.3224
  3614G12c C01I67107   5.738   6.645  12.465 -0.3988 -1.3485 -1.6408
  3614G12c C01U67108   5.605   6.828  12.543 -0.0738  0.8012  0.3491
  3614G12c C00S67109   5.506   7.107  12.071 -0.4759 -0.2071 -0.6021
  3614G12c C00K67110   5.676   6.955  12.105 -0.3928 -0.3661  1.9523
  3614G12c C00N67111   5.552   6.934  12.466 -0.4821 -0.0698 -1.5492
  3614G12c C00067112   5.728   6.784  12.478 -0.9193  1.9940 -0.5503
  3614G12c C01J67113   5.791   6.610  12.332  0.7750  0.4402  0.2717
  3614G12c C01K67114   5.831   6.489  12.280 -0.9001  2.0920  1.5014
  3614G12c C01P67115   5.875   6.367  12.344 -0.9736 -2.3546 -0.0672
  3614G12c C01Q67116   5.937   6.390  12.471 -0.0166  0.6623  0.1543
  3614G12c H00G67117   5.934   6.488  12.517  3.1745  1.1443 -0.5072
  3614G12c C01R67118   5.979   6.292  12.549  0.0352  0.7786  0.0838
  3614G12c H00F67119   5.995   6.191  12.514  8.1047  1.3866  0.9818
  3614G12c C01S67120   5.993   6.283  12.703 -0.7517  1.5479 -1.1900
  3614G12c H00E67121   5.997   6.390  12.719 -1.0196  1.1372  2.0888
  3614G12c H00D67122   5.948   6.197  12.753 -2.1905  3.5972  1.1618
  3614G12c O00567123   6.137   6.250  12.707 -2.1485 -0.1898  0.7868
  3614G12c H00C67124   6.167   6.309  12.773 -2.0712  4.3251 -3.0197
  3614G12c C01O67125   5.871   6.249  12.269  0.4673 -1.4326 -0.5536
  3614G12c H00H67126   5.868   6.167  12.340 -0.8982 -0.4579  0.5508
  3614G12c C01N67127   5.893   6.267  12.130 -0.2531 -1.0980 -1.1036
  3614G12c O00667128   5.932   6.146  12.079 -1.5332  0.7335 -0.0849
  3614G12c C01T67129   6.054   6.148  12.023  0.0883 -0.5370 -0.5473
  3614G12c H00K67130   6.053   6.040  12.008  0.9060 -2.0120  7.7570
  3614G12c H00J67131   6.143   6.198  12.059  1.5916 -0.0476 -4.7055
  3614G12c H00I67132   6.013   6.170  11.924 -3.3730 -4.3915 -0.1300
  3614G12c C01M67133   5.876   6.376  12.062  1.7068  0.8349 -1.3632
  3614G12c C02067134   5.766   6.858  12.057  0.7738  0.2461  2.0249
  3614G12c C02167135   5.767   6.838  11.917  1.1693 -0.7073 -0.2567
  3614G12c C01L67136   5.822   6.491  12.134  0.1704 -0.8354 -0.9841
  3614G12c O00767137   5.873   6.358  11.928  0.2502 -0.6227  1.3075
  3614G12c C02267138   5.802   6.722  11.851  2.5275 -1.0191 -1.7293
  3614G12c C02367139   5.707   6.925  11.819  0.3633  1.3020  1.7515
  3614G12c C00G67140   5.481   6.991  11.676  0.2991  0.4335  0.6013
  3614G12c C00E67141   5.293   6.944  11.510 -0.3010 -1.7288  0.7966
  3614G12c O00A67142   5.153   6.965  11.491 -0.2778 -0.7112  0.6550
  3614G12c C02467143   5.065   6.881  11.544  0.1059  0.4264  1.0948
  3614G12c H00V67144   4.961   6.901  11.517  0.9089 -1.5821 -4.1356
  3614G12c H00U67145   5.066   6.882  11.653  0.1519 -2.2380  1.1576
  3614G12c H00T67146   5.092   6.791  11.488  3.9507  0.9120  2.0098
  3624G12c C00D67147  10.717   9.865   9.699  1.7450 -0.5544 -0.3609
  3624G12c O00B67148  10.677   9.933   9.810 -0.0715 -1.6132  0.0107
  3624G12c C02567149  10.573  10.034   9.806 -0.4884 -0.6775 -0.5450
  3624G12c C02667150  10.462   9.996   9.902 -1.1428 -1.3473  0.8963
  3624G12c H00Y67151  10.404   9.904   9.896 -0.5214 -1.6756 -0.1906
  3624G12c H00X67152  10.367  10.048   9.891 -2.7434 -4.6229 -1.7575
  3624G12c O00C67153  10.504  10.019  10.032  0.7159 -0.1885 -0.8226
  3624G12c H00W67154  10.595  10.032  10.052  0.0099  3.9684  0.0929
  3624G12c C02767155  10.585  10.127   9.694  0.0890  1.2072  0.0374
  3624G12c O00D67156  10.710  10.141   9.631 -0.7815  0.2120 -1.7225
  3624G12c H00Z67157  10.750  10.059   9.607  1.4657 -1.5266  6.4573
  3624G12c C02867158  10.453  10.171   9.635  0.3587 -0.3579 -0.6815
  3624G12c C02967159  10.436  10.304   9.584 -0.0695  1.0306  0.5433
  3624G12c H01067160  10.538  10.341   9.581  1.5756 -3.2886 -1.5835
  3624G12c C02T67161  10.322  10.329   9.513 -0.5698  0.3727 -1.4566
  3624G12c H01O67162  10.304  10.424   9.464  3.1732  6.1716  7.1085
  3624G12c C02S67163  10.214  10.241   9.486 -0.2252  0.1805 -2.0914
  3624G12c O00J67164  10.131  10.259   9.389  1.2595 -0.6846 -1.2027
  3624G12c H01P67165  10.132  10.184   9.332  2.4388 -2.1985  0.7251
  3624G12c C02R67166  10.251  10.104   9.526  2.2557 -1.3458 -0.4815
  3624G12c O00I67167  10.141  10.052   9.552  1.0362  0.4365 -0.1568
  3624G12c C02Q67168  10.134   9.921   9.591  0.9355 -0.7038 -1.2043
  3624G12c H01N67169  10.041   9.923   9.649  0.2128 -4.4257 -2.0489
  3624G12c H01R67170  10.110   9.893   9.488 -5.8736  5.2042 -1.6791
  3624G12c H01Q67171  10.205   9.878   9.662 -2.5982  0.9452  3.6060
  3624G12c C02A67172  10.355  10.065   9.610  0.1100 -1.4447 -0.0457
  3624G12c H01167173  10.395   9.966   9.626  4.0384 -0.7905 -4.5789
  3624G12c C00C67174  10.639   9.758   9.663 -0.8411  0.7318  1.9958
  3624G12c H01267175  10.535   9.772   9.687 -0.0141  4.8675  3.6658
  3624G12c C00B67176  10.679   9.658   9.569  1.1894 -1.0993  1.0092
  3624G12c C00A67177  10.601   9.577   9.501  0.2325  0.8516 -1.7264
  3624G12c C00967178  10.478   9.501   9.552 -1.9005 -2.0190 -0.4276
  3624G12c C00867179  10.374   9.505   9.651 -1.3823 -1.1340  1.4233
  3624G12c H01367180  10.395   9.552   9.746 -2.5826  3.0081 -0.2773
  3624G12c C00767181  10.289   9.398   9.662  0.0438  0.9856  0.6782
  3624G12c H01467182  10.226   9.388   9.749  4.2782  4.6755  4.4630
  3624G12c C00667183  10.278   9.305   9.565 -0.1375 -0.5539  0.4055
  3624G12c C00567184  10.370   9.311   9.470 -0.3486 -0.7447  0.2234
  3624G12c C00467185  10.396   9.193   9.403  0.2858  1.0092 -0.5448
  3624G12c C00367186  10.504   9.182   9.320  0.0038  0.3540  0.0103
  3624G12c C00267187  10.540   9.051   9.270 -1.2054 -0.2872  0.6820
  3624G12c C00167188  10.643   9.028   9.161 -0.5895 -0.1533 -0.1988
  3624G12c C00M67189  10.790   9.046   9.178 -1.0181  0.9694  0.1555
  3624G12c C00L67190  10.834   9.165   9.196  1.3962 -1.0468 -0.4174
  3624G12c C00R67191  10.951   9.181   9.274  1.4919  0.8774  0.2785
  3624G12c C00Q67192  11.078   9.104   9.304 -1.6797 -0.9074  1.3371
  3624G12c C00V67193  11.169   9.168   9.393  0.1166 -0.2657 -0.5555
  3624G12c C00U67194  11.161   9.288   9.450  1.2438  0.3487  0.3243
  3624G12c C00T67195  11.048   9.359   9.427  1.4023 -1.2733 -1.3061
  3624G12c C01667196  10.993   9.467   9.501  1.7205 -0.7733  1.8946
  3624G12c C01567197  11.070   9.527   9.599 -0.7049  1.7933  1.5594
  3624G12c C01067198  11.187   9.457   9.623  0.1731 -0.6473  0.2420
  3624G12c C01167199  11.282   9.527   9.703 -1.0344  0.1519  1.8682
  3624G12c H00567200  11.370   9.467   9.720 -1.4675 -0.6767  1.2811
  3624G12c C01267201  11.275   9.667   9.746  1.5806 -0.0617  0.9102
  3624G12c C01767202  11.397   9.702   9.798  1.0214 -0.0148  0.0262
  3624G12c O00267203  11.431   9.705   9.933  0.1329 -0.1755 -0.6180
  3624G12c H00467204  11.484   9.636   9.970  3.5496  3.0128  0.6841
  3624G12c C01867205  11.478   9.791   9.720 -0.9505  0.4695 -1.3479
  3624G12c O00167206  11.477   9.813   9.582  0.7081  0.1310  0.7378
  3624G12c H00367207  11.414   9.754   9.544  0.5913  1.7837 -1.7228
  3624G12c C01967208  11.590   9.855   9.793  0.4246  3.3666  0.7935
  3624G12c H00267209  11.551   9.875   9.893 -4.3416 -2.8797  0.4369
  3624G12c H00167210  11.676   9.789   9.805 -1.0254  1.9746  3.9115
  3624G12c O00067211  11.611   9.968   9.710 -0.6135  0.4756  0.6196
  3624G12c C01A67212  11.731  10.034   9.737 -0.1077 -1.0365 -1.0275
  3624G12c C02K67213  11.837  10.006   9.650 -0.5363  0.0893 -0.2010
  3624G12c O00G67214  11.826   9.903   9.561 -0.2075 -0.2429 -1.6703
  3624G12c C02M67215  11.807   9.949   9.422 -1.1520 -0.5599 -1.2771
  3624G12c H01G67216  11.769   9.860   9.371  1.3664 -2.4065 -0.0829
  3624G12c H01F67217  11.754  10.044   9.428  2.4188  1.3686  2.1259
  3624G12c H01E67218  11.899   9.948   9.364 -3.2680 -1.3308 -4.7615
  3624G12c C02J67219  11.973  10.056   9.684  0.9703  0.5485  0.4350
  3624G12c H01H67220  12.045  10.004   9.623  3.7967  3.0253  1.5388
  3624G12c C02I67221  12.003  10.137   9.794 -0.5934  0.5576 -0.2225
  3624G12c C02N67222  12.132  10.188   9.826  0.1448  1.0097 -1.4239
  3624G12c H01M67223  12.131  10.262   9.905  2.5564  0.8517 -1.2026
  3624G12c C02O67224  12.237  10.160   9.748  1.8051  0.6243 -0.2715
  3624G12c H01L67225  12.252  10.094   9.664 -1.9949  3.4645 -3.3673
  3624G12c C02P67226  12.364  10.237   9.785  0.0750  0.9141  0.7284
  3624G12c H01K67227  12.386  10.316   9.714  1.7581 -2.0278 -2.2058
  3624G12c H01J67228  12.343  10.310   9.862  0.5981  3.1024 -1.1561
  3624G12c O00H67229  12.469  10.159   9.808 -0.1984 -1.2508 -0.5068
  3624G12c H01I67230  12.542  10.219   9.804 -3.4227  2.7329 -3.7710
  3624G12c C02H67231  11.890  10.153   9.887  0.1348  1.1091  0.2293
  3624G12c H01C67232  11.923  10.169   9.988 -1.8605  0.2413  1.0423
  3624G12c C02L67233  11.757  10.096   9.859 -0.0897 -0.5974  0.1831
  3624G12c H01D67234  11.679  10.092   9.933  1.5982  3.0375  2.3383
  3624G12c C01367235  11.141   9.720   9.739 -0.6897 -1.6033  1.2786
  3624G12c H00067236  11.118   9.818   9.780 -0.1423  0.1130 -2.2918
  3624G12c C01467237  11.035   9.652   9.663 -0.3775  0.4943 -0.5120
  3624G12c C00F67238  10.905   9.704   9.649  1.0467 -0.2750 -0.8613
  3624G12c C00H67239  10.861   9.525   9.484 -1.5250 -0.6616  0.8893
  3624G12c C00I67240  10.773   9.479   9.389  1.0678 -0.2965  0.5551
  3624G12c C00J67241  10.828   9.369   9.316 -1.0513  1.0524 -0.2347
  3624G12c C00Z67242  11.225   9.334   9.558  1.6991 -0.0397 -0.8669
  3624G12c C00Y67243  11.336   9.262   9.607  1.7998 -0.9333 -0.1841
  3624G12c H00667244  11.415   9.269   9.680 -0.9032  3.4103  2.5937
  3624G12c C00X67245  11.333   9.122   9.571 -0.6494 -0.0402 -1.3806
  3624G12c O00367246  11.452   9.060   9.603 -0.1825  0.0227 -0.8323
  3624G12c C01B67247  11.459   8.962   9.703  0.0036  0.4604  0.0967
  3624G12c H00967248  11.518   9.005   9.784 -0.2989  0.2965  0.4045
  3624G12c H00867249  11.370   8.916   9.747  0.3449  0.1397  0.4582
  3624G12c H00767250  11.526   8.887   9.660 -0.3439  2.0095 -3.2963
  3624G12c C00W67251  11.254   9.081   9.456 -0.5268 -0.6362 -0.2857
  3624G12c O00467252  11.277   8.968   9.405 -0.4664  0.1875 -0.8917
  3624G12c C01C67253  11.206   8.907   9.316  0.2283  0.2453 -0.4124
  3624G12c H00A67254  11.252   8.823   9.265  1.7381 -1.6291  3.7423
  3624G12c C00P67255  11.087   8.965   9.270  0.4930  1.3334 -2.6082
  3624G12c C00O67256  10.990   8.879   9.211  0.3891  2.5146  0.3828
  3624G12c C01D67257  10.999   8.736   9.198  0.2171 -0.2046  3.1594
  3624G12c H00S67258  11.099   8.693   9.202  0.5299 -0.2757 -1.5140
  3624G12c C01E67259  10.886   8.641   9.206 -2.1561  1.1435  0.0900
  3624G12c O00867260  10.936   8.518   9.200  0.2170 -0.4848  1.4623
  3624G12c C01V67261  10.892   8.439   9.308  0.1501  0.3740 -0.7684
  3624G12c C01Z67262  10.949   8.504   9.441 -0.1649 -0.2359 -1.2691
  3624G12c H00R67263  11.052   8.469   9.450  1.1846  4.0076  1.0173
  3624G12c H00Q67264  10.979   8.608   9.429  2.3532 -0.8241 -0.3111
  3624G12c O00967265  10.890   8.458   9.560 -0.2464 -0.7787 -0.4015
  3624G12c H00P67266  10.962   8.450   9.621 -1.9062  1.4166  1.9378
  3624G12c C01W67267  10.882   8.307   9.287  1.6291  0.3695  1.1103
  3624G12c H00O67268  10.866   8.234   9.366 -6.0915 -1.3705 -1.6459
  3624G12c C01X67269  10.935   8.239   9.156  1.3089 -0.1095  1.5197
  3624G12c H00N67270  10.856   8.165   9.146  2.1400 -0.7778 -0.2719
  3624G12c H00M67271  10.934   8.296   9.064  0.3773  1.8792  2.7289
  3624G12c C01Y67272  11.052   8.148   9.178  1.1215  0.7319 -0.1159
  3624G12c C02D67273  11.065   8.048   9.072 -1.0743 -1.3973  0.8319
  3624G12c H01967274  10.979   8.031   9.010  0.4937 -4.5182 -0.6385
  3624G12c C02C67275  11.139   7.932   9.111 -0.8597 -0.2293  0.4597
  3624G12c H01A67276  11.099   7.850   9.052  3.9175 -3.2702  1.1837
  3624G12c C02B67277  11.209   7.924   9.227  0.0229 -0.4286  1.7552
  3624G12c O00E67278  11.248   7.800   9.251  0.2607 -0.4304  0.2487
  3624G12c H01B67279  11.272   7.808   9.342 -1.9563 -0.7588  0.8999
  3624G12c C02F67280  11.212   8.029   9.325 -1.8373 -1.3913 -0.9027
  3624G12c O00F67281  11.261   8.003   9.454 -1.1511  0.8232 -0.3865
  3624G12c C02G67282  11.390   8.070   9.491 -0.5179 -1.2140  1.1157
  3624G12c H01767283  11.435   8.088   9.394  0.4113  2.5566  2.1462
  3624G12c H01667284  11.460   8.042   9.570  2.2707 -4.9690 -2.5057
  3624G12c H01567285  11.345   8.165   9.519  2.1119  1.4368 -3.1172
  3624G12c C02E67286  11.137   8.138   9.292 -0.4341 -1.3005 -0.1588
  3624G12c H01867287  11.114   8.216   9.363  1.3927 -2.1321  1.3881
  3624G12c C01F67288  10.756   8.683   9.203  1.3749  0.3572  0.2430
  3624G12c C01G67289  10.639   8.606   9.245 -0.4571 -1.3000 -1.7826
  3624G12c H00L67290  10.668   8.504   9.266  2.1216 -1.2033 -4.5407
  3624G12c C01H67291  10.519   8.691   9.251  0.9586  0.9431  0.8581
  3624G12c H00B67292  10.429   8.654   9.298  2.5500  2.5982  5.5662
  3624G12c C01I67293  10.511   8.829   9.224  0.3708  0.0821  2.5248
  3624G12c C01U67294  10.746   8.825   9.156  1.0163  0.2125 -1.6764
  3624G12c C00S67295  10.959   9.305   9.335 -0.3384  0.6142  1.8644
  3624G12c C00K67296  10.743   9.270   9.260 -0.2989  0.5816 -0.5722
  3624G12c C00N67297  10.853   8.911   9.193 -0.0582 -1.6370  0.0255
  3624G12c C00067298  10.612   8.881   9.143 -0.2595 -0.0164 -2.6770
  3624G12c C01J67299  10.459   8.936   9.299  0.5878  0.9560  0.2526
  3624G12c C01K67300  10.327   8.961   9.361 -0.1751  0.4234  1.9130
  3624G12c C01P67301  10.206   8.885   9.342 -0.1311 -0.7867 -1.6660
  3624G12c C01Q67302  10.186   8.808   9.220 -0.8756  0.8542  0.3841
  3624G12c H00G67303  10.235   8.852   9.134 -7.7168  2.2951 -3.1403
  3624G12c C01R67304  10.133   8.694   9.203  0.0297 -0.2627  0.0065
  3624G12c H00F67305  10.099   8.660   9.299  1.3479 -3.4243 -0.5789
  3624G12c C01S67306  10.101   8.604   9.074  0.1942 -1.2008 -1.3726
  3624G12c H00E67307  10.153   8.518   9.115  2.9803  0.2833 -1.7150
  3624G12c H00D67308   9.993   8.605   9.093  0.4616  1.3606  0.2285
  3624G12c O00567309  10.141   8.660   8.945 -0.4594  0.6626  2.3230
  3624G12c H00C67310  10.211   8.611   8.905  0.8086 -0.8941  6.2871
  3624G12c C01O67311  10.081   8.905   9.412  0.6488  0.2698 -0.9862
  3624G12c H00H67312   9.985   8.858   9.393  0.8008  0.8329 -3.2742
  3624G12c C01N67313  10.091   9.008   9.505  0.8754  0.4351  0.2900
  3624G12c O00667314   9.995   9.040   9.608  0.3572 -0.7696 -0.1875
  3624G12c C01T67315   9.893   8.947   9.665  0.1455 -0.3932 -2.3899
  3624G12c H00K67316   9.919   8.842   9.679 -2.1397 -0.9039 -1.8348
  3624G12c H00J67317   9.861   8.997   9.756  2.4985 -2.4079 -0.3996
  3624G12c H00I67318   9.814   8.923   9.594 -2.2613  0.0381  0.0798
  3624G12c C01M67319  10.195   9.099   9.508  0.3740 -0.6855 -0.1774
  3624G12c C02067320  10.602   9.287   9.307 -0.3304 -0.1939  0.5540
  3624G12c C02167321  10.557   9.424   9.358 -0.8674 -0.3507 -0.8619
  3624G12c C01L67322  10.309   9.085   9.421 -1.7578  1.6504 -1.6599
  3624G12c O00767323  10.184   9.209   9.589 -0.2809 -1.0798 -0.3991
  3624G12c C02267324  10.460   9.421   9.452  0.9025  0.2038  0.0476
  3624G12c C02367325  10.646   9.534   9.381  0.3427 -1.1590  0.7480
  3624G12c C00G67326  10.815   9.626   9.573 -0.9605  0.4949  1.6075
  3624G12c C00E67327  10.854   9.826   9.725 -1.5300 -0.2092 -0.3916
  3624G12c O00A67328  10.929   9.883   9.828 -0.5081  0.2649 -0.1578
  3624G12c C02467329  10.969  10.021   9.836  0.3109 -1.1875 -0.3110
  3624G12c H00V67330  10.910  10.103   9.877  1.5177 -0.7024  0.4889
  3624G12c H00U67331  11.010  10.095   9.767  1.2151  1.2135  2.6602
  3624G12c H00T67332  11.035  10.014   9.922  2.4241-10.4646 -2.1421
  3634G12c C00D67333   9.428   0.335   7.215  1.4059  0.0784 -0.3907
  3634G12c O00B67334   9.557   0.352   7.176  0.6431  0.4336  0.7226
  3634G12c C02567335   9.575   0.478   7.111 -0.4083  0.5562 -1.4772
  3634G12c C02667336   9.595   0.599   7.213 -1.0200  0.4486 -1.5192
  3634G12c H00Y67337   9.536   0.576   7.301  0.5602 -2.0884 -1.0584
  3634G12c H00X67338   9.596   0.705   7.189  1.3946  0.3300 -2.1146
  3634G12c O00C67339   9.713   0.569   7.275 -1.4926 -0.2366 -0.4802
  3634G12c H00W67340   9.723   0.476   7.288 -0.3093 -0.5517 -3.3367
  3634G12c C02767341   9.557   0.497   6.978  0.0132 -0.8769 -1.4993
  3634G12c O00D67342   9.531   0.391   6.910  1.4520 -0.2941  0.1422
  3634G12c H00Z67343   9.545   0.316   6.966 -0.6918 -0.9142 -0.0759
  3634G12c C02867344   9.606   0.617   6.907 -0.4768  0.9347 -0.9142
  3634G12c C02967345   9.510   0.695   6.840 -1.4524  0.1476 -0.3838
  3634G12c H01067346   9.413   0.706   6.887 -3.0229  0.6984 -3.6220
  3634G12c C02T67347   9.540   0.786   6.746  0.3587 -2.4383  2.4761
  3634G12c H01O67348   9.459   0.824   6.685 -0.7127  3.6349  7.1466
  3634G12c C02S67349   9.670   0.828   6.726  0.4847 -0.0571 -2.1812
  3634G12c O00J67350   9.713   0.926   6.641  0.6056  0.4163 -0.3539
  3634G12c H01P67351   9.747   1.009   6.671  3.1829 -0.2361 -1.3391
  3634G12c C02R67352   9.770   0.771   6.816  0.8805 -1.7901  0.9386
  3634G12c O00I67353   9.892   0.837   6.806  0.6298 -0.5911  0.6546
  3634G12c C02Q67354   9.998   0.747   6.777 -0.8864  0.6562  1.1585
  3634G12c H01N67355  10.089   0.804   6.795  0.8500 -1.4866 -0.5518
  3634G12c H01R67356  10.017   0.652   6.827 -0.3722 -3.2251 -5.7891
  3634G12c H01Q67357   9.985   0.704   6.677  2.9570 -5.0921  2.8480
  3634G12c C02A67358   9.729   0.678   6.909 -0.9156  1.0946  0.8807
  3634G12c H01167359   9.793   0.607   6.958  0.4844  2.7621  1.5106
  3634G12c C00C67360   9.318   0.347   7.132 -1.3036  0.2489 -0.2411
  3634G12c H01267361   9.333   0.383   7.031  2.7484 -2.7967 -0.8566
  3634G12c C00B67362   9.186   0.330   7.153  0.6964 -0.6772 -0.2411
  3634G12c C00A67363   9.073   0.315   7.056 -0.7563 -0.7873 -1.8345
  3634G12c C00967364   9.058   0.377   6.927  0.6140  1.7359 -0.0458
  3634G12c C00867365   9.131   0.472   6.846 -0.6609 -0.6680 -1.2961
  3634G12c H01367366   9.238   0.467   6.853 -0.6401 -5.6895 -2.6820
  3634G12c C00767367   9.069   0.547   6.737  0.6725  0.6603 -0.7397
  3634G12c H01467368   9.152   0.589   6.681  0.4146  1.0303 -0.8466
  3634G12c C00667369   8.926   0.565   6.733 -0.3547  0.7669  0.2200
  3634G12c C00567370   8.852   0.509   6.840  0.8365  0.6662  0.3855
  3634G12c C00467371   8.716   0.530   6.865 -0.6963  0.7585 -1.4316
  3634G12c C00367372   8.654   0.453   6.966 -0.2386 -0.7330  1.0555
  3634G12c C00267373   8.530   0.527   6.996  0.6326  0.4267  1.1578
  3634G12c C00167374   8.440   0.520   7.105 -0.5146 -0.3186  2.5387
  3634G12c C00M67375   8.470   0.494   7.256 -0.5865 -0.2505 -0.1094
  3634G12c C00L67376   8.594   0.444   7.293 -0.8790  0.3727  0.6939
  3634G12c C00R67377   8.628   0.432   7.432 -0.3821 -0.4742  1.1682
  3634G12c C00Q67378   8.591   0.482   7.565 -0.8115 -0.7242 -1.0027
  3634G12c C00V67379   8.684   0.477   7.657  0.7077  1.0773 -1.6317
  3634G12c C00U67380   8.815   0.411   7.637  0.1778 -0.4517 -0.3576
  3634G12c C00T67381   8.854   0.379   7.509 -1.3324 -1.7626 -1.2203
  3634G12c C01667382   8.986   0.338   7.463 -1.0333 -2.4207  0.8248
  3634G12c C01567383   9.082   0.324   7.562  0.1443  0.5057  1.2105
  3634G12c C01067384   9.044   0.341   7.699  0.0558  0.3536 -0.0386
  3634G12c C01167385   9.133   0.284   7.800  1.3204 -0.6228  0.3174
  3634G12c H00567386   9.126   0.270   7.907 -3.0746 -1.1683  0.0570
  3634G12c C01267387   9.249   0.198   7.760 -0.5862 -1.9214  1.5070
  3634G12c C01767388   9.306   0.100   7.860  0.7050  1.0517 -2.0614
  3634G12c O00267389   9.269   0.121   7.985 -0.3501  0.9005  0.4081
  3634G12c H00467390   9.351   0.167   7.987 -1.4040  2.8072  0.0698
  3634G12c C01867391   9.376  -0.022   7.832 -0.3805  2.3281  0.5847
  3634G12c O00167392   9.402  -0.064   7.703  0.1585  0.6162 -0.6461
  3634G12c H00367393   9.417  -0.157   7.699  0.2204  0.6901 -5.8730
  3634G12c C01967394   9.426  -0.146   7.931  1.0651 -0.8055  0.4633
  3634G12c H00267395   9.530  -0.113   7.937  0.2517  1.8460  0.8219
  3634G12c H00167396   9.388  -0.172   8.029  0.7501  4.1430  1.7895
  3634G12c O00067397   9.426  -0.256   7.842 -0.9630 -1.3005 -1.2772
  3634G12c C01A67398   9.297  -0.298   7.808 -0.0780  1.3440  0.2951
  3634G12c C02K67399   9.304  -0.401   7.710  0.4608  2.9559 -0.1916
  3634G12c O00G67400   9.420  -0.436   7.638  0.2587  0.2208 -0.8905
  3634G12c C02M67401   9.501  -0.539   7.696 -0.3244  0.4566 -1.3304
  3634G12c H01G67402   9.430  -0.594   7.757  2.3512  0.3617  1.8428
  3634G12c H01F67403   9.545  -0.612   7.628  2.1856 -0.7034  1.4324
  3634G12c H01E67404   9.572  -0.479   7.753 -3.2723  3.8000 -1.0048
  3634G12c C02J67405   9.193  -0.476   7.666  1.0653 -1.2591  1.3947
  3634G12c H01H67406   9.201  -0.537   7.578 -1.3552 -1.3553  1.2234
  3634G12c C02I67407   9.061  -0.437   7.722  0.1769  0.2675 -0.0894
  3634G12c C02N67408   8.931  -0.491   7.669  0.4343  0.2338  0.3341
  3634G12c H01M67409   8.939  -0.556   7.584  1.6107  0.7497  0.0324
  3634G12c C02O67410   8.817  -0.445   7.719  0.5414  1.1791 -0.9485
  3634G12c H01L67411   8.814  -0.407   7.820  2.3301 -2.7682  0.6865
  3634G12c C02P67412   8.688  -0.514   7.667  0.5541  0.7873  0.8312
  3634G12c H01K67413   8.645  -0.518   7.767 -1.6102  3.1022  0.0349
  3634G12c H01J67414   8.626  -0.455   7.600  0.4617  0.1236  0.3209
  3634G12c O00H67415   8.701  -0.646   7.621 -0.0605  1.2014 -1.2537
  3634G12c H01I67416   8.699  -0.651   7.526 -0.8616  3.1119 -1.3558
  3634G12c C02H67417   9.059  -0.337   7.820 -0.2021  1.1940 -0.8182
  3634G12c H01C67418   8.983  -0.295   7.885 -0.0517  0.1906  0.0113
  3634G12c C02L67419   9.170  -0.264   7.858 -1.6570  1.1141  0.1783
  3634G12c H01D67420   9.161  -0.200   7.944  0.5802 -1.2954  2.3100
  3634G12c C01367421   9.285   0.210   7.619 -0.5890  1.6643  0.2491
  3634G12c H00067422   9.338   0.133   7.565 -3.1651  1.2286 -1.7477
  3634G12c C01467423   9.200   0.266   7.523  0.2266 -1.6022  0.5062
  3634G12c C00F67424   9.256   0.285   7.399 -0.2874  0.4042 -1.0151
  3634G12c C00H67425   9.017   0.313   7.329  2.1690  1.5954 -0.5788
  3634G12c C00I67426   8.917   0.286   7.241  0.0090 -0.5015 -0.3766
  3634G12c C00J67427   8.778   0.306   7.289  0.3187 -2.0731 -1.2196
  3634G12c C00Z67428   8.911   0.396   7.730 -1.5235 -0.8918 -0.1271
  3634G12c C00Y67429   8.878   0.443   7.861  1.0147  0.3941 -0.9907
  3634G12c H00667430   8.961   0.440   7.930 -1.9311  5.4691  3.1161
  3634G12c C00X67431   8.751   0.499   7.901  0.9084 -1.1854  1.0328
  3634G12c O00367432   8.719   0.554   8.016 -0.1582 -0.7264  0.2198
  3634G12c C01B67433   8.688   0.447   8.104  0.2236  2.6952 -2.0847
  3634G12c H00967434   8.587   0.425   8.137  0.4044 -1.2454 -3.8994
  3634G12c H00867435   8.710   0.348   8.063 -4.3428  2.0386 -3.2179
  3634G12c H00767436   8.743   0.456   8.197 -3.9298  2.3397  0.5315
  3634G12c C00W67437   8.659   0.519   7.789 -1.3012 -0.9824 -0.2489
  3634G12c O00467438   8.535   0.592   7.797  1.4471 -0.2825 -0.5040
  3634G12c C01C67439   8.429   0.577   7.710  0.9409 -1.5326 -1.4786
  3634G12c H00A67440   8.324   0.555   7.728  0.9546 -4.3269 -4.4372
  3634G12c C00P67441   8.472   0.564   7.587 -1.3028 -0.8395  0.5041
  3634G12c C00O67442   8.404   0.631   7.472  0.6978 -0.0891  0.5789
  3634G12c C01D67443   8.335   0.751   7.504 -0.2120  0.5327 -0.5706
  3634G12c H00S67444   8.384   0.784   7.595 -3.5928  0.8853  1.2073
  3634G12c C01E67445   8.282   0.840   7.407 -1.5042  0.1946 -0.7832
  3634G12c O00867446   8.281   0.975   7.431 -2.2384  1.3086 -0.5064
  3634G12c C01V67447   8.237   1.035   7.545 -1.2371 -1.1433  1.3353
  3634G12c C01Z67448   8.094   1.034   7.591 -1.4751  0.4021  0.6841
  3634G12c H00R67449   8.070   0.940   7.640  3.2929 -3.5852 -3.9458
  3634G12c H00Q67450   8.059   1.124   7.642 -3.5801 -1.1686  2.1191
  3634G12c O00967451   8.031   1.031   7.462 -0.3023 -2.3894  0.4526
  3634G12c H00P67452   8.103   1.052   7.405 -0.6772  0.7287  1.0071
  3634G12c C01W67453   8.309   1.136   7.600  0.1689  3.6558  0.0664
  3634G12c H00O67454   8.410   1.162   7.571  0.2707  2.3097 -0.8215
  3634G12c C01X67455   8.296   1.208   7.740  0.6095  0.1258 -0.0907
  3634G12c H00N67456   8.279   1.152   7.832  8.9011 -3.3849 -0.2738
  3634G12c H00M67457   8.396   1.252   7.735  1.9497 -2.3525  3.1862
  3634G12c C01Y67458   8.241   1.357   7.745 -1.5827 -1.7088  0.1069
  3634G12c C02D67459   8.105   1.388   7.728 -0.3629 -1.7787  0.8591
  3634G12c H01967460   8.039   1.303   7.717 -5.1441  1.8994 -1.1342
  3634G12c C02C67461   8.071   1.525   7.718  0.8982 -0.4566 -0.4454
  3634G12c H01A67462   7.965   1.546   7.711  1.5130  1.6403 -5.4519
  3634G12c C02B67463   8.163   1.633   7.735 -1.5960  0.0592  1.4066
  3634G12c O00E67464   8.136   1.761   7.673 -0.0959 -0.6658 -0.5692
  3634G12c H01B67465   8.068   1.740   7.611  2.8873 -4.7749 -2.6593
  3634G12c C02F67466   8.304   1.598   7.739 -0.3026 -0.6324  0.0910
  3634G12c O00F67467   8.381   1.709   7.734  0.3693 -0.2402  1.0992
  3634G12c C02G67468   8.522   1.714   7.711  0.0434 -0.3402 -2.1732
  3634G12c H01767469   8.600   1.787   7.692  1.8634 -2.8507 -4.7025
  3634G12c H01667470   8.531   1.667   7.613  1.2611  3.8403 -4.1751
  3634G12c H01567471   8.573   1.643   7.777 -7.6383 -6.0129 -1.6088
  3634G12c C02E67472   8.337   1.462   7.752 -0.1794 -0.7746  0.5068
  3634G12c H01867473   8.445   1.466   7.759  0.3160 -1.9407 -4.6355
  3634G12c C01F67474   8.298   0.806   7.273 -0.8583 -0.4907 -1.0860
  3634G12c C01G67475   8.276   0.885   7.160 -0.5109 -0.0014  1.2262
  3634G12c H00L67476   8.257   0.989   7.139 -3.2244 -1.4112 -4.3784
  3634G12c C01H67477   8.366   0.845   7.041  0.5192  0.3027  0.1856
  3634G12c H00B67478   8.384   0.914   6.960 -2.1588  0.7671 -0.0621
  3634G12c C01I67479   8.396   0.710   7.006 -0.7221  0.1471  0.9825
  3634G12c C01U67480   8.324   0.669   7.240 -0.4297  0.7181 -0.9155
  3634G12c C00S67481   8.751   0.357   7.415  0.6346  0.4431  0.0325
  3634G12c C00K67482   8.683   0.378   7.198 -0.5474 -0.1425  1.3228
  3634G12c C00N67483   8.400   0.599   7.332  0.5013 -0.0860 -0.8242
  3634G12c C00067484   8.345   0.625   7.106 -0.3700 -0.0990 -1.7738
  3634G12c C01J67485   8.478   0.635   6.906 -0.6596 -1.6707  0.2078
  3634G12c C01K67486   8.528   0.686   6.783  0.3516 -0.4161  1.8615
  3634G12c C01P67487   8.480   0.767   6.674 -0.5350 -1.0009 -0.4291
  3634G12c C01Q67488   8.368   0.863   6.672 -2.0665 -0.8280 -0.3293
  3634G12c H00G67489   8.261   0.859   6.689 -1.6538  0.5430  3.0825
  3634G12c C01R67490   8.413   0.988   6.683  0.5631 -0.9840 -0.1323
  3634G12c H00F67491   8.520   0.998   6.677  0.7580  3.1292  5.6216
  3634G12c C01S67492   8.333   1.101   6.683 -1.4788 -1.3033 -0.2858
  3634G12c H00E67493   8.305   1.128   6.581 -0.9409  2.3178  0.4811
  3634G12c H00D67494   8.233   1.079   6.721 -2.9016 -2.5633 -4.4995
  3634G12c O00567495   8.384   1.221   6.764 -0.1222 -0.0664 -0.6148
  3634G12c H00C67496   8.479   1.216   6.762  0.0822 -0.9589  4.5841
  3634G12c C01O67497   8.548   0.768   6.549  2.2640  0.4123 -0.7292
  3634G12c H00H67498   8.517   0.810   6.454  0.1432 -3.4078 -1.8298
  3634G12c C01N67499   8.668   0.701   6.541 -0.3840 -2.2419  1.7882
  3634G12c O00667500   8.738   0.721   6.414 -1.6766 -1.8381 -0.0055
  3634G12c C01T67501   8.741   0.604   6.325 -1.1805  0.5954 -0.2058
  3634G12c H00K67502   8.658   0.574   6.261 -0.9840 -0.5546  0.0835
  3634G12c H00J67503   8.785   0.526   6.386 -1.3974 -4.0012 -5.5184
  3634G12c H00I67504   8.832   0.621   6.268  4.8692 -0.2947  8.2348
  3634G12c C01M67505   8.725   0.649   6.652 -0.2114  3.0050 -0.1638
  3634G12c C02067506   8.724   0.376   7.057  1.4123  1.2725  1.0199
  3634G12c C02167507   8.850   0.333   7.001 -1.0226 -0.4229 -0.0431
  3634G12c C01L67508   8.651   0.611   6.769 -1.8547  0.5218  0.4894
  3634G12c O00767509   8.865   0.646   6.642  1.0055 -1.5356  1.1752
  3634G12c C02267510   8.912   0.400   6.910  0.9189 -0.2191  0.3534
  3634G12c C02367511   8.944   0.293   7.097  2.5687  0.2477 -0.5911
  3634G12c C00G67512   9.153   0.295   7.291  0.5709 -0.9519 -1.2668
  3634G12c C00E67513   9.399   0.280   7.350 -0.2539  0.4503  0.4289
  3634G12c O00A67514   9.531   0.286   7.420  1.0578 -0.4168  0.0218
  3634G12c C02467515   9.577   0.163   7.439  0.6582  0.2486 -2.5907
  3634G12c H00V67516   9.599   0.103   7.350 -1.5081 -0.8228 -2.4289
  3634G12c H00U67517   9.656   0.163   7.514 -0.8924  0.9129 -0.9172
  3634G12c H00T67518   9.511   0.083   7.474 -1.2680  4.7365  5.1836
  3644G12c C00D67519   4.651   5.852  11.552  1.2463  0.1116  0.9377
  3644G12c O00B67520   4.580   5.744  11.597 -0.4092  0.3801 -0.8452
  3644G12c C02567521   4.488   5.776  11.703  2.2107  0.8462 -0.2212
  3644G12c C02667522   4.337   5.821  11.694  0.1894 -0.4229  1.5498
  3644G12c H00Y67523   4.308   5.925  11.712 -3.0451  0.2803 -5.6432
  3644G12c H00X67524   4.281   5.738  11.736 -0.8013  2.2087  5.7742
  3644G12c O00C67525   4.313   5.777  11.564  0.6205  1.0408 -0.8259
  3644G12c H00W67526   4.391   5.724  11.565 -1.9928 -3.7972 -9.3912
  3644G12c C02767527   4.545   5.728  11.816 -1.7263  0.2645  0.3882
  3644G12c O00D67528   4.683   5.699  11.801 -0.0154  0.1930 -0.3987
  3644G12c H00Z67529   4.709   5.663  11.717  3.7135 -6.3999  3.1446
  3644G12c C02867530   4.492   5.775  11.946 -2.6721  0.2741 -1.4361
  3644G12c C02967531   4.488   5.916  11.984 -1.3610 -0.3283 -0.8754
  3644G12c H01067532   4.522   6.000  11.925 -6.0140  4.3866  2.6897
  3644G12c C02T67533   4.411   5.948  12.101  0.2130  2.2606  2.0937
  3644G12c H01O67534   4.383   6.050  12.123 -1.1432  3.0407 -2.6749
  3644G12c C02S67535   4.363   5.841  12.183 -1.2828 -1.8636  0.0114
  3644G12c O00J67536   4.264   5.857  12.258  0.0154  0.3811  0.8360
  3644G12c H01P67537   4.234   5.799  12.326 -0.4830  3.7784  3.6738
  3644G12c C02R67538   4.406   5.702  12.160  0.9710 -0.7295 -0.4600
  3644G12c O00I67539   4.402   5.617  12.262 -0.7301  0.0071  1.4299
  3644G12c C02Q67540   4.321   5.507  12.218 -1.4543  0.1403  1.3677
  3644G12c H01N67541   4.233   5.522  12.280 -2.7478  0.9846 -0.6389
  3644G12c H01R67542   4.358   5.413  12.259  6.6047  2.7460  1.0403
  3644G12c H01Q67543   4.310   5.471  12.116 -0.6503  3.6413 -0.0595
  3644G12c C02A67544   4.452   5.663  12.033  1.1023 -0.9825  0.4652
  3644G12c H01167545   4.501   5.569  12.013 -2.4884 -4.1124  5.2357
  3644G12c C00C67546   4.585   5.964  11.515  0.2177 -0.9359 -1.1367
  3644G12c H01267547   4.477   5.973  11.515  0.1135 -1.6431  2.1123
  3644G12c C00B67548   4.633   6.048  11.421 -0.7018  2.1377  1.0124
  3644G12c C00A67549   4.552   6.136  11.325 -0.2610 -0.6391  0.5225
  3644G12c C00967550   4.415   6.102  11.264  1.0982  0.3196  0.1719
  3644G12c C00867551   4.341   5.987  11.279 -0.1888 -0.5293 -0.0408
  3644G12c H01367552   4.360   5.892  11.329  1.5742 -1.4498 -2.3682
  3644G12c C00767553   4.252   5.967  11.167 -0.1304  1.4737 -0.4273
  3644G12c H01467554   4.190   5.879  11.176 -1.4088  2.2059 -1.8308
  3644G12c C00667555   4.234   6.063  11.050  0.6869  0.3822 -1.6511
  3644G12c C00567556   4.329   6.161  11.045  1.3874 -0.3002  1.2597
  3644G12c C00467557   4.373   6.202  10.917 -0.8181 -1.2080 -0.0552
  3644G12c C00367558   4.487   6.294  10.901 -0.2552  0.7030 -1.0724
  3644G12c C00267559   4.515   6.333  10.763 -0.0616 -3.5492 -1.3207
  3644G12c C00167560   4.631   6.399  10.724 -1.3266 -1.4132  1.5736
  3644G12c C00M67561   4.768   6.371  10.771 -1.0167 -0.0220 -0.9829
  3644G12c C00L67562   4.818   6.390  10.898  0.0337 -1.3639 -0.2520
  3644G12c C00R67563   4.948   6.350  10.953 -0.2775  0.8291  0.6718
  3644G12c C00Q67564   5.063   6.290  10.871  1.1271 -0.7940  0.3812
  3644G12c C00V67565   5.150   6.218  10.950 -0.4612  0.8381  0.9239
  3644G12c C00U67566   5.115   6.182  11.089  0.8615 -0.3463  0.3470
  3644G12c C00T67567   5.002   6.232  11.152 -1.0573  2.2477 -1.3414
  3644G12c C01667568   4.949   6.144  11.249  0.2949  1.6023  0.4091
  3644G12c C01567569   5.023   6.040  11.300 -1.1190  0.2355 -1.0648
  3644G12c C01067570   5.158   6.038  11.273  0.4891 -0.4824  1.1879
  3644G12c C01167571   5.244   5.935  11.322 -0.1068 -1.1883 -1.1686
  3644G12c H00567572   5.339   5.906  11.280 -2.0872 -4.7352 -3.4026
  3644G12c C01267573   5.200   5.859  11.424 -1.0875  0.5118  0.0569
  3644G12c C01767574   5.282   5.770  11.490  0.3294 -0.3489 -1.3611
  3644G12c O00267575   5.253   5.639  11.490  0.3488 -0.2992  1.4008
  3644G12c H00467576   5.159   5.636  11.487  0.3269 -3.7735  3.1837
  3644G12c C01867577   5.368   5.827  11.577  0.8219 -1.8563  0.7233
  3644G12c O00167578   5.399   5.958  11.611 -0.4829 -1.3730 -0.5304
  3644G12c H00367579   5.478   5.951  11.663 -3.2564 -1.0275  4.0771
  3644G12c C01967580   5.474   5.747  11.626  0.2355  1.7283 -0.0476
  3644G12c H00267581   5.515   5.675  11.557  7.5423  2.3759  3.1344
  3644G12c H00167582   5.562   5.808  11.649 -2.4056  3.3686  7.1289
  3644G12c O00067583   5.456   5.679  11.747 -0.3288  0.5774  0.1589
  3644G12c C01A67584   5.513   5.555  11.783 -0.5890  0.6413 -1.6125
  3644G12c C02K67585   5.596   5.557  11.884 -0.3731  0.1716  0.9225
  3644G12c O00G67586   5.613   5.657  11.984 -0.9419  0.0905 -0.9726
  3644G12c C02M67587   5.522   5.755  12.031 -1.6522 -0.7650  0.1179
  3644G12c H01G67588   5.559   5.852  12.065 -2.9606  0.1352 -0.9386
  3644G12c H01F67589   5.473   5.797  11.943 -0.3982 -0.0251 -0.2379
  3644G12c H01E67590   5.437   5.725  12.093 -1.1476 -5.9190 -1.4703
  3644G12c C02J67591   5.691   5.449  11.884  0.5366 -0.4382  0.2271
  3644G12c H01H67592   5.769   5.435  11.958  1.1376  3.4637  0.4059
  3644G12c C02I67593   5.695   5.351  11.782  0.4666  1.0652  0.7851
  3644G12c C02N67594   5.816   5.251  11.791  1.0118  1.1716  0.1685
  3644G12c H01M67595   5.888   5.237  11.870  2.4513 -6.0840 -2.0370
  3644G12c C02O67596   5.828   5.161  11.685  0.5307  1.3580 -1.0621
  3644G12c H01L67597   5.764   5.179  11.600 -2.2393 -1.3034  0.3766
  3644G12c C02P67598   5.939   5.059  11.682 -0.7788  1.2956  0.3167
  3644G12c H01K67599   5.949   5.025  11.579 -1.1375  3.0099 -0.3066
  3644G12c H01J67600   6.034   5.086  11.730 -4.0515  2.3694  6.6724
  3644G12c O00H67601   5.888   4.912  11.728 -0.2737 -0.1009 -0.3122
  3644G12c H01I67602   5.962   4.854  11.739 -0.7408 -1.3696 -3.4555
  3644G12c C02H67603   5.592   5.352  11.683  1.3540  1.3762 -0.8736
  3644G12c H01C67604   5.584   5.258  11.630  1.8728 -0.5322  2.2743
  3644G12c C02L67605   5.487   5.433  11.696 -0.0568 -0.5134 -0.0927
  3644G12c H01D67606   5.400   5.421  11.633 -1.9271 -8.0758  3.3422
  3644G12c C01367607   5.066   5.857  11.449  0.2401  0.3948 -2.0419
  3644G12c H00067608   5.022   5.784  11.515 -4.3577  5.1645  0.5665
  3644G12c C01467609   4.976   5.941  11.386  0.2435 -0.7411  2.1702
  3644G12c C00F67610   4.849   5.948  11.423  0.4202  0.7810 -0.7816
  3644G12c C00H67611   4.812   6.149  11.284  1.0798  0.2282 -1.4883
  3644G12c C00I67612   4.734   6.241  11.222 -0.5688 -0.1737  0.1322
  3644G12c C00J67613   4.800   6.326  11.120 -0.5556 -1.4134 -1.2253
  3644G12c C00Z67614   5.203   6.122  11.173 -0.0333 -0.3149 -0.1924
  3644G12c C00Y67615   5.343   6.121  11.127  0.6227  0.1072 -0.8133
  3644G12c H00667616   5.416   6.093  11.202 -0.8947  0.3825  0.8027
  3644G12c C00X67617   5.374   6.151  10.999 -2.2727 -1.5253 -0.4240
  3644G12c O00367618   5.492   6.110  10.936 -0.2017 -0.1793 -1.4678
  3644G12c C01B67619   5.542   5.979  10.975  1.0443 -0.1249  1.4869
  3644G12c H00967620   5.518   5.971  11.081  0.5110 -0.2105  1.3557
  3644G12c H00867621   5.651   5.983  10.970  1.3254  1.8996  6.1254
  3644G12c H00767622   5.505   5.882  10.943  1.3654 -1.0830  3.9292
  3644G12c C00W67623   5.288   6.188  10.905  1.8981 -0.2801  0.5538
  3644G12c O00467624   5.310   6.232  10.772  0.2340  0.2986 -0.0160
  3644G12c C01C67625   5.199   6.219  10.680 -1.7151  0.6896  0.4721
  3644G12c H00A67626   5.157   6.129  10.638 -4.1229  2.6901 -1.6173
  3644G12c C00P67627   5.077   6.276  10.733  0.7332  0.5455 -1.5975
  3644G12c C00O67628   4.988   6.322  10.626  0.4822 -0.9651  0.6690
  3644G12c C01D67629   5.020   6.300  10.491 -0.4005 -1.4183  0.0097
  3644G12c H00S67630   5.113   6.257  10.455 -0.9992 -0.8034 -2.3416
  3644G12c C01E67631   4.917   6.293  10.383 -1.0660  1.7269  0.3816
  3644G12c O00867632   4.926   6.297  10.248 -0.1667  1.3581 -0.6717
  3644G12c C01V67633   4.971   6.405  10.188  1.2434 -1.4103  0.9899
  3644G12c C01Z67634   5.002   6.356  10.044 -1.1652  0.8677 -0.3239
  3644G12c H00R67635   5.096   6.313  10.080 -1.5000  1.0293  0.7596
  3644G12c H00Q67636   5.029   6.435   9.975  0.8459  0.1203 -0.4456
  3644G12c O00967637   4.906   6.272   9.988  0.3686 -0.6605  0.1669
  3644G12c H00P67638   4.834   6.330   9.968 -0.5383  2.0212  8.9033
  3644G12c C01W67639   4.972   6.527  10.240  0.2360 -1.7996 -0.7094
  3644G12c H00O67640   4.966   6.538  10.347  0.0067 -4.8422 -0.3589
  3644G12c C01X67641   5.019   6.649  10.153 -2.4046  0.9630 -1.0600
  3644G12c H00N67642   5.032   6.712  10.241 -3.2576 -2.7827  1.8862
  3644G12c H00M67643   5.121   6.644  10.114 -2.0360  1.5855 -0.2154
  3644G12c C01Y67644   4.927   6.709  10.063  1.4127 -0.8211  0.1717
  3644G12c C02D67645   4.913   6.854  10.051  0.8770 -0.7502 -0.1444
  3644G12c H01967646   4.987   6.913  10.103 -2.4226  1.1083  2.6381
  3644G12c C02C67647   4.817   6.894   9.949 -1.8789  0.8768  0.3962
  3644G12c H01A67648   4.805   7.001   9.949 -4.1648  0.6601  1.7690
  3644G12c C02B67649   4.716   6.816   9.890  0.4016 -1.4376  0.5390
  3644G12c O00E67650   4.611   6.870   9.813  0.2536  0.4685 -0.6221
  3644G12c H01B67651   4.536   6.819   9.837 -0.7266  0.0225 -4.3791
  3644G12c C02F67652   4.721   6.677   9.924 -0.2929 -1.5927 -0.3877
  3644G12c O00F67653   4.624   6.592   9.883 -2.0660  0.2709 -0.5330
  3644G12c C02G67654   4.524   6.547   9.975  0.4901  1.4084  0.0180
  3644G12c H01767655   4.442   6.616   9.997 -7.3702 -4.3338 -8.0276
  3644G12c H01667656   4.486   6.452   9.938  3.7236  0.1294 -0.1770
  3644G12c H01567657   4.543   6.525  10.080  3.1286 -6.9114 -1.8858
  3644G12c C02E67658   4.823   6.635  10.011 -0.4189  1.5645 -1.1344
  3644G12c H01867659   4.820   6.528  10.027  9.5185  0.1810 -4.8944
  3644G12c C01F67660   4.785   6.291  10.431 -0.5109  0.8287  1.1417
  3644G12c C01G67661   4.685   6.232  10.349 -1.5964  0.4576 -1.9298
  3644G12c H00L67662   4.734   6.178  10.269  3.6947 -2.9445  3.1720
  3644G12c C01H67663   4.554   6.216  10.413 -1.2915  0.4694 -0.0079
  3644G12c H00B67664   4.469   6.150  10.412 -0.1154 -1.4621  6.1853
  3644G12c C01I67665   4.535   6.293  10.539 -1.1985 -0.7649  0.3668
  3644G12c C01U67666   4.750   6.365  10.541 -0.7297 -0.3948 -1.6741
  3644G12c C00S67667   4.933   6.334  11.094 -0.1847 -0.0224 -0.4406
  3644G12c C00K67668   4.720   6.363  10.995  1.1869  1.3776 -0.3942
  3644G12c C00N67669   4.848   6.364  10.644 -1.0662 -1.3728 -0.0762
  3644G12c C00067670   4.621   6.399  10.586 -1.4531  0.5780 -0.7949
  3644G12c C01J67671   4.440   6.276  10.656  0.3962  0.6683 -0.7167
  3644G12c C01K67672   4.323   6.198  10.659  0.3829 -1.7642 -0.5880
  3644G12c C01P67673   4.231   6.158  10.556  0.1160 -0.2507  0.5550
  3644G12c C01Q67674   4.221   6.227  10.427 -0.5206 -1.4922  1.5967
  3644G12c H00G67675   4.244   6.331  10.410  2.4811 -2.7828 -3.2567
  3644G12c C01R67676   4.191   6.171  10.307  0.7523  1.0361 -1.3102
  3644G12c H00F67677   4.167   6.066  10.316 -0.6882  1.5210  0.8558
  3644G12c C01S67678   4.195   6.233  10.172  2.2339 -0.1181 -1.2855
  3644G12c H00E67679   4.259   6.321  10.166  3.5986 -0.6129  3.6570
  3644G12c H00D67680   4.252   6.175  10.099 -0.4334 -4.6648  0.0472
  3644G12c O00567681   4.050   6.260  10.161 -0.0316 -0.1211 -1.2398
  3644G12c H00C67682   4.028   6.342  10.203  0.3285  0.4098 -2.0703
  3644G12c C01O67683   4.119   6.077  10.594 -1.8128 -0.9294  0.4738
  3644G12c H00H67684   4.073   6.023  10.512  1.2966 -0.7895 -1.4395
  3644G12c C01N67685   4.096   6.050  10.723  0.2920 -1.6396  0.0725
  3644G12c O00667686   3.976   6.002  10.769 -0.4955 -0.1489 -0.5798
  3644G12c C01T67687   3.858   5.988  10.677  0.9211 -0.1390  1.3550
  3644G12c H00K67688   3.880   5.992  10.570 -1.6047 -2.5429  0.7079
  3644G12c H00J67689   3.798   6.078  10.694 -2.5413 -2.6001  2.5352
  3644G12c H00I67690   3.777   5.916  10.687 -9.1524 10.1201  4.2375
  3644G12c C01M67691   4.168   6.111  10.831 -0.0653  0.2401  0.7029
  3644G12c C02067692   4.579   6.323  11.011 -0.9607 -0.2504 -0.0117
  3644G12c C02167693   4.524   6.265  11.139 -0.4161 -1.2907 -1.5963
  3644G12c C01L67694   4.297   6.163  10.798  1.6424 -0.1512 -0.1361
  3644G12c O00767695   4.132   6.064  10.955  1.0337 -0.6899 -1.0717
  3644G12c C02267696   4.397   6.203  11.160  0.2698  0.1333  0.9576
  3644G12c C02367697   4.601   6.237  11.248  0.3988 -0.9148 -0.7400
  3644G12c C00G67698   4.765   6.055  11.378  1.1974  0.4237 -0.6308
  3644G12c C00E67699   4.782   5.841  11.501 -0.5317 -0.8101  1.5298
  3644G12c O00A67700   4.826   5.710  11.546  0.1506 -0.0071  0.2299
  3644G12c C02467701   4.828   5.626  11.442  0.7082  0.4122 -0.1799
  3644G12c H00V67702   4.901   5.624  11.360 -2.9092 -2.6158 -3.5665
  3644G12c H00U67703   4.730   5.619  11.396  1.3555  8.4893 -3.5155
  3644G12c H00T67704   4.835   5.525  11.483  2.2060 -1.3242 -4.4038
  3654G12c C00D67705  11.837   2.485   8.292 -0.7930 -0.1713 -0.4066
  3654G12c O00B67706  11.934   2.548   8.375  0.8331 -1.7973  0.4621
  3654G12c C02567707  11.884   2.620   8.480  0.5975 -1.1406  0.3130
  3654G12c C02667708  11.770   2.722   8.435  0.5317 -0.4727 -0.2337
  3654G12c H00Y67709  11.668   2.693   8.410  1.0478 -1.3619 -1.3311
  3654G12c H00X67710  11.827   2.759   8.350  3.5759 -5.9915 -0.7737
  3654G12c O00C67711  11.781   2.862   8.477  0.9631  1.2000 -1.7108
  3654G12c H00W67712  11.753   2.923   8.410  5.7491  4.2674 -1.0812
  3654G12c C02767713  11.930   2.609   8.601 -1.3964 -0.2295  0.5224
  3654G12c O00D67714  12.034   2.553   8.643  0.5273  1.7629  1.4768
  3654G12c H00Z67715  12.088   2.528   8.570 -1.1200  1.6334  0.2462
  3654G12c C02867716  11.898   2.696   8.716  2.6770 -0.4681 -0.8046
  3654G12c C02967717  11.983   2.806   8.768  0.4240  1.5096  3.1605
  3654G12c H01067718  12.089   2.794   8.753  0.3042 -1.0021  4.1263
  3654G12c C02T67719  11.930   2.932   8.820 -0.2340  0.0351  0.2622
  3654G12c H01O67720  11.980   3.026   8.839  0.0764  0.4439 -2.3794
  3654G12c C02S67721  11.801   2.912   8.868  0.7424  1.5812 -0.3590
  3654G12c O00J67722  11.743   3.010   8.954  1.3477 -0.3119 -0.8800
  3654G12c H01P67723  11.662   2.982   8.993 -1.0653  7.1184  0.2704
  3654G12c C02R67724  11.709   2.822   8.828  0.8246  0.6414 -0.1479
  3654G12c O00I67725  11.594   2.829   8.910  1.7060 -0.2700 -0.2814
  3654G12c C02Q67726  11.482   2.774   8.848  0.5455 -0.5750 -0.7796
  3654G12c H01N67727  11.448   2.851   8.779  1.4465  0.8256  0.3225
  3654G12c H01R67728  11.409   2.771   8.930  1.5244 -2.4116  0.0462
  3654G12c H01Q67729  11.494   2.667   8.829  1.4520 -1.7523  5.2529
  3654G12c C02A67730  11.757   2.707   8.754  0.5433  1.0034 -0.0385
  3654G12c H01167731  11.690   2.640   8.701  1.3156  3.1205 -3.9334
  3654G12c C00C67732  11.698   2.471   8.313  0.6341 -0.3607  1.6864
  3654G12c H01267733  11.668   2.492   8.414 -0.6148  1.8006  0.9146
  3654G12c C00B67734  11.623   2.423   8.207  0.4400 -0.7432 -2.5143
  3654G12c C00A67735  11.480   2.427   8.195 -1.1084 -0.8341 -0.0268
  3654G12c C00967736  11.390   2.456   8.292 -0.2614  1.8448  1.9604
  3654G12c C00867737  11.391   2.495   8.428 -2.2027 -0.6971 -0.2292
  3654G12c H01367738  11.479   2.539   8.472  0.4833 -3.0992 -2.9401
  3654G12c C00767739  11.297   2.443   8.524 -0.4906  1.4608 -0.5448
  3654G12c H01467740  11.289   2.471   8.628  0.4206 -0.8854  0.1767
  3654G12c C00667741  11.169   2.394   8.475  1.5589 -0.5002 -0.2382
  3654G12c C00567742  11.166   2.348   8.338 -1.2493  0.0624  0.3223
  3654G12c C00467743  11.074   2.269   8.278  0.1573  0.8170 -0.3565
  3654G12c C00367744  11.104   2.209   8.148  1.1893  0.6378  0.2585
  3654G12c C00267745  11.015   2.115   8.100  1.0066  0.1512  0.3160
  3654G12c C00167746  10.990   2.039   7.969 -1.0269 -0.0107  0.7937
  3654G12c C00M67747  11.096   1.988   7.891 -0.9870 -0.1107 -0.6540
  3654G12c C00L67748  11.226   2.051   7.887 -0.9623  1.0475  0.8761
  3654G12c C00R67749  11.359   1.999   7.831 -0.0912  0.4464 -1.3523
  3654G12c C00Q67750  11.397   1.863   7.802 -0.9953  0.8414  1.4758
  3654G12c C00V67751  11.530   1.859   7.767  0.9029 -0.4654 -1.6945
  3654G12c C00U67752  11.624   1.962   7.803 -0.8365  1.0211 -0.7235
  3654G12c C00T67753  11.592   2.074   7.873 -2.0600  1.4727 -0.8299
  3654G12c C01667754  11.670   2.176   7.926  0.3584 -0.0902  1.6486
  3654G12c C01567755  11.797   2.149   7.940  0.1599  0.9789  0.7133
  3654G12c C01067756  11.847   2.036   7.875  0.2175 -1.2994  0.3853
  3654G12c C01167757  11.987   2.038   7.855  0.0598 -0.8528  0.4036
  3654G12c H00567758  12.031   1.951   7.809  1.4819 -0.0864  0.2983
  3654G12c C01267759  12.070   2.150   7.884 -0.4287 -0.4103  0.0106
  3654G12c C01767760  12.213   2.134   7.849 -0.0691  1.1663  0.3953
  3654G12c O00267761  12.229   2.215   7.744 -0.9126 -0.5079  0.0428
  3654G12c H00467762  12.296   2.193   7.681 -1.3673  0.2075 -0.7201
  3654G12c C01867763  12.298   2.027   7.896 -1.1440 -1.0365  1.1831
  3654G12c O00167764  12.248   1.939   7.979  0.4039  1.3516  0.8132
  3654G12c H00367765  12.303   1.862   7.969 -1.7563 -0.6092  3.2213
  3654G12c C01967766  12.424   1.980   7.828  1.5479  0.0734  0.6614
  3654G12c H00267767  12.496   2.053   7.793 -2.0040 -0.5720 -9.5853
  3654G12c H00167768  12.453   1.966   7.932 -0.6053  3.5601  1.7971
  3654G12c O00067769  12.403   1.865   7.749  0.3943  0.6252 -0.0015
  3654G12c C01A67770  12.482   1.855   7.638  2.1947  0.5152  0.6917
  3654G12c C02K67771  12.462   1.751   7.534 -3.4309  0.3396  1.9211
  3654G12c O00G67772  12.356   1.671   7.540 -0.6447 -0.4946 -1.3828
  3654G12c C02M67773  12.397   1.565   7.625 -0.8117  0.7334  0.0116
  3654G12c H01G67774  12.440   1.510   7.541 -6.4367 -2.4168 -0.9939
  3654G12c H01F67775  12.294   1.531   7.635 -1.8786  4.5435  3.1012
  3654G12c H01E67776  12.477   1.585   7.697  0.4808  1.4155 -1.5818
  3654G12c C02J67777  12.562   1.728   7.439 -0.9546  0.2606  1.2189
  3654G12c H01H67778  12.552   1.648   7.367 -3.2739  2.9844 -1.6373
  3654G12c C02I67779  12.694   1.787   7.435  2.0730  0.4089  1.5620
  3654G12c C02N67780  12.791   1.738   7.344  0.5593 -0.7072  0.0314
  3654G12c H01M67781  12.785   1.642   7.294  7.1656  1.3437 -5.4925
  3654G12c C02O67782  12.915   1.798   7.342  0.3757  0.2517 -0.1318
  3654G12c H01L67783  12.917   1.903   7.365 -3.6836 -0.3230  3.4188
  3654G12c C02P67784  13.021   1.744   7.242  2.0657 -1.5657 -0.4603
  3654G12c H01K67785  13.021   1.783   7.140 -0.4527 -0.5659 -0.1304
  3654G12c H01J67786  13.041   1.637   7.238 -2.9862 -2.8126  2.8408
  3654G12c O00H67787  13.138   1.779   7.298  0.0387 -0.6539 -0.2536
  3654G12c H01I67788  13.172   1.699   7.334 -0.8718  0.3987  3.1151
  3654G12c C02H67789  12.705   1.872   7.548  0.4290 -0.4494 -0.7844
  3654G12c H01C67790  12.789   1.939   7.563  0.5641 -0.2816 -2.2368
  3654G12c C02L67791  12.618   1.906   7.649  0.2153 -0.0081  0.8778
  3654G12c H01D67792  12.645   1.962   7.737 -0.8211  0.0485  1.1568
  3654G12c C01367793  12.013   2.261   7.956 -0.1681 -0.9057 -0.3630
  3654G12c H00067794  12.056   2.345   8.008 -3.2366 -2.1232  4.4016
  3654G12c C01467795  11.877   2.252   8.005 -1.4304  1.2636  2.0380
  3654G12c C00F67796  11.818   2.344   8.100 -0.6973 -2.2892 -1.2418
  3654G12c C00H67797  11.610   2.269   8.014  0.3504  1.4674 -0.6694
  3654G12c C00I67798  11.475   2.289   8.000  0.9249 -0.7517  0.6618
  3654G12c C00J67799  11.397   2.193   7.927  0.1835 -0.0293  0.6860
  3654G12c C00Z67800  11.768   1.938   7.798  2.1396 -0.7289 -2.5112
  3654G12c C00Y67801  11.815   1.830   7.729  0.4275 -0.6489 -0.0287
  3654G12c H00667802  11.920   1.821   7.703  0.0614  0.3366 -1.8772
  3654G12c C00X67803  11.739   1.724   7.692  1.4208 -0.9662  0.1750
  3654G12c O00367804  11.797   1.632   7.615 -0.2462 -0.5143  0.0887
  3654G12c C01B67805  11.831   1.698   7.485  1.1272 -0.7514 -1.3623
  3654G12c H00967806  11.929   1.694   7.439  2.4897 -0.6178  1.4234
  3654G12c H00867807  11.797   1.635   7.403 -3.9057 -3.6080  2.5959
  3654G12c H00767808  11.781   1.795   7.479  3.4646  1.5236  7.7380
  3654G12c C00W67809  11.593   1.736   7.715  0.2952 -1.0008  1.8746
  3654G12c O00467810  11.498   1.635   7.682 -0.3661 -0.0449 -1.2931
  3654G12c C01C67811  11.363   1.625   7.741 -0.1439  0.8510  1.1960
  3654G12c H00A67812  11.299   1.549   7.700  3.4466 -0.3100 -2.6549
  3654G12c C00P67813  11.312   1.750   7.789 -1.0209 -1.2393  1.5653
  3654G12c C00O67814  11.172   1.735   7.846 -1.0801 -0.9125  0.5132
  3654G12c C01D67815  11.129   1.599   7.879  1.9478  0.1328 -0.8715
  3654G12c H00S67816  11.188   1.509   7.888 -2.5771 -3.4642 -4.2568
  3654G12c C01E67817  11.007   1.589   7.948  1.4224  0.4903  1.4432
  3654G12c O00867818  10.961   1.457   7.977  0.7019  0.0500  1.5444
  3654G12c C01V67819  10.848   1.426   7.900  1.0543 -1.1028 -0.1836
  3654G12c C01Z67820  10.722   1.426   7.993  1.2626 -0.1652 -0.1982
  3654G12c H00R67821  10.684   1.364   8.075  0.5167  0.0031 -0.4100
  3654G12c H00Q67822  10.695   1.530   8.009  3.4068  0.0627  2.2366
  3654G12c O00967823  10.600   1.408   7.911  1.0480 -0.3384 -0.8520
  3654G12c H00P67824  10.560   1.332   7.950  4.0745  0.6548  4.7206
  3654G12c C01W67825  10.847   1.378   7.768 -1.8022 -2.1925 -0.5510
  3654G12c H00O67826  10.774   1.354   7.692  2.8994 -2.0520 -5.4026
  3654G12c C01X67827  10.965   1.380   7.680  0.0872 -0.6550 -0.4201
  3654G12c H00N67828  10.931   1.418   7.584  0.4614 -2.8259 -1.4588
  3654G12c H00M67829  11.038   1.423   7.749  0.0758 -3.2543  1.2873
  3654G12c C01Y67830  11.002   1.242   7.659  0.3342 -1.6499 -0.0466
  3654G12c C02D67831  11.140   1.234   7.610  0.2795  1.1443 -0.3147
  3654G12c H01967832  11.173   1.331   7.577 -0.0616  0.3401 -3.1492
  3654G12c C02C67833  11.199   1.103   7.595  0.9439  0.5791  0.6043
  3654G12c H01A67834  11.280   1.089   7.525  0.6645 -2.2910  0.8162
  3654G12c C02B67835  11.133   0.977   7.606  0.0503 -1.3891 -0.2722
  3654G12c O00E67836  11.189   0.860   7.564  0.2568  1.0221  0.6747
  3654G12c H01B67837  11.127   0.792   7.545  2.2935 -1.6246  2.9712
  3654G12c C02F67838  10.992   0.989   7.666  0.6389 -0.4488  0.6708
  3654G12c O00F67839  10.926   0.869   7.673 -0.5531  1.5864 -0.5368
  3654G12c C02G67840  10.804   0.870   7.733 -0.7418  0.7215 -1.3405
  3654G12c H01767841  10.753   0.801   7.666 -1.3470  1.0864 -1.2628
  3654G12c H01667842  10.728   0.947   7.719 -1.9045 -1.0260 -5.2507
  3654G12c H01567843  10.795   0.808   7.823  8.3333 -2.7452 -2.2864
  3654G12c C02E67844  10.945   1.123   7.697 -0.2844  0.2131  0.9441
  3654G12c H01867845  10.881   1.139   7.782 -2.0446 -1.6358  0.0325
  3654G12c C01F67846  10.930   1.700   7.994  0.4638  0.4577 -0.9328
  3654G12c C01G67847  10.857   1.701   8.109 -0.3444  0.7980 -0.3662
  3654G12c H00L67848  10.820   1.606   8.145 -1.6770 -0.1677 -3.9634
  3654G12c C01H67849  10.804   1.819   8.177 -0.5165  0.7809  0.4319
  3654G12c H00B67850  10.777   1.820   8.282 -4.7203  2.5248 -0.5564
  3654G12c C01I67851  10.853   1.938   8.117 -0.3438  2.0894 -1.1728
  3654G12c C01U67852  10.951   1.830   7.934  0.9217  2.4582 -0.3267
  3654G12c C00S67853  11.458   2.097   7.851 -0.6406  0.0413  0.0681
  3654G12c C00K67854  11.270   2.155   7.970  2.3821  1.5239 -1.7560
  3654G12c C00N67855  11.082   1.845   7.883 -0.9173  0.9939  0.9411
  3654G12c C00067856  10.902   1.939   7.986 -0.4662 -0.4197  1.7370
  3654G12c C01J67857  10.914   2.053   8.192  0.5747  0.6886  0.3992
  3654G12c C01K67858  10.895   2.102   8.330  2.3726  2.1794 -1.1513
  3654G12c C01P67859  10.787   2.066   8.425 -1.8307 -0.7768 -0.7400
  3654G12c C01Q67860  10.667   1.995   8.396  1.0860 -0.8710  1.3499
  3654G12c H00G67861  10.631   1.992   8.294  2.6456  2.5418  0.5989
  3654G12c C01R67862  10.579   1.931   8.469 -0.3491  1.1255 -1.9891
  3654G12c H00F67863  10.630   1.918   8.563 -5.3338 -3.5500  0.3412
  3654G12c C01S67864  10.464   1.859   8.401  0.7791  1.4983 -0.0680
  3654G12c H00E67865  10.379   1.886   8.462 -1.2431  2.4586 -3.1987
  3654G12c H00D67866  10.446   1.907   8.305  3.5581 -1.5834 -2.2624
  3654G12c O00567867  10.453   1.731   8.333 -0.3895 -0.6820 -0.7839
  3654G12c H00C67868  10.470   1.724   8.240  2.6344 -6.2519 -0.0173
  3654G12c C01O67869  10.781   2.141   8.550 -0.7158  0.0961  0.9580
  3654G12c H00H67870  10.691   2.143   8.609  2.6464  2.3266  6.3546
  3654G12c C01N67871  10.874   2.232   8.584  0.0481  1.5281 -1.3159
  3654G12c O00667872  10.815   2.320   8.672  0.6814  0.5185  0.6813
  3654G12c C01T67873  10.900   2.385   8.771 -2.7404 -1.2680 -0.8237
  3654G12c H00K67874  10.887   2.490   8.743 -4.1548 -0.8705  1.2219
  3654G12c H00J67875  10.870   2.356   8.871  3.6550 -7.7387 -0.3972
  3654G12c H00I67876  11.002   2.348   8.762 -1.2193  2.9797 -2.6150
  3654G12c C01M67877  10.986   2.258   8.494  1.1991 -0.9097  1.0382
  3654G12c C02067878  11.215   2.233   8.076  0.6342  0.4348  0.1945
  3654G12c C02167879  11.271   2.348   8.116 -0.8161 -0.3608 -1.1976
  3654G12c C01L67880  10.983   2.211   8.364 -1.2118 -0.6286 -0.5377
  3654G12c O00767881  11.055   2.352   8.545 -1.5984  1.4012 -0.6589
  3654G12c C02267882  11.264   2.394   8.235  0.1090 -1.8282 -2.7301
  3654G12c C02367883  11.409   2.365   8.087 -0.3262  0.0165 -2.2176
  3654G12c C00G67884  11.678   2.342   8.111  0.1055  1.3289  1.5667
  3654G12c C00E67885  11.901   2.412   8.197  1.2654  1.5079 -1.3166
  3654G12c O00A67886  12.037   2.389   8.196 -0.2812 -0.7662 -0.4285
  3654G12c C02467887  12.141   2.387   8.306 -0.0882 -1.3520 -1.1872
  3654G12c H00V67888  12.211   2.305   8.295 -0.2306 -1.2886 -2.6838
  3654G12c H00U67889  12.089   2.382   8.402  8.3516  0.1939  3.9942
  3654G12c H00T67890  12.195   2.481   8.319  1.2758 -2.4793  1.5810
  3664G12c C00D67891   1.038   7.612   1.036 -0.4684 -1.1846 -1.9564
  3664G12c O00B67892   1.124   7.521   1.090  0.0416 -0.1523 -0.7005
  3664G12c C02567893   1.078   7.383   1.105  2.2383 -0.2852 -0.2756
  3664G12c C02667894   0.958   7.365   1.209  1.6685  0.0135 -1.7819
  3664G12c H00Y67895   1.001   7.281   1.263 -2.0696 -1.4423 -0.9277
  3664G12c H00X67896   0.879   7.313   1.154  2.6488  0.5605 -3.7586
  3664G12c O00C67897   0.911   7.460   1.296 -0.8806  0.9203 -1.4788
  3664G12c H00W67898   0.898   7.545   1.257  2.6475  1.6752 -1.1772
  3664G12c C02767899   1.106   7.268   1.030 -1.5785  0.6979  0.6057
  3664G12c O00D67900   1.047   7.152   1.032 -0.4370 -0.0243 -0.5940
  3664G12c H00Z67901   1.106   7.108   0.973 -1.5090 -0.2700 -1.4898
  3664G12c C02867902   1.247   7.253   0.973 -0.1997  0.1244 -0.2026
  3664G12c C02967903   1.249   7.261   0.825  1.4369 -0.0661  1.7331
  3664G12c H01067904   1.165   7.283   0.761  2.1402  4.8047  2.2942
  3664G12c C02T67905   1.369   7.260   0.742 -0.7104  1.3438  0.2923
  3664G12c H01O67906   1.351   7.292   0.640 -2.2245  2.2449  0.8428
  3664G12c C02S67907   1.479   7.217   0.809  0.8685  0.8728 -1.7307
  3664G12c O00J67908   1.592   7.196   0.742 -0.1054  0.2994 -1.2655
  3664G12c H01P67909   1.643   7.129   0.785  1.5948  2.4668  0.1430
  3664G12c C02R67910   1.481   7.188   0.953 -0.6908 -1.7225  0.0357
  3664G12c O00I67911   1.593   7.139   1.022  0.8667 -0.4046  1.2207
  3664G12c C02Q67912   1.612   7.178   1.159 -0.9255  0.2165  0.6624
  3664G12c H01N67913   1.561   7.270   1.190 -1.7901 -0.9006  2.6579
  3664G12c H01R67914   1.708   7.181   1.209  0.8925  1.7725 -2.7777
  3664G12c H01Q67915   1.538   7.115   1.208  0.1684 -3.3332 -2.0506
  3664G12c C02A67916   1.364   7.215   1.030  0.8739  1.0293  0.5838
  3664G12c H01167917   1.345   7.180   1.130  3.3125 -0.6207  0.5158
  3664G12c C00C67918   1.000   7.726   1.122 -0.8034  0.2266  0.7537
  3664G12c H01267919   0.997   7.735   1.230 -3.7158 -0.6645  0.7776
  3664G12c C00B67920   0.940   7.845   1.078 -0.3840 -0.4771 -1.0542
  3664G12c C00A67921   0.901   7.957   1.163  1.2113 -0.3356 -0.8337
  3664G12c C00967922   0.843   7.949   1.298 -0.1772  1.5579  0.1747
  3664G12c C00867923   0.791   7.818   1.333  0.5596 -0.7440  0.7025
  3664G12c H01367924   0.862   7.740   1.355 -0.6013 -1.0273  3.6250
  3664G12c C00767925   0.678   7.805   1.418 -0.1326 -0.3738 -0.0355
  3664G12c H01467926   0.647   7.707   1.452 -0.9347 -1.6789 -4.1689
  3664G12c C00667927   0.578   7.905   1.422 -2.7746  0.1835  0.3591
  3664G12c C00567928   0.615   8.022   1.352 -0.0712  0.3634  0.1943
  3664G12c C00467929   0.530   8.130   1.340  0.6221  0.4267 -0.1163
  3664G12c C00367930   0.556   8.213   1.224 -0.2301  0.4766 -0.4234
  3664G12c C00267931   0.457   8.318   1.196 -0.1617 -1.5217 -0.9302
  3664G12c C00167932   0.424   8.417   1.095  1.4534 -0.3481 -1.2016
  3664G12c C00M67933   0.438   8.367   0.965 -0.9930 -0.3417 -0.4452
  3664G12c C00L67934   0.558   8.299   0.916  2.1466 -0.8729  0.2856
  3664G12c C00R67935   0.569   8.222   0.785 -0.6719 -0.8877  0.4129
  3664G12c C00Q67936   0.479   8.233   0.676 -0.4854  2.1759 -1.6018
  3664G12c C00V67937   0.537   8.150   0.573  2.0740 -0.8655  2.4185
  3664G12c C00U67938   0.645   8.061   0.592 -0.3101  1.6612  1.7886
  3664G12c C00T67939   0.727   8.060   0.700  1.5527 -0.0581  1.8302
  3664G12c C01667940   0.805   7.960   0.754  0.3641 -0.4016 -0.2261
  3664G12c C01567941   0.804   7.853   0.668 -0.0860  0.0830 -2.0516
  3664G12c C01067942   0.743   7.843   0.547  0.7211  2.6780  0.2192
  3664G12c C01167943   0.755   7.717   0.459 -1.1812 -0.5937  0.6322
  3664G12c H00567944   0.721   7.700   0.358  3.6973  2.4604 -1.7699
  3664G12c C01267945   0.852   7.613   0.498  0.0073 -0.3952 -0.8219
  3664G12c C01767946   0.921   7.513   0.408  0.2991  0.1831 -0.1332
  3664G12c O00267947   0.962   7.393   0.445  0.9576  0.4507  0.1482
  3664G12c H00467948   1.013   7.359   0.372 -5.9447  2.9019 -6.4730
  3664G12c C01867949   0.903   7.535   0.267 -0.1478  1.2264 -0.3277
  3664G12c O00167950   0.901   7.656   0.217  0.0998 -0.7451  0.0765
  3664G12c H00367951   0.905   7.734   0.271  0.5174 -1.1008  0.5696
  3664G12c C01967952   0.917   7.440   0.138  0.4083  0.7086  0.6098
  3664G12c H00267953   0.812   7.413   0.128 -0.2911  3.6557 -0.6730
  3664G12c H00167954   0.964   7.490   0.053  1.2427  0.1099  0.7175
  3664G12c O00067955   1.009   7.340   0.182  0.2476 -0.3352 -1.2476
  3664G12c C01A67956   1.030   7.247   0.088  0.4810 -1.5465  1.0504
  3664G12c C02K67957   1.158   7.193   0.027 -0.0560  0.6953 -0.2390
  3664G12c O00G67958   1.268   7.249   0.015 -0.5540 -1.4853  0.6167
  3664G12c C02M67959   1.311   7.376   0.048 -2.2224 -1.0954 -1.1963
  3664G12c H01G67960   1.248   7.391   0.136 -1.5953 -3.9820 -0.2052
  3664G12c H01F67961   1.312   7.450  -0.031 -0.6462  1.1156  0.8019
  3664G12c H01E67962   1.416   7.362   0.075 -1.0667  1.3676 -4.1737
  3664G12c C02J67963   1.175   7.069  -0.009  0.9769  2.0681 -1.2184
  3664G12c H01H67964   1.265   7.025  -0.051 -2.6448 -3.3254 -3.9661
  3664G12c C02I67965   1.053   6.995  -0.030  1.5063  0.8467 -1.4540
  3664G12c C02N67966   1.074   6.877  -0.115 -2.7424  1.4546 -0.1207
  3664G12c H01M67967   1.019   6.787  -0.091  3.6531 -3.2150 -1.4722
  3664G12c C02O67968   1.156   6.873  -0.233  0.7169  1.5804  0.8843
  3664G12c H01L67969   1.215   6.956  -0.268  1.9124 -0.2181 -1.5069
  3664G12c C02P67970   1.164   6.748  -0.310 -0.3169  0.0069  0.1432
  3664G12c H01K67971   1.226   6.789  -0.389  0.2258 -0.9340  0.0734
  3664G12c H01J67972   1.184   6.667  -0.239 -3.5415  0.0979  1.2504
  3664G12c O00H67973   1.038   6.718  -0.365  0.1142 -0.2283 -0.8959
  3664G12c H01I67974   1.063   6.659  -0.435  4.3859 -0.8811  1.0360
  3664G12c C02H67975   0.920   7.050  -0.004  1.4728 -0.3021 -0.5436
  3664G12c H01C67976   0.820   7.014  -0.026  0.3053  1.0430  2.2436
  3664G12c C02L67977   0.921   7.177   0.052  2.6327 -0.1271  0.4221
  3664G12c H01D67978   0.823   7.219   0.070  4.3538  5.1132 -1.4845
  3664G12c C01367979   0.878   7.621   0.637 -0.2049  0.3471  0.0169
  3664G12c H00067980   0.897   7.525   0.683 -1.5897  2.6823  5.9409
  3664G12c C01467981   0.871   7.739   0.720 -0.5009 -2.5475  0.1591
  3664G12c C00F67982   0.921   7.749   0.851 -0.2432  0.5112 -1.0724
  3664G12c C00H67983   0.854   7.963   0.886  1.6555 -0.6483  0.7384
  3664G12c C00I67984   0.817   8.080   0.974 -0.2162 -0.7772  0.9340
  3664G12c C00J67985   0.741   8.172   0.911 -0.7202  0.0840 -1.6689
  3664G12c C00Z67986   0.652   7.941   0.518 -0.4273 -0.1770  0.0060
  3664G12c C00Y67987   0.592   7.933   0.389  1.9881 -0.9251 -0.4443
  3664G12c H00667988   0.574   7.830   0.361 -2.8146  0.4528 -3.1752
  3664G12c C00X67989   0.485   8.020   0.373  0.4202  0.6226 -1.1156
  3664G12c O00367990   0.414   8.029   0.254 -2.2215  0.0796 -1.2560
  3664G12c C01B67991   0.453   7.943   0.161 -0.4917 -0.8301 -1.4805
  3664G12c H00967992   0.407   7.847   0.139  3.4983 -5.0819  6.7835
  3664G12c H00867993   0.550   7.896   0.149  0.5860  1.3248 -1.4843
  3664G12c H00767994   0.431   7.998   0.069  1.3293  3.2760  0.3932
  3664G12c C00W67995   0.461   8.139   0.457 -1.7500 -1.6869  0.1890
  3664G12c O00467996   0.350   8.211   0.425  1.6815  0.1008  0.1120
  3664G12c C01C67997   0.317   8.307   0.515 -1.1238  1.4021  0.2605
  3664G12c H00A67998   0.310   8.413   0.495 -1.9543  1.0319 -1.5557
  3664G12c C00P67999   0.346   8.288   0.658 -0.4714 -0.3531 -1.7227
  3664G12c C00O68000   0.268   8.330   0.766  1.0272 -0.2024 -0.8907
  3664G12c C01D68001   0.125   8.299   0.765  1.7120  1.3323  1.0579
  3664G12c H00S68002   0.091   8.271   0.666 -2.6912 -0.6178  2.9657
  3664G12c C01E68003   0.032   8.329   0.867  0.5405 -1.0838  0.3649
  3664G12c O00868004  -0.102   8.286   0.870 -0.0116 -0.7551  0.0905
  3664G12c C01V68005  -0.149   8.177   0.808  0.3838 -1.5494  0.0492
  3664G12c C01Z68006  -0.229   8.211   0.672  0.8289  1.1134 -0.0048
  3664G12c H00R68007  -0.186   8.262   0.586  3.2110  5.2378  3.4788
  3664G12c H00Q68008  -0.283   8.126   0.630 -7.4932  3.4963  4.6039
  3664G12c O00968009  -0.308   8.321   0.718 -0.3219  1.2693 -1.2341
  3664G12c H00P68010  -0.393   8.279   0.713  0.0291  0.9338 -7.9469
  3664G12c C01W68011  -0.136   8.056   0.858 -0.5529 -1.7916 -0.5853
  3664G12c H00O68012  -0.161   7.982   0.784  8.0640 -2.9746 -2.9027
  3664G12c C01X68013  -0.050   7.993   0.983 -1.2597  0.9775  0.4550
  3664G12c H00N68014   0.008   7.901   0.977 -3.7190 -0.6729  1.3689
  3664G12c H00M68015   0.031   8.066   0.982  4.0364 -4.4367  3.1950
  3664G12c C01Y68016  -0.146   7.993   1.102  0.2495 -1.2841 -0.5585
  3664G12c C02D68017  -0.105   8.062   1.213  0.9867 -1.0106  1.0814
  3664G12c H01968018  -0.008   8.105   1.232  0.2432  1.2904 -0.0758
  3664G12c C02C68019  -0.174   8.059   1.340 -1.2667 -0.9408 -0.2503
  3664G12c H01A68020  -0.140   8.088   1.438  7.6228 -4.0935 -1.9653
  3664G12c C02B68021  -0.301   7.987   1.325  0.3588  0.9897 -0.3960
  3664G12c O00E68022  -0.395   7.952   1.428 -0.2159 -0.0320 -0.7037
  3664G12c H01B68023  -0.451   7.922   1.358  2.5308 -2.0298 -2.1787
  3664G12c C02F68024  -0.360   7.948   1.192  0.3004 -1.1623  1.4438
  3664G12c O00F68025  -0.485   7.898   1.185 -1.4318 -1.0722  0.0321
  3664G12c C02G68026  -0.495   7.751   1.188 -1.0031  0.5988 -1.4695
  3664G12c H01768027  -0.592   7.722   1.228 -0.5408 -1.3612 -1.6784
  3664G12c H01668028  -0.451   7.690   1.267  5.6213  0.3370 -4.9730
  3664G12c H01568029  -0.483   7.713   1.086  5.9506 -1.5725 -0.0884
  3664G12c C02E68030  -0.270   7.942   1.083  0.3306 -0.3014 -1.0596
  3664G12c H01868031  -0.284   7.911   0.980 -0.7652 -1.0147 -0.7141
  3664G12c C01F68032   0.091   8.364   0.991 -0.2035  1.4289  1.0895
  3664G12c C01G68033   0.030   8.379   1.123 -0.3832  0.3814  1.2772
  3664G12c H00L68034  -0.067   8.333   1.127  1.1740 -3.4067 -1.8214
  3664G12c C01H68035   0.102   8.418   1.241 -0.5578 -1.3253  0.4677
  3664G12c H00B68036   0.034   8.378   1.315  3.9297 -0.0251  5.5511
  3664G12c C01I68037   0.242   8.416   1.242 -0.1222  0.2168 -1.2919
  3664G12c C01U68038   0.231   8.389   1.003  0.5256 -0.8886 -1.0015
  3664G12c C00S68039   0.698   8.170   0.782 -0.5221 -0.9587  0.6005
  3664G12c C00K68040   0.659   8.239   0.996 -1.1426  0.6203 -0.0416
  3664G12c C00N68041   0.317   8.369   0.896  1.4749  1.6804  0.9842
  3664G12c C00068042   0.291   8.441   1.114 -1.3693  0.3594 -0.3354
  3664G12c C01J68043   0.330   8.317   1.278 -1.1738  0.2940  1.0683
  3664G12c C01K68044   0.320   8.233   1.391 -2.0172 -1.0300 -0.8990
  3664G12c C01P68045   0.212   8.236   1.479 -0.1169 -0.8256  0.8301
  3664G12c C01Q68046   0.149   8.358   1.515 -0.5539  1.5681  0.8846
  3664G12c H00G68047   0.195   8.456   1.514 -0.0063  1.3292  2.0596
  3664G12c C01R68048   0.018   8.345   1.547 -0.4721 -0.8997 -1.0283
  3664G12c H00F68049  -0.057   8.270   1.566 -6.5864  5.1652  0.8798
  3664G12c C01S68050  -0.071   8.476   1.536  0.2317  0.7185  1.3579
  3664G12c H00E68051  -0.094   8.509   1.435 -6.6732  0.2054  2.5156
  3664G12c H00D68052  -0.176   8.458   1.558 -0.4085 -3.0566 -3.8451
  3664G12c O00568053  -0.019   8.554   1.637  0.1353 -0.1674 -0.1359
  3664G12c H00C68054  -0.011   8.502   1.714 -0.4800 -2.2733 -1.4613
  3664G12c C01O68055   0.183   8.120   1.552  0.1381  0.1009  0.1563
  3664G12c H00H68056   0.082   8.092   1.577  1.7099 -3.6239  2.7829
  3664G12c C01N68057   0.251   8.005   1.553  0.0811 -0.2486 -0.7672
  3664G12c O00668058   0.168   7.890   1.556 -0.2888  0.1648 -0.4341
  3664G12c C01T68059   0.218   7.780   1.599 -0.9373  1.0161  2.4886
  3664G12c H00K68060   0.278   7.755   1.513 -3.7057 -2.7364  1.5245
  3664G12c H00J68061   0.142   7.702   1.602 -2.2932  2.0309 -2.1748
  3664G12c H00I68062   0.283   7.792   1.686 -1.3322  0.0972  2.9246
  3664G12c C01M68063   0.388   8.018   1.493  0.1811  1.7391 -0.9429
  3664G12c C02068064   0.667   8.199   1.130  1.6039 -0.1133  0.9568
  3664G12c C02168065   0.768   8.142   1.198  0.0907 -1.0794 -0.3136
  3664G12c C01L68066   0.412   8.136   1.418 -1.0528 -0.7353  0.3607
  3664G12c O00768067   0.460   7.911   1.484  1.6485 -0.7312  0.2902
  3664G12c C02268068   0.748   8.055   1.302  1.3959 -0.7013  0.8928
  3664G12c C02368069   0.862   8.082   1.112 -1.2005 -0.4713 -0.0044
  3664G12c C00G68070   0.915   7.859   0.946 -0.4563  0.8243 -1.6751
  3664G12c C00E68071   1.008   7.638   0.896 -0.5662  0.4648 -1.3608
  3664G12c O00A68072   1.062   7.541   0.823 -1.6970  0.1794  0.0203
  3664G12c C02468073   1.188   7.565   0.748  0.3685  0.5850  0.9645
  3664G12c H00V68074   1.186   7.659   0.692 -0.1276 -0.5870 -1.0417
  3664G12c H00U68075   1.216   7.496   0.669 -0.2749 -0.7511  1.8984
  3664G12c H00T68076   1.266   7.576   0.823  2.2325 -2.0515 -0.5361
  3674G12c C00D68077  10.439   5.043   1.767  0.1379  1.8165  0.0425
  3674G12c O00B68078  10.458   5.173   1.819 -0.8983 -0.0089  0.6185
  3674G12c C02568079  10.570   5.216   1.895  1.1705 -0.1794 -0.6356
  3674G12c C02668080  10.597   5.140   2.020  1.5642 -0.0660 -1.3170
  3674G12c H00Y68081  10.699   5.110   2.042  3.3944  5.3489 -1.8236
  3674G12c H00X68082  10.520   5.067   1.996 -2.7161  4.6434 -2.8536
  3674G12c O00C68083  10.569   5.224   2.120 -0.0627  1.7434 -0.7232
  3674G12c H00W68084  10.570   5.309   2.078  1.6263  3.0790  1.9249
  3674G12c C02768085  10.647   5.317   1.845 -0.6626  1.3783 -0.3387
  3674G12c O00D68086  10.621   5.383   1.729 -1.1187 -1.0848  0.2399
  3674G12c H00Z68087  10.615   5.470   1.766  0.5953 -1.0252  0.4399
  3674G12c C02868088  10.774   5.358   1.931  1.7527 -0.7591  0.6227
  3674G12c C02968089  10.892   5.279   1.932  0.1512 -0.6560 -0.9923
  3674G12c H01068090  10.899   5.186   1.878  7.3993 -1.3373  0.6661
  3674G12c C02T68091  11.015   5.339   1.976 -0.8342 -1.4731 -1.3861
  3674G12c H01O68092  11.108   5.289   1.997  0.4597  3.1009  5.5770
  3674G12c C02S68093  11.003   5.477   2.031  0.8854 -0.2294 -1.0109
  3674G12c O00J68094  11.111   5.525   2.087 -0.0244  0.1097  0.7507
  3674G12c H01P68095  11.062   5.574   2.151 -1.5227 -2.3373  1.5469
  3674G12c C02R68096  10.881   5.557   2.024  0.2828  1.6321 -1.1832
  3674G12c O00I68097  10.850   5.685   2.060 -0.9026  0.0040 -0.2276
  3674G12c C02Q68098  10.881   5.789   1.963  1.5357  2.0593  1.1302
  3674G12c H01N68099  10.875   5.756   1.859  2.9151 -2.5740  2.4219
  3674G12c H01R68100  10.990   5.792   1.973  1.7433 -4.3450  3.1892
  3674G12c H01Q68101  10.842   5.886   1.993 -2.5773 -0.4035  4.2367
  3674G12c C02A68102  10.773   5.491   1.972 -0.2177 -0.5758  0.3623
  3674G12c H01168103  10.682   5.549   1.959  0.4298  0.7887  1.8139
  3674G12c C00C68104  10.554   4.941   1.776 -0.6901 -0.2682  0.2499
  3674G12c H01268105  10.659   4.955   1.799  0.2772 -0.6284 -3.5453
  3674G12c C00B68106  10.527   4.804   1.735  1.0049 -0.0249  1.0538
  3674G12c C00A68107  10.618   4.699   1.756  0.3042 -0.8253  0.2214
  3674G12c C00968108  10.749   4.680   1.697  1.2899 -0.5365 -0.5801
  3674G12c C00868109  10.862   4.748   1.665  0.2502 -0.9314  2.4906
  3674G12c H01368110  10.879   4.848   1.626 -0.2275 -0.9556  2.2244
  3674G12c C00768111  10.979   4.697   1.638  0.6559 -0.1553  0.0960
  3674G12c H01468112  11.064   4.757   1.610 -0.1105  0.8195 -0.1720
  3674G12c C00668113  11.016   4.557   1.649  0.5637 -0.5677  2.7732
  3674G12c C00568114  10.902   4.493   1.667  1.4442  0.6440 -0.7098
  3674G12c C00468115  10.885   4.355   1.627 -0.3120 -0.9011  1.2494
  3674G12c C00368116  10.752   4.286   1.647 -0.3736 -1.4946 -0.7979
  3674G12c C00268117  10.748   4.153   1.588 -1.2348 -0.6055  0.9832
  3674G12c C00168118  10.639   4.057   1.572 -0.6049  1.0763  0.1574
  3674G12c C00M68119  10.496   4.083   1.536 -2.2593 -0.3191  1.1164
  3674G12c C00L68120  10.432   4.206   1.572 -1.6630 -0.9403  0.5553
  3674G12c C00R68121  10.324   4.267   1.509 -1.8447  2.6840 -0.9955
  3674G12c C00Q68122  10.247   4.222   1.392  0.2615 -0.2108 -0.7035
  3674G12c C00V68123  10.134   4.310   1.391 -0.3513  0.9838  1.2167
  3674G12c C00U68124  10.119   4.433   1.453 -0.7341 -1.1440  0.2436
  3674G12c C00T68125  10.215   4.485   1.532  0.5622 -0.3534  0.8843
  3674G12c C01668126  10.239   4.612   1.577 -0.1376 -0.3232  0.6374
  3674G12c C01568127  10.151   4.710   1.540 -2.0589  1.1994  2.1417
  3674G12c C01068128  10.037   4.658   1.470 -0.7758  0.7180  0.8655
  3674G12c C01168129   9.952   4.751   1.445 -0.0762 -0.9081 -0.8777
  3674G12c H00568130   9.862   4.729   1.390 -0.3130  2.0022 -1.7398
  3674G12c C01268131   9.955   4.890   1.479 -0.1386 -0.4606  0.7217
  3674G12c C01768132   9.823   4.961   1.469  1.0853 -0.0544  2.0005
  3674G12c O00268133   9.715   4.905   1.510  1.2424 -1.5062  0.0404
  3674G12c H00468134   9.768   4.878   1.583  3.7195  1.1964 -0.6731
  3674G12c C01868135   9.831   5.085   1.437  0.6099 -0.0221 -1.3385
  3674G12c O00168136   9.938   5.144   1.369  0.7766 -0.8014  0.1921
  3674G12c H00368137   9.998   5.072   1.377  2.2463  0.6348  2.7312
  3674G12c C01968138   9.712   5.185   1.465  1.5870  0.5551 -0.2037
  3674G12c H00268139   9.748   5.272   1.410 -2.0743  3.3921  1.6831
  3674G12c H00168140   9.608   5.156   1.478  0.8570  0.0676 -6.0649
  3674G12c O00068141   9.714   5.248   1.601  2.1105  0.6404 -2.2275
  3674G12c C01A68142   9.628   5.365   1.611  1.1087 -0.6931  0.7901
  3674G12c C02K68143   9.668   5.440   1.714 -0.3832 -1.1171 -0.9845
  3674G12c O00G68144   9.722   5.364   1.814 -1.5051 -0.9863  1.1741
  3674G12c C02M68145   9.836   5.399   1.886 -0.9036  1.1293 -0.3002
  3674G12c H01G68146   9.853   5.300   1.926 -7.3665  1.5935  4.4654
  3674G12c H01F68147   9.810   5.473   1.962  0.4753  1.1282  0.1829
  3674G12c H01E68148   9.901   5.457   1.821 -2.2395  1.0536 -1.7526
  3674G12c C02J68149   9.608   5.556   1.754  1.5057  0.8908  1.3421
  3674G12c H01H68150   9.665   5.598   1.836  1.8409  0.1421  1.4914
  3674G12c C02I68151   9.534   5.625   1.649 -0.1784 -0.3305 -0.6730
  3674G12c C02N68152   9.500   5.776   1.655 -0.6312 -0.4749  0.4496
  3674G12c H01M68153   9.429   5.815   1.583 -0.9939 -1.2635  0.3694
  3674G12c C02O68154   9.564   5.876   1.718 -1.1558  0.0239 -0.8785
  3674G12c H01L68155   9.539   5.971   1.675 -0.1508  2.5956  3.9190
  3674G12c C02P68156   9.654   5.873   1.849  0.0579  0.8437  0.7085
  3674G12c H01K68157   9.626   5.786   1.909  1.5597 -1.4452 -1.7514
  3674G12c H01J68158   9.760   5.863   1.825  0.2741 -4.9502  3.2106
  3674G12c O00H68159   9.636   5.977   1.935  0.2999  0.7048 -0.6212
  3674G12c H01I68160   9.702   5.982   2.003  3.2160  0.3206 -3.3024
  3674G12c C02H68161   9.518   5.558   1.511  2.2370 -0.3923  0.2894
  3674G12c H01C68162   9.502   5.620   1.425 -0.7779  1.4203  2.0712
  3674G12c C02L68163   9.586   5.433   1.495  1.1758 -1.0862  0.1532
  3674G12c H01D68164   9.615   5.435   1.391  5.7615  0.0970  1.3456
  3674G12c C01368165  10.070   4.935   1.559 -0.8752 -1.1631 -0.3684
  3674G12c H00068166  10.058   5.042   1.571 -0.7753 -0.7326 -3.7549
  3674G12c C01468167  10.178   4.841   1.593 -1.5026  0.5071  0.0762
  3674G12c C00F68168  10.297   4.867   1.665 -0.5824  1.7974 -0.2381
  3674G12c C00H68169  10.357   4.644   1.657 -0.3802  1.4149 -0.1880
  3674G12c C00I68170  10.440   4.540   1.698  1.0228  1.6338 -0.2471
  3674G12c C00J68171  10.406   4.409   1.656  0.4614  0.0909 -2.0929
  3674G12c C00Z68172  10.021   4.517   1.435 -0.5516  0.6179  0.6666
  3674G12c C00Y68173   9.904   4.476   1.363 -0.3689  1.0391  0.1550
  3674G12c H00668174   9.808   4.525   1.377 -0.6286  1.0666 -1.6091
  3674G12c C00X68175   9.900   4.345   1.301 -0.7245 -0.6081 -1.2736
  3674G12c O00368176   9.779   4.290   1.230 -0.5394  1.0765  1.0490
  3674G12c C01B68177   9.686   4.384   1.196  0.8362  0.0708 -0.0792
  3674G12c H00968178   9.703   4.483   1.239  2.8071 -2.8290  6.4635
  3674G12c H00868179   9.595   4.334   1.227  0.7614 -0.2646 -0.8348
  3674G12c H00768180   9.709   4.373   1.090  0.3765 -5.4520  0.2477
  3674G12c C00W68181  10.031   4.286   1.297  1.5165  0.4493 -0.4895
  3674G12c O00468182  10.037   4.190   1.185 -0.6163 -0.6216  1.1744
  3674G12c C01C68183  10.125   4.076   1.226 -1.9953 -1.3942 -0.6153
  3674G12c H00A68184  10.058   4.015   1.285 -0.9440  1.1013  3.4062
  3674G12c C00P68185  10.247   4.102   1.313  0.1343  0.9506 -1.0011
  3674G12c C00O68186  10.366   4.014   1.308 -0.3150  0.9697 -2.2321
  3674G12c C01D68187  10.366   3.911   1.213 -2.6353 -2.3609  1.0572
  3674G12c H00S68188  10.286   3.895   1.142 -0.0681  1.8120 -3.0113
  3674G12c C01E68189  10.498   3.880   1.171 -0.9222  2.5078 -1.1642
  3674G12c O00868190  10.531   3.789   1.081  0.6793 -0.4605 -0.2455
  3674G12c C01V68191  10.433   3.711   1.015  0.9609  0.4169  1.4466
  3674G12c C01Z68192  10.373   3.600   1.103  0.9171  0.8315 -0.6225
  3674G12c H00R68193  10.411   3.510   1.056  6.4597  0.9032  3.2266
  3674G12c H00Q68194  10.409   3.613   1.205  3.5663  5.8673 -1.9908
  3674G12c O00968195  10.241   3.632   1.112 -1.0330  1.3356  0.9643
  3674G12c H00P68196  10.204   3.595   1.191 -5.5618 -5.0289 -3.5917
  3674G12c C01W68197  10.419   3.720   0.878 -1.6173  1.1689 -1.3200
  3674G12c H00O68198  10.457   3.806   0.826  0.7641  2.1127  1.8181
  3674G12c C01X68199  10.339   3.621   0.792 -1.4104  1.3527  0.3937
  3674G12c H00N68200  10.392   3.641   0.699  2.2707 -0.9853  1.8488
  3674G12c H00M68201  10.345   3.513   0.808  1.1284  1.5176  0.8890
  3674G12c C01Y68202  10.191   3.647   0.761 -0.7907 -0.0839 -0.3364
  3674G12c C02D68203  10.134   3.767   0.814  0.4027  0.2509 -0.4662
  3674G12c H01968204  10.196   3.832   0.873  2.9724 -4.7523  2.7051
  3674G12c C02C68205   9.988   3.785   0.806 -0.0905  0.1394 -0.0449
  3674G12c H01A68206   9.963   3.875   0.860 -1.6094 -0.6507  0.6173
  3674G12c C02B68207   9.911   3.695   0.728  0.1734 -1.1487  0.8565
  3674G12c O00E68208   9.779   3.700   0.709 -0.3109  0.2071 -0.5068
  3674G12c H01B68209   9.761   3.612   0.680  6.6380 -1.2935 -1.0392
  3674G12c C02F68210   9.971   3.578   0.686 -0.7602  0.1829  0.3251
  3674G12c O00F68211   9.911   3.490   0.613  0.4427  0.5514  0.2550
  3674G12c C02G68212   9.847   3.382   0.693  0.7815 -0.7765 -1.1821
  3674G12c H01768213   9.760   3.354   0.633 -0.5224 -4.3204  2.2458
  3674G12c H01668214   9.812   3.409   0.793  3.6623  3.3106 -1.1346
  3674G12c H01568215   9.898   3.289   0.715 -0.1927 -1.1755 -0.6017
  3674G12c C02E68216  10.107   3.550   0.678  1.0181  0.6152  0.2512
  3674G12c H01868217  10.142   3.454   0.640  0.8634 -2.1937  6.6389
  3674G12c C01F68218  10.618   3.930   1.243  0.3037 -1.1911  0.7112
  3674G12c C01G68219  10.759   3.912   1.198 -0.5891  0.8311  1.2234
  3674G12c H00L68220  10.772   3.862   1.103 -9.4424 -7.4581  3.5384
  3674G12c C01H68221  10.853   3.975   1.284 -0.3626  1.6837 -0.0879
  3674G12c H00B68222  10.953   4.014   1.276  2.8688 -5.7384  0.0764
  3674G12c C01I68223  10.801   4.023   1.412 -0.1471 -1.0767 -1.1074
  3674G12c C01U68224  10.603   3.978   1.366  0.8596 -1.4312  0.9033
  3674G12c C00S68225  10.312   4.398   1.561 -0.3796  1.4424 -1.5191
  3674G12c C00K68226  10.500   4.313   1.643 -1.2137 -0.2218  0.0378
  3674G12c C00N68227  10.478   4.018   1.403 -0.6280  0.8798  0.5150
  3674G12c C00068228  10.686   3.981   1.474 -0.6317  1.3303  0.2780
  3674G12c C01J68229  10.859   4.106   1.512 -0.0543  0.2421  0.0484
  3674G12c C01K68230  10.991   4.148   1.520 -0.5115 -1.6498 -0.6725
  3674G12c C01P68231  11.117   4.088   1.524 -0.2886 -1.1665  0.4973
  3674G12c C01Q68232  11.125   3.960   1.476  2.4603 -0.4824 -0.2316
  3674G12c H00G68233  11.133   3.915   1.378 -1.8432 -1.5094 -0.2134
  3674G12c C01R68234  11.133   3.864   1.571  0.4367 -0.5255 -2.9532
  3674G12c H00F68235  11.106   3.893   1.671 -1.7018 -2.5709 -2.8857
  3674G12c C01S68236  11.158   3.727   1.549 -0.9385  0.7125  1.5423
  3674G12c H00E68237  11.178   3.707   1.443  2.7579 -8.9880  3.5573
  3674G12c H00D68238  11.262   3.703   1.571  0.9029  3.0781 -3.5498
  3674G12c O00568239  11.129   3.629   1.650 -0.8739  1.3688 -0.1880
  3674G12c H00C68240  11.200   3.642   1.712 -2.0634 -3.6296  2.4297
  3674G12c C01O68241  11.242   4.150   1.570 -1.7329  0.2935  0.7197
  3674G12c H00H68242  11.314   4.071   1.580  0.3805  2.4451  3.2167
  3674G12c C01N68243  11.237   4.286   1.602 -0.0009 -0.7761  1.2730
  3674G12c O00668244  11.358   4.357   1.641 -0.1864 -1.5934 -1.0198
  3674G12c C01T68245  11.453   4.323   1.541 -1.1954 -0.6645 -0.3912
  3674G12c H00K68246  11.553   4.356   1.570 -0.4378 -0.4436 -3.1278
  3674G12c H00J68247  11.431   4.359   1.440  0.3412  5.7038  1.3179
  3674G12c H00I68248  11.486   4.220   1.553  1.1386  0.3118  2.4389
  3674G12c C01M68249  11.121   4.356   1.588 -0.9544 -0.4786 -0.6592
  3674G12c C02068250  10.638   4.350   1.696  0.9120  0.3216  1.3506
  3674G12c C02168251  10.675   4.478   1.766  0.7126 -0.4534 -0.6153
  3674G12c C01L68252  10.992   4.283   1.568  0.3865  1.7391  1.0105
  3674G12c O00768253  11.133   4.497   1.609 -0.4592  0.9952  0.1601
  3674G12c C02268254  10.780   4.551   1.717  0.1008  0.0232 -1.3804
  3674G12c C02368255  10.563   4.575   1.770  1.7034 -0.0695  0.9354
  3674G12c C00G68256  10.393   4.775   1.691 -1.3234 -0.5079  0.2441
  3674G12c C00E68257  10.325   5.001   1.707 -0.3676  1.3687 -0.2191
  3674G12c O00A68258  10.222   5.097   1.701  0.9948 -0.8857 -0.0595
  3674G12c C02468259  10.243   5.239   1.700  0.3861  1.6031  0.5273
  3674G12c H00V68260  10.287   5.280   1.791 -1.5254 -6.2183  5.4082
  3674G12c H00U68261  10.157   5.297   1.734 -1.4324 -0.5966 -0.2109
  3674G12c H00T68262  10.265   5.288   1.605 -4.6381  5.3859  1.1013
  3684G12c C00D68263   0.725   3.325   0.761  0.5657  0.4344 -0.2603
  3684G12c O00B68264   0.810   3.438   0.777 -0.5231  0.2353  0.5334
  3684G12c C02568265   0.908   3.451   0.873  0.2579 -0.3596  0.7168
  3684G12c C02668266   0.903   3.326   0.976  1.0925  0.2561 -0.0954
  3684G12c H00Y68267   0.981   3.285   1.040 -3.6940 -2.3521  4.5622
  3684G12c H00X68268   0.858   3.237   0.931  2.5276 -0.3441 -0.3525
  3684G12c O00C68269   0.814   3.320   1.076  0.3423  0.0074  0.3254
  3684G12c H00W68270   0.838   3.252   1.137  0.7337 -5.7617 -5.7262
  3684G12c C02768271   1.016   3.537   0.860 -0.5096 -1.1907  1.3586
  3684G12c O00D68272   1.027   3.597   0.737  0.1678 -0.8150 -0.1743
  3684G12c H00Z68273   0.961   3.589   0.670 -2.1602  1.4617  1.7732
  3684G12c C02868274   1.105   3.555   0.967 -0.5297 -2.1099  0.7525
  3684G12c C02968275   1.207   3.467   1.007  0.9050 -0.3923  0.3673
  3684G12c H01068276   1.225   3.376   0.951 -3.2863 -2.2997  1.9412
  3684G12c C02T68277   1.288   3.474   1.123 -0.0893 -0.4595 -0.2990
  3684G12c H01O68278   1.371   3.410   1.150  2.1417  2.4765  0.1633
  3684G12c C02S68279   1.255   3.587   1.206  0.5315 -0.4530 -0.5721
  3684G12c O00J68280   1.338   3.633   1.299 -1.8123  0.5495 -0.0011
  3684G12c H01P68281   1.283   3.644   1.375 -1.6117  5.2885 -0.3858
  3684G12c C02R68282   1.152   3.675   1.179  0.3664 -0.7455 -0.0467
  3684G12c O00I68283   1.110   3.751   1.286  0.8602  0.8081  0.6068
  3684G12c C02Q68284   0.999   3.828   1.272  0.3413  1.7395  0.1357
  3684G12c H01N68285   0.986   3.889   1.182 -7.4919  1.2557  0.5952
  3684G12c H01R68286   0.983   3.883   1.365  3.3967  0.5992  1.3830
  3684G12c H01Q68287   0.921   3.754   1.254 -3.0121  4.7965  1.4662
  3684G12c C02A68288   1.085   3.658   1.056 -2.6998 -0.6750 -0.7462
  3684G12c H01168289   0.990   3.708   1.038 -1.0631  3.8933  2.5107
  3684G12c C00C68290   0.764   3.196   0.712  0.6099 -0.0987  0.1337
  3684G12c H01268291   0.833   3.184   0.630 -3.3270 -3.9704 -2.8444
  3684G12c C00B68292   0.681   3.077   0.719 -0.4914 -0.8753 -0.8915
  3684G12c C00A68293   0.725   2.939   0.678  1.1311 -2.2282 -0.2934
  3684G12c C00968294   0.818   2.894   0.576 -0.3991 -0.6460  0.6892
  3684G12c C00868295   0.883   2.943   0.465  0.1108 -0.4838 -0.0835
  3684G12c H01368296   0.921   3.043   0.452  1.1174 -0.0981  4.8824
  3684G12c C00768297   0.911   2.876   0.348 -1.7194  0.9148  0.0952
  3684G12c H01468298   0.973   2.922   0.273 -1.8921  2.7271  1.0414
  3684G12c C00668299   0.853   2.746   0.332  0.1280  0.1548  1.2588
  3684G12c C00568300   0.780   2.703   0.437  0.9373  1.5079 -0.7072
  3684G12c C00468301   0.709   2.567   0.430  0.8353  0.3988 -0.6159
  3684G12c C00368302   0.611   2.540   0.529 -0.2755 -1.8097 -0.9259
  3684G12c C00268303   0.543   2.402   0.527  2.2150 -0.2356  0.7302
  3684G12c C00168304   0.429   2.354   0.604 -1.0619 -0.4507  0.0121
  3684G12c C00M68305   0.316   2.425   0.664  0.7374  1.8637 -0.0710
  3684G12c C00L68306   0.322   2.567   0.675 -1.2626  1.3108 -0.1330
  3684G12c C00R68307   0.217   2.664   0.694  0.6143  1.0618  0.0958
  3684G12c C00Q68308   0.077   2.665   0.685  0.0746 -0.7341 -1.1423
  3684G12c C00V68309   0.030   2.785   0.734  0.5630 -1.2833  0.5232
  3684G12c C00U68310   0.105   2.894   0.754  0.0979 -1.3136  0.2330
  3684G12c C00T68311   0.240   2.897   0.749  1.2463  0.7589 -0.8842
  3684G12c C01668312   0.327   3.002   0.775  0.4212 -0.0658 -0.5755
  3684G12c C01568313   0.281   3.118   0.824  2.1450 -1.4273 -0.6390
  3684G12c C01068314   0.138   3.125   0.837  1.3014 -0.0932 -0.0417
  3684G12c C01168315   0.081   3.239   0.881 -0.3475  0.3232 -0.6419
  3684G12c H00568316  -0.021   3.239   0.918  0.6075  5.4315  2.3682
  3684G12c C01268317   0.150   3.360   0.905 -1.2477  1.7134  0.8554
  3684G12c C01768318   0.083   3.484   0.928  0.4540 -0.0503 -0.0500
  3684G12c O00268319   0.151   3.596   0.906  1.1533 -0.0449 -0.2615
  3684G12c H00468320   0.090   3.646   0.854 -1.7717 -0.7948  2.3023
  3684G12c C01868321  -0.038   3.505   0.994  1.0408 -1.6597 -0.3595
  3684G12c O00168322  -0.119   3.416   1.053 -1.1249  1.1604 -0.6303
  3684G12c H00368323  -0.085   3.328   1.050  4.4858  3.0756  0.7472
  3684G12c C01968324  -0.090   3.670   1.026  1.8395  0.9483 -0.1569
  3684G12c H00268325  -0.104   3.678   1.133 -4.7894 -3.4905 -0.4191
  3684G12c H00168326  -0.004   3.736   1.019  1.6228  1.0222 -2.6009
  3684G12c O00068327  -0.212   3.724   0.963 -0.8173  0.1254  0.6289
  3684G12c C01A68328  -0.190   3.778   0.844 -0.7689  1.1654  0.4423
  3684G12c C02K68329  -0.256   3.732   0.732  0.8293 -0.0395 -1.2586
  3684G12c O00G68330  -0.312   3.610   0.728  1.5659  1.5605  1.3393
  3684G12c C02M68331  -0.262   3.497   0.654  0.0110  0.9379  0.6456
  3684G12c H01G68332  -0.339   3.483   0.578 -2.5896 -8.4078  4.3376
  3684G12c H01F68333  -0.171   3.525   0.599  0.1514 -6.0378 -3.2841
  3684G12c H01E68334  -0.263   3.410   0.720  0.9460  0.3295 -0.1221
  3684G12c C02J68335  -0.244   3.792   0.609  0.2591  0.3110  0.4170
  3684G12c H01H68336  -0.316   3.767   0.533 -3.0903 -7.3798  5.5416
  3684G12c C02I68337  -0.150   3.891   0.600 -0.9695 -1.1676  0.6103
  3684G12c C02N68338  -0.137   3.962   0.474 -0.6169  0.0117  0.2248
  3684G12c H01M68339  -0.103   3.903   0.391 -0.1049  1.8777 -0.9256
  3684G12c C02O68340  -0.141   4.093   0.455 -1.0817  0.4256 -0.6006
  3684G12c H01L68341  -0.165   4.155   0.541  0.8795  4.5273 -2.8470
  3684G12c C02P68342  -0.124   4.148   0.309 -0.1590  1.0142 -0.0037
  3684G12c H01K68343  -0.034   4.094   0.280  0.7517  3.3868 -1.7714
  3684G12c H01J68344  -0.211   4.111   0.254 -3.4163 -1.6086  6.3276
  3684G12c O00H68345  -0.134   4.280   0.300 -0.1175 -0.0582 -1.0010
  3684G12c H01I68346  -0.200   4.296   0.365 -0.1311 -5.5041  0.4998
  3684G12c C02H68347  -0.085   3.937   0.701 -0.9999  0.1065 -1.1081
  3684G12c H01C68348  -0.083   4.043   0.681  5.2433 -0.3578 -4.1847
  3684G12c C02L68349  -0.098   3.892   0.836  0.3999 -0.9916  0.8001
  3684G12c H01D68350  -0.065   3.960   0.913 -1.7514 -0.6936  1.4927
  3684G12c C01368351   0.284   3.357   0.878 -0.0918 -0.1678 -0.8503
  3684G12c H00068352   0.354   3.439   0.881  1.8450 -1.6528 -3.1056
  3684G12c C01468353   0.360   3.227   0.830 -0.6413 -1.9591 -2.5490
  3684G12c C00F68354   0.498   3.229   0.802 -0.2829  0.8023  0.4370
  3684G12c C00H68355   0.463   2.988   0.775 -0.0884 -0.4143 -0.6221
  3684G12c C00I68356   0.524   2.854   0.766  1.7583 -2.2215  1.2079
  3684G12c C00J68357   0.430   2.755   0.732 -1.3590  1.4838 -0.9002
  3684G12c C00Z68358   0.057   3.017   0.795 -1.3208  0.9451  1.9154
  3684G12c C00Y68359  -0.087   3.031   0.797  0.4194  0.3528 -0.6378
  3684G12c H00668360  -0.140   3.123   0.816 -2.2079 -0.1252 -5.0938
  3684G12c C00X68361  -0.164   2.911   0.779  1.1563  1.8880  0.2479
  3684G12c O00368362  -0.289   2.926   0.810 -0.3302 -0.6284  1.3400
  3684G12c C01B68363  -0.383   2.848   0.905  1.0985 -0.4130 -0.1804
  3684G12c H00968364  -0.450   2.927   0.938 -3.2056 -1.3592 -5.8667
  3684G12c H00868365  -0.422   2.760   0.854  0.5402  1.2445 -2.7085
  3684G12c H00768366  -0.302   2.803   0.964  2.8624 -2.1551 -3.7396
  3684G12c C00W68367  -0.115   2.785   0.733 -1.7823  0.3578  2.4377
  3684G12c O00468368  -0.181   2.688   0.672 -1.1188  0.0167 -0.3663
  3684G12c C01C68369  -0.132   2.563   0.679  0.0385 -0.6086  1.6044
  3684G12c H00A68370  -0.209   2.488   0.672 -5.8544  5.1836 -0.9263
  3684G12c C00P68371   0.000   2.544   0.659  0.6817  0.4976 -0.0261
  3684G12c C00O68372   0.062   2.420   0.601 -0.9121 -0.4757  0.8422
  3684G12c C01D68373  -0.024   2.330   0.531 -0.2051  1.8090  2.2827
  3684G12c H00S68374  -0.127   2.320   0.562  0.0123 -6.9138  1.5532
  3684G12c C01E68375   0.018   2.243   0.426 -0.3303 -0.5313 -1.4233
  3684G12c O00868376  -0.063   2.170   0.343 -0.7005 -1.3483 -0.1124
  3684G12c C01V68377  -0.184   2.141   0.387 -0.8012  0.0701 -0.8434
  3684G12c C01Z68378  -0.308   2.196   0.326 -0.2088 -0.6149 -1.7697
  3684G12c H00R68379  -0.383   2.231   0.397  2.5558  1.9976 -0.0298
  3684G12c H00Q68380  -0.286   2.275   0.254  0.5377  5.3684  4.4634
  3684G12c O00968381  -0.387   2.114   0.245  0.0608  0.2537 -0.0870
  3684G12c H00P68382  -0.317   2.072   0.197  1.7938  3.2176 -0.2733
  3684G12c C01W68383  -0.205   2.030   0.460  0.7280 -0.5455  0.1600
  3684G12c H00O68384  -0.302   2.005   0.501 -0.2472  1.9936 -0.5008
  3684G12c C01X68385  -0.096   1.971   0.544 -0.6901 -0.8147 -1.6379
  3684G12c H00N68386  -0.001   1.990   0.494 -0.5869 -0.0081 -1.1455
  3684G12c H00M68387  -0.109   2.035   0.631 -3.5364  1.1703 -3.4031
  3684G12c C01Y68388  -0.089   1.824   0.566 -2.1786 -0.1020  1.2387
  3684G12c C02D68389  -0.021   1.745   0.490  0.8137  0.1785  0.3697
  3684G12c H01968390   0.049   1.758   0.409  2.7826  1.1231  2.1706
  3684G12c C02C68391  -0.013   1.589   0.522 -1.0001  0.7813  0.5198
  3684G12c H01A68392   0.033   1.534   0.442 -0.7284 -2.1766  2.6140
  3684G12c C02B68393  -0.095   1.529   0.615  0.0533  1.1176 -1.6686
  3684G12c O00E68394  -0.102   1.392   0.638 -1.1906 -1.3631  0.0583
  3684G12c H01B68395  -0.194   1.370   0.641 -1.1100 -1.7442 -0.1979
  3684G12c C02F68396  -0.186   1.613   0.672  1.1818 -0.5878  1.8394
  3684G12c O00F68397  -0.292   1.565   0.712  0.2690  0.4424 -0.4474
  3684G12c C02G68398  -0.269   1.524   0.853  0.8633 -1.6838  0.7896
  3684G12c H01768399  -0.255   1.418   0.876  0.7679 -2.3157 -1.9437
  3684G12c H01668400  -0.359   1.578   0.884  0.2815 -3.7666  2.9034
  3684G12c H01568401  -0.178   1.562   0.899 -0.0895  1.5836  0.0887
  3684G12c C02E68402  -0.173   1.764   0.665  0.0122  1.6657  0.0221
  3684G12c H01868403  -0.268   1.816   0.669 -1.4285 -0.4280 -4.2324
  3684G12c C01F68404   0.164   2.242   0.407 -0.3254 -1.7453  0.7681
  3684G12c C01G68405   0.226   2.195   0.294 -1.8159  1.1391 -1.9640
  3684G12c H00L68406   0.166   2.156   0.213  1.5498 -1.3033 -3.4122
  3684G12c C01H68407   0.359   2.184   0.287  1.4118  0.8829 -2.0502
  3684G12c H00B68408   0.388   2.164   0.184 -1.6746  1.5166 -3.0947
  3684G12c C01I68409   0.443   2.249   0.385  0.0264 -0.2319 -0.2770
  3684G12c C01U68410   0.248   2.299   0.496  0.0362  0.9469 -0.8220
  3684G12c C00S68411   0.288   2.771   0.720 -0.7573 -0.2504  0.6366
  3684G12c C00K68412   0.452   2.636   0.678  0.0045 -0.0357 -0.5831
  3684G12c C00N68413   0.212   2.391   0.581  1.8985  0.1629 -1.0499
  3684G12c C00068414   0.384   2.260   0.512 -0.5850 -0.5850  0.2531
  3684G12c C01J68415   0.552   2.335   0.394  0.6321 -0.2988 -0.6397
  3684G12c C01K68416   0.659   2.352   0.298  0.9884 -0.1359 -0.3043
  3684G12c C01P68417   0.710   2.271   0.189 -0.7524  0.5784  1.0029
  3684G12c C01Q68418   0.690   2.133   0.178 -1.0195  0.5676  0.9894
  3684G12c H00G68419   0.697   2.096   0.279  1.4389  2.5071  1.5872
  3684G12c C01R68420   0.732   2.046   0.094 -1.2489  1.4963  0.6784
  3684G12c H00F68421   0.768   2.079  -0.002 -1.6807  2.1616  0.7489
  3684G12c C01S68422   0.739   1.897   0.120  0.4031  1.9189 -0.1436
  3684G12c H00E68423   0.751   1.872   0.014  0.7980  6.0383 -1.1705
  3684G12c H00D68424   0.817   1.829   0.152  1.7341  1.0642 -4.7899
  3684G12c O00568425   0.607   1.871   0.167 -0.2731 -1.4019 -0.0985
  3684G12c H00C68426   0.560   1.912   0.095  5.7853 -2.2481 -4.9711
  3684G12c C01O68427   0.784   2.337   0.085  1.8248 -0.7616 -1.6971
  3684G12c H00H68428   0.819   2.299  -0.010  1.1193 -6.1122  0.0196
  3684G12c C01N68429   0.838   2.469   0.101 -0.1952  0.8507  0.7007
  3684G12c O00668430   0.900   2.520  -0.014  0.3733  0.7692 -0.5734
  3684G12c C01T68431   1.029   2.599   0.019  1.2013 -0.1795  1.2476
  3684G12c H00K68432   1.022   2.700   0.060 -0.9639  0.8988 -1.6034
  3684G12c H00J68433   1.094   2.611  -0.068 -4.3643 -3.0623 -3.5887
  3684G12c H00I68434   1.093   2.567   0.101 -1.4913 -6.0836  1.2764
  3684G12c C01M68435   0.819   2.541   0.215 -0.9891  1.0010  2.4137
  3684G12c C02068436   0.585   2.615   0.643 -0.6663 -1.6097  0.4856
  3684G12c C02168437   0.689   2.723   0.675  1.2239 -0.2015 -0.4830
  3684G12c C01L68438   0.722   2.483   0.314 -0.7662  0.1677 -0.6922
  3684G12c O00768439   0.885   2.658   0.227  0.8989 -1.4177  1.2514
  3684G12c C02268440   0.772   2.753   0.571 -1.7640 -1.2370 -0.5976
  3684G12c C02368441   0.651   2.835   0.735 -0.5295  0.9458  0.4202
  3684G12c C00G68442   0.548   3.094   0.753 -0.6254 -0.0931 -0.5229
  3684G12c C00E68443   0.588   3.340   0.804  0.0141 -0.6226  0.6482
  3684G12c O00A68444   0.545   3.472   0.824  0.3197 -0.9513  0.9116
  3684G12c C02468445   0.572   3.572   0.711 -0.0200  1.0494 -0.1881
  3684G12c H00V68446   0.672   3.588   0.671  0.9756  3.9010  3.2595
  3684G12c H00U68447   0.509   3.652   0.749 -5.5319 -0.0026 -6.3148
  3684G12c H00T68448   0.537   3.573   0.608  1.7409  1.9450 -0.7968
  3694G12c C00D68449   7.708   4.451   9.762 -0.0473  0.7706  0.4225
  3694G12c O00B68450   7.825   4.397   9.807  0.8462 -2.0487  0.0705
  3694G12c C02568451   7.820   4.261   9.818  2.1063  0.6550  1.1050
  3694G12c C02668452   7.874   4.218   9.961  0.5123  0.5544  1.5159
  3694G12c H00Y68453   7.938   4.285  10.018  2.7969  0.6613 -1.0925
  3694G12c H00X68454   7.961   4.156   9.941  3.5106  6.1704 -5.0455
  3694G12c O00C68455   7.782   4.165  10.055 -0.1531 -0.7842 -0.0284
  3694G12c H00W68456   7.694   4.185  10.029 -0.9436 -1.4122  2.0476
  3694G12c C02768457   7.789   4.186   9.712 -0.0548  1.7944  0.6337
  3694G12c O00D68458   7.790   4.222   9.577  1.2188 -2.1533  0.2851
  3694G12c H00Z68459   7.863   4.282   9.577  3.2435 -4.2170  5.7918
  3694G12c C02868460   7.726   4.066   9.735 -0.8662  0.6695  2.7968
  3694G12c C02968461   7.795   3.954   9.779  1.2800 -0.8032 -0.2275
  3694G12c H01068462   7.893   3.979   9.818  0.4216  2.9551 -0.3231
  3694G12c C02T68463   7.716   3.833   9.784 -2.2234  0.3725  0.8973
  3694G12c H01O68464   7.778   3.745   9.790  0.8445  1.6740 -6.2880
  3694G12c C02S68465   7.583   3.820   9.718  0.0145 -0.4849  0.1320
  3694G12c O00J68466   7.515   3.703   9.717 -1.2813  0.3638 -1.9020
  3694G12c H01P68467   7.424   3.727   9.710 -1.4753 -1.1974 -7.6635
  3694G12c C02R68468   7.523   3.932   9.662 -1.8391 -0.7095 -1.6655
  3694G12c O00I68469   7.399   3.939   9.605  0.3315  0.8017  0.2629
  3694G12c C02Q68470   7.284   4.023   9.639 -2.6493 -0.3540  0.9319
  3694G12c H01N68471   7.215   3.962   9.698 -4.5573 -4.6436 -5.2627
  3694G12c H01R68472   7.232   4.090   9.571 -0.5879  0.4293  0.0952
  3694G12c H01Q68473   7.348   4.076   9.710  0.6744 -4.6425  1.3377
  3694G12c C02A68474   7.592   4.062   9.674  0.9676 -0.9177  0.0868
  3694G12c H01168475   7.547   4.152   9.634  4.6940  0.7266 -0.6130
  3694G12c C00C68476   7.722   4.573   9.699 -0.5032 -1.4893  0.5149
  3694G12c H01268477   7.825   4.600   9.710  0.0533 -5.0441  5.8094
  3694G12c C00B68478   7.624   4.623   9.617  0.4175 -0.3473 -0.0396
  3694G12c C00A68479   7.638   4.741   9.528  0.4806  0.2650  1.2333
  3694G12c C00968480   7.758   4.826   9.518 -1.5901  1.9514 -0.6525
  3694G12c C00868481   7.891   4.860   9.564 -0.6430 -1.1719  1.3271
  3694G12c H01368482   7.943   4.778   9.611  0.0372 -4.6135 -4.9419
  3694G12c C00768483   7.948   4.970   9.520 -0.5505  0.8404  1.3769
  3694G12c H01468484   8.054   4.964   9.535 -0.8633  1.5808  4.0745
  3694G12c C00668485   7.884   5.073   9.452 -0.7577 -0.8844  0.8591
  3694G12c C00568486   7.748   5.059   9.431 -0.3113 -1.9178  0.5090
  3694G12c C00468487   7.652   5.166   9.397 -1.0050 -0.3665  1.3036
  3694G12c C00368488   7.515   5.147   9.389 -0.8149  0.6911  0.0525
  3694G12c C00268489   7.430   5.264   9.376  0.7765  0.9402  0.0117
  3694G12c C00168490   7.288   5.271   9.365  1.5986 -0.1553  1.1310
  3694G12c C00M68491   7.207   5.202   9.466  0.5142  1.8340 -1.9374
  3694G12c C00L68492   7.229   5.070   9.502  0.9702  0.3596 -0.3524
  3694G12c C00R68493   7.132   4.988   9.561 -0.7572  1.7860 -0.2620
  3694G12c C00Q68494   7.054   5.008   9.682  0.4844  0.8059  0.3232
  3694G12c C00V68495   7.027   4.892   9.761 -0.8754  0.9721 -0.6259
  3694G12c C00U68496   7.100   4.769   9.752  0.5909 -0.4631 -1.3366
  3694G12c C00T68497   7.188   4.755   9.656  0.8662 -0.0538 -0.0438
  3694G12c C01668498   7.267   4.639   9.636 -1.0667 -1.1243 -1.2037
  3694G12c C01568499   7.237   4.537   9.727 -0.6938 -1.8783 -1.2020
  3694G12c C01068500   7.121   4.551   9.799 -2.0503  2.5534  0.6279
  3694G12c C01168501   7.095   4.451   9.882 -1.8817  1.4074 -1.6968
  3694G12c H00568502   7.015   4.439   9.953  1.0788  1.0967  1.7311
  3694G12c C01268503   7.168   4.329   9.913 -0.4469 -0.6796  0.0839
  3694G12c C01768504   7.112   4.226  10.003 -0.4892  1.1768 -0.5458
  3694G12c O00268505   7.056   4.123   9.935 -0.6156  0.2443  0.5066
  3694G12c H00468506   6.972   4.164   9.926 -1.1150 -1.0051 -0.6346
  3694G12c C01868507   7.117   4.238  10.129  0.3399  1.4156 -1.4916
  3694G12c O00168508   7.160   4.359  10.194 -0.6676 -0.0734 -1.3383
  3694G12c H00368509   7.098   4.430  10.197  0.0188  1.0676 -7.4193
  3694G12c C01968510   7.010   4.163  10.219 -0.6054  0.1183  2.2265
  3694G12c H00268511   6.940   4.133  10.141  1.9002  0.4266 -0.2377
  3694G12c H00168512   7.063   4.090  10.280  1.3648 -3.0596 -2.9740
  3694G12c O00068513   6.966   4.252  10.315 -0.8295 -0.1233  0.8442
  3694G12c C01A68514   6.883   4.198  10.405  0.7273  0.2061  1.9695
  3694G12c C02K68515   6.761   4.257  10.446 -1.4055  0.6866 -0.6359
  3694G12c O00G68516   6.719   4.378  10.412  2.5073 -0.0556 -0.7334
  3694G12c C02M68517   6.625   4.455  10.468  1.6955 -0.6488 -0.7709
  3694G12c H01G68518   6.613   4.435  10.574 -7.1891  0.2014 -1.2365
  3694G12c H01F68519   6.530   4.472  10.416  1.1490  2.2577  1.0524
  3694G12c H01E68520   6.703   4.532  10.462  4.0057 -3.0379 -2.6084
  3694G12c C02J68521   6.696   4.184  10.556  0.6284  1.4976 -0.9465
  3694G12c H01H68522   6.605   4.227  10.594 -0.6112  1.6471 -3.9731
  3694G12c C02I68523   6.727   4.054  10.601  0.9884 -1.0429  1.3337
  3694G12c C02N68524   6.634   3.995  10.694 -0.3076 -1.1720  0.4776
  3694G12c H01M68525   6.670   4.028  10.791 -1.5320 -2.9204  1.5693
  3694G12c C02O68526   6.521   3.924  10.680  0.2902  0.1545  0.3218
  3694G12c H01L68527   6.511   3.896  10.576  3.4450 -3.6504  0.9250
  3694G12c C02P68528   6.409   3.892  10.773  0.3128 -1.1209 -0.3683
  3694G12c H01K68529   6.361   3.817  10.710  1.1644  0.0274 -2.4382
  3694G12c H01J68530   6.429   3.866  10.877 -2.6435  2.8996  1.3379
  3694G12c O00H68531   6.336   4.018  10.775 -0.2641 -0.0334  0.8934
  3694G12c H01I68532   6.384   4.067  10.839 -1.2580  0.6489  1.1402
  3694G12c C02H68533   6.850   4.013  10.569  1.4448  0.1111 -0.0052
  3694G12c H01C68534   6.882   3.941  10.643 -0.5497 -0.5726  0.1991
  3694G12c C02L68535   6.937   4.084  10.480  0.9595 -0.5343  1.6993
  3694G12c H01D68536   7.042   4.059  10.476  0.2725 -6.3185  8.7574
  3694G12c C01368537   7.291   4.325   9.853  1.0834 -2.3128  0.3677
  3694G12c H00068538   7.346   4.240   9.892 -1.1347 -3.1291  1.7771
  3694G12c C01468539   7.333   4.446   9.764 -0.0138 -0.6995 -0.5481
  3694G12c C00F68540   7.464   4.472   9.720 -0.3064  0.8799 -0.7735
  3694G12c C00H68541   7.396   4.658   9.577  0.3197 -0.5700  1.2947
  3694G12c C00I68542   7.408   4.757   9.473  0.4918 -1.0965 -0.5379
  3694G12c C00J68543   7.295   4.855   9.469 -2.3612  0.4852 -2.0954
  3694G12c C00Z68544   7.043   4.667   9.819 -1.9272  0.2289  1.1660
  3694G12c C00Y68545   6.923   4.665   9.886  0.6899 -0.4840 -2.1810
  3694G12c H00668546   6.875   4.578   9.927 -3.9269  0.7341 -4.6239
  3694G12c C00X68547   6.867   4.784   9.912 -1.1654  0.0417 -1.3665
  3694G12c O00368548   6.768   4.808  10.019 -1.6702  0.5252  1.5743
  3694G12c C01B68549   6.828   4.808  10.144  0.5184 -1.3556  0.9037
  3694G12c H00968550   6.927   4.766  10.163  0.0823 -3.6158 -1.5627
  3694G12c H00868551   6.762   4.799  10.231 -3.1912 -0.4446 -1.6936
  3694G12c H00768552   6.859   4.909  10.171 -1.2916 -0.7527  0.7762
  3694G12c C00W68553   6.906   4.900   9.850 -0.6818 -0.6599 -0.1426
  3694G12c O00468554   6.866   5.017   9.917  0.4077  0.5284  1.3925
  3694G12c C01C68555   6.895   5.129   9.835  0.2095  0.9480 -0.3602
  3694G12c H00A68556   6.805   5.177   9.797  2.3033  6.3627  1.0256
  3694G12c C00P68557   7.002   5.135   9.726  0.0513  0.8022 -1.5699
  3694G12c C00O68558   7.058   5.257   9.671  0.5330  0.8152  1.1031
  3694G12c C01D68559   7.035   5.380   9.744 -1.1889 -1.4998  0.4114
  3694G12c H00S68560   7.003   5.389   9.847  4.2603  3.0819  1.9575
  3694G12c C01E68561   7.112   5.507   9.717 -0.6137  1.6383 -0.7503
  3694G12c O00868562   7.150   5.617   9.804 -1.8936  1.3328 -0.1367
  3694G12c C01V68563   7.122   5.605   9.935  0.4401  0.8203  0.9438
  3694G12c C01Z68564   7.221   5.527  10.022  1.0677 -0.7501 -1.5857
  3694G12c H00R68565   7.313   5.584  10.008 -1.3537  2.7805 -4.1196
  3694G12c H00Q68566   7.197   5.492  10.123  7.5933 -3.5938 -0.7391
  3694G12c O00968567   7.251   5.398   9.949  0.1542  0.6220 -1.5036
  3694G12c H00P68568   7.327   5.371   9.998 -1.3698  2.2822  1.9031
  3694G12c C01W68569   7.032   5.696   9.976  1.2311  0.0075 -0.9681
  3694G12c H00O68570   6.983   5.759   9.902 -0.4415 -4.2896 -3.7435
  3694G12c C01X68571   6.992   5.744  10.121 -0.6985 -0.0540  0.4049
  3694G12c H00N68572   7.016   5.850  10.117  0.1190 -0.1460  2.2783
  3694G12c H00M68573   7.054   5.689  10.193 -1.1659 -0.0102  0.8382
  3694G12c C01Y68574   6.850   5.675  10.168 -0.9694 -0.2274  0.8115
  3694G12c C02D68575   6.739   5.750  10.119 -1.8816 -0.8861 -0.5360
  3694G12c H01968576   6.751   5.848  10.077 -5.8110  1.1396  2.7458
  3694G12c C02C68577   6.615   5.696  10.143  0.4007 -0.6559  0.3687
  3694G12c H01A68578   6.542   5.765  10.104 -1.5548 -3.5556 -1.2808
  3694G12c C02B68579   6.601   5.567  10.208 -0.3575  1.6158  0.6355
  3694G12c O00E68580   6.491   5.515  10.276 -0.9671 -0.6440 -0.4314
  3694G12c H01B68581   6.480   5.432  10.233  1.3245  0.3811 -3.1663
  3694G12c C02F68582   6.701   5.493  10.233  1.4748  0.1428 -1.2994
  3694G12c O00F68583   6.660   5.360  10.249 -0.5629 -0.6908  0.0034
  3694G12c C02G68584   6.739   5.273  10.163 -0.3212 -0.3340 -0.4792
  3694G12c H01768585   6.708   5.169  10.166  0.8166 -0.6564  0.1385
  3694G12c H01668586   6.831   5.254  10.218 -2.3104 -6.2403  1.2285
  3694G12c H01568587   6.764   5.304  10.062  7.2301  2.5056  1.9060
  3694G12c C02E68588   6.833   5.548  10.222 -0.3476 -0.1330  0.3586
  3694G12c H01868589   6.920   5.499  10.262  1.8560 -2.9018 -6.9596
  3694G12c C01F68590   7.186   5.516   9.603 -1.5330 -0.3034 -1.4508
  3694G12c C01G68591   7.274   5.625   9.581 -2.0428  0.9732  0.1907
  3694G12c H00L68592   7.258   5.718   9.632  2.4610  1.3252  1.2011
  3694G12c C01H68593   7.392   5.605   9.480  1.2196  1.1837  0.3553
  3694G12c H00B68594   7.482   5.655   9.448  2.5958 -1.4480  0.0448
  3694G12c C01I68595   7.383   5.481   9.396  1.7941 -0.4700  0.1630
  3694G12c C01U68596   7.190   5.404   9.512 -1.8491 -0.3203 -1.2100
  3694G12c C00S68597   7.209   4.871   9.568  2.2018 -1.0146 -1.1388
  3694G12c C00K68598   7.316   4.989   9.417 -1.5314 -1.2297  2.0405
  3694G12c C00N68599   7.146   5.275   9.563  0.7764 -1.1296 -1.0449
  3694G12c C00068600   7.261   5.403   9.392  0.8303 -0.8131 -0.0841
  3694G12c C01J68601   7.497   5.391   9.389  1.0142 -1.2936 -0.7380
  3694G12c C01K68602   7.636   5.410   9.367 -0.4390  0.5970 -0.2310
  3694G12c C01P68603   7.698   5.529   9.309 -0.6192 -0.0217 -1.3342
  3694G12c C01Q68604   7.649   5.664   9.284  0.2144 -0.5167 -0.1574
  3694G12c H00G68605   7.608   5.687   9.187 -4.0432 -6.1793  0.0544
  3694G12c C01R68606   7.678   5.765   9.367  0.6627  0.8721 -0.1215
  3694G12c H00F68607   7.708   5.733   9.466  3.8216  2.8004 -0.4003
  3694G12c C01S68608   7.613   5.898   9.332  0.7951 -0.2140 -0.2499
  3694G12c H00E68609   7.508   5.908   9.305  0.1848  1.3966  2.5257
  3694G12c H00D68610   7.619   5.968   9.416  1.7229 -4.4626  3.4455
  3694G12c O00568611   7.672   5.939   9.213 -0.3531  0.2337 -0.1605
  3694G12c H00C68612   7.759   5.950   9.249 -0.9246  0.3571  1.2015
  3694G12c C01O68613   7.830   5.531   9.310  0.5508  1.3842 -0.5323
  3694G12c H00H68614   7.888   5.609   9.264  3.2990 -2.9865 -4.9586
  3694G12c C01N68615   7.908   5.413   9.341  0.2437 -0.2429 -0.0889
  3694G12c O00668616   8.038   5.421   9.384  0.2652 -0.0359  0.2102
  3694G12c C01T68617   8.132   5.360   9.280  1.2851 -0.5083 -0.0309
  3694G12c H00K68618   8.122   5.254   9.307  5.5846 -1.6713 -2.5325
  3694G12c H00J68619   8.220   5.423   9.270  1.5686 -0.2389  3.6390
  3694G12c H00I68620   8.110   5.360   9.173 -3.8089 -3.2219  0.8457
  3694G12c C01M68621   7.848   5.301   9.391  0.2895  0.3310  1.4862
  3694G12c C02068622   7.460   5.018   9.380 -0.4673 -0.0437  0.2258
  3694G12c C02168623   7.565   4.915   9.396  1.2170  0.4129  0.7185
  3694G12c C01L68624   7.708   5.293   9.398 -1.1319 -0.1508 -1.1876
  3694G12c O00768625   7.944   5.203   9.426  0.3354 -0.9655  2.1829
  3694G12c C02268626   7.683   4.938   9.437 -1.4726 -1.9786  0.1421
  3694G12c C02368627   7.537   4.787   9.448 -0.3009  1.6173  0.2229
  3694G12c C00G68628   7.491   4.579   9.629 -0.8611 -0.0337 -0.9553
  3694G12c C00E68629   7.576   4.409   9.781 -1.1470 -1.6854  0.2452
  3694G12c O00A68630   7.547   4.325   9.881 -0.5063 -0.8041 -0.5207
  3694G12c C02468631   7.540   4.376  10.020 -0.3285  0.1474 -0.5865
  3694G12c H00V68632   7.575   4.342  10.118 -1.6837  0.7445  0.1102
  3694G12c H00U68633   7.433   4.392  10.025 -0.1981  0.9780 -0.4248
  3694G12c H00T68634   7.585   4.474  10.004  2.9922 -0.1476  5.4521
  3704G12c C00D68635   0.079   5.637   8.827 -0.6461  1.3071  1.0359
  3704G12c O00B68636   0.128   5.688   8.952  1.8758  3.1420 -0.5299
  3704G12c C02568637   0.174   5.812   8.970 -0.9558 -1.5116 -0.4099
  3704G12c C02668638   0.087   5.912   8.877 -0.4080  3.1272 -0.5711
  3704G12c H00Y68639   0.096   5.875   8.774 -3.2983 -0.1958  0.2580
  3704G12c H00X68640   0.133   6.009   8.859  3.0495  2.1526  2.4973
  3704G12c O00C68641  -0.062   5.914   8.900  0.0286  0.2236  0.1192
  3704G12c H00W68642  -0.079   5.860   8.976  2.8198  1.1402  1.4659
  3704G12c C02768643   0.291   5.840   9.034 -0.7319  0.4601  0.3283
  3704G12c O00D68644   0.389   5.749   9.076 -0.7152 -0.4691 -0.3805
  3704G12c H00Z68645   0.429   5.715   9.154  0.0893 -1.1805 -1.0882
  3704G12c C02868646   0.314   5.971   9.074  0.4498 -0.4792  0.8486
  3704G12c C02968647   0.220   6.056   9.119  0.8787  1.6658 -0.4893
  3704G12c H01068648   0.119   6.018   9.110 -0.4759  4.0323  3.5494
  3704G12c C02T68649   0.249   6.178   9.188  0.8944 -1.3824 -0.7345
  3704G12c H01O68650   0.167   6.214   9.247 -6.0417 -6.1449 -6.5259
  3704G12c C02S68651   0.386   6.225   9.169  0.8544  0.7957  0.0170
  3704G12c O00J68652   0.412   6.351   9.177  0.4276 -0.0944 -0.5918
  3704G12c H01P68653   0.506   6.348   9.183  0.3182 -1.4393  0.8780
  3704G12c C02R68654   0.479   6.146   9.124 -0.3774  1.1644 -0.0486
  3704G12c O00I68655   0.590   6.217   9.088  0.8334  0.8438  0.6135
  3704G12c C02Q68656   0.694   6.137   9.016 -0.2660  0.4624  0.5204
  3704G12c H01N68657   0.705   6.029   9.028  0.3882 -0.3952 -6.0226
  3704G12c H01R68658   0.789   6.149   9.069 -2.5531  2.2517  4.4812
  3704G12c H01Q68659   0.702   6.168   8.912  3.4982 -1.2739  0.2302
  3704G12c C02A68660   0.449   6.010   9.095 -0.8992  2.4228 -0.9961
  3704G12c H01168661   0.525   5.944   9.056 -3.6428 -0.1512 -2.1958
  3704G12c C00C68662  -0.053   5.578   8.815  0.5174 -1.8497  1.0535
  3704G12c H01268663  -0.106   5.546   8.903  0.3254 -2.6341  0.6604
  3704G12c C00B68664  -0.112   5.569   8.683 -0.0431  1.2975  1.1425
  3704G12c C00A68665  -0.246   5.565   8.656 -1.0147  0.3629 -0.3412
  3704G12c C00968666  -0.348   5.484   8.717  1.1251 -0.7122  0.4331
  3704G12c C00868667  -0.322   5.376   8.803 -0.8307  1.3823  1.5016
  3704G12c H01368668  -0.240   5.361   8.871 -1.9458  2.7398  3.2039
  3704G12c C00768669  -0.412   5.264   8.774  0.2893  0.5164  0.7358
  3704G12c H01468670  -0.373   5.185   8.837  1.4483  0.8539  0.4511
  3704G12c C00668671  -0.541   5.281   8.702  0.3823  1.9614 -0.1555
  3704G12c C00568672  -0.550   5.376   8.604 -1.1823  0.0232 -1.1486
  3704G12c C00468673  -0.611   5.366   8.483 -0.6304 -0.8182 -0.8172
  3704G12c C00368674  -0.569   5.446   8.370  0.8937  0.4266 -2.0094
  3704G12c C00268675  -0.638   5.412   8.248  0.9996 -0.3889  0.6259
  3704G12c C00168676  -0.633   5.451   8.111 -0.0026 -1.0109 -0.4522
  3704G12c C00M68677  -0.494   5.446   8.047  3.2366 -0.2502 -1.0222
  3704G12c C00L68678  -0.388   5.479   8.128 -1.7438 -1.4038  0.4807
  3704G12c C00R68679  -0.247   5.467   8.103 -0.4258  1.0161 -0.0633
  3704G12c C00Q68680  -0.176   5.403   7.993  1.2969 -0.6484  0.4102
  3704G12c C00V68681  -0.044   5.437   8.002 -0.8418  0.5829  1.5497
  3704G12c C00U68682   0.020   5.489   8.108  0.4732  1.0660 -0.2560
  3704G12c C00T68683  -0.050   5.546   8.209  0.8383  0.3221 -1.0641
  3704G12c C01668684   0.005   5.552   8.330  0.4359 -0.0081  1.1322
  3704G12c C01568685   0.147   5.573   8.339  1.5294 -0.8855 -1.6357
  3704G12c C01068686   0.222   5.530   8.233  0.7587 -0.7653 -1.3548
  3704G12c C01168687   0.363   5.545   8.242 -1.0775  1.0859 -0.2026
  3704G12c H00568688   0.449   5.513   8.185  0.8563  4.5218  0.6200
  3704G12c C01268689   0.415   5.633   8.343 -1.8092  0.6841  0.6245
  3704G12c C01768690   0.550   5.688   8.351 -0.2469 -0.0058  0.3854
  3704G12c O00268691   0.595   5.676   8.476 -1.3944 -0.9589 -0.4083
  3704G12c H00468692   0.672   5.626   8.499 -1.5043 -2.9593 -4.1240
  3704G12c C01868693   0.610   5.727   8.243 -0.7299 -0.3265  1.6981
  3704G12c O00168694   0.530   5.773   8.133 -0.5071 -0.3643  0.2855
  3704G12c H00368695   0.604   5.823   8.101 -0.9979  0.5147  0.5115
  3704G12c C01968696   0.756   5.804   8.246 -0.2844 -1.0434  0.2814
  3704G12c H00268697   0.796   5.791   8.346  3.7885  5.4478 -0.2302
  3704G12c H00168698   0.824   5.787   8.162 -0.2273  1.2134 -0.1765
  3704G12c O00068699   0.718   5.946   8.269 -0.8987 -1.9555 -0.3514
  3704G12c C01A68700   0.779   6.061   8.210 -1.2321 -0.1604  2.3615
  3704G12c C02K68701   0.799   6.184   8.281  0.4737  2.0940 -0.0021
  3704G12c O00G68702   0.767   6.190   8.414 -0.3401 -0.8716 -1.0366
  3704G12c C02M68703   0.657   6.272   8.431 -0.9079 -0.5484  0.8396
  3704G12c H01G68704   0.646   6.288   8.538 -6.8656  3.9924 -0.1696
  3704G12c H01F68705   0.558   6.241   8.396 -0.2431 -2.8532  0.9459
  3704G12c H01E68706   0.665   6.342   8.348 -3.8628  0.6832  1.5170
  3704G12c C02J68707   0.893   6.284   8.251 -0.1886 -1.6383  0.0596
  3704G12c H01H68708   0.876   6.374   8.308  5.6253 -2.2302  3.1415
  3704G12c C02I68709   0.941   6.270   8.122 -0.2210  2.0746  0.0189
  3704G12c C02N68710   1.010   6.394   8.079  0.8765 -1.2486 -1.8615
  3704G12c H01M68711   1.023   6.485   8.135 -0.7090 -3.9399  3.1485
  3704G12c C02O68712   1.032   6.408   7.936  1.0670 -1.1995  0.5833
  3704G12c H01L68713   1.021   6.318   7.877-10.1382  1.2856 -2.4671
  3704G12c C02P68714   1.091   6.515   7.877 -0.0624 -1.3255 -0.6580
  3704G12c H01K68715   1.197   6.519   7.904 -1.2371  1.9342  4.0768
  3704G12c H01J68716   1.072   6.511   7.770 -4.0981  1.9839 -0.2166
  3704G12c O00H68717   1.020   6.623   7.946  0.1255  0.7236  0.1832
  3704G12c H01I68718   1.078   6.684   7.989  3.0299 -3.2002  2.1951
  3704G12c C02H68719   0.920   6.150   8.040 -0.1450 -0.0483 -0.5066
  3704G12c H01C68720   0.973   6.143   7.946 -3.4668 -5.2799 -2.2161
  3704G12c C02L68721   0.841   6.044   8.086  0.5724  0.1744 -0.2230
  3704G12c H01D68722   0.825   5.956   8.025  5.0855  0.0899 -1.4807
  3704G12c C01368723   0.321   5.684   8.442 -1.0627  1.8584 -1.1150
  3704G12c H00068724   0.356   5.757   8.514 -1.5965  3.9045 -2.9212
  3704G12c C01468725   0.189   5.639   8.459 -1.3045 -2.2613 -0.8471
  3704G12c C00F68726   0.115   5.633   8.576  0.2996  1.5543  0.5390
  3704G12c C00H68727  -0.078   5.586   8.436  2.6855  0.9414 -1.3458
  3704G12c C00I68728  -0.216   5.604   8.420  0.6329  0.6871 -0.3749
  3704G12c C00J68729  -0.263   5.589   8.294  0.2774 -1.5867 -0.9621
  3704G12c C00Z68730   0.154   5.501   8.117  1.2221 -0.8647  1.6997
  3704G12c C00Y68731   0.239   5.461   8.003  0.2554 -0.8163  1.0962
  3704G12c H00668732   0.344   5.440   7.994  0.1302  0.4551 -5.4568
  3704G12c C00X68733   0.177   5.399   7.901  1.2303  0.7458 -1.4359
  3704G12c O00368734   0.278   5.370   7.796  0.6177 -0.3399 -0.7323
  3704G12c C01B68735   0.354   5.470   7.731 -0.4333 -0.1694  0.8660
  3704G12c H00968736   0.345   5.561   7.790 -8.1581  0.1639 -0.3930
  3704G12c H00868737   0.338   5.488   7.624  2.9405  2.3227  0.6688
  3704G12c H00768738   0.458   5.436   7.741  0.3644  1.7377 -0.5585
  3704G12c C00W68739   0.029   5.407   7.889  0.1852 -0.9385 -0.5778
  3704G12c O00468740  -0.008   5.329   7.785  0.5568  1.5703  0.7558
  3704G12c C01C68741  -0.129   5.265   7.804 -1.2384 -0.7757 -0.2977
  3704G12c H00A68742  -0.131   5.167   7.759 -2.3896 -1.6600  1.5759
  3704G12c C00P68743  -0.236   5.318   7.889  0.1911 -0.4816  0.7807
  3704G12c C00O68744  -0.369   5.276   7.891 -1.0060  0.6066 -0.3480
  3704G12c C01D68745  -0.399   5.159   7.805  0.3801 -0.2773  0.1912
  3704G12c H00S68746  -0.332   5.105   7.740 -2.8372  0.1025 -3.6587
  3704G12c C01E68747  -0.537   5.106   7.789 -1.2716 -0.2414 -1.0788
  3704G12c O00868748  -0.536   4.968   7.774 -0.8829 -1.4627 -0.8611
  3704G12c C01V68749  -0.481   4.921   7.653 -0.4064  0.8684  0.3118
  3704G12c C01Z68750  -0.589   4.917   7.535 -0.1601 -0.3434 -0.0964
  3704G12c H00R68751  -0.579   4.864   7.441  1.4110  6.6858 -4.2292
  3704G12c H00Q68752  -0.678   4.870   7.579 -3.6403  6.6185  1.0276
  3704G12c O00968753  -0.585   5.058   7.491 -0.3441 -0.7330 -1.4135
  3704G12c H00P68754  -0.593   5.111   7.569  5.5862 -1.6603  0.0283
  3704G12c C01W68755  -0.353   4.869   7.664 -1.3511 -1.2726 -0.5049
  3704G12c H00O68756  -0.298   4.865   7.757 -3.7672 -2.2197  0.9554
  3704G12c C01X68757  -0.287   4.791   7.546  0.8023 -0.0461  0.0207
  3704G12c H00N68758  -0.287   4.682   7.556  1.7812 -0.2115 -1.6423
  3704G12c H00M68759  -0.364   4.787   7.469  3.3214  0.5795 -2.5807
  3704G12c C01Y68760  -0.189   4.826   7.424 -0.7378 -0.1422  1.1194
  3704G12c C02D68761  -0.067   4.864   7.478 -1.5893  0.6481 -0.0004
  3704G12c H01968762  -0.081   4.853   7.584 -1.8149 -2.7532 -0.3113
  3704G12c C02C68763   0.034   4.884   7.388  0.7008  0.2354  0.7475
  3704G12c H01A68764   0.128   4.884   7.441  1.8589 -1.8431 -1.2332
  3704G12c C02B68765   0.017   4.872   7.253  1.2710 -1.0765 -0.1930
  3704G12c O00E68766   0.111   4.876   7.156  0.8052 -0.3453  0.1738
  3704G12c H01B68767   0.098   4.951   7.099 -5.6351  3.6120  5.9937
  3704G12c C02F68768  -0.106   4.820   7.214  0.6657  1.5182 -0.3996
  3704G12c O00F68769  -0.119   4.812   7.079  1.3678  0.9407  0.5985
  3704G12c C02G68770  -0.240   4.868   7.033 -0.4922 -0.7964  0.4692
  3704G12c H01768771  -0.318   4.795   7.054 -7.4313  4.9963 -2.8972
  3704G12c H01668772  -0.229   4.883   6.926 -1.5110  2.1054  0.7293
  3704G12c H01568773  -0.270   4.966   7.071 -1.2793 -2.3313  3.9779
  3704G12c C02E68774  -0.214   4.795   7.302  1.3010  0.6004  1.8755
  3704G12c H01868775  -0.308   4.749   7.275  3.1265 -0.5523 -3.0518
  3704G12c C01F68776  -0.628   5.172   7.879 -0.9634  1.8429  0.8271
  3704G12c C01G68777  -0.724   5.090   7.949  0.0106  0.8642 -0.2041
  3704G12c H00L68778  -0.751   4.988   7.926  6.1858 -0.1605 -3.9938
  3704G12c C01H68779  -0.792   5.127   8.064 -0.2026 -2.6401  0.6822
  3704G12c H00B68780  -0.859   5.068   8.125 -2.6686  0.7847  1.4449
  3704G12c C01I68781  -0.772   5.267   8.106  0.0705  0.3474 -0.2084
  3704G12c C01U68782  -0.625   5.305   7.930  0.6743 -0.9695  1.9540
  3704G12c C00S68783  -0.187   5.555   8.183  1.0368  0.5093 -0.0794
  3704G12c C00K68784  -0.392   5.545   8.260 -1.0378  0.2522  0.6171
  3704G12c C00N68785  -0.482   5.335   7.955  1.1276 -0.6584  1.5613
  3704G12c C00068786  -0.708   5.358   8.032 -0.8533 -2.3153  0.5128
  3704G12c C01J68787  -0.727   5.300   8.238  0.1231 -1.4532  0.4435
  3704G12c C01K68788  -0.781   5.242   8.355  1.4148  1.3110  0.4621
  3704G12c C01P68789  -0.905   5.163   8.368  1.3238 -0.7037  1.1544
  3704G12c C01Q68790  -1.026   5.170   8.284 -2.4406 -1.6686  0.1715
  3704G12c H00G68791  -1.094   5.252   8.295 -1.0720 -1.0566  5.2899
  3704G12c C01R68792  -1.084   5.077   8.212  1.5523 -1.5877  0.4965
  3704G12c H00F68793  -1.031   4.983   8.203  2.9469 -1.4105  5.2843
  3704G12c C01S68794  -1.224   5.091   8.139  0.4639 -0.8367 -0.0117
  3704G12c H00E68795  -1.264   5.192   8.150 -0.3032 -1.1642  0.2291
  3704G12c H00D68796  -1.238   5.067   8.033 -2.4688 -1.1149  0.3829
  3704G12c O00568797  -1.333   5.022   8.222  0.1518  0.6017  0.3662
  3704G12c H00C68798  -1.400   5.083   8.196 -0.6409 -1.1095 -1.7371
  3704G12c C01O68799  -0.900   5.071   8.463  0.4596 -1.0131 -0.5656
  3704G12c H00H68800  -0.961   4.983   8.450  0.5552 -1.6799  3.1437
  3704G12c C01N68801  -0.806   5.067   8.558 -1.1197  0.1512  0.9287
  3704G12c O00668802  -0.765   4.941   8.619  0.1345 -0.0216  0.6427
  3704G12c C01T68803  -0.846   4.832   8.603  0.4248  1.3531  1.8705
  3704G12c H00K68804  -0.843   4.820   8.495  2.0503  1.1845  1.9246
  3704G12c H00J68805  -0.834   4.758   8.682  2.0442 -1.8722 -1.2663
  3704G12c H00I68806  -0.955   4.826   8.614  0.3637 -0.9460  0.3884
  3704G12c C01M68807  -0.723   5.173   8.586  1.1070 -0.9092  1.4477
  3704G12c C02068808  -0.472   5.540   8.380  1.2330  1.9018 -1.0451
  3704G12c C02168809  -0.421   5.564   8.514 -2.0703  0.5512 -0.2767
  3704G12c C01L68810  -0.715   5.264   8.474  0.1996 -0.4011 -0.8011
  3704G12c O00768811  -0.614   5.163   8.668 -0.3659  0.2468 -0.8160
  3704G12c C02268812  -0.469   5.485   8.628 -1.0288 -0.2859  0.2066
  3704G12c C02368813  -0.303   5.620   8.542 -0.5901  1.5757  0.3318
  3704G12c C00G68814  -0.020   5.592   8.574 -1.0294  1.9027  0.7491
  3704G12c C00E68815   0.166   5.649   8.704  0.4823  0.8959  0.7471
  3704G12c O00A68816   0.285   5.692   8.733  0.4562 -0.6649  0.0421
  3704G12c C02468817   0.390   5.602   8.776  2.1113 -3.2154 -0.3107
  3704G12c H00V68818   0.487   5.634   8.739 -0.2599  3.2717 -1.6654
  3704G12c H00U68819   0.374   5.495   8.762 -2.7695 -2.0167 -5.4631
  3704G12c H00T68820   0.389   5.598   8.885 -4.3010  3.9718  0.3562
  3714G12c C00D68821   0.896  10.252   6.740 -0.2701  0.3584  1.4168
  3714G12c O00B68822   1.018  10.187   6.730  0.2629  0.6926  0.3581
  3714G12c C02568823   1.035  10.105   6.631 -0.8711 -1.0136  1.5193
  3714G12c C02668824   0.927  10.002   6.629 -0.2789  1.3740 -0.1161
  3714G12c H00Y68825   0.897   9.973   6.529 -0.4502-10.3276  2.6084
  3714G12c H00X68826   0.826  10.011   6.668 -0.4362 -2.6357  0.6083
  3714G12c O00C68827   0.958   9.883   6.694  1.6399 -1.2451  0.0660
  3714G12c H00W68828   0.871   9.848   6.704  0.4205  1.2258 -1.4473
  3714G12c C02768829   1.156  10.119   6.556 -1.6238  0.3834  1.7225
  3714G12c O00D68830   1.244  10.205   6.594  0.9701  1.3317  0.6233
  3714G12c H00Z68831   1.213  10.275   6.649 -5.2045 -2.7441  2.8535
  3714G12c C02868832   1.177  10.012   6.442  0.8960 -1.2040  0.9596
  3714G12c C02968833   1.310   9.983   6.412  0.7079 -1.0787  0.5018
  3714G12c H01068834   1.405  10.010   6.456  1.7291  4.8022 -4.5776
  3714G12c C02T68835   1.349   9.926   6.282  0.4352 -0.2158 -3.2112
  3714G12c H01O68836   1.451   9.919   6.249  1.0380 -4.9170 -0.8550
  3714G12c C02S68837   1.250   9.920   6.195  1.0756  0.5329  0.9111
  3714G12c O00J68838   1.277   9.891   6.073  0.1125 -0.5260 -0.3019
  3714G12c H01P68839   1.204   9.839   6.044  0.2470  1.3530 -4.3358
  3714G12c C02R68840   1.110   9.922   6.232 -1.3990  0.1866  1.1369
  3714G12c O00I68841   1.005   9.894   6.149 -0.6541  1.7296 -1.4872
  3714G12c C02Q68842   0.974   9.983   6.043 -0.4736  1.9486 -1.0103
  3714G12c H01N68843   0.906  10.062   6.075  2.1989  4.6117 -1.7616
  3714G12c H01R68844   0.918   9.906   5.990 -0.2458  0.9481  0.1675
  3714G12c H01Q68845   1.064   9.995   5.983  0.3137 -3.8731 -1.2841
  3714G12c C02A68846   1.078   9.979   6.347 -1.0758 -0.0714 -1.1650
  3714G12c H01168847   0.976  10.011   6.361  0.5354  4.0616  2.5382
  3714G12c C00C68848   0.838  10.303   6.613  0.0918 -0.8877 -0.9036
  3714G12c H01268849   0.907  10.300   6.530 -0.8526  3.0730 -1.9069
  3714G12c C00B68850   0.706  10.370   6.606  1.0403 -0.7016  0.6517
  3714G12c C00A68851   0.650  10.446   6.502  0.3885  0.6506 -0.0630
  3714G12c C00968852   0.706  10.492   6.380 -0.4941  1.5234  0.2169
  3714G12c C00868853   0.838  10.506   6.334 -0.1678  1.3494  0.6846
  3714G12c H01368854   0.914  10.430   6.349 -1.7371 -0.9366 -2.4817
  3714G12c C00768855   0.860  10.608   6.242 -0.2704 -0.1223 -0.2768
  3714G12c H01468856   0.957  10.615   6.195 -1.1236 -2.8867 -2.6061
  3714G12c C00668857   0.769  10.710   6.219  0.2620  2.3596  0.2277
  3714G12c C00568858   0.633  10.691   6.266 -0.5538 -0.1699 -1.0055
  3714G12c C00468859   0.541  10.799   6.248 -0.2955  1.2116  1.0852
  3714G12c C00368860   0.410  10.795   6.319  1.0771  1.0682 -0.7288
  3714G12c C00268861   0.354  10.916   6.330 -0.1009 -0.2484 -1.0928
  3714G12c C00168862   0.251  10.974   6.420 -1.1729 -1.7871 -0.0790
  3714G12c C00M68863   0.261  10.957   6.560  0.2842 -0.1493  0.5123
  3714G12c C00L68864   0.267  10.840   6.616 -1.9416  0.3066  0.5179
  3714G12c C00R68865   0.281  10.809   6.761  0.8289  0.1981  0.8615
  3714G12c C00Q68866   0.293  10.901   6.873  2.4889 -1.0218  0.1142
  3714G12c C00V68867   0.317  10.828   6.987  0.2345  0.5961  0.2714
  3714G12c C00U68868   0.361  10.696   6.987 -0.8702 -0.9371 -0.1410
  3714G12c C00T68869   0.390  10.626   6.874 -0.3140  0.9907 -0.3939
  3714G12c C01668870   0.467  10.520   6.852 -1.3258  1.6052 -0.3284
  3714G12c C01568871   0.519  10.473   6.973 -0.2900  0.1689 -0.8391
  3714G12c C01068872   0.467  10.515   7.096 -0.2599  1.0284 -1.4781
  3714G12c C01168873   0.504  10.451   7.228 -0.4059 -0.3308 -0.0521
  3714G12c H00568874   0.447  10.451   7.319 -6.8371  1.3873 -3.7551
  3714G12c C01268875   0.621  10.382   7.218  0.6265 -0.5536 -0.6658
  3714G12c C01768876   0.645  10.311   7.333  0.7965  1.5819  0.1191
  3714G12c O00268877   0.549  10.229   7.406 -1.4675  0.1703 -1.0955
  3714G12c H00468878   0.580  10.236   7.495  0.0085 -0.0228 -1.5780
  3714G12c C01868879   0.767  10.336   7.383 -0.0573 -0.6623 -0.1740
  3714G12c O00168880   0.844  10.462   7.374 -1.0933 -0.0506  0.5381
  3714G12c H00368881   0.802  10.546   7.385 -3.1964 -0.2845 -4.6346
  3714G12c C01968882   0.813  10.250   7.514 -0.0553  0.9218 -0.4512
  3714G12c H00268883   0.872  10.162   7.486 -1.0508 -0.3530  1.3070
  3714G12c H00168884   0.883  10.315   7.567  0.4436  0.4995 -0.5790
  3714G12c O00068885   0.715  10.259   7.613  0.9900  0.5761 -0.5601
  3714G12c C01A68886   0.669  10.387   7.653 -0.7262  0.6933  1.4194
  3714G12c C02K68887   0.525  10.398   7.648 -2.1026  0.1660  0.8217
  3714G12c O00G68888   0.445  10.286   7.660  0.4010  0.3614  1.7779
  3714G12c C02M68889   0.377  10.273   7.783  0.3495  0.1747 -0.2789
  3714G12c H01G68890   0.288  10.326   7.817  0.3520 -0.7927  1.2722
  3714G12c H01F68891   0.447  10.292   7.865  2.4087  0.7527 -2.1479
  3714G12c H01E68892   0.377  10.167   7.805  1.1289 -0.9276 -5.2223
  3714G12c C02J68893   0.473  10.525   7.646  0.1893  0.7324 -0.2359
  3714G12c H01H68894   0.373  10.561   7.664 -0.9349 -1.4857 -1.9267
  3714G12c C02I68895   0.551  10.645   7.638  1.6571  0.2509 -0.4257
  3714G12c C02N68896   0.492  10.773   7.653  0.9380 -0.4569  1.1863
  3714G12c H01M68897   0.429  10.814   7.576  0.5123  1.9537  2.7564
  3714G12c C02O68898   0.524  10.846   7.753 -0.1465 -0.1653 -0.3268
  3714G12c H01L68899   0.519  10.953   7.737  4.9095 -0.3189 -4.3031
  3714G12c C02P68900   0.609  10.819   7.887 -1.2251  0.1424  0.7939
  3714G12c H01K68901   0.552  10.818   7.980 -0.5695 -2.0862  1.2014
  3714G12c H01J68902   0.626  10.712   7.892  0.3931  0.2947 -0.8125
  3714G12c O00H68903   0.722  10.903   7.911 -1.2791 -0.2727 -0.6205
  3714G12c H01I68904   0.788  10.921   7.846  0.2833  1.5674  1.3839
  3714G12c C02H68905   0.693  10.636   7.622 -0.2314 -1.2183  1.2944
  3714G12c H01C68906   0.736  10.732   7.597 -6.2019  0.6311 -3.0571
  3714G12c C02L68907   0.748  10.516   7.654 -1.2544  0.9618  0.3495
  3714G12c H01D68908   0.855  10.505   7.644 -0.9555 -2.4774  5.4172
  3714G12c C01368909   0.683  10.362   7.104 -0.3657  0.5156  1.4605
  3714G12c H00068910   0.781  10.316   7.111 -1.3239 -1.3481  2.8956
  3714G12c C01468911   0.621  10.380   6.979 -0.4284 -1.0745  0.5667
  3714G12c C00F68912   0.691  10.344   6.858  1.2517 -0.8181 -0.6779
  3714G12c C00H68913   0.536  10.467   6.735 -0.5417 -0.7741  0.6389
  3714G12c C00I68914   0.476  10.514   6.631  0.1697  0.9444  1.4199
  3714G12c C00J68915   0.370  10.619   6.639 -1.0818  0.9160 -1.0528
  3714G12c C00Z68916   0.398  10.634   7.111  1.4265  0.3763  0.0397
  3714G12c C00Y68917   0.357  10.707   7.231  0.1173  0.6176 -0.7428
  3714G12c H00668918   0.379  10.652   7.322  3.0314  0.4025 -1.5410
  3714G12c C00X68919   0.287  10.837   7.229  0.0882 -0.8109  0.5407
  3714G12c O00368920   0.272  10.909   7.350 -0.0939  0.1906 -0.3229
  3714G12c C01B68921   0.138  10.943   7.399  1.0259  0.2120 -0.7385
  3714G12c H00968922   0.071  10.980   7.321 -4.8424  3.5973  5.4180
  3714G12c H00868923   0.135  11.008   7.486  0.5263 -0.8712  0.0684
  3714G12c H00768924   0.097  10.856   7.450  1.3751 -2.3421 -4.6206
  3714G12c C00W68925   0.287  10.898   7.100 -1.1776 -1.6014 -2.3619
  3714G12c O00468926   0.239  11.023   7.098  0.0630 -1.7801 -0.2598
  3714G12c C01C68927   0.171  11.070   6.987  0.4760 -0.4323  2.8205
  3714G12c H00A68928   0.104  11.154   6.972  2.6585  0.8696  0.0492
  3714G12c C00P68929   0.233  11.023   6.859  0.7539 -1.9512 -1.8708
  3714G12c C00O68930   0.247  11.127   6.753 -0.3002  1.0472  0.8286
  3714G12c C01D68931   0.282  11.261   6.759 -0.3238  0.7985 -0.5754
  3714G12c H00S68932   0.307  11.299   6.857 -2.6439  0.4642  0.1869
  3714G12c C01E68933   0.300  11.349   6.647 -0.8719  0.3504 -0.3889
  3714G12c O00868934   0.336  11.481   6.645 -0.1747  0.1799  0.8873
  3714G12c C01V68935   0.415  11.508   6.771  1.7143  0.4045 -1.1761
  3714G12c C01Z68936   0.333  11.560   6.898 -1.5140  1.6331  0.6643
  3714G12c H00R68937   0.270  11.482   6.942 -1.2387  1.5406  0.8906
  3714G12c H00Q68938   0.387  11.613   6.975 -3.4905  3.5337  0.7811
  3714G12c O00968939   0.232  11.622   6.834 -0.1841  0.8206 -0.4543
  3714G12c H00P68940   0.262  11.666   6.756  2.0822 -0.6112 -0.4555
  3714G12c C01W68941   0.547  11.513   6.745  0.7001 -0.8561 -0.3975
  3714G12c H00O68942   0.580  11.584   6.819  0.0512 -2.5166  1.5015
  3714G12c C01X68943   0.638  11.499   6.624 -0.0275 -0.7097  1.3386
  3714G12c H00N68944   0.741  11.514   6.654  1.0808 -1.7524 -1.8082
  3714G12c H00M68945   0.601  11.396   6.623 -0.4108 -0.5861 -2.1218
  3714G12c C01Y68946   0.580  11.597   6.518 -1.6077 -1.1069 -0.3577
  3714G12c C02D68947   0.560  11.549   6.387 -0.3059 -0.2491 -0.1292
  3714G12c H01968948   0.580  11.443   6.375  3.8477  0.4484 -0.3310
  3714G12c C02C68949   0.536  11.630   6.278  0.6505  0.3960 -1.4819
  3714G12c H01A68950   0.527  11.577   6.185 -6.4032  0.5705 -1.1512
  3714G12c C02B68951   0.524  11.773   6.306 -0.8069  0.4261  0.2900
  3714G12c O00E68952   0.507  11.845   6.198  0.4006  1.6484 -0.0919
  3714G12c H01B68953   0.543  11.927   6.229 -0.1628  0.8078  2.9921
  3714G12c C02F68954   0.523  11.822   6.442 -0.5341  0.6984  0.3695
  3714G12c O00F68955   0.464  11.947   6.471 -0.0956 -0.6347  0.1948
  3714G12c C02G68956   0.325  11.934   6.477  1.4281 -0.1440  0.3067
  3714G12c H01768957   0.280  11.887   6.564  1.8083 -4.8678 -1.8913
  3714G12c H01668958   0.296  11.899   6.378 -0.3762 -3.2442  1.8707
  3714G12c H01568959   0.286  12.035   6.467  2.9665  0.6185  1.7441
  3714G12c C02E68960   0.543  11.732   6.538  0.2692  0.6643 -0.3739
  3714G12c H01868961   0.501  11.771   6.629 -1.5828 -3.3910  0.5886
  3714G12c C01F68962   0.299  11.299   6.512  1.1860  0.3095  0.3065
  3714G12c C01G68963   0.313  11.364   6.385 -0.3851 -0.3963  0.5396
  3714G12c H00L68964   0.336  11.469   6.379 -2.8839  0.3043  2.6486
  3714G12c C01H68965   0.359  11.275   6.282 -0.7484 -0.4135 -0.3143
  3714G12c H00B68966   0.446  11.322   6.237 -3.4820  1.6133 -3.7171
  3714G12c C01I68967   0.336  11.141   6.282 -0.3420 -0.1392 -0.3609
  3714G12c C01U68968   0.262  11.175   6.504 -0.7772 -0.2448  0.7022
  3714G12c C00S68969   0.348  10.683   6.760  0.2968  0.7475 -1.3114
  3714G12c C00K68970   0.310  10.717   6.546  0.6227  0.1678  0.2506
  3714G12c C00N68971   0.244  11.085   6.614  0.3777 -1.4259 -0.5696
  3714G12c C00068972   0.242  11.102   6.380  0.4902  0.7866 -1.0670
  3714G12c C01J68973   0.389  11.020   6.234 -2.0594  2.0045 -1.2368
  3714G12c C01K68974   0.494  11.018   6.143 -1.5871 -0.8103 -0.4769
  3714G12c C01P68975   0.521  11.097   6.031  0.7291  0.1898  1.5992
  3714G12c C01Q68976   0.433  11.196   5.960  0.0640 -0.0821 -0.6497
  3714G12c H00G68977   0.350  11.178   5.894 -1.6902  2.0661  0.8801
  3714G12c C01R68978   0.457  11.333   5.958 -0.2212 -0.0384 -1.7596
  3714G12c H00F68979   0.529  11.381   6.023 -1.1569  5.4678 -4.5231
  3714G12c C01S68980   0.381  11.426   5.869  0.6196  2.3235 -0.8018
  3714G12c H00E68981   0.441  11.460   5.784 -3.3064  3.0362 -3.3879
  3714G12c H00D68982   0.286  11.375   5.857 -0.3494  2.7263  4.0066
  3714G12c O00568983   0.359  11.536   5.936 -1.9441 -0.6466  0.0289
  3714G12c H00C68984   0.313  11.524   6.017 -2.6093  5.6999  0.8644
  3714G12c C01O68985   0.645  11.089   5.978 -0.2480 -0.0480 -0.3570
  3714G12c H00H68986   0.664  11.140   5.885  0.2770 -2.1708 -1.4476
  3714G12c C01N68987   0.751  11.015   6.030 -0.5300  0.8158 -1.4116
  3714G12c O00668988   0.870  11.004   5.973 -0.3758 -1.3941 -0.6735
  3714G12c C01T68989   0.896  11.010   5.849 -0.4066  1.6802  0.0664
  3714G12c H00K68990   1.002  11.031   5.863  0.8792 -3.8532 -0.2759
  3714G12c H00J68991   0.863  11.098   5.793  6.2079  0.6278 -6.2768
  3714G12c H00I68992   0.896  10.917   5.793 -4.9200  1.6098 -0.0410
  3714G12c C01M68993   0.711  10.909   6.102  0.6400  0.8540  0.9951
  3714G12c C02068994   0.383  10.686   6.410 -0.3744 -0.7371 -1.2224
  3714G12c C02168995   0.483  10.577   6.404  0.1675 -2.1940 -0.5557
  3714G12c C01L68996   0.586  10.910   6.178 -0.0241  0.6991  0.5382
  3714G12c O00768997   0.795  10.804   6.127  1.0836 -0.8942 -0.3042
  3714G12c C02268998   0.601  10.582   6.318  0.2324  1.2737  0.5169
  3714G12c C02368999   0.513  10.472   6.492 -0.7253  0.1367  0.0932
  3714G12c C00G69000   0.640  10.384   6.731  0.0979 -1.3999  1.8472
  3714G12c C00E69001   0.801  10.261   6.848  1.0614  0.8584 -0.0457
  3714G12c O00A69002   0.834  10.173   6.960 -0.8077 -0.1519  1.9544
  3714G12c C02469003   0.894  10.044   6.942 -0.2970 -1.7627 -0.7625
  3714G12c H00V69004   0.836   9.976   6.879 -4.6694 -3.4547  4.7021
  3714G12c H00U69005   0.998  10.063   6.918 -1.1384  7.5677  1.0370
  3714G12c H00T69006   0.912   9.990   7.035  6.4518 -0.4455 -1.0601
  3724G12c C00D69007   5.948   7.156   2.619 -0.1408 -1.5463  0.9012
  3724G12c O00B69008   5.921   7.293   2.586  0.1182  0.5048  0.1208
  3724G12c C02569009   5.795   7.357   2.587  0.3853 -0.1045 -0.4416
  3724G12c C02669010   5.830   7.510   2.605  0.1519  0.8183  0.4633
  3724G12c H00Y69011   5.739   7.561   2.575  1.9326  1.7930 -3.6160
  3724G12c H00X69012   5.847   7.508   2.712 -0.3774 -3.3633  0.5585
  3724G12c O00C69013   5.936   7.573   2.553 -1.7359  0.2308 -0.9311
  3724G12c H00W69014   5.981   7.515   2.493  1.2996 -0.7080  2.0437
  3724G12c C02769015   5.672   7.309   2.553  1.0487 -0.3064 -0.5263
  3724G12c O00D69016   5.642   7.172   2.496 -0.5550  0.1870  0.1388
  3724G12c H00Z69017   5.707   7.145   2.432  0.9307  0.1928  1.6197
  3724G12c C02869018   5.541   7.388   2.560  0.7144 -0.7716  1.3032
  3724G12c C02969019   5.511   7.461   2.671  0.0990 -0.8717 -0.8053
  3724G12c H01069020   5.575   7.455   2.758  0.1805  3.1082 -0.5056
  3724G12c C02T69021   5.394   7.537   2.666  0.0336  0.4328 -0.3753
  3724G12c H01O69022   5.360   7.577   2.760 -0.0847 -4.1806  1.6783
  3724G12c C02S69023   5.320   7.569   2.548 -0.3641 -0.4688 -0.2556
  3724G12c O00J69024   5.197   7.641   2.540 -1.1363  0.5035 -0.6549
  3724G12c H01P69025   5.149   7.580   2.487 -5.2016 -0.8377  4.1859
  3724G12c C02R69026   5.355   7.504   2.433 -1.0314  1.0699  0.2408
  3724G12c O00I69027   5.304   7.532   2.309  0.0220 -1.2766 -0.7291
  3724G12c C02Q69028   5.378   7.623   2.225  0.4879  2.4152 -1.1179
  3724G12c H01N69029   5.461   7.674   2.274  2.4196 -0.9020 -0.7687
  3724G12c H01R69030   5.295   7.670   2.173 -6.4188 -5.7728  1.2922
  3724G12c H01Q69031   5.431   7.575   2.143 -1.2076 -0.2138 -0.7293
  3724G12c C02A69032   5.452   7.407   2.453 -1.4657 -1.3447 -0.2242
  3724G12c H01169033   5.489   7.354   2.367  1.6644 -2.7656  1.8724
  3724G12c C00C69034   5.857   7.077   2.688 -0.0919 -0.6217  1.1821
  3724G12c H01269035   5.763   7.121   2.717  1.3616  5.5497 -2.4155
  3724G12c C00B69036   5.885   6.947   2.744 -0.7898 -0.5165  0.3218
  3724G12c C00A69037   5.790   6.867   2.824  0.9199  0.8200  1.1498
  3724G12c C00969038   5.729   6.918   2.950 -1.5829  0.6758  0.4817
  3724G12c C00869039   5.748   7.053   2.997  0.1764 -0.9564 -0.1856
  3724G12c H01369040   5.784   7.130   2.931  0.7159 -0.2137  0.9459
  3724G12c C00769041   5.720   7.080   3.131  2.0483  0.2329  0.3844
  3724G12c H01469042   5.707   7.187   3.131 -1.5328 -0.0329 -4.1797
  3724G12c C00669043   5.716   6.984   3.236 -0.8224  1.2295  0.2867
  3724G12c C00569044   5.739   6.864   3.177 -1.8861 -0.1574 -1.6621
  3724G12c C00469045   5.787   6.758   3.266 -0.3828  0.7131 -3.1726
  3724G12c C00369046   5.853   6.648   3.197 -0.2465  0.0073 -0.4259
  3724G12c C00269047   5.890   6.551   3.295  0.3114  0.5732 -0.5581
  3724G12c C00169048   5.949   6.417   3.268  0.2369 -1.2983  1.5499
  3724G12c C00M69049   6.076   6.422   3.188  0.6428 -1.7392  0.6373
  3724G12c C00L69050   6.062   6.460   3.060 -0.8136 -1.4458  0.4791
  3724G12c C00R69051   6.179   6.481   2.982 -2.0226 -0.8765  0.0883
  3724G12c C00Q69052   6.316   6.435   2.997 -0.0660 -0.0793  0.6964
  3724G12c C00V69053   6.403   6.482   2.893  0.9753 -0.5107 -0.4665
  3724G12c C00U69054   6.363   6.568   2.780 -0.0608  0.4625 -0.6106
  3724G12c C00T69055   6.239   6.615   2.783 -0.2435 -2.6379  0.2888
  3724G12c C01669056   6.183   6.729   2.727 -2.2971  0.6814 -1.1505
  3724G12c C01569057   6.267   6.806   2.656 -0.1724  2.4587  0.3000
  3724G12c C01069058   6.400   6.762   2.648 -0.4771  0.2507  0.3902
  3724G12c C01169059   6.495   6.840   2.573  0.7592  0.4336 -0.3618
  3724G12c H00569060   6.599   6.819   2.589  0.7572  3.6567  5.5378
  3724G12c C01269061   6.444   6.929   2.486  0.1138 -0.9445  1.3789
  3724G12c C01769062   6.539   7.035   2.435 -1.4980  0.6822 -0.1274
  3724G12c O00269063   6.543   7.154   2.485 -0.9897 -1.2044  0.0041
  3724G12c H00469064   6.628   7.132   2.519 -0.1263  0.7314 -0.8682
  3724G12c C01869065   6.610   7.019   2.326  0.2441  0.4503 -0.6552
  3724G12c O00169066   6.615   6.902   2.256  0.1044 -0.2397  0.4041
  3724G12c H00369067   6.590   6.834   2.317  1.8027  0.2080  1.6285
  3724G12c C01969068   6.715   7.117   2.282  0.5219  0.1876 -0.0518
  3724G12c H00269069   6.692   7.166   2.187 -2.3861  2.5880  1.7953
  3724G12c H00169070   6.686   7.215   2.320 -1.7442 -0.7061  0.5571
  3724G12c O00069071   6.842   7.121   2.334  0.8497 -1.2097  0.6534
  3724G12c C01A69072   6.965   7.130   2.245 -0.8210  1.9419 -0.3706
  3724G12c C02K69073   7.038   7.006   2.217  0.4320  0.1559  0.9374
  3724G12c O00G69074   7.014   6.876   2.231 -0.4905 -1.3517 -0.0156
  3724G12c C02M69075   7.005   6.835   2.377 -0.9561 -1.1186 -1.0456
  3724G12c H01G69076   7.001   6.906   2.459  1.6218 -6.2113  3.8527
  3724G12c H01F69077   7.082   6.768   2.416  0.2681  2.2218  2.5632
  3724G12c H01E69078   6.960   6.739   2.403 -0.5802 -1.9096 -3.1971
  3724G12c C02J69079   7.175   7.023   2.189 -0.4132 -0.0675  0.5508
  3724G12c H01H69080   7.233   6.933   2.180  2.3560  2.0029 -4.1824
  3724G12c C02I69081   7.217   7.141   2.122 -1.3029 -0.6048 -0.8053
  3724G12c C02N69082   7.342   7.129   2.045 -2.5080  0.6561 -2.7067
  3724G12c H01M69083   7.416   7.138   2.124 -2.2073  4.1465 -3.2769
  3724G12c C02O69084   7.392   7.046   1.955  0.0652 -0.7804  1.1019
  3724G12c H01L69085   7.301   7.023   1.900  1.1199 -2.1909 -0.0974
  3724G12c C02P69086   7.528   7.004   1.885  1.3502  0.3924 -0.1121
  3724G12c H01K69087   7.543   7.093   1.823 -7.1022  3.3225  1.3085
  3724G12c H01J69088   7.607   6.993   1.959  2.3334 -6.0553 -1.8105
  3724G12c O00H69089   7.518   6.883   1.813  0.2396 -0.1660 -0.7610
  3724G12c H01I69090   7.524   6.912   1.723  1.6075  0.2927 -0.5307
  3724G12c C02H69091   7.140   7.268   2.135 -0.6102  0.5615  1.5329
  3724G12c H01C69092   7.144   7.372   2.106 -8.0466  1.1260  1.5717
  3724G12c C02L69093   7.015   7.257   2.196  0.7318  0.6064  0.7040
  3724G12c H01D69094   6.960   7.347   2.174 -2.8314 -2.9983 -6.8452
  3724G12c C01369095   6.300   6.947   2.480 -0.1746  1.2255 -2.6419
  3724G12c H00069096   6.285   7.031   2.413 -0.0331 -0.2073 -4.5141
  3724G12c C01469097   6.230   6.924   2.600  0.4241 -0.7582  0.8431
  3724G12c C00F69098   6.112   6.981   2.633  0.4417  1.3876 -0.5735
  3724G12c C00H69099   6.050   6.781   2.764 -0.9111 -0.4482 -2.5643
  3724G12c C00I69100   5.961   6.711   2.844 -0.4030  0.2855 -1.8595
  3724G12c C00J69101   6.020   6.586   2.894  1.4188  1.3115 -0.6145
  3724G12c C00Z69102   6.459   6.649   2.719  3.0245  1.4564 -0.6424
  3724G12c C00Y69103   6.589   6.591   2.712 -1.7635  0.1823 -0.0179
  3724G12c H00669104   6.676   6.618   2.654 -0.8510  1.9957  2.1151
  3724G12c C00X69105   6.628   6.488   2.811 -0.7827 -0.8344  2.5630
  3724G12c O00369106   6.757   6.440   2.835 -0.1212 -0.4650  0.9203
  3724G12c C01B69107   6.881   6.529   2.809  0.3309  0.2763 -0.9310
  3724G12c H00969108   6.900   6.527   2.702  4.9460 10.9042 -0.9904
  3724G12c H00869109   6.954   6.467   2.860 -2.1185  0.9960  3.6966
  3724G12c H00769110   6.901   6.616   2.872 -1.3315 -2.6570  3.9298
  3724G12c C00W69111   6.540   6.453   2.910  0.0507 -1.3917 -0.0592
  3724G12c O00469112   6.601   6.399   3.027  1.8856 -0.2014 -0.4716
  3724G12c C01C69113   6.510   6.305   3.066 -0.0318  0.3549 -0.8872
  3724G12c H00A69114   6.495   6.198   3.052  3.7056 -0.3961  0.3543
  3724G12c C00P69115   6.385   6.358   3.090  0.4351  0.1970  0.6237
  3724G12c C00O69116   6.323   6.317   3.215 -1.3933  0.5238 -0.3274
  3724G12c C01D69117   6.397   6.276   3.324  1.4065  0.2593  0.5437
  3724G12c H00S69118   6.503   6.255   3.317  0.8471 -4.0681  3.2647
  3724G12c C01E69119   6.363   6.312   3.462  0.4915  2.0488 -1.1607
  3724G12c O00869120   6.457   6.320   3.560  0.3017 -0.4411 -1.9201
  3724G12c C01V69121   6.542   6.423   3.585  1.6027 -0.1127 -1.1205
  3724G12c C01Z69122   6.630   6.413   3.716  0.1086 -0.9112  1.2204
  3724G12c H00R69123   6.686   6.498   3.755 -3.4514  1.8711  0.6297
  3724G12c H00Q69124   6.557   6.367   3.783 -5.2345  3.6314 -1.0149
  3724G12c O00969125   6.743   6.328   3.698  1.7711  0.1841  0.0263
  3724G12c H00P69126   6.728   6.235   3.707 -2.9185  1.0183  2.3767
  3724G12c C01W69127   6.565   6.518   3.489  0.0866  0.2954  0.2283
  3724G12c H00O69128   6.528   6.509   3.388 -3.5352  1.8033  1.3458
  3724G12c C01X69129   6.670   6.627   3.500 -0.3070 -0.3070 -0.1928
  3724G12c H00N69130   6.719   6.668   3.589  3.3438 -1.6119 -1.4981
  3724G12c H00M69131   6.757   6.615   3.435  0.3162  2.0077  0.1723
  3724G12c C01Y69132   6.624   6.768   3.444 -0.3716  0.0367 -0.2953
  3724G12c C02D69133   6.730   6.869   3.427  0.0875 -0.5400  0.3170
  3724G12c H01969134   6.833   6.838   3.432 -0.2157 -1.7967 -0.8737
  3724G12c C02C69135   6.704   6.994   3.392 -0.5300  2.2469 -0.5441
  3724G12c H01A69136   6.800   7.038   3.366 -0.9073  1.8732 -2.6767
  3724G12c C02B69137   6.579   7.053   3.402  0.1619  0.8529 -1.7618
  3724G12c O00E69138   6.563   7.162   3.345 -0.2509 -0.7046 -0.8464
  3724G12c H01B69139   6.478   7.197   3.367 -0.0067 -0.8692  0.4514
  3724G12c C02F69140   6.471   6.958   3.415 -0.9375  0.6820  0.7863
  3724G12c O00F69141   6.349   7.012   3.450  0.4977  1.3020 -0.8369
  3724G12c C02G69142   6.258   6.947   3.543 -0.3846  0.4167  0.8285
  3724G12c H01769143   6.153   6.975   3.531  0.1645  0.4291 -6.8988
  3724G12c H01669144   6.270   6.840   3.528 -4.6358  0.5211 -5.4500
  3724G12c H01569145   6.310   6.959   3.637  9.1941 -2.7110 -3.4177
  3724G12c C02E69146   6.492   6.821   3.431 -1.0031  0.2656  1.4455
  3724G12c H01869147   6.414   6.749   3.447  2.0709 -4.1556 -2.1444
  3724G12c C01F69148   6.224   6.347   3.493  0.6290  0.4609 -1.1538
  3724G12c C01G69149   6.188   6.388   3.621  0.4391  0.2433 -0.0546
  3724G12c H00L69150   6.255   6.369   3.704  2.2419 -3.3846 -2.2413
  3724G12c C01H69151   6.071   6.448   3.615 -0.3312  1.3252  1.2562
  3724G12c H00B69152   6.064   6.508   3.705 -4.8658  4.5312 -1.0219
  3724G12c C01I69153   5.975   6.451   3.508 -0.5978  1.7972  0.7903
  3724G12c C01U69154   6.128   6.346   3.382  0.0904  1.3289 -0.6897
  3724G12c C00S69155   6.145   6.529   2.852 -0.2070  0.1691 -0.4265
  3724G12c C00K69156   5.957   6.528   3.013  0.3309 -0.3979  0.7295
  3724G12c C00N69157   6.184   6.348   3.255  0.0713  0.5022  0.1764
  3724G12c C00069158   5.986   6.377   3.395  1.4331 -1.3021  0.6515
  3724G12c C01J69159   5.896   6.564   3.443 -1.1782 -1.0755  0.9048
  3724G12c C01K69160   5.833   6.669   3.501  0.0629 -1.1091 -0.6140
  3724G12c C01P69161   5.795   6.672   3.642 -0.2040 -0.9002 -1.2963
  3724G12c C01Q69162   5.793   6.560   3.738 -0.1535 -0.4367  0.4652
  3724G12c H00G69163   5.835   6.569   3.837  0.0666 -1.0265  0.4262
  3724G12c C01R69164   5.729   6.446   3.693 -0.8482 -0.5616 -1.4599
  3724G12c H00F69165   5.723   6.454   3.585  1.8406  2.8354 -1.4314
  3724G12c C01S69166   5.704   6.313   3.747 -1.2372 -0.0588 -1.1557
  3724G12c H00E69167   5.642   6.329   3.836 -2.6957 -2.3458 -1.7166
  3724G12c H00D69168   5.676   6.231   3.682  4.6409 -2.0217 -1.5097
  3724G12c O00569169   5.835   6.302   3.810 -0.5588 -0.8980 -2.0106
  3724G12c H00C69170   5.845   6.231   3.871 -3.8099 -3.0951 -3.9009
  3724G12c C01O69171   5.753   6.814   3.691 -1.0086  0.8311 -0.6900
  3724G12c H00H69172   5.745   6.844   3.794  1.7827 -5.6742  1.6899
  3724G12c C01N69173   5.674   6.891   3.603  0.2110 -1.3492 -1.0972
  3724G12c O00669174   5.595   6.992   3.660  2.1735  0.6683 -1.0772
  3724G12c C01T69175   5.497   6.922   3.722  0.6657  0.0709  1.3912
  3724G12c H00K69176   5.525   6.917   3.827  3.8148 -3.2806  0.5018
  3724G12c H00J69177   5.453   6.823   3.708 -3.9911  2.2640 -0.6272
  3724G12c H00I69178   5.411   6.972   3.678 -1.1237 -5.6785 -2.0696
  3724G12c C01M69179   5.712   6.885   3.466 -0.8372  1.5294  1.2511
  3724G12c C02069180   5.859   6.607   3.067  0.3198  0.2446 -0.8064
  3724G12c C02169181   5.798   6.719   2.997  0.4557  0.7441 -1.1290
  3724G12c C01L69182   5.773   6.770   3.410 -1.7054  0.3898 -0.6729
  3724G12c O00769183   5.702   6.996   3.378  0.3731  0.3594  0.7421
  3724G12c C02269184   5.748   6.820   3.044  0.9296 -0.1648  0.2545
  3724G12c C02369185   5.835   6.747   2.869  1.1675 -1.7569 -0.3292
  3724G12c C00G69186   6.018   6.903   2.707  1.1793  0.0698  0.1287
  3724G12c C00E69187   6.078   7.116   2.590  0.1049  1.1729  0.2449
  3724G12c O00A69188   6.148   7.212   2.544  0.7600 -1.1780  0.8850
  3724G12c C02469189   6.262   7.249   2.633  2.5273  0.5240  0.1175
  3724G12c H00V69190   6.308   7.303   2.550 -1.8858  3.4873 -0.5107
  3724G12c H00U69191   6.326   7.162   2.652 -1.1111 -3.4544 -4.3501
  3724G12c H00T69192   6.238   7.308   2.721  0.8500  3.1632 -2.0419
  3734G12c C00D69193   4.877   1.907   7.823 -0.4908  0.7411 -0.9259
  3734G12c O00B69194   4.854   1.777   7.781 -0.8139 -0.4359 -1.6433
  3734G12c C02569195   4.762   1.776   7.677  0.5108 -0.2005  1.8592
  3734G12c C02669196   4.839   1.817   7.532 -0.0245  1.0659  0.2755
  3734G12c H00Y69197   4.875   1.724   7.488  3.2458  3.0775 -1.4557
  3734G12c H00X69198   4.918   1.888   7.553 -0.5793  1.1418  2.1917
  3734G12c O00C69199   4.767   1.920   7.447 -2.3759  0.8115  1.3442
  3734G12c H00W69200   4.674   1.915   7.463 -2.7565  1.7152 -0.4382
  3734G12c C02769201   4.633   1.757   7.698  0.9852 -0.6527  0.4565
  3734G12c O00D69202   4.593   1.732   7.824  0.2674 -0.0218 -0.0671
  3734G12c H00Z69203   4.519   1.679   7.799 -2.6705  3.6182  0.4049
  3734G12c C02869204   4.541   1.683   7.615 -0.8284  0.4308 -0.0869
  3734G12c C02969205   4.593   1.568   7.556 -0.0508  0.6089 -0.6827
  3734G12c H01069206   4.697   1.547   7.573 -0.0420  2.2679  1.3683
  3734G12c C02T69207   4.528   1.500   7.450 -0.5178  0.0434  0.0755
  3734G12c H01O69208   4.583   1.456   7.368  1.1386  4.3917 -1.2757
  3734G12c C02S69209   4.391   1.529   7.427 -0.2818 -1.1068 -0.6143
  3734G12c O00J69210   4.330   1.503   7.304  0.2989  0.6975 -0.2037
  3734G12c H01P69211   4.242   1.474   7.322  1.1821 -0.2919  2.7924
  3734G12c C02R69212   4.324   1.609   7.525  0.9626  0.3136 -3.0019
  3734G12c O00I69213   4.199   1.642   7.507 -0.6790 -0.2507  0.3788
  3734G12c C02Q69214   4.134   1.731   7.595  0.9295  0.1335 -1.1811
  3734G12c H01N69215   4.033   1.698   7.570 -0.9191  2.4701  2.7505
  3734G12c H01R69216   4.137   1.832   7.554  0.3668  1.2366  1.4189
  3734G12c H01Q69217   4.168   1.759   7.694 -1.4924 -0.1680 -0.2088
  3734G12c C02A69218   4.400   1.674   7.615 -0.3791  1.1615  1.3704
  3734G12c H01169219   4.357   1.752   7.677  1.1577  1.4139  2.1315
  3734G12c C00C69220   4.792   2.019   7.804  1.1825  0.1936 -1.1515
  3734G12c H01269221   4.695   2.011   7.758  0.7932 -1.1501 -0.1445
  3734G12c C00B69222   4.802   2.133   7.875 -1.1380  0.2574 -0.3133
  3734G12c C00A69223   4.705   2.234   7.882 -1.9094 -0.9205  0.7181
  3734G12c C00969224   4.589   2.257   7.805  1.9409  0.8233  0.9470
  3734G12c C00869225   4.531   2.210   7.676 -0.5667  1.4439  1.8470
  3734G12c H01369226   4.584   2.131   7.624 -3.2310 -0.9343  2.5876
  3734G12c C00769227   4.418   2.275   7.633 -0.7166 -0.7094 -0.1438
  3734G12c H01469228   4.382   2.240   7.537  4.9720 -6.2599 -0.5622
  3734G12c C00669229   4.402   2.410   7.679 -0.7001  0.6169  2.9472
  3734G12c C00569230   4.478   2.459   7.779 -0.2997  1.1633 -1.0788
  3734G12c C00469231   4.456   2.590   7.828  1.2007 -1.2801 -0.1815
  3734G12c C00369232   4.538   2.639   7.940 -0.0380  0.3946 -0.0494
  3734G12c C00269233   4.549   2.779   7.936  0.5238  0.3254  0.7240
  3734G12c C00169234   4.637   2.857   8.033  0.8018 -0.0761 -0.1653
  3734G12c C00M69235   4.774   2.833   8.042  0.4435  0.1431 -0.1460
  3734G12c C00L69236   4.832   2.713   8.095 -0.2468 -0.3450 -1.2398
  3734G12c C00R69237   4.975   2.684   8.081 -0.4937 -0.4799 -0.3749
  3734G12c C00Q69238   5.086   2.764   8.048  2.6985 -0.0897 -0.2589
  3734G12c C00V69239   5.205   2.688   8.023 -1.6954  0.9691 -0.7612
  3734G12c C00U69240   5.208   2.540   8.022  0.6163  1.1066 -1.4387
  3734G12c C00T69241   5.095   2.463   8.033  0.7648 -0.3825  0.3746
  3734G12c C01669242   5.082   2.332   8.000  0.3752 -1.0326  0.8479
  3734G12c C01569243   5.192   2.260   7.954 -0.6532  0.6896 -0.1350
  3734G12c C01069244   5.317   2.318   7.969  0.4270  0.0879  1.5275
  3734G12c C01169245   5.436   2.229   7.957 -0.7542  0.7800  0.9648
  3734G12c H00569246   5.523   2.258   8.014 -3.1125  3.5067  3.3908
  3734G12c C01269247   5.407   2.093   7.921 -0.7090 -0.0441 -0.8278
  3734G12c C01769248   5.510   1.992   7.935 -0.8651  0.4399 -0.9038
  3734G12c O00269249   5.608   2.006   7.852 -0.1341 -2.8430 -0.8786
  3734G12c H00469250   5.566   1.975   7.773 -2.0553 -1.3310 -0.4912
  3734G12c C01869251   5.531   1.929   8.056 -0.9459 -0.5292  0.3620
  3734G12c O00169252   5.630   1.840   8.055  0.4352 -0.2863 -2.4955
  3734G12c H00369253   5.708   1.893   8.048  1.9611 -2.3591 -1.6580
  3734G12c C01969254   5.441   1.963   8.172  1.3632  0.5267  0.4667
  3734G12c H00269255   5.345   1.939   8.127  4.6650 -6.0871 -3.7424
  3734G12c H00169256   5.431   1.892   8.254 -0.3562  0.0396 -0.1368
  3734G12c O00069257   5.435   2.114   8.214  0.3586 -0.1393 -0.0822
  3734G12c C01A69258   5.485   2.133   8.340  0.8429  0.4442 -0.1976
  3734G12c C02K69259   5.393   2.169   8.455  0.8206 -0.6636  0.3016
  3734G12c O00G69260   5.260   2.194   8.442 -0.6243  0.0504 -0.9092
  3734G12c C02M69261   5.217   2.320   8.492  0.3479  0.1595 -1.5767
  3734G12c H01G69262   5.298   2.386   8.525  4.8814 -5.9792  0.4916
  3734G12c H01F69263   5.153   2.299   8.577  0.5106 -1.8981 -1.9481
  3734G12c H01E69264   5.166   2.358   8.404 -0.8738 -2.6319 -2.1046
  3734G12c C02J69265   5.452   2.194   8.582 -0.3419 -0.2545 -0.2793
  3734G12c H01H69266   5.372   2.219   8.650 -1.5897 -2.2691 -0.9541
  3734G12c C02I69267   5.590   2.180   8.601  3.4864  0.2088 -1.2699
  3734G12c C02N69268   5.627   2.178   8.739 -0.7154 -1.4105  0.0278
  3734G12c H01M69269   5.659   2.100   8.806  2.2530  3.7885  5.1809
  3734G12c C02O69270   5.622   2.289   8.813  1.0413 -1.9974 -0.1558
  3734G12c H01L69271   5.594   2.389   8.783 -0.5240 -0.8790  4.5798
  3734G12c C02P69272   5.658   2.300   8.944  0.5642  0.3400 -0.2308
  3734G12c H01K69273   5.767   2.304   8.947  0.4864  6.3590  0.3402
  3734G12c H01J69274   5.613   2.397   8.966 -0.5701  0.3609 -2.4004
  3734G12c O00H69275   5.581   2.197   8.989 -0.9589 -1.1493  0.7176
  3734G12c H01I69276   5.528   2.179   8.913  3.0410 -4.4270 -1.5563
  3734G12c C02H69277   5.678   2.147   8.495  0.7500 -1.8947 -0.3185
  3734G12c H01C69278   5.784   2.140   8.513  1.5896  2.6800 -2.6143
  3734G12c C02L69279   5.629   2.135   8.355  0.4544 -0.0718 -0.2621
  3734G12c H01D69280   5.689   2.118   8.267 -2.3513  5.8750 -3.6241
  3734G12c C01369281   5.270   2.053   7.883  0.0742  0.1667  1.0140
  3734G12c H00069282   5.248   1.963   7.827  2.5636  0.6706 -0.8306
  3734G12c C01469283   5.168   2.130   7.915  1.0631 -0.7086 -0.0756
  3734G12c C00F69284   5.028   2.079   7.906  1.9237  0.1574 -0.5410
  3734G12c C00H69285   4.954   2.289   7.984 -1.1314 -0.8291 -0.0954
  3734G12c C00I69286   4.841   2.366   8.013  0.7744  2.1453 -0.2756
  3734G12c C00J69287   4.870   2.488   8.074  0.3391 -1.9203 -1.0029
  3734G12c C00Z69288   5.324   2.463   7.990 -0.1149 -0.9740  1.0833
  3734G12c C00Y69289   5.441   2.537   7.951 -1.0053  0.6908  0.0765
  3734G12c H00669290   5.523   2.474   7.920 -2.6505 -0.6682 -1.6577
  3734G12c C00X69291   5.451   2.675   7.989  0.2302  0.4671 -0.8622
  3734G12c O00369292   5.569   2.734   7.991  0.6419  0.5662 -0.4898
  3734G12c C01B69293   5.598   2.773   8.121  1.7114 -0.9532  1.7264
  3734G12c H00969294   5.688   2.833   8.111  0.5156  0.3308 -2.2445
  3734G12c H00869295   5.524   2.845   8.157  2.6184  0.5682  0.6010
  3734G12c H00769296   5.608   2.700   8.201  2.3468 -3.2917 -0.4127
  3734G12c C00W69297   5.330   2.745   8.008  1.4212 -0.6506 -0.3653
  3734G12c O00469298   5.340   2.884   8.011 -0.6546 -1.0417 -0.8695
  3734G12c C01C69299   5.222   2.950   7.987  1.0860 -0.9938 -0.4219
  3734G12c H00A69300   5.244   3.055   7.985  0.1791 -0.6863  3.0133
  3734G12c C00P69301   5.090   2.905   8.025  0.1067 -0.1337  0.1195
  3734G12c C00O69302   4.976   2.992   7.993 -1.5886  0.0002 -1.3496
  3734G12c C01D69303   5.007   3.106   7.905 -0.8118  0.6691  0.4485
  3734G12c H00S69304   5.093   3.116   7.841 -3.6174  4.4618 -3.0385
  3734G12c C01E69305   4.919   3.150   7.799  0.7939  0.1018  0.9010
  3734G12c O00869306   4.949   3.273   7.735 -0.4058  0.3373 -0.0892
  3734G12c C01V69307   5.030   3.288   7.607  0.3924 -0.4725 -2.0658
  3734G12c C01Z69308   4.951   3.294   7.480 -0.7846 -1.4464 -0.3827
  3734G12c H00R69309   4.980   3.350   7.391  2.1491 -3.1163 -0.5088
  3734G12c H00Q69310   4.897   3.200   7.475 -2.6043 -0.4173 -0.8301
  3734G12c O00969311   4.860   3.381   7.522 -0.0214 -1.3470  1.8582
  3734G12c H00P69312   4.856   3.364   7.615  8.9735 -4.3159  2.2122
  3734G12c C01W69313   5.158   3.347   7.601 -1.3977  1.0481 -0.4022
  3734G12c H00O69314   5.217   3.361   7.512 -0.9898  5.4917  0.4855
  3734G12c C01X69315   5.242   3.359   7.729  0.0643 -0.9071 -1.0160
  3734G12c H00N69316   5.245   3.454   7.783 -1.1495 -2.0864  1.2001
  3734G12c H00M69317   5.173   3.344   7.812  2.7515  7.9118  3.3831
  3734G12c C01Y69318   5.356   3.261   7.765  0.2028  0.1985 -2.0831
  3734G12c C02D69319   5.423   3.191   7.650  2.0332 -0.2337  0.7654
  3734G12c H01969320   5.355   3.171   7.569 -1.6951 -3.7991  4.4697
  3734G12c C02C69321   5.544   3.108   7.667  0.6881 -0.1570  0.0851
  3734G12c H01A69322   5.591   3.065   7.579  2.5372 -4.0698  2.8688
  3734G12c C02B69323   5.597   3.102   7.803  0.0175 -0.2901 -0.7091
  3734G12c O00E69324   5.703   3.042   7.837 -1.2595 -0.2682 -0.3181
  3734G12c H01B69325   5.690   3.061   7.929 -3.8556 -3.1895  0.0075
  3734G12c C02F69326   5.513   3.147   7.913 -0.1829  1.5784  0.1798
  3734G12c O00F69327   5.590   3.116   8.036 -0.5043 -0.0846 -0.3215
  3734G12c C02G69328   5.652   3.207   8.135  1.0495 -0.6643  0.1130
  3734G12c H01769329   5.735   3.260   8.090  0.2832 -1.1370 -1.8833
  3734G12c H01669330   5.685   3.137   8.213  2.2598 -0.3299 -0.0926
  3734G12c H01569331   5.573   3.274   8.170  0.1920 -2.5241  1.8267
  3734G12c C02E69332   5.408   3.238   7.894 -0.4570 -0.3559 -0.0297
  3734G12c H01869333   5.396   3.307   7.976  1.2534 -3.7114  3.2212
  3734G12c C01F69334   4.794   3.115   7.820  0.0974  0.3493  1.2678
  3734G12c C01G69335   4.692   3.163   7.732  0.1146  1.4396 -0.5968
  3734G12c H00L69336   4.737   3.216   7.650  3.0024  3.3034  2.0543
  3734G12c C01H69337   4.559   3.089   7.743  0.1662  0.8739  2.7264
  3734G12c H00B69338   4.481   3.097   7.670 -0.6778  4.0017  3.8892
  3734G12c C01I69339   4.535   2.989   7.848  0.5051 -1.8212  0.5201
  3734G12c C01U69340   4.753   3.023   7.926  0.1069  1.3190  0.8706
  3734G12c C00S69341   4.992   2.544   8.071  1.1066  2.0017 -0.6866
  3734G12c C00K69342   4.766   2.589   8.075 -1.2389 -1.5940 -0.5003
  3734G12c C00N69343   4.839   2.955   7.998  0.0680  1.2207 -0.4515
  3734G12c C00069344   4.615   2.990   7.961 -0.3983 -0.5493  0.4238
  3734G12c C01J69345   4.481   2.860   7.831 -0.6697  0.4022  0.3281
  3734G12c C01K69346   4.343   2.814   7.805 -0.4927 -0.0833  1.7645
  3734G12c C01P69347   4.241   2.878   7.745  0.0594  1.2060 -0.4968
  3734G12c C01Q69348   4.212   3.013   7.785  0.9010 -1.9157 -0.2661
  3734G12c H00G69349   4.181   3.041   7.884 -1.8846 -1.4104 -1.2310
  3734G12c C01R69350   4.174   3.106   7.697 -0.7494 -0.7800  0.5012
  3734G12c H00F69351   4.132   3.081   7.601 -4.8258  2.7471  1.2387
  3734G12c C01S69352   4.080   3.215   7.739  1.3932 -1.3782 -0.7039
  3734G12c H00E69353   4.086   3.268   7.644 -1.7066  1.5807  0.6461
  3734G12c H00D69354   3.973   3.193   7.731  1.7311 -1.7600 -7.5171
  3734G12c O00569355   4.131   3.306   7.837 -0.6134 -0.5399  0.8780
  3734G12c H00C69356   4.224   3.293   7.832 -0.8415 -1.4452 -5.2180
  3734G12c C01O69357   4.152   2.817   7.658  0.3080  3.1186 -0.6257
  3734G12c H00H69358   4.053   2.855   7.638 -0.3036  0.6785 -2.4619
  3734G12c C01N69359   4.166   2.687   7.607  0.9040  1.0180  1.3089
  3734G12c O00669360   4.068   2.641   7.504 -0.0614 -0.2617 -0.3409
  3734G12c C01T69361   3.923   2.682   7.503 -0.9517 -1.8406  0.3204
  3734G12c H00K69362   3.861   2.627   7.432 -2.2905 -3.8710  2.9524
  3734G12c H00J69363   3.895   2.777   7.458 -2.7904 -0.2101  4.6421
  3734G12c H00I69364   3.891   2.687   7.607 -5.4302  2.4109 -1.0848
  3734G12c C01M69365   4.262   2.609   7.684 -1.3579  0.0660  1.7121
  3734G12c C02069366   4.637   2.554   8.013 -0.1451  0.2630  1.9363
  3734G12c C02169367   4.609   2.413   7.985 -1.9607 -0.8729 -0.4838
  3734G12c C01L69368   4.358   2.678   7.768 -0.9237  0.5451 -0.2974
  3734G12c O00769369   4.305   2.495   7.611 -1.8786 -0.0721 -0.6937
  3734G12c C02269370   4.547   2.369   7.865  0.4196 -0.7633  0.0383
  3734G12c C02369371   4.716   2.310   7.992  0.4298 -0.2491 -0.5143
  3734G12c C00G69372   4.926   2.169   7.917 -0.7304 -2.3704 -0.1100
  3734G12c C00E69373   5.001   1.947   7.892  0.0771 -0.3501  0.3221
  3734G12c O00A69374   5.094   1.847   7.886  2.1664  0.9244  0.0304
  3734G12c C02469375   5.073   1.759   7.979  0.1132  0.7535 -0.5078
  3734G12c H00V69376   5.114   1.665   7.941 -2.6495 -1.4585  1.7689
  3734G12c H00U69377   4.967   1.770   7.998  0.5619  6.0541 -0.3827
  3734G12c H00T69378   5.144   1.769   8.062  4.5669 -1.3972 -3.8554
  3744G12c C00D69379   0.918   6.482   0.708 -1.6979 -1.2073  0.0502
  3744G12c O00B69380   1.005   6.384   0.741  1.4131  0.7520 -2.1340
  3744G12c C02569381   0.947   6.281   0.816 -0.1153 -1.1134  1.1554
  3744G12c C02669382   0.937   6.134   0.755 -0.4459 -0.7012 -0.6430
  3744G12c H00Y69383   1.020   6.084   0.804 -0.0905 -2.4664 -2.9472
  3744G12c H00X69384   0.968   6.151   0.652 -2.5094 -8.0586 -2.8063
  3744G12c O00C69385   0.814   6.072   0.712  0.4010  0.4334  0.1569
  3744G12c H00W69386   0.806   6.141   0.648  5.4854  0.9499 -0.1171
  3744G12c C02769387   0.926   6.283   0.948  0.7507  1.4222 -0.1567
  3744G12c O00D69388   0.954   6.404   1.007  0.1981 -0.1717 -0.2295
  3744G12c H00Z69389   0.921   6.424   1.093  1.2303 -0.9248  0.3419
  3744G12c C02869390   0.889   6.170   1.041  0.2710  2.0216 -1.0411
  3744G12c C02969391   0.851   6.032   1.019  2.4076  0.2164 -0.2946
  3744G12c H01069392   0.837   5.972   0.930  0.9091 -2.1223  1.4565
  3744G12c C02T69393   0.790   5.942   1.111  1.0719 -2.5989 -0.9409
  3744G12c H01O69394   0.796   5.840   1.077  3.4947 -2.1426 -2.0113
  3744G12c C02S69395   0.818   5.977   1.249  0.0572 -0.0068  0.0022
  3744G12c O00J69396   0.732   5.929   1.352  0.5238  0.4036 -0.4391
  3744G12c H01P69397   0.653   5.980   1.355  3.5913  5.3775  0.7587
  3744G12c C02R69398   0.912   6.076   1.275 -0.4976 -0.0070 -1.1930
  3744G12c O00I69399   0.898   6.117   1.414  1.1653  0.5631  0.5331
  3744G12c C02Q69400   0.895   6.022   1.529  1.9644  1.0853 -0.1089
  3744G12c H01N69401   0.793   5.994   1.558  0.4389 -1.1260 -6.7018
  3744G12c H01R69402   0.950   6.028   1.623 -4.6603  7.7665  3.9686
  3744G12c H01Q69403   0.961   5.947   1.486  1.0412  1.3303 -2.0055
  3744G12c C02A69404   0.913   6.193   1.184  0.3756  0.7431 -0.9231
  3744G12c H01169405   0.966   6.278   1.223  2.7745 -2.5639  3.4240
  3744G12c C00C69406   0.914   6.595   0.777  0.2894  0.8184 -1.6220
  3744G12c H01269407   0.974   6.589   0.867  2.9456 -0.3301 -3.4160
  3744G12c C00B69408   0.859   6.713   0.726 -1.2284 -0.7318 -0.4143
  3744G12c C00A69409   0.854   6.837   0.804  1.0013  0.6402  1.2023
  3744G12c C00969410   0.838   6.887   0.936 -0.3498  1.0178 -0.2860
  3744G12c C00869411   0.832   6.846   1.073  0.9670  0.6416  0.5132
  3744G12c H01369412   0.857   6.744   1.098 -3.8146 -2.3487 -5.6068
  3744G12c C00769413   0.790   6.938   1.173 -0.5475  0.0161  0.1598
  3744G12c H01469414   0.794   6.907   1.277  3.3225  3.3324  1.1240
  3744G12c C00669415   0.730   7.068   1.152  1.5106  0.8821 -0.5809
  3744G12c C00569416   0.749   7.109   1.021 -1.3212  0.4416 -0.2885
  3744G12c C00469417   0.683   7.225   0.972  0.8613 -0.2596  0.7205
  3744G12c C00369418   0.695   7.256   0.832 -0.2191 -0.1069  1.8967
  3744G12c C00269419   0.625   7.375   0.808  0.1062  0.2236  1.2036
  3744G12c C00169420   0.609   7.454   0.675  0.2689  0.0065  0.7020
  3744G12c C00M69421   0.593   7.410   0.539  1.1250 -1.2801  0.8515
  3744G12c C00L69422   0.658   7.275   0.511  0.4223 -0.7991 -0.4493
  3744G12c C00R69423   0.618   7.194   0.391 -0.0964 -1.6357 -1.3079
  3744G12c C00Q69424   0.497   7.201   0.306 -0.5844 -0.3953 -0.4940
  3744G12c C00V69425   0.489   7.074   0.222  0.8961 -0.6418 -0.3800
  3744G12c C00U69426   0.551   6.954   0.252 -1.7470 -0.4419 -0.4083
  3744G12c C00T69427   0.653   6.953   0.335 -0.3405  0.2170 -1.0845
  3744G12c C01669428   0.705   6.835   0.397  0.4441 -0.8478  1.1084
  3744G12c C01569429   0.663   6.719   0.348 -0.4740  0.0116  0.6439
  3744G12c C01069430   0.567   6.725   0.242  0.9607  0.4542 -1.2256
  3744G12c C01169431   0.502   6.596   0.211  0.8018 -0.4318 -1.9520
  3744G12c H00569432   0.431   6.581   0.131 -1.0708  1.4776 -0.6981
  3744G12c C01269433   0.510   6.486   0.289 -0.3873 -1.5537  0.3546
  3744G12c C01769434   0.453   6.360   0.262 -0.1088  0.1279 -0.1905
  3744G12c O00269435   0.369   6.349   0.362  0.1343  0.9687 -0.2428
  3744G12c H00469436   0.303   6.302   0.312  1.9970  0.9887 -2.8391
  3744G12c C01869437   0.460   6.294   0.143  2.0499  1.0038  1.1662
  3744G12c O00169438   0.527   6.330   0.026 -0.9222 -0.7282  1.2995
  3744G12c H00369439   0.522   6.421   0.002  2.7400 -0.1990  2.2313
  3744G12c C01969440   0.336   6.192   0.130 -1.3305 -1.0043  0.3681
  3744G12c H00269441   0.279   6.191   0.038 -2.5128  1.0484  1.0271
  3744G12c H00169442   0.387   6.097   0.143 -0.1270 -1.5257 -6.4632
  3744G12c O00069443   0.215   6.201   0.209 -1.6896 -0.2684  0.0123
  3744G12c C01A69444   0.118   6.101   0.175  0.9804  0.3179  0.9183
  3744G12c C02K69445   0.011   6.142   0.089 -0.0802 -0.3808  0.4326
  3744G12c O00G69446  -0.044   6.255   0.057  0.7248 -0.9230 -1.7886
  3744G12c C02M69447   0.023   6.381   0.093  0.4201 -0.4699 -0.0895
  3744G12c H01G69448   0.111   6.422   0.044  0.3767  4.5805  3.6645
  3744G12c H01F69449   0.065   6.421   0.185 -4.0216 -3.4592  3.4969
  3744G12c H01E69450  -0.077   6.419   0.070  1.9856  3.7059 -0.3444
  3744G12c C02J69451  -0.101   6.052   0.092  1.6141  0.2276  1.0235
  3744G12c H01H69452  -0.180   6.087   0.027  1.1822  1.0122  1.9407
  3744G12c C02I69453  -0.105   5.914   0.139  1.0828 -0.3757 -0.0457
  3744G12c C02N69454  -0.212   5.811   0.133 -0.4665 -0.5997  1.8137
  3744G12c H01M69455  -0.186   5.707   0.134 -2.7208 -1.1825  1.8927
  3744G12c C02O69456  -0.332   5.867   0.118  0.5045 -0.9246 -1.5631
  3744G12c H01L69457  -0.335   5.975   0.126 -3.3407 -0.8682 -2.6978
  3744G12c C02P69458  -0.450   5.778   0.128  1.7431 -0.3417  0.0570
  3744G12c H01K69459  -0.412   5.767   0.026  0.6049  3.4585 -0.8699
  3744G12c H01J69460  -0.538   5.841   0.113  3.9689  2.9460  0.1512
  3744G12c O00H69461  -0.429   5.660   0.207  0.6296 -0.0250 -0.6138
  3744G12c H01I69462  -0.403   5.574   0.179  0.4209 -3.0571  7.2655
  3744G12c C02H69463   0.023   5.878   0.198  1.6846 -0.2312  1.4619
  3744G12c H01C69464   0.011   5.782   0.246 -1.0661 -2.8730 -4.0952
  3744G12c C02L69465   0.136   5.963   0.208  0.4651  0.5493  1.8384
  3744G12c H01D69466   0.239   5.953   0.240  0.6722  2.3318  1.7610
  3744G12c C01369467   0.619   6.485   0.385 -0.3867 -0.8481 -0.0731
  3744G12c H00069468   0.641   6.394   0.438 -0.7495  1.0201  3.4735
  3744G12c C01469469   0.695   6.597   0.406  0.4759 -2.5544  0.7665
  3744G12c C00F69470   0.793   6.603   0.525 -1.7954 -0.1177  0.1810
  3744G12c C00H69471   0.768   6.837   0.528  0.8399  0.1271 -0.2970
  3744G12c C00I69472   0.782   6.951   0.597 -1.2232  0.0898  0.6334
  3744G12c C00J69473   0.744   7.055   0.532  2.4317 -2.3408  1.2333
  3744G12c C00Z69474   0.506   6.837   0.199 -0.2847  1.9128  0.0754
  3744G12c C00Y69475   0.456   6.863   0.071  0.2465 -0.5836 -1.3058
  3744G12c H00669476   0.495   6.772   0.030  2.8796 -0.1041  0.0332
  3744G12c C00X69477   0.380   6.975   0.044  1.0850  0.2854  0.2335
  3744G12c O00369478   0.359   7.019  -0.078  0.0507 -0.1876 -0.8612
  3744G12c C01B69479   0.243   7.071  -0.123 -1.2712 -0.0233  0.4910
  3744G12c H00969480   0.265   7.134  -0.210  1.6790  2.4608  2.9092
  3744G12c H00869481   0.163   7.002  -0.150 -8.4369  4.2919  8.2293
  3744G12c H00769482   0.184   7.147  -0.072  2.9465  2.3476  2.1477
  3744G12c C00W69483   0.386   7.080   0.135 -0.5670  0.8036  1.0823
  3744G12c O00469484   0.312   7.185   0.118  0.2640  0.9703  0.3771
  3744G12c C01C69485   0.344   7.307   0.166 -0.3636 -1.4251  0.6107
  3744G12c H00A69486   0.287   7.373   0.102 -1.0079 -0.3598  2.2581
  3744G12c C00P69487   0.432   7.323   0.279 -0.6637 -0.4392 -0.8136
  3744G12c C00O69488   0.391   7.430   0.376 -0.9906 -1.8395  0.0660
  3744G12c C01D69489   0.261   7.471   0.388  0.6451  0.0101 -3.1120
  3744G12c H00S69490   0.170   7.421   0.361 -2.9063  1.5349  4.5796
  3744G12c C01E69491   0.220   7.555   0.495  1.0631 -0.5876  0.4682
  3744G12c O00869492   0.093   7.619   0.496 -0.9636 -2.3018  0.3241
  3744G12c C01V69493   0.110   7.747   0.428 -0.5208  0.7390  1.5795
  3744G12c C01Z69494   0.198   7.858   0.470 -1.6456  1.9431 -2.3312
  3744G12c H00R69495   0.211   7.960   0.433  4.2326  0.2805 -5.6133
  3744G12c H00Q69496   0.304   7.852   0.496 -2.5322 -6.0865  0.8307
  3744G12c O00969497   0.156   7.924   0.581 -0.3575  0.4079  0.6021
  3744G12c H00P69498   0.199   7.992   0.630  0.5818  0.9157 -0.8902
  3744G12c C01W69499   0.009   7.789   0.342  0.2093  0.0528 -0.3111
  3744G12c H00O69500  -0.080   7.730   0.326 -1.6580  3.6094 -3.8366
  3744G12c C01X69501   0.017   7.928   0.267  1.5505 -0.3595  0.5459
  3744G12c H00N69502  -0.084   7.954   0.235  3.3916  3.1175 -2.7232
  3744G12c H00M69503   0.043   8.020   0.318  4.7844  0.9892 -3.2676
  3744G12c C01Y69504   0.090   7.935   0.134 -0.8951  0.1520 -0.2060
  3744G12c C02D69505   0.133   7.818   0.086 -2.2875  0.8767 -0.7008
  3744G12c H01969506   0.146   7.723   0.136 -3.0369  2.6349  3.0053
  3744G12c C02C69507   0.155   7.790  -0.053 -1.3600  0.0744  0.0966
  3744G12c H01A69508   0.192   7.691  -0.074  4.4415  2.2633 -0.9734
  3744G12c C02B69509   0.139   7.894  -0.145  2.8216 -0.5825  0.3897
  3744G12c O00E69510   0.182   7.885  -0.273 -0.1075  0.0699  0.9977
  3744G12c H01B69511   0.234   7.960  -0.299 -0.8825  1.6262  3.7815
  3744G12c C02F69512   0.076   8.008  -0.090  0.7542  0.6282 -0.6247
  3744G12c O00F69513   0.058   8.122  -0.173  1.3482  0.6627 -1.3220
  3744G12c C02G69514  -0.055   8.106  -0.275  0.1112 -0.6257  0.2661
  3744G12c H01769515  -0.102   8.007  -0.278  3.7674 -2.4571 -3.9658
  3744G12c H01669516   0.000   8.102  -0.369 -0.5741  0.0843 -0.1717
  3744G12c H01569517  -0.111   8.197  -0.293 -1.2935 -1.9156 -2.2094
  3744G12c C02E69518   0.040   8.026   0.046 -1.8680 -0.3218  0.1567
  3744G12c H01869519  -0.001   8.119   0.084 -1.5447 -0.2109  0.2310
  3744G12c C01F69520   0.305   7.586   0.612  0.2407  1.5865 -0.7746
  3744G12c C01G69521   0.252   7.588   0.745 -0.1355 -0.2690 -1.2381
  3744G12c H00L69522   0.144   7.592   0.746 -0.1294  0.1404  1.8097
  3744G12c C01H69523   0.325   7.550   0.861  2.3654  0.3897 -1.0332
  3744G12c H00B69524   0.276   7.517   0.952  1.9583 -6.2685 -3.3800
  3744G12c C01I69525   0.463   7.529   0.846  0.3440 -1.7726  0.0717
  3744G12c C01U69526   0.451   7.579   0.601 -1.1298 -0.8920  1.7635
  3744G12c C00S69527   0.687   7.062   0.401 -0.3033 -0.8495  0.0396
  3744G12c C00K69528   0.712   7.181   0.596 -0.1088 -1.1222  1.1514
  3744G12c C00N69529   0.477   7.482   0.488  0.3166 -0.2615  0.0692
  3744G12c C00069530   0.537   7.572   0.716 -0.2270 -0.6108 -0.6663
  3744G12c C01J69531   0.553   7.438   0.919 -0.1015 -1.1847  0.6908
  3744G12c C01K69532   0.532   7.413   1.050  0.4148  1.6077  0.4631
  3744G12c C01P69533   0.500   7.494   1.162 -0.3262 -0.4086  0.4684
  3744G12c C01Q69534   0.480   7.635   1.156  1.6443 -0.4793  1.3590
  3744G12c H00G69535   0.547   7.716   1.181  0.8971 -0.1198  2.2295
  3744G12c C01R69536   0.350   7.682   1.141 -0.3820 -0.4952  0.8286
  3744G12c H00F69537   0.272   7.609   1.126  0.9370 -3.6968  7.8446
  3744G12c C01S69538   0.297   7.817   1.143 -0.4654 -0.9889 -0.7268
  3744G12c H00E69539   0.364   7.902   1.158 -0.0392 -1.8843  2.9276
  3744G12c H00D69540   0.245   7.841   1.050  1.8738 -2.3336 -2.4366
  3744G12c O00569541   0.242   7.807   1.252  2.8732  0.6416  0.2423
  3744G12c H00C69542   0.208   7.719   1.253  1.4676  1.1574 -0.3071
  3744G12c C01O69543   0.474   7.429   1.297  2.3281 -0.3829 -0.9669
  3744G12c H00H69544   0.436   7.459   1.394 -3.2871 -1.5391 -2.6428
  3744G12c C01N69545   0.500   7.288   1.301  0.0570 -0.3938  1.8447
  3744G12c O00669546   0.453   7.217   1.413 -0.6947  0.3770  1.3533
  3744G12c C01T69547   0.383   7.105   1.372  0.0196 -0.2164 -0.2580
  3744G12c H00K69548   0.336   7.059   1.459  0.1770 -2.0710 -1.1334
  3744G12c H00J69549   0.281   7.118   1.333 -0.6426 -1.9163  0.8429
  3744G12c H00I69550   0.429   7.025   1.314 -0.2554 -0.3576 -0.2829
  3744G12c C01M69551   0.597   7.247   1.202 -0.3330  1.5527  1.9630
  3744G12c C02069552   0.757   7.173   0.739 -0.2885 -0.5694  0.3879
  3744G12c C02169553   0.833   7.074   0.792  0.7856  0.6283 -0.3535
  3744G12c C01L69554   0.596   7.293   1.073 -2.4146  0.1967  1.3566
  3744G12c O00769555   0.680   7.145   1.249  0.3569 -1.2254  0.8867
  3744G12c C02269556   0.788   7.021   0.922 -0.1756  0.0771 -2.3246
  3744G12c C02369557   0.844   6.946   0.722 -1.2264 -1.5703  1.8187
  3744G12c C00G69558   0.807   6.719   0.599  1.0350  1.0756  0.4584
  3744G12c C00E69559   0.854   6.478   0.581  1.5406  0.4322 -0.6680
  3744G12c O00A69560   0.871   6.359   0.516  1.3084  1.6222  0.7885
  3744G12c C02469561   0.979   6.354   0.430  1.4166 -0.2148 -0.6605
  3744G12c H00V69562   1.000   6.279   0.354  3.8100 -4.9945  4.3088
  3744G12c H00U69563   1.078   6.367   0.472  0.9918  1.9691 -0.2470
  3744G12c H00T69564   0.974   6.455   0.389 -1.5939  0.1516  0.4562
  3754G12c C00D69565   4.082   7.159   3.162 -0.2468  0.7419  1.5298
  3754G12c O00B69566   3.959   7.143   3.098 -1.3371  1.6336  0.4693
  3754G12c C02569567   3.843   7.229   3.106 -2.3984 -1.3676 -2.3814
  3754G12c C02669568   3.750   7.223   3.232 -1.4478 -1.3831  0.5642
  3754G12c H00Y69569   3.784   7.249   3.332 -7.9442-10.9262  6.1387
  3754G12c H00X69570   3.753   7.114   3.228 -0.3660 -1.5467  3.9015
  3754G12c O00C69571   3.629   7.289   3.222  1.1427 -0.4663  2.2617
  3754G12c H00W69572   3.647   7.364   3.167  0.5905 -3.0580 -1.6738
  3754G12c C02769573   3.859   7.342   3.033  0.1025  1.8039  0.9263
  3754G12c O00D69574   3.980   7.339   2.964 -1.4355 -0.1831  0.6566
  3754G12c H00Z69575   4.002   7.247   2.956 -2.5312 -0.3150 -1.1300
  3754G12c C02869576   3.786   7.453   3.041 -1.9061 -0.2670 -0.4795
  3754G12c C02969577   3.655   7.452   2.982 -1.0096 -2.0115 -0.2364
  3754G12c H01069578   3.599   7.370   2.939 -0.7320 -2.4496  0.2376
  3754G12c C02T69579   3.581   7.566   2.988  1.4821  0.2192  1.1739
  3754G12c H01O69580   3.489   7.528   2.946  2.6211  3.0782 -4.4162
  3754G12c C02S69581   3.616   7.695   3.026  0.3057  1.4750 -0.4511
  3754G12c O00J69582   3.569   7.815   2.991  0.7628 -0.9723  0.1069
  3754G12c H01P69583   3.613   7.870   3.054  6.9639  1.4245 -5.7108
  3754G12c C02R69584   3.760   7.697   3.055  0.2443  0.1820 -0.2994
  3754G12c O00I69585   3.819   7.826   3.080  0.4074 -2.0543  0.8118
  3754G12c C02Q69586   3.937   7.828   3.148  0.1104 -0.1334 -0.5461
  3754G12c H01N69587   3.936   7.794   3.251  3.0271  2.6707  0.4964
  3754G12c H01R69588   4.005   7.749   3.113  2.7485  1.6423  0.4418
  3754G12c H01Q69589   4.009   7.908   3.160 -0.6435  1.6120 -6.1874
  3754G12c C02A69590   3.842   7.573   3.073 -0.5679  0.7815  0.5897
  3754G12c H01169591   3.943   7.577   3.110 -1.1612  0.2155  2.2889
  3754G12c C00C69592   4.117   7.280   3.229 -1.4090  0.9265  0.4187
  3754G12c H01269593   4.055   7.363   3.198  3.6340  5.5327  1.8359
  3754G12c C00B69594   4.216   7.296   3.322 -1.1150 -0.3594 -0.5707
  3754G12c C00A69595   4.236   7.412   3.411 -1.6923 -0.7802  0.0242
  3754G12c C00969596   4.254   7.549   3.354 -0.4174 -0.1028  0.4885
  3754G12c C00869597   4.268   7.599   3.234  0.4979 -0.9039  0.2487
  3754G12c H01369598   4.222   7.539   3.157  6.9893 -3.0573 -2.2993
  3754G12c C00769599   4.327   7.724   3.203  0.6355 -0.0621  0.5611
  3754G12c H01469600   4.327   7.771   3.105  2.3620 -2.9810 -0.8871
  3754G12c C00669601   4.405   7.772   3.309  0.4843  0.2527  0.8452
  3754G12c C00569602   4.407   7.704   3.429 -1.1673  0.9062  0.7359
  3754G12c C00469603   4.521   7.732   3.514  0.6647 -0.1003  0.4867
  3754G12c C00369604   4.564   7.646   3.621  0.0027 -0.5431 -1.6213
  3754G12c C00269605   4.679   7.678   3.704  1.1274  0.3567  1.7905
  3754G12c C00169606   4.751   7.598   3.790 -0.2768  0.9821 -0.0627
  3754G12c C00M69607   4.803   7.469   3.757  0.7025 -0.1944  0.7095
  3754G12c C00L69608   4.722   7.376   3.678 -0.3591  2.8107  0.0780
  3754G12c C00R69609   4.753   7.238   3.634 -0.7478 -0.6971  0.8624
  3754G12c C00Q69610   4.881   7.188   3.595 -0.7207 -0.9783 -0.4594
  3754G12c C00V69611   4.864   7.065   3.537  1.6465 -0.3471  0.8458
  3754G12c C00U69612   4.746   7.019   3.475  3.1198  0.2545 -0.1574
  3754G12c C00T69613   4.637   7.103   3.475  0.6328  1.3618  1.3491
  3754G12c C01669614   4.517   7.094   3.400  0.9313 -0.4602 -1.3388
  3754G12c C01569615   4.513   6.990   3.311 -0.2288  0.9245 -1.1433
  3754G12c C01069616   4.631   6.921   3.281 -0.0284 -1.5912  0.6770
  3754G12c C01169617   4.630   6.826   3.180  0.4189 -0.8240  1.4919
  3754G12c H00569618   4.692   6.745   3.143 -1.8380  0.7280 -6.7813
  3754G12c C01269619   4.540   6.841   3.078  2.2278 -0.1304  1.2714
  3754G12c C01769620   4.541   6.765   2.947 -1.2538 -0.0596 -0.1663
  3754G12c O00269621   4.637   6.666   2.933 -1.2021  0.6828  0.8291
  3754G12c H00469622   4.595   6.618   2.864 -5.2812 -4.2132  6.2388
  3754G12c C01869623   4.456   6.770   2.840 -0.5721  0.8489 -0.3400
  3754G12c O00169624   4.336   6.835   2.835 -0.7714 -0.6159  1.3130
  3754G12c H00369625   4.308   6.864   2.920 -3.4725 -1.7620  0.8561
  3754G12c C01969626   4.487   6.727   2.689  0.5380 -0.8666 -0.4807
  3754G12c H00269627   4.405   6.672   2.644  2.9914 -1.1322 -4.9827
  3754G12c H00169628   4.504   6.806   2.617 -3.0086 -0.5191 -1.0088
  3754G12c O00069629   4.600   6.634   2.671  1.4715  0.9631 -0.5170
  3754G12c C01A69630   4.618   6.575   2.542  0.3714  0.6708 -1.9554
  3754G12c C02K69631   4.755   6.527   2.528 -0.0365  0.8780  0.6309
  3754G12c O00G69632   4.845   6.523   2.618 -0.3854  0.2142 -1.1091
  3754G12c C02M69633   4.796   6.425   2.724 -0.0274  0.7867 -1.1498
  3754G12c H01G69634   4.711   6.361   2.699  2.0148 -4.3449  3.9282
  3754G12c H01F69635   4.811   6.472   2.821  2.4377 -5.1030  1.5368
  3754G12c H01E69636   4.864   6.345   2.695 -0.5282  1.1382 -3.4683
  3754G12c C02J69637   4.794   6.490   2.399 -1.0964  0.9623  0.6907
  3754G12c H01H69638   4.898   6.459   2.402 -0.7633  1.6543 -2.1336
  3754G12c C02I69639   4.697   6.461   2.292 -0.8439 -0.2881 -1.7423
  3754G12c C02N69640   4.724   6.387   2.174 -0.7703  0.8709  0.5189
  3754G12c H01M69641   4.631   6.351   2.134 -1.5921 -1.6633  4.4412
  3754G12c C02O69642   4.840   6.408   2.108 -0.8080  0.1084 -3.0273
  3754G12c H01L69643   4.922   6.451   2.163 -2.6755  2.3270 -1.9147
  3754G12c C02P69644   4.896   6.380   1.958 -1.4268  0.9595 -1.0121
  3754G12c H01K69645   4.855   6.291   1.911  5.2316 -0.3849 -4.9146
  3754G12c H01J69646   4.891   6.460   1.884  2.8218 -2.3254 -5.1230
  3754G12c O00H69647   5.023   6.325   1.981 -1.0055  0.3379  0.2362
  3754G12c H01I69648   5.091   6.378   2.020  2.6885 -2.2623 -2.3794
  3754G12c C02H69649   4.562   6.516   2.304 -0.5765  0.0582 -0.3375
  3754G12c H01C69650   4.517   6.553   2.212  3.0738  5.4983 -0.1616
  3754G12c C02L69651   4.531   6.598   2.422 -1.1313  0.7581 -0.5415
  3754G12c H01D69652   4.434   6.645   2.432 -1.5297  0.8121 -4.1518
  3754G12c C01369653   4.428   6.928   3.093 -0.2523  0.5485 -0.9608
  3754G12c H00069654   4.379   6.973   3.008  3.1890  5.4893 -0.5463
  3754G12c C01469655   4.406   6.976   3.218  1.4327  1.0294 -0.7018
  3754G12c C00F69656   4.297   7.064   3.253 -0.1706  0.1326  1.6324
  3754G12c C00H69657   4.407   7.178   3.436 -0.3772 -1.7939 -1.1321
  3754G12c C00I69658   4.416   7.277   3.534 -0.4880  0.6894 -0.2105
  3754G12c C00J69659   4.539   7.273   3.599 -0.7179 -0.9721 -1.6120
  3754G12c C00Z69660   4.742   6.931   3.369 -1.1442 -0.3533  0.4366
  3754G12c C00Y69661   4.859   6.869   3.328  2.0691 -2.0373 -0.4469
  3754G12c H00669662   4.861   6.797   3.248  3.1678  1.2310 -3.5115
  3754G12c C00X69663   4.976   6.896   3.385 -0.3977 -0.6191 -2.1795
  3754G12c O00369664   5.093   6.862   3.342 -1.0432 -0.8061 -1.6068
  3754G12c C01B69665   5.125   6.715   3.350  0.0550  0.4564  1.2395
  3754G12c H00969666   5.169   6.686   3.445 -3.8583 -3.9782  1.8553
  3754G12c H00869667   5.150   6.682   3.249 -6.3157  1.6549 -0.9050
  3754G12c H00769668   5.030   6.669   3.377  2.6333 -5.2716  1.2561
  3754G12c C00W69669   4.973   6.995   3.484 -0.1583 -0.4963  1.9039
  3754G12c O00469670   5.108   7.030   3.514 -0.6063 -0.2143  0.1114
  3754G12c C01C69671   5.129   7.164   3.553 -0.8953  0.1696 -2.0287
  3754G12c H00A69672   5.222   7.190   3.505 -0.3421 -0.5618 -1.3516
  3754G12c C00P69673   5.018   7.257   3.605  1.2430 -0.1312  0.3546
  3754G12c C00O69674   5.037   7.395   3.652 -0.6744  0.3243  0.3398
  3754G12c C01D69675   5.146   7.459   3.597  0.4993  1.5676  0.2356
  3754G12c H00S69676   5.215   7.413   3.529 -3.7188  1.4533 -4.2058
  3754G12c C01E69677   5.153   7.605   3.603  0.6586  1.0496  0.8497
  3754G12c O00869678   5.252   7.659   3.528 -1.5980  0.7909  0.8944
  3754G12c C01V69679   5.218   7.643   3.394 -1.0191 -0.2564  0.3505
  3754G12c C01Z69680   5.095   7.740   3.346  0.4692 -2.0021 -0.9906
  3754G12c H00R69681   5.019   7.722   3.421  2.5190 -0.2841  1.5808
  3754G12c H00Q69682   5.097   7.849   3.344 -0.9971 -1.8698  2.3176
  3754G12c O00969683   5.029   7.699   3.239 -0.1043  0.2244  0.7831
  3754G12c H00P69684   4.996   7.611   3.248  3.3685 -0.9326  3.6137
  3754G12c C01W69685   5.289   7.558   3.311 -0.6859 -1.3599  0.3572
  3754G12c H00O69686   5.368   7.488   3.335  0.2094  0.8847  4.3271
  3754G12c C01X69687   5.267   7.531   3.156 -0.1876 -1.3175 -1.4927
  3754G12c H00N69688   5.227   7.609   3.091  2.5345  3.6235  2.4483
  3754G12c H00M69689   5.349   7.542   3.085  4.1287  3.4622  3.7824
  3754G12c C01Y69690   5.199   7.400   3.160 -0.6187 -0.0903 -0.2434
  3754G12c C02D69691   5.274   7.269   3.201  2.1379  0.7419  1.3006
  3754G12c H01969692   5.382   7.267   3.189  1.8279 -4.4017 -2.5996
  3754G12c C02C69693   5.203   7.150   3.200 -0.3024  0.8928  0.7926
  3754G12c H01A69694   5.265   7.061   3.202 -2.0096 -0.3228  4.7561
  3754G12c C02B69695   5.076   7.148   3.150 -0.4210  0.0475  0.6041
  3754G12c O00E69696   4.995   7.040   3.139 -1.4165  0.1208 -0.3042
  3754G12c H01B69697   5.047   6.967   3.108 -4.4771 -0.8409 -3.4782
  3754G12c C02F69698   4.996   7.263   3.110  1.4868 -0.7071  0.3379
  3754G12c O00F69699   4.864   7.258   3.098 -0.5412 -0.2466  1.3583
  3754G12c C02G69700   4.776   7.281   3.215  0.0888 -0.3028  0.2254
  3754G12c H01769701   4.840   7.255   3.299 -0.3390  5.4066  2.5318
  3754G12c H01669702   4.695   7.208   3.221 -2.4815  2.3828 -0.5575
  3754G12c H01569703   4.733   7.381   3.204 -1.0348 -0.8979 -0.9250
  3754G12c C02E69704   5.077   7.392   3.094 -0.8096  2.2342  1.3524
  3754G12c H01869705   5.011   7.456   3.037 -1.4180  0.3252 -0.1568
  3754G12c C01F69706   5.063   7.681   3.678  0.5543  0.8226 -0.8218
  3754G12c C01G69707   5.073   7.813   3.684  1.6782  0.7727 -0.0010
  3754G12c H00L69708   5.165   7.870   3.681  0.9605  1.9119 -2.9688
  3754G12c C01H69709   4.969   7.891   3.751 -0.0828 -0.8551  0.8335
  3754G12c H00B69710   5.000   7.993   3.768  3.3397 -1.0254 -3.4740
  3754G12c C01I69711   4.847   7.818   3.782 -0.8738  0.6774  0.3779
  3754G12c C01U69712   4.969   7.614   3.760 -0.8155 -0.5922  0.6033
  3754G12c C00S69713   4.636   7.183   3.595  1.8831  0.0397  0.5331
  3754G12c C00K69714   4.584   7.402   3.657  0.7643 -1.7554  0.1085
  3754G12c C00N69715   4.941   7.480   3.718  1.2618  0.9383 -1.4982
  3754G12c C00069716   4.859   7.680   3.826  2.5367  0.2084  1.4679
  3754G12c C01J69717   4.742   7.801   3.678 -1.2050 -0.4786 -0.4186
  3754G12c C01K69718   4.664   7.907   3.610 -0.0238  2.0692 -0.5215
  3754G12c C01P69719   4.678   8.039   3.612  0.2516 -0.5459  0.5092
  3754G12c C01Q69720   4.712   8.089   3.746 -0.5651 -2.1375 -1.0187
  3754G12c H00G69721   4.683   8.043   3.839  3.8691 -1.7713  0.6374
  3754G12c C01R69722   4.775   8.199   3.778  0.1182 -1.7812  0.8266
  3754G12c H00F69723   4.803   8.277   3.709  1.8108 -3.6096 -0.5859
  3754G12c C01S69724   4.795   8.255   3.924 -1.8929 -0.7767  0.1281
  3754G12c H00E69725   4.826   8.177   3.994  2.2254 -2.1916 -3.0780
  3754G12c H00D69726   4.868   8.332   3.899 -0.7425 -0.7316  3.3201
  3754G12c O00569727   4.689   8.322   3.985  0.5334 -0.3792 -0.1398
  3754G12c H00C69728   4.616   8.263   3.999  1.7161 -1.5740  1.1359
  3754G12c C01O69729   4.667   8.127   3.490  0.0683  2.2987  1.3594
  3754G12c H00H69730   4.696   8.227   3.461 -3.4484  1.5413 -5.8905
  3754G12c C01N69731   4.574   8.078   3.394 -1.2940 -1.0637 -0.8692
  3754G12c O00669732   4.574   8.154   3.272  1.3052  0.6224 -0.6009
  3754G12c C01T69733   4.613   8.113   3.146 -1.4285 -0.1413 -0.7113
  3754G12c H00K69734   4.513   8.071   3.146 -0.2290 -3.3835 -4.4893
  3754G12c H00J69735   4.705   8.054   3.149  0.1631  1.8143 10.5621
  3754G12c H00I69736   4.610   8.172   3.054  2.5440 -1.9965 -2.1562
  3754G12c C01M69737   4.518   7.951   3.405 -0.1693  0.4046  0.4421
  3754G12c C02069738   4.503   7.519   3.631  0.5340 -1.3598 -1.8583
  3754G12c C02169739   4.369   7.509   3.567  0.3452 -0.5782  1.5570
  3754G12c C01L69740   4.577   7.862   3.505 -2.0412 -0.9921  2.0516
  3754G12c O00769741   4.437   7.896   3.308 -0.8622 -0.3201  0.2654
  3754G12c C02269742   4.332   7.599   3.459 -0.0088  0.5322 -1.0152
  3754G12c C02369743   4.325   7.378   3.521  0.5478 -0.9954 -0.9371
  3754G12c C00G69744   4.306   7.184   3.344  0.8286  0.0650  0.4783
  3754G12c C00E69745   4.172   7.049   3.175  0.8535 -0.8591  0.1287
  3754G12c O00A69746   4.151   6.942   3.091 -1.3254 -0.1730  2.5799
  3754G12c C02469747   4.088   6.848   3.162  1.1366  0.0032  1.1142
  3754G12c H00V69748   3.994   6.823   3.115  1.7727 -0.0653 -0.1371
  3754G12c H00U69749   4.044   6.875   3.258 -0.5171  1.1230  0.0602
  3754G12c H00T69750   4.164   6.775   3.133 -0.2596 -1.1440  0.2839
  3764G12c C00D69751  11.922   6.225   2.674  1.2661 -2.1271  0.3626
  3764G12c O00B69752  11.801   6.253   2.741  0.1083 -0.3879 -1.0067
  3764G12c C02569753  11.686   6.178   2.756 -0.0739 -0.6600  1.0826
  3764G12c C02669754  11.573   6.215   2.643 -0.3467  2.4279  0.7408
  3764G12c H00Y69755  11.466   6.225   2.665 -0.4424  0.6148  1.1661
  3764G12c H00X69756  11.606   6.291   2.572  1.4637 -1.6799 -3.0593
  3764G12c O00C69757  11.582   6.114   2.558  0.4525 -1.2172 -0.4148
  3764G12c H00W69758  11.627   6.136   2.478 -2.6598 -2.1761 -2.5213
  3764G12c C02769759  11.708   6.068   2.819 -0.3688  1.6281 -0.1904
  3764G12c O00D69760  11.827   6.045   2.864  0.9925  0.8697  0.4746
  3764G12c H00Z69761  11.875   6.088   2.795 -0.7906  3.7633  0.9671
  3764G12c C02869762  11.606   5.965   2.836  0.2033  0.5527  0.2658
  3764G12c C02969763  11.476   5.995   2.840  0.8531  0.5568 -0.6540
  3764G12c H01069764  11.416   6.084   2.834 -2.2794 -0.8271  5.2521
  3764G12c C02T69765  11.370   5.916   2.890 -1.4608  0.6652 -0.5701
  3764G12c H01O69766  11.265   5.941   2.899 -0.7815  5.7766 -4.5052
  3764G12c C02S69767  11.406   5.782   2.901  1.7655 -0.1107 -0.1383
  3764G12c O00J69768  11.310   5.708   2.978 -0.8862 -0.5592  0.6028
  3764G12c H01P69769  11.344   5.621   2.990  2.7776  0.3787 -2.0304
  3764G12c C02R69770  11.540   5.740   2.880  0.5219 -0.1907  0.0979
  3764G12c O00I69771  11.567   5.599   2.893  1.2429 -0.8635 -0.0402
  3764G12c C02Q69772  11.701   5.554   2.884  0.2047  0.4754  2.3960
  3764G12c H01N69773  11.763   5.555   2.974 -3.5178  2.7838  5.0523
  3764G12c H01R69774  11.701   5.446   2.875  1.8675  0.6687 -0.6687
  3764G12c H01Q69775  11.718   5.577   2.779  0.7149 -2.9119  1.6731
  3764G12c C02A69776  11.640   5.834   2.843 -0.4504  0.4156 -1.0296
  3764G12c H01169777  11.745   5.810   2.837  0.7235  5.1849 -1.2160
  3764G12c C00C69778  11.957   6.113   2.601  1.2584 -0.0963  0.6503
  3764G12c H01269779  11.886   6.039   2.568  0.8648 -1.8452  5.1746
  3764G12c C00B69780  12.090   6.081   2.546  1.5710 -0.8074  0.5825
  3764G12c C00A69781  12.143   5.958   2.486 -0.1295 -0.5612  1.3746
  3764G12c C00969782  12.109   5.816   2.485 -2.1707  0.5116 -0.1517
  3764G12c C00869783  12.006   5.741   2.550 -1.8415  1.0784  1.9635
  3764G12c H01369784  11.915   5.796   2.564  0.5102  5.1964  2.0120
  3764G12c C00769785  12.034   5.623   2.635 -0.0460  1.3964  0.8447
  3764G12c H01469786  11.961   5.584   2.704 -3.6561 -2.4110 -4.7203
  3764G12c C00669787  12.156   5.570   2.599  0.8640 -0.7321  2.1741
  3764G12c C00569788  12.252   5.626   2.510 -0.4835 -0.0589 -1.0711
  3764G12c C00469789  12.386   5.590   2.507  0.4136 -1.7463 -1.1730
  3764G12c C00369790  12.480   5.687   2.459 -2.2183  0.0348  0.2718
  3764G12c C00269791  12.607   5.625   2.419 -0.8102 -1.0551  0.5073
  3764G12c C00169792  12.739   5.681   2.380  0.8873  2.1029  0.6654
  3764G12c C00M69793  12.792   5.821   2.413  0.3348  0.5814 -1.2646
  3764G12c C00L69794  12.692   5.907   2.459 -0.1365  0.6655  0.2864
  3764G12c C00R69795  12.716   6.037   2.482 -0.0143 -0.7045 -0.4900
  3764G12c C00Q69796  12.821   6.093   2.562  0.3216 -0.1330  1.0641
  3764G12c C00V69797  12.793   6.221   2.623 -1.0813  0.0167 -0.1780
  3764G12c C00U69798  12.665   6.284   2.616 -1.1671 -0.6486 -0.8723
  3764G12c C00T69799  12.556   6.228   2.542  0.8385 -0.4125  0.6740
  3764G12c C01669800  12.430   6.251   2.576  0.0477  0.1790  0.0506
  3764G12c C01569801  12.397   6.357   2.653 -0.2837 -0.2747 -1.7116
  3764G12c C01069802  12.498   6.443   2.695 -0.6335 -0.3305 -1.1245
  3764G12c C01169803  12.469   6.551   2.764 -1.2136 -1.0034  1.4554
  3764G12c H00569804  12.540   6.630   2.749 -4.0142  0.7102 -4.1196
  3764G12c C01269805  12.341   6.569   2.830 -0.1146 -0.1262  0.0433
  3764G12c C01769806  12.333   6.667   2.930 -0.6868  0.0938  0.7634
  3764G12c O00269807  12.276   6.780   2.886 -0.4448 -0.3280  0.6738
  3764G12c H00469808  12.230   6.815   2.961 -6.6983  3.4584 -4.3414
  3764G12c C01869809  12.377   6.644   3.058  0.3572 -0.8517 -0.0391
  3764G12c O00169810  12.457   6.528   3.093 -0.7138 -1.0864  0.7628
  3764G12c H00369811  12.393   6.458   3.092 -2.6398  0.6169 -1.3028
  3764G12c C01969812  12.365   6.748   3.156  0.0448  0.9504 -0.4534
  3764G12c H00269813  12.344   6.667   3.226 -1.9707 -0.3186 -2.4333
  3764G12c H00169814  12.440   6.774   3.230  1.4863  0.3473 -1.6753
  3764G12c O00069815  12.258   6.854   3.132 -0.7595  0.6354 -0.0486
  3764G12c C01A69816  12.305   6.991   3.138 -0.2945 -0.1861  0.8257
  3764G12c C02K69817  12.210   7.097   3.191 -0.4818  1.3732  0.2441
  3764G12c O00G69818  12.132   7.088   3.280  0.0079  2.1409  0.1246
  3764G12c C02M69819  12.175   7.123   3.407 -0.1855  0.8137 -0.4401
  3764G12c H01G69820  12.264   7.185   3.420 -0.4061  0.7642  1.4497
  3764G12c H01F69821  12.199   7.024   3.446 -0.6629  0.4552 -1.0420
  3764G12c H01E69822  12.080   7.151   3.451  0.4693 -2.7695  3.5516
  3764G12c C02J69823  12.250   7.233   3.150  1.7178 -0.7913 -0.3638
  3764G12c H01H69824  12.192   7.317   3.187 -1.3825 -1.7816 -2.7547
  3764G12c C02I69825  12.377   7.263   3.096  0.7115  0.2802  2.0413
  3764G12c C02N69826  12.390   7.408   3.087 -0.9047  0.2592 -1.6710
  3764G12c H01M69827  12.299   7.465   3.083  0.7626  2.9626 -2.3424
  3764G12c C02O69828  12.495   7.470   3.138 -0.2250 -0.7643 -2.0285
  3764G12c H01L69829  12.554   7.404   3.199  1.1338  1.4244 -0.9192
  3764G12c C02P69830  12.524   7.619   3.127 -0.8068 -0.0590 -0.9863
  3764G12c H01K69831  12.522   7.644   3.233 -6.1367  1.8258 -1.3580
  3764G12c H01J69832  12.610   7.630   3.061 -0.8566 -0.4790 -1.1252
  3764G12c O00H69833  12.440   7.688   3.055 -0.4234  0.4354 -1.1087
  3764G12c H01I69834  12.485   7.743   2.992  2.1667 -0.3836 -0.0635
  3764G12c C02H69835  12.463   7.168   3.062 -2.1104 -0.8754  0.1803
  3764G12c H01C69836  12.556   7.204   3.022 -2.8011 -2.5338 -3.1732
  3764G12c C02L69837  12.426   7.037   3.082 -1.4202  0.1009 -2.4941
  3764G12c H01D69838  12.505   6.968   3.056  0.9957  3.5164 -4.6717
  3764G12c C01369839  12.237   6.491   2.777  1.3664 -0.3134 -0.0100
  3764G12c H00069840  12.138   6.529   2.799 -1.5211 -5.8026 -2.3024
  3764G12c C01469841  12.260   6.377   2.687  0.2624 -0.2860 -1.4843
  3764G12c C00F69842  12.158   6.304   2.636  0.9162 -0.3169 -1.3720
  3764G12c C00H69843  12.320   6.166   2.528 -0.2766  0.6942 -1.3568
  3764G12c C00I69844  12.356   6.054   2.443 -0.0890  0.0201  1.1555
  3764G12c C00J69845  12.504   6.037   2.429  0.7929 -1.2327  0.9472
  3764G12c C00Z69846  12.637   6.393   2.702  1.9562  1.5580  1.6439
  3764G12c C00Y69847  12.754   6.447   2.762 -0.2593 -0.2307  0.7486
  3764G12c H00669848  12.724   6.538   2.811  8.0614  1.9344  2.5449
  3764G12c C00X69849  12.885   6.404   2.759  1.2354 -0.8743  1.8116
  3764G12c O00369850  12.995   6.457   2.817  0.4614 -1.6180  0.7055
  3764G12c C01B69851  12.956   6.528   2.932 -0.7468 -0.0023 -0.3194
  3764G12c H00969852  13.040   6.526   3.001 -0.2180  2.0289 -0.8646
  3764G12c H00869853  12.878   6.503   3.003  1.4062  2.6749  3.1759
  3764G12c H00769854  12.957   6.637   2.926  0.9555  0.4668  5.3156
  3764G12c C00W69855  12.909   6.296   2.684 -0.4244  1.6282  0.2473
  3764G12c O00469856  13.039   6.252   2.648 -0.5755  0.6120  0.2589
  3764G12c C01C69857  13.045   6.124   2.608  0.4786  2.0467 -0.5926
  3764G12c H00A69858  13.116   6.106   2.528 -5.8798  1.1709 -6.5072
  3764G12c C00P69859  12.948   6.028   2.596 -0.4414  1.1026  0.0128
  3764G12c C00O69860  12.984   5.885   2.577  0.5432 -0.4335 -1.7468
  3764G12c C01D69861  13.082   5.820   2.649  0.1099  0.5172  0.1358
  3764G12c H00S69862  13.148   5.895   2.691 -1.7450  2.1029  0.2990
  3764G12c C01E69863  13.091   5.685   2.676  1.5200 -0.3512  0.1712
  3764G12c O00869864  13.178   5.644   2.767 -0.5638 -0.3633  0.2763
  3764G12c C01V69865  13.280   5.715   2.819  0.3401  0.9450 -0.6604
  3764G12c C01Z69866  13.383   5.701   2.720  1.8802 -0.2444  0.3630
  3764G12c H00R69867  13.398   5.595   2.700 -0.6732 -0.6522  0.4122
  3764G12c H00Q69868  13.364   5.763   2.632  3.8348 -0.7789 -0.4688
  3764G12c O00969869  13.524   5.737   2.734 -1.1384 -0.6608 -0.9574
  3764G12c H00P69870  13.568   5.721   2.651 -0.0090  1.5922 -0.8588
  3764G12c C01W69871  13.272   5.809   2.926 -0.3755  0.2034  0.1629
  3764G12c H00O69872  13.355   5.873   2.953 -1.1317  1.3068 -0.0703
  3764G12c C01X69873  13.143   5.811   3.013 -0.0427 -1.3096  0.5043
  3764G12c H00N69874  13.183   5.874   3.092 -3.6703  4.9975 -2.2126
  3764G12c H00M69875  13.078   5.897   2.998 -0.5845 -1.5091  1.6918
  3764G12c C01Y69876  13.113   5.671   3.089  0.1584 -1.7517  0.3841
  3764G12c C02D69877  13.038   5.578   3.009 -0.8027  0.2002 -0.9868
  3764G12c H01969878  13.009   5.609   2.910 -1.4505  2.8160 -0.0171
  3764G12c C02C69879  13.020   5.446   3.067 -0.1176  1.7342 -0.5680
  3764G12c H01A69880  12.941   5.392   3.017 -1.1955  1.8021  1.0457
  3764G12c C02B69881  13.071   5.418   3.201 -0.4068  1.4487 -1.5299
  3764G12c O00E69882  13.057   5.289   3.234  1.8295 -0.6211 -0.8949
  3764G12c H01B69883  13.000   5.250   3.171 -0.3777  0.5790  0.3011
  3764G12c C02F69884  13.146   5.513   3.275  1.6955  0.8185  0.1561
  3764G12c O00F69885  13.182   5.515   3.415 -0.1701 -2.1895  0.8830
  3764G12c C02G69886  13.071   5.485   3.504  0.0111  0.9491 -0.9445
  3764G12c H01769887  13.100   5.475   3.609 -1.6835 -0.4075 -0.5898
  3764G12c H01669888  13.020   5.391   3.487  4.4427 -1.2417 -3.0508
  3764G12c H01569889  13.007   5.572   3.491 -3.3530 -1.3757 -0.3944
  3764G12c C02E69890  13.167   5.636   3.212  0.0091 -0.2630 -0.5539
  3764G12c H01869891  13.226   5.718   3.249  1.4425 -1.8950  0.8166
  3764G12c C01F69892  12.993   5.601   2.604 -1.2634 -1.4441  0.0131
  3764G12c C01G69893  12.973   5.471   2.642  0.1743 -0.1519  0.0741
  3764G12c H00L69894  13.020   5.439   2.734  3.2230 -1.1736 -1.7651
  3764G12c C01H69895  12.868   5.391   2.575  0.4735 -0.2730 -2.3936
  3764G12c H00B69896  12.840   5.288   2.592 -5.4853  1.8678  2.8787
  3764G12c C01I69897  12.794   5.473   2.484 -0.7224  0.0472 -0.1064
  3764G12c C01U69898  12.923   5.658   2.495  0.2610 -0.2044  0.4003
  3764G12c C00S69899  12.597   6.122   2.455 -0.5857  0.6176  0.7020
  3764G12c C00K69900  12.551   5.908   2.418 -0.0579  1.3325  0.6811
  3764G12c C00N69901  12.899   5.797   2.497 -1.1592 -0.3299  1.9912
  3764G12c C00069902  12.839   5.586   2.403 -0.7405 -0.5265 -0.9844
  3764G12c C01J69903  12.642   5.490   2.465 -1.1291 -1.7343  1.0598
  3764G12c C01K69904  12.538   5.391   2.517  1.2269  0.1591  0.2500
  3764G12c C01P69905  12.552   5.257   2.557  2.3705  0.4258 -1.9698
  3764G12c C01Q69906  12.641   5.167   2.478  0.8251 -0.0696 -0.8641
  3764G12c H00G69907  12.637   5.213   2.381  2.5943  0.9910 -0.4574
  3764G12c C01R69908  12.718   5.066   2.523  1.8665 -0.3296  0.5117
  3764G12c H00F69909  12.699   5.043   2.627 10.5572 -3.5857  1.8132
  3764G12c C01S69910  12.826   4.974   2.493  1.4038 -0.8720  1.3191
  3764G12c H00E69911  12.784   4.876   2.471 -1.0359  1.4781 -5.9756
  3764G12c H00D69912  12.874   5.024   2.409  5.2730 -3.9553  1.5377
  3764G12c O00569913  12.909   4.935   2.616 -0.6965  0.2708  1.3513
  3764G12c H00C69914  12.987   4.989   2.612  1.3293 -2.0719  5.6501
  3764G12c C01O69915  12.451   5.189   2.634 -0.6626  0.6574 -0.1552
  3764G12c H00H69916  12.481   5.089   2.662  2.1884  0.8032 -2.3576
  3764G12c C01N69917  12.345   5.254   2.677  1.3734 -0.5622  0.7980
  3764G12c O00669918  12.254   5.173   2.753  0.5487 -1.3898  1.2583
  3764G12c C01T69919  12.190   5.098   2.653  0.3441  0.9027  0.2110
  3764G12c H00K69920  12.211   5.005   2.707  1.5407  1.7201  1.1778
  3764G12c H00J69921  12.243   5.047   2.572  1.5710  0.3210  1.3451
  3764G12c H00I69922  12.102   5.151   2.619 -1.2695 -0.6722  1.7715
  3764G12c C01M69923  12.319   5.388   2.629 -0.7584 -0.3545  1.5580
  3764G12c C02069924  12.444   5.812   2.403  1.1077  0.3837 -1.6116
  3764G12c C02169925  12.310   5.822   2.395  1.4068 -0.1840  1.3612
  3764G12c C01L69926  12.418   5.462   2.554 -0.4305 -0.3600  0.3480
  3764G12c O00769927  12.206   5.451   2.668  1.5144 -0.9391 -0.3735
  3764G12c C02269928  12.221   5.746   2.446 -0.6409  1.1508  1.0095
  3764G12c C02369929  12.262   5.955   2.405  1.3328  1.8859 -0.0572
  3764G12c C00G69930  12.187   6.192   2.560  0.9626  0.2336  2.2917
  3764G12c C00E69931  12.016   6.324   2.665  2.1964  1.9841 -1.0521
  3764G12c O00A69932  11.973   6.438   2.700 -0.0444  0.4984  0.3246
  3764G12c C02469933  11.939   6.522   2.588  0.5378  0.5714  1.5308
  3764G12c H00V69934  12.019   6.594   2.605 -1.2263  2.6513  1.2780
  3764G12c H00U69935  11.850   6.585   2.591  2.3673  3.1854  2.7638
  3764G12c H00T69936  11.937   6.466   2.495 -7.3212  0.4396  1.4237
  3774G12c C00D69937  10.579   3.938   0.410 -0.2565 -0.7219 -0.1004
  3774G12c O00B69938  10.611   3.902   0.284  0.8216  0.6188  1.6919
  3774G12c C02569939  10.726   3.946   0.228  0.2957  1.6888  0.9278
  3774G12c C02669940  10.824   3.824   0.217 -2.1020 -0.1355  0.8834
  3774G12c H00Y69941  10.867   3.831   0.117 -2.5855 -0.7031  0.6393
  3774G12c H00X69942  10.786   3.728   0.249 -3.0000  1.6915  5.7801
  3774G12c O00C69943  10.938   3.866   0.295  0.5256  1.7965 -0.5927
  3774G12c H00W69944  10.908   3.842   0.381  2.2951 -2.0940 -0.9572
  3774G12c C02769945  10.728   4.074   0.183  0.4676  0.3595 -0.8568
  3774G12c O00D69946  10.605   4.135   0.162 -0.2484  1.3999  0.6063
  3774G12c H00Z69947  10.547   4.063   0.142  0.9643 -1.4870  6.4957
  3774G12c C02869948  10.843   4.128   0.102  0.6824  0.6098 -1.0502
  3774G12c C02969949  10.821   4.171  -0.023  0.7905  0.5235 -0.1651
  3774G12c H01069950  10.742   4.140  -0.090  0.8579 -1.6319  0.7145
  3774G12c C02T69951  10.904   4.275  -0.085  0.0510  1.1569  1.0581
  3774G12c H01O69952  10.888   4.305  -0.188  2.9747  2.1263  0.8359
  3774G12c C02S69953  11.015   4.333  -0.003  1.1562 -0.8235  0.2925
  3774G12c O00J69954  11.092   4.422  -0.066  0.6499 -0.2606  0.0734
  3774G12c H01P69955  11.103   4.455  -0.154  3.4873  2.0671  1.2354
  3774G12c C02R69956  11.049   4.283   0.131  0.8359  1.4728 -0.4747
  3774G12c O00I69957  11.148   4.326   0.216  0.2128 -0.0521 -0.3949
  3774G12c C02Q69958  11.275   4.377   0.158  1.2160 -0.0183 -1.0753
  3774G12c H01N69959  11.279   4.479   0.197  4.0914 -1.7867  3.6331
  3774G12c H01R69960  11.279   4.383   0.049 -3.1811  4.2469 -1.1848
  3774G12c H01Q69961  11.361   4.321   0.193 -2.7010 -3.6108  3.4844
  3774G12c C02A69962  10.948   4.185   0.179  2.1916  1.2923  0.7102
  3774G12c H01169963  10.958   4.162   0.284 -1.1459  5.3619  2.0421
  3774G12c C00C69964  10.457   4.008   0.411 -0.5577 -0.1872 -1.5844
  3774G12c H01269965  10.393   3.994   0.325  0.7771  1.1819 -2.8426
  3774G12c C00B69966  10.384   4.068   0.514 -1.0130  0.9307  0.9073
  3774G12c C00A69967  10.256   4.131   0.522 -0.3282 -0.7256 -0.4406
  3774G12c C00969968  10.166   4.183   0.419  0.3584 -0.2265  0.0912
  3774G12c C00869969  10.174   4.209   0.277 -1.3317 -0.0897 -1.6714
  3774G12c H01369970  10.254   4.162   0.222  3.3871  1.8280  3.0251
  3774G12c C00769971  10.111   4.332   0.234  0.3599  1.0113 -1.6826
  3774G12c H01469972  10.145   4.347   0.132 -2.6698  0.8477 -2.7721
  3774G12c C00669973  10.030   4.425   0.309 -0.0866 -0.6960 -0.0183
  3774G12c C00569974  10.011   4.395   0.437  0.9675 -2.2397  0.2930
  3774G12c C00469975   9.967   4.484   0.540 -0.0844  0.9372 -0.4544
  3774G12c C00369976  10.002   4.466   0.676 -0.1350 -1.8323  0.4300
  3774G12c C00269977   9.950   4.567   0.768 -0.2658  0.8242 -0.5298
  3774G12c C00169978   9.947   4.566   0.923 -0.3098 -0.7327  1.0140
  3774G12c C00M69979  10.056   4.526   1.005 -0.3523 -1.2257 -1.6080
  3774G12c C00L69980  10.143   4.431   0.979  2.3537 -2.2140 -0.2391
  3774G12c C00R69981  10.270   4.394   1.038  1.8788 -0.9286 -1.6223
  3774G12c C00Q69982  10.340   4.458   1.134 -2.1501  1.4907 -1.0621
  3774G12c C00V69983  10.466   4.401   1.147 -0.8595 -1.7460  0.6569
  3774G12c C00U69984  10.521   4.311   1.056 -2.1988 -0.7997  1.7333
  3774G12c C00T69985  10.451   4.263   0.952 -1.7401 -0.2742 -0.0972
  3774G12c C01669986  10.497   4.182   0.853  0.8172  0.9774  1.3103
  3774G12c C01569987  10.624   4.141   0.851  0.0922  1.5282  0.2171
  3774G12c C01069988  10.704   4.179   0.960 -0.7664 -0.2651 -1.2102
  3774G12c C01169989  10.843   4.141   0.967 -0.1695 -0.4107  0.7021
  3774G12c H00569990  10.887   4.185   1.056  7.8170  5.0278 -5.2416
  3774G12c C01269991  10.899   4.059   0.875 -1.7455  0.1430 -0.3670
  3774G12c C01769992  11.038   4.041   0.878 -0.4002  1.0254  1.0982
  3774G12c O00269993  11.123   4.093   0.798  1.5001  0.6544  0.8075
  3774G12c H00469994  11.125   4.186   0.811 -5.0781  1.4199 -1.8714
  3774G12c C01869995  11.098   3.987   0.993  0.4453 -0.1883 -0.7114
  3774G12c O00169996  11.033   3.915   1.068 -0.1034  0.3397 -1.8127
  3774G12c H00369997  10.942   3.894   1.051  0.4346 -1.1930 -2.8420
  3774G12c C01969998  11.251   3.974   1.010 -0.2005 -0.7339 -1.6963
  3774G12c H00269999  11.300   4.070   1.028 -1.9037 -0.5024  2.2821
  3774G12c H00170000  11.245   3.936   1.112  3.9011  0.4396 -0.9150
  3774G12c O00070001  11.296   3.869   0.936  0.1024 -0.7522 -0.9637
  3774G12c C01A70002  11.411   3.801   0.987  0.7819  0.0929  1.2507
  3774G12c C02K70003  11.464   3.683   0.920 -1.8246 -1.5121  0.6856
  3774G12c O00G70004  11.406   3.640   0.797 -1.3755 -1.0859  1.0462
  3774G12c C02M70005  11.296   3.552   0.816 -1.4993  0.0901 -0.2714
  3774G12c H01G70006  11.338   3.452   0.802 -4.8707 -1.9771  3.4378
  3774G12c H01F70007  11.211   3.556   0.747 -4.7885 -3.0304  3.3868
  3774G12c H01E70008  11.260   3.565   0.918  3.2665  4.4711  1.0882
  3774G12c C02J70009  11.570   3.607   0.969  0.1348 -0.3735 -0.5828
  3774G12c H01H70010  11.615   3.537   0.900 -0.2847  6.9198 -9.1834
  3774G12c C02I70011  11.628   3.626   1.101 -2.0428  1.0497  0.1063
  3774G12c C02N70012  11.758   3.557   1.147  0.6983 -0.2576  1.1588
  3774G12c H01M70013  11.824   3.596   1.223  3.5726  2.2801 -2.4194
  3774G12c C02O70014  11.761   3.427   1.115 -1.7466  0.4687 -0.5728
  3774G12c H01L70015  11.706   3.379   1.035 -0.7507  2.3090 -2.4098
  3774G12c C02P70016  11.851   3.329   1.197  0.3244  1.0873  0.3451
  3774G12c H01K70017  11.954   3.339   1.162  0.3829  3.0851  1.0172
  3774G12c H01J70018  11.863   3.329   1.306  2.3247 -4.5981  0.3257
  3774G12c O00H70019  11.853   3.203   1.170 -0.2857 -1.8143  0.9296
  3774G12c H01I70020  11.768   3.177   1.140 -1.4328  4.7310 -2.4061
  3774G12c C02H70021  11.583   3.739   1.167 -0.1276 -2.0901  0.2990
  3774G12c H01C70022  11.648   3.766   1.249  3.9214  0.0837 -3.4501
  3774G12c C02L70023  11.487   3.828   1.107 -1.0668  0.8156  1.6309
  3774G12c H01D70024  11.508   3.924   1.151  1.2250 -0.0761  2.5832
  3774G12c C01370025  10.814   4.018   0.770 -1.2665  0.5763  0.7197
  3774G12c H00070026  10.840   3.956   0.685 -1.4783  1.3340  0.0965
  3774G12c C01470027  10.679   4.055   0.753 -0.8276 -0.7849  0.0151
  3774G12c C00F70028  10.597   4.021   0.653  0.1552 -1.6753  0.2169
  3774G12c C00H70029  10.416   4.146   0.740  0.2109  0.6747  1.6073
  3774G12c C00I70030  10.281   4.187   0.752 -1.0287  1.5553  1.5054
  3774G12c C00J70031  10.234   4.250   0.874 -1.0938  0.2347 -0.0054
  3774G12c C00Z70032  10.659   4.272   1.054  0.5492 -0.1954 -0.1905
  3774G12c C00Y70033  10.751   4.364   1.126 -1.5737 -1.8419  2.7642
  3774G12c H00670034  10.852   4.379   1.091 -1.7472  3.8698  4.2232
  3774G12c C00X70035  10.705   4.466   1.220  0.9045 -0.8896 -0.6517
  3774G12c O00370036  10.791   4.559   1.285 -2.3544 -0.2064 -0.5611
  3774G12c C01B70037  10.934   4.537   1.275  0.3347  0.5283  0.4883
  3774G12c H00970038  10.981   4.547   1.177  2.5024 -3.8020  0.9552
  3774G12c H00870039  10.993   4.610   1.330  3.7254  1.0934 -3.5979
  3774G12c H00770040  10.972   4.459   1.341  0.8609 -1.5236 -2.1441
  3774G12c C00W70041  10.566   4.486   1.226  0.7480 -3.0157  0.6172
  3774G12c O00470042  10.532   4.575   1.320 -0.1013  0.1389 -0.7559
  3774G12c C01C70043  10.411   4.650   1.285 -0.9223  0.3573 -0.0509
  3774G12c H00A70044  10.402   4.735   1.351  5.1260  1.3115 -0.1745
  3774G12c C00P70045  10.308   4.585   1.208 -1.1069  0.8569 -1.4963
  3774G12c C00O70046  10.189   4.673   1.174  0.0892  1.3907  1.3169
  3774G12c C01D70047  10.221   4.812   1.166 -1.2839  0.0348  1.2047
  3774G12c H00S70048  10.327   4.828   1.169 -0.0211 -0.7622-11.8267
  3774G12c C01E70049  10.167   4.915   1.091  0.9052 -1.7464 -1.0341
  3774G12c O00870050  10.268   5.009   1.064  0.1606  0.1134 -1.1359
  3774G12c C01V70051  10.364   4.992   0.970 -1.9375  1.4596 -0.4777
  3774G12c C01Z70052  10.486   5.082   0.994 -0.6868 -0.5786 -0.8347
  3774G12c H00R70053  10.541   5.051   1.082 -2.8519 -3.5039 -0.4515
  3774G12c H00Q70054  10.545   5.074   0.903  2.1217 -5.6361  1.2394
  3774G12c O00970055  10.447   5.217   1.006 -0.4266  0.4028  0.1571
  3774G12c H00P70056  10.366   5.223   1.054  0.5273 -2.9296  2.4091
  3774G12c C01W70057  10.330   4.917   0.861 -0.5124  0.7541  1.8741
  3774G12c H00O70058  10.250   4.845   0.865 -1.0929  1.3854  1.7002
  3774G12c C01X70059  10.394   4.915   0.723  0.6352 -0.4756 -0.2729
  3774G12c H00N70060  10.496   4.944   0.746 -1.1193  3.7454  2.9192
  3774G12c H00M70061  10.393   4.813   0.686  8.2379 -0.5501 -1.1230
  3774G12c C01Y70062  10.355   5.020   0.620  0.7248 -0.8182 -0.7566
  3774G12c C02D70063  10.427   5.023   0.493  1.2756  1.8468  0.1360
  3774G12c H01970064  10.509   4.957   0.469  2.4323  4.4576 -3.4447
  3774G12c C02C70065  10.370   5.101   0.390  0.9057 -0.9039  0.9588
  3774G12c H01A70066  10.443   5.101   0.311  0.9152  1.0901  0.9439
  3774G12c C02B70067  10.246   5.183   0.420 -0.6786 -1.4272 -1.1092
  3774G12c O00E70068  10.175   5.239   0.318 -0.6747 -0.2359  1.0027
  3774G12c H01B70069  10.218   5.215   0.238  1.8804  3.7909  1.0194
  3774G12c C02F70070  10.204   5.195   0.550  0.4101 -1.1738  0.0436
  3774G12c O00F70071  10.093   5.273   0.593  0.8429 -0.8195  0.5500
  3774G12c C02G70072   9.979   5.212   0.575  0.2229  1.4813 -0.4271
  3774G12c H01770073   9.882   5.235   0.530 -0.7771  1.8665  1.8114
  3774G12c H01670074   9.960   5.199   0.682 -1.5290  7.5675  0.2123
  3774G12c H01570075   9.979   5.124   0.512  0.8235  3.9463 -4.0038
  3774G12c C02E70076  10.236   5.088   0.639  1.1307  1.1508 -0.7204
  3774G12c H01870077  10.178   5.087   0.730  0.3500  0.0301 -1.2114
  3774G12c C01F70078  10.042   4.882   1.040 -0.1562 -0.7087 -0.7538
  3774G12c C01G70079   9.978   4.985   0.958  0.0859  0.3052  1.5616
  3774G12c H00L70080  10.010   5.087   0.976 -5.1861  3.2114 -3.5681
  3774G12c C01H70081   9.926   4.925   0.833 -0.0292 -0.7895  0.2861
  3774G12c H00B70082   9.900   4.991   0.751 -4.5265  0.1186  2.3030
  3774G12c C01I70083   9.891   4.776   0.823 -0.9560  0.0153  0.3346
  3774G12c C01U70084   9.980   4.753   1.051 -0.7887 -0.1551  1.0941
  3774G12c C00S70085  10.316   4.289   0.967  1.1172  0.8471 -0.3254
  3774G12c C00K70086  10.136   4.363   0.856  0.6992 -0.5298 -1.7857
  3774G12c C00N70087  10.079   4.647   1.092  1.9462  2.5890  0.5494
  3774G12c C00070088   9.897   4.692   0.944  0.6467 -0.8653 -0.0047
  3774G12c C01J70089   9.885   4.675   0.716  0.6819 -0.0292  1.0204
  3774G12c C01K70090   9.865   4.709   0.581 -1.6145  1.1337 -1.2943
  3774G12c C01P70091   9.799   4.814   0.512  0.6837  0.3976 -2.0209
  3774G12c C01Q70092   9.687   4.877   0.582  1.0319  0.6869 -0.4622
  3774G12c H00G70093   9.691   4.981   0.611  1.9004 -0.0002  2.0280
  3774G12c C01R70094   9.585   4.795   0.620 -0.1854  0.3446 -0.3010
  3774G12c H00F70095   9.573   4.706   0.561 -3.4566  1.9825 -2.2196
  3774G12c C01S70096   9.484   4.793   0.730 -0.5942 -1.3237 -0.9930
  3774G12c H00E70097   9.471   4.710   0.801  0.8248 -0.0513  0.8193
  3774G12c H00D70098   9.540   4.857   0.798  2.6681 -5.3133  0.3431
  3774G12c O00570099   9.368   4.835   0.656 -0.7558 -0.6577  0.3545
  3774G12c H00C70100   9.291   4.784   0.675  0.9866 -5.1999 -3.7121
  3774G12c C01O70101   9.796   4.839   0.378 -0.4057 -0.7123 -1.6072
  3774G12c H00H70102   9.747   4.924   0.334  2.7367 -1.3441 -6.7520
  3774G12c C01N70103   9.876   4.745   0.302 -0.6094 -0.8726 -0.8810
  3774G12c O00670104   9.887   4.742   0.156  0.4399  0.2103  0.9656
  3774G12c C01T70105   9.867   4.873   0.113  2.0427 -1.4766 -0.5241
  3774G12c H00K70106   9.768   4.911   0.135  0.8556 -4.4311 -0.4573
  3774G12c H00J70107   9.890   4.881   0.007 -2.7433 -2.2829 -1.7090
  3774G12c H00I70108   9.941   4.950   0.132  6.4235 -4.7396 -3.1090
  3774G12c C01M70109   9.920   4.630   0.359 -0.4921  0.1084 -1.3880
  3774G12c C02070110  10.076   4.358   0.731  0.9911 -0.9886  0.0621
  3774G12c C02170111  10.095   4.258   0.635  0.0017 -0.6180  1.2327
  3774G12c C01L70112   9.914   4.607   0.497 -2.3610  1.1532 -0.3283
  3774G12c O00770113   9.968   4.538   0.261  0.6748  0.6448  0.1507
  3774G12c C02270114  10.078   4.276   0.493 -1.9039 -1.5468  2.3087
  3774G12c C02370115  10.208   4.176   0.636 -0.2005 -0.2126  0.6193
  3774G12c C00G70116  10.460   4.076   0.630 -0.8721  0.1102  0.0684
  3774G12c C00E70117  10.639   3.938   0.542 -2.2933  0.3397  0.0989
  3774G12c O00A70118  10.764   3.859   0.527 -0.5893 -0.7731 -0.2274
  3774G12c C02470119  10.770   3.730   0.581 -1.9684  1.0424 -1.8551
  3774G12c H00V70120  10.712   3.646   0.543  1.5825 -0.2497 -4.7593
  3774G12c H00U70121  10.819   3.726   0.678 -3.2961  4.2925 -0.9525
  3774G12c H00T70122  10.860   3.701   0.527 -1.6505  2.8682 -2.3526
  3784G12c C00D70123   9.180   6.460   2.046 -0.2428  0.3644  1.5723
  3784G12c O00B70124   9.060   6.473   1.974 -0.1484  0.7156 -1.1199
  3784G12c C02570125   8.968   6.538   2.053 -1.5509  0.7533 -0.1921
  3784G12c C02670126   8.924   6.477   2.188 -0.6549 -0.9745 -0.3345
  3784G12c H00Y70127   8.949   6.371   2.195  4.7825  0.1419 -0.6707
  3784G12c H00X70128   8.823   6.450   2.219 -0.8137  1.4935  1.4521
  3784G12c O00C70129   8.989   6.559   2.289  0.8334 -0.4761  0.1913
  3784G12c H00W70130   8.970   6.537   2.378  1.4022 -0.1621  0.3944
  3784G12c C02770131   8.915   6.639   1.991 -0.7007 -0.2206 -0.3947
  3784G12c O00D70132   8.951   6.695   1.875 -0.2475  0.7000  0.1249
  3784G12c H00Z70133   8.980   6.605   1.869  6.9110  2.5274  2.7046
  3784G12c C02870134   8.797   6.698   2.055 -0.4376  0.1267  0.1509
  3784G12c C02970135   8.816   6.822   2.124  0.3082  0.2830  3.1670
  3784G12c H01070136   8.910   6.859   2.162  2.5692  1.1708 -2.6727
  3784G12c C02T70137   8.713   6.881   2.200 -0.5871 -2.2933 -0.1324
  3784G12c H01O70138   8.732   6.966   2.265 -6.3717 -3.4753  3.5497
  3784G12c C02S70139   8.583   6.831   2.174  0.9178 -0.8123 -0.1312
  3784G12c O00J70140   8.475   6.891   2.235 -0.7911 -1.1110 -1.2693
  3784G12c H01P70141   8.477   6.978   2.197 -0.1128 -0.8356 -0.6159
  3784G12c C02R70142   8.550   6.713   2.106 -0.4450  0.2525  0.4930
  3784G12c O00I70143   8.422   6.658   2.120 -0.3711 -0.0145  1.0971
  3784G12c C02Q70144   8.424   6.514   2.147 -0.1300  0.6148  0.6235
  3784G12c H01N70145   8.338   6.492   2.211 -5.7361  1.8899 -5.8390
  3784G12c H01R70146   8.526   6.481   2.161  0.1716 -0.0423 -2.5921
  3784G12c H01Q70147   8.376   6.466   2.061  1.7294 -0.5295  0.1924
  3784G12c C02A70148   8.663   6.650   2.047 -0.5240  0.0332 -0.4798
  3784G12c H01170149   8.683   6.574   1.974 -2.3215 -1.3175  0.3999
  3784G12c C00C70150   9.266   6.565   2.047 -0.3723 -0.2337  1.6241
  3784G12c H01270151   9.235   6.656   1.998  7.0803  0.6454 -2.2548
  3784G12c C00B70152   9.413   6.564   2.096 -0.4436  0.6601 -0.9026
  3784G12c C00A70153   9.517   6.658   2.100  0.0105  0.0890  0.1879
  3784G12c C00970154   9.534   6.774   2.013  0.3865 -0.7060  1.1358
  3784G12c C00870155   9.455   6.883   1.940 -0.6282 -0.0598  0.6059
  3784G12c H01370156   9.354   6.874   1.902 -0.0271 -2.8159 -0.4686
  3784G12c C00770157   9.551   6.960   1.864  0.4087  0.4849 -1.3917
  3784G12c H01470158   9.517   7.020   1.781  1.4136  6.6436  2.3281
  3784G12c C00670159   9.697   6.964   1.880 -1.8664 -0.6581 -1.3670
  3784G12c C00570160   9.763   6.877   1.974  1.6116 -0.2025 -0.0892
  3784G12c C00470161   9.905   6.852   1.996 -1.5271 -1.1821 -0.2938
  3784G12c C00370162   9.951   6.771   2.090  1.5436 -0.8583 -0.3917
  3784G12c C00270163  10.087   6.733   2.071  0.5939 -0.7927 -0.5174
  3784G12c C00170164  10.177   6.649   2.166 -0.5048 -1.5166  2.1042
  3784G12c C00M70165  10.139   6.514   2.215 -0.1404  1.4984 -0.3198
  3784G12c C00L70166  10.021   6.497   2.289  1.0939 -0.9634  0.2940
  3784G12c C00R70167   9.974   6.361   2.306 -0.6547 -2.0653 -2.3398
  3784G12c C00Q70168  10.029   6.240   2.266  0.4399  0.5839 -1.7583
  3784G12c C00V70169   9.936   6.130   2.306 -0.6470  0.1657 -1.5095
  3784G12c C00U70170   9.800   6.151   2.299  1.3237  0.9729 -0.6686
  3784G12c C00T70171   9.740   6.271   2.297 -0.6342 -0.8014 -1.0122
  3784G12c C01670172   9.607   6.294   2.264 -0.9729  1.7541  1.7805
  3784G12c C01570173   9.542   6.174   2.234  0.4252  0.3951 -1.5809
  3784G12c C01070174   9.588   6.053   2.281 -0.3627  0.7342  0.9769
  3784G12c C01170175   9.503   5.940   2.261  0.2691 -0.5328  0.2426
  3784G12c H00570176   9.542   5.842   2.284  1.5835 -1.2223 -4.4421
  3784G12c C01270177   9.370   5.953   2.229  0.4307 -0.5322 -0.4157
  3784G12c C01770178   9.299   5.833   2.242 -0.0075 -1.0748  0.2716
  3784G12c O00270179   9.284   5.775   2.123  0.0351  0.3781  1.0777
  3784G12c H00470180   9.248   5.690   2.144  3.4225  0.2308  7.6686
  3784G12c C01870181   9.262   5.785   2.371  0.2191 -1.3867  1.0955
  3784G12c O00170182   9.305   5.863   2.474  0.9781 -0.2960 -0.9261
  3784G12c H00370183   9.366   5.929   2.447 -2.9329  4.7078  1.4494
  3784G12c C01970184   9.179   5.656   2.392 -0.7143 -0.3142  0.0362
  3784G12c H00270185   9.071   5.655   2.404 -1.5971 -2.9458 -6.1058
  3784G12c H00170186   9.175   5.633   2.285  3.7636  2.4500 -0.8421
  3784G12c O00070187   9.262   5.550   2.457 -0.3383 -0.3943 -0.6824
  3784G12c C01A70188   9.375   5.484   2.427 -2.0002  1.7202 -0.6887
  3784G12c C02K70189   9.441   5.476   2.292  0.9280  0.2737  0.5548
  3784G12c O00G70190   9.347   5.474   2.181 -1.1116  0.1072 -1.1723
  3784G12c C02M70191   9.413   5.420   2.056 -0.9302 -0.5375 -0.7057
  3784G12c H01G70192   9.375   5.321   2.032  0.6315 -0.9902 -1.3328
  3784G12c H01F70193   9.514   5.460   2.047 -0.4102 -1.3533  1.2944
  3784G12c H01E70194   9.350   5.481   1.991 -9.1043  3.3215  9.4265
  3784G12c C02J70195   9.576   5.426   2.290 -0.0548  1.3560 -0.2803
  3784G12c H01H70196   9.642   5.424   2.204  3.3636  3.7477  2.1337
  3784G12c C02I70197   9.631   5.374   2.417  1.1573  0.6900  0.2171
  3784G12c C02N70198   9.751   5.299   2.412 -0.5209 -1.0555 -0.9107
  3784G12c H01M70199   9.781   5.258   2.317  3.2732 -3.9590  1.3577
  3784G12c C02O70200   9.848   5.326   2.487  1.2567  0.0229 -0.3413
  3784G12c H01L70201   9.825   5.321   2.592  3.1697 -2.6031  0.0054
  3784G12c C02P70202   9.992   5.303   2.452  0.7814  0.5790  2.5492
  3784G12c H01K70203  10.021   5.380   2.381  1.2840  1.3137  3.5390
  3784G12c H01J70204  10.037   5.295   2.551  1.9300 -2.5935  1.8415
  3784G12c O00H70205   9.984   5.156   2.381 -0.5425 -1.2809 -1.4309
  3784G12c H01I70206   9.891   5.144   2.390 -1.0257  0.1826 -4.0184
  3784G12c C02H70207   9.569   5.386   2.542 -0.1726 -0.5957  0.0715
  3784G12c H01C70208   9.632   5.367   2.628 -2.0079 -0.8180  1.3815
  3784G12c C02L70209   9.441   5.437   2.546  1.2236  0.5778  1.6538
  3784G12c H01D70210   9.390   5.457   2.639  1.1372 -8.5128  4.0109
  3784G12c C01370211   9.322   6.081   2.193  2.0734  0.3778 -1.6821
  3784G12c H00070212   9.219   6.060   2.169  2.3679 -1.5668 -1.3436
  3784G12c C01470213   9.408   6.195   2.183  0.3356 -0.8318  0.3460
  3784G12c C00F70214   9.369   6.326   2.136 -0.1417  0.8060 -1.0643
  3784G12c C00H70215   9.573   6.423   2.222  0.4223 -0.6086  0.1203
  3784G12c C00I70216   9.650   6.536   2.254  2.3070 -0.7059  0.1268
  3784G12c C00J70217   9.795   6.507   2.281 -0.9086  1.0992  0.8210
  3784G12c C00Z70218   9.715   6.030   2.308 -1.4166  0.5393  0.4640
  3784G12c C00Y70219   9.773   5.914   2.343  0.0376 -0.0722 -0.5413
  3784G12c H00670220   9.710   5.842   2.394 -0.2888 -0.7461 -1.8926
  3784G12c C00X70221   9.902   5.890   2.364  1.0679 -0.4121 -1.6516
  3784G12c O00370222   9.926   5.776   2.417 -2.0695 -1.1992  0.8543
  3784G12c C01B70223   9.991   5.698   2.322  1.4614  1.2767 -0.1204
  3784G12c H00970224   9.952   5.596   2.316  1.8061  1.1096  0.4453
  3784G12c H00870225  10.097   5.691   2.345  0.3913  1.8076  5.7040
  3784G12c H00770226   9.993   5.731   2.218  0.2119  2.3466  0.1737
  3784G12c C00W70227   9.989   5.998   2.325 -0.5091  0.3197  0.5007
  3784G12c O00470228  10.131   5.988   2.337  0.4636 -1.2878  1.0770
  3784G12c C01C70229  10.198   6.078   2.255 -1.1521  0.3071  0.0964
  3784G12c H00A70230  10.304   6.080   2.275 -0.9428 -0.2678 -0.9076
  3784G12c C00P70231  10.152   6.208   2.210  0.9212  0.1982  0.4862
  3784G12c C00O70232  10.253   6.287   2.153 -0.0650 -0.1976 -1.5924
  3784G12c C01D70233  10.354   6.251   2.066  0.1599 -0.5694 -1.1177
  3784G12c H00S70234  10.360   6.148   2.033  0.8037 -1.1431  0.6965
  3784G12c C01E70235  10.443   6.339   1.994 -0.5569 -0.4971 -1.2251
  3784G12c O00870236  10.514   6.298   1.891  1.6147  0.2157  0.1974
  3784G12c C01V70237  10.628   6.209   1.925  2.2419 -0.8244  0.3943
  3784G12c C01Z70238  10.715   6.284   2.010 -0.0377  0.5554 -0.6507
  3784G12c H00R70239  10.698   6.275   2.117  1.2317 -0.1076 -0.4986
  3784G12c H00Q70240  10.685   6.388   1.997 -3.9021 -0.8556 -4.5646
  3784G12c O00970241  10.843   6.277   1.949 -0.0402 -0.7372 -0.5204
  3784G12c H00P70242  10.875   6.365   1.939 -1.7961 -0.1990 -1.7166
  3784G12c C01W70243  10.637   6.080   1.884 -1.0792 -1.1272  1.9965
  3784G12c H00O70244  10.705   6.012   1.934 -0.1891 -0.6307  1.4922
  3784G12c C01X70245  10.591   5.985   1.784 -0.2314 -0.3384  2.0877
  3784G12c H00N70246  10.577   6.036   1.689 -1.6223  0.4501  2.7073
  3784G12c H00M70247  10.674   5.915   1.798  2.4020  3.4156  6.5743
  3784G12c C01Y70248  10.467   5.906   1.828  1.4569 -2.4712  1.0067
  3784G12c C02D70249  10.492   5.770   1.850  1.2021  0.7087  0.7065
  3784G12c H01970250  10.585   5.723   1.822  1.4404  1.5658  0.0705
  3784G12c C02C70251  10.413   5.709   1.942  1.6085  1.2463  0.2455
  3784G12c H01A70252  10.409   5.605   1.967 -3.6590  1.4856  1.0528
  3784G12c C02B70253  10.292   5.772   1.979  1.0164  0.5706  0.1718
  3784G12c O00E70254  10.190   5.697   2.046 -1.3758 -1.5021 -0.6040
  3784G12c H01B70255  10.126   5.765   2.031  1.2437  2.5234  4.6586
  3784G12c C02F70256  10.252   5.904   1.929  0.1771  2.3147  0.8580
  3784G12c O00F70257  10.116   5.934   1.938 -0.0209 -0.5990 -0.2736
  3784G12c C02G70258  10.034   6.041   1.872  0.4330 -1.6525  0.0280
  3784G12c H01770259   9.957   6.086   1.935  1.7990 -3.0869  2.8540
  3784G12c H01670260  10.105   6.113   1.831 -0.9306  0.3914  1.1559
  3784G12c H01570261   9.994   5.988   1.786 -4.9627  6.8186 -3.3189
  3784G12c C02E70262  10.356   5.983   1.861  0.6200  0.3427 -0.3562
  3784G12c H01870263  10.337   6.086   1.832 -7.9981 -0.1008  2.3564
  3784G12c C01F70264  10.417   6.471   1.989  1.8402 -1.4872  1.6322
  3784G12c C01G70265  10.457   6.572   1.896  2.3498 -0.4441 -0.2263
  3784G12c H00L70266  10.538   6.586   1.826  1.4945 -0.1636 -1.1797
  3784G12c C01H70267  10.417   6.700   1.904  0.1251 -0.9699  0.0262
  3784G12c H00B70268  10.440   6.776   1.831 -2.7213  0.9970  1.0748
  3784G12c C01I70269  10.301   6.719   1.977  0.7649  1.1447  0.4195
  3784G12c C01U70270  10.331   6.518   2.094  0.4623  0.9466  0.4049
  3784G12c C00S70271   9.835   6.377   2.321 -0.4430  0.3162  0.9841
  3784G12c C00K70272   9.904   6.583   2.246  0.4134  2.3802  0.0843
  3784G12c C00N70273  10.251   6.426   2.165  0.8153 -0.7778  0.7821
  3784G12c C00070274  10.289   6.649   2.093 -1.7701  1.6509  0.1167
  3784G12c C01J70275  10.175   6.788   1.969  0.3396  1.2989 -1.1225
  3784G12c C01K70276  10.128   6.909   1.898  1.2086  0.4529  0.5111
  3784G12c C01P70277  10.206   7.031   1.864  0.8244  0.5707 -1.3074
  3784G12c C01Q70278  10.334   7.058   1.911  1.2085  0.3596 -0.1022
  3784G12c H00G70279  10.396   6.998   1.975 -1.9723  1.2019  4.0192
  3784G12c C01R70280  10.382   7.179   1.930  0.3198 -0.8723  1.0221
  3784G12c H00F70281  10.308   7.249   1.896 -0.2312 -3.1703 -2.8726
  3784G12c C01S70282  10.518   7.220   1.942  0.1885  0.0679 -0.4296
  3784G12c H00E70283  10.575   7.206   1.851  0.0303 -0.4577 -0.4528
  3784G12c H00D70284  10.511   7.328   1.946  4.0053  0.3339  5.1407
  3784G12c O00570285  10.557   7.165   2.059  0.1067 -0.3958  0.1733
  3784G12c H00C70286  10.479   7.118   2.083  0.8176 -3.0954 -2.5816
  3784G12c C01O70287  10.130   7.104   1.763  0.2116  0.0671  0.9102
  3784G12c H00H70288  10.160   7.192   1.708  1.8747 -1.2890 -0.4162
  3784G12c C01N70289   9.986   7.094   1.732 -0.2885 -0.4058 -1.7248
  3784G12c O00670290   9.933   7.184   1.633 -1.3885  0.7912  1.3025
  3784G12c C01T70291   9.805   7.231   1.657 -0.7467 -0.0362 -1.5620
  3784G12c H00K70292   9.853   7.319   1.615  1.7685 -1.6777 -2.2575
  3784G12c H00J70293   9.766   7.237   1.758  3.4730 -2.0702  0.2873
  3784G12c H00I70294   9.725   7.190   1.595 -0.3932  3.6802 -4.6910
  3784G12c C01M70295   9.917   7.008   1.817  1.2778  0.0462 -1.2884
  3784G12c C02070296   9.856   6.697   2.170  2.3014  0.3198 -0.9748
  3784G12c C02170297   9.723   6.723   2.151  0.2490  0.4556 -0.1823
  3784G12c C01L70298   9.993   6.911   1.910 -2.0018  1.2388 -0.4162
  3784G12c O00770299   9.777   7.029   1.805  2.1062 -1.0461  0.9481
  3784G12c C02270300   9.680   6.796   2.051  1.6296  0.5018 -1.2092
  3784G12c C02370301   9.608   6.652   2.203  1.5570  0.5692  0.6045
  3784G12c C00G70302   9.458   6.448   2.152  2.1321  0.8187  0.3313
  3784G12c C00E70303   9.244   6.329   2.052 -0.2233  0.6353  0.3471
  3784G12c O00A70304   9.195   6.218   2.003 -0.0171  1.2691  0.3190
  3784G12c C02470305   9.285   6.143   1.904 -2.0884  0.1888  0.2725
  3784G12c H00V70306   9.249   6.043   1.881 -3.0844  1.5180 -4.3855
  3784G12c H00U70307   9.381   6.145   1.958 -0.6516 -1.4065 -2.1435
  3784G12c H00T70308   9.287   6.185   1.804  1.0844  3.4839  1.6096
  3794G12c C00D70309   8.992   2.504  12.612 -0.5978 -1.0170 -1.5008
  3794G12c O00B70310   8.935   2.448  12.506 -0.1561  0.3669  0.3892
  3794G12c C02570311   8.848   2.526  12.420 -0.8758 -1.1696 -0.9290
  3794G12c C02670312   8.926   2.562  12.276  1.7693 -0.2013  1.3404
  3794G12c H00Y70313   8.868   2.639  12.226  0.1373 -2.0577  0.3192
  3794G12c H00X70314   8.907   2.460  12.242  1.6429  0.9072 -2.0708
  3794G12c O00C70315   9.058   2.615  12.289 -0.5333  0.3094 -1.0523
  3794G12c H00W70316   9.070   2.658  12.206 -4.9659  2.6185 -0.6353
  3794G12c C02770317   8.719   2.515  12.451 -0.4330  1.5568 -0.8492
  3794G12c O00D70318   8.689   2.479  12.574 -1.4905  0.0614 -0.0428
  3794G12c H00Z70319   8.756   2.418  12.602 -4.0619 -0.5261  5.5716
  3794G12c C02870320   8.628   2.558  12.357  0.5329 -1.3878 -1.5074
  3794G12c C02970321   8.527   2.664  12.377  0.2630 -2.0918 -0.3203
  3794G12c H01070322   8.541   2.703  12.477  1.9607 -4.9821  0.6213
  3794G12c C02T70323   8.435   2.685  12.266 -0.8003 -0.7141 -0.6365
  3794G12c H01O70324   8.356   2.758  12.273 -3.5603 -3.5116 -1.0643
  3794G12c C02S70325   8.441   2.620  12.133  0.7906 -0.5859 -0.0269
  3794G12c O00J70326   8.371   2.654  12.019 -0.2564  0.2212  0.3654
  3794G12c H01P70327   8.333   2.576  11.983 -2.9644  2.3314 -1.6535
  3794G12c C02R70328   8.536   2.508  12.128  1.6801 -0.6810  0.8145
  3794G12c O00I70329   8.524   2.422  12.020  1.0134 -0.3423  0.0838
  3794G12c C02Q70330   8.640   2.366  11.972  0.0580  0.2452  1.6106
  3794G12c H01N70331   8.739   2.410  11.980 -0.5594  2.0731 -0.3886
  3794G12c H01R70332   8.642   2.272  12.028 -2.3815 -0.0218  1.3068
  3794G12c H01Q70333   8.627   2.321  11.874  2.8499 -5.5017  3.5898
  3794G12c C02A70334   8.625   2.481  12.237  1.5219 -2.1267  1.3578
  3794G12c H01170335   8.716   2.421  12.234  3.5234  0.5835 -8.7308
  3794G12c C00C70336   8.988   2.642  12.655  1.2321  0.1631 -2.2240
  3794G12c H01270337   8.906   2.702  12.615  0.0600  0.6910  0.8427
  3794G12c C00B70338   9.068   2.698  12.753  0.6173  1.9655 -0.5938
  3794G12c C00A70339   9.076   2.834  12.808  1.9742 -1.6432 -0.5255
  3794G12c C00970340   9.074   2.951  12.726 -0.5020 -1.2072 -0.5998
  3794G12c C00870341   9.037   2.979  12.592  0.5090  1.0767 -0.9580
  3794G12c H01370342   8.979   2.897  12.551  5.0389 -3.2295  0.7119
  3794G12c C00770343   9.064   3.099  12.522  0.1662 -0.0433 -1.8766
  3794G12c H01470344   9.058   3.130  12.419  4.4271 -7.5869 -4.8438
  3794G12c C00670345   9.162   3.165  12.590  0.3532 -1.4774 -0.2776
  3794G12c C00570346   9.177   3.143  12.732  0.1830 -1.6794  0.0571
  3794G12c C00470347   9.293   3.213  12.788 -1.7953 -0.6510  0.4981
  3794G12c C00370348   9.340   3.172  12.908 -0.8275 -0.3453 -1.3757
  3794G12c C00270349   9.453   3.242  12.959 -0.5126  0.9005  2.4479
  3794G12c C00170350   9.537   3.231  13.076  0.5928 -0.1707 -0.1736
  3794G12c C00M70351   9.589   3.097  13.124  1.5324 -0.1054 -0.6340
  3794G12c C00L70352   9.501   2.977  13.133  3.4322 -1.1088  0.2458
  3794G12c C00R70353   9.549   2.837  13.128 -1.0963 -0.9968  0.0855
  3794G12c C00Q70354   9.677   2.776  13.159 -0.6432 -0.3945  0.6378
  3794G12c C00V70355   9.669   2.630  13.152 -0.9015 -0.1910  1.1193
  3794G12c C00U70356   9.559   2.555  13.100 -1.2487  1.0262 -0.0288
  3794G12c C00T70357   9.447   2.620  13.059  0.7901  0.2418  0.0533
  3794G12c C01670358   9.331   2.563  12.987 -1.4723 -0.6544  0.0616
  3794G12c C01570359   9.319   2.430  12.977  0.6763 -0.2754 -1.4753
  3794G12c C01070360   9.428   2.354  13.043 -0.4995  0.1527 -0.1585
  3794G12c C01170361   9.424   2.198  13.014 -0.5236 -0.8547 -0.0789
  3794G12c H00570362   9.501   2.124  13.028  5.1978  4.6006 -0.4131
  3794G12c C01270363   9.307   2.144  12.950  1.7645  0.5741  0.7279
  3794G12c C01770364   9.253   2.009  12.974 -1.0993  0.5400  0.4699
  3794G12c O00270365   9.162   2.006  13.077 -0.3799  1.1059 -1.4410
  3794G12c H00470366   9.077   2.034  13.048 -0.7671  8.2801  5.0589
  3794G12c C01870367   9.256   1.897  12.893 -0.5798  0.9858  0.3333
  3794G12c O00170368   9.345   1.905  12.789  0.4246 -0.9098 -0.2243
  3794G12c H00370369   9.388   1.830  12.751  0.5134 -3.5241  4.6904
  3794G12c C01970370   9.182   1.762  12.899  0.0131 -0.6393  1.1655
  3794G12c H00270371   9.247   1.694  12.956  0.1243 -5.9716 -4.8019
  3794G12c H00170372   9.095   1.793  12.956 -3.6298 -1.8853 -3.4328
  3794G12c O00070373   9.165   1.716  12.751 -1.2870 -0.1510  0.3219
  3794G12c C01A70374   9.085   1.611  12.715  0.6555  0.4523 -1.0581
  3794G12c C02K70375   9.013   1.629  12.583 -1.6383 -2.1540 -0.0828
  3794G12c O00G70376   9.030   1.744  12.510  0.0222 -0.5390  0.2279
  3794G12c C02M70377   8.928   1.767  12.399 -1.2950  1.2882 -0.1466
  3794G12c H01G70378   8.961   1.701  12.319  4.1062  2.5445  0.8784
  3794G12c H01F70379   8.937   1.873  12.374  4.1995  0.8680 -0.4724
  3794G12c H01E70380   8.842   1.720  12.447  2.4527  2.4535  8.6415
  3794G12c C02J70381   8.942   1.517  12.554  0.2897  1.5774 -2.0923
  3794G12c H01H70382   8.878   1.511  12.467 -0.7506  5.0696 -1.6212
  3794G12c C02I70383   8.933   1.387  12.618 -0.2809 -2.1420 -0.8450
  3794G12c C02N70384   8.863   1.273  12.578 -0.3793 -0.0163  0.3151
  3794G12c H01M70385   8.759   1.274  12.547 -2.6378 -4.1065  6.7475
  3794G12c C02O70386   8.922   1.161  12.601 -0.8130  0.8366  1.4624
  3794G12c H01L70387   9.024   1.159  12.637 -0.8242 -1.0400  1.4438
  3794G12c C02P70388   8.872   1.025  12.566  0.0829  0.4155  1.8159
  3794G12c H01K70389   8.872   0.948  12.643 -2.3942  1.4682  2.9385
  3794G12c H01J70390   8.776   1.027  12.515 -0.5068  5.7877  2.8062
  3794G12c O00H70391   8.967   0.960  12.494 -0.0681  0.5010  0.2465
  3794G12c H01I70392   9.053   0.996  12.512 -1.1936  0.6696  6.5174
  3794G12c C02H70393   9.033   1.381  12.728  1.1242  0.1870 -2.4592
  3794G12c H01C70394   9.044   1.296  12.794 -3.7463  1.3561  0.0301
  3794G12c C02L70395   9.110   1.480  12.766 -0.2414 -0.7761  0.3099
  3794G12c H01D70396   9.165   1.470  12.858 -1.1549 -5.4105  0.4527
  3794G12c C01370397   9.221   2.233  12.885  1.0692 -0.4426 -0.0770
  3794G12c H00070398   9.190   2.149  12.825 -0.2761 -0.9316  1.2777
  3794G12c C01470399   9.226   2.377  12.897  0.2582 -0.4210  0.4110
  3794G12c C00F70400   9.150   2.460  12.817  2.0853  1.3023  0.1695
  3794G12c C00H70401   9.230   2.654  12.936 -0.7102 -1.3144 -1.2323
  3794G12c C00I70402   9.224   2.783  12.991 -0.1760  2.4406 -1.2161
  3794G12c C00J70403   9.328   2.833  13.048  0.3835  1.4828 -1.1102
  3794G12c C00Z70404   9.538   2.420  13.109  0.0797  0.9985 -1.3293
  3794G12c C00Y70405   9.666   2.344  13.111  0.7830 -0.8601 -1.9525
  3794G12c H00670406   9.672   2.237  13.126 -0.8813 -0.8107 -0.8155
  3794G12c C00X70407   9.790   2.417  13.137  0.1103  0.6477  0.8318
  3794G12c O00370408   9.904   2.335  13.110  0.8252  1.6457 -0.6921
  3794G12c C01B70409  10.016   2.402  13.062  1.0520 -0.5276 -0.6326
  3794G12c H00970410  10.083   2.441  13.139 -2.6524  3.6396  0.7187
  3794G12c H00870411   9.996   2.497  13.012 -4.4478 -2.2715 -2.0256
  3794G12c H00770412  10.052   2.345  12.977 -3.3538 -1.0502 -2.2614
  3794G12c C00W70413   9.789   2.562  13.179  0.2677 -0.8293 -0.4235
  3794G12c O00470414   9.909   2.621  13.208  0.2795  0.1609  0.1707
  3794G12c C01C70415   9.920   2.753  13.175 -0.6830 -0.4823 -1.7727
  3794G12c H00A70416  10.017   2.798  13.194 -1.8086  0.7929  1.2726
  3794G12c C00P70417   9.809   2.840  13.169 -0.4310 -0.3946  0.2941
  3794G12c C00O70418   9.824   2.976  13.110 -1.3332  1.0697 -0.4888
  3794G12c C01D70419   9.950   2.998  13.036 -1.3008 -0.9346 -1.0431
  3794G12c H00S70420  10.042   2.943  13.052 -4.5202 -4.8485  6.6500
  3794G12c C01E70421   9.981   3.110  12.959 -0.4519  0.0055  1.2989
  3794G12c O00870422  10.114   3.129  12.920  0.1016  0.2620  0.2257
  3794G12c C01V70423  10.162   3.123  12.781 -0.1189  0.5647  0.4590
  3794G12c C01Z70424  10.304   3.175  12.750 -0.0489  0.7644 -1.0520
  3794G12c H00R70425  10.312   3.217  12.850  1.4604  2.4039 -1.8189
  3794G12c H00Q70426  10.404   3.132  12.761  0.2801  1.3664 -1.6040
  3794G12c O00970427  10.262   3.264  12.655  0.7872  0.5848 -0.7970
  3794G12c H00P70428  10.236   3.213  12.580 -3.7157  4.1547 -1.8426
  3794G12c C01W70429  10.103   3.021  12.705  1.4425  0.7188 -0.0819
  3794G12c H00O70430  10.016   2.965  12.735  1.1915  4.1256  6.4027
  3794G12c C01X70431  10.171   2.972  12.579  1.0517 -0.0088  2.8038
  3794G12c H00N70432  10.280   2.971  12.576  1.0522  0.4385 -3.3715
  3794G12c H00M70433  10.114   2.879  12.583  0.7504 -0.4063 -4.1570
  3794G12c C01Y70434  10.147   3.070  12.452 -2.6733  1.2644  0.0664
  3794G12c C02D70435  10.040   3.163  12.450  0.4666 -0.6173  0.2745
  3794G12c H01970436   9.946   3.153  12.500  0.0966 -5.7778 -1.2340
  3794G12c C02C70437  10.060   3.266  12.354  0.9420  0.5556 -1.1942
  3794G12c H01A70438   9.995   3.349  12.376  0.2812  0.6565 -3.3231
  3794G12c C02B70439  10.163   3.296  12.255  2.3237 -0.4436  0.8978
  3794G12c O00E70440  10.155   3.393  12.168  0.0216  0.0887  0.2301
  3794G12c H01B70441  10.205   3.365  12.093  1.6543 -3.1706  2.3960
  3794G12c C02F70442  10.250   3.176  12.238  0.2602  0.3666 -0.3964
  3794G12c O00F70443  10.351   3.157  12.148  0.5081 -0.3921 -0.9075
  3794G12c C02G70444  10.387   3.254  12.056 -0.8800  1.1073 -0.4751
  3794G12c H01770445  10.373   3.358  12.088 -8.4004  0.4575 -0.6373
  3794G12c H01670446  10.324   3.226  11.971 -2.4050  5.4929 -0.9488
  3794G12c H01570447  10.492   3.231  12.040 -2.4864 -6.3013 -2.0453
  3794G12c C02E70448  10.253   3.087  12.350  2.4422  2.2609  0.1127
  3794G12c H01870449  10.321   3.003  12.350  1.8072  1.6815 -3.4762
  3794G12c C01F70450   9.887   3.208  12.955 -1.7949 -0.0964  0.7155
  3794G12c C01G70451   9.874   3.293  12.843  1.1587 -0.0707 -2.4176
  3794G12c H00L70452   9.910   3.282  12.741 -2.6082 -4.6253 -3.4246
  3794G12c C01H70453   9.758   3.377  12.835  0.7351  0.1566 -1.2543
  3794G12c H00B70454   9.735   3.420  12.738  4.0507 -4.0286 -4.0784
  3794G12c C01I70455   9.651   3.373  12.912  1.3029  1.3382 -1.3283
  3794G12c C01U70456   9.785   3.202  13.054  0.6176  0.2264  0.0976
  3794G12c C00S70457   9.444   2.754  13.076 -1.4004 -1.3466 -0.0755
  3794G12c C00K70458   9.372   2.972  13.069  0.8370  0.1292 -0.1767
  3794G12c C00N70459   9.731   3.076  13.088  0.4405 -1.1644  0.5205
  3794G12c C00070460   9.672   3.290  13.029 -0.3703 -0.3837 -0.1010
  3794G12c C01J70461   9.513   3.346  12.879  0.8694  1.1391  0.9894
  3794G12c C01K70462   9.471   3.389  12.748  0.2685  1.7755 -0.4784
  3794G12c C01P70463   9.517   3.497  12.657  1.6822  2.4763 -0.0561
  3794G12c C01Q70464   9.596   3.606  12.701  1.2657  0.4427  0.3402
  3794G12c H00G70465   9.585   3.628  12.806 -0.6040  0.9774  0.0692
  3794G12c C01R70466   9.705   3.647  12.630 -1.5119 -0.3558  1.4480
  3794G12c H00F70467   9.762   3.728  12.672  0.7145 -0.1483 -1.7907
  3794G12c C01S70468   9.750   3.612  12.477 -0.7217 -0.0624 -0.5578
  3794G12c H00E70469   9.663   3.631  12.413  3.1636  4.3300 -4.9661
  3794G12c H00D70470   9.825   3.690  12.468 -3.4269  2.8528  1.2965
  3794G12c O00570471   9.808   3.493  12.511 -0.9120  0.8846  0.0426
  3794G12c H00C70472   9.899   3.504  12.534  0.1153  0.1532 -3.3421
  3794G12c C01O70473   9.470   3.500  12.528 -0.0681 -2.6238 -2.6530
  3794G12c H00H70474   9.501   3.572  12.454 -1.6956  0.1369 -0.7517
  3794G12c C01N70475   9.387   3.402  12.487 -2.3438  0.4692  1.6504
  3794G12c O00670476   9.363   3.400  12.352 -0.3079  0.2280  0.7704
  3794G12c C01T70477   9.485   3.407  12.266  0.7957 -0.2654  0.7789
  3794G12c H00K70478   9.544   3.494  12.237  4.2543 -2.8865 -0.3743
  3794G12c H00J70479   9.552   3.342  12.323  1.2869 -2.0302 -1.7356
  3794G12c H00I70480   9.465   3.347  12.178 -3.9108  2.8871 -0.4723
  3794G12c C01M70481   9.327   3.321  12.578 -0.1193  1.1007  1.8479
  3794G12c C02070482   9.285   3.054  12.977 -0.8023  1.4499  0.4649
  3794G12c C02170483   9.153   3.009  12.941 -0.5766 -2.0717 -0.4209
  3794G12c C01L70484   9.370   3.302  12.708  0.5583 -1.3391 -1.1234
  3794G12c O00770485   9.240   3.239  12.512  0.4795  0.3925 -0.0930
  3794G12c C02270486   9.101   3.046  12.807 -0.7926 -0.0847 -1.0147
  3794G12c C02370487   9.128   2.871  12.929 -1.2603  0.0764  0.0278
  3794G12c C00G70488   9.142   2.613  12.843 -1.3406 -0.3117 -0.2673
  3794G12c C00E70489   9.074   2.412  12.699 -1.7219 -0.1376  0.6143
  3794G12c O00A70490   9.075   2.290  12.651  0.1732 -0.2226 -0.0567
  3794G12c C02470491   8.955   2.201  12.639  1.9603  0.2320 -1.2481
  3794G12c H00V70492   8.978   2.097  12.660  1.3851  0.3758  0.1606
  3794G12c H00U70493   8.862   2.238  12.683 -0.2184 -4.1139 -1.9020
  3794G12c H00T70494   8.909   2.223  12.542  1.0299 -0.1006 -0.8842
  3804G12c C00D70495  10.186  12.613  11.959 -0.2963 -0.9165 -0.9582
  3804G12c O00B70496  10.251  12.708  11.899 -0.3258  0.6056  0.7440
  3804G12c C02570497  10.285  12.822  11.962  0.4670 -0.7346 -0.9683
  3804G12c C02670498  10.177  12.933  11.952 -1.9147  1.0363  1.0160
  3804G12c H00Y70499  10.223  13.032  11.955  7.0823 -2.7380  4.9298
  3804G12c H00X70500  10.131  12.952  12.050 -0.0466 -0.8688  2.3060
  3804G12c O00C70501  10.104  12.900  11.830 -0.0698 -1.2696  0.8125
  3804G12c H00W70502  10.147  12.826  11.789 -2.7409 -0.6041 -3.4732
  3804G12c C02770503  10.410  12.854  11.997  1.8562  1.3304 -0.0215
  3804G12c O00D70504  10.479  12.740  12.029  0.9068  1.1858  0.4476
  3804G12c H00Z70505  10.437  12.698  11.955 -0.1095  2.7852  0.0813
  3804G12c C02870506  10.466  12.967  12.052  0.9457  1.6659 -0.2427
  3804G12c C02970507  10.606  12.971  12.033 -0.7334 -1.4633  0.1328
  3804G12c H01070508  10.655  12.888  11.985  2.6671 -0.3152  1.4380
  3804G12c C02T70509  10.679  13.096  12.073  1.1820 -2.0583 -0.3058
  3804G12c H01O70510  10.784  13.117  12.082  1.5142 -3.3578 -0.9670
  3804G12c C02S70511  10.607  13.218  12.115  0.4608  0.6249 -0.8828
  3804G12c O00J70512  10.663  13.343  12.128  0.4805 -0.4011  0.1477
  3804G12c H01P70513  10.734  13.352  12.189 -0.8618  2.6800  1.3369
  3804G12c C02R70514  10.475  13.202  12.154  0.8938 -0.7763 -0.1070
  3804G12c O00I70515  10.443  13.285  12.251  0.6247  1.1022 -1.2080
  3804G12c C02Q70516  10.300  13.292  12.288 -1.9551 -0.1125 -1.2409
  3804G12c H01N70517  10.247  13.353  12.215  1.3824  5.6715  0.7797
  3804G12c H01R70518  10.297  13.399  12.309 -1.3256  0.5076 -4.0545
  3804G12c H01Q70519  10.260  13.243  12.376  5.3533 -0.9155  2.0424
  3804G12c C02A70520  10.407  13.074  12.122 -0.4799 -1.8236  0.4848
  3804G12c H01170521  10.309  13.071  12.167  1.4771 -5.4479  5.0131
  3804G12c C00C70522  10.059  12.635  12.005 -0.9068 -1.7092  0.3053
  3804G12c H01270523  10.008  12.702  11.938 -2.2519 -0.5559  2.4061
  3804G12c C00B70524   9.971  12.552  12.075 -1.6547  1.3558 -0.7799
  3804G12c C00A70525   9.837  12.555  12.107  0.1568  1.7475  0.2837
  3804G12c C00970526   9.750  12.674  12.124 -0.7731 -0.3124 -1.2793
  3804G12c C00870527   9.758  12.812  12.086  0.8750 -0.5381  0.3534
  3804G12c H01370528   9.842  12.853  12.031  0.1453  1.6185  0.7751
  3804G12c C00770529   9.638  12.887  12.112  0.2710 -1.2032 -0.3908
  3804G12c H01470530   9.627  12.969  12.043  3.0673  1.4645  2.1795
  3804G12c C00670531   9.531  12.832  12.190  0.6255 -1.0576 -1.2761
  3804G12c C00570532   9.557  12.703  12.240 -0.5722  0.0061 -0.0860
  3804G12c C00470533   9.500  12.663  12.362  0.3697 -0.1802  0.7425
  3804G12c C00370534   9.531  12.529  12.407  0.3084 -1.1435 -1.5649
  3804G12c C00270535   9.461  12.476  12.533  2.8939  0.0168 -0.9981
  3804G12c C00170536   9.459  12.352  12.614 -0.1137 -0.8112  1.9257
  3804G12c C00M70537   9.594  12.296  12.653 -0.6264  1.6822  0.9783
  3804G12c C00L70538   9.688  12.283  12.544 -0.3649 -0.4070 -0.1182
  3804G12c C00R70539   9.815  12.219  12.572  0.3619  0.3479  0.7000
  3804G12c C00Q70540   9.883  12.159  12.683 -0.7886 -0.7322 -0.9157
  3804G12c C00V70541  10.019  12.121  12.654  2.2345 -2.7845 -0.0676
  3804G12c C00U70542  10.064  12.136  12.516  1.7234 -1.7791 -1.6501
  3804G12c C00T70543  10.002  12.202  12.425 -0.1942  0.6075 -0.1334
  3804G12c C01670544  10.054  12.252  12.303  0.8441 -1.7740  0.5042
  3804G12c C01570545  10.177  12.234  12.280  0.8820  0.5579  0.1590
  3804G12c C01070546  10.256  12.159  12.374 -1.3634  0.9741  0.4765
  3804G12c C01170547  10.393  12.123  12.327  0.4006 -0.2872  0.3962
  3804G12c H00570548  10.408  12.026  12.373 -1.1433 -2.2286 -2.9806
  3804G12c C01270549  10.444  12.168  12.197  0.1644 -1.0602  0.7941
  3804G12c C01770550  10.545  12.082  12.128  0.9717  0.3233  0.3336
  3804G12c O00270551  10.510  11.944  12.127  2.1931  0.1621 -0.0301
  3804G12c H00470552  10.562  11.925  12.203  3.2883 -2.4366 -1.3705
  3804G12c C01870553  10.666  12.143  12.090 -1.6009 -0.5155 -2.0626
  3804G12c O00170554  10.659  12.288  12.102 -0.5268  0.4802 -0.1226
  3804G12c H00370555  10.576  12.326  12.125 -2.0229  0.2238 -4.7334
  3804G12c C01970556  10.792  12.067  12.028  0.3554 -1.5773 -0.3675
  3804G12c H00270557  10.735  12.032  11.942 -1.7717  5.9115 -2.3970
  3804G12c H00170558  10.888  12.107  11.995 -0.2703 -2.9264 -3.9884
  3804G12c O00070559  10.807  11.962  12.112  0.2797  0.2172  0.8330
  3804G12c C01A70560  10.874  11.985  12.223 -0.6053  1.4212 -0.4192
  3804G12c C02K70561  10.832  11.902  12.328 -0.9110 -1.0601 -1.7611
  3804G12c O00G70562  10.722  11.813  12.306 -0.0170 -1.0244  1.2563
  3804G12c C02M70563  10.732  11.686  12.382 -1.1133  1.0225  1.0263
  3804G12c H01G70564  10.835  11.691  12.418 -0.5568  0.4800 -0.4789
  3804G12c H01F70565  10.744  11.595  12.324 -1.8532  0.9134  1.0438
  3804G12c H01E70566  10.677  11.634  12.461 -1.3638 -0.2426  0.0341
  3804G12c C02J70567  10.874  11.922  12.457 -1.2602  0.4817 -1.1697
  3804G12c H01H70568  10.850  11.865  12.545 -1.9590  0.0546 -1.6279
  3804G12c C02I70569  11.006  11.984  12.474  1.2641 -0.6458  0.8976
  3804G12c C02N70570  11.038  12.013  12.602 -0.1281  0.0060 -0.3171
  3804G12c H01M70571  10.962  12.039  12.675  1.3147  4.2475 -0.2189
  3804G12c C02O70572  11.163  12.006  12.640 -0.0387 -0.5423  0.8959
  3804G12c H01L70573  11.246  11.991  12.573  1.1633  0.2265  2.1650
  3804G12c C02P70574  11.209  12.050  12.784  1.5410 -0.1479  0.5490
  3804G12c H01K70575  11.265  12.143  12.782 -3.9029  3.3100 -1.8391
  3804G12c H01J70576  11.113  12.096  12.806  2.0122  2.2595 -2.1934
  3804G12c O00H70577  11.255  11.925  12.844 -1.3534  0.1324 -0.2279
  3804G12c H01I70578  11.191  11.875  12.795  3.4036 -4.2957 -2.4063
  3804G12c C02H70579  11.065  12.049  12.369  0.1325 -0.1524  1.4943
  3804G12c H01C70580  11.146  12.113  12.401 -0.6490  2.2969 -1.2869
  3804G12c C02L70581  10.996  12.056  12.243 -0.3579 -0.2334  0.0085
  3804G12c H01D70582  11.037  12.116  12.163 -3.9621 -0.9983 -2.5402
  3804G12c C01370583  10.376  12.271  12.123 -1.0487 -0.5779  0.2938
  3804G12c H00070584  10.415  12.279  12.022 -0.0164  1.2653  0.8109
  3804G12c C01470585  10.234  12.290  12.156 -2.3257 -1.2267  1.8063
  3804G12c C00F70586  10.172  12.394  12.087 -0.8133 -0.3961  1.5569
  3804G12c C00H70587   9.985  12.342  12.221  1.2705  0.9293 -0.1323
  3804G12c C00I70588   9.858  12.364  12.250 -0.0921 -0.5245 -0.4989
  3804G12c C00J70589   9.806  12.292  12.365  0.2926 -0.2116 -0.3075
  3804G12c C00Z70590  10.196  12.102  12.491 -0.1254  1.4347 -0.5849
  3804G12c C00Y70591  10.286  12.049  12.587  0.0448  0.6642 -0.9030
  3804G12c H00670592  10.388  12.029  12.558  0.1398  3.4458 -2.7191
  3804G12c C00X70593  10.242  12.019  12.719  2.5387  1.6321  0.5707
  3804G12c O00370594  10.302  11.931  12.806 -0.7466 -1.0750  0.8172
  3804G12c C01B70595  10.447  11.956  12.833  1.1591 -0.4793 -0.9983
  3804G12c H00970596  10.449  12.052  12.782 -0.3066  1.3815  2.2842
  3804G12c H00870597  10.508  11.873  12.797  5.6262  0.4489  3.7156
  3804G12c H00770598  10.474  11.968  12.938  3.1144  7.7169 -2.1522
  3804G12c C00W70599  10.110  12.060  12.744  1.4477  0.5414  1.4803
  3804G12c O00470600  10.042  12.036  12.867 -0.4528  1.0117 -0.7716
  3804G12c C01C70601   9.932  12.083  12.913  1.2979 -0.7262 -1.0382
  3804G12c H00A70602   9.947  12.124  13.011  3.4831  0.4525 -1.8290
  3804G12c C00P70603   9.847  12.167  12.817  1.3220  2.1014 -1.2291
  3804G12c C00O70604   9.747  12.263  12.870 -0.6932 -1.5942 -1.3557
  3804G12c C01D70605   9.745  12.317  13.009  0.4750  1.8692  0.6461
  3804G12c H00S70606   9.828  12.276  13.065 -0.1460  1.4759  1.2919
  3804G12c C01E70607   9.689  12.433  13.028 -0.6754 -0.3845  0.9238
  3804G12c O00870608   9.733  12.517  13.130  0.5103  0.0699  0.7855
  3804G12c C01V70609   9.864  12.527  13.184  0.9903  0.0156  1.8448
  3804G12c C01Z70610   9.846  12.516  13.329  0.3854  0.1064 -0.2576
  3804G12c H00R70611   9.893  12.607  13.366 -2.2256  0.0244  3.6107
  3804G12c H00Q70612   9.739  12.531  13.348  1.7366  5.5972  4.4324
  3804G12c O00970613   9.909  12.413  13.425 -0.3406 -0.6319  0.6792
  3804G12c H00P70614   9.877  12.337  13.378  4.5045 -1.2519 -1.9296
  3804G12c C01W70615   9.966  12.571  13.106 -0.6228 -0.2153 -1.1995
  3804G12c H00O70616  10.053  12.592  13.167 -0.4972  7.3763 -3.4670
  3804G12c C01X70617   9.950  12.648  12.973  0.6195 -0.9773  0.0663
  3804G12c H00N70618   9.852  12.642  12.924 -0.0765  1.1527  1.1063
  3804G12c H00M70619   9.934  12.738  13.032  1.7242 -0.0057 -1.0829
  3804G12c C01Y70620  10.082  12.666  12.905 -0.0178 -1.7863 -0.1490
  3804G12c C02D70621  10.203  12.691  12.981  1.1639 -0.1770  1.1327
  3804G12c H01970622  10.197  12.695  13.088 -1.3212 -4.6096  1.2438
  3804G12c C02C70623  10.311  12.741  12.899 -2.3324  0.3787 -1.0608
  3804G12c H01A70624  10.371  12.817  12.948 -3.7112  1.6372 -1.2751
  3804G12c C02B70625  10.306  12.733  12.760 -0.2172  0.2416  0.3142
  3804G12c O00E70626  10.397  12.795  12.671  1.8430 -2.5916 -0.3537
  3804G12c H01B70627  10.418  12.739  12.598  3.3865 -2.2522 -0.1909
  3804G12c C02F70628  10.187  12.673  12.696 -0.4202  1.1288  1.1649
  3804G12c O00F70629  10.184  12.685  12.553 -0.4413  0.1197  1.1485
  3804G12c C02G70630  10.110  12.600  12.486  1.5976 -1.1887  0.2553
  3804G12c H01770631  10.006  12.626  12.506  1.0258 -2.1386 -1.3626
  3804G12c H01670632  10.110  12.493  12.505 -4.3910 -2.3217 -4.6199
  3804G12c H01570633  10.112  12.597  12.377 -1.4877  3.0875 -0.0470
  3804G12c C02E70634  10.065  12.643  12.768  1.6068 -0.0718  1.5091
  3804G12c H01870635   9.963  12.631  12.735  1.2452 -1.0654  2.9143
  3804G12c C01F70636   9.565  12.451  12.954  1.0591 -1.6855 -0.1377
  3804G12c C01G70637   9.492  12.569  12.971 -0.9925  0.6839  1.1360
  3804G12c H00L70638   9.493  12.646  13.047  3.3882  2.5635 -0.6547
  3804G12c C01H70639   9.411  12.611  12.860  0.7231 -1.1060  0.9859
  3804G12c H00B70640   9.378  12.712  12.876  0.4390  0.1412 -5.8615
  3804G12c C01I70641   9.404  12.533  12.734  0.5139  0.3321 -1.6833
  3804G12c C01U70642   9.519  12.364  12.851  0.1488 -0.8079 -1.3287
  3804G12c C00S70643   9.872  12.219  12.448  0.1396 -0.2464 -0.2558
  3804G12c C00K70644   9.679  12.335  12.417 -0.4232  0.8476  1.2625
  3804G12c C00N70645   9.631  12.301  12.792  0.2241 -0.4871 -0.1502
  3804G12c C00070646   9.424  12.394  12.749 -0.2182  0.9863 -0.9348
  3804G12c C01J70647   9.408  12.581  12.612 -0.3737 -0.2508 -0.4077
  3804G12c C01K70648   9.342  12.698  12.558 -1.1472 -0.1590 -0.5160
  3804G12c C01P70649   9.246  12.794  12.612  0.0185 -0.3132  0.1575
  3804G12c C01Q70650   9.158  12.751  12.707 -1.6487  2.2107 -1.0802
  3804G12c H00G70651   9.173  12.724  12.811 -1.4065  5.2982 -0.2779
  3804G12c C01R70652   9.043  12.701  12.665  0.9136 -0.9005  1.2336
  3804G12c H00F70653   9.000  12.719  12.568 -7.3634  1.4916  4.8766
  3804G12c C01S70654   8.934  12.669  12.767  0.4891  0.0663 -0.0564
  3804G12c H00E70655   8.854  12.639  12.699  1.9986  1.7850 -2.6673
  3804G12c H00D70656   8.954  12.605  12.852 -3.7450  0.8058  1.6477
  3804G12c O00570657   8.862  12.776  12.814 -1.1795  0.8568  0.3371
  3804G12c H00C70658   8.882  12.852  12.762 -0.4008 -0.9020 -1.9913
  3804G12c C01O70659   9.233  12.924  12.550  1.2760 -1.2994  1.9523
  3804G12c H00H70660   9.155  12.978  12.602  1.9293 -5.7508  8.1395
  3804G12c C01N70661   9.294  12.951  12.430  0.3222 -1.1433  0.2250
  3804G12c O00670662   9.288  13.061  12.361  0.6014 -1.5474 -1.1047
  3804G12c C01T70663   9.177  13.050  12.270  1.7620 -1.5321 -0.4403
  3804G12c H00K70664   9.200  13.003  12.174 -1.3131 -1.2711 -1.3761
  3804G12c H00J70665   9.071  13.033  12.291 -0.6060  3.5754 -6.2909
  3804G12c H00I70666   9.181  13.150  12.225 -6.9929 -2.6327 -4.7364
  3804G12c C01M70667   9.371  12.853  12.359 -0.5170  0.4504 -0.7904
  3804G12c C02070668   9.612  12.437  12.345 -0.6525  1.3518 -0.1024
  3804G12c C02170669   9.658  12.483  12.228  0.8281 -1.6228  0.1092
  3804G12c C01L70670   9.405  12.731  12.434 -0.4316 -1.1746  0.4867
  3804G12c O00770671   9.422  12.901  12.237 -1.4993  0.4431 -0.7604
  3804G12c C02270672   9.637  12.618  12.182 -0.7460 -1.3025  0.1289
  3804G12c C02370673   9.793  12.463  12.185 -0.3481 -0.6045  1.9488
  3804G12c C00G70674  10.044  12.425  12.124  3.4955  0.1673 -0.8268
  3804G12c C00E70675  10.237  12.487  11.987  0.5475  0.0409  0.1691
  3804G12c O00A70676  10.365  12.466  11.939 -0.8018 -1.0728 -0.4581
  3804G12c C02470677  10.403  12.465  11.789 -0.2991 -0.5065  0.8716
  3804G12c H00V70678  10.331  12.392  11.752 -0.5549 -2.0678  4.2187
  3804G12c H00U70679  10.397  12.556  11.730 -0.8864  0.2477  2.0729
  3804G12c H00T70680  10.499  12.423  11.758 -2.0758 -2.9516 -1.5147
  3814G12c C00D70681  11.380  12.158   1.242  0.6008 -0.0638  0.9723
  3814G12c O00B70682  11.467  12.269   1.262 -0.4966 -0.8708  0.1945
  3814G12c C02570683  11.435  12.387   1.313  0.8638  1.1995 -0.0012
  3814G12c C02670684  11.463  12.413   1.458  0.5125  0.7992 -1.3039
  3814G12c H00Y70685  11.412  12.345   1.526  2.4583  2.1117  1.5672
  3814G12c H00X70686  11.455  12.516   1.491 -1.7069 -2.3415 10.2064
  3814G12c O00C70687  11.578  12.356   1.470  1.0948  0.6198  0.1001
  3814G12c H00W70688  11.561  12.269   1.502 -1.8716  0.6837 -1.1426
  3814G12c C02770689  11.385  12.486   1.235  1.9075 -0.4045  1.3730
  3814G12c O00D70690  11.359  12.456   1.103  0.5062  0.0824  0.7058
  3814G12c H00Z70691  11.429  12.398   1.075  3.3663  5.4886 -4.6223
  3814G12c C02870692  11.315  12.606   1.293  0.5481  0.8695 -0.8798
  3814G12c C02970693  11.176  12.648   1.295  0.1259 -0.2030 -2.7025
  3814G12c H01070694  11.117  12.560   1.315 -0.5372  0.8104 -0.0515
  3814G12c C02T70695  11.121  12.795   1.315 -1.6561 -1.5736 -1.6496
  3814G12c H01O70696  11.023  12.834   1.338 -0.7731  2.4341 -4.0834
  3814G12c C02S70697  11.223  12.901   1.310 -0.9243  1.4532 -0.5719
  3814G12c O00J70698  11.192  13.030   1.319  0.9336  0.8701  0.8114
  3814G12c H01P70699  11.255  13.081   1.369 -1.4708 -0.2772  5.3317
  3814G12c C02R70700  11.352  12.857   1.297  1.9907  0.7698  1.5844
  3814G12c O00I70701  11.447  12.952   1.286  0.6164  1.2036 -0.1881
  3814G12c C02Q70702  11.539  12.943   1.173  1.9074 -0.5520 -2.3964
  3814G12c H01N70703  11.530  13.040   1.124 -7.0548 -1.0414 -2.4510
  3814G12c H01R70704  11.618  12.875   1.205 -1.4961 -1.7833  4.2502
  3814G12c H01Q70705  11.522  12.898   1.075  3.0316 -6.2722 -0.2089
  3814G12c C02A70706  11.401  12.722   1.307  0.1309  0.2207  0.4155
  3814G12c H01170707  11.504  12.704   1.279 -0.7224 -6.6722  0.9972
  3814G12c C00C70708  11.245  12.171   1.205  1.2771  0.2915 -0.6938
  3814G12c H01270709  11.224  12.276   1.222 -1.4711 -0.8780  3.8095
  3814G12c C00B70710  11.211  12.090   1.094 -0.6988 -0.2759  0.3380
  3814G12c C00A70711  11.110  12.103   0.992 -1.3424 -0.3929  0.5403
  3814G12c C00970712  11.009  12.207   0.963 -0.4030  0.6382  2.0775
  3814G12c C00870713  10.968  12.332   1.008 -0.2086  1.9461  2.5418
  3814G12c H01370714  11.031  12.324   1.094  5.0927  1.1306 -1.1871
  3814G12c C00770715  10.831  12.372   0.991 -0.8183  0.1382 -0.5262
  3814G12c H01470716  10.791  12.472   1.002  3.1599  1.4757  3.6096
  3814G12c C00670717  10.742  12.303   0.910 -1.4982  0.5218  0.1674
  3814G12c C00570718  10.792  12.185   0.861 -0.6957 -0.4085 -0.2802
  3814G12c C00470719  10.701  12.090   0.805 -1.4270 -0.4766  0.0669
  3814G12c C00370720  10.750  11.967   0.776 -0.4780  0.1351  0.9477
  3814G12c C00270721  10.650  11.876   0.750  1.4854 -0.7916  0.8331
  3814G12c C00170722  10.662  11.752   0.702  0.4325  1.3140  0.3262
  3814G12c C00M70723  10.742  11.633   0.754  0.9113 -0.4610 -0.5690
  3814G12c C00L70724  10.851  11.647   0.834  0.7412 -0.5459  0.6746
  3814G12c C00R70725  10.919  11.569   0.914  1.0898 -0.5113 -1.3080
  3814G12c C00Q70726  10.902  11.438   0.956  0.2783 -0.4193 -0.3173
  3814G12c C00V70727  10.988  11.411   1.060 -0.0211  1.0122 -0.0956
  3814G12c C00U70728  11.085  11.503   1.121  2.4826  1.0184  0.4819
  3814G12c C00T70729  11.102  11.625   1.062 -0.4906 -0.8124 -0.9798
  3814G12c C01670730  11.189  11.730   1.104 -0.3515  0.0821  1.3749
  3814G12c C01570731  11.262  11.698   1.211 -1.5444  0.3105 -0.1465
  3814G12c C01070732  11.247  11.571   1.279  0.0116 -0.4073 -0.5474
  3814G12c C01170733  11.337  11.544   1.385 -1.7708 -0.7404  0.4594
  3814G12c H00570734  11.325  11.449   1.435  3.8164  1.1408  6.1094
  3814G12c C01270735  11.442  11.634   1.411 -0.6307 -0.4236 -2.6287
  3814G12c C01770736  11.543  11.587   1.509  0.2308 -0.9573 -0.6699
  3814G12c O00270737  11.599  11.680   1.605  0.1520 -0.4147  1.1811
  3814G12c H00470738  11.559  11.765   1.607 -2.8484 -1.6035 -2.4898
  3814G12c C01870739  11.631  11.480   1.459  1.0145  0.3905  0.0004
  3814G12c O00170740  11.590  11.411   1.335  1.2435  0.0504 -0.3929
  3814G12c H00370741  11.670  11.384   1.293  1.1565  5.3613 -4.3334
  3814G12c C01970742  11.757  11.467   1.537  0.9386 -0.8207 -0.4407
  3814G12c H00270743  11.759  11.532   1.624 -4.5166 -2.4544  1.0716
  3814G12c H00170744  11.755  11.367   1.581  2.2367 -1.2618 -1.3279
  3814G12c O00070745  11.865  11.477   1.434 -0.8049 -0.9670  1.0691
  3814G12c C01A70746  11.980  11.487   1.499  1.7628 -2.7665  0.7192
  3814G12c C02K70747  12.059  11.364   1.526  0.3805 -1.7447 -0.4016
  3814G12c O00G70748  12.006  11.260   1.456 -1.1617 -0.5172 -0.8032
  3814G12c C02M70749  12.046  11.250   1.328 -0.8579  2.2764 -0.0340
  3814G12c H01G70750  11.958  11.253   1.265 -0.8660  5.1721  0.0537
  3814G12c H01F70751  12.076  11.145   1.323  0.5270  2.7924 -4.5206
  3814G12c H01E70752  12.128  11.288   1.267 -1.5660  4.6070  0.4125
  3814G12c C02J70753  12.100  11.356   1.657  2.3730 -0.8231 -1.3515
  3814G12c H01H70754  12.114  11.263   1.709  3.0022  0.7264  1.3171
  3814G12c C02I70755  12.132  11.470   1.731 -0.5143  0.7282 -0.1417
  3814G12c C02N70756  12.222  11.480   1.838 -1.0909 -1.4810  0.4614
  3814G12c H01M70757  12.178  11.492   1.936  0.7256 -1.4563  1.2973
  3814G12c C02O70758  12.346  11.491   1.814 -1.1395  0.3728 -0.7925
  3814G12c H01L70759  12.399  11.484   1.720  2.0208  2.1270  0.7684
  3814G12c C02P70760  12.441  11.503   1.938  0.0491 -0.0662  1.3787
  3814G12c H01K70761  12.511  11.419   1.937  0.6365  0.4145 -0.9017
  3814G12c H01J70762  12.513  11.584   1.934  0.0584 -0.1624 -1.7170
  3814G12c O00H70763  12.372  11.509   2.069  0.2958 -0.4305 -0.7927
  3814G12c H01I70764  12.280  11.529   2.059  0.8563  2.5983 -0.3340
  3814G12c C02H70765  12.057  11.589   1.686  0.4156 -1.2643 -0.6901
  3814G12c H01C70766  12.069  11.693   1.714  1.8358 -1.9246  1.2427
  3814G12c C02L70767  11.989  11.602   1.558 -1.9806 -1.3667  1.2874
  3814G12c H01D70768  11.943  11.698   1.536  3.8297  1.5147  0.7161
  3814G12c C01370769  11.440  11.766   1.365  0.9822 -0.6620  0.9342
  3814G12c H00070770  11.496  11.850   1.404 -4.9448  3.4183  1.4229
  3814G12c C01470771  11.349  11.801   1.256 -1.0886 -0.0661 -0.9415
  3814G12c C00F70772  11.354  11.926   1.194 -0.1228 -0.5496  1.1554
  3814G12c C00H70773  11.174  11.858   1.057  1.4842 -0.8503  0.6518
  3814G12c C00I70774  11.102  11.870   0.936  0.9943 -2.4156 -1.1586
  3814G12c C00J70775  11.038  11.763   0.879 -1.6490 -2.3376 -1.9544
  3814G12c C00Z70776  11.164  11.474   1.236  1.1396  0.6715 -0.0483
  3814G12c C00Y70777  11.151  11.344   1.278 -1.2265  1.2738 -0.5207
  3814G12c H00670778  11.206  11.304   1.362  1.4026  4.1899 -0.7463
  3814G12c C00X70779  11.076  11.239   1.205  0.1759 -0.6111 -0.7047
  3814G12c O00370780  11.073  11.113   1.242  0.0234  0.6622  1.1522
  3814G12c C01B70781  11.072  11.057   1.364  1.2296  0.4688  0.7945
  3814G12c H00970782  10.975  11.100   1.389  2.1647  7.0917 -4.9966
  3814G12c H00870783  11.164  11.089   1.412  2.6092  3.7432 -3.6079
  3814G12c H00770784  11.060  10.950   1.380  2.8638  0.7991  4.5980
  3814G12c C00W70785  11.000  11.270   1.088 -1.1072 -0.7929  1.7796
  3814G12c O00470786  10.916  11.178   1.032 -1.8578 -0.2503  0.4307
  3814G12c C01C70787  10.823  11.207   0.941 -0.2026 -0.2705 -0.0578
  3814G12c H00A70788  10.801  11.155   0.849  1.5776  1.1899 -1.3462
  3814G12c C00P70789  10.788  11.349   0.929 -0.7308  0.7808  0.5657
  3814G12c C00O70790  10.670  11.412   0.877 -0.0112  0.5288 -1.0248
  3814G12c C01D70791  10.545  11.343   0.906  0.4986 -1.2200 -1.1307
  3814G12c H00S70792  10.550  11.272   0.987 -7.3902 -4.2656 -2.8400
  3814G12c C01E70793  10.413  11.394   0.880 -0.5409 -0.0533  1.3618
  3814G12c O00870794  10.289  11.336   0.893 -0.3189  0.1268 -0.3413
  3814G12c C01V70795  10.243  11.274   0.774 -0.6677  0.8200  1.2601
  3814G12c C01Z70796  10.105  11.249   0.784 -0.1470  0.1239  0.9977
  3814G12c H00R70797  10.085  11.224   0.888 -7.0798 -0.8339 -0.2834
  3814G12c H00Q70798  10.068  11.352   0.778  5.1992  2.0334 -2.6327
  3814G12c O00970799  10.036  11.138   0.739 -0.1782  1.4550 -0.5317
  3814G12c H00P70800  10.087  11.067   0.774 -2.7351  0.0236  0.4151
  3814G12c C01W70801  10.312  11.259   0.666  0.8920  0.3145 -0.4910
  3814G12c H00O70802  10.416  11.285   0.667  0.5670  2.1717 -4.8736
  3814G12c C01X70803  10.258  11.187   0.537 -0.7517 -0.1117  1.7224
  3814G12c H00N70804  10.306  11.239   0.454 -0.2975 -3.6286 -0.2773
  3814G12c H00M70805  10.153  11.194   0.507 -1.3375 -7.2265  1.2940
  3814G12c C01Y70806  10.289  11.044   0.548  0.3334 -1.0737  1.4220
  3814G12c C02D70807  10.418  10.999   0.589 -0.1890 -0.2851 -0.2070
  3814G12c H01970808  10.494  11.075   0.584  3.2165 -3.6945 -5.1815
  3814G12c C02C70809  10.432  10.869   0.652 -0.2917 -0.7204 -0.0669
  3814G12c H01A70810  10.515  10.851   0.718  1.0472 -0.1579 -1.5778
  3814G12c C02B70811  10.357  10.776   0.610  1.2242  0.8579 -1.9828
  3814G12c O00E70812  10.363  10.643   0.640 -0.0269  0.4024  0.3429
  3814G12c H01B70813  10.339  10.596   0.561 -0.5971  0.8607  0.2393
  3814G12c C02F70814  10.226  10.808   0.548 -0.7164  0.4104 -0.1469
  3814G12c O00F70815  10.121  10.716   0.522 -0.2096 -0.1357 -1.2019
  3814G12c C02G70816  10.068  10.664   0.654 -0.2498 -1.4238  0.3276
  3814G12c H01770817   9.999  10.585   0.624  1.2467 -4.4522  4.4323
  3814G12c H01670818   9.991  10.719   0.708  3.6307  3.2958  1.3169
  3814G12c H01570819  10.144  10.646   0.730 -1.8545  2.8883  3.0856
  3814G12c C02E70820  10.205  10.945   0.536 -0.8740 -0.8757  0.7361
  3814G12c H01870821  10.102  10.955   0.505 -0.0722 -2.3757 -2.6707
  3814G12c C01F70822  10.421  11.526   0.837 -0.1741  0.6895  0.0367
  3814G12c C01G70823  10.303  11.609   0.836 -0.3436 -1.3912 -0.0973
  3814G12c H00L70824  10.225  11.580   0.905 -2.7631  6.3584  0.8749
  3814G12c C01H70825  10.297  11.752   0.786 -0.5168 -0.5546 -0.2319
  3814G12c H00B70826  10.213  11.810   0.752 -1.8642 -1.1468  1.9831
  3814G12c C01I70827  10.433  11.793   0.737  0.0866  1.2530 -1.0585
  3814G12c C01U70828  10.535  11.576   0.768  0.5424  1.7169 -1.0430
  3814G12c C00S70829  11.014  11.648   0.949 -1.0843  0.2017 -1.8648
  3814G12c C00K70830  10.912  11.787   0.821 -1.3756  0.6297 -0.0425
  3814G12c C00N70831  10.654  11.530   0.796 -0.3698  0.7822 -0.0847
  3814G12c C00070832  10.531  11.698   0.709 -0.9387  0.3617  0.7655
  3814G12c C01J70833  10.514  11.914   0.755 -0.7570 -0.5073  0.2305
  3814G12c C01K70834  10.450  12.047   0.783 -0.4895  0.3751 -0.6409
  3814G12c C01P70835  10.316  12.102   0.802 -0.3992  0.0451 -0.0786
  3814G12c C01Q70836  10.194  12.039   0.755 -1.2908  0.7526 -1.2536
  3814G12c H00G70837  10.172  11.989   0.662 -1.9242  1.3819 -1.4406
  3814G12c C01R70838  10.063  12.063   0.797  0.9348 -0.1596  1.1886
  3814G12c H00F70839  10.046  12.117   0.889 -2.8810 -4.0414  2.9328
  3814G12c C01S70840   9.925  12.021   0.735 -0.0514 -0.3599  0.1180
  3814G12c H00E70841   9.931  11.912   0.726 -4.4161 -0.5140 -2.8077
  3814G12c H00D70842   9.844  12.077   0.781 -0.9728  0.5494 -2.5457
  3814G12c O00570843   9.934  12.051   0.597 -0.6084  0.7648 -0.4527
  3814G12c H00C70844   9.856  12.024   0.549 -0.7965 -2.1915  1.4172
  3814G12c C01O70845  10.299  12.228   0.827  2.0807 -0.4946 -0.6072
  3814G12c H00H70846  10.198  12.260   0.847  2.4752  0.1865  0.2906
  3814G12c C01N70847  10.408  12.308   0.845  0.0671  0.7427  0.2499
  3814G12c O00670848  10.386  12.435   0.874 -1.2526 -0.2053  0.7972
  3814G12c C01T70849  10.419  12.525   0.767 -1.1879  0.3106  0.8279
  3814G12c H00K70850  10.514  12.577   0.784 -1.5227  2.5119 -3.4953
  3814G12c H00J70851  10.432  12.472   0.672  1.5635 -1.6116  2.2066
  3814G12c H00I70852  10.350  12.609   0.759 -0.2651  1.4474  3.9989
  3814G12c C01M70853  10.536  12.251   0.852 -0.0128  0.5411  0.4054
  3814G12c C02070854  10.889  11.924   0.784 -2.5463  1.3354 -0.1189
  3814G12c C02170855  10.980  12.039   0.806  1.3568  1.4943 -0.4717
  3814G12c C01L70856  10.557  12.127   0.807 -0.0475  0.8775  0.3731
  3814G12c O00770857  10.627  12.354   0.863 -0.4474  0.7520  0.0278
  3814G12c C02270858  10.929  12.157   0.861  0.0172 -1.0138 -0.2207
  3814G12c C02370859  11.094  12.005   0.892 -0.7166  0.3461  0.6127
  3814G12c C00G70860  11.252  11.954   1.101  0.3215 -0.2485 -0.4925
  3814G12c C00E70861  11.435  12.035   1.215 -3.5632  0.5811 -0.9884
  3814G12c O00A70862  11.569  12.025   1.253 -0.4109 -0.1764 -1.6195
  3814G12c C02470863  11.659  11.956   1.168 -2.0240 -0.1325  2.0762
  3814G12c H00V70864  11.646  11.855   1.129 -1.3924 -1.6992  5.7140
  3814G12c H00U70865  11.746  11.983   1.228  2.2788 -4.2532 -1.8939
  3814G12c H00T70866  11.675  12.030   1.089  8.8288  4.2368  7.3180
  3824G12c C00D70867   0.470   3.082   9.629  0.0128  0.2694 -1.4654
  3824G12c O00B70868   0.565   3.119   9.728  0.0265  0.9705  1.5589
  3824G12c C02570869   0.537   3.213   9.815 -0.1491  0.6710 -0.1652
  3824G12c C02670870   0.505   3.149   9.947 -2.2670 -0.8534  0.0953
  3824G12c H00Y70871   0.569   3.208  10.013  1.5309  6.5099 -9.0395
  3824G12c H00X70872   0.538   3.047   9.933  4.4774 -0.1024  7.2395
  3824G12c O00C70873   0.386   3.209   9.969 -0.1647  0.2815 -0.4717
  3824G12c H00W70874   0.390   3.296  10.007 -1.2689 -0.9267  2.6049
  3824G12c C02770875   0.572   3.341   9.795  1.4762 -1.2495  0.1531
  3824G12c O00D70876   0.654   3.369   9.691 -0.4900  1.3232 -0.9177
  3824G12c H00Z70877   0.628   3.316   9.617  0.3248 -4.7487  2.7792
  3824G12c C02870878   0.576   3.436   9.908  1.9208  0.7491 -0.7479
  3824G12c C02970879   0.499   3.556   9.907  0.6457  1.5648 -0.4323
  3824G12c H01070880   0.417   3.562   9.838  2.3021  1.2790 -2.4820
  3824G12c C02T70881   0.525   3.655  10.005  0.7305 -2.0601  1.5995
  3824G12c H01O70882   0.502   3.759   9.990  4.5194 -1.4103 -0.3101
  3824G12c C02S70883   0.619   3.631  10.113 -1.8170  0.0590  0.4878
  3824G12c O00J70884   0.648   3.731  10.178 -0.3213 -0.1904  0.1997
  3824G12c H01P70885   0.730   3.692  10.203 -2.5929 -2.5501  4.4472
  3824G12c C02R70886   0.706   3.522  10.093  0.8631  0.9869 -0.0067
  3824G12c O00I70887   0.806   3.483  10.180  0.2372  1.5592 -0.9722
  3824G12c C02Q70888   0.929   3.533  10.150 -0.8384  0.4363 -0.1932
  3824G12c H01N70889   0.974   3.475  10.069 -0.5024 -0.5190  0.6724
  3824G12c H01R70890   0.933   3.634  10.109 -3.1907  1.8705  2.9408
  3824G12c H01Q70891   1.006   3.538  10.227  2.8575 -0.1286 -3.6656
  3824G12c C02A70892   0.693   3.422   9.988  0.9791  0.5526 -3.6108
  3824G12c H01170893   0.744   3.328   9.978  0.0715 -0.2370 -1.1865
  3824G12c C00C70894   0.339   3.128   9.610  0.0924 -0.0528 -0.3561
  3824G12c H01270895   0.292   3.180   9.692 -1.8398 -2.6412  0.2610
  3824G12c C00B70896   0.248   3.079   9.529 -0.5047  0.9940  1.2401
  3824G12c C00A70897   0.111   3.112   9.515 -0.0012  1.1732 -0.4331
  3824G12c C00970898   0.012   3.183   9.591  0.9428 -0.3337 -1.0951
  3824G12c C00870899  -0.014   3.190   9.728 -1.8057  1.2754 -0.0895
  3824G12c H01370900   0.068   3.183   9.797 -0.9572 -1.8859 -1.3332
  3824G12c C00770901  -0.147   3.195   9.784  1.5024  0.4684  1.1846
  3824G12c H01470902  -0.147   3.211   9.891 -3.3289 -2.2709  1.7711
  3824G12c C00670903  -0.269   3.184   9.699  0.1569 -0.3426 -0.3508
  3824G12c C00570904  -0.237   3.166   9.562  0.9388 -1.5848  0.0012
  3824G12c C00470905  -0.337   3.137   9.473 -2.7407 -0.1336 -0.3894
  3824G12c C00370906  -0.303   3.083   9.348 -0.0459 -0.6857 -0.4858
  3824G12c C00270907  -0.403   3.021   9.275 -0.6264 -1.7191  0.1634
  3824G12c C00170908  -0.414   2.957   9.132 -1.1052 -0.0832  0.2320
  3824G12c C00M70909  -0.310   2.862   9.095  0.9886  0.9353  0.3915
  3824G12c C00L70910  -0.169   2.883   9.119  1.1276 -1.3258  1.7924
  3824G12c C00R70911  -0.070   2.772   9.113 -1.5245  1.5174  0.1270
  3824G12c C00Q70912  -0.081   2.636   9.056 -0.9904  0.5848  0.6345
  3824G12c C00V70913   0.042   2.565   9.075  0.4675  0.6377  0.1980
  3824G12c C00U70914   0.152   2.629   9.126  0.2090 -2.3999 -1.2014
  3824G12c C00T70915   0.163   2.765   9.153 -0.2097 -1.1638  1.4440
  3824G12c C01670916   0.249   2.820   9.248 -0.1632 -1.5811  1.3925
  3824G12c C01570917   0.367   2.753   9.264  1.8470 -1.3597 -0.9893
  3824G12c C01070918   0.371   2.627   9.215  0.7754 -0.1857  0.2987
  3824G12c C01170919   0.498   2.558   9.247 -0.9728 -0.0498  1.4463
  3824G12c H00570920   0.524   2.463   9.203  2.2918  1.1842  0.5423
  3824G12c C01270921   0.602   2.606   9.334 -0.3146 -0.2405 -0.7015
  3824G12c C01770922   0.742   2.559   9.351  0.6818 -2.6331  1.8716
  3824G12c O00270923   0.779   2.555   9.489 -0.1727 -0.1968 -0.7905
  3824G12c H00470924   0.701   2.555   9.543 -1.4126  2.8357 -2.4384
  3824G12c C01870925   0.820   2.509   9.251  1.2516  0.1296 -2.7031
  3824G12c O00170926   0.818   2.509   9.112 -0.0063  0.0467 -0.5115
  3824G12c H00370927   0.741   2.556   9.086  0.9747  0.3416 -2.9753
  3824G12c C01970928   0.944   2.425   9.271  1.4969  0.8744 -0.5325
  3824G12c H00270929   1.034   2.467   9.225  1.4128  2.3076  0.5696
  3824G12c H00170930   0.962   2.460   9.372 -5.0107  5.2078 -0.5743
  3824G12c O00070931   0.937   2.276   9.273 -0.5350  0.8096 -0.2044
  3824G12c C01A70932   0.856   2.214   9.371 -0.0636  0.4183 -0.7561
  3824G12c C02K70933   0.921   2.208   9.498  1.0965 -0.4688 -0.1968
  3824G12c O00G70934   1.059   2.215   9.521 -1.8870  0.2126  0.3183
  3824G12c C02M70935   1.147   2.176   9.421 -2.7282  0.7020  0.5004
  3824G12c H01G70936   1.140   2.201   9.315 -5.2033 -4.1050 -0.6056
  3824G12c H01F70937   1.184   2.074   9.411  0.0704  1.1415  4.7241
  3824G12c H01E70938   1.234   2.237   9.445 -2.0498 -1.9031  5.3775
  3824G12c C02J70939   0.858   2.126   9.593  0.5136 -0.3672  0.5727
  3824G12c H01H70940   0.911   2.115   9.686  3.5990  6.3465 -0.1150
  3824G12c C02I70941   0.726   2.061   9.580 -1.3797 -0.5741 -0.2689
  3824G12c C02N70942   0.705   1.945   9.666 -0.9212  0.4669  0.2192
  3824G12c H01M70943   0.791   1.881   9.674 -1.7763 -1.9213 -6.7047
  3824G12c C02O70944   0.567   1.923   9.691 -1.3648 -1.2250  1.6893
  3824G12c H01L70945   0.514   1.998   9.634  4.8755  0.8068 -1.9418
  3824G12c C02P70946   0.491   1.812   9.758  0.2670 -0.7462 -1.5394
  3824G12c H01K70947   0.399   1.832   9.814  2.4481  0.5115  1.7867
  3824G12c H01J70948   0.455   1.757   9.671 -5.1986 -0.4378  0.3523
  3824G12c O00H70949   0.598   1.734   9.817 -1.1635 -0.4142  0.2178
  3824G12c H01I70950   0.575   1.668   9.880 -2.0103  1.4891  1.9849
  3824G12c C02H70951   0.654   2.088   9.465 -0.2383 -0.2670  0.4239
  3824G12c H01C70952   0.569   2.031   9.432 -0.4469 -0.6298  1.5721
  3824G12c C02L70953   0.727   2.163   9.367 -1.1403  0.7460  1.0394
  3824G12c H01D70954   0.662   2.179   9.282 -3.6722 -5.5448  1.5431
  3824G12c C01370955   0.563   2.722   9.396 -0.4066  0.7110  0.6038
  3824G12c H00070956   0.650   2.744   9.456  2.1189 -1.8586 -1.9987
  3824G12c C01470957   0.451   2.803   9.374 -0.0127  1.1948  0.2152
  3824G12c C00F70958   0.432   2.908   9.450 -0.1512  0.7840  0.2613
  3824G12c C00H70959   0.216   2.927   9.318 -0.8834 -0.8520  0.9623
  3824G12c C00I70960   0.102   3.007   9.298 -1.4540  2.3606 -0.1552
  3824G12c C00J70961   0.014   2.951   9.206 -0.0878  0.3785  0.5244
  3824G12c C00Z70962   0.275   2.562   9.134 -0.0520 -1.4906 -0.3340
  3824G12c C00Y70963   0.289   2.445   9.056 -0.4813 -0.0940  2.4640
  3824G12c H00670964   0.387   2.401   9.065 -0.9842 -2.3392 -1.9964
  3824G12c C00X70965   0.176   2.368   9.008  0.6077  0.6603 -0.8070
  3824G12c O00370966   0.199   2.273   8.914  0.5449 -0.4005 -0.9532
  3824G12c C01B70967   0.092   2.179   8.889 -0.3510 -0.4858  0.6560
  3824G12c H00970968   0.120   2.114   8.807  5.9293  2.0998  0.4855
  3824G12c H00870969  -0.011   2.208   8.870  0.9155  4.3300  0.5853
  3824G12c H00770970   0.105   2.109   8.972  0.2462 -0.3548  0.6784
  3824G12c C00W70971   0.052   2.438   9.029  1.4784  0.4753  0.0037
  3824G12c O00470972  -0.054   2.385   8.961  0.3032 -1.6908  0.1083
  3824G12c C01C70973  -0.178   2.417   8.991  1.2521 -0.4536  1.2188
  3824G12c H00A70974  -0.250   2.369   8.926  0.5010  2.8712 -0.5302
  3824G12c C00P70975  -0.198   2.559   9.015  0.1466 -1.3614 -2.6897
  3824G12c C00O70976  -0.339   2.598   9.036 -0.7727  2.3923  0.5463
  3824G12c C01D70977  -0.439   2.502   9.040  0.5017 -0.3753  0.0976
  3824G12c H00S70978  -0.415   2.396   9.034  0.6081 -0.6719  4.1030
  3824G12c C01E70979  -0.565   2.528   9.096 -0.5080  0.2679 -0.0379
  3824G12c O00870980  -0.654   2.428   9.139 -0.4172 -1.1095  0.8371
  3824G12c C01V70981  -0.621   2.313   9.218 -0.4631 -1.4179  1.4548
  3824G12c C01Z70982  -0.644   2.188   9.150  1.0537  0.0647  0.6194
  3824G12c H00R70983  -0.685   2.097   9.192  2.8680 -0.3528  1.5664
  3824G12c H00Q70984  -0.710   2.222   9.071  1.0402  1.0374  1.0311
  3824G12c O00970985  -0.530   2.160   9.063 -0.1018 -0.5534  0.4567
  3824G12c H00P70986  -0.562   2.194   8.980 -0.0577 -2.5437 -0.3849
  3824G12c C01W70987  -0.594   2.328   9.350  0.0888 -0.4938 -0.7610
  3824G12c H00O70988  -0.590   2.432   9.379  3.4403  0.4768 -4.2179
  3824G12c C01X70989  -0.541   2.205   9.461  0.4065  0.5047 -0.4582
  3824G12c H00N70990  -0.561   2.106   9.421  1.2670 -0.8764  2.4143
  3824G12c H00M70991  -0.432   2.200   9.460  0.4568  0.4562 -4.9335
  3824G12c C01Y70992  -0.630   2.178   9.591 -0.5157 -1.7526  2.4360
  3824G12c C02D70993  -0.677   2.063   9.647  0.6657  0.3171  0.9466
  3824G12c H01970994  -0.682   1.982   9.576  4.1407  4.7758 -4.8586
  3824G12c C02C70995  -0.748   2.055   9.758 -0.3930  1.2994  1.8679
  3824G12c H01A70996  -0.765   1.952   9.786 -1.7381  1.1308  0.5146
  3824G12c C02B70997  -0.757   2.175   9.841 -0.0548 -0.1388  1.4895
  3824G12c O00E70998  -0.822   2.172   9.954  1.2914 -0.6717  1.1121
  3824G12c H01B70999  -0.838   2.262   9.980 -2.4320 -0.2942 -2.0756
  3824G12c C02F71000  -0.702   2.295   9.793 -0.8664 -2.1819 -0.4668
  3824G12c O00F71001  -0.727   2.410   9.850  1.0649  0.1297  0.9799
  3824G12c C02G71002  -0.724   2.539   9.766 -1.4212 -0.2636 -1.0750
  3824G12c H01771003  -0.619   2.556   9.789 -2.5183 -1.6804  5.8390
  3824G12c H01671004  -0.768   2.629   9.809  1.0377  2.8769 -4.7035
  3824G12c H01571005  -0.739   2.558   9.659 -2.5910  3.8653 -0.2663
  3824G12c C02E71006  -0.617   2.288   9.680  1.4407  0.1284 -1.2611
  3824G12c H01871007  -0.546   2.351   9.628  1.1929 -0.7544 -2.6984
  3824G12c C01F71008  -0.588   2.658   9.154 -1.5713  0.2708 -0.8562
  3824G12c C01G71009  -0.715   2.693   9.219 -2.5274 -0.2897  0.1414
  3824G12c H00L71010  -0.800   2.634   9.252  3.2154 -6.3540  5.7861
  3824G12c C01H71011  -0.712   2.825   9.281 -0.8390  0.1387  1.2938
  3824G12c H00B71012  -0.768   2.850   9.369 -0.4196  0.8907  1.3491
  3824G12c C01I71013  -0.598   2.899   9.262 -1.1447 -0.8310 -0.0889
  3824G12c C01U71014  -0.505   2.760   9.109 -0.2848  1.7755 -1.1514
  3824G12c C00S71015   0.043   2.835   9.145  0.0876 -1.5880  0.5693
  3824G12c C00K71016  -0.113   2.983   9.198 -1.4360  1.2256 -0.3556
  3824G12c C00N71017  -0.381   2.729   9.060  0.5957 -0.5208  1.0059
  3824G12c C00071018  -0.527   2.889   9.131  1.0032 -0.2546  0.7040
  3824G12c C01J71019  -0.532   3.009   9.326  0.1205 -1.8105  0.4192
  3824G12c C01K71020  -0.568   3.071   9.454  1.2950 -2.0855  0.8550
  3824G12c C01P71021  -0.703   3.076   9.505 -0.9292 -1.0508 -0.4125
  3824G12c C01Q71022  -0.809   3.100   9.403  0.2470 -0.6004 -0.4770
  3824G12c H00G71023  -0.765   3.114   9.305 -3.0344 -1.2706 -2.1022
  3824G12c C01R71024  -0.931   3.141   9.440 -0.0870  0.1227  0.3480
  3824G12c H00F71025  -0.940   3.162   9.546 -5.7136  5.4899 -0.9076
  3824G12c C01S71026  -1.065   3.166   9.368 -0.4480 -0.6160  2.9182
  3824G12c H00E71027  -1.033   3.168   9.264 -1.2016  4.7486  2.6370
  3824G12c H00D71028  -1.148   3.095   9.364  1.7391 -3.1449 -2.1439
  3824G12c O00571029  -1.107   3.299   9.403  0.7234  0.1920  0.8484
  3824G12c H00C71030  -1.025   3.341   9.423 -2.3066  5.6232  3.0892
  3824G12c C01O71031  -0.721   3.122   9.639  0.7992 -2.2893 -0.1164
  3824G12c H00H71032  -0.794   3.124   9.718 -4.4425  0.4248 -4.6718
  3824G12c C01N71033  -0.614   3.158   9.716  0.8498 -0.0154 -1.4451
  3824G12c O00671034  -0.659   3.207   9.846  0.0368  0.1225 -1.3837
  3824G12c C01T71035  -0.664   3.146   9.973  0.5400  0.4703 -0.9868
  3824G12c H00K71036  -0.616   3.179  10.066  1.7932 -8.6655  2.1004
  3824G12c H00J71037  -0.654   3.039   9.953 -6.4903 -0.5892  0.0392
  3824G12c H00I71038  -0.760   3.145  10.024 -1.1672 -0.6806 -4.0891
  3824G12c C01M71039  -0.490   3.167   9.668 -0.1902  0.2444  1.4303
  3824G12c C02071040  -0.163   3.072   9.307 -1.0485 -0.1132 -0.3348
  3824G12c C02171041  -0.070   3.156   9.379  2.5957 -1.7919  0.1198
  3824G12c C01L71042  -0.456   3.129   9.525  2.0935  0.2952  1.3326
  3824G12c O00771043  -0.391   3.168   9.771  1.1709 -0.3756  0.8543
  3824G12c C02271044  -0.104   3.177   9.509 -1.4090  1.8217 -1.6329
  3824G12c C02371045   0.069   3.111   9.385 -0.6345 -0.8012  1.1448
  3824G12c C00G71046   0.308   2.976   9.424  1.4191  0.7363  0.2015
  3824G12c C00E71047   0.524   2.964   9.543 -0.3218 -2.2102 -0.2210
  3824G12c O00A71048   0.648   2.921   9.582  0.7608  0.0673 -0.9930
  3824G12c C02471049   0.666   2.861   9.716 -0.3444 -0.8711  2.0663
  3824G12c H00V71050   0.747   2.795   9.684 -1.0884 -0.1939 -1.4837
  3824G12c H00U71051   0.727   2.924   9.781 -1.6316 -0.3192  2.7337
  3824G12c H00T71052   0.574   2.822   9.759 -2.0918  3.5497  2.5647
  3834G12c C00D71053   8.239   7.843  12.612 -1.6850  0.7371 -0.5908
  3834G12c O00B71054   8.210   7.855  12.484  0.7968 -0.1107  0.5720
  3834G12c C02571055   8.091   7.789  12.440 -0.4057 -0.2426  2.0484
  3834G12c C02671056   7.959   7.834  12.516 -0.4378  0.0705  1.4586
  3834G12c H00Y71057   7.954   7.776  12.609  3.3822 -4.8574 -1.1798
  3834G12c H00X71058   7.876   7.830  12.446 -0.5940 -0.8658  1.6886
  3834G12c O00C71059   7.994   7.968  12.540 -0.4554  1.0167  0.2916
  3834G12c H00W71060   7.917   8.022  12.534  3.0813  7.0343  4.2520
  3834G12c C02771061   8.099   7.698  12.354  1.6870  1.6377  0.2643
  3834G12c O00D71062   8.216   7.680  12.282 -1.6958  1.7855  0.1818
  3834G12c H00Z71063   8.203   7.603  12.228  3.0512 -3.0150  5.1407
  3834G12c C02871064   7.990   7.609  12.317  0.7564  0.9363  1.2864
  3834G12c C02971065   7.992   7.456  12.328  0.2315 -0.4403 -0.0436
  3834G12c H01071066   8.065   7.382  12.358 -1.3306 -2.6084 -1.4034
  3834G12c C02T71067   7.885   7.376  12.303 -1.8711 -0.2383  0.6346
  3834G12c H01O71068   7.920   7.274  12.302  0.8849  0.6263  2.0163
  3834G12c C02S71069   7.752   7.433  12.270 -0.1796  0.7655 -0.7904
  3834G12c O00J71070   7.645   7.355  12.285  0.6904  0.7037 -0.8936
  3834G12c H01P71071   7.578   7.420  12.276  0.4925  0.5862 -0.3016
  3834G12c C02R71072   7.734   7.579  12.265 -0.1705  1.4301 -0.0888
  3834G12c O00I71073   7.607   7.642  12.266  0.4682 -0.0898 -0.0727
  3834G12c C02Q71074   7.607   7.789  12.272  1.8058  0.7672  0.8775
  3834G12c H01N71075   7.643   7.790  12.169 -2.0398 -3.6492 -0.6935
  3834G12c H01R71076   7.512   7.838  12.249  3.8259  3.2159 -2.7197
  3834G12c H01Q71077   7.652   7.837  12.359  1.9259  2.2769  0.0010
  3834G12c C02A71078   7.857   7.659  12.287  0.6276  0.3926  0.3576
  3834G12c H01171079   7.837   7.761  12.257 -2.7173 -0.6935 -1.4293
  3834G12c C00C71080   8.253   7.954  12.687 -0.6050 -1.7191  1.3048
  3834G12c H01271081   8.234   8.051  12.643  6.1853 -0.9291 -0.4250
  3834G12c C00B71082   8.261   7.953  12.832  0.3596 -2.4960 -0.8928
  3834G12c C00A71083   8.246   8.058  12.929  1.6290  0.2167 -0.4164
  3834G12c C00971084   8.263   8.196  12.918  2.7276 -0.6778  0.4527
  3834G12c C00871085   8.365   8.259  12.842  0.2170  1.6578  1.5944
  3834G12c H01371086   8.401   8.236  12.742 -0.0545 -3.6435  2.5663
  3834G12c C00771087   8.437   8.373  12.907  0.4195  0.6186 -0.2366
  3834G12c H01471088   8.485   8.427  12.826  1.1841  0.5301  0.1502
  3834G12c C00671089   8.423   8.421  13.036  0.2424  1.4526 -0.8751
  3834G12c C00571090   8.334   8.331  13.115  0.6863 -0.8968  0.4286
  3834G12c C00471091   8.316   8.358  13.260  0.0428  1.3500 -1.0771
  3834G12c C00371092   8.255   8.251  13.338  0.0382 -0.2193 -1.0627
  3834G12c C00271093   8.285   8.250  13.478  0.2665  0.7904  1.3373
  3834G12c C00171094   8.279   8.161  13.589 -0.4880 -0.2800  0.9072
  3834G12c C00M71095   8.318   8.016  13.581 -0.7292 -0.1652  0.2348
  3834G12c C00L71096   8.302   7.949  13.456 -0.7082 -0.2572  0.1200
  3834G12c C00R71097   8.389   7.843  13.415  0.3213 -2.2397 -1.7143
  3834G12c C00Q71098   8.488   7.767  13.482  0.4519 -1.5379  0.2783
  3834G12c C00V71099   8.530   7.658  13.405 -1.2280 -1.2606  0.4131
  3834G12c C00U71100   8.505   7.642  13.267  0.5504  2.8250  1.3897
  3834G12c C00T71101   8.419   7.717  13.216 -0.9122 -0.0372  0.8063
  3834G12c C01671102   8.392   7.715  13.082  1.7045 -1.7819 -0.2219
  3834G12c C01571103   8.429   7.608  12.998 -0.5115  0.3678 -0.6069
  3834G12c C01071104   8.517   7.525  13.066 -1.2948  0.7599  0.7558
  3834G12c C01171105   8.563   7.407  12.991 -2.6152 -2.1548  1.3497
  3834G12c H00571106   8.646   7.342  13.012  0.1799  0.8707  0.2429
  3834G12c C01271107   8.498   7.380  12.871  0.4752 -0.1031  0.1000
  3834G12c C01771108   8.505   7.238  12.797  1.2787 -0.7280  0.8661
  3834G12c O00271109   8.618   7.189  12.737  0.6187  0.6067 -1.4541
  3834G12c H00471110   8.631   7.096  12.723  1.7954  1.0328 -3.3775
  3834G12c C01871111   8.380   7.189  12.781  1.9393 -0.2337 -1.1100
  3834G12c O00171112   8.282   7.272  12.839 -0.7496 -0.2143 -0.8048
  3834G12c H00371113   8.323   7.341  12.888 -2.3752  0.2910 -0.1349
  3834G12c C01971114   8.335   7.059  12.704  0.0495 -0.9058  1.2066
  3834G12c H00271115   8.259   7.085  12.630  2.7210  2.0917 -0.6271
  3834G12c H00171116   8.439   7.029  12.690  3.0399  7.0254  3.8526
  3834G12c O00071117   8.298   6.977  12.816 -0.5996 -0.3995 -1.0938
  3834G12c C01A71118   8.161   6.958  12.843 -1.9758 -0.8906 -0.2956
  3834G12c C02K71119   8.124   6.876  12.949  0.8778  0.6168 -0.5184
  3834G12c O00G71120   8.204   6.843  13.056 -0.1850  0.5086  0.9678
  3834G12c C02M71121   8.323   6.923  13.085 -0.7297  2.6733  0.8916
  3834G12c H01G71122   8.338   6.933  13.193 -0.0671  6.2910  0.5312
  3834G12c H01F71123   8.298   7.029  13.090  4.4367  3.9486  6.3894
  3834G12c H01E71124   8.413   6.933  13.024 -2.5858  0.1445 -2.4489
  3834G12c C02J71125   7.993   6.855  12.973  0.0684 -0.0907  1.4312
  3834G12c H01H71126   7.959   6.813  13.067 -7.8553  0.3233 -0.8340
  3834G12c C02I71127   7.893   6.897  12.893  1.0549 -1.5831  0.9637
  3834G12c C02N71128   7.776   6.887  12.971 -0.4211 -0.3726 -3.4516
  3834G12c H01M71129   7.740   6.962  13.040  1.3101 -0.9141 -1.9004
  3834G12c C02O71130   7.674   6.794  12.940 -0.4760  0.8158 -0.8451
  3834G12c H01L71131   7.702   6.705  12.886 -3.1765  0.2378 -1.3536
  3834G12c C02P71132   7.545   6.776  13.011 -0.4090  0.8460 -1.0412
  3834G12c H01K71133   7.480   6.863  13.020 -1.7161 -0.2630  0.8147
  3834G12c H01J71134   7.470   6.698  12.996 -0.4040  1.8982 -7.7261
  3834G12c O00H71135   7.545   6.778  13.156  0.8501 -0.2351  0.1207
  3834G12c H01I71136   7.482   6.845  13.177  0.2036 -1.7351  3.3685
  3834G12c C02H71137   7.929   6.975  12.785  0.0688 -0.2650  0.1343
  3834G12c H01C71138   7.854   7.024  12.724  1.9586  3.1716  0.4435
  3834G12c C02L71139   8.054   7.035  12.791 -0.2970  0.0721  0.7911
  3834G12c H01D71140   8.058   7.123  12.728  1.2852  2.8432  4.5732
  3834G12c C01371141   8.449   7.485  12.796  1.4989  0.6716  0.3039
  3834G12c H00071142   8.420   7.477  12.692 -0.9101  5.3589  0.4616
  3834G12c C01471143   8.411   7.606  12.860 -0.1261 -0.8876 -0.0448
  3834G12c C00F71144   8.339   7.719  12.807 -0.0240 -0.5714 -0.0260
  3834G12c C00H71145   8.304   7.811  13.033  0.5109  1.0321  0.6060
  3834G12c C00I71146   8.235   7.904  13.113  1.7878 -1.7984 -0.1789
  3834G12c C00J71147   8.255   7.892  13.246  1.1257  0.9996 -1.0421
  3834G12c C00Z71148   8.559   7.534  13.195  1.4148 -0.2477 -1.3246
  3834G12c C00Y71149   8.612   7.412  13.264  0.2111  0.7621  1.5339
  3834G12c H00671150   8.664   7.331  13.215  2.7611  0.9379  3.8285
  3834G12c C00X71151   8.615   7.419  13.407  0.2422  1.2261  0.3660
  3834G12c O00371152   8.645   7.310  13.483 -0.5278 -0.8548 -0.5616
  3834G12c C01B71153   8.596   7.286  13.608 -0.2251  1.0879 -0.9680
  3834G12c H00971154   8.588   7.177  13.603  0.5180  0.7357  3.3143
  3834G12c H00871155   8.652   7.307  13.699  4.3538  4.4058 -4.3707
  3834G12c H00771156   8.506   7.324  13.656  1.4136  0.3133  2.9767
  3834G12c C00W71157   8.585   7.547  13.481 -0.5458 -1.1169  0.2567
  3834G12c O00471158   8.611   7.565  13.604 -0.7187 -1.6818 -0.4349
  3834G12c C01C71159   8.618   7.697  13.656 -0.2905 -0.9291 -0.7107
  3834G12c H00A71160   8.662   7.680  13.754 -0.0500 -4.9249 -1.3979
  3834G12c C00P71161   8.533   7.794  13.611  0.5599 -2.0054 -0.1864
  3834G12c C00O71162   8.545   7.917  13.686 -0.7661  0.0496  1.4670
  3834G12c C01D71163   8.644   7.950  13.780 -1.3847 -1.7019  1.0072
  3834G12c H00S71164   8.690   7.872  13.839  5.0018  6.6388  8.4314
  3834G12c C01E71165   8.666   8.076  13.838 -0.4884  0.3447 -0.2778
  3834G12c O00871166   8.783   8.114  13.900 -0.5224  0.7380 -1.5397
  3834G12c C01V71167   8.754   8.126  14.048  0.0281 -0.9633  0.6800
  3834G12c C01Z71168   8.855   8.227  14.100 -0.8445  1.6024 -0.7564
  3834G12c H00R71169   8.926   8.245  14.019  4.3443 -0.4789  3.0672
  3834G12c H00Q71170   8.827   8.322  14.144  2.9751  0.5088  4.5350
  3834G12c O00971171   8.968   8.157  14.169  0.1112  0.5457 -0.9512
  3834G12c H00P71172   8.960   8.064  14.177  4.3952  0.2424  1.4555
  3834G12c C01W71173   8.658   8.102  14.134  0.2833 -1.0539 -0.3999
  3834G12c H00O71174   8.568   8.090  14.076  3.7300 -2.1210 -5.9121
  3834G12c C01X71175   8.644   8.121  14.274  0.2139 -1.9764 -0.3465
  3834G12c H00N71176   8.688   8.214  14.309  1.0115 -1.4989 -2.5450
  3834G12c H00M71177   8.550   8.156  14.317  4.4427  2.0585  6.4755
  3834G12c C01Y71178   8.699   8.000  14.339 -0.6290 -1.0936 -1.4222
  3834G12c C02D71179   8.827   8.005  14.379 -0.4467 -1.9344 -1.8536
  3834G12c H01971180   8.875   8.102  14.379 -2.9212 -0.6095  1.6024
  3834G12c C02C71181   8.870   7.882  14.451  0.3241  1.2125 -0.2542
  3834G12c H01A71182   8.969   7.873  14.492 -0.1881 -0.0672  0.7160
  3834G12c C02B71183   8.787   7.768  14.464  0.2166  1.0755 -0.7956
  3834G12c O00E71184   8.878   7.657  14.475  0.5128 -1.0885  0.5731
  3834G12c H01B71185   8.854   7.590  14.537  0.7631  0.5030  2.4247
  3834G12c C02F71186   8.691   7.764  14.374  0.7405 -0.0712  1.0284
  3834G12c O00F71187   8.625   7.654  14.328 -1.8445 -0.6127 -0.8192
  3834G12c C02G71188   8.670   7.637  14.201 -0.1208 -0.1195 -0.8002
  3834G12c H01771189   8.777   7.652  14.190 -0.3088  6.9261  3.7060
  3834G12c H01671190   8.618   7.716  14.146  1.0320 -0.9652 -3.1933
  3834G12c H01571191   8.630   7.550  14.149 -7.0505  3.1487 -1.5404
  3834G12c C02E71192   8.627   7.885  14.343  0.5400  0.0357 -0.8802
  3834G12c H01871193   8.526   7.877  14.304 -1.3642  2.1733  3.2452
  3834G12c C01F71194   8.571   8.169  13.797 -0.8321  1.2015  0.7829
  3834G12c C01G71195   8.615   8.307  13.768  1.0106 -0.6693 -0.4078
  3834G12c H00L71196   8.719   8.332  13.781  1.9840 -4.1347 -1.0766
  3834G12c C01H71197   8.518   8.411  13.730  0.5675  0.4545  0.5986
  3834G12c H00B71198   8.551   8.512  13.712  4.5285 -1.0162 -1.0633
  3834G12c C01I71199   8.409   8.346  13.649 -0.1991  0.4276  0.0910
  3834G12c C01U71200   8.444   8.135  13.746 -0.1120  0.5230 -0.6003
  3834G12c C00S71201   8.348   7.807  13.292  0.0121  1.2495  1.4566
  3834G12c C00K71202   8.243   8.004  13.339 -0.4623  0.2637  1.6041
  3834G12c C00N71203   8.438   8.009  13.676 -1.3940  0.5577  0.4285
  3834G12c C00071204   8.360   8.227  13.689  2.7067  0.3894  0.8605
  3834G12c C01J71205   8.352   8.366  13.521  0.8009 -1.0733 -0.1661
  3834G12c C01K71206   8.369   8.492  13.453  0.3575 -2.2550 -0.9694
  3834G12c C01P71207   8.429   8.610  13.497 -0.6926  1.0378 -0.6086
  3834G12c C01Q71208   8.374   8.659  13.633 -2.3026  0.6505 -1.5538
  3834G12c H00G71209   8.291   8.619  13.688  0.5780 -4.7555 -0.7760
  3834G12c C01R71210   8.445   8.734  13.724 -0.1711 -0.0905  0.0316
  3834G12c H00F71211   8.545   8.766  13.698 -0.5318 -2.5481 -4.7707
  3834G12c C01S71212   8.387   8.772  13.857  0.8971 -0.6144  0.8493
  3834G12c H00E71213   8.417   8.703  13.935  5.7526  0.8652  0.4926
  3834G12c H00D71214   8.432   8.868  13.883  4.9519 -2.5162  1.3143
  3834G12c O00571215   8.245   8.794  13.877 -1.1016  0.0027 -0.0943
  3834G12c H00C71216   8.215   8.820  13.791  2.0038 -1.3987 -1.6795
  3834G12c C01O71217   8.531   8.671  13.415 -0.6610 -1.2155 -0.1097
  3834G12c H00H71218   8.545   8.774  13.443  0.9875 -1.2936 -0.5832
  3834G12c C01N71219   8.552   8.643  13.279 -0.0923  0.7577  0.9811
  3834G12c O00671220   8.598   8.747  13.212 -0.3797  0.1384  0.2025
  3834G12c C01T71221   8.741   8.773  13.212 -0.8982 -1.2172  0.4837
  3834G12c H00K71222   8.796   8.720  13.134 -0.8308  0.8320 -0.8964
  3834G12c H00J71223   8.784   8.813  13.304 -0.3888  0.4754 -0.4716
  3834G12c H00I71224   8.743   8.854  13.139  0.8663 -1.0527  0.6892
  3834G12c C01M71225   8.470   8.546  13.227  0.2666 -1.0371  0.4477
  3834G12c C02071226   8.218   8.129  13.284  0.1164  1.1981 -1.0390
  3834G12c C02171227   8.188   8.140  13.134  0.1108  0.9179  1.0117
  3834G12c C01L71228   8.379   8.468  13.309  1.4333  1.2017 -0.0032
  3834G12c O00771229   8.492   8.534  13.098 -0.4796 -1.0106 -0.0702
  3834G12c C02271230   8.256   8.232  13.059 -1.4280  1.2539 -0.8151
  3834G12c C02371231   8.179   8.020  13.056  1.6898 -0.6826  0.1348
  3834G12c C00G71232   8.302   7.823  12.886  1.4443  1.8428  0.8987
  3834G12c C00E71233   8.300   7.723  12.672 -0.4877 -2.0356  1.4741
  3834G12c O00A71234   8.329   7.632  12.599  0.0301  0.6564 -0.6578
  3834G12c C02471235   8.434   7.656  12.494 -0.7661  1.7864 -0.6677
  3834G12c H00V71236   8.417   7.575  12.423 -4.0162  0.8433  1.0406
  3834G12c H00U71237   8.435   7.746  12.432 -6.4077 -0.6875 -4.8407
  3834G12c H00T71238   8.527   7.648  12.550 -2.6674 -0.0755  2.3828
  3844G12c C00D71239   2.000  12.249   1.427 -0.5587 -0.3974 -0.6558
  3844G12c O00B71240   1.893  12.236   1.358  0.4260  0.9591 -0.7752
  3844G12c C02571241   1.821  12.340   1.310 -0.4585 -1.6836 -0.9791
  3844G12c C02671242   1.711  12.361   1.412 -0.0602  0.6308 -0.0283
  3844G12c H00Y71243   1.715  12.323   1.514 -5.3959  2.0357  0.8457
  3844G12c H00X71244   1.624  12.415   1.375  2.5597  0.2849 -7.5883
  3844G12c O00C71245   1.760  12.486   1.452 -0.4377 -0.1539 -0.4218
  3844G12c H00W71246   1.724  12.545   1.387 -2.3857  2.5649  2.9474
  3844G12c C02771247   1.848  12.414   1.203 -0.7146  0.9873  0.5117
  3844G12c O00D71248   1.983  12.417   1.167  0.7388 -1.5684  1.1074
  3844G12c H00Z71249   2.027  12.374   1.238  1.4812  2.6536  3.3411
  3844G12c C02871250   1.754  12.505   1.126  0.1624 -1.0394  0.3597
  3844G12c C02971251   1.689  12.451   0.999  1.4316 -0.2858 -1.0525
  3844G12c H01071252   1.719  12.350   0.974  3.7908 -0.5807  2.7051
  3844G12c C02T71253   1.574  12.529   0.957 -0.0382 -1.7401  1.1134
  3844G12c H01O71254   1.531  12.507   0.861 -0.5228 -1.4748  1.2620
  3844G12c C02S71255   1.529  12.646   1.019  0.0921  0.0459 -0.2402
  3844G12c O00J71256   1.426  12.727   0.975  1.1772  0.4160 -2.6731
  3844G12c H01P71257   1.419  12.814   1.011 -4.0101  1.5310 -5.9020
  3844G12c C02R71258   1.600  12.709   1.120  0.3441 -0.1148 -0.1627
  3844G12c O00I71259   1.545  12.821   1.180  0.0170  0.2284 -0.3324
  3844G12c C02Q71260   1.656  12.923   1.198  1.7813  1.7515 -2.3283
  3844G12c H01N71261   1.734  12.899   1.270  0.7058  1.1432 -1.3449
  3844G12c H01R71262   1.599  13.013   1.221 -1.5357 -1.3678  2.5250
  3844G12c H01Q71263   1.719  12.951   1.114  2.1325 -0.2591 -2.7594
  3844G12c C02A71264   1.715  12.634   1.172 -0.2222 -0.7573  1.7127
  3844G12c H01171265   1.787  12.679   1.239  5.8969 -2.8781 -2.9978
  3844G12c C00C71266   2.004  12.254   1.565 -0.3685 -0.5300 -0.6125
  3844G12c H01271267   1.922  12.294   1.623 -0.8103  0.0435 -1.6129
  3844G12c C00B71268   2.117  12.263   1.655  0.5871 -0.1954 -1.4903
  3844G12c C00A71269   2.130  12.290   1.801 -0.8189 -1.4296  0.3515
  3844G12c C00971270   2.044  12.334   1.920 -1.5641  0.3673  0.5838
  3844G12c C00871271   1.924  12.415   1.908  0.4939  0.0883 -0.7426
  3844G12c H01371272   1.856  12.428   1.825  0.1149  0.2318 -0.4120
  3844G12c C00771273   1.900  12.500   2.020 -0.9250 -0.5412  1.0279
  3844G12c H01471274   1.809  12.554   1.999 -1.5295 -3.4725 -5.2469
  3844G12c C00671275   1.989  12.531   2.130  0.5187  0.5903  0.2135
  3844G12c C00571276   2.105  12.440   2.123 -0.5780 -0.4122  0.3519
  3844G12c C00471277   2.219  12.468   2.206  0.9872  0.2720  2.2093
  3844G12c C00371278   2.343  12.402   2.182 -1.2548 -0.3900  0.9050
  3844G12c C00271279   2.451  12.466   2.263 -0.0389  0.2249  0.0485
  3844G12c C00171280   2.604  12.437   2.268 -0.5005 -0.2558  0.6639
  3844G12c C00M71281   2.657  12.469   2.126  0.2519  0.2568  0.3602
  3844G12c C00L71282   2.592  12.401   2.014  0.2531  0.0109  1.3394
  3844G12c C00R71283   2.642  12.419   1.880 -1.2525  2.1087 -0.3533
  3844G12c C00Q71284   2.749  12.500   1.816 -0.0695  0.5773  0.3031
  3844G12c C00V71285   2.762  12.494   1.682 -0.5544 -0.1944  1.0730
  3844G12c C00U71286   2.675  12.409   1.611 -2.2154  0.4341  0.5082
  3844G12c C00T71287   2.576  12.340   1.664 -1.5271 -1.1857 -0.0482
  3844G12c C01671288   2.469  12.310   1.584  0.3901 -0.5931  1.3330
  3844G12c C01571289   2.477  12.310   1.449  1.0401  1.5637  0.9244
  3844G12c C01071290   2.600  12.356   1.395 -0.4773  2.4394  0.5536
  3844G12c C01171291   2.623  12.326   1.258 -1.9741 -1.0346 -1.4338
  3844G12c H00571292   2.723  12.346   1.221 -0.8657 -5.5901 -1.2230
  3844G12c C01271293   2.525  12.298   1.163 -0.6049 -0.0203  0.9668
  3844G12c C01771294   2.548  12.289   1.027  1.1082  0.4443 -0.9653
  3844G12c O00271295   2.569  12.160   0.977 -0.1617  0.9459 -0.0607
  3844G12c H00471296   2.605  12.143   0.891  2.4596  0.0017  1.1775
  3844G12c C01871297   2.551  12.425   0.977  0.2676  1.5244 -0.9813
  3844G12c O00171298   2.552  12.527   1.065  0.8682 -0.0669 -1.0453
  3844G12c H00371299   2.495  12.497   1.135  1.8726  1.5735  0.5153
  3844G12c C01971300   2.550  12.456   0.825  1.1989 -0.8150 -1.5731
  3844G12c H00271301   2.451  12.476   0.783 -2.0727 -2.3202  4.6678
  3844G12c H00171302   2.608  12.547   0.808  3.0507 -1.6912 -0.1659
  3844G12c O00071303   2.621  12.383   0.734  0.0712 -0.6293  1.4030
  3844G12c C01A71304   2.766  12.380   0.745  1.2681  0.1230  1.5401
  3844G12c C02K71305   2.810  12.388   0.607 -1.2405 -0.6947 -0.2787
  3844G12c O00G71306   2.734  12.386   0.495 -2.1799 -0.0523 -0.7804
  3844G12c C02M71307   2.631  12.483   0.488  0.1104  1.1180 -0.7331
  3844G12c H01G71308   2.544  12.484   0.554 -0.5672  2.2014 -1.6225
  3844G12c H01F71309   2.572  12.520   0.404 -2.6005  0.6993  0.9372
  3844G12c H01E71310   2.682  12.561   0.545 -2.9870  1.9411  1.0466
  3844G12c C02J71311   2.944  12.368   0.584 -0.9144 -0.4309  1.6595
  3844G12c H01H71312   2.992  12.355   0.488 -1.1434  1.2051  1.3097
  3844G12c C02I71313   3.045  12.343   0.694 -0.1725  0.0905 -0.4607
  3844G12c C02N71314   3.193  12.329   0.661 -0.5014 -1.5755 -0.0926
  3844G12c H01M71315   3.227  12.300   0.563 -6.2492 -3.5918 -1.6988
  3844G12c C02O71316   3.293  12.383   0.736 -1.9713  0.2324  0.1996
  3844G12c H01L71317   3.257  12.418   0.831 -2.8777  2.0947 -0.8170
  3844G12c C02P71318   3.424  12.386   0.673 -1.1107 -0.1330 -0.1365
  3844G12c H01K71319   3.457  12.282   0.666  1.2113  0.8386 -8.1462
  3844G12c H01J71320   3.419  12.441   0.579  4.3514  1.9594  0.6288
  3844G12c O00H71321   3.527  12.471   0.734  0.0164 -0.1316 -0.2629
  3844G12c H01I71322   3.570  12.433   0.809  0.4801  1.8474  0.5219
  3844G12c C02H71323   2.996  12.348   0.827  0.3594 -0.5204  2.0022
  3844G12c H01C71324   3.063  12.334   0.911  1.4548 -4.1574  0.6195
  3844G12c C02L71325   2.868  12.375   0.847  0.2687 -0.2109  0.5053
  3844G12c H01D71326   2.833  12.394   0.947  5.4952 -0.9960  2.6494
  3844G12c C01371327   2.395  12.257   1.217 -0.6991  0.2837 -0.8537
  3844G12c H00071328   2.321  12.226   1.145  0.1745  0.8367 -2.0022
  3844G12c C01471329   2.366  12.266   1.361  0.2170  0.1042 -1.0771
  3844G12c C00F71330   2.246  12.256   1.429 -1.8580 -0.2217  0.6693
  3844G12c C00H71331   2.350  12.269   1.656  1.7911 -0.3829  1.1652
  3844G12c C00I71332   2.345  12.273   1.796  0.2844  0.6195  0.5225
  3844G12c C00J71333   2.461  12.298   1.866  0.4865 -0.8261 -1.7504
  3844G12c C00Z71334   2.689  12.418   1.478 -0.7420 -1.5509 -0.6306
  3844G12c C00Y71335   2.795  12.504   1.411  2.0963 -1.3507  1.6517
  3844G12c H00671336   2.818  12.522   1.307 -0.8994 -0.6160  1.0706
  3844G12c C00X71337   2.873  12.599   1.477 -0.6934 -1.1500  0.0050
  3844G12c O00371338   2.991  12.659   1.423  0.6005 -0.1281  0.1577
  3844G12c C01B71339   2.956  12.800   1.401 -0.9189  0.5715 -0.4678
  3844G12c H00971340   2.854  12.839   1.406 -1.0712  0.5810 -2.9758
  3844G12c H00871341   3.038  12.867   1.377 -0.2786  0.0531  0.2754
  3844G12c H00771342   2.949  12.766   1.298  0.0736 -2.4116  0.4054
  3844G12c C00W71343   2.855  12.590   1.611 -1.0385 -2.3892 -1.3192
  3844G12c O00471344   2.907  12.700   1.671  0.9781 -1.5995 -0.6558
  3844G12c C01C71345   2.927  12.660   1.792  2.3254  1.8061  0.7963
  3844G12c H00A71346   3.025  12.645   1.836  0.7359 -2.7085  3.0531
  3844G12c C00P71347   2.814  12.616   1.874  0.0908 -0.8621  1.4519
  3844G12c C00O71348   2.791  12.672   2.009  0.6400  2.2437 -0.3813
  3844G12c C01D71349   2.845  12.807   2.056 -1.3570  0.3575  0.1306
  3844G12c H00S71350   2.927  12.862   2.011  0.4490  0.5747  3.5109
  3844G12c C01E71351   2.798  12.864   2.178 -0.0320 -0.1482 -0.6065
  3844G12c O00871352   2.828  12.995   2.213  0.3340  0.1348 -0.0459
  3844G12c C01V71353   2.817  13.104   2.133 -2.8379  1.3428 -0.0264
  3844G12c C01Z71354   2.691  13.177   2.131 -0.8223 -1.2725 -0.6312
  3844G12c H00R71355   2.685  13.256   2.056 -1.7286 -5.2645 -4.9591
  3844G12c H00Q71356   2.688  13.253   2.209 11.6544  2.8112 -2.9377
  3844G12c O00971357   2.601  13.070   2.113 -0.4345 -2.6807  0.0930
  3844G12c H00P71358   2.642  13.007   2.056 -2.1283 -2.4698 -1.4181
  3844G12c C01W71359   2.932  13.181   2.119  1.2029 -0.7061  2.7152
  3844G12c H00O71360   2.925  13.286   2.096  2.3464 -2.3433 -7.3347
  3844G12c C01X71361   3.075  13.151   2.173  0.7509  0.0151 -1.2497
  3844G12c H00N71362   3.119  13.224   2.241 -6.1282  6.2582 -2.8961
  3844G12c H00M71363   3.080  13.053   2.221 -9.4860 -2.5500 -4.1353
  3844G12c C01Y71364   3.168  13.119   2.052 -0.0096 -1.7435  0.8358
  3844G12c C02D71365   3.242  13.232   2.021 -1.0141 -0.2248 -2.8799
  3844G12c H01971366   3.227  13.333   2.054 -0.3602 -0.2208 -2.5862
  3844G12c C02C71367   3.337  13.232   1.912 -1.5229  1.1786 -0.7439
  3844G12c H01A71368   3.391  13.323   1.891 -1.4946  0.4015 -4.3392
  3844G12c C02B71369   3.352  13.118   1.845  0.3437  0.7118 -0.0475
  3844G12c O00E71370   3.464  13.103   1.766 -1.3491 -0.8311 -0.3476
  3844G12c H01B71371   3.460  13.019   1.723 -3.1991 -2.3277  2.5585
  3844G12c C02F71372   3.267  13.007   1.870 -0.6378  0.7601  1.5333
  3844G12c O00F71373   3.224  12.902   1.797 -1.5039 -0.2962  0.5465
  3844G12c C02G71374   3.199  12.935   1.657  0.1740  2.1230  0.1218
  3844G12c H01771375   3.232  13.033   1.621  2.5321  5.6404 10.0790
  3844G12c H01671376   3.260  12.875   1.590  2.2253  1.0554  2.8741
  3844G12c H01571377   3.093  12.934   1.632  0.8926 -0.0759 -3.1389
  3844G12c C02E71378   3.187  13.008   1.985  1.0308 -1.3621 -0.1659
  3844G12c H01871379   3.121  12.925   2.004 -1.0338  0.5539  1.2167
  3844G12c C01F71380   2.728  12.786   2.262 -0.9951 -1.0124  0.8077
  3844G12c C01G71381   2.656  12.855   2.363 -0.6053  1.0335 -0.3372
  3844G12c H00L71382   2.649  12.961   2.380  1.5378  1.1096  0.2794
  3844G12c C01H71383   2.559  12.774   2.411  2.5143  0.6450  0.3118
  3844G12c H00B71384   2.507  12.837   2.482  0.1293  2.8692 -3.2346
  3844G12c C01I71385   2.556  12.637   2.403  0.5276  0.9676 -0.6747
  3844G12c C01U71386   2.719  12.647   2.240  0.2627 -0.6944 -0.7086
  3844G12c C00S71387   2.573  12.332   1.798  0.4547  1.5959  1.5900
  3844G12c C00K71388   2.480  12.314   2.004 -0.8118 -1.0034 -0.8733
  3844G12c C00N71389   2.730  12.592   2.120 -0.5702  1.4830 -2.6149
  3844G12c C00071390   2.655  12.563   2.345 -1.2695 -0.0058  1.3895
  3844G12c C01J71391   2.436  12.569   2.355  0.3710  0.3746 -0.9969
  3844G12c C01K71392   2.298  12.615   2.381  0.9621 -0.0094 -1.2133
  3844G12c C01P71393   2.266  12.697   2.504 -0.5093 -0.9570  0.1957
  3844G12c C01Q71394   2.343  12.673   2.612 -0.9940 -0.1796  0.6252
  3844G12c H00G71395   2.353  12.573   2.652 -1.9401  0.9182  3.8107
  3844G12c C01R71396   2.383  12.782   2.690  1.2790 -0.5210 -0.2926
  3844G12c H00F71397   2.357  12.880   2.652 -1.0001 -0.5674  1.0545
  3844G12c C01S71398   2.424  12.792   2.825  0.1960  0.7381 -1.7411
  3844G12c H00E71399   2.436  12.892   2.866 -8.0935 -0.2529  4.2217
  3844G12c H00D71400   2.358  12.738   2.892  5.1387  0.8087  3.5353
  3844G12c O00571401   2.517  12.695   2.863 -0.7564  0.9238 -0.0851
  3844G12c H00C71402   2.511  12.668   2.954  2.7106 -1.3730 -0.4515
  3844G12c C01O71403   2.148  12.766   2.491 -1.1388  1.1904 -1.3237
  3844G12c H00H71404   2.111  12.813   2.581  0.1122  0.6644 -0.5177
  3844G12c C01N71405   2.060  12.750   2.396  1.5262  1.2550 -0.6644
  3844G12c O00671406   1.944  12.831   2.397  0.3717  0.1970 -1.2232
  3844G12c C01T71407   1.934  12.948   2.502 -0.5253  1.2921 -0.9676
  3844G12c H00K71408   1.917  12.898   2.598  2.1873 -0.4135 -1.3059
  3844G12c H00J71409   1.857  13.016   2.467 -4.6746 -4.9550 -5.0998
  3844G12c H00I71410   2.033  12.986   2.527  0.3969 -3.3400  3.3062
  3844G12c C01M71411   2.074  12.654   2.294 -0.0901 -0.4024 -0.3023
  3844G12c C02071412   2.366  12.309   2.069 -0.2079 -1.4523 -0.4071
  3844G12c C02171413   2.246  12.266   2.013 -0.2418 -1.0033  0.4797
  3844G12c C01L71414   2.197  12.572   2.298 -0.0091 -1.3335  0.4930
  3844G12c O00771415   1.987  12.647   2.189 -0.3931 -0.5481 -0.1561
  3844G12c C02271416   2.118  12.331   2.039  1.1939 -1.1039 -2.0086
  3844G12c C02371417   2.236  12.241   1.860 -0.4161  0.2589 -0.5890
  3844G12c C00G71418   2.235  12.240   1.581 -0.5744 -0.4053 -0.7333
  3844G12c C00E71419   2.118  12.226   1.366  0.3231  0.7596  1.1187
  3844G12c O00A71420   2.127  12.185   1.235 -1.9471 -1.3348  1.3937
  3844G12c C02471421   2.101  12.053   1.202  0.1449  0.7032 -0.1297
  3844G12c H00V71422   2.164  11.983   1.258  0.9054  0.6744 -1.0089
  3844G12c H00U71423   2.106  12.032   1.095 -5.6592 -0.4752 -0.3529
  3844G12c H00T71424   1.992  12.057   1.207 -0.1313 -2.9114 -1.8004
  3854G12c C00D71425   3.424   2.327   7.104 -0.5724 -1.2931  0.0413
  3854G12c O00B71426   3.434   2.211   7.176 -0.3577  0.3220  1.3761
  3854G12c C02571427   3.519   2.214   7.288 -1.6336 -0.3120  0.6568
  3854G12c C02671428   3.467   2.237   7.430  1.3913 -0.5394  0.3497
  3854G12c H00Y71429   3.548   2.206   7.496 -1.1560 -2.7752  2.5444
  3854G12c H00X71430   3.436   2.341   7.432  1.0708 -0.5783  6.5178
  3854G12c O00C71431   3.347   2.176   7.454  0.5878  0.3331  0.0726
  3854G12c H00W71432   3.274   2.214   7.408 -0.6072  1.5093  2.8123
  3854G12c C02771433   3.647   2.185   7.263  1.2736  1.8822 -0.5096
  3854G12c O00D71434   3.692   2.189   7.135  0.2287 -0.6094  0.2357
  3854G12c H00Z71435   3.783   2.213   7.133 -0.0646  0.6114  1.0750
  3854G12c C02871436   3.752   2.192   7.362 -0.6706 -0.1955  2.3176
  3854G12c C02971437   3.860   2.280   7.339  2.1325 -0.5577 -0.3269
  3854G12c H01071438   3.863   2.355   7.262  2.8580 -2.4765 -2.2273
  3854G12c C02T71439   3.969   2.296   7.412 -2.0927  2.0943 -0.5899
  3854G12c H01O71440   4.042   2.364   7.372 -0.6905  1.8188  1.4263
  3854G12c C02S71441   3.985   2.208   7.523  0.1860  0.9743  0.0780
  3854G12c O00J71442   4.101   2.201   7.600  0.4743 -0.2803 -1.9592
  3854G12c H01P71443   4.080   2.114   7.631  2.2766 -0.2567 -0.5925
  3854G12c C02R71444   3.897   2.095   7.542 -0.4339  0.5836  1.2744
  3854G12c O00I71445   3.930   2.013   7.646  0.0982 -0.1066 -0.4673
  3854G12c C02Q71446   3.830   1.931   7.685  0.5621 -0.8878  0.3155
  3854G12c H01N71447   3.749   1.988   7.731  2.7090  0.3972  2.6086
  3854G12c H01R71448   3.872   1.926   7.785 -4.1675 -0.1772  2.4773
  3854G12c H01Q71449   3.805   1.835   7.638 -3.5906  0.3365 -0.2145
  3854G12c C02A71450   3.785   2.086   7.460  0.0156 -0.0007 -0.9086
  3854G12c H01171451   3.705   2.016   7.478  0.8089 -2.6570 -6.3628
  3854G12c C00C71452   3.356   2.434   7.175  0.8937  0.0102 -0.1074
  3854G12c H01271453   3.282   2.409   7.249 -1.1741  0.4101 -1.9785
  3854G12c C00B71454   3.432   2.552   7.179 -0.8392 -0.2670 -0.2939
  3854G12c C00A71455   3.417   2.641   7.294  1.7278  1.3662  0.1841
  3854G12c C00971456   3.286   2.687   7.341  2.3205 -0.1670  0.3475
  3854G12c C00871457   3.151   2.682   7.295  0.6813  0.4007 -0.1586
  3854G12c H01371458   3.115   2.600   7.234  4.4692  1.3310 -3.8534
  3854G12c C00771459   3.072   2.793   7.280  0.7112  0.5066  0.9388
  3854G12c H01471460   2.973   2.792   7.237  1.5597  9.0161 -2.3146
  3854G12c C00671461   3.105   2.924   7.320 -0.2015 -1.1402 -1.1184
  3854G12c C00571462   3.226   2.926   7.385  0.4012 -1.5163 -0.5749
  3854G12c C00471463   3.281   3.066   7.390  0.5884  1.0183  0.1561
  3854G12c C00371464   3.419   3.082   7.400 -0.1553 -0.8169  0.1468
  3854G12c C00271465   3.463   3.216   7.418 -0.6029  1.1191 -0.0545
  3854G12c C00171466   3.592   3.284   7.407 -0.3387 -0.6888  0.7556
  3854G12c C00M71467   3.679   3.253   7.304 -0.6321 -0.9036 -1.0032
  3854G12c C00L71468   3.713   3.110   7.281 -1.0545 -0.0821  0.3367
  3854G12c C00R71469   3.797   3.057   7.167 -2.2871 -0.1217  1.5578
  3854G12c C00Q71470   3.846   3.127   7.053 -0.2637 -1.9089  2.3989
  3854G12c C00V71471   3.919   3.044   6.965  0.3065 -0.6556 -1.1628
  3854G12c C00U71472   3.878   2.913   6.953 -2.0429  0.1973  0.2482
  3854G12c C00T71473   3.785   2.851   7.040 -0.0476  0.1495  1.0540
  3854G12c C01671474   3.728   2.733   7.030 -2.0264 -0.1654 -1.4115
  3854G12c C01571475   3.742   2.661   6.921  0.1331  1.4138  0.4214
  3854G12c C01071476   3.830   2.702   6.824  0.5444 -1.8094  0.1070
  3854G12c C01171477   3.867   2.621   6.721 -1.9274  0.1275 -0.4803
  3854G12c H00571478   3.939   2.643   6.644 -1.6297  0.7802 -0.0241
  3854G12c C01271479   3.778   2.519   6.684 -0.7197 -2.4720  0.4072
  3854G12c C01771480   3.787   2.437   6.549 -0.1167 -0.4639 -1.3165
  3854G12c O00271481   3.682   2.444   6.455 -1.1634  3.0338 -1.6351
  3854G12c H00471482   3.650   2.358   6.431  1.2760  2.3453 -2.6112
  3854G12c C01871483   3.892   2.350   6.552 -0.9493 -0.6407  0.3457
  3854G12c O00171484   3.981   2.361   6.660  0.8436 -0.8143  0.5287
  3854G12c H00371485   3.945   2.313   6.733  2.3944 -3.8276 -0.5902
  3854G12c C01971486   3.934   2.244   6.473  1.6108  1.0915  0.5700
  3854G12c H00271487   4.037   2.215   6.495 -0.8194 -7.2861  2.9058
  3854G12c H00171488   3.849   2.177   6.489  2.8768 -0.5505  0.5950
  3854G12c O00071489   3.950   2.266   6.332  1.3124  0.8765 -0.0357
  3854G12c C01A71490   4.078   2.317   6.313 -1.4016 -0.3144 -0.1392
  3854G12c C02K71491   4.119   2.460   6.300 -0.2097 -0.0991 -2.5557
  3854G12c O00G71492   4.034   2.541   6.370 -0.7978  0.2950  0.9508
  3854G12c C02M71493   3.982   2.667   6.346  0.2301  0.8890 -1.4672
  3854G12c H01G71494   3.976   2.749   6.418 -1.8886 -2.7420  2.7148
  3854G12c H01F71495   3.884   2.634   6.313  1.5776 -0.4517 -4.3055
  3854G12c H01E71496   4.025   2.727   6.266 -2.5875  0.8797 -3.0597
  3854G12c C02J71497   4.184   2.499   6.183  0.7325  0.2151 -1.7081
  3854G12c H01H71498   4.175   2.605   6.164 -0.1618 -0.1415 -3.3888
  3854G12c C02I71499   4.286   2.416   6.139 -0.0035  0.1581  0.0437
  3854G12c C02N71500   4.399   2.442   6.055 -0.5011 -0.5691  0.5186
  3854G12c H01M71501   4.403   2.458   5.948  1.9913  2.7939  1.0127
  3854G12c C02O71502   4.506   2.477   6.138 -2.0910  0.3568 -1.6797
  3854G12c H01L71503   4.491   2.455   6.242  1.9688 -1.4704 -1.3623
  3854G12c C02P71504   4.645   2.529   6.110 -1.1404  0.3552  0.0449
  3854G12c H01K71505   4.642   2.633   6.075 -4.1204 -1.2433 -4.9402
  3854G12c H01J71506   4.704   2.533   6.201  0.2957 -3.3984 -0.6331
  3854G12c O00H71507   4.710   2.431   6.032  1.2043 -0.3855  0.8410
  3854G12c H01I71508   4.713   2.348   6.077  5.0400 -1.8433 -1.8116
  3854G12c C02H71509   4.279   2.278   6.182 -0.0010  0.2285  0.7620
  3854G12c H01C71510   4.360   2.212   6.157  1.3463  1.7922  0.9631
  3854G12c C02L71511   4.167   2.216   6.263  2.1570  0.3012 -0.3085
  3854G12c H01D71512   4.144   2.112   6.281  5.3049  0.0671  3.1738
  3854G12c C01371513   3.684   2.467   6.793 -1.7949 -1.4150  2.8943
  3854G12c H00071514   3.626   2.382   6.761 -1.1647 -1.1825  1.0520
  3854G12c C01471515   3.678   2.532   6.914 -1.0497 -0.1420 -0.2463
  3854G12c C00F71516   3.570   2.497   6.992 -1.1358  1.6120 -1.4357
  3854G12c C00H71517   3.630   2.694   7.124  0.3532 -0.2853  0.6035
  3854G12c C00I71518   3.613   2.778   7.236 -0.1700  1.4986 -0.8355
  3854G12c C00J71519   3.696   2.892   7.257 -0.1123  0.8536 -0.3606
  3854G12c C00Z71520   3.912   2.825   6.838  1.8382 -0.5399  0.8095
  3854G12c C00Y71521   3.997   2.889   6.747  0.2701  1.5946 -1.3135
  3854G12c H00671522   4.035   2.823   6.670 -2.7546 -2.3929  0.4350
  3854G12c C00X71523   4.044   3.019   6.746 -0.4777  0.3764 -0.2572
  3854G12c O00371524   4.086   3.071   6.631 -0.8383  0.2526  0.2717
  3854G12c C01B71525   3.981   3.127   6.565  0.4692  0.6351 -0.6094
  3854G12c H00971526   4.033   3.221   6.553  1.5581 -0.0859 -1.5946
  3854G12c H00871527   3.905   3.196   6.603  0.4278  1.7406 -2.6387
  3854G12c H00771528   3.955   3.101   6.463 -0.2944  3.8893 -1.2989
  3854G12c C00W71529   3.998   3.104   6.850 -0.9614  0.5400 -0.7694
  3854G12c O00471530   4.009   3.238   6.826  0.6123 -0.3729 -0.3853
  3854G12c C01C71531   3.906   3.298   6.882  0.9745  0.8430 -0.7254
  3854G12c H00A71532   3.818   3.321   6.823 -0.7029 -3.0734  0.1216
  3854G12c C00P71533   3.848   3.257   7.015  0.5712 -1.9164 -0.4907
  3854G12c C00O71534   3.772   3.366   7.073 -0.2214  0.8006  0.4717
  3854G12c C01D71535   3.779   3.492   7.007 -1.1800  0.6107 -0.2930
  3854G12c H00S71536   3.845   3.522   6.927 -3.7590 -0.3218 -2.8890
  3854G12c C01E71537   3.696   3.595   7.051 -1.7579  0.3451 -0.8104
  3854G12c O00871538   3.686   3.703   6.966  0.5436 -0.0245 -0.6229
  3854G12c C01V71539   3.687   3.826   7.031  1.7188  1.2475 -0.4049
  3854G12c C01Z71540   3.590   3.923   6.969 -2.0659 -0.5523 -0.5237
  3854G12c H00R71541   3.603   4.024   6.929  0.6048  0.3375  2.4403
  3854G12c H00Q71542   3.550   3.875   6.879 -3.4905 -0.0424 -0.1853
  3854G12c O00971543   3.490   3.952   7.062 -1.3876  0.8412 -0.1992
  3854G12c H00P71544   3.517   3.987   7.145 -1.9355  0.6066  0.0829
  3854G12c C01W71545   3.773   3.851   7.135 -1.3518 -0.6680 -0.3581
  3854G12c H00O71546   3.840   3.768   7.154 -0.0227 -0.6378 -4.4357
  3854G12c C01X71547   3.780   3.986   7.206 -1.0399 -0.0313 -0.8023
  3854G12c H00N71548   3.681   4.016   7.241 -1.5557 -0.6676 -1.7206
  3854G12c H00M71549   3.854   3.958   7.282 -3.7305  0.8165  2.2671
  3854G12c C01Y71550   3.863   4.073   7.113 -0.7355 -0.0818 -1.1014
  3854G12c C02D71551   3.998   4.054   7.085  0.3600 -0.9423 -0.0595
  3854G12c H01971552   4.055   3.973   7.125 -5.8791 -3.8348  3.8074
  3854G12c C02C71553   4.070   4.149   7.019 -1.5628  0.3999 -1.2615
  3854G12c H01A71554   4.172   4.127   6.992 -2.5108  0.6384 -5.2488
  3854G12c C02B71555   4.008   4.266   6.969 -0.0843  0.6370 -1.2844
  3854G12c O00E71556   4.085   4.360   6.898 -0.0119  0.8330  0.5228
  3854G12c H01B71557   4.052   4.416   6.829  0.6993 -1.9088 -2.1327
  3854G12c C02F71558   3.864   4.284   6.971 -0.2857  0.0728  0.9708
  3854G12c O00F71559   3.802   4.400   6.920  0.7298  0.9123  0.1311
  3854G12c C02G71560   3.740   4.485   7.027 -0.3103 -0.4645  0.6334
  3854G12c H01771561   3.689   4.444   7.115 -0.3918 -1.7781 -0.0098
  3854G12c H01671562   3.816   4.562   7.043 -0.4847 -0.0038 -0.7069
  3854G12c H01571563   3.675   4.555   6.975 -0.4207 -0.3375  0.9415
  3854G12c C02E71564   3.807   4.189   7.064 -0.5241 -1.2724  0.4847
  3854G12c H01871565   3.710   4.208   7.107  0.3845 -0.8364  2.4198
  3854G12c C01F71566   3.616   3.580   7.178 -0.4018  0.1609  1.3594
  3854G12c C01G71567   3.487   3.646   7.213 -0.0259  1.7227 -0.0793
  3854G12c H00L71568   3.434   3.726   7.164  2.6879  5.7633  3.1929
  3854G12c C01H71569   3.394   3.581   7.305 -0.1680 -2.0225 -0.3925
  3854G12c H00B71570   3.290   3.610   7.310 -0.1550 -1.2403 -3.5592
  3854G12c C01I71571   3.425   3.462   7.378  0.3868 -0.5911  0.2294
  3854G12c C01U71572   3.646   3.475   7.259 -0.7964  0.5791  0.7647
  3854G12c C00S71573   3.773   2.923   7.158 -2.0362 -0.7614 -0.0148
  3854G12c C00K71574   3.645   3.004   7.324  2.1805 -1.0049 -0.6567
  3854G12c C00N71575   3.689   3.348   7.194  2.7727  2.1564 -2.5133
  3854G12c C00071576   3.574   3.421   7.372  1.8011  0.6035  0.4421
  3854G12c C01J71577   3.363   3.331   7.427 -0.0055 -0.2813  0.2163
  3854G12c C01K71578   3.228   3.308   7.429 -1.6431  0.6139 -1.6776
  3854G12c C01P71579   3.116   3.399   7.456  0.4890  0.7911 -1.7712
  3854G12c C01Q71580   3.134   3.533   7.528  1.0975  1.0187 -0.0034
  3854G12c H00G71581   3.113   3.636   7.505 -5.5698  1.8823  7.6271
  3854G12c C01R71582   3.160   3.518   7.658  0.7590 -0.8735  0.5030
  3854G12c H00F71583   3.180   3.436   7.726  0.6590  0.3676  2.0666
  3854G12c C01S71584   3.195   3.624   7.752 -0.5207  0.6709  0.9228
  3854G12c H00E71585   3.125   3.706   7.769  2.4321  3.4615  0.1705
  3854G12c H00D71586   3.204   3.562   7.842 -0.3211  1.1632  1.2456
  3854G12c O00571587   3.334   3.634   7.757  0.2875 -1.4598  1.0432
  3854G12c H00C71588   3.370   3.678   7.682 -1.2850 -0.3821  0.8971
  3854G12c C01O71589   2.983   3.347   7.417 -0.1300 -1.1193 -1.1064
  3854G12c H00H71590   2.894   3.402   7.446  1.3403  0.6869  0.1652
  3854G12c C01N71591   2.953   3.225   7.365 -0.0535  1.0849 -1.4608
  3854G12c O00671592   2.822   3.183   7.328 -0.3304  0.1748 -0.8383
  3854G12c C01T71593   2.726   3.278   7.370 -0.7680  1.0502 -0.3493
  3854G12c H00K71594   2.625   3.256   7.338  0.1898 -2.6744 -1.0807
  3854G12c H00J71595   2.750   3.374   7.325  6.4258 -1.1676 -1.9668
  3854G12c H00I71596   2.745   3.274   7.478 -4.8925 -0.2892  0.4105
  3854G12c C01M71597   3.063   3.142   7.344  1.0407  1.4157  1.3441
  3854G12c C02071598   3.517   2.973   7.378  1.8644  0.4441  0.1203
  3854G12c C02171599   3.450   2.841   7.406  0.0039  1.2878  0.3521
  3854G12c C01L71600   3.188   3.171   7.401 -1.0327 -0.1521  2.4332
  3854G12c O00771601   3.021   3.015   7.311  1.6288  1.1612  0.1319
  3854G12c C02271602   3.307   2.815   7.407  1.4601  0.0795  1.1732
  3854G12c C02371603   3.511   2.731   7.339  2.1149  1.0902 -0.4857
  3854G12c C00G71604   3.554   2.577   7.106  1.6231 -1.0682 -0.2414
  3854G12c C00E71605   3.514   2.360   7.000  0.7692 -1.0215  1.0751
  3854G12c O00A71606   3.554   2.249   6.909 -1.2739 -0.2855  0.1121
  3854G12c C02471607   3.474   2.136   6.909  0.0466 -0.9190 -0.4903
  3854G12c H00V71608   3.468   2.048   6.844 -1.2247 -0.0583 -1.5595
  3854G12c H00U71609   3.496   2.079   6.999  5.7176  1.1455 -0.3305
  3854G12c H00T71610   3.370   2.162   6.925 -0.4960 -3.6686  0.8001
  3864G12c C00D71611  10.107   9.795   5.395  0.3514  0.2161  0.9736
  3864G12c O00B71612  10.030   9.715   5.310  0.1838  0.6933  1.4800
  3864G12c C02571613   9.953   9.782   5.228 -0.6610 -0.1363 -1.6666
  3864G12c C02671614   9.851   9.876   5.290  0.9975 -0.0348 -0.3430
  3864G12c H00Y71615   9.804   9.945   5.219  0.4675 -0.2114 -0.1658
  3864G12c H00X71616   9.872   9.961   5.356  6.0282  0.8184 -2.8562
  3864G12c O00C71617   9.725   9.840   5.359 -0.1056  0.1209 -1.0911
  3864G12c H00W71618   9.738   9.753   5.394  3.2760  0.3473 -1.6372
  3864G12c C02771619   9.948   9.759   5.092 -0.3011  0.2717 -0.8826
  3864G12c O00D71620  10.040   9.663   5.048  1.0828  0.0616 -0.0692
  3864G12c H00Z71621  10.085   9.653   5.131 -7.1764  3.7172  5.5425
  3864G12c C02871622   9.838   9.805   5.017 -0.1006  0.6850  1.0376
  3864G12c C02971623   9.848   9.867   4.901  1.6911 -0.3270  1.3434
  3864G12c H01071624   9.944   9.897   4.864  1.4096 -5.1803 -3.8900
  3864G12c C02T71625   9.734   9.925   4.847 -0.1079  1.9682 -1.3728
  3864G12c H01O71626   9.779   9.995   4.778  1.4731 -0.4391 -2.8462
  3864G12c C02S71627   9.605   9.890   4.876 -1.2190  0.6672 -0.4828
  3864G12c O00J71628   9.521   9.954   4.796  0.6386  1.0403  0.4513
  3864G12c H01P71629   9.486  10.038   4.821 -0.5864 -0.3144  3.4916
  3864G12c C02R71630   9.579   9.826   4.994 -1.2210 -0.7429 -0.0237
  3864G12c O00I71631   9.466   9.768   5.034 -0.0013 -0.6383  0.6530
  3864G12c C02Q71632   9.336   9.819   5.005  0.0609  0.7803 -1.0603
  3864G12c H01N71633   9.293   9.756   4.927  2.1578 -0.6373 -1.1391
  3864G12c H01R71634   9.350   9.924   4.982 -0.1860  1.5120  1.9462
  3864G12c H01Q71635   9.278   9.776   5.087 -3.3784 -0.1090 -3.8632
  3864G12c C02A71636   9.702   9.766   5.051 -0.5281  0.3262 -1.9500
  3864G12c H01171637   9.680   9.696   5.129  4.2241  0.5892 -0.2044
  3864G12c C00C71638  10.225   9.851   5.338 -1.7802  1.4906  0.9126
  3864G12c H01271639  10.255   9.816   5.240  2.9000 -2.1757  3.4078
  3864G12c C00B71640  10.301   9.947   5.398 -0.6551  1.0420  0.7559
  3864G12c C00A71641  10.406  10.018   5.330  0.8317  0.2058  0.1999
  3864G12c C00971642  10.500   9.976   5.235 -0.6604  0.7789  0.9596
  3864G12c C00871643  10.500   9.858   5.157 -0.6875 -0.2097  1.2856
  3864G12c H01371644  10.408   9.802   5.165 -6.0603  6.8249 -4.5715
  3864G12c C00771645  10.614   9.844   5.062 -0.0367 -0.3716 -1.3352
  3864G12c H01471646  10.601   9.760   4.995  2.2552 -0.5306 -1.6356
  3864G12c C00671647  10.737   9.907   5.119  0.4901  1.0860  0.4110
  3864G12c C00571648  10.733  10.013   5.204  0.9851  1.1275  0.3610
  3864G12c C00471649  10.841  10.060   5.278  0.8608 -0.2065 -0.3555
  3864G12c C00371650  10.824  10.158   5.389  1.6740  0.5797 -0.1816
  3864G12c C00271651  10.949  10.198   5.470  0.6788  0.7271  0.1844
  3864G12c C00171652  10.962  10.269   5.593 -0.7295 -0.7888  0.0982
  3864G12c C00M71653  10.882  10.250   5.711 -0.3902 -1.3515  2.6549
  3864G12c C00L71654  10.745  10.272   5.696  0.7810 -0.4147 -0.5332
  3864G12c C00R71655  10.655  10.235   5.791 -1.0212  1.4496 -0.5338
  3864G12c C00Q71656  10.660  10.213   5.936  0.8279  0.4405 -1.1068
  3864G12c C00V71657  10.532  10.191   6.007 -2.3452  0.0693 -0.8203
  3864G12c C00U71658  10.410  10.178   5.938 -0.5485 -0.3678  2.0368
  3864G12c C00T71659  10.411  10.199   5.802  0.3232 -0.3773 -1.2615
  3864G12c C01671660  10.341  10.101   5.733 -1.8925  0.2978 -0.5958
  3864G12c C01571661  10.228  10.045   5.793  1.0307 -0.8782 -0.7625
  3864G12c C01071662  10.210  10.057   5.927  0.5485 -2.8583  0.0319
  3864G12c C01171663  10.080  10.039   5.987 -0.7845  0.2772 -0.3605
  3864G12c H00571664  10.046  10.074   6.083  2.2089 -7.0851  3.8656
  3864G12c C01271665   9.985   9.971   5.912  1.3142  1.2953 -0.6183
  3864G12c C01771666   9.844   9.927   5.962 -1.6626  0.0674  1.4121
  3864G12c O00271667   9.849   9.786   5.974  0.3005 -0.3780 -0.2353
  3864G12c H00471668   9.763   9.763   6.007 -0.8333  8.7790  4.9818
  3864G12c C01871669   9.734  10.020   6.001 -1.2072  2.9430  0.8860
  3864G12c O00171670   9.733  10.168   5.997 -0.4123 -1.6079 -0.9282
  3864G12c H00371671   9.770  10.210   6.073 -2.9789  3.5259 -2.3083
  3864G12c C01971672   9.586   9.965   6.043 -1.2914 -0.3985  1.3799
  3864G12c H00271673   9.616   9.944   6.145  2.1891 -6.7231 -0.6566
  3864G12c H00171674   9.503  10.033   6.024 -2.4665 -2.8021 -2.8838
  3864G12c O00071675   9.550   9.834   5.993 -1.6097 -0.6799  0.8099
  3864G12c C01A71676   9.461   9.837   5.879 -0.7615  0.3750 -0.2549
  3864G12c C02K71677   9.319   9.797   5.884 -0.4884 -0.9563  2.0931
  3864G12c O00G71678   9.238   9.812   5.993  0.4567  0.7724  0.6910
  3864G12c C02M71679   9.233   9.940   6.022  0.8512  0.0093 -0.7089
  3864G12c H01G71680   9.309   9.950   6.100 -0.6424 -3.7811  1.3993
  3864G12c H01F71681   9.142   9.989   6.056  1.2801 -1.6265  3.1388
  3864G12c H01E71682   9.250   9.993   5.929  0.5524  4.3878  1.5779
  3864G12c C02J71683   9.239   9.761   5.774  0.7038  0.7889  0.4619
  3864G12c H01H71684   9.132   9.742   5.779  1.2705 -2.7778 -0.0508
  3864G12c C02I71685   9.312   9.727   5.653 -0.5465  1.4566  1.0298
  3864G12c C02N71686   9.246   9.687   5.531  1.0803 -0.2789  0.6473
  3864G12c H01M71687   9.170   9.750   5.485  0.2717  1.1973  3.8548
  3864G12c C02O71688   9.298   9.590   5.452  0.5493 -0.4088 -0.1071
  3864G12c H01L71689   9.377   9.527   5.492  1.9430  2.2827  1.4961
  3864G12c C02P71690   9.260   9.557   5.306  1.4766  1.5832  1.0053
  3864G12c H01K71691   9.169   9.615   5.289 -1.9496 -2.7972  3.5112
  3864G12c H01J71692   9.341   9.603   5.248  0.2167  5.8034  2.3892
  3864G12c O00H71693   9.241   9.428   5.252  0.5555 -0.9921  0.2402
  3864G12c H01I71694   9.148   9.412   5.260  0.5865  0.3323  5.0652
  3864G12c C02H71695   9.449   9.765   5.648  0.2761  0.6744 -0.1650
  3864G12c H01C71696   9.528   9.743   5.578 -0.8816 -0.1595 -1.2351
  3864G12c C02L71697   9.521   9.809   5.758 -0.0394  0.5974  0.3154
  3864G12c H01D71698   9.629   9.801   5.752  0.1786  4.2504 -2.4109
  3864G12c C01371699  10.012   9.933   5.791  0.4805 -0.7573  0.8454
  3864G12c H00071700   9.932   9.877   5.744  1.8983  0.1461 -2.7866
  3864G12c C01471701  10.125   9.975   5.716 -0.8126  0.1408  0.4039
  3864G12c C00F71702  10.163   9.919   5.601 -0.5189 -0.1309 -0.9395
  3864G12c C00H71703  10.365  10.071   5.605 -0.0389  1.3982 -0.9912
  3864G12c C00I71704  10.459  10.144   5.536 -1.7475 -1.7826  0.3730
  3864G12c C00J71705  10.543  10.238   5.599  1.3403  0.1118 -0.2028
  3864G12c C00Z71706  10.306  10.118   6.004  1.7233  0.9157  1.1164
  3864G12c C00Y71707  10.286  10.118   6.144 -0.4773 -0.8670 -0.8569
  3864G12c H00671708  10.196  10.095   6.199  1.0842 -4.3601  0.3943
  3864G12c C00X71709  10.412  10.130   6.214  1.2238  1.9162  1.1338
  3864G12c O00371710  10.404  10.161   6.356 -0.0138 -1.8440  0.4623
  3864G12c C01B71711  10.384  10.076   6.455  0.9759  0.7475  0.3449
  3864G12c H00971712  10.409  10.110   6.556  3.3817  1.5580 -0.4930
  3864G12c H00871713  10.435   9.984   6.427 -6.9994 -3.8403 -0.5521
  3864G12c H00771714  10.278  10.052   6.464  0.3186  1.1354 -4.9950
  3864G12c C00W71715  10.530  10.152   6.144 -0.7382 -0.4718  0.2603
  3864G12c O00471716  10.641  10.183   6.200  0.1185  0.2641  0.0147
  3864G12c C01C71717  10.763  10.150   6.149  0.1201  0.2868 -1.5019
  3864G12c H00A71718  10.845  10.184   6.211  1.5280  0.6320 -3.5106
  3864G12c C00P71719  10.775  10.186   6.013 -0.8095 -0.4005 -1.3886
  3864G12c C00O71720  10.905  10.181   5.944 -1.6069  0.7741 -0.3334
  3864G12c C01D71721  11.017  10.110   6.006  0.6412  0.1635  0.1275
  3864G12c H00S71722  11.012  10.107   6.114  7.1437 -0.5174  0.5938
  3864G12c C01E71723  11.123  10.043   5.945  0.3181  1.0544 -1.6051
  3864G12c O00871724  11.206   9.947   6.009 -1.5665 -0.4903 -1.2821
  3864G12c C01V71725  11.126   9.861   6.089  0.8027 -1.6825 -0.5268
  3864G12c C01Z71726  11.163   9.859   6.230 -0.5125  0.0349 -1.7888
  3864G12c H00R71727  11.142   9.767   6.284  4.6827 -0.6432 -0.6783
  3864G12c H00Q71728  11.271   9.867   6.236 -0.7176  1.0841  2.2222
  3864G12c O00971729  11.122   9.981   6.296 -0.4462 -0.5362  0.3207
  3864G12c H00P71730  11.117   9.961   6.388 -1.2113  6.1505  1.9889
  3864G12c C01W71731  11.063   9.765   6.021 -1.1491  0.8908  1.1748
  3864G12c H00O71732  11.014   9.686   6.076  0.5656  2.6603  5.3949
  3864G12c C01X71733  11.046   9.712   5.877 -0.4038  1.0026  0.9073
  3864G12c H00N71734  10.953   9.659   5.854  0.8537  0.2099 -2.6449
  3864G12c H00M71735  11.048   9.804   5.818 -2.1538  0.3606 -0.2035
  3864G12c C01Y71736  11.174   9.630   5.815  0.2319  1.2106 -0.2962
  3864G12c C02D71737  11.159   9.575   5.682  0.6086 -0.3662 -0.1948
  3864G12c H01971738  11.079   9.625   5.629 -0.1036 -0.3085  0.9094
  3864G12c C02C71739  11.267   9.492   5.634 -1.4883  1.7328  0.9926
  3864G12c H01A71740  11.280   9.491   5.526 -0.3069 -0.2220  1.1186
  3864G12c C02B71741  11.373   9.453   5.714 -0.0323  0.9576 -0.6214
  3864G12c O00E71742  11.483   9.426   5.653  1.0356 -0.8721  0.2557
  3864G12c H01B71743  11.491   9.444   5.560 -8.6953 -2.1497 -1.3792
  3864G12c C02F71744  11.386   9.494   5.850  0.5759 -0.2294  1.0223
  3864G12c O00F71745  11.487   9.437   5.913 -0.1890  0.1342  0.2965
  3864G12c C02G71746  11.483   9.465   6.050 -0.0306  0.9714 -0.6761
  3864G12c H01771747  11.379   9.483   6.077 -0.2402  3.7591 -3.0790
  3864G12c H01671748  11.543   9.533   6.111 -2.4151  0.1495  2.7097
  3864G12c H01571749  11.525   9.394   6.121 -4.6307 -3.1433 -1.8141
  3864G12c C02E71750  11.278   9.574   5.904  0.5029 -1.9627  1.1557
  3864G12c H01871751  11.263   9.616   6.002 -0.4487  1.9087 -0.5553
  3864G12c C01F71752  11.133  10.053   5.804 -0.7700 -0.4720 -1.9035
  3864G12c C01G71753  11.246   9.995   5.724 -0.6071  1.1110 -0.2795
  3864G12c H00L71754  11.296   9.904   5.754 -0.8844  2.3960  4.6891
  3864G12c C01H71755  11.229  10.003   5.573 -0.1471 -1.9256  0.1687
  3864G12c H00B71756  11.271   9.925   5.511  4.8775  2.7550 -2.7714
  3864G12c C01I71757  11.142  10.112   5.545 -1.7964 -0.6482  1.3840
  3864G12c C01U71758  11.071  10.166   5.756  0.5851  0.3638  1.2071
  3864G12c C00S71759  10.523  10.252   5.736  0.2696 -0.0266  1.1534
  3864G12c C00K71760  10.684  10.231   5.575 -0.3252 -0.0350  1.2565
  3864G12c C00N71761  10.949  10.201   5.817 -1.0105 -0.2356  0.6393
  3864G12c C00071762  11.097  10.214   5.629 -0.3098  1.0964 -0.4014
  3864G12c C01J71763  11.072  10.130   5.425 -0.6431  0.1469 -0.8235
  3864G12c C01K71764  11.103  10.054   5.309  0.4469 -0.5185 -0.8381
  3864G12c C01P71765  11.221   9.998   5.256 -0.9887  0.0931 -0.0827
  3864G12c C01Q71766  11.348  10.060   5.285  1.7142  3.5639 -0.0211
  3864G12c H00G71767  11.362  10.158   5.242 -0.4249  5.5297  3.5460
  3864G12c C01R71768  11.461   9.988   5.303 -0.7210  0.3864  1.5189
  3864G12c H00F71769  11.451   9.881   5.314  1.6133 -0.2947 -2.1539
  3864G12c C01S71770  11.599  10.021   5.314 -0.8889  1.1380  0.9283
  3864G12c H00E71771  11.642   9.975   5.225 -2.0908  1.0173  0.3997
  3864G12c H00D71772  11.622  10.126   5.334 -2.5296  1.2514  2.3540
  3864G12c O00571773  11.672   9.938   5.415 -0.1921 -1.1990 -0.7330
  3864G12c H00C71774  11.692   9.996   5.486 -3.5865  0.6871 -1.2112
  3864G12c C01O71775  11.220   9.906   5.146  0.5603 -1.2836  0.2206
  3864G12c H00H71776  11.323   9.894   5.116  0.4235  0.9564 -1.2372
  3864G12c C01N71777  11.104   9.877   5.078 -0.3130 -1.8433 -0.9960
  3864G12c O00671778  11.092   9.774   4.979 -1.5916  0.1707  0.0555
  3864G12c C01T71779  11.128   9.646   5.045 -1.3704  0.3859 -2.0848
  3864G12c H00K71780  11.100   9.615   5.146 -0.4488  5.2512 -0.1835
  3864G12c H00J71781  11.232   9.618   5.034 -0.1361  2.5139  2.7217
  3864G12c H00I71782  11.068   9.566   5.003 -0.1362 -0.4512 -2.2732
  3864G12c C01M71783  10.978   9.919   5.129  1.5999 -0.4114  0.1202
  3864G12c C02071784  10.699  10.191   5.444 -0.3857 -0.0146  0.3462
  3864G12c C02171785  10.600  10.135   5.366 -0.4232 -0.3314  1.8082
  3864G12c C01L71786  10.984  10.020   5.242  2.0759 -0.5890  0.3162
  3864G12c O00771787  10.851   9.892   5.054 -1.1801 -2.2024  0.0576
  3864G12c C02271788  10.619  10.071   5.257  1.7302  2.0056 -0.5290
  3864G12c C02371789  10.474  10.109   5.406 -0.3626 -1.8537 -1.2825
  3864G12c C00G71790  10.286   9.964   5.539 -0.6878 -1.6249 -1.0729
  3864G12c C00E71791  10.090   9.807   5.529  1.0417  1.3072  0.9572
  3864G12c O00A71792   9.985   9.721   5.581  0.4127 -0.9060 -1.6198
  3864G12c C02471793  10.023   9.632   5.678  0.1137  0.6195  0.9198
  3864G12c H00V71794  10.099   9.692   5.729  2.6671 -2.5835  1.0922
  3864G12c H00U71795  10.086   9.578   5.607  4.3382  8.1283 -1.6009
  3864G12c H00T71796   9.953   9.562   5.722 -5.0073  3.1128 -2.8052
  3874G12c C00D71797   3.681   7.851   1.560  0.4735 -0.3613  0.1081
  3874G12c O00B71798   3.572   7.833   1.650 -0.4505  0.0934  0.0869
  3874G12c C02571799   3.530   7.941   1.720 -0.0025  0.5351 -2.5805
  3874G12c C02671800   3.611   7.981   1.861 -0.0831  0.0418 -0.0494
  3874G12c H00Y71801   3.583   8.062   1.928  6.6855 -0.4508  3.7774
  3874G12c H00X71802   3.698   8.021   1.809  2.7925 -5.8578 -0.1014
  3874G12c O00C71803   3.628   7.882   1.946 -0.1324  0.1465  0.3275
  3874G12c H00W71804   3.682   7.916   2.016  4.0091 -1.0002 -2.1277
  3874G12c C02771805   3.401   7.976   1.713  1.4998  0.8330  0.2346
  3874G12c O00D71806   3.339   7.855   1.650  0.9158 -0.7766  0.1719
  3874G12c H00Z71807   3.407   7.791   1.653  2.7964  1.0615 -1.5828
  3874G12c C02871808   3.352   8.112   1.726  0.2516  1.6750 -0.2389
  3874G12c C02971809   3.389   8.222   1.648 -0.0325  0.2258 -0.2953
  3874G12c H01071810   3.469   8.198   1.579  0.8008 -5.2585  2.3470
  3874G12c C02T71811   3.342   8.349   1.681 -0.0814 -1.8333  0.2485
  3874G12c H01O71812   3.355   8.426   1.606 -1.9754 -1.2778  0.4720
  3874G12c C02S71813   3.252   8.370   1.790 -1.6890 -0.0826 -1.9781
  3874G12c O00J71814   3.222   8.506   1.820  0.7121 -0.0461  0.5782
  3874G12c H01P71815   3.153   8.499   1.884 -0.6629  1.3543 -0.7117
  3874G12c C02R71816   3.210   8.264   1.878 -1.0306  1.0448  0.7741
  3874G12c O00I71817   3.142   8.278   1.987 -1.3510  2.1155  0.4626
  3874G12c C02Q71818   3.174   8.189   2.097 -1.5652 -2.3347  0.7507
  3874G12c H01N71819   3.283   8.184   2.099 -1.3928 -0.2733 -1.2764
  3874G12c H01R71820   3.120   8.104   2.139 -3.9136 -0.8161  0.9304
  3874G12c H01Q71821   3.163   8.270   2.170 -3.8315  1.1211 -3.2132
  3874G12c C02A71822   3.257   8.135   1.828 -0.6443  0.3991 -0.7544
  3874G12c H01171823   3.215   8.054   1.885 -0.0521  0.9834  0.5594
  3874G12c C00C71824   3.700   7.973   1.503  0.5258  0.4692 -0.0109
  3874G12c H01271825   3.636   8.059   1.515 -0.4253 -0.4823  1.9775
  3874G12c C00B71826   3.816   8.027   1.431 -0.0001  0.2455  0.4079
  3874G12c C00A71827   3.845   8.158   1.354  0.1610 -0.3820 -2.0154
  3874G12c C00971828   3.757   8.229   1.276 -0.5106  0.7951  1.1968
  3874G12c C00871829   3.615   8.198   1.236 -0.2442 -0.2730 -1.5286
  3874G12c H01371830   3.550   8.177   1.319 -1.9586  2.1647 -2.1833
  3874G12c C00771831   3.563   8.269   1.120  0.7274 -0.4065 -0.2332
  3874G12c H01471832   3.456   8.272   1.103  1.1114 -0.3531 -2.9465
  3874G12c C00671833   3.649   8.328   1.014 -0.8166 -0.2925 -1.0644
  3874G12c C00571834   3.795   8.317   1.037  1.2422  0.3809 -0.7073
  3874G12c C00471835   3.901   8.328   0.947 -1.5780  0.1499  0.4027
  3874G12c C00371836   4.040   8.301   0.976 -0.1280 -0.6338 -1.3727
  3874G12c C00271837   4.136   8.298   0.865 -2.0764  0.7769  2.0942
  3874G12c C00171838   4.274   8.244   0.847  0.4873 -0.3426 -0.6401
  3874G12c C00M71839   4.345   8.138   0.915 -1.2394 -0.5963 -0.0001
  3874G12c C00L71840   4.274   8.060   1.009 -0.0263 -0.8603 -1.7235
  3874G12c C00R71841   4.347   7.965   1.091  0.3534 -0.4735 -1.1368
  3874G12c C00Q71842   4.429   7.856   1.062  0.7212  0.2676  0.8375
  3874G12c C00V71843   4.439   7.768   1.171 -0.0358  0.2641  1.3220
  3874G12c C00U71844   4.375   7.788   1.301  0.7194 -1.4165 -0.0226
  3874G12c C00T71845   4.272   7.887   1.309 -1.3634  1.5711  0.3276
  3874G12c C01671846   4.178   7.886   1.414 -1.1593 -1.3466 -0.7119
  3874G12c C01571847   4.169   7.774   1.496  0.1215  0.9475  0.0781
  3874G12c C01071848   4.271   7.676   1.493  1.2222 -0.2311  0.0711
  3874G12c C01171849   4.256   7.561   1.577  0.2362 -0.1410  0.9139
  3874G12c H00571850   4.351   7.513   1.597  2.6578  2.0922 -4.4174
  3874G12c C01271851   4.136   7.525   1.628 -1.1846  0.0379 -1.4756
  3874G12c C01771852   4.117   7.423   1.727 -1.1178 -0.3055  0.4757
  3874G12c O00271853   4.119   7.475   1.845  0.5782 -0.1384 -0.7887
  3874G12c H00471854   4.074   7.555   1.867  2.5474  1.1883 -1.4979
  3874G12c C01871855   4.105   7.298   1.695  0.4178  0.1038  1.7141
  3874G12c O00171856   4.135   7.257   1.570  0.5189 -0.1411  1.4919
  3874G12c H00371857   4.198   7.316   1.532 -5.8341  2.7309 -5.7954
  3874G12c C01971858   4.072   7.183   1.778  1.1476 -3.1657  0.0460
  3874G12c H00271859   4.070   7.096   1.712 -4.8330 -1.5658 -2.2516
  3874G12c H00171860   4.139   7.165   1.861 -1.0860 -4.2754  1.6722
  3874G12c O00071861   3.934   7.180   1.800 -0.3873  0.0942  0.4673
  3874G12c C01A71862   3.822   7.154   1.724  0.5943 -1.2144  0.3808
  3874G12c C02K71863   3.695   7.191   1.763 -3.1135 -0.5789  0.1417
  3874G12c O00G71864   3.698   7.273   1.877  0.4602 -0.6597  1.0795
  3874G12c C02M71865   3.722   7.413   1.849  0.9054 -0.1903 -0.2035
  3874G12c H01G71866   3.816   7.453   1.888 -2.5345  4.2030  4.2319
  3874G12c H01F71867   3.673   7.445   1.757 -2.8127  0.4278  1.9171
  3874G12c H01E71868   3.652   7.460   1.917 -1.0523 -0.1663 -2.1959
  3874G12c C02J71869   3.579   7.133   1.709 -0.3400  0.1016  0.2708
  3874G12c H01H71870   3.483   7.158   1.750 -0.9124  2.2016 -2.2312
  3874G12c C02I71871   3.592   7.052   1.585  1.0744  0.2430  0.5687
  3874G12c C02N71872   3.491   6.957   1.549 -0.9354  1.3153 -0.8453
  3874G12c H01M71873   3.398   7.002   1.517 -1.8374  1.7448  2.2525
  3874G12c C02O71874   3.513   6.824   1.533 -0.2634 -1.7310 -1.8947
  3874G12c H01L71875   3.611   6.790   1.503 -1.4332 -7.9971  0.5469
  3874G12c C02P71876   3.421   6.702   1.494  0.0117  0.0733  0.4145
  3874G12c H01K71877   3.477   6.617   1.532  0.9840 -0.0731 -1.2855
  3874G12c H01J71878   3.314   6.686   1.508 -0.2172  3.9333  4.2381
  3874G12c O00H71879   3.431   6.728   1.357  0.2594  0.5480 -0.6563
  3874G12c H01I71880   3.458   6.651   1.309 -6.3468 -0.7504 -2.8468
  3874G12c C02H71881   3.727   7.046   1.523 -1.5153  1.7298 -0.2575
  3874G12c H01C71882   3.730   6.999   1.426  3.2439  3.2788 -1.0155
  3874G12c C02L71883   3.838   7.099   1.592  0.4504 -1.6591  0.2453
  3874G12c H01D71884   3.928   7.093   1.532  1.4011  1.8297  1.1674
  3874G12c C01371885   4.034   7.618   1.600  0.1579  0.8060 -0.8470
  3874G12c H00071886   3.946   7.572   1.642  3.2229 -0.9342  4.1443
  3874G12c C01471887   4.043   7.733   1.534  0.5501  0.0945  0.0508
  3874G12c C00F71888   3.925   7.825   1.509 -1.2170 -0.3673  0.2524
  3874G12c C00H71889   4.063   7.965   1.380 -0.9331  0.2662 -0.8604
  3874G12c C00I71890   4.060   8.070   1.296 -0.8707  0.9717 -0.5243
  3874G12c C00J71891   4.164   8.059   1.203  0.3965 -1.4856  0.3939
  3874G12c C00Z71892   4.378   7.676   1.394  0.9672  0.1097  0.9912
  3874G12c C00Y71893   4.462   7.563   1.381 -0.9171 -1.7819 -0.0705
  3874G12c H00671894   4.410   7.481   1.430 -0.7704 -0.2187  2.7890
  3874G12c C00X71895   4.524   7.550   1.256 -0.8088  0.3366 -1.0818
  3874G12c O00371896   4.622   7.459   1.257  0.8779 -0.7829 -0.7025
  3874G12c C01B71897   4.670   7.388   1.135  0.3059 -0.6883  0.0486
  3874G12c H00971898   4.746   7.317   1.167  3.8630  3.1093  0.4040
  3874G12c H00871899   4.709   7.449   1.053 -1.7614  1.0699  0.3168
  3874G12c H00771900   4.591   7.339   1.079  1.5449  0.2944 -2.6556
  3874G12c C00W71901   4.501   7.646   1.152  0.4143 -1.1699  0.7977
  3874G12c O00471902   4.548   7.614   1.021  0.7313  0.1209 -0.3825
  3874G12c C01C71903   4.573   7.716   0.942  0.9785 -0.3623 -0.4119
  3874G12c H00A71904   4.674   7.753   0.942 -0.4631  3.9027 -0.3716
  3874G12c C00P71905   4.485   7.824   0.944 -0.0103  1.0518  0.3650
  3874G12c C00O71906   4.427   7.901   0.824 -0.0552  0.0153  1.1343
  3874G12c C01D71907   4.448   7.834   0.695 -1.6877 -0.4629 -2.1861
  3874G12c H00S71908   4.496   7.737   0.688 -1.6173 -0.9565  3.3330
  3874G12c C01E71909   4.412   7.890   0.572 -1.3714 -0.3334  0.6505
  3874G12c O00871910   4.465   7.838   0.462  0.0629  0.1323 -0.2035
  3874G12c C01V71911   4.583   7.911   0.421  0.0522 -0.2478 -1.1693
  3874G12c C01Z71912   4.685   7.947   0.539 -0.1607  0.3546 -1.1447
  3874G12c H00R71913   4.757   8.012   0.490  3.4715 -2.4763  0.1962
  3874G12c H00Q71914   4.640   8.010   0.616  0.6460 -1.9599  1.3145
  3874G12c O00971915   4.725   7.806   0.586 -0.2012 -2.5277 -0.3399
  3874G12c H00P71916   4.817   7.793   0.568 -1.1892 -0.9034 -9.4376
  3874G12c C01W71917   4.599   7.960   0.300 -0.0157 -1.5077 -0.1457
  3874G12c H00O71918   4.692   8.013   0.285 -0.9048  0.4565  1.0337
  3874G12c C01X71919   4.514   7.951   0.173  0.8361 -2.1017 -1.3049
  3874G12c H00N71920   4.434   7.877   0.162 -1.7385  1.1746 -6.4711
  3874G12c H00M71921   4.456   8.042   0.159  1.6210 -0.1661  5.9636
  3874G12c C01Y71922   4.573   7.939   0.046  0.0727  1.5430 -1.3399
  3874G12c C02D71923   4.688   7.872   0.032 -1.4485  1.0302  0.8408
  3874G12c H01971924   4.725   7.797   0.101  1.5937  1.8938  0.2156
  3874G12c C02C71925   4.735   7.861  -0.099 -0.2890 -0.3171 -0.4301
  3874G12c H01A71926   4.835   7.832  -0.130 -2.8657 -9.5524 -1.6128
  3874G12c C02B71927   4.672   7.895  -0.218 -1.2928 -1.0462  0.6005
  3874G12c O00E71928   4.722   7.849  -0.343 -0.2024  0.1993  0.7593
  3874G12c H01B71929   4.660   7.824  -0.410  1.8131  3.9874 -2.7754
  3874G12c C02F71930   4.560   7.974  -0.195 -2.3385 -1.0808  1.0542
  3874G12c O00F71931   4.491   8.028  -0.301  0.9010  1.0008  1.0656
  3874G12c C02G71932   4.508   8.164  -0.307  0.5481  0.3035  0.9507
  3874G12c H01771933   4.533   8.199  -0.408  0.6494 -1.7232  0.2478
  3874G12c H01671934   4.403   8.189  -0.293  0.4847 -0.3996  1.7180
  3874G12c H01571935   4.545   8.243  -0.241 -1.1694  1.8315  0.1488
  3874G12c C02E71936   4.508   7.992  -0.073  0.6130  1.0760 -0.4194
  3874G12c H01871937   4.413   8.040  -0.087 -0.0055 -0.9138 -3.6048
  3874G12c C01F71938   4.349   8.019   0.572  0.5384  0.7130  1.1120
  3874G12c C01G71939   4.258   8.088   0.470  1.1892 -0.9687 -0.2772
  3874G12c H00L71940   4.250   8.057   0.367  0.1547  0.1770 -0.5497
  3874G12c C01H71941   4.196   8.216   0.500  0.8628  1.2518 -0.7416
  3874G12c H00B71942   4.106   8.237   0.444 -1.2631 -0.2802  1.9392
  3874G12c C01I71943   4.192   8.267   0.629 -0.8319 -0.5008 -1.3583
  3874G12c C01U71944   4.363   8.106   0.686 -1.5849 -0.6447  1.4960
  3874G12c C00S71945   4.276   7.974   1.210 -0.5267  1.5033  0.0019
  3874G12c C00K71946   4.175   8.129   1.088  0.7203 -0.5450  0.7334
  3874G12c C00N71947   4.394   8.049   0.814 -0.9831  0.9538 -1.5816
  3874G12c C00071948   4.307   8.231   0.708  1.6365  0.4887 -0.9805
  3874G12c C01J71949   4.087   8.329   0.728 -0.7168 -0.2134 -0.3298
  3874G12c C01K71950   3.941   8.356   0.707  0.9056  1.1511 -0.6915
  3874G12c C01P71951   3.886   8.427   0.600  0.5722  0.5586  0.3762
  3874G12c C01Q71952   3.952   8.416   0.471 -0.0303 -0.6143  0.9020
  3874G12c H00G71953   4.009   8.501   0.435  0.6187 -1.6090 -0.4688
  3874G12c C01R71954   3.892   8.345   0.388  1.1650  1.3150  0.7610
  3874G12c H00F71955   3.910   8.379   0.287  0.2101  1.5068  0.6526
  3874G12c C01S71956   3.808   8.215   0.381  0.2863  1.6978  0.6590
  3874G12c H00E71957   3.798   8.167   0.283 -1.7168 -4.6606  3.6883
  3874G12c H00D71958   3.844   8.153   0.463  2.3375 -1.0391 -2.1742
  3874G12c O00571959   3.669   8.253   0.389  1.9316  0.1997 -0.8842
  3874G12c H00C71960   3.604   8.187   0.407  5.1290 -1.3304  6.7801
  3874G12c C01O71961   3.752   8.484   0.602  0.5057  0.5362 -0.6412
  3874G12c H00H71962   3.693   8.512   0.517 -2.2002 -2.4143  0.1374
  3874G12c C01N71963   3.663   8.439   0.705 -2.0280  0.6161  1.1220
  3874G12c O00671964   3.521   8.466   0.692  0.0489 -0.5591 -0.7080
  3874G12c C01T71965   3.437   8.364   0.632 -1.0288 -0.6369  0.3885
  3874G12c H00K71966   3.467   8.383   0.529 -1.8854 -0.0625  0.2399
  3874G12c H00J71967   3.331   8.374   0.651 -0.9058 -2.6834  2.3778
  3874G12c H00I71968   3.487   8.270   0.654 -1.1829  0.0038  3.7238
  3874G12c C01M71969   3.711   8.384   0.806 -0.4826 -1.8788 -1.8679
  3874G12c C02071970   4.064   8.233   1.093  1.2218  0.4410 -0.4356
  3874G12c C02171971   3.964   8.246   1.194  0.7998  0.0324  1.2105
  3874G12c C01L71972   3.855   8.351   0.822  0.0951 -0.7439 -0.8325
  3874G12c O00771973   3.620   8.397   0.902 -0.1034  0.6367 -0.2413
  3874G12c C02271974   3.832   8.307   1.172 -0.7586  0.1006  1.7813
  3874G12c C02371975   3.972   8.173   1.308 -0.3395 -1.7176  0.0368
  3874G12c C00G71976   3.937   7.940   1.444  2.8028 -0.1317 -0.3442
  3874G12c C00E71977   3.804   7.795   1.591 -0.0197  0.9725 -0.2446
  3874G12c O00A71978   3.826   7.749   1.720 -0.5475 -1.1862  1.3125
  3874G12c C02471979   3.933   7.784   1.802  3.4235  0.1455 -0.4779
  3874G12c H00V71980   3.927   7.883   1.847  4.5353 -2.1048  5.0958
  3874G12c H00U71981   4.032   7.808   1.762  4.6819 -3.3955  0.3667
  3874G12c H00T71982   3.973   7.691   1.842  0.1151 -0.2562  2.1688
  3884G12c C00D71983   6.596   8.201   0.082  0.7344 -0.8473  0.8999
  3884G12c O00B71984   6.487   8.269   0.020  0.6976 -0.1046 -0.4493
  3884G12c C02571985   6.395   8.182  -0.048  0.7347  0.4111  1.7328
  3884G12c C02671986   6.250   8.208  -0.009 -0.4408  0.4674  0.1212
  3884G12c H00Y71987   6.196   8.126  -0.055  4.9174 -4.8415  2.7308
  3884G12c H00X71988   6.221   8.279  -0.087  0.7865  0.5722 -0.2498
  3884G12c O00C71989   6.239   8.237   0.142  0.0713  0.8513 -0.4362
  3884G12c H00W71990   6.236   8.331   0.131  4.6346  1.5987  3.2477
  3884G12c C02771991   6.426   8.113  -0.173  0.1200  1.2608 -0.7821
  3884G12c O00D71992   6.563   8.102  -0.205  0.2830  0.0939 -0.3054
  3884G12c H00Z71993   6.586   8.084  -0.115 -2.2395  0.6311  0.5013
  3884G12c C02871994   6.315   8.033  -0.251 -0.9523 -3.4429  0.7732
  3884G12c C02971995   6.206   8.104  -0.299 -0.4967  2.5925 -0.7613
  3884G12c H01071996   6.186   8.210  -0.289 -3.5128  2.0540 -0.5010
  3884G12c C02T71997   6.111   8.042  -0.383  0.5428 -1.2040 -0.1651
  3884G12c H01O71998   6.019   8.086  -0.419  0.9170  2.5368  3.1251
  3884G12c C02S71999   6.110   7.900  -0.394 -1.1126 -1.7674 -1.0318
  3884G12c O00J72000   6.003   7.835  -0.455 -0.9367 -1.7008 -0.8062
  3884G12c H01P72001   6.038   7.747  -0.457  0.3348 -1.5204  4.4346
  3884G12c C02R72002   6.222   7.833  -0.349  0.7291  0.4867 -0.5589
  3884G12c O00I72003   6.221   7.696  -0.355 -2.6589 -1.5728 -0.2207
  3884G12c C02Q72004   6.328   7.623  -0.347 -1.1068  0.8499 -0.6289
  3884G12c H01N72005   6.296   7.519  -0.342  1.6663  0.0096  0.3555
  3884G12c H01R72006   6.387   7.648  -0.259 -1.2609  1.3859 -0.6702
  3884G12c H01Q72007   6.398   7.613  -0.430  2.0501  0.9096  1.9372
  3884G12c C02A72008   6.332   7.915  -0.306  0.5534  0.0349 -1.3035
  3884G12c H01172009   6.427   7.870  -0.282  2.4224  2.5475 -3.6345
  3884G12c C00C72010   6.558   8.102   0.185 -2.0292  0.3250  0.3039
  3884G12c H01272011   6.456   8.113   0.218 -2.7079 -2.0424 -0.8648
  3884G12c C00B72012   6.657   8.014   0.226  0.1961  0.0870 -0.5458
  3884G12c C00A72013   6.646   7.898   0.301  2.4138  1.6188 -0.1489
  3884G12c C00972014   6.552   7.855   0.408 -0.4265  2.0737  2.2960
  3884G12c C00872015   6.439   7.896   0.483  0.0132 -0.2679  0.4090
  3884G12c H01372016   6.376   7.973   0.441  1.5811  1.9126  1.9567
  3884G12c C00772017   6.402   7.863   0.620  0.8343 -0.7081 -1.6331
  3884G12c H01472018   6.318   7.906   0.673  3.2319  3.1448 -0.8161
  3884G12c C00672019   6.474   7.743   0.661  1.4908 -1.1354 -0.5367
  3884G12c C00572020   6.579   7.694   0.584  0.2564  0.0954  1.9692
  3884G12c C00472021   6.684   7.609   0.648 -0.2767  0.3923 -0.3021
  3884G12c C00372022   6.816   7.598   0.590 -0.4702 -1.1296 -1.0706
  3884G12c C00272023   6.909   7.532   0.686 -0.6181  2.6257  0.7074
  3884G12c C00172024   7.048   7.501   0.672 -1.1100 -0.5251 -0.8761
  3884G12c C00M72025   7.135   7.599   0.609  0.1167 -0.2869 -2.9380
  3884G12c C00L72026   7.116   7.660   0.475 -0.4913  0.8070  0.0793
  3884G12c C00R72027   7.196   7.759   0.396 -0.7673  0.5796 -0.0994
  3884G12c C00Q72028   7.325   7.807   0.435 -0.8464  0.6696 -0.3726
  3884G12c C00V72029   7.365   7.918   0.348  0.3966  0.9005  0.7385
  3884G12c C00U72030   7.261   7.990   0.278  0.1335  0.4089 -0.6402
  3884G12c C00T72031   7.128   7.941   0.256  0.3067 -0.2002 -0.3641
  3884G12c C01672032   7.023   8.019   0.213  0.7876 -0.0278  0.5011
  3884G12c C01572033   7.053   8.151   0.190  1.4835 -1.1661  0.8734
  3884G12c C01072034   7.194   8.190   0.171  1.3286  1.7219  1.1378
  3884G12c C01172035   7.225   8.324   0.144  2.0069  0.4818  1.2538
  3884G12c H00572036   7.323   8.369   0.141  0.4555  4.2788  3.2415
  3884G12c C01272037   7.118   8.420   0.132  1.4511  1.1583  0.1075
  3884G12c C01772038   7.128   8.552   0.095  1.0618 -0.2895 -0.6111
  3884G12c O00272039   7.122   8.672   0.173 -0.3279  1.3702 -0.3509
  3884G12c H00472040   7.108   8.653   0.264  1.8383 -2.3463 -0.6665
  3884G12c C01872041   7.175   8.598  -0.027 -0.0891  0.3789  1.0999
  3884G12c O00172042   7.227   8.723  -0.053 -1.2736 -0.7720 -0.5191
  3884G12c H00372043   7.226   8.766   0.031 -2.3855 -3.1836  0.7650
  3884G12c C01972044   7.188   8.514  -0.148  1.1372  1.7838  1.1419
  3884G12c H00272045   7.202   8.410  -0.118 -2.0390  0.3630 -1.9682
  3884G12c H00172046   7.102   8.507  -0.215  1.1974  7.9712  0.1277
  3884G12c O00072047   7.295   8.573  -0.222  0.2953 -0.0604 -0.2789
  3884G12c C01A72048   7.373   8.521  -0.328  1.0256 -2.9489 -0.2160
  3884G12c C02K72049   7.318   8.461  -0.432  0.5994 -0.5925  0.1679
  3884G12c O00G72050   7.199   8.416  -0.447  0.1853  0.1690 -0.5658
  3884G12c C02M72051   7.135   8.487  -0.548  0.6289  1.5546  1.9290
  3884G12c H01G72052   7.204   8.547  -0.608 -2.6889  2.7416 -0.8412
  3884G12c H01F72053   7.079   8.577  -0.523 -2.3664  0.2423  0.1718
  3884G12c H01E72054   7.067   8.458  -0.628  2.6898  0.5523  0.4718
  3884G12c C02J72055   7.396   8.407  -0.538 -0.2286  1.2799  1.0280
  3884G12c H01H72056   7.352   8.343  -0.613  0.1738  2.2236 -0.0404
  3884G12c C02I72057   7.543   8.417  -0.545  1.7827  1.4768 -0.1618
  3884G12c C02N72058   7.634   8.379  -0.653  0.5835 -0.2124 -2.9978
  3884G12c H01M72059   7.734   8.420  -0.647  1.1901 -2.0938  3.2632
  3884G12c C02O72060   7.609   8.279  -0.737  0.5416  0.2055  0.6227
  3884G12c H01L72061   7.520   8.219  -0.725  2.9763 -3.5846  0.5642
  3884G12c C02P72062   7.693   8.233  -0.852 -1.9152  0.6925 -0.2369
  3884G12c H01K72063   7.642   8.285  -0.934  1.0536  4.6962  0.3089
  3884G12c H01J72064   7.795   8.260  -0.878  1.0714 -3.0623  6.4212
  3884G12c O00H72065   7.692   8.103  -0.866 -0.6085 -1.4534  0.4833
  3884G12c H01I72066   7.683   8.069  -0.778  1.8691 -1.3095  0.8312
  3884G12c C02H72067   7.593   8.480  -0.428 -0.2945 -0.3529  1.1032
  3884G12c H01C72068   7.696   8.513  -0.426 -2.0806  5.8002  3.2319
  3884G12c C02L72069   7.513   8.517  -0.315 -0.0665 -0.0737 -1.5507
  3884G12c H01D72070   7.557   8.524  -0.217 -4.6794 -3.7150  1.0008
  3884G12c C01372071   6.985   8.378   0.154  1.2152  0.2418  0.3699
  3884G12c H00072072   6.891   8.431   0.163 -2.1538 -4.6566 -3.1998
  3884G12c C01472073   6.944   8.248   0.175 -0.0195  0.2401  0.8216
  3884G12c C00F72074   6.815   8.184   0.164  0.6088 -1.2949 -1.0326
  3884G12c C00H72075   6.900   7.965   0.218  1.0598  0.7404 -0.5202
  3884G12c C00I72076   6.869   7.841   0.281  0.9085  0.4856 -0.6572
  3884G12c C00J72077   6.979   7.759   0.313 -0.8031 -1.8821 -2.1679
  3884G12c C00Z72078   7.297   8.099   0.211 -0.4712  1.2910  0.6813
  3884G12c C00Y72079   7.436   8.134   0.199  1.6066 -0.9559 -0.9488
  3884G12c H00672080   7.453   8.215   0.130  0.5439 -2.2274 -2.7427
  3884G12c C00X72081   7.532   8.062   0.269  0.0842  2.0102 -0.3978
  3884G12c O00372082   7.667   8.090   0.285 -0.7605 -0.6570  0.2903
  3884G12c C01B72083   7.742   8.044   0.166  0.4777  0.1530 -0.7448
  3884G12c H00972084   7.833   8.104   0.158 -0.3897  2.2239  3.4010
  3884G12c H00872085   7.674   8.035   0.082  3.4640  3.7031 -3.7305
  3884G12c H00772086   7.775   7.945   0.197  1.4845  1.4540  2.6333
  3884G12c C00W72087   7.492   7.962   0.353  0.1695 -0.0595  0.4710
  3884G12c O00472088   7.583   7.922   0.438  0.5862  1.4170 -0.4847
  3884G12c C01C72089   7.544   7.838   0.540  0.8396 -0.8436  1.3279
  3884G12c H00A72090   7.629   7.792   0.587  2.3004  5.1602  5.0884
  3884G12c C00P72091   7.408   7.788   0.547  0.6094  0.0616 -0.1414
  3884G12c C00O72092   7.364   7.730   0.672  0.8316  0.2053 -0.3816
  3884G12c C01D72093   7.444   7.718   0.790 -0.8749 -0.3111 -0.1999
  3884G12c H00S72094   7.546   7.748   0.768 -1.9733  5.4204  1.7524
  3884G12c C01E72095   7.399   7.675   0.925 -0.2863 -0.6936 -0.6638
  3884G12c O00872096   7.462   7.710   1.042 -0.2666  0.2723  0.6160
  3884G12c C01V72097   7.588   7.678   1.046 -0.4805  1.9530  0.2664
  3884G12c C01Z72098   7.672   7.790   1.091  0.2010 -1.3429 -0.6806
  3884G12c H00R72099   7.615   7.781   1.183 -0.0524  0.4369 -0.6390
  3884G12c H00Q72100   7.671   7.865   1.012  1.4035  1.8739  2.2495
  3884G12c O00972101   7.807   7.764   1.151  0.8486 -0.1725  0.5700
  3884G12c H00P72102   7.831   7.677   1.123 -0.2594  1.0895 -4.8417
  3884G12c C01W72103   7.643   7.593   0.958 -0.1625 -0.3207 -1.1148
  3884G12c H00O72104   7.603   7.510   0.901  5.0996 -0.7350 -4.5405
  3884G12c C01X72105   7.808   7.568   0.932  0.5448  0.7190 -0.5482
  3884G12c H00N72106   7.885   7.643   0.945  2.2294 -0.1377 -4.8867
  3884G12c H00M72107   7.844   7.490   0.999 -0.4150  1.9757  1.4817
  3884G12c C01Y72108   7.851   7.543   0.786  2.6119 -1.8358 -0.4884
  3884G12c C02D72109   7.865   7.411   0.747  1.1409  0.1729 -1.8779
  3884G12c H01972110   7.886   7.322   0.804  3.6122 -2.1816 -6.2813
  3884G12c C02C72111   7.877   7.395   0.603 -2.5021  0.3031  0.4283
  3884G12c H01A72112   7.860   7.302   0.550  0.3259 -2.0130  3.4132
  3884G12c C02B72113   7.841   7.489   0.513  0.1624 -1.5975 -1.5872
  3884G12c O00E72114   7.789   7.450   0.403  1.2466  0.8330 -1.7990
  3884G12c H01B72115   7.841   7.507   0.348 -2.2259  4.3973 -1.5545
  3884G12c C02F72116   7.840   7.620   0.559 -0.9677 -0.1882  0.0601
  3884G12c O00F72117   7.812   7.697   0.457 -0.0916 -0.1197 -0.1317
  3884G12c C02G72118   7.896   7.806   0.447  0.2649 -0.4413 -1.5114
  3884G12c H01772119   7.884   7.839   0.344  1.1452 -1.0501 -1.8142
  3884G12c H01672120   8.001   7.807   0.477  0.4957 -3.8503 -2.0794
  3884G12c H01572121   7.861   7.886   0.512  0.9670 -0.9857 -0.4538
  3884G12c C02E72122   7.851   7.646   0.698  0.1344 -0.9762  1.9356
  3884G12c H01872123   7.838   7.746   0.738 -3.6552  0.0581 -1.5741
  3884G12c C01F72124   7.275   7.625   0.938  0.9894 -0.2060 -0.4475
  3884G12c C01G72125   7.185   7.628   1.050  0.3917  1.1445 -0.3187
  3884G12c H00L72126   7.215   7.665   1.147 -0.3027 -7.4909  3.6559
  3884G12c C01H72127   7.046   7.575   1.029  0.9625  0.8536  0.2007
  3884G12c H00B72128   6.967   7.600   1.098 -2.9030 -8.2994 -0.0958
  3884G12c C01I72129   7.010   7.508   0.898  0.3302  0.1463  0.2391
  3884G12c C01U72130   7.212   7.579   0.813  0.0482 -1.3229  0.7349
  3884G12c C00S72131   7.103   7.818   0.311 -0.8721  0.8200 -1.2680
  3884G12c C00K72132   6.981   7.672   0.426 -0.1550  0.0784 -0.0427
  3884G12c C00N72133   7.259   7.633   0.686  0.1712 -0.7765 -0.0946
  3884G12c C00072134   7.112   7.482   0.803  1.3817 -0.3219 -0.1741
  3884G12c C01J72135   6.884   7.521   0.819 -0.5788  2.4784 -1.2571
  3884G12c C01K72136   6.759   7.521   0.871  0.7737 -1.6186  0.4495
  3884G12c C01P72137   6.732   7.481   1.010  0.2623 -0.7662 -0.6654
  3884G12c C01Q72138   6.829   7.406   1.079  0.5077  0.7943 -0.5756
  3884G12c H00G72139   6.894   7.324   1.051  0.2848 -0.5073  2.5030
  3884G12c C01R72140   6.832   7.427   1.208 -0.0408  0.0937  0.4144
  3884G12c H00F72141   6.770   7.508   1.245  1.9623  0.2815  3.5614
  3884G12c C01S72142   6.911   7.359   1.314  1.3997  0.5165 -2.3279
  3884G12c H00E72143   6.854   7.309   1.393  3.2268  0.4443 -1.0051
  3884G12c H00D72144   6.989   7.283   1.303 -1.6699 -3.9604  3.8525
  3884G12c O00572145   6.948   7.466   1.410  1.6380  0.2975  0.1761
  3884G12c H00C72146   7.037   7.491   1.387  2.7914  2.8502  6.4027
  3884G12c C01O72147   6.596   7.483   1.046 -2.2200  1.0322 -0.3569
  3884G12c H00H72148   6.548   7.428   1.125 -1.1765  3.9205  2.4080
  3884G12c C01N72149   6.495   7.538   0.962 -0.2006  0.3649  0.5057
  3884G12c O00672150   6.378   7.538   1.011  0.5630 -0.1118  0.5147
  3884G12c C01T72151   6.306   7.407   1.026  0.8747  0.2576 -1.4427
  3884G12c H00K72152   6.202   7.435   1.045  0.2378 -2.8681  0.0468
  3884G12c H00J72153   6.350   7.351   1.109  2.9134  0.0951 -2.6018
  3884G12c H00I72154   6.276   7.362   0.932  0.3891  3.6842 -3.0139
  3884G12c C01M72155   6.522   7.584   0.829 -1.8189 -0.0097 -0.1432
  3884G12c C02072156   6.840   7.627   0.457 -0.1739  0.7949 -0.5546
  3884G12c C02172157   6.722   7.686   0.373 -0.5594  0.4780 -0.0952
  3884G12c C01L72158   6.653   7.567   0.780 -1.6956  0.0530  0.9561
  3884G12c O00772159   6.436   7.675   0.780  1.4764  1.4302  0.6799
  3884G12c C02272160   6.614   7.732   0.446  0.8268 -0.6856 -1.0914
  3884G12c C02372161   6.742   7.791   0.271  1.2868  0.3770  0.0711
  3884G12c C00G72162   6.790   8.057   0.210  0.7158 -0.8846  1.0378
  3884G12c C00E72163   6.720   8.248   0.077  1.3366  0.5375 -0.7919
  3884G12c O00A72164   6.749   8.347  -0.010  0.5264 -0.1081 -0.6656
  3884G12c C02472165   6.823   8.309  -0.120 -0.2853  1.2710 -1.8322
  3884G12c H00V72166   6.763   8.324  -0.210 -4.2141  0.7882  0.6104
  3884G12c H00U72167   6.853   8.204  -0.117  3.4965  2.2191  7.0695
  3884G12c H00T72168   6.914   8.365  -0.142  1.3950  0.7545  3.2213
  3894G12c C00D72169   5.482   8.879   7.182  0.5236  0.2007  0.6464
  3894G12c O00B72170   5.415   8.958   7.103  0.5865 -0.0970  0.2250
  3894G12c C02572171   5.401   8.958   6.975 -0.4821 -0.2404  0.0529
  3894G12c C02672172   5.262   8.964   6.914  0.2469  0.9483 -0.3428
  3894G12c H00Y72173   5.174   8.981   6.975 -1.5388 -2.6199 -1.7760
  3894G12c H00X72174   5.240   8.914   6.820  1.0554 -2.1621  1.0315
  3894G12c O00C72175   5.284   9.092   6.858 -0.2252 -0.2816 -0.2375
  3894G12c H00W72176   5.303   9.143   6.936 -2.2523  6.9290 -4.0066
  3894G12c C02772177   5.521   8.926   6.904 -0.7023  1.0732 -0.2057
  3894G12c O00D72178   5.637   8.940   6.954 -1.0048  0.3786  1.0374
  3894G12c H00Z72179   5.699   8.968   6.888  0.0764  2.8480  3.0065
  3894G12c C02872180   5.507   8.860   6.775 -1.9615  1.4751 -1.0463
  3894G12c C02972181   5.486   8.935   6.655  0.2863  0.1106  0.3930
  3894G12c H01072182   5.497   9.042   6.667  4.2845 -0.2010  0.1784
  3894G12c C02T72183   5.435   8.874   6.534  0.3504 -0.1134 -0.2544
  3894G12c H01O72184   5.433   8.911   6.433 -3.3706  0.0921 -0.1895
  3894G12c C02S72185   5.405   8.735   6.543 -0.2464  0.7747  0.1323
  3894G12c O00J72186   5.336   8.667   6.457 -0.5967 -1.5360  0.0531
  3894G12c H01P72187   5.400   8.599   6.448 -0.4700 -1.0331 -3.8794
  3894G12c C02R72188   5.405   8.674   6.682 -0.9472  1.4394 -1.3317
  3894G12c O00I72189   5.324   8.561   6.704 -0.8673  0.9598  1.1719
  3894G12c C02Q72190   5.409   8.450   6.755  0.2588  0.7372  1.4779
  3894G12c H01N72191   5.501   8.408   6.715  3.7056  2.2773  7.2241
  3894G12c H01R72192   5.344   8.365   6.775 -1.7087  0.0518 -6.1829
  3894G12c H01Q72193   5.457   8.469   6.851 -2.7853  2.2229  2.7487
  3894G12c C02A72194   5.494   8.721   6.766  0.4830  0.1068 -0.0348
  3894G12c H01172195   5.527   8.667   6.853  0.7836  0.2663 -0.0514
  3894G12c C00C72196   5.462   8.745   7.148  0.2125 -1.6545  0.7141
  3894G12c H01272197   5.386   8.715   7.077 -0.6672  6.1802 -2.1523
  3894G12c C00B72198   5.524   8.649   7.230 -0.4484  0.6328 -0.4231
  3894G12c C00A72199   5.508   8.514   7.207  0.6386  0.4913 -0.7923
  3894G12c C00972200   5.393   8.431   7.145 -0.4004 -1.5082 -0.8544
  3894G12c C00872201   5.248   8.453   7.135  2.1562  0.4761  0.8308
  3894G12c H01372202   5.230   8.554   7.102 -0.3702 -1.5609 -4.6459
  3894G12c C00772203   5.159   8.331   7.143 -0.0757 -1.2872  0.9920
  3894G12c H01472204   5.051   8.338   7.140  0.0902  0.5282 -2.9599
  3894G12c C00672205   5.216   8.221   7.190  0.6383  0.6387 -0.8361
  3894G12c C00572206   5.354   8.205   7.213  0.4436 -2.0449 -1.3519
  3894G12c C00472207   5.411   8.097   7.291  0.9346  0.7935  0.4434
  3894G12c C00372208   5.545   8.109   7.334 -0.2152 -0.5468 -0.9659
  3894G12c C00272209   5.584   7.992   7.407 -0.5232  2.1235 -0.3952
  3894G12c C00172210   5.709   7.953   7.483  1.0240 -1.6009  0.7986
  3894G12c C00M72211   5.782   8.050   7.561  0.1333  0.2920  0.9281
  3894G12c C00L72212   5.800   8.180   7.507  0.4241 -0.7802 -0.1719
  3894G12c C00R72213   5.879   8.283   7.585 -0.1932  1.0672 -0.6902
  3894G12c C00Q72214   5.914   8.310   7.714  1.4289 -0.5860 -1.3399
  3894G12c C00V72215   5.971   8.442   7.747 -0.5836  0.4156  2.2249
  3894G12c C00U72216   5.940   8.556   7.659  2.1244  1.6968  0.0397
  3894G12c C00T72217   5.883   8.529   7.543  1.3056 -0.3387 -1.3426
  3894G12c C01672218   5.809   8.622   7.469 -1.3932  0.3812 -0.6229
  3894G12c C01572219   5.826   8.758   7.493 -0.6792  0.3245  1.9099
  3894G12c C01072220   5.915   8.794   7.601  1.4366 -1.0133 -0.1825
  3894G12c C01172221   5.953   8.928   7.602  0.8815 -0.7701 -0.0347
  3894G12c H00572222   6.010   8.979   7.678 -1.9421  1.2158  0.8353
  3894G12c C01272223   5.902   9.037   7.530  1.3119 -2.0428 -1.0132
  3894G12c C01772224   5.961   9.178   7.551  1.0811 -1.6151 -0.2911
  3894G12c O00272225   5.991   9.205   7.687  0.3088  1.8096 -1.4425
  3894G12c H00472226   6.045   9.130   7.704 -3.0933 -1.0582 -2.6063
  3894G12c C01872227   5.958   9.280   7.449  1.0223 -1.6783  0.4007
  3894G12c O00172228   5.928   9.242   7.320 -0.3895 -0.3187  1.2966
  3894G12c H00372229   5.909   9.154   7.290 -6.5380  1.6977 -1.4721
  3894G12c C01972230   5.979   9.429   7.485  0.0126  0.7692  2.3577
  3894G12c H00272231   5.934   9.465   7.393  4.6456  0.6152 -0.1059
  3894G12c H00172232   5.898   9.462   7.550 -4.8414  0.3499 -3.1256
  3894G12c O00072233   6.098   9.489   7.500 -0.0081  1.0121  0.0246
  3894G12c C01A72234   6.087   9.602   7.557  1.1094  0.0720 -0.1658
  3894G12c C02K72235   6.077   9.616   7.697  0.2686 -0.2526 -0.4012
  3894G12c O00G72236   6.084   9.499   7.778  0.4503 -0.9997 -0.3932
  3894G12c C02M72237   6.211   9.433   7.764  0.8716  0.9663 -0.5598
  3894G12c H01G72238   6.268   9.413   7.674  9.5663 -0.4586  4.6586
  3894G12c H01F72239   6.293   9.504   7.780 -2.3997  4.5609  1.1918
  3894G12c H01E72240   6.231   9.369   7.850 -0.0836 -1.5308 -2.1500
  3894G12c C02J72241   6.098   9.734   7.770  0.3085 -0.2690  1.7151
  3894G12c H01H72242   6.122   9.754   7.873 -0.0614  3.8450  1.0592
  3894G12c C02I72243   6.111   9.852   7.686 -0.0990 -0.4287  1.0187
  3894G12c C02N72244   6.138   9.981   7.742 -0.5240  0.0353  0.2516
  3894G12c H01M72245   6.064  10.059   7.745 -2.5312 -1.6640  9.6400
  3894G12c C02O72246   6.255   9.983   7.809  0.5039 -0.2760  1.0257
  3894G12c H01L72247   6.326   9.906   7.781  1.6643  1.9039 -2.3761
  3894G12c C02P72248   6.302  10.101   7.890  0.7047 -0.4594 -0.0655
  3894G12c H01K72249   6.327  10.064   7.990 -2.1352 -5.6886 -1.1436
  3894G12c H01J72250   6.399  10.128   7.847 -1.4087 -0.4849 -5.2035
  3894G12c O00H72251   6.220  10.211   7.885  0.4082 -0.8121  1.2637
  3894G12c H01I72252   6.189  10.253   7.806  4.4472  0.5928  0.2670
  3894G12c C02H72253   6.092   9.835   7.547  0.0550  1.3221  1.3174
  3894G12c H01C72254   6.088   9.925   7.488 -0.0649  2.3333  2.8511
  3894G12c C02L72255   6.088   9.719   7.477  0.1337  1.7631  1.5851
  3894G12c H01D72256   6.089   9.692   7.373  1.6176 -1.5896  2.3777
  3894G12c C01372257   5.806   9.000   7.438 -0.9255  0.1678  0.0842
  3894G12c H00072258   5.752   9.074   7.381  0.7839  1.4482  0.0953
  3894G12c C01472259   5.763   8.865   7.425 -3.1219 -0.1050 -1.0524
  3894G12c C00F72260   5.653   8.825   7.342  0.0932 -1.4532 -0.2266
  3894G12c C00H72261   5.714   8.596   7.365 -2.4211  1.8546 -1.5005
  3894G12c C00I72262   5.715   8.471   7.310 -0.4580 -1.2848 -0.2143
  3894G12c C00J72263   5.782   8.366   7.378  0.1163 -1.9722  0.4246
  3894G12c C00Z72264   5.954   8.693   7.692  0.7977  0.1318  0.3114
  3894G12c C00Y72265   6.010   8.723   7.829 -0.7185 -0.0112 -0.0451
  3894G12c H00672266   6.041   8.826   7.844  2.4020 -1.2565  2.6938
  3894G12c C00X72267   6.050   8.616   7.919  1.1577 -0.4889  1.2906
  3894G12c O00372268   6.153   8.655   8.006  0.2637  1.8133 -0.2546
  3894G12c C01B72269   6.235   8.596   8.091 -1.6548 -0.7667  0.8673
  3894G12c H00972270   6.330   8.649   8.093 -2.6358  1.1296 -1.1143
  3894G12c H00872271   6.255   8.516   8.020  4.4528  3.7809 -3.0471
  3894G12c H00772272   6.210   8.546   8.184 -2.3404  4.5941  3.7837
  3894G12c C00W72273   6.009   8.480   7.881 -0.2705 -1.0185 -2.0546
  3894G12c O00472274   6.027   8.371   7.967  0.2238 -1.0972  0.4887
  3894G12c C01C72275   5.919   8.282   7.948 -0.7378  1.0911  0.0897
  3894G12c H00A72276   5.843   8.295   8.024 -3.1496  1.5771 -2.3395
  3894G12c C00P72277   5.883   8.238   7.818  1.5809  0.9536  0.0225
  3894G12c C00O72278   5.819   8.097   7.821 -0.9073  1.0490 -0.5186
  3894G12c C01D72279   5.782   8.019   7.940  0.8789  0.5828  0.0566
  3894G12c H00S72280   5.804   8.067   8.034  3.2380  0.8828 -0.6356
  3894G12c C01E72281   5.674   7.928   7.941 -0.2281 -0.1612 -0.7024
  3894G12c O00872282   5.603   7.881   8.052 -1.2449  0.5838  0.2563
  3894G12c C01V72283   5.643   7.932   8.170  0.0322 -1.5044  0.6793
  3894G12c C01Z72284   5.514   7.995   8.227  3.0161 -1.2315 -0.9122
  3894G12c H00R72285   5.441   7.915   8.236 -1.0925  2.6760  2.8490
  3894G12c H00Q72286   5.541   8.043   8.321 -1.1623 -3.8466  1.7926
  3894G12c O00972287   5.463   8.071   8.132  1.0138 -0.1318  0.8958
  3894G12c H00P72288   5.472   8.025   8.050 -0.5290 -4.5023  3.0182
  3894G12c C01W72289   5.761   7.871   8.222  0.0224 -0.8851 -0.1447
  3894G12c H00O72290   5.806   7.790   8.167  1.2890  0.4464 -1.0996
  3894G12c C01X72291   5.803   7.862   8.375 -1.2987  1.6696  0.1888
  3894G12c H00N72292   5.728   7.889   8.449 -5.4452  2.0416 -3.9305
  3894G12c H00M72293   5.855   7.767   8.384 -0.3616  2.0321 -1.1619
  3894G12c C01Y72294   5.924   7.946   8.373 -0.8581 -1.4719  0.0454
  3894G12c C02D72295   6.047   7.902   8.401 -0.3462 -0.5899  0.0268
  3894G12c H01972296   6.042   7.799   8.432 -3.0781  0.1050  2.0454
  3894G12c C02C72297   6.152   7.998   8.405 -0.6324  1.2207  1.0639
  3894G12c H01A72298   6.248   7.952   8.423 -2.9421 -7.0229 -4.5838
  3894G12c C02B72299   6.132   8.135   8.390 -0.2688  0.1360 -0.4353
  3894G12c O00E72300   6.238   8.220   8.416 -0.9260  0.3827  0.0838
  3894G12c H01B72301   6.226   8.298   8.467  6.3894  2.0308 -0.2212
  3894G12c C02F72302   6.000   8.165   8.343 -0.7979  0.0275  0.7713
  3894G12c O00F72303   5.950   8.285   8.288  0.4888  1.2366  1.6769
  3894G12c C02G72304   5.935   8.411   8.361 -0.1101 -1.0814 -0.3093
  3894G12c H01772305   5.924   8.471   8.270  1.2745  0.1452  0.2930
  3894G12c H01672306   6.015   8.430   8.433  0.2655 -0.3880 -0.8909
  3894G12c H01572307   5.850   8.388   8.424  0.2694 -0.6588  0.3630
  3894G12c C02E72308   5.895   8.079   8.354 -0.1602  0.1418 -0.3714
  3894G12c H01872309   5.794   8.118   8.348 -0.5199 -1.1082 -3.3912
  3894G12c C01F72310   5.627   7.877   7.808  0.4326 -1.4699  0.5095
  3894G12c C01G72311   5.497   7.805   7.779  1.2693 -0.0995 -1.5372
  3894G12c H00L72312   5.433   7.776   7.861 -0.2174  3.8477 -1.2078
  3894G12c C01H72313   5.448   7.759   7.652  1.2782 -0.6678  0.6075
  3894G12c H00B72314   5.342   7.739   7.656 -0.4004  5.1638 -5.2313
  3894G12c C01I72315   5.530   7.790   7.539 -0.9141 -0.1137 -0.7649
  3894G12c C01U72316   5.720   7.893   7.700  1.3277 -0.4293  2.0078
  3894G12c C00S72317   5.849   8.398   7.504 -0.5107  0.8411  1.5813
  3894G12c C00K72318   5.724   8.239   7.401 -0.5565 -0.6977 -0.1349
  3894G12c C00N72319   5.773   8.022   7.711 -0.2148  1.4084  1.3615
  3894G12c C00072320   5.657   7.854   7.574  1.0817  0.2890  0.5283
  3894G12c C01J72321   5.494   7.885   7.435 -0.8726 -0.3473 -0.8018
  3894G12c C01K72322   5.363   7.878   7.380 -2.0374 -0.7226 -0.1128
  3894G12c C01P72323   5.268   7.770   7.394 -0.6278 -1.5791 -0.8362
  3894G12c C01Q72324   5.313   7.636   7.444 -0.5810 -0.5187 -1.6819
  3894G12c H00G72325   5.263   7.620   7.538 -0.8873  3.1991 -1.1398
  3894G12c C01R72326   5.404   7.555   7.399 -0.7154  1.8966 -1.2644
  3894G12c H00F72327   5.415   7.466   7.460  3.8181  2.3273 -1.2778
  3894G12c C01S72328   5.495   7.582   7.283  0.9613  0.4636  0.4869
  3894G12c H00E72329   5.443   7.608   7.191  6.2424  0.9755 -2.5840
  3894G12c H00D72330   5.557   7.670   7.302 -6.3158  7.0760 -3.7047
  3894G12c O00572331   5.581   7.462   7.293  0.2367  0.3218  0.1827
  3894G12c H00C72332   5.672   7.443   7.314 -0.1375 -0.8974  0.7444
  3894G12c C01O72333   5.138   7.767   7.341  0.7314 -0.0686  0.6156
  3894G12c H00H72334   5.079   7.677   7.348  4.0545 -2.4681 -0.6152
  3894G12c C01N72335   5.103   7.887   7.275 -0.0063  0.5199  0.4226
  3894G12c O00672336   4.999   7.909   7.187 -2.5020 -0.9984 -0.8027
  3894G12c C01T72337   4.939   7.784   7.161 -0.7124 -0.0911 -0.0942
  3894G12c H00K72338   4.851   7.805   7.101 -0.6791  2.1374  0.5531
  3894G12c H00J72339   4.886   7.711   7.221  6.6717 -3.9485  2.4298
  3894G12c H00I72340   5.002   7.736   7.087 -2.9095  4.0908 -4.9911
  3894G12c C01M72341   5.191   7.993   7.269 -1.1078  0.4842  0.2292
  3894G12c C02072342   5.625   8.216   7.307 -1.9138  2.5210  1.3301
  3894G12c C02172343   5.582   8.303   7.199  0.6792 -1.3255 -1.8409
  3894G12c C01L72344   5.324   7.991   7.308 -1.4787 -0.1131  1.6460
  3894G12c O00772345   5.148   8.096   7.195 -0.3437 -0.0583  0.0504
  3894G12c C02272346   5.449   8.307   7.165 -2.0347  0.9308  0.4779
  3894G12c C02372347   5.613   8.435   7.226  0.9713 -0.1372  0.2657
  3894G12c C00G72348   5.634   8.688   7.319  2.1103 -1.5145  0.0468
  3894G12c C00E72349   5.558   8.924   7.285 -0.3949 -0.3186  0.8849
  3894G12c O00A72350   5.534   9.048   7.348  0.0098  1.8313  0.9037
  3894G12c C02472351   5.462   9.154   7.274  0.5069  0.5661 -0.8597
  3894G12c H00V72352   5.498   9.182   7.175  0.5925 -1.9692 -1.5959
  3894G12c H00U72353   5.405   9.237   7.315  0.3085  2.6414 -5.0041
  3894G12c H00T72354   5.369   9.096   7.271 -1.6835  4.0010 -4.2887
  3904G12c C00D72355   5.779  12.187   4.449  0.9371  0.1322  0.1039
  3904G12c O00B72356   5.824  12.070   4.389  0.0150  0.2100 -1.1084
  3904G12c C02572357   5.808  12.044   4.244 -0.7912 -0.2554 -1.7289
  3904G12c C02672358   5.944  12.077   4.149  0.2549  0.4034  0.9232
  3904G12c H00Y72359   6.006  11.988   4.160  0.9847  0.2059 -3.7947
  3904G12c H00X72360   5.970  12.076   4.043  0.0953 -0.9823  0.8872
  3904G12c O00C72361   5.985  12.185   4.187  1.1460 -1.1916  1.0014
  3904G12c H00W72362   6.032  12.169   4.267  7.5974 -2.0315 -2.6796
  3904G12c C02772363   5.708  11.964   4.196 -0.9773  0.0901 -0.6209
  3904G12c O00D72364   5.648  11.890   4.304 -0.2728 -1.1180 -0.0059
  3904G12c H00Z72365   5.696  11.902   4.384  3.9120  2.0277 -2.8064
  3904G12c C02872366   5.674  11.944   4.052  0.6999 -2.2201  0.0206
  3904G12c C02972367   5.651  11.823   3.984 -0.3934 -0.9217 -1.7540
  3904G12c H01072368   5.639  11.732   4.041 -0.6480 -3.0101 -5.0116
  3904G12c C02T72369   5.630  11.837   3.847  0.2551  0.1504 -0.7369
  3904G12c H01O72370   5.612  11.737   3.810 -0.1542  1.3414 -3.8658
  3904G12c C02S72371   5.620  11.955   3.786  1.2372  0.3574 -0.0443
  3904G12c O00J72372   5.600  11.938   3.637  0.4951 -0.7892  0.5100
  3904G12c H01P72373   5.651  11.859   3.627 -0.8415 -1.4024 -1.9085
  3904G12c C02R72374   5.622  12.076   3.855 -0.6608 -0.4995 -1.7062
  3904G12c O00I72375   5.587  12.198   3.799  1.1122  0.4581  0.1703
  3904G12c C02Q72376   5.683  12.297   3.769 -0.6542  1.5108 -0.5722
  3904G12c H01N72377   5.669  12.290   3.661  2.6360  2.2666 -1.1219
  3904G12c H01R72378   5.668  12.386   3.830 -2.5227  1.8064 -1.4361
  3904G12c H01Q72379   5.783  12.256   3.783 -1.2472  1.0520  2.5943
  3904G12c C02A72380   5.669  12.072   3.980  0.5393 -0.8782 -0.3078
  3904G12c H01172381   5.656  12.169   4.026 -0.5152 -0.1833 -2.0115
  3904G12c C00C72382   5.687  12.270   4.377 -0.2150 -1.2770  0.1455
  3904G12c H01272383   5.659  12.224   4.283  2.6877 -2.8050 -0.0221
  3904G12c C00B72384   5.658  12.408   4.430 -0.3582 -0.4691  0.1657
  3904G12c C00A72385   5.598  12.527   4.341 -0.7339  0.7354  0.0658
  3904G12c C00972386   5.634  12.560   4.212 -0.0144 -0.5415 -0.9530
  3904G12c C00872387   5.709  12.481   4.112  0.5628  0.2272 -1.1206
  3904G12c H01372388   5.740  12.385   4.151 -0.5072  2.0224  4.6064
  3904G12c C00772389   5.766  12.552   4.001  0.2902 -2.2225 -0.9800
  3904G12c H01472390   5.850  12.525   3.939  0.4325  8.2854 -6.3850
  3904G12c C00672391   5.760  12.693   3.993  0.9581  1.6615  0.5753
  3904G12c C00572392   5.697  12.752   4.107 -0.2783 -1.2730  0.4182
  3904G12c C00472393   5.721  12.884   4.143 -0.5939 -0.3238  1.0643
  3904G12c C00372394   5.669  12.940   4.264 -0.1995 -0.3008 -1.5794
  3904G12c C00272395   5.691  13.077   4.289 -0.4954 -1.5577 -1.2635
  3904G12c C00172396   5.684  13.169   4.399  1.0707  0.7713  0.6593
  3904G12c C00M72397   5.714  13.140   4.529  0.0042 -0.6433  0.5035
  3904G12c C00L72398   5.643  13.043   4.587  0.3965 -0.9250  0.7897
  3904G12c C00R72399   5.698  12.984   4.698  0.1638  0.0459 -0.8758
  3904G12c C00Q72400   5.771  13.049   4.810 -0.5658  0.8427 -0.0199
  3904G12c C00V72401   5.794  12.945   4.919 -0.4295  0.2674 -0.8644
  3904G12c C00U72402   5.782  12.800   4.893 -1.1058  0.2071 -0.0646
  3904G12c C00T72403   5.727  12.743   4.782 -0.3724 -1.1166  0.1309
  3904G12c C01672404   5.742  12.614   4.736  0.3381 -0.0474  0.8712
  3904G12c C01572405   5.803  12.528   4.823  0.1313 -1.8709  0.3842
  3904G12c C01072406   5.838  12.568   4.959  0.0688 -0.0194 -0.0878
  3904G12c C01172407   5.899  12.480   5.049  0.1298 -0.8796  0.1755
  3904G12c H00572408   5.925  12.509   5.150  3.2994 -5.1265  0.7084
  3904G12c C01272409   5.896  12.340   5.005 -1.2857  0.1256 -0.9671
  3904G12c C01772410   5.927  12.225   5.099  1.2839 -0.7995  0.1760
  3904G12c O00272411   5.834  12.135   5.111  0.6819 -0.3301  0.0401
  3904G12c H00472412   5.782  12.119   5.189 -0.5837  0.7881 -0.5628
  3904G12c C01872413   6.042  12.212   5.164 -1.9595  1.4283 -0.2807
  3904G12c O00172414   6.138  12.294   5.142 -0.2217 -0.2948 -1.0514
  3904G12c H00372415   6.103  12.349   5.073 -4.3893 -0.9491  0.4289
  3904G12c C01972416   6.069  12.096   5.263 -0.8676 -0.0104 -0.0434
  3904G12c H00272417   6.092  12.004   5.208  6.2373 -0.2327  2.7513
  3904G12c H00172418   6.143  12.135   5.332 -1.2823 -4.1734  2.9644
  3904G12c O00072419   5.954  12.077   5.353 -0.5577 -0.7979  0.0718
  3904G12c C01A72420   5.906  12.174   5.446  0.0513  0.7052 -2.2309
  3904G12c C02K72421   5.782  12.150   5.515 -1.1703 -0.6996  0.1145
  3904G12c O00G72422   5.742  12.019   5.516  0.3329  1.4160  0.1188
  3904G12c C02M72423   5.677  11.957   5.407  1.3204  0.2458 -0.1273
  3904G12c H01G72424   5.609  11.876   5.436 -0.0428  3.5571  6.9906
  3904G12c H01F72425   5.760  11.906   5.358  1.9599 -3.0654  4.1134
  3904G12c H01E72426   5.623  12.014   5.331 -3.4770 -5.2441 -1.2020
  3904G12c C02J72427   5.725  12.244   5.610  0.9018  1.5125  0.4673
  3904G12c H01H72428   5.644  12.193   5.660  3.6091 -3.4422  0.1694
  3904G12c C02I72429   5.792  12.372   5.617  0.6660  0.4341 -1.0981
  3904G12c C02N72430   5.725  12.480   5.703 -0.5106 -1.0239  1.6897
  3904G12c H01M72431   5.658  12.558   5.668  3.3265  0.9372 -1.7228
  3904G12c C02O72432   5.738  12.468   5.836 -0.7337 -0.6195 -0.9299
  3904G12c H01L72433   5.782  12.384   5.886  2.7218  3.8142  4.0338
  3904G12c C02P72434   5.690  12.581   5.921 -0.0755  0.3660 -0.5874
  3904G12c H01K72435   5.701  12.684   5.888  1.2482  1.7059  3.6414
  3904G12c H01J72436   5.591  12.536   5.927 -0.2100 -1.8567-10.9545
  3904G12c O00H72437   5.751  12.585   6.037 -0.3682  1.0719  0.7695
  3904G12c H01I72438   5.684  12.579   6.103 -0.9056  4.4244  0.5976
  3904G12c C02H72439   5.880  12.407   5.503 -0.0587  1.0407 -0.3629
  3904G12c H01C72440   5.900  12.513   5.496 -3.3323  2.9373  9.9152
  3904G12c C02L72441   5.944  12.305   5.436 -0.7516  0.5433  0.9824
  3904G12c H01D72442   6.043  12.333   5.403 -0.9759  2.7456  2.0850
  3904G12c C01372443   5.842  12.293   4.881  1.6287 -0.8036 -0.6687
  3904G12c H00072444   5.851  12.188   4.860  4.1952 -0.2959 -2.3235
  3904G12c C01472445   5.815  12.390   4.779 -0.1603  1.1603  1.4635
  3904G12c C00F72446   5.762  12.356   4.645  0.8475 -1.0136 -1.0635
  3904G12c C00H72447   5.685  12.575   4.608 -0.6856  1.1833  0.3572
  3904G12c C00I72448   5.628  12.677   4.526 -0.4051 -0.5969  1.1882
  3904G12c C00J72449   5.624  12.810   4.582 -0.6244  0.5538  0.6681
  3904G12c C00Z72450   5.849  12.706   4.971 -0.0371 -0.0583  0.0239
  3904G12c C00Y72451   5.936  12.760   5.075 -0.9995  0.0283 -1.0293
  3904G12c H00672452   5.951  12.692   5.158 -1.1887 -0.0412 -1.0508
  3904G12c C00X72453   5.950  12.888   5.106 -1.6845 -1.1345  0.2717
  3904G12c O00372454   6.020  12.903   5.228 -1.2032 -1.4326  0.8194
  3904G12c C01B72455   5.971  13.018   5.314 -1.7992 -0.7386 -0.7783
  3904G12c H00972456   6.043  13.013   5.395  4.6379 -2.0096 -6.0801
  3904G12c H00872457   5.876  13.024   5.366  0.7993  2.0276  4.0086
  3904G12c H00772458   5.996  13.103   5.251 -1.0561 -0.5324 -0.2118
  3904G12c C00W72459   5.884  12.983   5.024 -0.5973  1.5475  0.5789
  3904G12c O00472460   5.951  13.108   5.037  0.2930 -1.1834 -1.1263
  3904G12c C01C72461   5.882  13.201   4.965 -1.7491  0.8085 -0.1464
  3904G12c H00A72462   5.795  13.224   5.025  0.7571 -3.6687  5.6727
  3904G12c C00P72463   5.851  13.168   4.833  0.7625 -0.9245  0.1688
  3904G12c C00O72464   5.866  13.255   4.718  0.0234 -1.2338 -0.2077
  3904G12c C01D72465   5.970  13.368   4.719  1.5483  0.3066 -0.5380
  3904G12c H00S72466   6.043  13.389   4.796  5.1528 -1.2883 -3.3218
  3904G12c C01E72467   6.017  13.427   4.595  0.7505 -0.8843  1.5158
  3904G12c O00872468   6.124  13.508   4.576 -1.5434 -0.5074 -0.4373
  3904G12c C01V72469   6.114  13.621   4.502  0.3855  1.1473 -1.2336
  3904G12c C01Z72470   6.249  13.673   4.448 -0.8602  0.2909 -0.3305
  3904G12c H00R72471   6.240  13.771   4.496  2.3902  2.8297 -4.5507
  3904G12c H00Q72472   6.350  13.648   4.480 -1.4004  0.9577  2.0155
  3904G12c O00972473   6.260  13.687   4.304 -0.1804 -0.4063  0.6280
  3904G12c H00P72474   6.248  13.777   4.277 -3.4741 -1.2890 -1.2460
  3904G12c C01W72475   5.998  13.692   4.480 -1.4720 -1.0653 -0.2361
  3904G12c H00O72476   5.910  13.659   4.532  0.4278 -3.0969  1.7999
  3904G12c C01X72477   5.994  13.842   4.436  0.5706 -0.1524 -0.0168
  3904G12c H00N72478   5.966  13.890   4.530 -3.9017 -0.7410 -0.9715
  3904G12c H00M72479   6.086  13.900   4.429  1.1217 -0.6890  2.2174
  3904G12c C01Y72480   5.885  13.884   4.336 -1.3076  0.1568 -1.6181
  3904G12c C02D72481   5.780  13.788   4.333  0.4295 -1.0017  1.7789
  3904G12c H01972482   5.765  13.708   4.404  4.9479 -2.8765  0.8412
  3904G12c C02C72483   5.675  13.782   4.228 -0.0182 -0.7322  1.4092
  3904G12c H01A72484   5.611  13.695   4.222 -2.9696  1.2558  2.9764
  3904G12c C02B72485   5.701  13.870   4.132  0.4828  0.1539  0.7248
  3904G12c O00E72486   5.619  13.861   4.024  0.7423 -0.0697 -0.8646
  3904G12c H01B72487   5.682  13.837   3.957  9.9548 -1.8059  7.3337
  3904G12c C02F72488   5.784  13.979   4.138  1.0110 -1.0094  0.7715
  3904G12c O00F72489   5.747  14.096   4.080  0.5393 -0.6254  0.4192
  3904G12c C02G72490   5.748  14.151   3.935  0.0148  0.6559 -0.2733
  3904G12c H01772491   5.726  14.071   3.865  2.4726  0.4924 -0.8939
  3904G12c H01672492   5.855  14.164   3.921 -0.1263  9.6075  3.2421
  3904G12c H01572493   5.692  14.244   3.928  4.7581  3.5009 -3.0076
  3904G12c C02E72494   5.882  13.983   4.245  0.1828 -1.4240  0.3641
  3904G12c H01872495   5.917  14.083   4.266  3.0373 -2.4063  0.4968
  3904G12c C01F72496   5.967  13.383   4.471 -0.0996  2.1697  0.7145
  3904G12c C01G72497   6.032  13.376   4.348 -0.4358  0.0636 -1.3490
  3904G12c H00L72498   6.116  13.443   4.339  0.4213 -1.2777 -3.9964
  3904G12c C01H72499   6.002  13.278   4.249  0.1211 -1.2928 -1.3454
  3904G12c H00B72500   6.050  13.262   4.154  1.6089 -3.9359 -0.1900
  3904G12c C01I72501   5.865  13.240   4.263 -0.7011  0.1794 -0.0822
  3904G12c C01U72502   5.838  13.330   4.474  1.1837  2.1366  0.0301
  3904G12c C00S72503   5.676  12.852   4.692  1.8079  0.6125  0.4771
  3904G12c C00K72504   5.603  12.930   4.502 -1.3920 -0.2528 -2.3465
  3904G12c C00N72505   5.811  13.243   4.580 -1.1906  0.1875 -1.2176
  3904G12c C00072506   5.776  13.281   4.366 -0.1087  1.1783 -0.4207
  3904G12c C01J72507   5.788  13.136   4.207 -0.0477 -1.5826 -0.4229
  3904G12c C01K72508   5.822  13.086   4.075  0.5802  0.2378 -0.2118
  3904G12c C01P72509   5.852  13.165   3.965 -0.3663  0.6553  1.7669
  3904G12c C01Q72510   5.808  13.298   3.954 -1.6747  2.2751 -0.8071
  3904G12c H00G72511   5.711  13.336   3.983 -0.9735  0.5170  4.4785
  3904G12c C01R72512   5.916  13.374   3.942  1.0530 -1.5057  0.9991
  3904G12c H00F72513   6.019  13.348   3.924  1.7345  3.4744 -3.7795
  3904G12c C01S72514   5.910  13.531   3.962 -0.5593 -0.1069  1.7177
  3904G12c H00E72515   5.863  13.570   3.872  3.1488  6.4713  2.3272
  3904G12c H00D72516   5.900  13.592   4.052  3.7911  6.8162 -2.0016
  3904G12c O00572517   6.052  13.564   3.976  0.1894  2.1104 -1.2667
  3904G12c H00C72518   6.043  13.657   3.989 -0.6570  1.4781  3.7307
  3904G12c C01O72519   5.906  13.097   3.850 -1.4860  0.5829 -1.1561
  3904G12c H00H72520   5.939  13.163   3.771 -3.2381 -2.1649 -4.3356
  3904G12c C01N72521   5.903  12.964   3.826 -0.8591 -0.3583  1.6841
  3904G12c O00672522   5.982  12.931   3.728  0.1278  0.8112 -0.8577
  3904G12c C01T72523   5.939  12.818   3.666 -0.1947  0.1853  0.5840
  3904G12c H00K72524   5.836  12.790   3.688 -0.2115 -3.2321 -3.2864
  3904G12c H00J72525   5.937  12.812   3.557 -1.2269 -1.0233  0.6527
  3904G12c H00I72526   6.028  12.758   3.684 -0.8222  0.4683  5.2318
  3904G12c C01M72527   5.831  12.900   3.919  0.3114 -0.9533  0.5577
  3904G12c C02072528   5.601  12.882   4.368 -1.4806  0.6811 -0.8288
  3904G12c C02172529   5.567  12.745   4.327  1.0330  0.6106 -0.9391
  3904G12c C01L72530   5.788  12.959   4.051  0.7452  0.4416  0.2882
  3904G12c O00772531   5.802  12.771   3.904 -0.7126  0.4554  1.4389
  3904G12c C02272532   5.597  12.697   4.202  1.4937  0.5211  0.6467
  3904G12c C02372533   5.550  12.637   4.413  0.5301  0.2124  0.3950
  3904G12c C00G72534   5.694  12.443   4.561 -0.9816  1.0022  1.4075
  3904G12c C00E72535   5.821  12.239   4.580  0.9230 -0.8507  2.0545
  3904G12c O00A72536   5.899  12.151   4.647 -0.1727  0.4259 -0.1804
  3904G12c C02472537   6.037  12.185   4.660 -1.3131 -0.5745 -0.1943
  3904G12c H00V72538   6.034  12.292   4.679 -1.5312 -1.0401  2.6397
  3904G12c H00U72539   6.095  12.178   4.568 -3.6896  2.3935 -2.0253
  3904G12c H00T72540   6.079  12.118   4.735 -3.1372 -2.7891 -1.1147
  3914G12c C00D72541   4.820   0.590   2.798 -0.1383  1.4311  0.4048
  3914G12c O00B72542   4.846   0.460   2.749  0.3167  0.5632  0.7122
  3914G12c C02572543   4.819   0.455   2.608 -0.8534 -1.4322 -0.2556
  3914G12c C02672544   4.692   0.394   2.584  1.7936 -0.0467 -0.6739
  3914G12c H00Y72545   4.609   0.371   2.653  3.7551  2.3947  2.6512
  3914G12c H00X72546   4.733   0.311   2.527  4.1433  0.0664  0.7777
  3914G12c O00C72547   4.634   0.479   2.500  1.3511  0.4092 -0.7628
  3914G12c H00W72548   4.539   0.478   2.492  1.4329  1.6582 -2.1656
  3914G12c C02772549   4.916   0.484   2.523 -1.5961 -0.4294 -1.1948
  3914G12c O00D72550   5.035   0.551   2.575  0.0784 -0.5377  0.3619
  3914G12c H00Z72551   5.027   0.599   2.656 -6.0636  2.4941 -1.7058
  3914G12c C02872552   4.932   0.387   2.409  0.9385 -0.6046  0.1345
  3914G12c C02972553   4.989   0.268   2.430  0.2756  0.0747 -0.0258
  3914G12c H01072554   4.982   0.233   2.532 -2.3904  4.0464  1.2695
  3914G12c C02T72555   5.048   0.187   2.320  0.8771 -0.1975  0.3706
  3914G12c H01O72556   5.094   0.091   2.334  0.3785  0.2379  6.7712
  3914G12c C02S72557   5.026   0.243   2.192  1.5618 -1.7849  0.8838
  3914G12c O00J72558   5.080   0.209   2.080  0.6637 -0.5916 -0.2311
  3914G12c H01P72559   5.010   0.234   2.022 -0.1128 -1.3795  0.3479
  3914G12c C02R72560   4.948   0.373   2.174 -1.4975 -0.3088 -1.3331
  3914G12c O00I72561   4.908   0.411   2.062 -1.7313 -1.9146  0.7928
  3914G12c C02Q72562   4.772   0.387   2.041  1.3763 -1.6501  1.4556
  3914G12c H01N72563   4.733   0.444   1.957  3.7090 -3.8595 -1.2176
  3914G12c H01R72564   4.735   0.448   2.124  4.9583  1.2601  1.0686
  3914G12c H01Q72565   4.777   0.278   2.038  3.0824 -1.5565 -2.6599
  3914G12c C02A72566   4.885   0.426   2.288 -1.7434  0.7747  0.0237
  3914G12c H01172567   4.817   0.509   2.276 -3.4655 -0.7315 -0.8638
  3914G12c C00C72568   4.738   0.689   2.738  1.1477 -1.7414 -0.4499
  3914G12c H01272569   4.683   0.637   2.661  0.5526 -2.8115  0.6836
  3914G12c C00B72570   4.728   0.821   2.805 -0.0479 -0.8928  0.0988
  3914G12c C00A72571   4.643   0.934   2.749  0.6809  1.4709  0.4526
  3914G12c C00972572   4.616   0.954   2.610  1.6484 -0.4880  1.4501
  3914G12c C00872573   4.654   0.893   2.479  0.2979 -0.1076 -0.6048
  3914G12c H01372574   4.707   0.799   2.483  0.5331  0.0525  0.2775
  3914G12c C00772575   4.644   0.980   2.361  0.8318  0.3436 -0.4777
  3914G12c H01472576   4.708   0.957   2.277  5.7835  2.0605  2.6146
  3914G12c C00672577   4.645   1.121   2.378 -0.8822 -0.2571  0.8009
  3914G12c C00572578   4.620   1.173   2.511  0.3744 -1.5623 -0.4082
  3914G12c C00472579   4.654   1.307   2.543  0.1477  0.3986  0.6427
  3914G12c C00372580   4.635   1.355   2.676 -0.1702 -0.9341 -1.1952
  3914G12c C00272581   4.653   1.504   2.705 -2.1302 -0.3325 -0.7426
  3914G12c C00172582   4.667   1.582   2.832 -3.5835  1.3347  0.3306
  3914G12c C00M72583   4.722   1.536   2.956  0.7741  1.5365 -1.9072
  3914G12c C00L72584   4.723   1.406   3.010  0.0760 -0.4581  0.4996
  3914G12c C00R72585   4.800   1.351   3.113 -0.0990 -0.5116 -0.7604
  3914G12c C00Q72586   4.899   1.406   3.198 -0.5487  0.0839 -0.0398
  3914G12c C00V72587   4.957   1.304   3.273  0.9356 -0.7471 -0.4543
  3914G12c C00U72588   4.956   1.161   3.245  1.0144 -0.6878 -1.2679
  3914G12c C00T72589   4.854   1.115   3.164 -2.3643 -1.1891  0.6802
  3914G12c C01672590   4.856   0.983   3.096 -0.9555 -1.9742 -0.4083
  3914G12c C01572591   4.929   0.889   3.164  0.5020  1.2774  1.4776
  3914G12c C01072592   5.017   0.926   3.255 -1.6702  0.0604  2.6490
  3914G12c C01172593   5.078   0.819   3.336  1.2688  0.1429  1.0197
  3914G12c H00572594   5.133   0.827   3.429  0.4027 -3.9172  1.9747
  3914G12c C01272595   5.047   0.684   3.320  0.8453  1.3380  1.8558
  3914G12c C01772596   5.105   0.556   3.392 -0.9272 -0.9672  1.0501
  3914G12c O00272597   5.095   0.442   3.306 -0.0552 -0.3978 -1.1361
  3914G12c H00472598   5.167   0.402   3.353  0.1817  3.1741  1.7355
  3914G12c C01872599   5.173   0.564   3.510 -0.0429  0.4715 -2.5522
  3914G12c O00172600   5.121   0.669   3.587 -0.3606  0.9819  0.1920
  3914G12c H00372601   5.134   0.757   3.557 -1.6590  0.6977 -1.2842
  3914G12c C01972602   5.207   0.426   3.562 -0.7979  0.0968  0.1674
  3914G12c H00272603   5.232   0.478   3.655 -0.8194 -1.6823  1.2110
  3914G12c H00172604   5.105   0.395   3.588  0.4184 -0.4871  4.7599
  3914G12c O00072605   5.292   0.356   3.466  0.2254  1.1153 -0.1867
  3914G12c C01A72606   5.264   0.221   3.429 -1.1189  0.7770 -1.6534
  3914G12c C02K72607   5.153   0.142   3.494 -2.0030  0.4969  0.5283
  3914G12c O00G72608   5.091   0.155   3.620  0.2136  1.7895 -0.5966
  3914G12c C02M72609   5.074   0.031   3.695  2.6013 -1.0965  0.8149
  3914G12c H01G72610   5.004  -0.040   3.650 -0.1347  0.8995  1.7576
  3914G12c H01F72611   5.058   0.028   3.803 -2.6130 -3.2326  0.1294
  3914G12c H01E72612   5.162  -0.029   3.675  2.2704  0.4099 -6.8860
  3914G12c C02J72613   5.110   0.036   3.406 -0.3389  1.7347  2.0116
  3914G12c H01H72614   5.034  -0.038   3.427 -4.1596  3.9555 -3.1627
  3914G12c C02I72615   5.133   0.020   3.268 -0.6340 -0.1116  0.9612
  3914G12c C02N72616   5.086  -0.099   3.213  0.3403  0.9158  1.6944
  3914G12c H01M72617   5.137  -0.191   3.237  6.0864  4.0605  2.7416
  3914G12c C02O72618   4.953  -0.109   3.181  1.8203 -0.1347  1.1710
  3914G12c H01L72619   4.892  -0.021   3.171  7.8287  3.7500-10.7866
  3914G12c C02P72620   4.863  -0.221   3.209 -1.7612  0.6817 -0.3416
  3914G12c H01K72621   4.837  -0.280   3.122 -1.0533 -2.5243  1.5363
  3914G12c H01J72622   4.954  -0.281   3.207 -0.9459  1.9499 -3.2505
  3914G12c O00H72623   4.794  -0.254   3.332 -0.1604  0.6775 -0.6938
  3914G12c H01I72624   4.836  -0.327   3.375  0.3838 -2.8324 -6.6336
  3914G12c C02H72625   5.216   0.120   3.211  0.9848  0.3866  0.0714
  3914G12c H01C72626   5.232   0.138   3.106 -4.5786  4.1982 -0.3098
  3914G12c C02L72627   5.301   0.197   3.304 -1.5178 -1.7288 -0.5117
  3914G12c H01D72628   5.320   0.288   3.249  2.6876 -1.7562  0.6893
  3914G12c C01372629   4.955   0.659   3.225  1.0882 -0.1474  0.5283
  3914G12c H00072630   4.908   0.573   3.179  1.8383 -3.4942  5.6909
  3914G12c C01472631   4.932   0.759   3.118 -0.7131  1.0026  0.3342
  3914G12c C00F72632   4.862   0.733   2.998  0.3507  0.4735 -0.3449
  3914G12c C00H72633   4.758   0.960   3.012  0.8734 -0.7886  0.9808
  3914G12c C00I72634   4.668   1.064   2.958  1.6861  1.3618 -0.7604
  3914G12c C00J72635   4.656   1.189   3.024  0.3229 -0.4738  1.2146
  3914G12c C00Z72636   5.032   1.062   3.310  0.2232 -0.5362 -0.2055
  3914G12c C00Y72637   5.131   1.096   3.381  1.0712 -1.4447  0.6013
  3914G12c H00672638   5.203   1.024   3.417 -2.8866 -4.5904  2.5497
  3914G12c C00X72639   5.171   1.239   3.383  0.1099 -0.8539 -1.3025
  3914G12c O00372640   5.280   1.304   3.448 -0.3410  1.7962  0.2017
  3914G12c C01B72641   5.344   1.249   3.566  0.0152  1.4694  0.0833
  3914G12c H00972642   5.438   1.300   3.588  2.8327 -2.8743 -1.3019
  3914G12c H00872643   5.278   1.269   3.650 -1.4553 -4.7832  0.6852
  3914G12c H00772644   5.338   1.155   3.621 -0.1474 -1.7469 -5.1466
  3914G12c C00W72645   5.086   1.338   3.325 -0.0045 -2.4902 -0.3500
  3914G12c O00472646   5.138   1.472   3.332  0.8791  1.3103  0.9651
  3914G12c C01C72647   5.096   1.546   3.226  0.5034  0.3928 -0.3933
  3914G12c H00A72648   5.184   1.593   3.184  1.1886  3.5579  4.1674
  3914G12c C00P72649   4.967   1.525   3.179 -0.8192  0.6068 -1.2176
  3914G12c C00O72650   4.927   1.635   3.093 -0.1340  0.9176  0.3669
  3914G12c C01D72651   5.013   1.744   3.079 -0.2394  0.1297  0.3984
  3914G12c H00S72652   5.062   1.792   3.162 -0.8377  3.4711 -1.0609
  3914G12c C01E72653   5.029   1.814   2.959  0.4233 -1.7448 -1.2507
  3914G12c O00872654   5.128   1.907   2.943  1.7004  0.1554 -0.2431
  3914G12c C01V72655   5.246   1.867   2.874  0.2390 -1.1941  0.8639
  3914G12c C01Z72656   5.246   1.726   2.818  0.6162  0.3123 -0.4516
  3914G12c H00R72657   5.318   1.728   2.736 -1.5888  6.2800 -2.5647
  3914G12c H00Q72658   5.144   1.723   2.778 -1.9612  4.5609  5.0972
  3914G12c O00972659   5.310   1.669   2.938  0.3859 -0.5061 -0.7124
  3914G12c H00P72660   5.390   1.717   2.953  5.2170 -7.2064 -2.4675
  3914G12c C01W72661   5.358   1.942   2.897  0.9578  1.3556 -0.4479
  3914G12c H00O72662   5.338   2.030   2.957  2.0231  1.2035  0.1342
  3914G12c C01X72663   5.513   1.944   2.852  1.4950  1.6455 -1.0164
  3914G12c H00N72664   5.477   1.941   2.749  0.4598 -0.6668 -0.6296
  3914G12c H00M72665   5.544   2.038   2.896 -0.5040  2.5924 -1.6050
  3914G12c C01Y72666   5.572   1.809   2.915  1.0992 -1.2726 -0.9583
  3914G12c C02D72667   5.617   1.702   2.829 -0.0022  0.7940  3.1544
  3914G12c H01972668   5.604   1.700   2.721  3.0792 -1.7626  2.7621
  3914G12c C02C72669   5.680   1.582   2.873  0.7727 -0.5462 -0.1329
  3914G12c H01A72670   5.723   1.524   2.792  1.6383 -4.5059  2.9974
  3914G12c C02B72671   5.710   1.572   3.003 -1.5121 -0.6494 -0.5265
  3914G12c O00E72672   5.784   1.476   3.071  0.8688 -1.2908 -0.3170
  3914G12c H01B72673   5.736   1.440   3.144  0.6232  5.5793  3.2458
  3914G12c C02F72674   5.672   1.682   3.081  0.1268 -1.5261 -0.8475
  3914G12c O00F72675   5.697   1.671   3.214 -0.4945  0.8481  1.6546
  3914G12c C02G72676   5.578   1.606   3.269 -0.3518  0.2212 -0.2210
  3914G12c H01772677   5.592   1.499   3.278 -1.5326  0.0184 -0.7504
  3914G12c H01672678   5.477   1.604   3.229 -0.9566  1.8600  1.1684
  3914G12c H01572679   5.595   1.642   3.370 -2.9061 -3.1530  1.5072
  3914G12c C02E72680   5.580   1.792   3.052  1.2958 -1.9467  0.5728
  3914G12c H01872681   5.531   1.873   3.104  0.6002 -1.0132 -1.4636
  3914G12c C01F72682   4.923   1.804   2.852 -1.2289 -1.0719  0.5262
  3914G12c C01G72683   4.929   1.859   2.720  0.8183  0.4062 -0.8651
  3914G12c H00L72684   4.995   1.925   2.666 -1.3266  2.6282 -0.8823
  3914G12c C01H72685   4.833   1.821   2.625  1.8849 -0.0552 -0.7016
  3914G12c H00B72686   4.816   1.845   2.521 -0.9901 -5.6847 -1.7277
  3914G12c C01I72687   4.747   1.714   2.660 -0.1377 -0.5536 -2.9637
  3914G12c C01U72688   4.814   1.721   2.894 -1.0683  1.4549 -0.5758
  3914G12c C00S72689   4.776   1.224   3.099 -0.4437  2.0937  1.5717
  3914G12c C00K72690   4.648   1.302   2.943  0.2803  0.4165  0.4638
  3914G12c C00N72691   4.841   1.618   2.987 -0.9034 -0.7559 -0.3521
  3914G12c C00072692   4.723   1.696   2.801  0.9012  0.7140 -1.7909
  3914G12c C01J72693   4.686   1.596   2.601  0.1423 -0.8348  1.4930
  3914G12c C01K72694   4.691   1.546   2.463  0.5907  2.1985  1.4619
  3914G12c C01P72695   4.690   1.627   2.338  0.7669  0.1713  0.1882
  3914G12c C01Q72696   4.632   1.759   2.333  1.0960  0.4558 -0.6896
  3914G12c H00G72697   4.665   1.847   2.279 -5.2826  1.0227 -4.1703
  3914G12c C01R72698   4.527   1.807   2.408 -1.0494 -1.8396 -1.6253
  3914G12c H00F72699   4.467   1.740   2.467 -1.7736  1.7625  1.9494
  3914G12c C01S72700   4.477   1.952   2.418 -0.3812 -1.2938 -0.5759
  3914G12c H00E72701   4.456   2.006   2.326 -0.0359 -3.1478 -1.7593
  3914G12c H00D72702   4.369   1.963   2.420 -0.0198  3.4865 -0.7769
  3914G12c O00572703   4.558   2.004   2.528 -0.8361 -0.7775 -1.1019
  3914G12c H00C72704   4.574   1.940   2.596  4.9658 -1.3232 -2.7135
  3914G12c C01O72705   4.708   1.566   2.223 -0.0501 -0.6855  0.6917
  3914G12c H00H72706   4.694   1.629   2.136  6.6101  2.9451  1.9427
  3914G12c C01N72707   4.736   1.430   2.199  0.5481  0.9753  0.3967
  3914G12c O00672708   4.792   1.384   2.071  1.4742  0.2188  1.6540
  3914G12c C01T72709   4.826   1.241   2.056  0.0116 -1.1080  1.1609
  3914G12c H00K72710   4.882   1.211   1.968  3.2153 -3.5824  3.9110
  3914G12c H00J72711   4.737   1.186   2.084 -3.6039  5.3844  3.6482
  3914G12c H00I72712   4.914   1.246   2.120  4.7702 -0.2998 -4.9171
  3914G12c C01M72713   4.711   1.344   2.304  1.0350 -0.0754  0.7185
  3914G12c C02072714   4.623   1.272   2.804 -1.0956 -1.7002 -0.1656
  3914G12c C02172715   4.594   1.146   2.754  1.4125  0.9622  1.5438
  3914G12c C01L72716   4.685   1.403   2.439 -0.4199  0.2500 -2.5672
  3914G12c O00772717   4.713   1.204   2.297 -0.5672  1.5278  1.2790
  3914G12c C02272718   4.587   1.091   2.622 -0.1271 -1.2742 -0.4626
  3914G12c C02372719   4.635   1.038   2.820  2.6813 -0.6998 -0.2942
  3914G12c C00G72720   4.778   0.834   2.941 -0.5037  0.5657  0.3082
  3914G12c C00E72721   4.888   0.617   2.917  1.1084 -0.7309 -0.4488
  3914G12c O00A72722   4.978   0.525   2.979  0.3565  0.6673  0.2596
  3914G12c C02472723   5.071   0.470   2.902  1.0016 -1.0032  0.2305
  3914G12c H00V72724   5.171   0.476   2.946  0.4860  4.9844  0.9190
  3914G12c H00U72725   5.100   0.549   2.833  1.4869 -0.6531  0.8346
  3914G12c H00T72726   5.025   0.375   2.876  0.5475 -1.3760  2.3698
  3924G12c C00D72727  10.751   3.061   1.635  1.4553 -0.5005 -0.4024
  3924G12c O00B72728  10.883   3.086   1.655  0.4573  0.0486  0.7280
  3924G12c C02572729  10.955   3.184   1.596  0.7363 -1.3225  0.1360
  3924G12c C02672730  11.000   3.298   1.715  0.9517  2.5953 -1.6802
  3924G12c H00Y72731  11.053   3.384   1.674  1.8795  6.7027  7.0013
  3924G12c H00X72732  11.087   3.270   1.773 -1.6403 -2.5843 -0.0154
  3924G12c O00C72733  10.892   3.309   1.801 -0.4013 -0.1368 -0.4206
  3924G12c H00W72734  10.854   3.223   1.807 -4.4893  1.4217 -2.3222
  3924G12c C02772735  10.975   3.202   1.455 -1.0809  0.6543  0.8626
  3924G12c O00D72736  11.044   3.301   1.415  0.2485  0.6580  0.4391
  3924G12c H00Z72737  11.092   3.349   1.481  0.7806 -0.3692  0.8120
  3924G12c C02872738  10.945   3.115   1.344  1.1361 -1.0523 -0.1157
  3924G12c C02972739  10.924   3.154   1.219 -1.4915  0.6422 -0.5912
  3924G12c H01072740  10.933   3.253   1.177 -0.8477  1.9362  2.4848
  3924G12c C02T72741  10.844   3.073   1.125  0.0846 -0.4607  0.4838
  3924G12c H01O72742  10.784   3.111   1.043  0.0774  0.0845  0.7386
  3924G12c C02S72743  10.834   2.940   1.145  0.3180  0.4198 -2.6374
  3924G12c O00J72744  10.767   2.879   1.041 -0.0168  0.8039 -0.0081
  3924G12c H01P72745  10.788   2.788   1.052  2.3689  0.7484 -3.9077
  3924G12c C02R72746  10.882   2.881   1.260  0.0123 -0.1082  2.3296
  3924G12c O00I72747  10.905   2.758   1.270  0.4844 -0.0104 -1.8550
  3924G12c C02Q72748  11.034   2.734   1.218 -0.0996 -0.4394  0.7781
  3924G12c H01N72749  11.031   2.749   1.110  0.5601 -4.0039  0.2182
  3924G12c H01R72750  11.113   2.808   1.230 -1.6233  0.8344  3.5231
  3924G12c H01Q72751  11.104   2.659   1.252 -0.1403 -1.6302 -1.6942
  3924G12c C02A72752  10.928   2.966   1.366  0.3613  1.6806  1.0042
  3924G12c H01172753  10.959   2.909   1.452  0.8544  1.4081  0.6564
  3924G12c C00C72754  10.662   3.170   1.617  1.7637 -1.5075 -1.0365
  3924G12c H01272755  10.700   3.271   1.612 -6.7001  1.8785 -5.9275
  3924G12c C00B72756  10.522   3.161   1.614 -0.3529  0.7792 -1.0916
  3924G12c C00A72757  10.414   3.250   1.611  0.9197  0.3082 -0.9143
  3924G12c C00972758  10.426   3.376   1.654  0.4574  0.2253  1.2418
  3924G12c C00872759  10.530   3.436   1.718 -1.5958 -0.5705 -0.6414
  3924G12c H01372760  10.623   3.430   1.663  0.0588  2.8761  1.5967
  3924G12c C00772761  10.502   3.561   1.787  0.2727 -0.4575  0.3937
  3924G12c H01472762  10.585   3.630   1.788  0.4576 -0.6065 -1.6419
  3924G12c C00672763  10.367   3.600   1.822  0.0193  1.3744  1.5278
  3924G12c C00572764  10.265   3.527   1.767  1.3421  2.1163 -1.5840
  3924G12c C00472765  10.134   3.517   1.827 -0.3378  0.0844  0.6557
  3924G12c C00372766  10.049   3.401   1.808 -0.3522 -0.1567 -0.2969
  3924G12c C00272767   9.939   3.379   1.887  0.0539 -0.3733 -0.2978
  3924G12c C00172768   9.817   3.302   1.863 -2.1154  1.7912  0.0422
  3924G12c C00M72769   9.820   3.164   1.863 -0.5899 -1.2874 -0.5215
  3924G12c C00L72770   9.910   3.098   1.771 -0.7985  0.6629 -0.1829
  3924G12c C00R72771   9.959   2.959   1.783  2.1957  1.7890 -1.1997
  3924G12c C00Q72772   9.919   2.860   1.879 -1.0279 -1.2955  1.0145
  3924G12c C00V72773   9.984   2.733   1.836 -0.3156  0.6708 -0.7228
  3924G12c C00U72774  10.108   2.734   1.756  0.8892 -0.3046 -1.3363
  3924G12c C00T72775  10.166   2.840   1.714  0.9195  3.3591  1.5023
  3924G12c C01672776  10.296   2.853   1.663 -1.0566 -0.5499  0.7970
  3924G12c C01572777  10.385   2.750   1.671  1.7391  0.4111 -0.3190
  3924G12c C01072778  10.318   2.621   1.702  0.8403 -0.7414  1.0953
  3924G12c C01172779  10.408   2.516   1.695  0.2901  0.5372  2.1278
  3924G12c H00572780  10.378   2.415   1.718  7.8562 -1.0732  6.3146
  3924G12c C01272781  10.526   2.517   1.630 -0.0212 -1.1654  1.0974
  3924G12c C01772782  10.598   2.396   1.605  0.4446 -0.0315 -0.4206
  3924G12c O00272783  10.669   2.357   1.709  1.1691  0.2165 -1.3726
  3924G12c H00472784  10.601   2.385   1.768  3.1270  1.8650  0.1661
  3924G12c C01872785  10.577   2.322   1.488 -0.0180 -0.4560 -0.0997
  3924G12c O00172786  10.461   2.356   1.413  0.4465 -0.2678 -0.0786
  3924G12c H00372787  10.427   2.310   1.338 -1.1972  2.8429 -1.3428
  3924G12c C01972788  10.653   2.186   1.476  0.5225  0.0715 -0.3213
  3924G12c H00272789  10.643   2.100   1.542 -2.7129  1.3270  0.9640
  3924G12c H00172790  10.758   2.194   1.504 -0.4869 -2.5754  4.7808
  3924G12c O00072791  10.620   2.181   1.341  0.8589  0.0379  0.7927
  3924G12c C01A72792  10.671   2.074   1.283 -0.4125  1.3818  0.3597
  3924G12c C02K72793  10.648   2.043   1.141 -0.5417 -1.0774 -0.4807
  3924G12c O00G72794  10.531   2.105   1.094 -0.0742  0.4860 -0.4453
  3924G12c C02M72795  10.507   2.146   0.952  0.0740 -0.9920 -0.9576
  3924G12c H01G72796  10.492   2.249   0.922  2.3609 -0.9322 -1.9380
  3924G12c H01F72797  10.435   2.097   0.886 -3.9833 -1.6787  3.6127
  3924G12c H01E72798  10.614   2.139   0.935 -0.4610 -1.6154 -4.2658
  3924G12c C02J72799  10.731   1.972   1.045  1.4420 -0.9015 -1.1506
  3924G12c H01H72800  10.709   1.975   0.940  5.7083  2.4375 -2.0563
  3924G12c C02I72801  10.840   1.904   1.091  0.0418  0.1901 -0.3225
  3924G12c C02N72802  10.940   1.855   1.002  1.0899 -1.0900 -1.1294
  3924G12c H01M72803  11.042   1.887   1.016  0.5609  0.8364 -1.4009
  3924G12c C02O72804  10.916   1.825   0.867 -1.6186  0.6387  0.5643
  3924G12c H01L72805  10.814   1.807   0.834 -1.7766 -3.4482  2.9440
  3924G12c C02P72806  11.039   1.812   0.783 -1.5975  0.1182 -1.3823
  3924G12c H01K72807  11.073   1.913   0.808 -1.4999  1.4048 -6.2069
  3924G12c H01J72808  11.126   1.748   0.797  1.6056  4.7460  1.4269
  3924G12c O00H72809  11.007   1.793   0.647  1.6573 -0.4006  0.0621
  3924G12c H01I72810  10.967   1.870   0.610  2.2994 -0.1351 -0.0795
  3924G12c C02H72811  10.863   1.924   1.227  1.7660 -0.1217  0.3264
  3924G12c H01C72812  10.962   1.891   1.255  2.9061 -0.8016 -4.1259
  3924G12c C02L72813  10.787   1.991   1.326 -0.5379  1.0222 -0.7565
  3924G12c H01D72814  10.846   2.025   1.410  2.3881  1.5688 -2.9484
  3924G12c C01372815  10.586   2.646   1.603  1.2181  1.3761 -0.4006
  3924G12c H00072816  10.691   2.654   1.579  1.4973  6.3537  1.9302
  3924G12c C01472817  10.520   2.766   1.629  0.9303  0.2504 -0.9258
  3924G12c C00F72818  10.566   2.909   1.611  0.0664 -2.7058  0.6020
  3924G12c C00H72819  10.339   2.985   1.624 -0.4260  0.5135  1.1038
  3924G12c C00I72820  10.244   3.079   1.617 -0.8974 -0.6783  1.2860
  3924G12c C00J72821  10.113   3.061   1.662  0.6735 -2.1932 -0.3603
  3924G12c C00Z72822  10.185   2.617   1.754  0.5688  0.4982 -1.3955
  3924G12c C00Y72823  10.148   2.500   1.821  0.9427 -0.4237 -0.3640
  3924G12c H00672824  10.187   2.411   1.774  3.0764  1.8621 -3.1014
  3924G12c C00X72825  10.009   2.493   1.885  0.0400 -0.4469 -0.4700
  3924G12c O00372826   9.972   2.369   1.909  1.4903 -0.1764 -0.5278
  3924G12c C01B72827   9.838   2.335   1.938  0.0118  0.4262  0.6902
  3924G12c H00972828   9.780   2.383   2.017  1.1551 -0.0416  1.8339
  3924G12c H00872829   9.807   2.232   1.955 -4.5531  2.4893  7.3813
  3924G12c H00772830   9.800   2.357   1.838  6.4458  1.1385 -1.8650
  3924G12c C00W72831   9.946   2.614   1.905  0.5333  1.4960  0.5546
  3924G12c O00472832   9.855   2.608   2.003  0.1003  0.8453  0.6004
  3924G12c C01C72833   9.762   2.710   2.006  1.0027  0.7781  0.8974
  3924G12c H00A72834   9.658   2.692   1.980  0.9794 -0.3295  1.7406
  3924G12c C00P72835   9.804   2.844   1.963  0.3115  0.8693  1.9704
  3924G12c C00O72836   9.747   2.973   2.018 -1.9984  0.5063  0.1079
  3924G12c C01D72837   9.670   2.963   2.159 -0.1455 -1.2575 -0.3453
  3924G12c H00S72838   9.671   2.867   2.207  3.3716  0.7369  3.8647
  3924G12c C01E72839   9.645   3.074   2.236  0.6812  1.5964 -0.7576
  3924G12c O00872840   9.577   3.086   2.350  2.0647 -1.3660 -1.8930
  3924G12c C01V72841   9.511   2.972   2.409 -0.8320 -1.8890 -0.1843
  3924G12c C01Z72842   9.569   2.909   2.533 -1.8318  0.2939  1.2600
  3924G12c H00R72843   9.626   2.824   2.494 -0.1692  3.8396 -4.5969
  3924G12c H00Q72844   9.617   2.975   2.605  0.5129  0.2308 -0.1886
  3924G12c O00972845   9.506   2.856   2.642 -0.2390  0.7334 -0.9624
  3924G12c H00P72846   9.415   2.877   2.626  0.2586  1.5060 -2.9241
  3924G12c C01W72847   9.392   2.949   2.366  0.8098  0.7432 -1.5873
  3924G12c H00O72848   9.350   3.004   2.283 -4.6551 -0.0410  0.4374
  3924G12c C01X72849   9.294   2.850   2.436  0.3618 -0.2268 -0.2505
  3924G12c H00N72850   9.275   2.873   2.541 -2.7876  2.5449 -1.3126
  3924G12c H00M72851   9.203   2.878   2.383  2.5811  4.4051 -1.8746
  3924G12c C01Y72852   9.304   2.715   2.383  0.5046 -0.1885 -0.3198
  3924G12c C02D72853   9.329   2.676   2.243 -0.7826  0.7180 -1.7850
  3924G12c H01972854   9.287   2.736   2.164  3.1098 -2.0323 -6.1874
  3924G12c C02C72855   9.364   2.541   2.221  1.0590 -0.5626 -0.2932
  3924G12c H01A72856   9.335   2.536   2.117 -0.3677  2.2888 -0.0677
  3924G12c C02B72857   9.375   2.443   2.324 -0.6346 -1.3027  1.8677
  3924G12c O00E72858   9.438   2.347   2.299 -0.4162  0.1327 -0.2560
  3924G12c H01B72859   9.466   2.267   2.341  0.2811  0.8375  0.6490
  3924G12c C02F72860   9.382   2.477   2.454 -0.0825  0.8060  0.9475
  3924G12c O00F72861   9.442   2.380   2.547  0.5361  0.1296 -0.8189
  3924G12c C02G72862   9.446   2.398   2.698 -1.9741  0.5891  0.2536
  3924G12c H01772863   9.534   2.432   2.752  0.6478 -4.1583 -0.6731
  3924G12c H01672864   9.400   2.314   2.750  2.5305  0.4815  4.4385
  3924G12c H01572865   9.388   2.487   2.720 -2.5273  0.2113  0.3570
  3924G12c C02E72866   9.343   2.612   2.497 -0.3140 -1.1652 -0.0637
  3924G12c H01872867   9.333   2.650   2.598  1.9244  0.2253 -0.3136
  3924G12c C01F72868   9.701   3.194   2.196 -0.7518  1.1281 -1.8475
  3924G12c C01G72869   9.733   3.318   2.269  0.3093  0.4685  1.9597
  3924G12c H00L72870   9.743   3.323   2.376  3.3348  0.4980  1.7077
  3924G12c C01H72871   9.784   3.434   2.193  0.4115  0.1958 -0.2742
  3924G12c H00B72872   9.855   3.498   2.244  2.8771  5.4910 -9.2066
  3924G12c C01I72873   9.817   3.431   2.058 -0.1048  1.0996  0.5448
  3924G12c C01U72874   9.714   3.211   2.058 -0.9974  0.1775  2.5885
  3924G12c C00S72875  10.082   2.942   1.710  0.8847 -2.4456  0.9724
  3924G12c C00K72876  10.019   3.158   1.704  0.1929 -1.2230  0.2247
  3924G12c C00N72877   9.743   3.105   1.968  1.2949 -0.4702  1.0851
  3924G12c C00072878   9.752   3.326   1.986 -0.8043 -1.0678 -0.3178
  3924G12c C01J72879   9.931   3.465   1.994  0.3929 -1.8984  0.5374
  3924G12c C01K72880   9.987   3.612   2.002 -1.1272 -0.8493  0.7441
  3924G12c C01P72881   9.935   3.748   2.027  1.9170  1.5421 -1.8782
  3924G12c C01Q72882   9.792   3.764   2.038  0.3574  0.4212  1.9437
  3924G12c H00G72883   9.720   3.688   2.064  0.1293 -0.9646 -2.2956
  3924G12c C01R72884   9.719   3.876   2.000 -1.6594  0.3881 -0.8798
  3924G12c H00F72885   9.765   3.974   1.995  0.2244 -0.5818 -3.6338
  3924G12c C01S72886   9.560   3.906   2.018  0.4545 -1.4158  0.0701
  3924G12c H00E72887   9.569   3.975   2.102  6.7216  2.2151 -3.1940
  3924G12c H00D72888   9.542   3.959   1.925  1.9160  0.5365  0.8661
  3924G12c O00572889   9.497   3.788   2.035  0.5555 -0.9410 -0.7017
  3924G12c H00C72890   9.524   3.708   2.077 -3.2553 -1.9355  0.0997
  3924G12c C01O72891  10.030   3.848   2.044 -1.8680 -0.1689  1.4314
  3924G12c H00H72892   9.980   3.940   2.070 -2.6463  0.2046 -1.2647
  3924G12c C01N72893  10.168   3.827   2.027  0.2670 -0.1074 -0.0234
  3924G12c O00672894  10.262   3.941   2.022  0.9566  0.2999 -0.5947
  3924G12c C01T72895  10.212   4.065   1.991  0.3800  0.4153 -1.6495
  3924G12c H00K72896  10.156   4.109   2.073  5.1292  1.1566  1.3711
  3924G12c H00J72897  10.292   4.139   1.993 -1.3581  2.3115  0.9620
  3924G12c H00I72898  10.150   4.075   1.901  1.4737  2.0094 -2.2515
  3924G12c C01M72899  10.201   3.707   1.960 -0.5686 -0.2150  0.1551
  3924G12c C02072900  10.080   3.292   1.715 -0.6320 -0.4707  0.4810
  3924G12c C02172901  10.198   3.317   1.658 -1.1271  0.7292  2.4107
  3924G12c C01L72902  10.106   3.606   1.926 -0.0847  1.2411 -0.4690
  3924G12c O00772903  10.329   3.705   1.904 -0.2762  0.6796  1.1045
  3924G12c C02272904  10.289   3.426   1.665  0.5999 -0.7611  0.9267
  3924G12c C02372905  10.283   3.213   1.607  1.7440  1.5388 -0.0074
  3924G12c C00G72906  10.481   3.021   1.616 -0.2526  0.1678  1.1738
  3924G12c C00E72907  10.696   2.934   1.621  0.5699 -1.0245  1.1488
  3924G12c O00A72908  10.785   2.822   1.617  0.0037  1.5137  0.2681
  3924G12c C02472909  10.912   2.815   1.683  0.0604  2.3635 -0.6713
  3924G12c H00V72910  10.902   2.854   1.785 -5.1340  1.0488 -0.5758
  3924G12c H00U72911  11.002   2.840   1.626 -0.8692 -3.1448 -4.9578
  3924G12c H00T72912  10.894   2.708   1.680  1.0140  2.2323 -2.7288
  3934G12c C00D72913  10.224   5.013   6.145  0.1091  1.1672 -1.3688
  3934G12c O00B72914  10.228   4.916   6.245 -0.1906 -0.1213 -1.2743
  3934G12c C02572915  10.342   4.884   6.310 -0.1195  0.1340 -1.1882
  3934G12c C02672916  10.320   4.932   6.460  1.6708  0.3389 -1.5940
  3934G12c H00Y72917  10.275   4.840   6.498  1.3382  0.7690 -0.9552
  3934G12c H00X72918  10.234   4.996   6.446  2.6221  3.1666  4.0315
  3934G12c O00C72919  10.422   4.969   6.529  0.2346  0.4861 -0.1523
  3934G12c H00W72920  10.486   4.903   6.509 -2.8211 -2.0973 -1.8041
  3934G12c C02772921  10.459   4.842   6.255 -2.0735  0.6927 -0.7464
  3934G12c O00D72922  10.482   4.825   6.119  0.8186  0.6561  0.3576
  3934G12c H00Z72923  10.428   4.895   6.088 -1.5261 -0.3981  1.9350
  3934G12c C02872924  10.563   4.837   6.342 -0.9396  0.0834  1.8675
  3934G12c C02972925  10.658   4.944   6.332 -0.4826  0.5267  0.6835
  3934G12c H01072926  10.670   5.037   6.278  2.5955 -0.1493  0.0743
  3934G12c C02T72927  10.789   4.886   6.373  0.1482  0.5068 -0.5083
  3934G12c H01O72928  10.876   4.938   6.337  5.1768 -3.7361  4.6364
  3934G12c C02S72929  10.809   4.770   6.446  0.9683 -0.8705 -0.7339
  3934G12c O00J72930  10.941   4.733   6.466  1.2149  0.6605 -1.9329
  3934G12c H01P72931  10.952   4.657   6.521  3.3808  2.2562 -0.0514
  3934G12c C02R72932  10.718   4.695   6.485  0.3827 -0.6625 -1.6078
  3934G12c O00I72933  10.724   4.562   6.519  0.8541  0.1229  0.6992
  3934G12c C02Q72934  10.635   4.502   6.618  0.8479  0.3044  0.1085
  3934G12c H01N72935  10.703   4.431   6.665  4.0348 -1.8600 -7.1691
  3934G12c H01R72936  10.536   4.458   6.615 -0.0520  2.1490  1.6833
  3934G12c H01Q72937  10.607   4.585   6.683  2.6574  0.2940  0.9374
  3934G12c C02A72938  10.589   4.736   6.428  0.1113  0.1781  1.2655
  3934G12c H01172939  10.501   4.675   6.442 -3.0443  4.5072  1.4463
  3934G12c C00C72940  10.303   5.127   6.171 -0.5474 -0.2196  0.2807
  3934G12c H01272941  10.360   5.137   6.262 -4.7152  1.4731  2.8307
  3934G12c C00B72942  10.341   5.202   6.055  0.5506 -1.1824  0.6614
  3934G12c C00A72943  10.445   5.294   6.034 -2.8873 -2.5157 -0.0487
  3934G12c C00972944  10.454   5.397   6.136  0.1468 -0.6383  0.5738
  3934G12c C00872945  10.396   5.439   6.255 -0.2448  0.2638  0.4239
  3934G12c H01372946  10.336   5.384   6.325  1.5970  1.1504  2.7591
  3934G12c C00772947  10.392   5.581   6.277  0.5493 -0.5632 -1.1146
  3934G12c H01472948  10.323   5.600   6.358  0.3494  4.3340 -2.2690
  3934G12c C00672949  10.465   5.686   6.208  0.1035  2.2904  0.4429
  3934G12c C00572950  10.537   5.643   6.102 -1.5411  0.8745  1.0579
  3934G12c C00472951  10.601   5.735   6.006  0.0623  0.0067  0.5632
  3934G12c C00372952  10.616   5.689   5.864  0.9934  0.1544  0.5697
  3934G12c C00272953  10.638   5.807   5.782 -2.2962 -0.5655  1.6694
  3934G12c C00172954  10.614   5.834   5.634 -0.5169 -0.3115 -1.1358
  3934G12c C00M72955  10.497   5.769   5.594 -0.6239  0.6901 -1.5953
  3934G12c C00L72956  10.460   5.624   5.608  0.0384  2.4720  0.4303
  3934G12c C00R72957  10.348   5.557   5.557  0.0149 -1.0180 -0.3315
  3934G12c C00Q72958  10.218   5.601   5.498 -1.0258  0.3861 -1.2940
  3934G12c C00V72959  10.123   5.492   5.465 -0.7009  0.0614  0.0915
  3934G12c C00U72960  10.135   5.367   5.514 -1.4575 -1.6491  0.0588
  3934G12c C00T72961  10.230   5.346   5.609 -0.3083 -0.6570  0.9665
  3934G12c C01672962  10.218   5.249   5.698 -0.5182  1.7603 -0.2883
  3934G12c C01572963  10.103   5.166   5.693 -0.3311  0.6171  0.0852
  3934G12c C01072964  10.017   5.170   5.589 -0.5764  1.4044 -0.8839
  3934G12c C01172965   9.929   5.065   5.558  0.3195 -1.4438  1.0150
  3934G12c H00572966   9.870   5.052   5.468 -2.8883  1.4535  2.5613
  3934G12c C01272967   9.913   4.962   5.649 -2.0821  0.9841  1.0840
  3934G12c C01772968   9.829   4.842   5.651  0.0862 -0.5899  0.5671
  3934G12c O00272969   9.866   4.734   5.721 -0.6332  0.7861  0.3728
  3934G12c H00472970   9.826   4.648   5.722  3.0934 -1.0884 -1.6203
  3934G12c C01872971   9.733   4.833   5.552  1.0539  0.1202  0.8053
  3934G12c O00172972   9.682   4.913   5.458 -2.1210  0.6952 -0.0491
  3934G12c H00372973   9.722   4.997   5.476 -0.7872  0.0242  0.1794
  3934G12c C01972974   9.656   4.700   5.558 -2.1873  1.5623 -1.6141
  3934G12c H00272975   9.620   4.694   5.661  5.4619 -3.2793  1.2334
  3934G12c H00172976   9.567   4.698   5.495 -3.2808 -1.7108 -0.0804
  3934G12c O00072977   9.755   4.596   5.534 -0.8289  0.0464 -0.4997
  3934G12c C01A72978   9.708   4.466   5.572 -2.1189  1.3193 -0.0592
  3934G12c C02K72979   9.580   4.430   5.615 -0.1559  0.7281 -0.4640
  3934G12c O00G72980   9.480   4.493   5.665  0.5713  1.3859 -0.4461
  3934G12c C02M72981   9.514   4.530   5.801 -0.5465 -0.6175  0.4160
  3934G12c H01G72982   9.587   4.606   5.827 -5.0788  3.9049  0.5173
  3934G12c H01F72983   9.503   4.465   5.888  3.7678 -2.7844 -0.5213
  3934G12c H01E72984   9.427   4.592   5.820  1.8223  1.9672  3.2136
  3934G12c C02J72985   9.549   4.295   5.645 -0.8765 -0.5541  1.6842
  3934G12c H01H72986   9.458   4.289   5.702 -2.4554 -6.5148 -1.1272
  3934G12c C02I72987   9.626   4.179   5.620  2.8263  1.1842  1.6854
  3934G12c C02N72988   9.610   4.039   5.619 -0.8673 -1.0162  0.4885
  3934G12c H01M72989   9.673   3.975   5.559 -0.4930  0.1720 -0.4139
  3934G12c C02O72990   9.487   4.001   5.673 -0.1650 -0.4479  0.9623
  3934G12c H01L72991   9.417   4.079   5.702  2.6038  1.9480  1.4894
  3934G12c C02P72992   9.469   3.845   5.702  0.2816 -1.1222 -0.0768
  3934G12c H01K72993   9.373   3.818   5.657 -1.8233 -2.4029  4.8035
  3934G12c H01J72994   9.543   3.783   5.652  2.4123  0.0004  1.5959
  3934G12c O00H72995   9.464   3.850   5.849 -1.2396  0.9204  0.4738
  3934G12c H01I72996   9.542   3.891   5.883  2.9388 -4.2293 -2.2214
  3934G12c C02H72997   9.754   4.217   5.573 -1.3722 -0.2356  0.1315
  3934G12c H01C72998   9.819   4.137   5.539 -0.8300 -1.6157  4.1946
  3934G12c C02L72999   9.797   4.351   5.538  1.2377 -0.8034 -0.0085
  3934G12c H01D73000   9.883   4.397   5.490  1.0560 -4.7826 -4.5599
  3934G12c C01373001   9.973   4.986   5.768  0.7743 -0.1729 -0.7505
  3934G12c H00073002   9.921   4.923   5.839  0.4764  1.9317  0.9737
  3934G12c C01473003  10.090   5.071   5.793 -1.0945  0.8330  1.2061
  3934G12c C00F73004  10.158   5.083   5.911 -1.0752  0.6588 -0.4720
  3934G12c C00H73005  10.305   5.250   5.813  0.6798  0.1382  0.3807
  3934G12c C00I73006  10.432   5.324   5.795  0.7916  0.4274 -1.6475
  3934G12c C00J73007  10.441   5.413   5.689 -0.8313  0.1667  1.9830
  3934G12c C00Z73008  10.037   5.279   5.490  2.4459  0.7776 -0.4553
  3934G12c C00Y73009   9.938   5.295   5.395  0.5252  1.1526 -1.0844
  3934G12c H00673010   9.849   5.234   5.400 -0.4864  2.7575  3.7241
  3934G12c C00X73011   9.926   5.427   5.327 -1.0292 -0.6908  1.0840
  3934G12c O00373012   9.802   5.441   5.257  0.1889 -0.9758  0.4823
  3934G12c C01B73013   9.770   5.509   5.138 -0.7405 -0.0727 -0.5182
  3934G12c H00973014   9.772   5.437   5.056  1.0689  0.3164 -0.8330
  3934G12c H00873015   9.844   5.589   5.140  3.8913 -4.2034  0.1600
  3934G12c H00773016   9.677   5.565   5.123  0.4135  0.5494 -6.8982
  3934G12c C00W73017  10.019   5.537   5.379  0.5280 -1.1644  0.3369
  3934G12c O00473018   9.998   5.662   5.331 -1.7576  0.0158 -0.9009
  3934G12c C01C73019  10.077   5.761   5.366 -0.0981  0.2005 -1.5704
  3934G12c H00A73020  10.021   5.850   5.338 -0.0374  0.4610 -0.8633
  3934G12c C00P73021  10.195   5.735   5.449 -2.3331 -1.3447  0.4991
  3934G12c C00O73022  10.269   5.848   5.497  0.8800 -0.3254  1.1767
  3934G12c C01D73023  10.184   5.952   5.535 -0.5576  1.4165 -0.7829
  3934G12c H00S73024  10.084   5.912   5.542  0.7554 -1.9040 -0.1850
  3934G12c C01E73025  10.231   6.059   5.628 -0.5847 -0.3937 -0.4971
  3934G12c O00873026  10.142   6.154   5.672 -0.3365 -0.1082  0.0988
  3934G12c C01V73027  10.081   6.234   5.576 -1.3941  0.6693  0.3204
  3934G12c C01Z73028   9.931   6.242   5.570  0.5209  1.8194  0.8308
  3934G12c H00R73029   9.870   6.303   5.638 -0.0051  0.7091  1.3734
  3934G12c H00Q73030   9.895   6.245   5.467  3.1160  0.1652 -0.1592
  3934G12c O00973031   9.899   6.111   5.614  0.2716  1.6573 -0.5925
  3934G12c H00P73032   9.938   6.076   5.693  1.2159 -1.1027 -2.2031
  3934G12c C01W73033  10.159   6.314   5.492  0.4492 -0.0545 -1.9899
  3934G12c H00O73034  10.259   6.273   5.493 -1.2020 -4.4140 -1.3356
  3934G12c C01X73035  10.135   6.444   5.412  0.8576 -1.1080 -1.8615
  3934G12c H00N73036  10.220   6.481   5.354  5.2935  5.1354  7.4064
  3934G12c H00M73037  10.083   6.415   5.321 -0.2141 -0.3865 -1.4899
  3934G12c C01Y73038  10.089   6.544   5.501 -0.6386  3.2027 -1.2159
  3934G12c C02D73039  10.060   6.664   5.416  0.9910  2.3830 -0.6075
  3934G12c H01973040  10.038   6.690   5.313 -0.7263 -0.2929 -0.9761
  3934G12c C02C73041  10.052   6.797   5.491 -0.6049  0.2149  0.6153
  3934G12c H01A73042  10.034   6.894   5.446 -1.9091  0.9728  2.7039
  3934G12c C02B73043  10.052   6.785   5.632  1.2503 -1.3928 -0.2197
  3934G12c O00E73044  10.022   6.881   5.724  0.3033  0.5231 -0.4692
  3934G12c H01B73045  10.002   6.836   5.805 -0.0030  1.1990 -0.1656
  3934G12c C02F73046  10.056   6.664   5.702 -1.3303  0.6048 -2.1217
  3934G12c O00F73047  10.083   6.668   5.835  1.0111  0.7736  1.3369
  3934G12c C02G73048  10.061   6.548   5.919 -1.2871  1.4985  1.6575
  3934G12c H01773049   9.953   6.543   5.931 -1.1891 -1.3042  1.6903
  3934G12c H01673050  10.109   6.580   6.012  1.4447 -5.4328  2.8987
  3934G12c H01573051  10.123   6.460   5.900  5.6087  5.1292  5.3306
  3934G12c C02E73052  10.104   6.549   5.632  1.3524 -0.4332 -0.2710
  3934G12c H01873053  10.161   6.483   5.696 -3.7472 -2.7421  2.2373
  3934G12c C01F73054  10.357   6.072   5.659  1.1972  0.6145  1.4857
  3934G12c C01G73055  10.417   6.163   5.740 -0.3182  1.4162 -0.0000
  3934G12c H00L73056  10.358   6.249   5.770 -2.5850 -1.0676  3.0409
  3934G12c C01H73057  10.540   6.138   5.804 -1.2530  0.0448 -0.4748
  3934G12c H00B73058  10.561   6.200   5.890 -0.8330 -1.0010  0.1792
  3934G12c C01I73059  10.616   6.032   5.742  1.0690 -0.9724  1.3436
  3934G12c C01U73060  10.452   5.978   5.608 -0.3404 -0.1497 -1.2190
  3934G12c C00S73061  10.350   5.414   5.595  0.3282 -0.5907  0.2044
  3934G12c C00K73062  10.506   5.541   5.714 -1.0012  0.1042 -0.5116
  3934G12c C00N73063  10.397   5.858   5.545  0.8583 -0.8002 -0.3783
  3934G12c C00073064  10.591   5.977   5.627  0.7076 -0.9361  0.7340
  3934G12c C01J73065  10.690   5.932   5.836 -1.2636  0.4278 -0.4108
  3934G12c C01K73066  10.686   5.959   5.973  1.1618  1.2715  0.0005
  3934G12c C01P73067  10.715   6.084   6.025 -1.7154 -0.6362  1.5774
  3934G12c C01Q73068  10.804   6.170   5.944 -0.0399 -0.3776 -0.1577
  3934G12c H00G73069  10.840   6.138   5.847  0.5097 -0.6928  0.1415
  3934G12c C01R73070  10.796   6.304   5.966 -0.1339 -1.1033 -2.6343
  3934G12c H00F73071  10.712   6.336   6.026  2.9730  1.5869  0.4715
  3934G12c C01S73072  10.852   6.413   5.883  0.0958  0.9581 -0.4668
  3934G12c H00E73073  10.831   6.359   5.790  1.7496 -1.3405  0.4485
  3934G12c H00D73074  10.957   6.440   5.885  0.1467  0.7532 -0.3359
  3934G12c O00573075  10.773   6.528   5.864 -1.9286  1.6249 -0.8931
  3934G12c H00C73076  10.680   6.511   5.867 -1.6063 -0.0395  0.7278
  3934G12c C01O73077  10.649   6.129   6.130 -1.0044 -0.9255  2.1592
  3934G12c H00H73078  10.671   6.225   6.175  2.4284  0.7274 -2.5749
  3934G12c C01N73079  10.559   6.047   6.205 -0.8850  0.6221  1.8791
  3934G12c O00673080  10.516   6.085   6.323 -0.7447  0.0555 -1.0462
  3934G12c C01T73081  10.418   6.199   6.318 -0.2747  0.0113  1.1563
  3934G12c H00K73082  10.332   6.162   6.263 -2.3283  5.3508  0.5213
  3934G12c H00J73083  10.451   6.265   6.238  2.9816 -1.3859  1.2601
  3934G12c H00I73084  10.419   6.267   6.403  0.8275  3.4294 -1.4649
  3934G12c C01M73085  10.549   5.909   6.172 -1.2027  0.7662  1.0572
  3934G12c C02073086  10.567   5.562   5.835 -0.3194 -1.1365  0.2495
  3934G12c C02173087  10.572   5.463   5.936  0.9930  0.4568 -0.2695
  3934G12c C01L73088  10.613   5.867   6.048  0.3237  0.0223 -0.6497
  3934G12c O00773089  10.457   5.814   6.226 -0.5814  0.3286 -1.0199
  3934G12c C02273090  10.547   5.501   6.063 -0.4933  0.3340  1.2207
  3934G12c C02373091  10.502   5.350   5.917  0.3681 -3.0220  0.1914
  3934G12c C00G73092  10.281   5.173   5.921 -0.0260  0.3643 -2.0899
  3934G12c C00E73093  10.146   4.998   6.025 -1.1010  0.7896  0.1569
  3934G12c O00A73094  10.063   4.869   6.020 -0.5014  0.0755  0.6150
  3934G12c C02473095  10.135   4.759   5.957 -0.2040 -0.4756 -0.3470
  3934G12c H00V73096  10.160   4.802   5.860  5.0333  2.3053  2.0411
  3934G12c H00U73097  10.056   4.686   5.938 -1.8940  0.8740  1.3389
  3934G12c H00T73098  10.228   4.736   6.008  2.9340  6.2613 -2.4801
  3944G12c C00D73099   7.490   8.808   8.874 -1.1733  0.2871 -1.0197
  3944G12c O00B73100   7.588   8.822   8.974 -1.1761  0.6863 -0.3206
  3944G12c C02573101   7.666   8.940   8.980  1.6249  1.3637 -0.3275
  3944G12c C02673102   7.812   8.962   8.937  0.2972  0.2522 -0.1093
  3944G12c H00Y73103   7.877   9.024   8.999  3.2667 -2.8976  0.0503
  3944G12c H00X73104   7.826   8.975   8.830  2.2422  2.4402  0.3782
  3944G12c O00C73105   7.850   8.824   8.900  0.0015  0.9767  0.6368
  3944G12c H00W73106   7.772   8.772   8.893  0.8023  0.0701 -2.2565
  3944G12c C02773107   7.599   9.028   9.053  0.5071 -1.3021 -0.7120
  3944G12c O00D73108   7.460   9.030   9.057  1.1284 -0.3404  0.5341
  3944G12c H00Z73109   7.447   8.938   9.037 -1.8835 -0.2258  1.6666
  3944G12c C02873110   7.678   9.149   9.101 -1.5718 -3.1024 -1.8772
  3944G12c C02973111   7.680   9.187   9.237  0.7176 -1.7632  0.2156
  3944G12c H01073112   7.627   9.164   9.328  1.5339 -0.6330  0.9934
  3944G12c C02T73113   7.748   9.311   9.253 -1.7311  1.9233 -1.4113
  3944G12c H01O73114   7.760   9.344   9.355  4.8443 -3.0254 -0.3261
  3944G12c C02S73115   7.801   9.377   9.154 -2.7878  0.0781 -1.2897
  3944G12c O00J73116   7.861   9.502   9.185  0.2971  0.1913 -1.0964
  3944G12c H01P73117   7.845   9.525   9.095 -0.2027 -6.2258 -2.9206
  3944G12c C02R73118   7.771   9.366   9.027 -0.7260 -0.0845 -0.2224
  3944G12c O00I73119   7.805   9.472   8.944 -0.5716 -1.1540 -0.1970
  3944G12c C02Q73120   7.829   9.422   8.807  0.5053 -1.6317 -1.2251
  3944G12c H01N73121   7.883   9.501   8.755 -4.0535  4.5852  2.6594
  3944G12c H01R73122   7.735   9.386   8.766 -1.1703  0.7016  0.3718
  3944G12c H01Q73123   7.893   9.342   8.773  4.2501 -0.0169  1.6212
  3944G12c C02A73124   7.709   9.249   9.003  0.0116 -1.3590  1.3525
  3944G12c H01173125   7.682   9.216   8.904 -2.5693  0.6724  1.3292
  3944G12c C00C73126   7.373   8.744   8.903  0.8628 -0.4761 -1.2725
  3944G12c H01273127   7.355   8.742   9.009 -4.9882 -2.2868 -2.1464
  3944G12c C00B73128   7.263   8.738   8.821  0.3033 -0.6451 -0.5313
  3944G12c C00A73129   7.132   8.698   8.864 -0.6446  0.4512  0.3587
  3944G12c C00973130   7.087   8.607   8.960 -0.7313 -1.1351  0.3567
  3944G12c C00873131   7.165   8.536   9.048  0.9019 -1.4919  0.0766
  3944G12c H01373132   7.262   8.580   9.068  0.1942 -0.7816  2.1388
  3944G12c C00773133   7.122   8.400   9.082  0.8406 -0.1700 -1.1141
  3944G12c H01473134   7.198   8.368   9.151  1.7717 -4.0275 -3.7657
  3944G12c C00673135   6.996   8.358   9.048 -0.6287 -0.7703 -0.9353
  3944G12c C00573136   6.924   8.437   8.959  1.2501 -1.6704 -0.4181
  3944G12c C00473137   6.813   8.398   8.887  0.0519 -1.0585  0.7244
  3944G12c C00373138   6.783   8.460   8.754 -1.4177  0.3449  1.5820
  3944G12c C00273139   6.683   8.384   8.676 -0.9346  0.9716  0.2663
  3944G12c C00173140   6.635   8.408   8.530  0.0689 -1.2326 -0.1243
  3944G12c C00M73141   6.715   8.464   8.420  0.3180 -0.4966  0.9245
  3944G12c C00L73142   6.809   8.561   8.424 -1.2032 -0.5369 -0.3960
  3944G12c C00R73143   6.888   8.615   8.319 -0.6410  0.1052 -1.2131
  3944G12c C00Q73144   6.922   8.586   8.184 -0.2178  1.3348 -1.2774
  3944G12c C00V73145   7.039   8.654   8.128 -0.6273 -0.2887 -1.6182
  3944G12c C00U73146   7.128   8.716   8.220 -0.3195  1.4727 -0.9377
  3944G12c C00T73147   7.098   8.739   8.353  0.1513 -0.2939  1.3663
  3944G12c C01673148   7.202   8.765   8.452  0.6096  0.2277  0.9786
  3944G12c C01573149   7.322   8.802   8.407  0.0960 -0.6267  0.8772
  3944G12c C01073150   7.339   8.820   8.266  0.8163  0.6243  0.7989
  3944G12c C01173151   7.476   8.855   8.206  1.0658  1.0107 -1.6323
  3944G12c H00573152   7.510   8.883   8.108  3.4442  2.6476 -0.4120
  3944G12c C01273153   7.567   8.897   8.309  0.7794 -1.5649 -0.3290
  3944G12c C01773154   7.709   8.944   8.273 -0.8236 -1.5436 -1.3287
  3944G12c O00273155   7.755   9.070   8.299 -0.4931  0.4270  0.0264
  3944G12c H00473156   7.814   9.028   8.238  0.5662 -4.7072  4.1700
  3944G12c C01873157   7.793   8.846   8.248 -0.8877  2.3457 -0.7075
  3944G12c O00173158   7.920   8.878   8.186 -0.5974 -1.6521  0.5213
  3944G12c H00373159   7.971   8.812   8.143  0.7515  0.3285 -1.0417
  3944G12c C01973160   7.778   8.708   8.308 -0.4890 -0.6387 -1.0719
  3944G12c H00273161   7.780   8.732   8.414  2.4395  2.0617 -1.6531
  3944G12c H00173162   7.683   8.658   8.290 -0.6160 -3.1743  5.3607
  3944G12c O00073163   7.889   8.632   8.292 -1.3070  0.7632  1.1681
  3944G12c C01A73164   7.894   8.489   8.320  0.0270  0.0637 -0.8408
  3944G12c C02K73165   7.949   8.405   8.218 -0.4156  0.7900  1.0818
  3944G12c O00G73166   8.019   8.451   8.121 -0.7060  0.9933 -0.0283
  3944G12c C02M73167   8.130   8.375   8.075  1.0788  0.6259  2.1596
  3944G12c H01G73168   8.090   8.291   8.017  6.4696  0.2718 -1.4056
  3944G12c H01F73169   8.152   8.431   7.984 -4.0374  3.8592  2.6638
  3944G12c H01E73170   8.192   8.313   8.139  3.4745  1.2305  0.4980
  3944G12c C02J73171   7.917   8.256   8.221  0.1356 -2.4775  0.1172
  3944G12c H01H73172   7.900   8.182   8.144 -2.1744 -2.1658  0.2727
  3944G12c C02I73173   7.870   8.206   8.329  0.7738 -0.3403 -1.9982
  3944G12c C02N73174   7.830   8.065   8.352 -0.5543  0.4660 -0.2717
  3944G12c H01M73175   7.772   8.020   8.431-11.1645  3.5611 -5.3424
  3944G12c C02O73176   7.888   7.976   8.270  0.6745  0.1568 -1.8044
  3944G12c H01L73177   7.977   7.991   8.211  0.1394  2.4390 -2.0759
  3944G12c C02P73178   7.863   7.824   8.294  0.3177  0.3598 -0.6980
  3944G12c H01K73179   7.837   7.787   8.195  4.2032  2.2555 -2.5573
  3944G12c H01J73180   7.956   7.773   8.318  4.3387  7.0604 -0.7164
  3944G12c O00H73181   7.768   7.786   8.389 -1.2026 -0.5151 -1.0573
  3944G12c H01I73182   7.741   7.861   8.441  2.2161 -2.2921  3.6226
  3944G12c C02H73183   7.837   8.286   8.434  0.3798  0.5196 -0.8961
  3944G12c H01C73184   7.802   8.239   8.525  5.2138 -1.2829  0.1511
  3944G12c C02L73185   7.853   8.431   8.430  0.6886 -0.5726  1.0308
  3944G12c H01D73186   7.825   8.513   8.494  1.3423  2.4554 -2.3818
  3944G12c C01373187   7.525   8.904   8.451  1.7387 -0.1215  0.2020
  3944G12c H00073188   7.590   8.973   8.502  1.1779 -0.7783  1.8268
  3944G12c C01473189   7.412   8.849   8.503  0.2939 -1.4422  0.6735
  3944G12c C00F73190   7.386   8.831   8.647  0.9870  0.7713  0.7326
  3944G12c C00H73191   7.161   8.771   8.595 -1.7653  0.9810  1.1240
  3944G12c C00I73192   7.036   8.741   8.637  0.3155 -0.3043 -1.0117
  3944G12c C00J73193   6.945   8.708   8.532 -0.2630  1.0108 -0.0721
  3944G12c C00Z73194   7.248   8.763   8.172 -1.3694 -0.9401 -0.6631
  3944G12c C00Y73195   7.275   8.735   8.034 -1.1590 -0.7154  0.5221
  3944G12c H00673196   7.381   8.739   8.016 -1.3235  7.1993 -0.1904
  3944G12c C00X73197   7.184   8.689   7.951  0.4942  0.3178  0.1689
  3944G12c O00373198   7.231   8.636   7.831 -1.0017 -0.4935  0.4060
  3944G12c C01B73199   7.277   8.742   7.751  0.2045 -0.7108 -0.4350
  3944G12c H00973200   7.272   8.710   7.647  4.3580 -0.7352 -0.7016
  3944G12c H00873201   7.203   8.822   7.746  3.0540  2.2865  2.8524
  3944G12c H00773202   7.377   8.772   7.780 -0.4750 -1.5074  3.0216
  3944G12c C00W73203   7.066   8.638   7.985 -0.3838  0.5915 -1.3987
  3944G12c O00473204   7.001   8.545   7.914 -0.5073  0.2715 -0.1758
  3944G12c C01C73205   6.903   8.472   7.976  0.2548 -1.9793 -0.6369
  3944G12c H00A73206   6.847   8.406   7.911 -2.8628 -1.7906  1.7585
  3944G12c C00P73207   6.858   8.491   8.101  0.4328  0.7636 -0.0136
  3944G12c C00O73208   6.776   8.387   8.181  1.3963  0.1055  0.1599
  3944G12c C01D73209   6.775   8.253   8.116 -1.4400  0.2816 -1.1963
  3944G12c H00S73210   6.822   8.257   8.019  5.2588 -4.5199  1.5280
  3944G12c C01E73211   6.768   8.127   8.181 -0.1485 -0.0053  0.4997
  3944G12c O00873212   6.792   8.004   8.123 -0.2710 -1.1091  0.2350
  3944G12c C01V73213   6.745   7.986   7.990 -2.2787 -1.1822  0.7728
  3944G12c C01Z73214   6.841   7.894   7.917  1.0659 -0.1051  0.1009
  3944G12c H00R73215   6.936   7.891   7.971  1.3305  2.9014 -0.1212
  3944G12c H00Q73216   6.760   7.829   7.952  0.1956  1.7741  1.6526
  3944G12c O00973217   6.848   7.900   7.764  0.6991 -1.3055 -0.0564
  3944G12c H00P73218   6.887   7.979   7.731 -3.6323  1.1599  0.2921
  3944G12c C01W73219   6.610   7.998   7.963  1.0338 -0.6895 -0.2677
  3944G12c H00O73220   6.562   8.054   8.042 -1.2890 -0.1009 -2.0352
  3944G12c C01X73221   6.534   7.940   7.835  1.4076 -0.3053 -1.0428
  3944G12c H00N73222   6.435   7.983   7.819 -0.1341 -0.8441  5.4503
  3944G12c H00M73223   6.576   7.953   7.736  5.7450 -1.8310  0.4861
  3944G12c C01Y73224   6.475   7.794   7.864 -1.1701 -1.4619 -0.1286
  3944G12c C02D73225   6.411   7.791   7.993 -2.5396  0.4802 -0.2161
  3944G12c H01973226   6.346   7.861   8.043  1.2983  0.2026  5.5529
  3944G12c C02C73227   6.340   7.676   8.009 -0.2367  0.9501  1.3003
  3944G12c H01A73228   6.249   7.662   8.066 -0.2929  3.1255  1.7818
  3944G12c C02B73229   6.374   7.567   7.950  0.4173 -1.1459  1.1441
  3944G12c O00E73230   6.316   7.451   8.004 -1.1224 -0.8510  0.4890
  3944G12c H01B73231   6.325   7.488   8.091  0.6459  2.0438 -0.8483
  3944G12c C02F73232   6.485   7.564   7.853  0.0368  0.3539  0.2919
  3944G12c O00F73233   6.588   7.479   7.870  0.7402  2.0910 -0.5285
  3944G12c C02G73234   6.706   7.523   7.952  0.6502  1.6840  0.5824
  3944G12c H01773235   6.663   7.486   8.044 -0.4916  5.0605  1.4738
  3944G12c H01673236   6.776   7.444   7.978 -4.5164 -3.6488 -0.5406
  3944G12c H01573237   6.729   7.630   7.944  2.8585  0.9391 -6.6879
  3944G12c C02E73238   6.517   7.687   7.780  0.6048  0.1281  0.6089
  3944G12c H01873239   6.618   7.677   7.746  2.8048  3.7052  5.4104
  3944G12c C01F73240   6.688   8.127   8.306  0.4013  0.9494 -0.1311
  3944G12c C01G73241   6.686   8.019   8.407  0.2946  0.9890  0.0006
  3944G12c H00L73242   6.752   7.934   8.396 -1.6019 -0.6676  1.0312
  3944G12c C01H73243   6.670   8.036   8.546  0.7782 -2.0111 -1.3784
  3944G12c H00B73244   6.694   7.959   8.617 -6.6367 -3.6177 -0.1156
  3944G12c C01I73245   6.641   8.181   8.591  0.1712  0.4189 -0.6408
  3944G12c C01U73246   6.641   8.259   8.362 -0.5760 -0.8710 -1.3778
  3944G12c C00S73247   6.970   8.700   8.396 -0.2137 -0.6431  0.7975
  3944G12c C00K73248   6.866   8.604   8.555  0.1451  1.6110 -0.8517
  3944G12c C00N73249   6.710   8.367   8.313 -0.0803 -0.1897  0.4731
  3944G12c C00073250   6.599   8.274   8.487  0.6482 -1.1016 -1.4610
  3944G12c C01J73251   6.666   8.256   8.714 -0.3724  0.2177  0.5802
  3944G12c C01K73252   6.658   8.214   8.845 -0.0453  1.1057  0.3524
  3944G12c C01P73253   6.571   8.117   8.911 -1.0298  0.1235  0.3760
  3944G12c C01Q73254   6.470   8.040   8.844  2.1337  0.3808 -0.1787
  3944G12c H00G73255   6.440   8.077   8.747  8.2819  2.4337 -1.4923
  3944G12c C01R73256   6.397   7.947   8.876  1.7737  1.3596 -0.1377
  3944G12c H00F73257   6.372   7.902   8.971 -2.0531 12.3723  4.8132
  3944G12c C01S73258   6.317   7.852   8.792  2.2186 -1.4813  0.7827
  3944G12c H00E73259   6.307   7.751   8.833 -5.8094 -1.9528 -1.5461
  3944G12c H00D73260   6.225   7.901   8.824  1.5100 -2.9311  1.0194
  3944G12c O00573261   6.348   7.864   8.648  0.1365  0.1601  0.4580
  3944G12c H00C73262   6.291   7.927   8.606  4.7947 -1.2209 -9.3133
  3944G12c C01O73263   6.614   8.075   9.048 -0.2757  0.6134 -0.0061
  3944G12c H00H73264   6.567   8.003   9.113  1.6806  0.7323  1.6192
  3944G12c C01N73265   6.722   8.148   9.120  1.5799  1.3395 -1.2546
  3944G12c O00673266   6.744   8.113   9.252  0.5236  0.4874  1.1245
  3944G12c C01T73267   6.787   8.216   9.353 -0.3660  0.7403  1.6545
  3944G12c H00K73268   6.797   8.310   9.299 -1.2212  2.3100  4.1377
  3944G12c H00J73269   6.875   8.194   9.415 -2.5110 -1.0376  4.1620
  3944G12c H00I73270   6.705   8.237   9.420 -2.4307 -1.6702 -0.0285
  3944G12c C01M73271   6.806   8.218   9.038 -0.0717  0.3716 -0.2601
  3944G12c C02073272   6.858   8.573   8.695 -1.2758  0.0120  0.4834
  3944G12c C02173273   6.917   8.645   8.810  1.5130  1.3998  0.5357
  3944G12c C01L73274   6.761   8.280   8.923 -0.7742 -0.6224 -0.7441
  3944G12c O00773275   6.942   8.239   9.094  0.5309  0.2504 -1.1191
  3944G12c C02273276   6.962   8.564   8.915 -0.4309  0.1317 -0.0140
  3944G12c C02373277   7.024   8.722   8.778 -0.5053 -2.0060 -0.1015
  3944G12c C00G73278   7.263   8.776   8.684  0.8842 -0.0499 -1.4995
  3944G12c C00E73279   7.499   8.848   8.739  0.4384 -0.1036  0.4231
  3944G12c O00A73280   7.567   8.962   8.722  0.6383 -0.7566 -1.4962
  3944G12c C02473281   7.494   9.090   8.718  1.0621  0.4234  0.3656
  3944G12c H00V73282   7.586   9.147   8.719  3.8035 -3.7587 -0.5039
  3944G12c H00U73283   7.461   9.130   8.814  0.0206  0.4717  0.0007
  3944G12c H00T73284   7.433   9.121   8.633 -5.4094 -1.3307  4.0158
  3954G12c C00D73285   1.995   5.148  13.516 -0.4137  0.4779  0.6808
  3954G12c O00B73286   1.915   5.050  13.471  0.8941  0.1829  0.2687
  3954G12c C02573287   1.886   5.041  13.330 -2.5585 -0.9920 -0.0657
  3954G12c C02673288   2.006   5.025  13.225  0.0055  0.3570  0.9985
  3954G12c H00Y73289   1.986   4.950  13.149  2.5900  1.5937 -1.0181
  3954G12c H00X73290   2.084   4.985  13.290  1.8560  6.2748  2.7906
  3954G12c O00C73291   2.044   5.144  13.164  1.4228 -1.8874  0.2533
  3954G12c H00W73292   1.985   5.175  13.097 -2.7719 -1.4101  3.9059
  3954G12c C02773293   1.770   4.999  13.306 -0.4737  1.1820  0.8384
  3954G12c O00D73294   1.669   5.018  13.390 -0.7448 -1.2033 -1.0728
  3954G12c H00Z73295   1.719   5.037  13.468 -0.7258  2.0934 -1.8138
  3954G12c C02873296   1.740   4.928  13.187 -0.7392  0.9619  1.8382
  3954G12c C02973297   1.679   5.003  13.091  1.3593 -0.1554 -0.0712
  3954G12c H01073298   1.652   5.107  13.092  1.5637 -0.0025 -3.8134
  3954G12c C02T73299   1.675   4.925  12.970 -0.7648  1.8102 -1.2741
  3954G12c H01O73300   1.625   4.983  12.894 -2.7090  4.7431  2.0618
  3954G12c C02S73301   1.742   4.802  12.934 -2.5766 -0.6377 -1.6318
  3954G12c O00J73302   1.738   4.762  12.804  0.8375 -0.0957 -0.4699
  3954G12c H01P73303   1.665   4.727  12.755 -0.6637  4.6226 -1.9110
  3954G12c C02R73304   1.763   4.708  13.042  1.8962 -0.3651  2.0630
  3954G12c O00I73305   1.808   4.572  13.031  0.3811  0.3406  1.8666
  3954G12c C02Q73306   1.764   4.481  13.138 -1.1474 -1.4964 -0.0922
  3954G12c H01N73307   1.667   4.522  13.169 -0.9082 -0.1759 -1.0479
  3954G12c H01R73308   1.823   4.508  13.225  0.9536 -3.7145 -0.7936
  3954G12c H01Q73309   1.732   4.379  13.119  5.5965 -2.9542 -5.5931
  3954G12c C02A73310   1.785   4.773  13.157 -1.1164 -1.0899 -1.1287
  3954G12c H01173311   1.819   4.711  13.239  0.3042 -2.1082 -2.4721
  3954G12c C00C73312   2.037   5.269  13.443  1.4835 -0.6497 -0.1427
  3954G12c H01273313   2.022   5.306  13.342 -4.1101  2.7055  1.6950
  3954G12c C00B73314   2.104   5.371  13.524 -0.4766  0.1333  0.1626
  3954G12c C00A73315   2.197   5.481  13.476 -1.5203 -0.2680 -0.3913
  3954G12c C00973316   2.262   5.506  13.344 -0.2036 -0.4065 -1.2909
  3954G12c C00873317   2.258   5.446  13.215 -0.6503 -0.8195  0.0276
  3954G12c H01373318   2.177   5.387  13.176  1.0743 -1.9215 -2.0219
  3954G12c C00773319   2.377   5.437  13.141  1.9866 -1.6834 -0.2297
  3954G12c H01473320   2.374   5.374  13.053  0.1899 -0.4494 -1.0871
  3954G12c C00673321   2.504   5.490  13.191  0.8280  1.3990 -1.3073
  3954G12c C00573322   2.488   5.580  13.306 -0.3520 -1.1361 -0.4780
  3954G12c C00473323   2.601   5.636  13.367  0.3918  0.0397 -0.7834
  3954G12c C00373324   2.589   5.669  13.509  0.3032 -0.4613  0.4646
  3954G12c C00273325   2.688   5.759  13.560  0.0450 -1.1762  1.6106
  3954G12c C00173326   2.720   5.808  13.691 -0.5926 -0.0816 -2.7845
  3954G12c C00M73327   2.676   5.729  13.818 -0.8331  0.4629  0.1813
  3954G12c C00L73328   2.566   5.661  13.824  0.2313 -0.7117  0.3982
  3954G12c C00R73329   2.525   5.582  13.927  1.5592 -1.2400 -1.6078
  3954G12c C00Q73330   2.581   5.546  14.053 -0.6958  1.4266  0.2989
  3954G12c C00V73331   2.494   5.451  14.127 -1.2744  1.2466  1.4352
  3954G12c C00U73332   2.365   5.415  14.074  1.2137 -1.2418  0.8609
  3954G12c C00T73333   2.323   5.447  13.948  1.3600  0.3203 -0.0035
  3954G12c C01673334   2.209   5.404  13.881  0.8754 -0.7227 -0.4198
  3954G12c C01573335   2.144   5.308  13.944 -0.3025 -0.7489 -0.0619
  3954G12c C01073336   2.175   5.275  14.073 -1.2763 -0.1873 -0.2664
  3954G12c C01173337   2.088   5.193  14.141 -1.5979  0.8345 -0.0395
  3954G12c H00573338   2.067   5.199  14.247 -2.9195  5.4419 -0.4795
  3954G12c C01273339   1.995   5.116  14.075 -0.9327  0.6404  0.7934
  3954G12c C01773340   1.922   5.004  14.145 -0.7241  1.9833  0.5554
  3954G12c O00273341   1.862   5.062  14.252 -0.8153  1.2765  0.1330
  3954G12c H00473342   1.799   5.009  14.298 -1.8557  3.9799  1.9768
  3954G12c C01873343   1.915   4.868  14.111 -0.3517 -1.1327  0.1138
  3954G12c O00173344   1.968   4.836  13.985  0.1582  0.2182 -1.2091
  3954G12c H00373345   2.016   4.916  13.973  1.4653 -0.8361 -3.4154
  3954G12c C01973346   1.822   4.766  14.198  0.9874  0.9355  1.3339
  3954G12c H00273347   1.764   4.726  14.115  0.8454  3.2912  0.2613
  3954G12c H00173348   1.875   4.674  14.225  0.8333 -1.1711 -4.8969
  3954G12c O00073349   1.714   4.828  14.272  0.4950 -1.5842  1.2594
  3954G12c C01A73350   1.602   4.755  14.267  0.0530 -0.4132 -0.1014
  3954G12c C02K73351   1.595   4.624  14.288  0.0244  1.1308  1.2410
  3954G12c O00G73352   1.685   4.586  14.390 -0.5775 -0.1446  0.0451
  3954G12c C02M73353   1.661   4.655  14.508  0.4459 -0.4370  0.2195
  3954G12c H01G73354   1.726   4.742  14.522  0.0866  0.6042 -3.8689
  3954G12c H01F73355   1.686   4.575  14.578 -4.0554 -6.0784 -4.1455
  3954G12c H01E73356   1.560   4.675  14.545 -0.9140  0.8274 -3.8487
  3954G12c C02J73357   1.481   4.551  14.276 -1.6788 -0.0057  0.1996
  3954G12c H01H73358   1.494   4.447  14.251 -5.7057 -0.1360 -1.6887
  3954G12c C02I73359   1.369   4.625  14.239 -1.3409 -0.5316  0.0487
  3954G12c C02N73360   1.266   4.526  14.241 -0.3865  0.0818 -0.4558
  3954G12c H01M73361   1.238   4.470  14.330 -0.9073 -2.5626 -2.2312
  3954G12c C02O73362   1.170   4.511  14.147 -2.1636 -0.8050  0.8872
  3954G12c H01L73363   1.164   4.579  14.063  1.3818 -1.3576  0.1260
  3954G12c C02P73364   1.039   4.439  14.181 -0.5240 -0.0417 -1.0862
  3954G12c H01K73365   1.038   4.336  14.144  3.2838 -1.4003  2.2530
  3954G12c H01J73366   1.050   4.408  14.285 11.3882  3.7215 -0.4331
  3954G12c O00H73367   0.932   4.521  14.127  1.0268 -0.7333 -1.2732
  3954G12c H01I73368   0.897   4.488  14.046  4.9327 -4.9874 -1.4556
  3954G12c C02H73369   1.377   4.773  14.274 -0.3752  0.7690  0.3031
  3954G12c H01C73370   1.280   4.820  14.278  1.3418  4.5672  0.1708
  3954G12c C02L73371   1.496   4.835  14.279 -0.0877  0.0630 -0.0653
  3954G12c H01D73372   1.511   4.942  14.272  3.0067 -0.2893  0.6813
  3954G12c C01373373   1.990   5.146  13.940  0.3878  1.3105 -0.3613
  3954G12c H00073374   1.911   5.092  13.890  1.9588 -0.8475 -0.5821
  3954G12c C01473375   2.059   5.228  13.864  0.7442 -0.3906 -1.7315
  3954G12c C00F73376   2.042   5.242  13.731 -1.3976 -0.0215 -0.9647
  3954G12c C00H73377   2.177   5.450  13.754  1.3622  0.5349 -0.3512
  3954G12c C00I73378   2.252   5.544  13.699 -0.3880 -0.0167  0.7129
  3954G12c C00J73379   2.345   5.586  13.781 -0.9648 -0.7279  1.1932
  3954G12c C00Z73380   2.291   5.321  14.137 -2.3088  2.5019 -1.6183
  3954G12c C00Y73381   2.332   5.248  14.245  1.4452  0.2733  0.3079
  3954G12c H00673382   2.271   5.182  14.305 -1.3312  2.7264  0.2893
  3954G12c C00X73383   2.441   5.280  14.299 -0.5845 -0.4396 -0.0251
  3954G12c O00373384   2.482   5.204  14.414 -1.1615 -0.5891 -0.6937
  3954G12c C01B73385   2.542   5.289  14.516 -0.0559 -0.9549  0.3216
  3954G12c H00973386   2.496   5.382  14.483  0.2486  1.1315  5.3399
  3954G12c H00873387   2.472   5.296  14.599 -2.0271  0.5772 -1.4277
  3954G12c H00773388   2.648   5.312  14.512 -0.1431 -0.6676 -0.3058
  3954G12c C00W73389   2.531   5.380  14.234  0.8073 -1.1011 -1.4283
  3954G12c O00473390   2.657   5.391  14.278 -0.5821  1.1826 -0.4316
  3954G12c C01C73391   2.748   5.474  14.211 -1.7091 -0.3960  0.9508
  3954G12c H00A73392   2.816   5.503  14.290  5.1870  2.4305 -5.3901
  3954G12c C00P73393   2.720   5.555  14.092 -1.0536 -0.2869 -0.4565
  3954G12c C00O73394   2.818   5.637  14.020  0.3477  0.9012  0.5011
  3954G12c C01D73395   2.966   5.617  14.044  0.2664 -1.9752 -1.5149
  3954G12c H00S73396   2.980   5.578  14.144 -5.9260 -5.9974 -1.9109
  3954G12c C01E73397   3.060   5.657  13.952 -0.1984 -1.9529 -0.6178
  3954G12c O00873398   3.191   5.616  13.963 -0.3963 -0.3254  1.3058
  3954G12c C01V73399   3.258   5.638  14.072 -1.1867  0.4553  0.2617
  3954G12c C01Z73400   3.342   5.751  14.065  0.0956  1.0803  0.3345
  3954G12c H00R73401   3.428   5.715  14.121 -4.0578 -2.2750  5.0470
  3954G12c H00Q73402   3.347   5.799  13.967  0.0064 -1.8558 -1.1400
  3954G12c O00973403   3.267   5.837  14.158 -0.2765 -0.5831  0.4093
  3954G12c H00P73404   3.334   5.890  14.197 -1.2705 -0.8954  2.6229
  3954G12c C01W73405   3.259   5.550  14.166  1.0948 -0.0066 -2.0985
  3954G12c H00O73406   3.197   5.465  14.142 -0.5303  2.0897 -5.6684
  3954G12c C01X73407   3.323   5.564  14.314  0.6623 -0.0506 -0.0288
  3954G12c H00N73408   3.335   5.458  14.334  4.1624 -0.3699 -3.2869
  3954G12c H00M73409   3.422   5.601  14.339  1.3295 -3.6793  3.3376
  3954G12c C01Y73410   3.218   5.631  14.408 -0.3734 -0.7922  0.7829
  3954G12c C02D73411   3.218   5.606  14.547  0.0383  0.0030 -0.2950
  3954G12c H01973412   3.298   5.571  14.612  2.4548  7.6002  1.2881
  3954G12c C02C73413   3.142   5.662  14.641  0.0835  0.9561 -2.0563
  3954G12c H01A73414   3.167   5.684  14.744 -4.6361  0.6702 -0.7513
  3954G12c C02B73415   3.020   5.710  14.592  0.7951 -1.1828 -2.3892
  3954G12c O00E73416   2.924   5.747  14.695 -1.2217 -1.0586  1.1639
  3954G12c H01B73417   2.886   5.820  14.648  2.5687  1.6770  2.0588
  3954G12c C02F73418   2.999   5.750  14.454 -1.8543  0.9713 -0.7732
  3954G12c O00F73419   2.889   5.825  14.412 -1.2218  0.1046 -1.0276
  3954G12c C02G73420   2.902   5.943  14.320  0.6780 -0.9992  0.2143
  3954G12c H01773421   2.893   6.034  14.379  6.3827 -0.6761  0.8647
  3954G12c H01673422   2.799   5.934  14.286 -2.6323  6.6894  6.6500
  3954G12c H01573423   2.975   5.965  14.242 -1.8810  2.1819 -1.3705
  3954G12c C02E73424   3.101   5.706  14.375 -0.6688  1.2503 -1.0956
  3954G12c H01873425   3.091   5.712  14.267  2.9850  2.6575 -1.4317
  3954G12c C01F73426   3.035   5.729  13.833  0.2027  1.6205 -1.3489
  3954G12c C01G73427   3.115   5.732  13.708  1.0873  1.8134  1.3597
  3954G12c H00L73428   3.184   5.665  13.657 -3.3735 -2.0023 -0.0195
  3954G12c C01H73429   3.056   5.777  13.592 -1.1162 -0.4279  0.1310
  3954G12c H00B73430   3.114   5.763  13.501  3.0856  3.6426  1.9854
  3954G12c C01I73431   2.918   5.800  13.592  2.3132  1.3224 -0.3496
  3954G12c C01U73432   2.891   5.787  13.832 -0.9535  0.3529 -0.2682
  3954G12c C00S73433   2.404   5.528  13.882 -1.9940  1.1263  0.6397
  3954G12c C00K73434   2.466   5.649  13.723  0.8747  0.5333  1.3952
  3954G12c C00N73435   2.785   5.720  13.902 -1.0114  0.4113  0.5116
  3954G12c C00073436   2.860   5.824  13.706  1.2070 -0.6749  0.1493
  3954G12c C01J73437   2.816   5.771  13.492  0.0721 -2.1603 -1.5531
  3954G12c C01K73438   2.832   5.715  13.351  1.3297 -0.9941 -0.0195
  3954G12c C01P73439   2.932   5.732  13.257  0.1300  1.2055  0.0203
  3954G12c C01Q73440   2.995   5.860  13.273 -0.0456  0.0591 -0.7500
  3954G12c H00G73441   2.973   5.933  13.350  2.3024  3.7719 -3.4342
  3954G12c C01R73442   3.063   5.920  13.170  0.5828 -0.4626 -0.7766
  3954G12c H00F73443   3.149   5.873  13.124 -0.8752  2.9473 -7.5908
  3954G12c C01S73444   3.098   6.072  13.178 -0.2634  1.4079 -1.0442
  3954G12c H00E73445   3.016   6.142  13.195  1.3894  2.7399  1.8611
  3954G12c H00D73446   3.192   6.094  13.229 -0.0093 -3.6211  0.8712
  3954G12c O00573447   3.175   6.091  13.056  0.8541 -0.6485  0.1962
  3954G12c H00C73448   3.251   6.065  13.106 -1.9082 -3.4801  3.1926
  3954G12c C01O73449   2.944   5.659  13.140 -1.6604 -1.5318 -0.3523
  3954G12c H00H73450   3.036   5.653  13.084 -0.0946  6.0835  0.9069
  3954G12c C01N73451   2.856   5.562  13.104 -0.0642  0.9841 -1.1105
  3954G12c O00673452   2.874   5.501  12.991 -0.7389 -1.5236  0.3082
  3954G12c C01T73453   2.916   5.364  13.010  0.3069 -0.0059 -1.6241
  3954G12c H00K73454   2.979   5.359  13.099 -0.2010 -3.2439 -1.3726
  3954G12c H00J73455   2.846   5.283  13.034  3.8091 -4.0616 -4.4292
  3954G12c H00I73456   2.968   5.326  12.923  1.3840  3.0146 -2.3702
  3954G12c C01M73457   2.736   5.552  13.196 -1.9671  0.1624  0.5095
  3954G12c C02073458   2.468   5.658  13.581  1.0062 -2.5490 -1.0746
  3954G12c C02173459   2.359   5.628  13.507  1.9397 -0.5112 -0.2433
  3954G12c C01L73460   2.720   5.632  13.307  0.7889 -2.3992  1.0758
  3954G12c O00773461   2.630   5.493  13.137  0.2214 -0.2755  0.7412
  3954G12c C02273462   2.366   5.590  13.373  0.4225  0.4786 -0.6808
  3954G12c C02373463   2.239   5.583  13.566 -1.9007  0.9187 -1.1530
  3954G12c C00G73464   2.100   5.358  13.669  1.1188  0.3486  0.8076
  3954G12c C00E73465   2.014   5.128  13.650 -1.1161  0.6317 -0.4789
  3954G12c O00A73466   2.016   4.994  13.689  0.3512 -0.9493  0.4634
  3954G12c C02473467   2.174   4.960  13.701  0.8759  0.7951 -1.7263
  3954G12c H00V73468   2.221   5.002  13.612  2.3817 -1.9850 -2.2979
  3954G12c H00U73469   2.192   5.011  13.795 -3.1557  2.8485 -1.9450
  3954G12c H00T73470   2.163   4.852  13.715 -1.0493  1.5017  2.9944
  3964G12c C00D73471   1.936   7.024   9.886 -0.6677 -1.2336  0.4083
  3964G12c O00B73472   1.906   6.996   9.758  0.3901 -0.0112 -0.5423
  3964G12c C02573473   1.913   6.866   9.711  2.1671 -0.8031 -0.2101
  3964G12c C02673474   2.038   6.832   9.642 -0.2240 -0.1959  1.0465
  3964G12c H00Y73475   2.105   6.917   9.648  0.1001 -0.4641  1.2701
  3964G12c H00X73476   2.021   6.847   9.536  1.5742  2.2455  1.0842
  3964G12c O00C73477   2.079   6.707   9.644 -0.7431  0.3513  0.2938
  3964G12c H00W73478   2.028   6.674   9.571  0.3957 -1.8519  0.4622
  3964G12c C02773479   1.814   6.767   9.750 -0.6962  0.0562 -0.5180
  3964G12c O00D73480   1.706   6.786   9.824  0.5152  0.4875 -0.7173
  3964G12c H00Z73481   1.656   6.866   9.821  4.5746  3.3434  2.4255
  3964G12c C02873482   1.789   6.660   9.665 -0.2973  1.1862 -0.1728
  3964G12c C02973483   1.767   6.666   9.529  0.9247 -0.3407  0.2139
  3964G12c H01073484   1.729   6.752   9.476  2.9029 -1.0925 -2.5297
  3964G12c C02T73485   1.773   6.543   9.456 -0.5496 -1.7144  0.7204
  3964G12c H01O73486   1.779   6.537   9.348 -1.6332  5.5386 -0.0025
  3964G12c C02S73487   1.763   6.419   9.516  1.2492 -1.1021  0.7420
  3964G12c O00J73488   1.741   6.307   9.453  1.4930 -0.5810 -0.6391
  3964G12c H01P73489   1.681   6.259   9.508 -0.4139 -1.3559 -3.3076
  3964G12c C02R73490   1.787   6.412   9.659 -2.3769 -0.2607  1.0777
  3964G12c O00I73491   1.774   6.297   9.740 -0.5525 -0.2890  0.0443
  3964G12c C02Q73492   1.895   6.224   9.762  0.4059 -0.4523  0.1419
  3964G12c H01N73493   1.884   6.209   9.869  1.4513 -5.4470 -0.3188
  3964G12c H01R73494   1.893   6.136   9.697 -0.7658 -0.0212 -0.4245
  3964G12c H01Q73495   1.973   6.297   9.740 -0.4128  1.4381  3.2841
  3964G12c C02A73496   1.803   6.534   9.728  1.5906 -0.5748  0.5966
  3964G12c H01173497   1.832   6.522   9.831  2.4702 -1.8514  0.2186
  3964G12c C00C73498   2.030   6.942   9.951  0.4533  1.0604  0.3826
  3964G12c H01273499   2.065   6.840   9.959  2.7842  1.6061 -1.8045
  3964G12c C00B73500   2.092   6.999  10.061 -2.7756 -0.3768 -0.6173
  3964G12c C00A73501   2.192   6.941  10.151 -0.3404  1.1344 -0.2890
  3964G12c C00973502   2.234   6.797  10.167  0.4951 -0.2431 -1.3829
  3964G12c C00873503   2.179   6.673  10.127  0.8048 -0.0789  0.6795
  3964G12c H01373504   2.137   6.658  10.029  0.9423 -1.2302  0.7968
  3964G12c C00773505   2.190   6.569  10.222  2.1954  0.4821  0.0576
  3964G12c H01473506   2.149   6.473  10.194 -0.6754  2.8957 -4.5925
  3964G12c C00673507   2.238   6.591  10.357 -0.9483  0.6949 -0.4155
  3964G12c C00573508   2.316   6.698  10.380  1.4539 -1.4661 -1.3344
  3964G12c C00473509   2.369   6.717  10.509 -0.1516 -0.9599 -0.2538
  3964G12c C00373510   2.390   6.846  10.559 -0.6781 -0.2804 -1.2024
  3964G12c C00273511   2.416   6.869  10.695  2.4172 -0.8261  0.6757
  3964G12c C00173512   2.443   6.992  10.770 -0.5428  1.2836 -0.7710
  3964G12c C00M73513   2.366   7.119  10.759 -0.9235  1.7752  0.7849
  3964G12c C00L73514   2.328   7.175  10.638 -1.2349  1.1409 -1.9703
  3964G12c C00R73515   2.229   7.278  10.623  0.0969 -0.2761  0.6748
  3964G12c C00Q73516   2.141   7.351  10.717  0.9155  0.3767  0.0453
  3964G12c C00V73517   2.032   7.414  10.651  0.0595 -1.1551 -0.6425
  3964G12c C00U73518   1.997   7.412  10.508 -1.4971  0.9555 -0.9473
  3964G12c C00T73519   2.074   7.334  10.432  1.6355  0.4628 -0.0470
  3964G12c C01673520   2.026   7.276  10.315  0.6642  0.5368  1.0362
  3964G12c C01573521   1.909   7.326  10.266 -0.4666  1.1289  0.7326
  3964G12c C01073522   1.831   7.418  10.340  1.9394  0.2094 -0.9181
  3964G12c C01173523   1.719   7.480  10.290 -1.5778  0.5005 -0.3954
  3964G12c H00573524   1.660   7.545  10.353 -7.8192 -0.5940 -4.6060
  3964G12c C01273525   1.681   7.466  10.148  0.9369  1.0859 -0.8348
  3964G12c C01773526   1.544   7.499  10.118 -0.6100  0.2731 -0.5077
  3964G12c O00273527   1.447   7.475  10.205 -0.2085  1.0847  0.6141
  3964G12c H00473528   1.415   7.390  10.180  3.2993  0.3676 -1.7663
  3964G12c C01873529   1.514   7.551   9.998  0.7079  0.3861  0.4036
  3964G12c O00173530   1.607   7.589   9.895  0.1921 -0.4594 -2.3293
  3964G12c H00373531   1.613   7.522   9.829  7.7221  1.2801 -3.8694
  3964G12c C01973532   1.376   7.582   9.936  0.7042 -0.1365 -1.0236
  3964G12c H00273533   1.339   7.681   9.962 -0.4783 -1.7598  4.1839
  3964G12c H00173534   1.396   7.645   9.850  2.7833 -0.3312 -0.7218
  3964G12c O00073535   1.281   7.484   9.955 -0.1988  0.4745 -0.0991
  3964G12c C01A73536   1.133   7.498   9.925 -0.0724 -0.1893  0.2579
  3964G12c C02K73537   1.033   7.393   9.922 -0.9825 -1.2868 -0.3936
  3964G12c O00G73538   1.085   7.293   9.998 -0.2315 -0.1954  0.8116
  3964G12c C02M73539   1.034   7.171   9.973 -0.1223  1.4514 -2.9467
  3964G12c H01G73540   0.963   7.179   9.890 -6.4985  3.4470  2.3185
  3964G12c H01F73541   1.001   7.185  10.075 -0.9346 -0.6371 -2.9049
  3964G12c H01E73542   1.099   7.084   9.976 -0.6408  1.0955 -1.8157
  3964G12c C02J73543   0.902   7.439   9.921 -0.3260  0.7696 -1.4657
  3964G12c H01H73544   0.814   7.377   9.921 -0.1482  0.4016 -5.4931
  3964G12c C02I73545   0.872   7.570   9.873 -1.0573  1.3022 -1.2617
  3964G12c C02N73546   0.734   7.572   9.837  2.2412 -0.7906 -0.6480
  3964G12c H01M73547   0.663   7.500   9.877 -4.4651  2.5843 -5.4441
  3964G12c C02O73548   0.703   7.658   9.736  1.0547 -0.1971  0.9741
  3964G12c H01L73549   0.765   7.746   9.724 -1.8991  1.5080 -2.8491
  3964G12c C02P73550   0.575   7.667   9.662  0.9692 -0.1500 -0.5317
  3964G12c H01K73551   0.508   7.723   9.727 -4.2439 -0.5831 -5.1947
  3964G12c H01J73552   0.614   7.737   9.587 -0.5906 -0.9453 -2.1249
  3964G12c O00H73553   0.533   7.534   9.631 -0.0157 -0.8200 -2.1711
  3964G12c H01I73554   0.569   7.486   9.705  2.2758 -0.7732 -3.1980
  3964G12c C02H73555   0.982   7.658   9.830 -0.4959  0.0327 -0.6425
  3964G12c H01C73556   0.962   7.757   9.792 -0.5572 -0.2336 -1.3163
  3964G12c C02L73557   1.111   7.629   9.865 -1.6061  0.2921 -1.0661
  3964G12c H01D73558   1.185   7.702   9.835  1.8315 -3.8712 -3.4133
  3964G12c C01373559   1.771   7.386  10.082 -1.7551  1.6679 -0.8000
  3964G12c H00073560   1.744   7.415   9.981 -2.3105  1.2937 -0.7635
  3964G12c C01473561   1.880   7.305  10.130  0.7337  0.8016 -0.2039
  3964G12c C00F73562   1.925   7.186  10.070 -0.5539  0.9044  0.7666
  3964G12c C00H73563   2.100   7.168  10.242  2.4979 -0.4567 -0.6175
  3964G12c C00I73564   2.210   7.122  10.302 -0.4070  0.5418 -0.1236
  3964G12c C00J73565   2.233   7.168  10.427 -0.9788 -0.6652 -0.3292
  3964G12c C00Z73566   1.871   7.444  10.477 -0.2064  0.3483 -1.1363
  3964G12c C00Y73567   1.783   7.505  10.574 -0.5608  1.7658 -0.1757
  3964G12c H00673568   1.681   7.528  10.548 -3.1291  0.2114  7.2576
  3964G12c C00X73569   1.835   7.534  10.706  1.2873  0.5863 -0.5460
  3964G12c O00373570   1.740   7.559  10.805 -0.4358  0.5211  1.4895
  3964G12c C01B73571   1.750   7.688  10.857 -1.2082 -0.6861 -1.4586
  3964G12c H00973572   1.780   7.762  10.783 -2.0551  0.8502 -0.2937
  3964G12c H00873573   1.648   7.713  10.887 -1.3668 -1.3046 -1.4749
  3964G12c H00773574   1.837   7.672  10.921 -1.0324 -4.3234 -2.5297
  3964G12c C00W73575   1.957   7.482  10.748 -0.3632 -2.0196  1.1877
  3964G12c O00473576   1.972   7.479  10.878  0.0268 -0.7364  0.5175
  3964G12c C01C73577   2.098   7.455  10.940  1.0029  1.7558  0.9454
  3964G12c H00A73578   2.123   7.460  11.044  3.2499  7.3482  0.2849
  3964G12c C00P73579   2.157   7.357  10.860  0.5906  0.7208 -0.1862
  3964G12c C00O73580   2.221   7.258  10.927  0.1526  0.3600  0.6363
  3964G12c C01D73581   2.166   7.220  11.060 -0.3901  1.0613  0.9491
  3964G12c H00S73582   2.105   7.290  11.115 -5.3153 -1.3052 -1.1558
  3964G12c C01E73583   2.159   7.090  11.117  1.1416 -0.9473 -1.4519
  3964G12c O00873584   2.058   7.082  11.217 -0.3998  0.4182  0.5928
  3964G12c C01V73585   1.952   6.974  11.214 -0.5828  1.0046 -2.3409
  3964G12c C01Z73586   1.927   6.909  11.357  0.1947  1.8855  0.9268
  3964G12c H00R73587   1.978   6.982  11.421 -1.2470  0.7483  3.4422
  3964G12c H00Q73588   1.831   6.860  11.373  2.9091 -3.2109  3.1564
  3964G12c O00973589   2.014   6.774  11.350 -0.7548 -1.2476 -1.1043
  3964G12c H00P73590   2.094   6.769  11.400 -5.3144  7.3874  9.1013
  3964G12c C01W73591   1.909   6.923  11.093  0.7215  0.6224 -0.2309
  3964G12c H00O73592   1.935   6.955  10.993  0.4302 -0.2293 -0.5848
  3964G12c C01X73593   1.807   6.808  11.068 -0.9896 -0.2847  1.0983
  3964G12c H00N73594   1.861   6.747  10.996  1.7973  4.1075 -0.6935
  3964G12c H00M73595   1.777   6.778  11.168 -4.6162  5.9882  2.1680
  3964G12c C01Y73596   1.681   6.867  10.993 -0.8627 -0.0089  1.0160
  3964G12c C02D73597   1.615   6.979  11.054  0.3741 -0.1869  0.0720
  3964G12c H01973598   1.645   7.035  11.141  1.0009 -2.8696  1.6382
  3964G12c C02C73599   1.474   7.023  11.023  1.2759 -0.4679  0.3558
  3964G12c H01A73600   1.433   7.122  11.037  2.2781 -0.4519  3.7279
  3964G12c C02B73601   1.400   6.952  10.913 -0.8662  1.7724  0.0231
  3964G12c O00E73602   1.299   7.021  10.837  0.7820 -0.4113 -0.0879
  3964G12c H01B73603   1.262   6.980  10.760  2.3253 -0.6954 -0.7044
  3964G12c C02F73604   1.475   6.832  10.863 -1.7790 -0.8553 -0.6219
  3964G12c O00F73605   1.412   6.746  10.769  0.9389 -0.2644  0.5527
  3964G12c C02G73606   1.284   6.686  10.808 -0.9920  0.6356 -2.2185
  3964G12c H01773607   1.258   6.720  10.908 -0.7287  3.9089 -3.2085
  3964G12c H01673608   1.299   6.585  10.846 -0.1965  3.2294  5.2231
  3964G12c H01573609   1.206   6.721  10.741  2.2511 -0.7891 -6.9792
  3964G12c C02E73610   1.600   6.790  10.905 -0.4948 -0.8275  0.7628
  3964G12c H01873611   1.630   6.691  10.875  4.3691  1.4136 -2.5089
  3964G12c C01F73612   2.234   6.998  11.058 -0.5321  0.6448 -2.0704
  3964G12c C01G73613   2.235   6.860  11.106  0.6075  1.1188 -0.3029
  3964G12c H00L73614   2.189   6.841  11.201  1.5353  1.7360  0.2755
  3964G12c C01H73615   2.300   6.754  11.028  0.6022 -0.0011  0.2788
  3964G12c H00B73616   2.290   6.647  11.046 -0.5374 -0.6066 -3.5031
  3964G12c C01I73617   2.380   6.801  10.911  0.8117  0.3041 -1.4325
  3964G12c C01U73618   2.329   7.034  10.971  0.3496 -1.6384 -1.1800
  3964G12c C00S73619   2.184   7.274  10.497 -0.8413  0.7906  0.9560
  3964G12c C00K73620   2.321   7.095  10.521  1.1760 -0.7035 -0.6099
  3964G12c C00N73621   2.297   7.151  10.881 -1.0031  1.3930 -0.9066
  3964G12c C00073622   2.413   6.937  10.906  1.8917  1.3931  0.4425
  3964G12c C01J73623   2.412   6.756  10.788 -1.0785  0.4844  0.8629
  3964G12c C01K73624   2.396   6.611  10.748  1.4759 -0.2032  1.5533
  3964G12c C01P73625   2.410   6.483  10.821 -1.5359  1.4002  0.6826
  3964G12c C01Q73626   2.497   6.500  10.939  0.1855 -1.6665 -0.4524
  3964G12c H00G73627   2.478   6.585  11.003 -1.7990  0.7842 -4.1154
  3964G12c C01R73628   2.585   6.410  10.973  0.5411  1.3248 -0.8794
  3964G12c H00F73629   2.605   6.327  10.906 -1.7591  3.5768 -4.5484
  3964G12c C01S73630   2.653   6.383  11.115  0.5800 -0.8929 -0.0575
  3964G12c H00E73631   2.581   6.433  11.181  3.6904 -1.4014  3.8801
  3964G12c H00D73632   2.654   6.278  11.144  1.7483 -1.5235 -2.3128
  3964G12c O00573633   2.771   6.438  11.107 -0.4390  0.3439 -1.6006
  3964G12c H00C73634   2.780   6.532  11.096 -0.1408  1.0859  3.6010
  3964G12c C01O73635   2.360   6.373  10.751  0.7433  0.2083  0.3132
  3964G12c H00H73636   2.376   6.276  10.797 -1.6973  1.0588  3.0758
  3964G12c C01N73637   2.306   6.374  10.613 -1.8211  0.7924 -1.7595
  3964G12c O00673638   2.311   6.261  10.525  1.2913  0.8908 -1.3800
  3964G12c C01T73639   2.186   6.210  10.437  1.8446 -1.7044 -0.3499
  3964G12c H00K73640   2.203   6.133  10.362 -3.8871 -2.8757 -0.6872
  3964G12c H00J73641   2.101   6.196  10.504  2.1417  1.4075  0.7424
  3964G12c H00I73642   2.171   6.303  10.384  2.7093 -1.9658 -1.0674
  3964G12c C01M73643   2.271   6.489  10.565 -1.0127  0.2327 -1.3316
  3964G12c C02073644   2.371   6.961  10.473 -1.1406  0.7576  0.3062
  3964G12c C02173645   2.339   6.923  10.339 -0.3038  1.4421  0.5023
  3964G12c C01L73646   2.354   6.607  10.610  2.1459  0.2512  0.2897
  3964G12c O00773647   2.240   6.488  10.440  0.0287  0.8498  0.4312
  3964G12c C02273648   2.342   6.792  10.279  0.2372  2.0836  0.5831
  3964G12c C02373649   2.273   7.008  10.254 -1.1509 -1.4664  1.1136
  3964G12c C00G73650   2.037   7.121  10.124 -1.0659 -0.3893  0.8130
  3964G12c C00E73651   1.880   7.140   9.933  0.1234  0.3728 -1.6960
  3964G12c O00A73652   1.763   7.191   9.870  0.6260 -0.0401  0.4611
  3964G12c C02473653   1.645   7.108   9.874 -0.1044 -0.7278  0.0100
  3964G12c H00V73654   1.685   7.011   9.903 -0.6458 -1.4825 -1.6710
  3964G12c H00U73655   1.581   7.100   9.786 -3.2616  2.3687  1.8896
  3964G12c H00T73656   1.601   7.136   9.970 -0.9461  1.5799 -0.9957
  3974G12c C00D73657   5.030   4.950  11.511  1.0769 -0.9686 -0.3410
  3974G12c O00B73658   5.107   5.068  11.554  1.6689 -0.6090  1.2147
  3974G12c C02573659   5.066   5.144  11.667 -0.5433 -0.8462 -0.2770
  3974G12c C02673660   5.086   5.044  11.773 -0.9517 -1.2726  0.1949
  3974G12c H00Y73661   5.146   4.962  11.733  6.5055  4.1623 -0.6009
  3974G12c H00X73662   4.992   5.019  11.822 -1.1914 -2.7931 -1.0000
  3974G12c O00C73663   5.175   5.095  11.877  0.6256  0.0626  0.4722
  3974G12c H00W73664   5.138   5.151  11.943 -2.1952 -1.8247  0.6190
  3974G12c C02773665   5.017   5.267  11.679 -0.0089 -0.7355 -0.7988
  3974G12c O00D73666   4.966   5.348  11.572  0.0288 -0.5158 -0.8128
  3974G12c H00Z73667   4.983   5.313  11.485 -1.1352  5.5731 -3.7398
  3974G12c C02873668   4.982   5.329  11.813 -0.4070 -0.8066  0.9421
  3974G12c C02973669   4.892   5.284  11.901 -0.4201  0.8570  1.0613
  3974G12c H01073670   4.834   5.193  11.895 -3.9931  3.0379  0.6623
  3974G12c C02T73671   4.854   5.367  12.009 -0.7970 -1.9727  2.8026
  3974G12c H01O73672   4.776   5.367  12.084 -2.1896  1.8802  1.4636
  3974G12c C02S73673   4.928   5.501  12.019 -0.2979  0.9761 -0.0670
  3974G12c O00J73674   4.894   5.597  12.113 -0.0820  0.4506  1.2825
  3974G12c H01P73675   4.941   5.678  12.098 -1.5794  0.8945 -1.2357
  3974G12c C02R73676   5.012   5.543  11.913  0.6237  0.3453 -0.1253
  3974G12c O00I73677   5.058   5.671  11.924 -0.1918 -0.2195  1.7222
  3974G12c C02Q73678   5.180   5.706  11.873  0.2661  1.0098  0.8608
  3974G12c H01N73679   5.247   5.663  11.948  2.8720  0.7311 -1.5087
  3974G12c H01R73680   5.240   5.792  11.901  2.9571 -0.1334 -1.0957
  3974G12c H01Q73681   5.216   5.668  11.777 -3.8554 -0.2542 -0.2996
  3974G12c C02A73682   5.037   5.457  11.818 -0.5694 -0.6947 -0.3290
  3974G12c H01173683   5.125   5.473  11.759 -0.9083  3.7791  0.2380
  3974G12c C00C73684   4.897   4.923  11.569  1.4659  0.4321  1.1077
  3974G12c H01273685   4.854   4.989  11.642  0.7044  4.2553 -2.6395
  3974G12c C00B73686   4.803   4.835  11.517  0.4394 -0.1245 -1.4403
  3974G12c C00A73687   4.668   4.822  11.543  0.9604 -1.4419  0.2973
  3974G12c C00973688   4.634   4.778  11.682 -1.7428  0.1167  0.3893
  3974G12c C00873689   4.692   4.802  11.802  0.6666  0.5479  1.0770
  3974G12c H01373690   4.782   4.857  11.825  1.5959 -2.4539  5.1143
  3974G12c C00773691   4.619   4.741  11.909 -0.0978 -0.9053 -0.1579
  3974G12c H01473692   4.628   4.786  12.007  2.0476 -0.1247 -0.7021
  3974G12c C00673693   4.520   4.633  11.892  0.8212 -1.0586  0.5060
  3974G12c C00573694   4.481   4.622  11.761 -0.3488 -0.9165 -0.3868
  3974G12c C00473695   4.383   4.534  11.714 -0.4140 -1.5408 -1.3778
  3974G12c C00373696   4.352   4.517  11.569 -1.4454 -0.6845 -2.0732
  3974G12c C00273697   4.296   4.397  11.544 -1.2527 -0.7674  1.5901
  3974G12c C00173698   4.254   4.322  11.427  1.4859 -3.3979 -1.0450
  3974G12c C00M73699   4.340   4.296  11.307  1.1031  0.8093 -0.7236
  3974G12c C00L73700   4.430   4.397  11.280  0.6974  0.2655 -1.7655
  3974G12c C00R73701   4.545   4.378  11.198 -0.9880 -0.6192  0.6773
  3974G12c C00Q73702   4.608   4.257  11.135  0.6369  1.4568  1.2881
  3974G12c C00V73703   4.737   4.276  11.076 -0.3581 -0.6048 -1.0615
  3974G12c C00U73704   4.810   4.385  11.088  1.9560  0.2749 -1.1964
  3974G12c C00T73705   4.750   4.493  11.160  0.7823 -0.2201  0.7861
  3974G12c C01673706   4.821   4.590  11.231 -1.0159 -1.2839  0.2654
  3974G12c C01573707   4.953   4.613  11.180  0.9708 -0.7095  0.2256
  3974G12c C01073708   5.001   4.523  11.072 -0.3179  0.7784 -1.1140
  3974G12c C01173709   5.119   4.569  10.999 -0.9565 -0.5287  2.9712
  3974G12c H00573710   5.146   4.513  10.910  8.2658 -1.2722  5.7689
  3974G12c C01273711   5.194   4.678  11.049  0.3722  0.4058  0.0369
  3974G12c C01773712   5.316   4.715  10.983  0.0289 -0.2855  0.5582
  3974G12c O00273713   5.426   4.645  10.999  2.0395  0.0007 -1.2432
  3974G12c H00473714   5.388   4.590  10.932  5.8894 -1.5088 -2.3897
  3974G12c C01873715   5.325   4.840  10.943  0.7465  0.6528 -0.0129
  3974G12c O00173716   5.221   4.932  10.932 -0.7501  1.2387  0.4352
  3974G12c H00373717   5.190   4.929  11.021  0.7657 -4.2362  0.9916
  3974G12c C01973718   5.462   4.897  10.900  0.2506 -1.5444 -0.8858
  3974G12c H00273719   5.553   4.847  10.935  0.3112 -3.4015 -3.5339
  3974G12c H00173720   5.451   4.862  10.797 -1.3807 -8.8365  1.4963
  3974G12c O00073721   5.465   5.037  10.922  1.1825 -0.8208  1.8768
  3974G12c C01A73722   5.586   5.098  10.880  0.4623 -2.8816  0.1576
  3974G12c C02K73723   5.570   5.205  10.791  1.0399 -1.0750  0.1588
  3974G12c O00G73724   5.433   5.195  10.754 -0.0399 -1.4729 -0.2677
  3974G12c C02M73725   5.419   5.158  10.608 -0.1008  2.1407  0.0313
  3974G12c H01G73726   5.346   5.077  10.617  0.1979  1.4661 -2.8329
  3974G12c H01F73727   5.481   5.100  10.540 -0.8546  3.8292 -2.1678
  3974G12c H01E73728   5.396   5.249  10.553 -0.7885  2.1975  0.4080
  3974G12c C02J73729   5.672   5.295  10.778 -0.7952  0.1758  1.3773
  3974G12c H01H73730   5.659   5.379  10.711 -5.8054  2.6003  5.1323
  3974G12c C02I73731   5.799   5.295  10.842  0.2801  0.3493 -0.3323
  3974G12c C02N73732   5.892   5.416  10.842  0.1582  1.0689  1.1551
  3974G12c H01M73733   5.860   5.516  10.866  1.5407  1.3584  1.8246
  3974G12c C02O73734   6.024   5.383  10.857 -0.1485  0.4525  0.3634
  3974G12c H01L73735   6.075   5.287  10.857 -1.2958 -0.1668 -1.1742
  3974G12c C02P73736   6.114   5.499  10.881  1.0385  0.5870  0.4719
  3974G12c H01K73737   6.185   5.486  10.962 -1.7701 -1.8839  2.6802
  3974G12c H01J73738   6.173   5.477  10.792  1.3705 -2.7787  1.4530
  3974G12c O00H73739   6.051   5.633  10.891 -1.8073 -0.0786 -0.6882
  3974G12c H01I73740   6.060   5.642  10.797 -5.8928  0.9548 -1.0904
  3974G12c C02H73741   5.818   5.192  10.918 -0.0156  0.6178  1.5337
  3974G12c H01C73742   5.909   5.204  10.976  3.3018  2.3702 -3.6649
  3974G12c C02L73743   5.719   5.084  10.940 -0.2614 -0.7227  0.1453
  3974G12c H01D73744   5.758   5.007  11.005 -1.3708 -0.5120  1.0744
  3974G12c C01373745   5.147   4.734  11.173  0.9801 -1.8308 -0.3959
  3974G12c H00073746   5.199   4.829  11.172  0.8152 -1.5360  5.3204
  3974G12c C01473747   5.028   4.713  11.230  0.8466 -0.5554 -2.4422
  3974G12c C00F73748   4.971   4.800  11.326  1.2942 -0.6800 -1.0223
  3974G12c C00H73749   4.774   4.676  11.341 -0.2424  1.0965 -1.2481
  3974G12c C00I73750   4.636   4.673  11.358  0.0844 -0.4739 -0.6729
  3974G12c C00J73751   4.559   4.588  11.278 -1.3782 -0.3612 -0.8455
  3974G12c C00Z73752   4.928   4.405  11.028  0.0446  1.6719 -0.2590
  3974G12c C00Y73753   4.971   4.297  10.932 -0.0119  1.0796  0.5086
  3974G12c H00673754   5.076   4.291  10.907  1.2573  9.9197  1.7597
  3974G12c C00X73755   4.891   4.190  10.908  0.9922 -0.2404  0.2428
  3974G12c O00373756   4.917   4.103  10.810 -0.8957  0.1276  1.2339
  3974G12c C01B73757   4.981   4.155  10.709  0.7212  1.2543 -0.3059
  3974G12c H00973758   4.955   4.101  10.618 -1.0640  2.8621 -0.7681
  3974G12c H00873759   5.086   4.126  10.720 -0.7716 -5.8239 -2.2693
  3974G12c H00773760   4.955   4.259  10.688 -1.5781  1.3934  2.8930
  3974G12c C00W73761   4.778   4.178  10.987 -0.6040  0.6207  1.1977
  3974G12c O00473762   4.700   4.081  10.963  0.3516 -0.0609 -1.1321
  3974G12c C01C73763   4.635   4.030  11.072  1.2679 -0.7094 -0.4413
  3974G12c H00A73764   4.690   3.962  11.136  1.7014 -1.0761 -1.1979
  3974G12c C00P73765   4.563   4.116  11.151  0.6113  0.4188  0.3147
  3974G12c C00O73766   4.449   4.065  11.214 -1.8107  1.1236 -0.5231
  3974G12c C01D73767   4.427   3.932  11.224  0.3508 -0.2342  0.3101
  3974G12c H00S73768   4.465   3.860  11.153 -4.9688  3.4103 -6.9870
  3974G12c C01E73769   4.369   3.877  11.346 -0.5688 -1.3059 -0.9897
  3974G12c O00873770   4.373   3.755  11.393 -0.5049 -0.0131 -0.4958
  3974G12c C01V73771   4.385   3.646  11.315 -0.8983  1.0113  0.6054
  3974G12c C01Z73772   4.266   3.561  11.309  0.6754  1.3816 -0.6680
  3974G12c H00R73773   4.234   3.624  11.226 -4.2407  1.3660  1.0430
  3974G12c H00Q73774   4.320   3.467  11.319  0.2174  1.4496  3.0446
  3974G12c O00973775   4.186   3.596  11.416  0.0808 -0.2975  0.6866
  3974G12c H00P73776   4.224   3.668  11.464  5.0048 -2.8561  1.0062
  3974G12c C01W73777   4.498   3.631  11.265 -1.3973  0.7912 -0.5159
  3974G12c H00O73778   4.573   3.682  11.324  4.9574 -2.8370 -4.8528
  3974G12c C01X73779   4.520   3.542  11.142 -0.4391 -0.2774 -1.5044
  3974G12c H00N73780   4.435   3.551  11.074 -1.5328  4.8278  0.3253
  3974G12c H00M73781   4.598   3.602  11.097  3.5072 -2.5929  1.8294
  3974G12c C01Y73782   4.589   3.417  11.212 -0.6771 -0.0824  0.6854
  3974G12c C02D73783   4.643   3.325  11.119 -0.6917 -2.1747  0.0622
  3974G12c H01973784   4.642   3.328  11.011 -3.2635  7.8550 -0.1754
  3974G12c C02C73785   4.701   3.206  11.166 -0.1320 -1.3269 -0.1597
  3974G12c H01A73786   4.738   3.152  11.080 -3.9434  5.0324 -6.2891
  3974G12c C02B73787   4.699   3.159  11.294  1.7683  1.3444 -0.2586
  3974G12c O00E73788   4.760   3.032  11.325  0.4209 -0.1660 -0.7681
  3974G12c H01B73789   4.843   3.036  11.371  0.6984  3.5005 -1.4138
  3974G12c C02F73790   4.623   3.243  11.390  0.2205  0.7418 -1.6562
  3974G12c O00F73791   4.591   3.205  11.517  0.6091  0.5639  0.5143
  3974G12c C02G73792   4.517   3.086  11.509 -0.0805 -0.6005 -0.9361
  3974G12c H01773793   4.516   3.030  11.602  4.3867  3.6055  1.8563
  3974G12c H01673794   4.525   3.013  11.429  0.4831 -1.4658 -0.0999
  3974G12c H01573795   4.419   3.135  11.510  2.5000  5.2077  5.6118
  3974G12c C02E73796   4.576   3.373  11.345 -0.4922  1.3888 -0.5394
  3974G12c H01873797   4.548   3.445  11.421  3.2376  4.7311 -2.1264
  3974G12c C01F73798   4.323   3.968  11.440  0.2509  0.4990 -0.6985
  3974G12c C01G73799   4.289   3.954  11.580 -0.2565  0.8437 -1.1142
  3974G12c H00L73800   4.320   3.871  11.642  7.8553  1.2412 -4.0432
  3974G12c C01H73801   4.254   4.067  11.668  0.5643  0.4130  0.3955
  3974G12c H00B73802   4.265   4.053  11.775  3.8018  4.3749  0.6831
  3974G12c C01I73803   4.221   4.190  11.607 -0.5036  1.4371  1.3708
  3974G12c C01U73804   4.284   4.090  11.401 -0.6337  2.2793  0.3643
  3974G12c C00S73805   4.617   4.492  11.199  1.0624  0.4546  0.8540
  3974G12c C00K73806   4.457   4.524  11.347  0.4634 -1.1325  0.0931
  3974G12c C00N73807   4.366   4.148  11.297 -0.7680 -0.8110  0.4454
  3974G12c C00073808   4.217   4.195  11.471  0.0983 -0.7465 -1.5590
  3974G12c C01J73809   4.244   4.318  11.652 -0.4670 -0.1333  0.9572
  3974G12c C01K73810   4.259   4.343  11.806 -0.1779  1.2113  0.6220
  3974G12c C01P73811   4.221   4.270  11.919 -0.4274 -0.2142 -0.6700
  3974G12c C01Q73812   4.107   4.193  11.907  0.9370  0.7367 -0.6355
  3974G12c H00G73813   4.098   4.113  11.834 -5.4917  4.3082 -4.1930
  3974G12c C01R73814   4.019   4.164  12.008 -1.0640  0.5803  0.3532
  3974G12c H00F73815   4.045   4.234  12.086  3.6911  1.8656 -2.1901
  3974G12c C01S73816   3.890   4.074  11.998 -0.5360  0.8790 -0.6150
  3974G12c H00E73817   3.845   4.044  12.092  4.7685 -1.9255  1.2395
  3974G12c H00D73818   3.798   4.121  11.964 -2.9929 -0.6580  3.5484
  3974G12c O00573819   3.894   3.952  11.934  0.9831 -0.2292 -0.5412
  3974G12c H00C73820   3.960   3.986  11.876  1.3401 -2.2145 -1.3240
  3974G12c C01O73821   4.281   4.304  12.045  0.1164 -2.0558 -1.5909
  3974G12c H00H73822   4.251   4.248  12.132  1.5531  3.3280  2.5965
  3974G12c C01N73823   4.368   4.403  12.062  1.6505  0.9415  2.0593
  3974G12c O00673824   4.408   4.433  12.188  0.6618 -0.6588  1.0335
  3974G12c C01T73825   4.541   4.412  12.209 -0.0879 -1.2758  1.0353
  3974G12c H00K73826   4.539   4.445  12.313  0.5227 -0.0759  0.6799
  3974G12c H00J73827   4.621   4.454  12.148 -0.8774  0.9384  1.4781
  3974G12c H00I73828   4.556   4.307  12.234 -3.4939 -1.6662  1.6254
  3974G12c C01M73829   4.373   4.486  11.950 -1.7898  0.1746 -0.7990
  3974G12c C02073830   4.417   4.593  11.470  0.1082  1.1789 -0.2680
  3974G12c C02173831   4.465   4.712  11.521 -1.2767 -0.4206  0.1066
  3974G12c C01L73832   4.327   4.465  11.817  0.5945 -1.0209 -0.3323
  3974G12c O00773833   4.440   4.585  11.991 -2.5061 -0.5925  0.0204
  3974G12c C02273834   4.511   4.727  11.665 -2.0464 -0.6234  1.1705
  3974G12c C02373835   4.586   4.759  11.448 -0.5113 -0.0311 -0.2579
  3974G12c C00G73836   4.855   4.773  11.398 -1.0200  2.6332  0.4247
  3974G12c C00E73837   5.067   4.891  11.393 -0.7237 -2.6952  0.2786
  3974G12c O00A73838   5.194   4.938  11.355  0.8335 -0.3864  1.5972
  3974G12c C02473839   5.188   5.076  11.304 -0.5660 -0.3925  0.9813
  3974G12c H00V73840   5.277   5.129  11.270 -0.7819  0.8428  2.2958
  3974G12c H00U73841   5.145   5.164  11.350 -1.0110 -2.8927  5.6635
  3974G12c H00T73842   5.125   5.088  11.216 -0.9826 -3.3883  0.7993
  3984G12c C00D73843  11.190   4.586   6.968 -0.2054  0.9930 -0.9481
  3984G12c O00B73844  11.132   4.496   6.896 -0.4519  0.6652 -1.1312
  3984G12c C02573845  11.148   4.359   6.873 -0.9904 -0.6221  0.7735
  3984G12c C02673846  11.106   4.262   6.972  0.5896  0.4654 -0.1682
  3984G12c H00Y73847  11.011   4.212   6.949 -0.9708  2.0545  2.6087
  3984G12c H00X73848  11.062   4.320   7.053 -4.6405  1.5613 -3.5100
  3984G12c O00C73849  11.201   4.198   7.031  1.1759 -0.5017 -2.3277
  3984G12c H00W73850  11.217   4.119   6.981 -1.0096 -0.0882 -3.7684
  3984G12c C02773851  11.167   4.325   6.748 -1.1601  0.6354  1.0351
  3984G12c O00D73852  11.121   4.415   6.652 -0.1975 -0.9353  0.8387
  3984G12c H00Z73853  11.176   4.491   6.662 -0.4240  0.8558 -7.7641
  3984G12c C02873854  11.196   4.191   6.721  0.4692  0.6308  1.3442
  3984G12c C02973855  11.296   4.110   6.787  0.4475  1.7938 -0.3102
  3984G12c H01073856  11.353   4.132   6.875  4.3542  3.0932 -3.0253
  3984G12c C02T73857  11.330   3.985   6.729  1.3770  0.4012  1.3418
  3984G12c H01O73858  11.403   3.929   6.786  2.3239  3.3692  3.1467
  3984G12c C02S73859  11.239   3.927   6.635  0.2393  0.8785 -1.1368
  3984G12c O00J73860  11.266   3.792   6.617 -0.3344  0.2144 -0.6753
  3984G12c H01P73861  11.252   3.763   6.528 -1.7335  5.0097 -2.1669
  3984G12c C02R73862  11.187   4.013   6.539  0.0764 -2.4744 -1.2185
  3984G12c O00I73863  11.176   3.975   6.397  2.2378 -0.9541 -0.3684
  3984G12c C02Q73864  11.128   4.053   6.296  1.4733  0.6350 -1.7184
  3984G12c H01N73865  11.177   4.150   6.280  6.4918 -0.7499  3.5806
  3984G12c H01R73866  11.145   3.990   6.209  3.2569 -0.8106 -0.3456
  3984G12c H01Q73867  11.024   4.059   6.327  1.1704  2.4512 -3.0174
  3984G12c C02A73868  11.151   4.140   6.596  1.2533  1.3983 -0.4100
  3984G12c H01173869  11.105   4.211   6.529  4.9793  4.1782 -0.1812
  3984G12c C00C73870  11.323   4.559   7.014 -0.2904  0.2362 -1.6554
  3984G12c H01273871  11.377   4.469   6.988 -2.3877 -1.7025  0.5149
  3984G12c C00B73872  11.401   4.646   7.093  0.3772  1.7750 -1.0497
  3984G12c C00A73873  11.539   4.637   7.131 -0.1161 -1.0523 -1.3357
  3984G12c C00973874  11.625   4.526   7.154  0.7467  0.4198 -1.5557
  3984G12c C00873875  11.593   4.386   7.165 -1.8140  0.1081 -1.1656
  3984G12c H01373876  11.534   4.322   7.102  2.1292 -2.3309 -2.5475
  3984G12c C00773877  11.695   4.309   7.241  0.1523 -2.1798  0.9455
  3984G12c H01473878  11.685   4.202   7.256 -2.8261 -2.5569 -2.7134
  3984G12c C00673879  11.803   4.345   7.320  0.7348 -0.7251  0.8319
  3984G12c C00573880  11.810   4.492   7.304  2.2625  0.9741 -0.6555
  3984G12c C00473881  11.889   4.561   7.391 -1.0649 -1.0499  0.4166
  3984G12c C00373882  11.876   4.704   7.408 -1.7228  1.5581 -0.9354
  3984G12c C00273883  11.943   4.770   7.512 -0.4461 -0.3744 -0.8866
  3984G12c C00173884  11.960   4.904   7.553  0.6097  0.2988  1.5403
  3984G12c C00M73885  11.834   4.971   7.572  0.8205  1.1207  0.5489
  3984G12c C00L73886  11.762   5.023   7.459 -0.7506  0.1145  1.2340
  3984G12c C00R73887  11.631   5.084   7.482  0.3018  0.3864  0.6470
  3984G12c C00Q73888  11.567   5.140   7.590 -0.3253 -0.9155  0.8074
  3984G12c C00V73889  11.428   5.193   7.572 -1.1242  0.5288 -0.9822
  3984G12c C00U73890  11.360   5.156   7.463 -1.0845  1.5316  0.4917
  3984G12c C00T73891  11.413   5.059   7.377 -0.5281  0.3827 -0.4859
  3984G12c C01673892  11.343   4.969   7.293  0.5535 -0.3189 -0.0586
  3984G12c C01573893  11.212   4.993   7.267 -0.1015  1.2212  0.2802
  3984G12c C01073894  11.151   5.097   7.345  1.2761  0.5858  0.9564
  3984G12c C01173895  11.011   5.121   7.306  1.5263 -0.4393 -0.0939
  3984G12c H00573896  10.971   5.219   7.327 -0.0431 -1.1510  0.2635
  3984G12c C01273897  10.941   5.045   7.211  0.5137 -0.1278 -1.8230
  3984G12c C01773898  10.827   5.080   7.145  1.8792  0.1764 -1.3145
  3984G12c O00273899  10.729   5.076   7.226  0.8579 -0.7522 -0.6250
  3984G12c H00473900  10.667   5.009   7.201 -0.6521  1.4203 -3.0357
  3984G12c C01873901  10.831   5.124   7.019  0.4513 -1.9610  0.4729
  3984G12c O00173902  10.945   5.165   6.962 -0.8109 -0.4282  0.8312
  3984G12c H00373903  10.915   5.201   6.880 -0.9152  1.9768  1.8653
  3984G12c C01973904  10.718   5.149   6.913 -1.1891  0.4125 -0.1900
  3984G12c H00273905  10.616   5.155   6.952 -0.9227  2.1086  0.3053
  3984G12c H00173906  10.703   5.249   6.872  1.3059 -0.7097 -4.1403
  3984G12c O00073907  10.763   5.092   6.777 -0.1985  1.0163 -1.1908
  3984G12c C01A73908  10.824   5.175   6.671 -1.0329  0.8908 -0.5874
  3984G12c C02K73909  10.969   5.182   6.627 -1.3309 -1.9955 -0.9187
  3984G12c O00G73910  11.061   5.094   6.688  0.4159  0.8197 -0.3627
  3984G12c C02M73911  11.014   4.976   6.628 -1.8330 -0.0282  0.2905
  3984G12c H01G73912  10.931   4.910   6.657  0.3655 -2.5367  1.0467
  3984G12c H01F73913  11.088   4.933   6.695 -0.6891 -1.5944 -1.9299
  3984G12c H01E73914  11.053   4.993   6.528  0.3476 -3.6970  0.4385
  3984G12c C02J73915  10.999   5.264   6.518 -0.0101 -1.6003  0.8660
  3984G12c H01H73916  11.103   5.271   6.490  1.7870 -3.6213  6.2868
  3984G12c C02I73917  10.885   5.323   6.435  0.1124  0.6545 -0.0628
  3984G12c C02N73918  10.932   5.356   6.310  0.9658 -0.7564  0.1961
  3984G12c H01M73919  10.921   5.463   6.310 -7.3410 -1.3002 -0.1751
  3984G12c C02O73920  10.933   5.254   6.214 -0.0273 -0.2046  1.6125
  3984G12c H01L73921  10.929   5.151   6.246  6.3930 -1.3428 -0.5514
  3984G12c C02P73922  10.963   5.259   6.066 -0.8344 -0.8364 -0.0441
  3984G12c H01K73923  10.957   5.154   6.040  3.7872 -2.2004  3.6066
  3984G12c H01J73924  10.883   5.295   6.001  2.4552  0.4451 -3.5618
  3984G12c O00H73925  11.094   5.293   6.036  1.4067  0.3410 -0.0960
  3984G12c H01I73926  11.111   5.384   6.056  0.5189  2.5691 -7.7468
  3984G12c C02H73927  10.745   5.319   6.480  0.4529  0.9370  0.7294
  3984G12c H01C73928  10.657   5.367   6.440  1.1089  0.2651 -1.5702
  3984G12c C02L73929  10.726   5.252   6.606  0.5264  0.7872  0.5315
  3984G12c H01D73930  10.619   5.248   6.620  0.2385 -2.9401 -1.8277
  3984G12c C01373931  11.001   4.925   7.187  0.8235  1.7004  1.3474
  3984G12c H00073932  10.924   4.861   7.148 -3.4072  7.4017 -0.3706
  3984G12c C01473933  11.142   4.903   7.195 -0.1587  0.2627 -1.2353
  3984G12c C00F73934  11.196   4.777   7.130  0.6055  1.4005 -0.2019
  3984G12c C00H73935  11.401   4.863   7.227 -0.4843 -0.0692 -0.3638
  3984G12c C00I73936  11.533   4.842   7.237 -2.1328 -0.5662  1.0742
  3984G12c C00J73937  11.609   4.936   7.310 -1.4056 -0.0336  0.9247
  3984G12c C00Z73938  11.226   5.173   7.434  0.1086  1.5985 -0.7595
  3984G12c C00Y73939  11.155   5.281   7.506  1.0119  0.9622  0.6764
  3984G12c H00673940  11.055   5.316   7.483 -0.3640 -0.7739  3.7430
  3984G12c C00X73941  11.229   5.335   7.597  0.4572 -1.3998 -1.6826
  3984G12c O00373942  11.155   5.421   7.673 -0.2537 -0.3578  0.4215
  3984G12c C01B73943  11.198   5.508   7.770  1.7890 -0.2045  0.1078
  3984G12c H00973944  11.284   5.565   7.736 -1.6751  6.0899  1.1607
  3984G12c H00873945  11.199   5.475   7.874 -4.3001  3.4319  1.5311
  3984G12c H00773946  11.118   5.577   7.744  1.2241 -0.1839  1.8182
  3984G12c C00W73947  11.358   5.283   7.645  1.1312 -0.0609  0.9498
  3984G12c O00473948  11.409   5.306   7.772 -0.1961  1.7153  0.3012
  3984G12c C01C73949  11.525   5.246   7.812 -0.4220 -1.0945  0.3895
  3984G12c H00A73950  11.575   5.297   7.894 -5.3553 -1.0863  3.6303
  3984G12c C00P73951  11.609   5.152   7.725 -0.4605 -0.8759 -0.5139
  3984G12c C00O73952  11.711   5.063   7.778  2.0211  0.9856 -0.3308
  3984G12c C01D73953  11.713   5.032   7.919  1.0182  0.7558  0.8925
  3984G12c H00S73954  11.627   5.067   7.975  3.6594  4.6237  2.7876
  3984G12c C01E73955  11.820   4.958   7.987  0.9430  0.2406  0.6942
  3984G12c O00873956  11.834   4.935   8.123 -0.9088 -1.4740  0.8643
  3984G12c C01V73957  11.717   4.897   8.183  0.0252  0.2919 -0.8447
  3984G12c C01Z73958  11.686   4.750   8.186 -0.5699  1.3587  0.7880
  3984G12c H00R73959  11.746   4.662   8.210 -2.8645 -2.3122 -5.6620
  3984G12c H00Q73960  11.583   4.727   8.212 -0.7113 -0.2685 -1.1301
  3984G12c O00973961  11.648   4.709   8.052  1.0241 -0.1272 -1.2720
  3984G12c H00P73962  11.732   4.703   8.010  1.1294  1.0542 -1.2404
  3984G12c C01W73963  11.632   4.981   8.221 -1.0864  0.2479 -1.1284
  3984G12c H00O73964  11.664   5.081   8.195 -7.2637  2.3302 -1.5110
  3984G12c C01X73965  11.530   4.979   8.319 -0.2653  1.1145  0.4020
  3984G12c H00N73966  11.521   4.880   8.364 -0.2435  2.9402  4.6552
  3984G12c H00M73967  11.549   5.029   8.414  1.6180  7.8472 -3.2040
  3984G12c C01Y73968  11.380   4.998   8.300  1.1369  0.0497  1.1665
  3984G12c C02D73969  11.318   4.995   8.179 -0.1328  0.6582 -1.0737
  3984G12c H01973970  11.343   4.947   8.085 -0.3245 -0.1798 -0.6944
  3984G12c C02C73971  11.195   5.055   8.180  0.9936  0.4971  1.1326
  3984G12c H01A73972  11.145   5.022   8.090  1.6093 -1.4385  1.4784
  3984G12c C02B73973  11.130   5.122   8.274  1.4153  0.1644  0.5373
  3984G12c O00E73974  11.002   5.171   8.256  1.8243 -0.3565  0.6548
  3984G12c H01B73975  10.966   5.253   8.285  1.3788 -2.9291  8.8237
  3984G12c C02F73976  11.180   5.105   8.403  0.2660 -0.5492  0.5018
  3984G12c O00F73977  11.129   5.160   8.521 -0.1767  0.7264 -0.7873
  3984G12c C02G73978  11.004   5.187   8.550 -0.2517 -0.5570 -0.2876
  3984G12c H01773979  10.954   5.239   8.468  3.7094  6.9730  1.7131
  3984G12c H01673980  11.004   5.287   8.592  6.0671 -1.3401  2.0032
  3984G12c H01573981  10.931   5.135   8.612  0.3538  0.4167  1.2527
  3984G12c C02E73982  11.314   5.056   8.405 -0.3887  1.2104  0.0654
  3984G12c H01873983  11.353   5.078   8.503 -4.6742  2.4804  1.6044
  3984G12c C01F73984  11.910   4.901   7.895  0.0391  0.0602 -0.7935
  3984G12c C01G73985  11.987   4.795   7.946 -0.4664  0.1891  0.2533
  3984G12c H00L73986  11.981   4.761   8.048 -1.4275 -1.0222 -0.1915
  3984G12c C01H73987  12.055   4.720   7.841 -0.4229 -0.4779  0.5578
  3984G12c H00B73988  12.122   4.640   7.867 -0.8761  0.1804  3.9264
  3984G12c C01I73989  12.061   4.761   7.718  1.0693  0.8080 -0.3611
  3984G12c C01U73990  11.921   4.944   7.764  0.0639 -2.3078 -0.1721
  3984G12c C00S73991  11.550   5.033   7.396 -1.2313 -0.2972  0.8628
  3984G12c C00K73992  11.744   4.917   7.362 -0.0390  1.1478  0.1622
  3984G12c C00N73993  11.813   5.022   7.705  0.1087 -1.2451  0.7651
  3984G12c C00073994  12.007   4.882   7.690 -1.2354 -2.4309 -0.5648
  3984G12c C01J73995  12.031   4.693   7.593 -1.6910 -1.8977  0.6670
  3984G12c C01K73996  12.060   4.556   7.567 -0.9573  0.7686  1.1641
  3984G12c C01P73997  12.194   4.505   7.568  0.7606 -0.1272  0.8968
  3984G12c C01Q73998  12.294   4.582   7.626 -0.5805  0.4638  1.1107
  3984G12c H00G73999  12.321   4.686   7.626  0.1433  0.3181 -2.1838
  3984G12c C01R74000  12.382   4.543   7.712  0.1164  0.4811  0.3874
  3984G12c H00F74001  12.406   4.438   7.715 -2.8422 -0.2523 -0.2410
  3984G12c C01S74002  12.505   4.588   7.801  0.2169 -1.6233 -0.4185
  3984G12c H00E74003  12.569   4.503   7.826 -2.4986 -3.6088 -0.0113
  3984G12c H00D74004  12.559   4.682   7.793 -1.0886  0.5398  9.3511
  3984G12c O00574005  12.420   4.632   7.931 -0.1996 -0.9561 -1.1155
  3984G12c H00C74006  12.349   4.686   7.900  0.5057 -0.6841 -2.2847
  3984G12c C01O74007  12.212   4.364   7.539  0.1315  2.0059 -1.5900
  3984G12c H00H74008  12.309   4.318   7.552 -0.0505  1.5169 -1.9464
  3984G12c C01N74009  12.099   4.290   7.504 -1.2991  0.4213 -1.2150
  3984G12c O00674010  12.087   4.148   7.496  0.8008  0.8792 -1.5874
  3984G12c C01T74011  12.152   4.083   7.594 -0.3173 -0.4340  0.6519
  3984G12c H00K74012  12.161   3.986   7.546  0.3213  2.3009 -5.2568
  3984G12c H00J74013  12.241   4.141   7.622  4.3357 -6.4744 -0.5712
  3984G12c H00I74014  12.098   4.087   7.689  3.8146  3.4958  3.0462
  3984G12c C01M74015  11.989   4.342   7.439  0.7598 -1.3217  0.6491
  3984G12c C02074016  11.790   4.778   7.316  0.1189 -1.2687 -1.4579
  3984G12c C02174017  11.733   4.716   7.202  0.8311  1.0690 -1.2449
  3984G12c C01L74018  11.964   4.487   7.487 -0.6868 -1.8919  2.4518
  3984G12c O00774019  11.888   4.279   7.392  0.1124  0.7204 -1.0963
  3984G12c C02274020  11.733   4.577   7.216 -0.1799 -0.9703 -0.2417
  3984G12c C02374021  11.599   4.741   7.178  1.3817  0.6087  1.0486
  3984G12c C00G74022  11.337   4.764   7.142  0.3827  1.8054  0.8646
  3984G12c C00E74023  11.129   4.707   7.014  1.2005 -1.1737  0.1067
  3984G12c O00A74024  11.021   4.749   6.941  1.0883 -0.1882 -0.5708
  3984G12c C02474025  10.907   4.660   6.912  1.5650  1.3840  0.8042
  3984G12c H00V74026  10.822   4.721   6.943 -1.0565  0.2922 -3.8097
  3984G12c H00U74027  10.898   4.565   6.964  1.6794  3.5591  4.9970
  3984G12c H00T74028  10.941   4.647   6.809 -2.0304  0.3260 -0.3257
  3994G12c C00D74029   5.189   0.945   7.733  0.8656 -1.5579  0.5347
  3994G12c O00B74030   5.160   0.902   7.599  1.7218  0.4258 -0.3051
  3994G12c C02574031   5.048   0.803   7.580 -0.2917 -0.7317  1.2460
  3994G12c C02674032   4.960   0.845   7.480  0.0776  0.2995  0.7799
  3994G12c H00Y74033   4.892   0.895   7.548 -1.1178  2.7150 -2.0518
  3994G12c H00X74034   4.880   0.776   7.452  0.6379  0.1312 -0.4579
  3994G12c O00C74035   5.011   0.950   7.416 -0.9152  0.9887 -0.0139
  3994G12c H00W74036   4.951   1.022   7.400 -1.0129  1.5442  2.7009
  3994G12c C02774037   5.017   0.687   7.649  0.5425 -1.0922  1.3239
  3994G12c O00D74038   5.111   0.668   7.742 -0.8408  0.8842 -0.2742
  3994G12c H00Z74039   5.128   0.755   7.776  1.1840 -1.6165  5.7303
  3994G12c C02874040   4.900   0.614   7.644  1.8811 -0.1945 -1.0388
  3994G12c C02974041   4.805   0.642   7.739 -2.0490 -0.0181 -0.4506
  3994G12c H01074042   4.839   0.720   7.806 -5.7853  1.9944 -0.7563
  3994G12c C02T74043   4.688   0.578   7.737 -0.8046  1.3888  0.4463
  3994G12c H01O74044   4.616   0.601   7.814 -1.7335  5.6099 -1.5252
  3994G12c C02S74045   4.669   0.471   7.636 -0.2607 -0.1198 -1.2965
  3994G12c O00J74046   4.562   0.394   7.643 -0.0641  1.2852 -1.8351
  3994G12c H01P74047   4.598   0.309   7.621 -4.1939 -3.3847  6.8242
  3994G12c C02R74048   4.782   0.439   7.539 -0.7002  2.2052 -1.5903
  3994G12c O00I74049   4.793   0.312   7.488 -0.0117  0.4444  0.2500
  3994G12c C02Q74050   4.727   0.305   7.371  0.5645  1.6653  0.5293
  3994G12c H01N74051   4.749   0.376   7.291 -1.8299  4.0037  1.8520
  3994G12c H01R74052   4.708   0.207   7.327 -7.8590  0.3403  5.9945
  3994G12c H01Q74053   4.623   0.330   7.392 -1.1737 -1.0940 -3.9202
  3994G12c C02A74054   4.888   0.527   7.544  1.2792  1.3012  1.6136
  3994G12c H01174055   4.984   0.492   7.508  0.5430 -2.0058  2.6328
  3994G12c C00C74056   5.089   0.987   7.807  1.7012 -0.4992  0.5745
  3994G12c H01274057   4.988   0.955   7.788  1.7412  2.7492 -6.6846
  3994G12c C00B74058   5.102   1.057   7.937  0.1661 -0.1948  0.8759
  3994G12c C00A74059   5.017   1.132   8.022  0.4284 -0.7379  0.6929
  3994G12c C00974060   4.890   1.206   7.992 -0.3214 -0.1366 -0.9022
  3994G12c C00874061   4.847   1.286   7.895 -1.0453  1.5204 -0.4668
  3994G12c H01374062   4.904   1.298   7.804 -0.3583  6.3293  0.4749
  3994G12c C00774063   4.722   1.359   7.905 -0.3251  0.0657  0.6921
  3994G12c H01474064   4.675   1.397   7.816 -1.0597 -2.0296  0.1558
  3994G12c C00674065   4.671   1.388   8.026 -0.5942 -0.2110 -0.9953
  3994G12c C00574066   4.745   1.341   8.145 -1.1157  2.3392 -1.2825
  3994G12c C00474067   4.731   1.376   8.292  1.4431  0.2322  1.0729
  3994G12c C00374068   4.834   1.342   8.381  0.2371  2.0972 -0.2447
  3994G12c C00274069   4.839   1.433   8.491 -0.3806  0.2991 -0.9380
  3994G12c C00174070   4.935   1.441   8.602 -0.2995  1.2806 -0.5483
  3994G12c C00M74071   5.076   1.438   8.569 -1.2107 -0.8843 -1.0711
  3994G12c C00L74072   5.139   1.330   8.499  1.8491  0.0353 -0.6087
  3994G12c C00R74073   5.279   1.338   8.468 -0.6814  0.4494  0.2296
  3994G12c C00Q74074   5.390   1.430   8.485 -1.1643 -0.5759  1.6474
  3994G12c C00V74075   5.502   1.398   8.412 -1.0044 -1.0197  0.8310
  3994G12c C00U74076   5.502   1.300   8.311  1.0901  0.8589 -0.1449
  3994G12c C00T74077   5.392   1.230   8.279  0.5158 -0.6462 -0.2296
  3994G12c C01674078   5.375   1.158   8.165 -1.6007 -0.0636 -0.7300
  3994G12c C01574079   5.488   1.131   8.085  1.9336  0.7406  2.2382
  3994G12c C01074080   5.609   1.177   8.139 -0.5262 -1.3759 -0.8334
  3994G12c C01174081   5.717   1.162   8.051 -0.8650  0.5315 -0.3980
  3994G12c H00574082   5.819   1.199   8.056 -1.4233  3.3668 -6.3596
  3994G12c C01274083   5.708   1.115   7.919  1.5957 -1.3574 -0.1729
  3994G12c C01774084   5.819   1.103   7.817 -1.2484 -2.5679 -0.2545
  3994G12c O00274085   5.859   0.975   7.793  0.5205  1.1814  0.3286
  3994G12c H00474086   5.943   0.975   7.750 -0.9045  4.1355 -2.7027
  3994G12c C01874087   5.884   1.208   7.758 -0.6852 -1.1854 -0.1388
  3994G12c O00174088   5.879   1.321   7.822  0.6799 -0.2126  2.0434
  3994G12c H00374089   5.803   1.337   7.876 -2.2410  3.1940 -2.6809
  3994G12c C01974090   6.018   1.207   7.661  0.6759  1.4361  1.3739
  3994G12c H00274091   5.988   1.171   7.563 -1.4233  1.5356  1.9719
  3994G12c H00174092   6.067   1.302   7.639  0.7372  0.3628 -3.7327
  3994G12c O00074093   6.106   1.109   7.713  0.9914 -0.3963  0.1258
  3994G12c C01A74094   6.171   1.050   7.603 -0.1911  1.4330  0.8754
  3994G12c C02K74095   6.095   0.958   7.519  1.2982  0.9741 -0.6445
  3994G12c O00G74096   5.978   0.903   7.570 -0.9035 -0.5719 -0.5199
  3994G12c C02M74097   5.887   0.849   7.478 -0.2372 -0.1180 -1.0479
  3994G12c H01G74098   5.825   0.916   7.418  2.4759  2.2282 -1.3498
  3994G12c H01F74099   5.924   0.764   7.421  2.3934  1.6765 -2.0885
  3994G12c H01E74100   5.834   0.794   7.556  0.7099  2.3026  1.3829
  3994G12c C02J74101   6.150   0.923   7.398  0.7165  0.3570  1.3955
  3994G12c H01H74102   6.107   0.857   7.325  6.8547 -4.9847  2.0628
  3994G12c C02I74103   6.271   0.977   7.357 -0.4971 -0.1020  1.4697
  3994G12c C02N74104   6.312   0.940   7.224 -0.1946 -0.6623  2.2260
  3994G12c H01M74105   6.254   0.903   7.141  0.4439  3.1733 -0.1021
  3994G12c C02O74106   6.437   0.924   7.185  0.9937 -0.9642  0.8360
  3994G12c H01L74107   6.506   0.946   7.264  5.1235  6.5607 -4.2010
  3994G12c C02P74108   6.478   0.906   7.030  0.2064 -0.6932  0.3433
  3994G12c H01K74109   6.451   0.994   6.971 -4.7729 -1.2537  1.5497
  3994G12c H01J74110   6.585   0.899   7.048  0.4851  0.6039 -0.6955
  3994G12c O00H74111   6.450   0.761   6.982 -0.6832 -0.4634  0.2774
  3994G12c H01I74112   6.391   0.747   6.910  0.6091 -2.9336 -0.3483
  3994G12c C02H74113   6.341   1.054   7.443  0.4467 -0.8220  0.0188
  3994G12c H01C74114   6.443   1.077   7.417 -0.8915 -1.1169 -6.4156
  3994G12c C02L74115   6.302   1.093   7.571 -0.1504 -0.9832  1.3102
  3994G12c H01D74116   6.365   1.149   7.638 -1.3345  2.0216  0.0087
  3994G12c C01374117   5.575   1.092   7.881 -1.6999  0.6624  0.2170
  3994G12c H00074118   5.576   1.055   7.779  3.7335  3.9195 -1.1467
  3994G12c C01474119   5.464   1.076   7.957 -0.0856 -1.9411 -0.0192
  3994G12c C00F74120   5.348   1.036   7.908 -2.0541  1.3284  0.0885
  3994G12c C00H74121   5.252   1.120   8.122 -0.9337 -2.1094 -0.2569
  3994G12c C00I74122   5.133   1.151   8.208 -1.2106 -0.4009 -0.2140
  3994G12c C00J74123   5.166   1.192   8.335  0.7065  0.1158  0.8159
  3994G12c C00Z74124   5.619   1.249   8.260 -0.2210 -0.3887  1.1449
  3994G12c C00Y74125   5.740   1.294   8.326 -0.2765 -0.0361 -0.9387
  3994G12c H00674126   5.813   1.232   8.275 -1.0248 -2.3481  0.6971
  3994G12c C00X74127   5.742   1.383   8.436  0.0926  0.7191  0.1532
  3994G12c O00374128   5.867   1.397   8.488  0.8257 -0.6288 -0.1448
  3994G12c C01B74129   5.922   1.291   8.558  0.6988  0.7704  0.0714
  3994G12c H00974130   6.013   1.238   8.529  1.6441  0.9997  2.5395
  3994G12c H00874131   5.929   1.331   8.658 -1.6092 -3.5562  2.1066
  3994G12c H00774132   5.844   1.215   8.566  1.5834 -0.0161  1.3955
  3994G12c C00W74133   5.625   1.444   8.459 -0.4812  0.7945  0.5390
  3994G12c O00474134   5.633   1.519   8.544  0.0757  2.0217  0.3807
  3994G12c C01C74135   5.526   1.615   8.542  2.0050  0.0368  1.6446
  3994G12c H00A74136   5.541   1.719   8.567  4.1377  0.0399  0.5036
  3994G12c C00P74137   5.395   1.551   8.548  0.6561 -0.0883 -1.6418
  3994G12c C00O74138   5.279   1.622   8.600  1.5164  1.1299  0.0709
  3994G12c C01D74139   5.279   1.767   8.645 -1.7362  0.5961  0.4967
  3994G12c H00S74140   5.373   1.816   8.622  0.2303 -2.3081  2.0335
  3994G12c C01E74141   5.167   1.843   8.674  2.9044 -0.1954  0.0979
  3994G12c O00874142   5.190   1.940   8.767  0.1935 -1.1915  0.6873
  3994G12c C01V74143   5.176   1.908   8.909 -2.2096 -1.3690  0.9760
  3994G12c C01Z74144   5.170   2.030   9.006  0.4136 -1.3912 -0.2730
  3994G12c H00R74145   5.109   1.993   9.088 -3.0597 -0.1897 -2.2130
  3994G12c H00Q74146   5.273   2.056   9.027 -0.4991  1.1141  1.2107
  3994G12c O00974147   5.076   2.118   8.934  0.6717 -0.1349  0.0439
  3994G12c H00P74148   5.001   2.132   8.990  1.2228  0.5323  0.6337
  3994G12c C01W74149   5.176   1.780   8.951  0.1883 -0.0427 -0.0594
  3994G12c H00O74150   5.183   1.706   8.873  2.8027  7.0031 -7.2678
  3994G12c C01X74151   5.200   1.731   9.086  2.6338  1.0760  0.0460
  3994G12c H00N74152   5.270   1.648   9.094  2.8812  1.1612 -1.1661
  3994G12c H00M74153   5.250   1.804   9.150  1.3945 -0.0293  2.3588
  3994G12c C01Y74154   5.066   1.654   9.117 -0.4057  0.5692  0.6608
  3994G12c C02D74155   5.074   1.537   9.198  0.7609 -0.6682  0.0949
  3994G12c H01974156   5.172   1.516   9.236  2.7432  3.7217 -2.1952
  3994G12c C02C74157   4.960   1.489   9.280 -1.3896 -0.7906  1.1101
  3994G12c H01A74158   4.989   1.412   9.350  0.4028  3.2801  5.0621
  3994G12c C02B74159   4.845   1.562   9.264  0.6070  1.6799  2.0428
  3994G12c O00E74160   4.781   1.560   9.389  0.2088 -1.2754 -1.5228
  3994G12c H01B74161   4.700   1.597   9.357 -0.4693  2.0648  3.4970
  3994G12c C02F74162   4.831   1.682   9.191 -0.2790  0.6438  1.3302
  3994G12c O00F74163   4.735   1.759   9.242  0.4575  0.3337  1.1431
  3994G12c C02G74164   4.667   1.808   9.134  1.5991 -0.3513 -0.5355
  3994G12c H01774165   4.688   1.818   9.027 -0.0059  2.7846 -0.6185
  3994G12c H01674166   4.688   1.907   9.174 -3.0576  1.1565 -1.5186
  3994G12c H01574167   4.560   1.788   9.141  0.0259  6.2085 -2.2764
  3994G12c C02E74168   4.949   1.720   9.119 -1.2301 -2.4769  0.5020
  3994G12c H01874169   4.974   1.820   9.084-10.6194 -0.3403 -1.4484
  3994G12c C01F74170   5.043   1.772   8.679 -0.0215 -0.8895  2.0742
  3994G12c C01G74171   4.909   1.844   8.686 -1.6042 -0.5405 -1.2327
  3994G12c H00L74172   4.903   1.950   8.707 -0.6160 -1.1288  2.2888
  3994G12c C01H74173   4.784   1.763   8.671 -0.0118  0.7376  0.0801
  3994G12c H00B74174   4.704   1.836   8.664 -0.5362  0.2961  1.3449
  3994G12c C01I74175   4.796   1.619   8.623  0.1519  0.1666 -1.7238
  3994G12c C01U74176   5.033   1.637   8.647 -0.8941 -1.4109 -0.2237
  3994G12c C00S74177   5.294   1.230   8.372 -0.6329 -0.8591 -1.4054
  3994G12c C00K74178   5.067   1.244   8.410  1.5176 -0.2179  0.6436
  3994G12c C00N74179   5.142   1.558   8.613 -0.6952 -1.1419 -1.1411
  3994G12c C00074180   4.921   1.563   8.647  0.6276 -0.1199  0.4249
  3994G12c C01J74181   4.742   1.533   8.512 -0.2543 -1.2065  0.8902
  3994G12c C01K74182   4.634   1.556   8.421 -1.1911  0.4187  0.4793
  3994G12c C01P74183   4.524   1.649   8.430  1.0714 -0.6319 -1.2222
  3994G12c C01Q74184   4.488   1.699   8.556 -0.5895  1.4731  0.3068
  3994G12c H00G74185   4.502   1.800   8.591  5.4100  0.4128  1.5031
  3994G12c C01R74186   4.453   1.603   8.649  0.7205 -0.9318  0.4215
  3994G12c H00F74187   4.438   1.499   8.623  3.3672 -0.6893 -2.3466
  3994G12c C01S74188   4.434   1.618   8.800  1.4198 -0.5270  0.5665
  3994G12c H00E74189   4.442   1.724   8.825 -4.0660 -0.4339  2.6407
  3994G12c H00D74190   4.327   1.597   8.806  0.8772  2.0104  0.2106
  3994G12c O00574191   4.548   1.548   8.834 -0.8001 -0.6315  0.0672
  3994G12c H00C74192   4.518   1.463   8.808  4.2152 -2.0911 -1.5182
  3994G12c C01O74193   4.443   1.694   8.327  1.1696 -1.2282  0.9746
  3994G12c H00H74194   4.359   1.754   8.360  5.6063  5.4239  1.1486
  3994G12c C01N74195   4.465   1.631   8.197 -0.2249 -0.5616 -0.0251
  3994G12c O00674196   4.385   1.672   8.093  0.3369 -2.4105  1.3910
  3994G12c C01T74197   4.365   1.822   8.074 -0.6385  0.8553  0.2059
  3994G12c H00K74198   4.432   1.894   8.027  3.4678 -2.3355  0.8621
  3994G12c H00J74199   4.271   1.866   8.041 -1.4302  1.2938  2.8798
  3994G12c H00I74200   4.379   1.885   8.163  3.0655 -1.6086  1.4816
  3994G12c C01M74201   4.564   1.522   8.193 -0.6123  0.1784  0.4473
  3994G12c C02074202   4.930   1.241   8.348  0.6640  0.8698 -1.4876
  3994G12c C02174203   4.902   1.161   8.234 -0.0327  0.7979  0.1963
  3994G12c C01L74204   4.660   1.493   8.297  0.1752 -0.0888 -0.3767
  3994G12c O00774205   4.587   1.481   8.069  1.5096  1.2730  1.7159
  3994G12c C02274206   4.844   1.229   8.132 -1.0402  0.2014 -0.2409
  3994G12c C02374207   5.019   1.106   8.163  0.7707  2.3290 -1.5037
  3994G12c C00G74208   5.237   1.074   7.994  0.3341  0.4437 -0.9127
  3994G12c C00E74209   5.318   0.956   7.789 -0.7868  0.5337 -0.0722
  3994G12c O00A74210   5.423   0.920   7.702 -0.7425 -0.0992 -0.3068
  3994G12c C02474211   5.400   0.788   7.664  0.0132  0.2747 -1.6187
  3994G12c H00V74212   5.381   0.831   7.566  5.1052 -2.0603 -3.8026
  3994G12c H00U74213   5.496   0.759   7.707 -0.0642 -0.8751 -2.2181
  3994G12c H00T74214   5.316   0.728   7.698  3.2071 -4.6988 -2.0433
  4004G12c C00D74215   1.310  10.101   3.774 -0.4755  0.7958  0.1191
  4004G12c O00B74216   1.247  10.000   3.719 -0.4239 -1.0856  1.1145
  4004G12c C02574217   1.239   9.978   3.587 -0.0362 -0.5371 -0.3782
  4004G12c C02674218   1.149  10.084   3.536 -0.0455 -0.4569  0.5102
  4004G12c H00Y74219   1.194  10.102   3.438  4.9343 -0.9436  2.5570
  4004G12c H00X74220   1.165  10.163   3.609  1.3229 -0.7236  0.5207
  4004G12c O00C74221   1.014  10.071   3.515 -0.3693 -0.2564 -0.4216
  4004G12c H00W74222   1.014  10.004   3.449  0.8763  1.1072 -1.8396
  4004G12c C02774223   1.318   9.895   3.510 -0.5306 -0.4610 -0.7593
  4004G12c O00D74224   1.403   9.796   3.566 -1.0582  0.4797  0.3762
  4004G12c H00Z74225   1.372   9.788   3.655 -0.6415 -2.2095  0.3273
  4004G12c C02874226   1.309   9.908   3.358 -0.7546  0.3398 -0.0465
  4004G12c C02974227   1.408   9.984   3.269 -0.5224 -1.1194 -0.1293
  4004G12c H01074228   1.501  10.027   3.303  0.2001 -1.0329 -2.1973
  4004G12c C02T74229   1.387   9.942   3.136  1.1693  1.9738  0.3056
  4004G12c H01O74230   1.461   9.974   3.064  1.1120 -3.2811 -2.3389
  4004G12c C02S74231   1.277   9.876   3.074  0.7287 -0.9746  0.2678
  4004G12c O00J74232   1.267   9.869   2.943 -1.0849  0.2562  1.2985
  4004G12c H01P74233   1.194   9.834   2.895  1.7473 -1.5769 -1.9698
  4004G12c C02R74234   1.202   9.801   3.164  0.8677  1.0083 -0.1536
  4004G12c O00I74235   1.110   9.722   3.103  0.0110 -0.3164 -0.3599
  4004G12c C02Q74236   1.012   9.639   3.186 -0.0359 -0.0689  0.6489
  4004G12c H01N74237   1.038   9.599   3.284  6.1681  0.7385 -0.4377
  4004G12c H01R74238   0.953   9.556   3.148 -1.4138 -1.7972  6.1406
  4004G12c H01Q74239   0.945   9.725   3.193  0.1219  0.1018  0.0893
  4004G12c C02A74240   1.208   9.835   3.302 -1.1824  0.4367  1.5582
  4004G12c H01174241   1.153   9.755   3.349  8.1030 -3.5857  7.0050
  4004G12c C00C74242   1.416  10.147   3.704  0.2999  0.6992  0.7267
  4004G12c H01274243   1.424  10.151   3.597 -0.0184  1.5767  0.7337
  4004G12c C00B74244   1.525  10.219   3.777  1.4293  1.2490  0.5993
  4004G12c C00A74245   1.650  10.241   3.714 -0.7097 -1.4902 -0.0306
  4004G12c C00974246   1.720  10.158   3.618 -0.0532  1.0382  0.9752
  4004G12c C00874247   1.680  10.062   3.529  0.3690  0.7034 -0.1278
  4004G12c H01374248   1.588  10.067   3.473  5.5358 -0.5026 -9.8247
  4004G12c C00774249   1.790   9.971   3.469  0.4555 -0.8298  1.2014
  4004G12c H01474250   1.737   9.887   3.428  2.2749 -1.5641  0.3415
  4004G12c C00674251   1.917   9.987   3.521  0.3736 -1.2366 -0.0123
  4004G12c C00574252   1.943  10.092   3.616  0.2071 -0.3470 -1.3168
  4004G12c C00474253   2.069  10.103   3.687 -1.7671  0.9167 -0.3049
  4004G12c C00374254   2.088  10.202   3.797  0.9749  0.2895  0.3807
  4004G12c C00274255   2.206  10.192   3.886 -0.5866 -0.2197  1.8749
  4004G12c C00174256   2.256  10.270   3.994 -0.3285  0.6719  0.5732
  4004G12c C00M74257   2.172  10.303   4.099 -0.6958  0.0980 -2.0864
  4004G12c C00L74258   2.064  10.377   4.079  1.8217 -0.9687 -1.2448
  4004G12c C00R74259   1.969  10.382   4.187 -0.7300  0.4150 -0.5608
  4004G12c C00Q74260   1.988  10.360   4.329  0.3313  1.1654  0.0200
  4004G12c C00V74261   1.862  10.362   4.401 -1.0781  0.3741  0.0939
  4004G12c C00U74262   1.733  10.358   4.339  0.3006  0.4883  0.8164
  4004G12c C00T74263   1.725  10.364   4.203 -1.3983  0.9645 -0.5013
  4004G12c C01674264   1.614  10.325   4.127 -0.1468 -0.5102 -0.5109
  4004G12c C01574265   1.489  10.315   4.194  2.0092 -0.5797 -0.1914
  4004G12c C01074266   1.493  10.320   4.331 -0.6514 -0.5265  0.7760
  4004G12c C01174267   1.379  10.284   4.399  1.9895  1.0734 -0.3285
  4004G12c H00574268   1.384  10.318   4.502  2.9767  2.4060 -0.8169
  4004G12c C01274269   1.274  10.209   4.354 -0.1248  0.5339 -0.3190
  4004G12c C01774270   1.182  10.170   4.445 -1.1105 -2.5690 -0.9600
  4004G12c O00274271   1.145  10.039   4.468 -0.8945 -0.9182 -1.5194
  4004G12c H00474272   1.204   9.971   4.439  4.4439  0.2996  5.2089
  4004G12c C01874273   1.095  10.268   4.489  0.0293 -0.4451 -0.1548
  4004G12c O00174274   0.992  10.220   4.570  0.3704  1.0213  1.5685
  4004G12c H00374275   1.062  10.160   4.589  3.5334  6.0493  7.9911
  4004G12c C01974276   1.082  10.426   4.464 -1.7108  0.4558 -0.0712
  4004G12c H00274277   0.982  10.446   4.426  0.0112  2.6705 -3.6309
  4004G12c H00174278   1.158  10.451   4.391  0.8747  2.5568  3.1880
  4004G12c O00074279   1.076  10.482   4.583 -1.2011 -2.3371  0.3417
  4004G12c C01A74280   1.162  10.579   4.605 -0.0389  1.5724 -0.7446
  4004G12c C02K74281   1.086  10.695   4.625  1.8326  0.6770  0.7256
  4004G12c O00G74282   0.959  10.683   4.653  0.8932 -0.1634 -0.3054
  4004G12c C02M74283   0.898  10.733   4.785 -1.2727  0.7712 -0.4397
  4004G12c H01G74284   0.901  10.659   4.865 -0.3181  1.3232  0.0362
  4004G12c H01F74285   0.931  10.835   4.808 -3.8898  2.2362 -2.9138
  4004G12c H01E74286   0.793  10.755   4.769 -1.7965 -4.2895 -5.4111
  4004G12c C02J74287   1.158  10.812   4.652  0.9204  1.1399  1.0090
  4004G12c H01H74288   1.094  10.897   4.673 -4.9296 -1.5308 -4.4042
  4004G12c C02I74289   1.285  10.812   4.668 -0.0443  2.1580  0.7538
  4004G12c C02N74290   1.368  10.917   4.730  0.8410  0.1115  1.8838
  4004G12c H01M74291   1.447  10.980   4.692  1.6992 -0.3744  2.8502
  4004G12c C02O74292   1.354  10.922   4.866 -1.7031 -0.4981  0.0954
  4004G12c H01L74293   1.273  10.857   4.898 -1.2334  0.5116  3.5909
  4004G12c C02P74294   1.449  10.988   4.956 -1.9727  0.6137 -1.0158
  4004G12c H01K74295   1.547  11.012   4.915  0.6788 -6.2090  0.6475
  4004G12c H01J74296   1.503  10.916   5.018 -4.9511 -1.2704 -0.5160
  4004G12c O00H74297   1.394  11.082   5.047  0.3180 -0.5804  1.7664
  4004G12c H01I74298   1.426  11.147   4.986 -3.2811 -1.2951 -1.0802
  4004G12c C02H74299   1.353  10.692   4.664 -1.5912 -0.4477 -1.2650
  4004G12c H01C74300   1.443  10.688   4.722 -2.5174  0.5455  0.2698
  4004G12c C02L74301   1.299  10.567   4.614  0.4418 -0.8421  0.5673
  4004G12c H01D74302   1.368  10.484   4.616  2.0976  0.5336  4.2135
  4004G12c C01374303   1.295  10.173   4.225 -1.3442  1.4630  0.1323
  4004G12c H00074304   1.213  10.104   4.210 -5.1105  4.8929  3.7374
  4004G12c C01474305   1.384  10.235   4.127  0.2161 -1.4930 -0.2445
  4004G12c C00F74306   1.390  10.204   3.981 -0.2426 -1.3434 -2.4160
  4004G12c C00H74307   1.624  10.313   3.980  0.4712  0.1644  0.3350
  4004G12c C00I74308   1.730  10.362   3.912 -0.9310 -0.0902 -1.0899
  4004G12c C00J74309   1.843  10.386   3.999 -0.3688  2.0119  0.0023
  4004G12c C00Z74310   1.615  10.348   4.405  0.9873  0.8597  0.4399
  4004G12c C00Y74311   1.612  10.335   4.542  0.2279 -0.5393 -1.2632
  4004G12c H00674312   1.530  10.336   4.612 -1.7597 -4.7244 -3.3770
  4004G12c C00X74313   1.735  10.356   4.612  1.5918 -1.1460 -0.2065
  4004G12c O00374314   1.723  10.351   4.749 -0.2578  0.3206  1.3241
  4004G12c C01B74315   1.758  10.224   4.785  1.9542  0.3094  0.7626
  4004G12c H00974316   1.678  10.258   4.851  5.4180  2.1702  4.2065
  4004G12c H00874317   1.834  10.239   4.862  0.6017  2.5155  1.7235
  4004G12c H00774318   1.723  10.122   4.770  4.7969 -0.7583  1.1002
  4004G12c C00W74319   1.871  10.339   4.545 -1.6580  0.4122 -1.0485
  4004G12c O00474320   1.979  10.340   4.627 -0.6671  0.2992 -1.4551
  4004G12c C01C74321   2.092  10.358   4.554 -0.6161  0.1634  0.2852
  4004G12c H00A74322   2.147  10.431   4.611 -3.2121  2.2710  0.1631
  4004G12c C00P74323   2.107  10.341   4.404 -0.0208 -0.5495 -1.4395
  4004G12c C00O74324   2.217  10.276   4.369  0.9511 -0.2298  1.2995
  4004G12c C01D74325   2.279  10.186   4.453 -0.3089  0.1015  0.4649
  4004G12c H00S74326   2.253  10.160   4.554 -3.3697  1.2635  0.0565
  4004G12c C01E74327   2.368  10.091   4.402  0.5655 -0.3313  0.9070
  4004G12c O00874328   2.453  10.013   4.466 -1.1069  1.6024 -0.8481
  4004G12c C01V74329   2.531  10.059   4.573  0.3975 -0.2876 -0.2078
  4004G12c C01Z74330   2.646  10.156   4.530  0.6413 -0.6516  1.0454
  4004G12c H00R74331   2.663  10.138   4.423  1.4889  2.0385  0.6895
  4004G12c H00Q74332   2.599  10.252   4.547 10.6301  5.6943 -2.4916
  4004G12c O00974333   2.744  10.149   4.630  0.6488 -0.1546  0.0726
  4004G12c H00P74334   2.816  10.203   4.604  4.4546 -6.1980 -3.3062
  4004G12c C01W74335   2.506  10.003   4.691 -1.7821  0.1835 -0.7403
  4004G12c H00O74336   2.409   9.957   4.693  0.2192 -4.3178  2.1026
  4004G12c C01X74337   2.564  10.051   4.826 -0.4674 -0.3732  1.4834
  4004G12c H00N74338   2.576  10.159   4.833 -1.8459 -0.2455  2.1429
  4004G12c H00M74339   2.478  10.040   4.892 -2.1289  0.5697 -0.4779
  4004G12c C01Y74340   2.711   9.996   4.871  0.7882 -1.2256  0.8933
  4004G12c C02D74341   2.764  10.057   4.976 -0.0782 -0.1749 -1.3547
  4004G12c H01974342   2.691  10.102   5.042  0.2051  2.1667 -2.5888
  4004G12c C02C74343   2.896  10.025   5.003  1.1179  0.1818 -1.2887
  4004G12c H01A74344   2.925  10.041   5.106 -3.4219  0.9687 -0.0291
  4004G12c C02B74345   2.953   9.933   4.917  0.5471  0.8508  1.7012
  4004G12c O00E74346   3.063   9.889   4.973 -1.5880 -0.6463  0.3529
  4004G12c H01B74347   3.107   9.965   5.008 -0.2705  1.5961 -5.5916
  4004G12c C02F74348   2.902   9.861   4.809  0.3869  1.6930  2.1372
  4004G12c O00F74349   2.954   9.766   4.741  0.2769  1.0463  1.2556
  4004G12c C02G74350   3.039   9.808   4.636 -1.3059  0.1275  0.6895
  4004G12c H01774351   3.059   9.914   4.623 -2.1752 -0.0514 -2.4426
  4004G12c H01674352   3.009   9.821   4.532  2.9449  1.7561 -0.4466
  4004G12c H01574353   3.116   9.731   4.639 -1.3436 -0.0716 -2.4722
  4004G12c C02E74354   2.781   9.904   4.775 -0.4435 -1.3966 -0.5910
  4004G12c H01874355   2.727   9.877   4.686 -2.8643  1.8494 -0.1671
  4004G12c C01F74356   2.411  10.084   4.266  0.9789 -1.1135 -0.9036
  4004G12c C01G74357   2.464   9.981   4.189  1.2174 -0.6161  0.1118
  4004G12c H00L74358   2.525   9.904   4.233  0.6312 -5.7347 -7.1068
  4004G12c C01H74359   2.452   9.965   4.034 -1.1648  0.9972  0.1079
  4004G12c H00B74360   2.484   9.879   3.977  0.0384 -3.1970  6.6319
  4004G12c C01I74361   2.382  10.069   3.959 -0.6411  1.4184 -1.3078
  4004G12c C01U74362   2.359  10.185   4.175  1.2810  0.3252 -0.4402
  4004G12c C00S74363   1.843  10.366   4.139 -0.2708 -0.4470  1.0255
  4004G12c C00K74364   1.977  10.364   3.961 -1.1607  0.6487  0.7626
  4004G12c C00N74365   2.238  10.260   4.227 -0.4117 -0.7955  1.2616
  4004G12c C00074366   2.362  10.189   4.039  1.6222 -0.9165 -0.2320
  4004G12c C01J74367   2.306  10.099   3.845 -0.5287  0.1741 -0.0982
  4004G12c C01K74368   2.297  10.005   3.733 -0.5413 -1.0516 -1.6287
  4004G12c C01P74369   2.390   9.912   3.682  0.1702 -0.7526 -0.5952
  4004G12c C01Q74370   2.539   9.914   3.691  0.2202  0.5911  0.9702
  4004G12c H00G74371   2.614   9.846   3.727  2.7407  1.9484 -1.5683
  4004G12c C01R74372   2.592  10.031   3.690  0.9497  0.1635 -0.7951
  4004G12c H00F74373   2.555  10.128   3.660  7.2910  4.9423  5.0154
  4004G12c C01S74374   2.728  10.077   3.741 -0.1221  0.7666 -0.2085
  4004G12c H00E74375   2.721  10.184   3.763 -4.9354  0.9815 -2.1480
  4004G12c H00D74376   2.742  10.035   3.840 -6.6020 -0.2330  0.4745
  4004G12c O00574377   2.816  10.030   3.635 -0.4553 -0.1317 -0.0068
  4004G12c H00C74378   2.822  10.111   3.587  0.4153  0.8500  1.6969
  4004G12c C01O74379   2.350   9.819   3.576 -0.4019  0.9716 -0.3647
  4004G12c H00H74380   2.417   9.743   3.538 -2.8065  0.0172 -2.8602
  4004G12c C01N74381   2.219   9.807   3.534 -0.0683 -0.4872  0.0438
  4004G12c O00674382   2.180   9.706   3.445  0.2640  0.7324 -0.6355
  4004G12c C01T74383   2.189   9.568   3.503  0.2258  1.0998  0.3083
  4004G12c H00K74384   2.295   9.558   3.525  0.0568 -5.1020 -0.6473
  4004G12c H00J74385   2.129   9.547   3.592 -0.0361 -0.0075 -0.1151
  4004G12c H00I74386   2.196   9.503   3.415  4.7676  3.7945 -1.4686
  4004G12c C01M74387   2.121   9.900   3.584 -0.8123  0.7758  0.6284
  4004G12c C02074388   1.980  10.286   3.837 -0.6866 -1.2436  0.9115
  4004G12c C02174389   1.869  10.271   3.747  0.5689  1.2995 -0.4114
  4004G12c C01L74390   2.161   9.998   3.674  0.7676 -1.2012 -1.0590
  4004G12c O00774391   2.011   9.891   3.505 -1.1302 -0.1509  0.3342
  4004G12c C02274392   1.851  10.192   3.636 -0.2921 -0.9757  0.1790
  4004G12c C02374393   1.745  10.327   3.782  0.5757  2.0044 -1.1834
  4004G12c C00G74394   1.511  10.252   3.918 -0.5323  0.9518  1.0177
  4004G12c C00E74395   1.281  10.132   3.909 -0.6657  0.1698  0.5273
  4004G12c O00A74396   1.162  10.086   3.960 -0.1853  0.3880  2.1373
  4004G12c C02474397   1.069  10.197   3.961  0.5227  3.0157  0.4679
  4004G12c H00V74398   1.068  10.233   3.858  2.5693  0.7659 -0.3866
  4004G12c H00U74399   1.111  10.287   4.005 -3.6167  5.9088 -1.1038
  4004G12c H00T74400   0.976  10.173   4.012 -5.0284 -0.4832 -9.8180
  4014G12c C00D74401   4.554   2.005   0.853 -1.8063 -0.0216  0.7101
  4014G12c O00B74402   4.674   1.956   0.857 -0.7701 -0.9014  0.1628
  4014G12c C02574403   4.710   1.829   0.821  1.1462  1.6481 -1.5170
  4014G12c C02674404   4.855   1.844   0.813  0.0790 -1.1118 -1.0383
  4014G12c H00Y74405   4.902   1.746   0.818  0.7512 -0.6324  2.9159
  4014G12c H00X74406   4.925   1.868   0.892 -1.1287  3.6093 -1.2854
  4014G12c O00C74407   4.887   1.953   0.729  0.4038 -0.2665 -2.1716
  4014G12c H00W74408   4.981   1.953   0.725  1.1594 -6.2679  4.3951
  4014G12c C02774409   4.633   1.712   0.826  0.1389 -1.8721  0.9202
  4014G12c O00D74410   4.501   1.710   0.850 -0.2179  0.5697 -0.7158
  4014G12c H00Z74411   4.498   1.803   0.861  1.1944  0.2956  2.8535
  4014G12c C02874412   4.698   1.590   0.793  0.6706 -0.8312 -0.0236
  4014G12c C02974413   4.703   1.475   0.886 -0.2738  0.0733  1.4383
  4014G12c H01074414   4.659   1.487   0.984 -1.8248  0.9944  0.6446
  4014G12c C02T74415   4.713   1.344   0.829  2.4028  0.5101 -0.5164
  4014G12c H01O74416   4.702   1.256   0.890  5.2408 -1.9182 -3.3429
  4014G12c C02S74417   4.751   1.316   0.703 -2.0931  0.1155  0.5344
  4014G12c O00J74418   4.732   1.187   0.633  1.9677  1.3613 -0.1400
  4014G12c H01P74419   4.728   1.187   0.538 -3.4346 -4.3840 -0.2129
  4014G12c C02R74420   4.742   1.437   0.614 -1.4920  1.1299 -0.4842
  4014G12c O00I74421   4.712   1.421   0.477  1.0216  0.3636 -0.4827
  4014G12c C02Q74422   4.673   1.511   0.388  0.6335 -0.6384 -0.5103
  4014G12c H01N74423   4.630   1.590   0.450  0.1585  1.9769 -4.0379
  4014G12c H01R74424   4.621   1.448   0.316  2.0844  0.2171 -2.3303
  4014G12c H01Q74425   4.744   1.566   0.327  2.7321  0.7832  3.0358
  4014G12c C02A74426   4.759   1.573   0.670  0.8907 -0.9139 -0.9128
  4014G12c H01174427   4.783   1.649   0.599  2.8287 -3.6562 -3.3136
  4014G12c C00C74428   4.527   2.100   0.943 -1.3640  0.4147 -1.0200
  4014G12c H01274429   4.595   2.116   1.025 -6.1027 -0.2470  3.2487
  4014G12c C00B74430   4.401   2.158   0.968 -0.4515 -0.3122  0.4235
  4014G12c C00A74431   4.368   2.236   1.100 -0.5872 -0.5289  0.1588
  4014G12c C00974432   4.414   2.217   1.234  0.7172 -0.2082 -0.5227
  4014G12c C00874433   4.503   2.118   1.280  0.3404  0.2907 -1.0557
  4014G12c H01374434   4.576   2.083   1.209 -1.0796 -3.4376 -0.7908
  4014G12c C00774435   4.499   2.097   1.415  3.9929  0.6987  0.2422
  4014G12c H01474436   4.569   2.024   1.454 -0.6542 -5.5250 -2.1361
  4014G12c C00674437   4.364   2.132   1.481 -0.9290  0.4329 -0.4695
  4014G12c C00574438   4.277   2.206   1.415  0.2841 -2.6436 -0.6628
  4014G12c C00474439   4.148   2.245   1.468  0.6541  0.5432 -0.0815
  4014G12c C00374440   4.037   2.297   1.384  0.9810  0.0863 -0.6449
  4014G12c C00274441   3.910   2.306   1.436 -0.8181 -0.3308 -0.7181
  4014G12c C00174442   3.775   2.338   1.395 -0.8963 -0.1007 -0.0066
  4014G12c C00M74443   3.721   2.270   1.283  1.2394 -0.5979  1.9367
  4014G12c C00L74444   3.810   2.255   1.163  0.3460 -0.8708 -3.0731
  4014G12c C00R74445   3.775   2.196   1.039 -1.4860 -0.1051  0.2963
  4014G12c C00Q74446   3.675   2.094   1.023  1.2481 -0.5511 -0.3248
  4014G12c C00V74447   3.704   2.013   0.909  1.2211  1.2067  1.2329
  4014G12c C00U74448   3.831   2.014   0.852 -3.4170  0.1068  0.9630
  4014G12c C00T74449   3.933   2.101   0.873 -0.1387 -0.7317  0.2893
  4014G12c C01674450   4.065   2.084   0.839  0.8475 -2.2787  0.2694
  4014G12c C01574451   4.093   1.980   0.766  0.3810 -1.2053  0.9236
  4014G12c C01074452   3.992   1.895   0.715 -1.4980 -1.2099  0.3473
  4014G12c C01174453   4.029   1.795   0.632  0.7519  1.8007  0.7426
  4014G12c H00574454   3.953   1.727   0.597  6.3171 -7.1877  4.4377
  4014G12c C01274455   4.160   1.750   0.615 -0.7059 -1.0257  0.2431
  4014G12c C01774456   4.204   1.647   0.518 -1.5877  0.2291 -0.4491
  4014G12c O00274457   4.339   1.602   0.542  1.4984 -0.1573  0.2442
  4014G12c H00474458   4.388   1.535   0.586 -2.0772 -3.8610 -1.0363
  4014G12c C01874459   4.125   1.593   0.418 -1.2937 -1.4660  0.9532
  4014G12c O00174460   4.049   1.671   0.326  0.1479  2.2645 -0.3779
  4014G12c H00374461   4.074   1.688   0.237 -0.5796 -0.6413 -1.1874
  4014G12c C01974462   4.165   1.456   0.358  1.1491  0.2461 -0.0946
  4014G12c H00274463   4.127   1.380   0.426 -2.9338 -2.7404 -5.2949
  4014G12c H00174464   4.083   1.432   0.290  3.3954 -4.8668 -1.2915
  4014G12c O00074465   4.290   1.424   0.269  0.1679 -0.8818 -0.4994
  4014G12c C01A74466   4.344   1.303   0.268 -0.5483 -1.5358 -0.6623
  4014G12c C02K74467   4.442   1.257   0.168  0.9279 -0.4375 -0.8079
  4014G12c O00G74468   4.492   1.327   0.072 -0.1416 -0.3237 -0.0377
  4014G12c C02M74469   4.441   1.421  -0.015 -1.2657 -1.2843  2.0739
  4014G12c H01G74470   4.526   1.416  -0.083 -3.2390 -3.4323 -0.3109
  4014G12c H01F74471   4.354   1.372  -0.056 -0.3636  0.5529 -2.2617
  4014G12c H01E74472   4.405   1.515   0.027 -2.3988 -2.0205  2.7725
  4014G12c C02J74473   4.493   1.130   0.173  1.1802 -0.1739  0.6574
  4014G12c H01H74474   4.553   1.077   0.100  0.1173 -3.0275  1.8009
  4014G12c C02I74475   4.442   1.027   0.262 -0.8411 -0.6623 -0.2170
  4014G12c C02N74476   4.492   0.898   0.228  1.1770  0.2944  1.9873
  4014G12c H01M74477   4.574   0.888   0.158 -0.7881  3.6056 -0.9548
  4014G12c C02O74478   4.410   0.785   0.247  1.3122 -1.2831 -1.2609
  4014G12c H01L74479   4.304   0.787   0.268  0.9722 -3.1787 -2.6592
  4014G12c C02P74480   4.457   0.650   0.215  0.3722  1.0094 -0.5781
  4014G12c H01K74481   4.558   0.613   0.227 -0.0433  0.4196  1.0820
  4014G12c H01J74482   4.385   0.576   0.249  1.1120 -0.0765 -1.3371
  4014G12c O00H74483   4.421   0.619   0.086  0.7994  0.8371 -0.0248
  4014G12c H01I74484   4.384   0.533   0.092 -2.5725  2.3912  3.4643
  4014G12c C02H74485   4.366   1.067   0.363 -1.4607 -0.3439 -1.6978
  4014G12c H01C74486   4.349   1.006   0.450  3.6412 -2.1963 -1.8051
  4014G12c C02L74487   4.312   1.196   0.370  1.1365 -0.9552 -0.2143
  4014G12c H01D74488   4.270   1.214   0.468  1.9148 -2.6678  0.4649
  4014G12c C01374489   4.263   1.821   0.673  0.3777 -0.2079 -0.9390
  4014G12c H00074490   4.359   1.792   0.634  0.0866  3.3967 -4.6766
  4014G12c C01474491   4.227   1.950   0.727 -0.5286 -0.6337  2.2367
  4014G12c C00F74492   4.324   2.019   0.794  1.2563  0.3421 -0.5676
  4014G12c C00H74493   4.169   2.157   0.905 -2.0065 -1.0420 -0.2213
  4014G12c C00I74494   4.147   2.264   0.999  2.7137  1.6765  0.9112
  4014G12c C00J74495   3.997   2.284   1.019 -0.3623 -0.6266 -1.0781
  4014G12c C00Z74496   3.856   1.915   0.750 -1.2563  0.0601 -0.8601
  4014G12c C00Y74497   3.753   1.848   0.685  0.5874  2.1360 -1.2765
  4014G12c H00674498   3.749   1.792   0.592 -2.9248  1.5786 -0.8790
  4014G12c C00X74499   3.621   1.849   0.751 -1.9015  0.7290 -0.6511
  4014G12c O00374500   3.522   1.757   0.713  0.7999  0.2180  0.8824
  4014G12c C01B74501   3.544   1.615   0.755 -0.3157 -0.5209  0.0647
  4014G12c H00974502   3.437   1.593   0.751 -0.4058  0.0990 -1.4886
  4014G12c H00874503   3.593   1.617   0.852  1.7230  2.0163 -0.9754
  4014G12c H00774504   3.594   1.564   0.673 -5.1006 -5.8263  0.1110
  4014G12c C00W74505   3.604   1.916   0.874 -0.5183 -0.0768  0.0627
  4014G12c O00474506   3.501   1.869   0.954 -0.6185 -1.0103 -0.0633
  4014G12c C01C74507   3.454   1.978   1.038 -0.0833  0.2307 -0.2768
  4014G12c H00A74508   3.357   2.024   1.024  0.9457  2.1332 -1.3775
  4014G12c C00P74509   3.558   2.068   1.095  0.9950  1.2724 -0.0804
  4014G12c C00O74510   3.554   2.089   1.245  0.1347 -0.8620  2.1500
  4014G12c C01D74511   3.497   1.977   1.318  0.3408 -1.6974 -1.1921
  4014G12c H00S74512   3.420   1.911   1.280 -3.7400 -1.4046  5.8099
  4014G12c C01E74513   3.513   1.986   1.470 -0.9671 -1.2170  1.6963
  4014G12c O00874514   3.456   1.880   1.537 -0.4196 -1.2919  0.1266
  4014G12c C01V74515   3.521   1.763   1.544  1.3838 -1.2359 -1.4520
  4014G12c C01Z74516   3.431   1.634   1.492  0.9710  2.0035 -1.0329
  4014G12c H00R74517   3.464   1.566   1.414  2.3176 -2.9398  3.5571
  4014G12c H00Q74518   3.454   1.547   1.553 -0.6239 -1.3892 -5.0066
  4014G12c O00974519   3.295   1.649   1.521 -0.5119 -1.0204  0.0706
  4014G12c H00P74520   3.284   1.589   1.593 -5.0283  0.0615  0.4432
  4014G12c C01W74521   3.644   1.774   1.592  1.6641  0.3826 -0.2438
  4014G12c H00O74522   3.696   1.868   1.604  1.2603  1.1824 -4.3047
  4014G12c C01X74523   3.758   1.668   1.591  1.4174  0.0347  0.6116
  4014G12c H00N74524   3.705   1.599   1.525  0.0111 -2.6616  4.3412
  4014G12c H00M74525   3.866   1.683   1.587  1.5389  0.0061  2.9497
  4014G12c C01Y74526   3.789   1.611   1.720  1.1704 -0.2408  0.2087
  4014G12c C02D74527   3.862   1.499   1.711  0.2274 -0.0197  0.8351
  4014G12c H01974528   3.900   1.459   1.618 -0.9849 -1.1686  0.8240
  4014G12c C02C74529   3.907   1.445   1.826  0.4723 -0.2114 -1.2638
  4014G12c H01A74530   3.976   1.362   1.833  0.7538 -0.1931 -3.4730
  4014G12c C02B74531   3.900   1.524   1.937  0.0221 -0.5385 -0.8738
  4014G12c O00E74532   3.954   1.451   2.036  0.1786  1.1008 -0.1504
  4014G12c H01B74533   3.893   1.456   2.108  2.3619  0.3370  1.7881
  4014G12c C02F74534   3.812   1.631   1.958  0.7736 -0.7095  1.8761
  4014G12c O00F74535   3.770   1.657   2.078  0.0478  0.7757  1.1610
  4014G12c C02G74536   3.638   1.605   2.085 -0.4486 -1.3752 -0.5090
  4014G12c H01774537   3.602   1.642   2.181  1.7272  2.3754 -0.9915
  4014G12c H01674538   3.644   1.497   2.071  6.7607 -2.0736  4.8376
  4014G12c H01574539   3.553   1.638   2.026 -2.8662  2.3056  4.6325
  4014G12c C02E74540   3.745   1.677   1.836  0.7927  0.9797  1.1213
  4014G12c H01874541   3.704   1.774   1.813 -2.9757 -0.4884  1.3644
  4014G12c C01F74542   3.579   2.077   1.545  0.7945 -0.1064 -1.1963
  4014G12c C01G74543   3.633   2.090   1.686 -0.5985 -0.9924 -0.7053
  4014G12c H00L74544   3.596   2.017   1.757 -1.2530 -1.9323 -2.0033
  4014G12c C01H74545   3.728   2.196   1.737  1.9335  0.6949 -0.3177
  4014G12c H00B74546   3.766   2.209   1.837 -2.9695  4.0030  1.2887
  4014G12c C01I74547   3.774   2.292   1.626  0.3091  0.8988 -0.7133
  4014G12c C01U74548   3.626   2.179   1.472 -1.2601  0.9712  1.8904
  4014G12c C00S74549   3.895   2.207   0.952  1.7849  0.2879 -1.5003
  4014G12c C00K74550   3.947   2.307   1.154 -0.3272  1.2982  0.8850
  4014G12c C00N74551   3.628   2.176   1.331  0.0079 -1.5529  1.9593
  4014G12c C00074552   3.707   2.295   1.510  0.1781  1.1399 -0.8280
  4014G12c C01J74553   3.901   2.310   1.577  0.8871 -1.3551  1.3622
  4014G12c C01K74554   4.026   2.300   1.671  0.0903  0.1439  0.8050
  4014G12c C01P74555   4.034   2.314   1.806  0.5486 -2.4722  0.0173
  4014G12c C01Q74556   3.949   2.423   1.870  1.4719 -0.3425  2.5017
  4014G12c H00G74557   3.883   2.488   1.814  2.7073  1.0174  2.5757
  4014G12c C01R74558   3.952   2.443   2.004  1.6368 -0.8215 -0.2991
  4014G12c H00F74559   4.025   2.398   2.070 -4.8462 -6.1077  3.9943
  4014G12c C01S74560   3.871   2.552   2.081  0.4721 -0.2724  2.3155
  4014G12c H00E74561   3.799   2.597   2.014  4.1763  1.3876 -0.6897
  4014G12c H00D74562   3.813   2.505   2.161  1.7446 -8.0389 -0.8881
  4014G12c O00574563   3.966   2.639   2.128  1.3578  0.3893  1.5376
  4014G12c H00C74564   3.996   2.614   2.214  3.8674  0.1054  0.6330
  4014G12c C01O74565   4.130   2.246   1.895 -1.7197 -0.1024 -0.1711
  4014G12c H00H74566   4.137   2.233   2.002 -3.7011 -3.8278 -0.3884
  4014G12c C01N74567   4.229   2.159   1.819  0.6572 -0.4134 -0.3477
  4014G12c O00674568   4.321   2.116   1.920 -0.1957 -0.3074  0.9553
  4014G12c C01T74569   4.396   2.003   1.883  0.2321 -0.0217 -0.1607
  4014G12c H00K74570   4.402   1.950   1.979 -1.5551 -0.2521 -0.1515
  4014G12c H00J74571   4.365   1.920   1.821 -4.6123  1.3747  0.1701
  4014G12c H00I74572   4.498   2.041   1.878  0.2098  0.1000  0.2294
  4014G12c C01M74573   4.239   2.178   1.679  0.2174  0.0785 -1.1106
  4014G12c C02074574   4.062   2.315   1.253 -1.5534  1.2957 -0.5607
  4014G12c C02174575   4.202   2.330   1.213 -1.2202  1.0747 -2.5205
  4014G12c C01L74576   4.138   2.238   1.610  2.1492  0.4975  0.4281
  4014G12c O00774577   4.339   2.107   1.617 -0.7681 -0.1039 -0.5915
  4014G12c C02274578   4.307   2.274   1.304 -0.6306  1.3731 -0.1969
  4014G12c C02374579   4.247   2.296   1.089  1.1475  2.1031 -0.3835
  4014G12c C00G74580   4.298   2.116   0.886  0.0438 -1.4317 -1.9096
  4014G12c C00E74581   4.460   1.974   0.766  0.2047  2.5337 -0.1797
  4014G12c O00A74582   4.544   1.994   0.658 -0.5680  0.0480  0.1328
  4014G12c C02474583   4.479   2.074   0.556  1.1074  0.2737 -0.9460
  4014G12c H00V74584   4.388   2.133   0.569  0.2688 -1.5854  2.3140
  4014G12c H00U74585   4.477   2.052   0.449 -0.6948 -1.5626 -0.5688
  4014G12c H00T74586   4.554   2.150   0.537  2.0250 -0.4339 -0.1974
  4024G12c C00D74587   0.692   7.013   9.935  0.0403 -0.9343 -0.8967
  4024G12c O00B74588   0.585   7.074   9.879 -0.8987 -0.6740  0.5984
  4024G12c C02574589   0.486   6.994   9.833 -0.5705  1.0446  0.2218
  4024G12c C02674590   0.405   6.896   9.907 -0.4835 -0.1059  0.3149
  4024G12c H00Y74591   0.308   6.944   9.916  2.6517  6.3756  3.2720
  4024G12c H00X74592   0.428   6.880  10.012 -0.5968 -5.7929 -0.4007
  4024G12c O00C74593   0.386   6.776   9.835 -1.5797 -0.2935  0.2938
  4024G12c H00W74594   0.459   6.719   9.856 -3.4093 -2.9139 -0.1624
  4024G12c C02774595   0.450   7.028   9.709 -1.5370 -1.4823 -0.0907
  4024G12c O00D74596   0.537   7.100   9.640 -0.1614  1.1269  0.1119
  4024G12c H00Z74597   0.611   7.140   9.684  0.4987  4.3264 -3.6245
  4024G12c C02874598   0.325   7.001   9.658  0.9388 -0.1097  0.8404
  4024G12c C02974599   0.299   6.881   9.576  0.0357  1.4807  1.1021
  4024G12c H01074600   0.382   6.815   9.560 -1.4025  0.7069 -3.9408
  4024G12c C02T74601   0.171   6.865   9.537  1.6462 -0.8050 -1.2455
  4024G12c H01O74602   0.141   6.806   9.452 -2.8474  4.3215 -3.4889
  4024G12c C02S74603   0.077   6.950   9.587 -0.1586  0.7968 -1.4136
  4024G12c O00J74604  -0.051   6.900   9.572 -0.1157 -0.1011  0.7726
  4024G12c H01P74605  -0.096   6.973   9.612 -3.4804  0.4191 -3.5882
  4024G12c C02R74606   0.096   7.042   9.690 -0.4513  1.2517  0.0717
  4024G12c O00I74607  -0.001   7.118   9.748  0.6027  0.4350 -0.2565
  4024G12c C02Q74608   0.018   7.227   9.829 -0.6893  0.0935 -0.0888
  4024G12c H01N74609  -0.085   7.246   9.859 -0.6938 -2.0288  1.3770
  4024G12c H01R74610   0.061   7.324   9.805 -0.7113  1.2620  4.1771
  4024G12c H01Q74611   0.060   7.209   9.928 -0.1673  0.7550 -0.1897
  4024G12c C02A74612   0.220   7.089   9.706 -0.4530  1.1639 -0.6312
  4024G12c H01174613   0.264   7.160   9.775  3.3474 -0.9156 -0.7902
  4024G12c C00C74614   0.762   6.916   9.862  0.6302 -0.1492  0.7719
  4024G12c H01274615   0.736   6.921   9.757  0.4981 -0.7973  0.7729
  4024G12c C00B74616   0.896   6.869   9.901 -0.2211  0.6550  0.3461
  4024G12c C00A74617   0.998   6.798   9.821  0.9228  0.7880 -0.8863
  4024G12c C00974618   0.944   6.697   9.740 -0.9116  0.3645 -0.2775
  4024G12c C00874619   0.818   6.669   9.712  0.0725 -0.2279 -1.1909
  4024G12c H01374620   0.742   6.734   9.672 -1.2938  0.4789  2.4068
  4024G12c C00774621   0.788   6.532   9.668 -0.0230 -0.0977 -0.9186
  4024G12c H01474622   0.688   6.510   9.635 -2.8158  4.1150  3.8470
  4024G12c C00674623   0.892   6.421   9.662  1.9880 -0.6448 -0.4689
  4024G12c C00574624   1.014   6.454   9.727  0.0860 -0.8911  0.5788
  4024G12c C00474625   1.110   6.366   9.764 -0.6569 -0.6478  2.4642
  4024G12c C00374626   1.215   6.398   9.837  1.2890 -1.4526  0.0435
  4024G12c C00274627   1.304   6.297   9.885 -1.3799 -0.3184  1.3906
  4024G12c C00174628   1.393   6.271   9.991 -0.5815  0.4581 -0.1796
  4024G12c C00M74629   1.332   6.320  10.113  0.4249  0.9787 -0.3041
  4024G12c C00L74630   1.336   6.467  10.143  1.9821 -0.2749  0.5343
  4024G12c C00R74631   1.281   6.514  10.272  0.3553  0.1506  0.0049
  4024G12c C00Q74632   1.259   6.461  10.413 -0.4759  0.4371 -1.2014
  4024G12c C00V74633   1.164   6.531  10.481  0.0405  0.5027 -0.4519
  4024G12c C00U74634   1.109   6.653  10.441 -0.1913  0.0743 -1.4794
  4024G12c C00T74635   1.124   6.719  10.320  0.3330 -0.7382 -0.1056
  4024G12c C01674636   1.028   6.795  10.256  0.6944 -0.8644 -0.7743
  4024G12c C01574637   0.927   6.860  10.329  0.9689  0.5997  1.4914
  4024G12c C01074638   0.921   6.817  10.468 -0.6097  0.9819 -0.1816
  4024G12c C01174639   0.816   6.885  10.542  0.7176 -2.1930  0.7779
  4024G12c H00574640   0.836   6.886  10.648  0.5200 -3.4047  0.8301
  4024G12c C01274641   0.692   6.922  10.475  0.6930  1.3927  0.7902
  4024G12c C01774642   0.579   6.962  10.565 -1.0181  0.5972 -1.1431
  4024G12c O00274643   0.523   6.845  10.623 -0.8339  0.3382 -1.0718
  4024G12c H00474644   0.439   6.870  10.588 -1.4224  1.3843  1.0205
  4024G12c C01874645   0.565   7.085  10.619  1.0880 -2.1561  0.5764
  4024G12c O00174646   0.478   7.089  10.728  0.3781 -1.0928  0.1684
  4024G12c H00374647   0.455   7.176  10.759 -5.6301 -2.5507  0.4763
  4024G12c C01974648   0.638   7.191  10.553  1.4930  0.2584 -0.9035
  4024G12c H00274649   0.603   7.194  10.450 -2.3941  7.7790  0.3049
  4024G12c H00174650   0.600   7.284  10.597  2.1160 -1.5803  3.7608
  4024G12c O00074651   0.779   7.194  10.541 -1.2431  1.3724 -0.4940
  4024G12c C01A74652   0.834   7.283  10.622  0.4553 -0.2555 -0.5398
  4024G12c C02K74653   0.844   7.417  10.569 -2.0261 -0.7472  0.8091
  4024G12c O00G74654   0.826   7.450  10.427 -1.6384 -1.5205 -0.8550
  4024G12c C02M74655   0.906   7.568  10.390  1.3718  0.9967  0.5681
  4024G12c H01G74656   0.849   7.658  10.413  3.0643  1.6002  2.5865
  4024G12c H01F74657   0.918   7.570  10.282  8.0364 -4.2807  0.8576
  4024G12c H01E74658   1.012   7.585  10.411  3.3831 -4.0448 -4.2161
  4024G12c C02J74659   0.903   7.521  10.646  0.0229 -0.8121  0.3315
  4024G12c H01H74660   0.858   7.617  10.627  2.8659  0.5399  0.0933
  4024G12c C02I74661   0.983   7.482  10.749  0.7479  0.0752 -1.9128
  4024G12c C02N74662   1.059   7.588  10.845  0.3558 -0.8329 -2.3185
  4024G12c H01M74663   1.014   7.605  10.942 -2.8554  7.5832 -4.8478
  4024G12c C02O74664   1.189   7.625  10.832 -1.9504 -1.0338  0.3404
  4024G12c H01L74665   1.257   7.577  10.763 -1.9309  0.6583 -0.8330
  4024G12c C02P74666   1.262   7.724  10.916 -0.2267  0.7691  0.3381
  4024G12c H01K74667   1.223   7.819  10.956  1.9226 -0.4431  5.8463
  4024G12c H01J74668   1.275   7.661  11.004  3.2378  5.6382  3.6082
  4024G12c O00H74669   1.355   7.758  10.838  0.7870 -1.6549 -0.8026
  4024G12c H01I74670   1.425   7.801  10.885 -0.3072  1.2404 -1.7605
  4024G12c C02H74671   0.969   7.349  10.808 -0.5058 -1.8064  2.0079
  4024G12c H01C74672   1.045   7.339  10.885  2.5707 -8.5634 -1.5248
  4024G12c C02L74673   0.893   7.261  10.745 -0.8188 -0.0909 -1.0310
  4024G12c H01D74674   0.905   7.157  10.772  2.1328  1.3616  3.7748
  4024G12c C01374675   0.688   6.928  10.330 -1.7296 -1.1495  1.2050
  4024G12c H00074676   0.600   6.938  10.269 -2.4007 -0.6708  2.2421
  4024G12c C01474677   0.816   6.924  10.264  0.8190  0.0159 -0.8819
  4024G12c C00F74678   0.815   6.942  10.122  1.3898 -0.6644 -1.7615
  4024G12c C00H74679   1.032   6.810  10.105  0.0133  0.1510  0.0221
  4024G12c C00I74680   1.129   6.746  10.030 -0.0280 -0.6362 -0.4860
  4024G12c C00J74681   1.221   6.669  10.102  1.1795 -1.9867  1.3308
  4024G12c C00Z74682   0.995   6.714  10.518 -1.7897  0.6619  0.8032
  4024G12c C00Y74683   0.960   6.644  10.636  0.9542 -0.4397 -1.4058
  4024G12c H00674684   0.878   6.695  10.686  2.8664  2.7844 -1.3990
  4024G12c C00X74685   1.027   6.528  10.687  0.7415 -1.2755  0.7658
  4024G12c O00374686   0.979   6.488  10.803  0.7186 -1.0291  1.5992
  4024G12c C01B74687   0.859   6.400  10.780 -0.2336 -0.6752 -1.0303
  4024G12c H00974688   0.779   6.473  10.766 -3.1704 -1.9267  6.5102
  4024G12c H00874689   0.863   6.315  10.712 -2.5615  5.4328 -9.7142
  4024G12c H00774690   0.826   6.374  10.881  2.7097  0.8984  0.4067
  4024G12c C00W74691   1.122   6.478  10.613 -0.1227  0.0146 -0.0315
  4024G12c O00474692   1.202   6.381  10.679  1.2684 -1.4704  0.7214
  4024G12c C01C74693   1.287   6.310  10.606 -1.6738 -1.4019 -0.0007
  4024G12c H00A74694   1.369   6.271  10.663 -0.7537 -0.2536 -0.5107
  4024G12c C00P74695   1.286   6.340  10.465  0.3228  1.4245  1.7954
  4024G12c C00O74696   1.329   6.229  10.368  1.8492 -0.7071 -0.5370
  4024G12c C01D74697   1.312   6.095  10.408  0.9416  0.5226 -1.2418
  4024G12c H00S74698   1.280   6.090  10.511  5.6603 -5.1451  0.1893
  4024G12c C01E74699   1.335   5.964  10.345 -0.3722 -1.5319  2.7049
  4024G12c O00874700   1.351   5.857  10.407 -0.1920  0.8801 -1.3419
  4024G12c C01V74701   1.482   5.847  10.483  0.8296  0.8549 -0.7198
  4024G12c C01Z74702   1.446   5.760  10.605 -0.1580  0.0218 -1.8619
  4024G12c H00R74703   1.493   5.730  10.699 -1.8617 -0.8277 -1.2682
  4024G12c H00Q74704   1.339   5.750  10.625  1.0458 -4.8276  3.3736
  4024G12c O00974705   1.428   5.636  10.552  0.7618 -0.8330  0.1644
  4024G12c H00P74706   1.461   5.617  10.465  0.7116 -5.9392  1.1565
  4024G12c C01W74707   1.594   5.889  10.446 -0.3935 -0.6456 -1.0356
  4024G12c H00O74708   1.601   5.931  10.347 -1.9819  1.8128 -0.1438
  4024G12c C01X74709   1.732   5.891  10.529  0.6624 -0.3136  0.4850
  4024G12c H00N74710   1.743   5.825  10.615  2.3759 -0.5206  0.1242
  4024G12c H00M74711   1.818   5.868  10.467  0.9750 -1.6530  1.3925
  4024G12c C01Y74712   1.743   6.043  10.596  0.0987  1.9910 -1.7854
  4024G12c C02D74713   1.732   6.159  10.524  0.6316 -1.6149  1.6938
  4024G12c H01974714   1.692   6.168  10.424 -3.0133  1.0859  3.2674
  4024G12c C02C74715   1.740   6.286  10.568  0.2880 -1.3516  0.0557
  4024G12c H01A74716   1.709   6.366  10.502 -0.1369 -0.9279  0.7671
  4024G12c C02B74717   1.822   6.296  10.686  0.4541 -0.6856 -0.3763
  4024G12c O00E74718   1.839   6.423  10.745  0.8877  0.4018 -1.2240
  4024G12c H01B74719   1.911   6.423  10.807  2.1231  1.2637 -2.6223
  4024G12c C02F74720   1.871   6.179  10.766  1.4560  1.7912  0.5164
  4024G12c O00F74721   1.947   6.190  10.878  0.6901  0.0679  0.2346
  4024G12c C02G74722   1.902   6.099  10.979 -0.8625 -0.1283 -0.7144
  4024G12c H01774723   1.939   6.137  11.074  4.6859  5.0149 -4.5622
  4024G12c H01674724   1.801   6.061  10.994 -1.8440  2.5801 -0.2475
  4024G12c H01574725   1.946   5.999  10.972  0.4431  0.5195 -1.8129
  4024G12c C02E74726   1.808   6.051  10.717 -0.6313 -0.6388 -0.9673
  4024G12c H01874727   1.804   5.960  10.776 -2.1193 -1.5667 -2.4481
  4024G12c C01F74728   1.348   5.980  10.199  1.3465  0.5744 -0.4730
  4024G12c C01G74729   1.303   5.888  10.103  0.7586 -0.3686  0.5516
  4024G12c H00L74730   1.270   5.788  10.125 -7.7100  1.1242 -3.6190
  4024G12c C01H74731   1.270   5.937   9.976  1.3023 -0.2017  0.6342
  4024G12c H00B74732   1.211   5.873   9.912  5.5077  0.4250 -4.2329
  4024G12c C01I74733   1.328   6.058   9.926 -0.9960  0.5499  0.0754
  4024G12c C01U74734   1.390   6.103  10.152 -0.3075  0.6481  0.0989
  4024G12c C00S74735   1.216   6.643  10.239  0.4965 -1.3317  0.0661
  4024G12c C00K74736   1.284   6.555  10.036 -0.8257 -0.2683 -2.1076
  4024G12c C00N74737   1.349   6.222  10.218 -0.1785  1.5158  1.3193
  4024G12c C00074738   1.401   6.131  10.014 -1.4950  1.1288  0.2410
  4024G12c C01J74739   1.277   6.163   9.840  0.7391  1.4615 -0.2822
  4024G12c C01K74740   1.197   6.137   9.737 -0.3009  1.6088  1.0173
  4024G12c C01P74741   1.175   6.009   9.664  3.4204  0.1526 -0.4819
  4024G12c C01Q74742   1.283   5.896   9.638 -0.1044  0.8068 -0.7027
  4024G12c H00G74743   1.235   5.802   9.665 -1.5067  0.4035 -4.2709
  4024G12c C01R74744   1.416   5.939   9.646 -1.6702  0.6313  0.0220
  4024G12c H00F74745   1.419   6.047   9.656 -5.4517  0.7687  0.4180
  4024G12c C01S74746   1.554   5.868   9.695 -0.1096  0.2474 -0.6615
  4024G12c H00E74747   1.555   5.845   9.802  0.1614  1.4540 -0.3968
  4024G12c H00D74748   1.608   5.777   9.668 -0.6677 -0.4105  0.3760
  4024G12c O00574749   1.643   5.957   9.667 -1.1606  0.1210  0.2531
  4024G12c H00C74750   1.631   6.027   9.729  0.0397 -3.0488  4.3562
  4024G12c C01O74751   1.043   5.976   9.628 -0.3652 -0.4648 -0.4113
  4024G12c H00H74752   1.013   5.885   9.578 -5.2432  1.7801 -1.9180
  4024G12c C01N74753   0.956   6.078   9.606  1.6179  1.2172  0.2707
  4024G12c O00674754   0.859   6.079   9.530 -0.8699  0.2495 -0.6513
  4024G12c C01T74755   0.888   6.109   9.396 -1.4465 -0.5559 -0.6533
  4024G12c H00K74756   0.861   6.211   9.422 -0.1995 -0.8482  2.0520
  4024G12c H00J74757   0.816   6.095   9.316 -3.3883  1.9028  0.5976
  4024G12c H00I74758   0.997   6.110   9.385 -1.3092 -5.2910 -0.7378
  4024G12c C01M74759   0.970   6.203   9.658  0.3739 -0.4660  0.5265
  4024G12c C02074760   1.232   6.528   9.895 -0.1677  0.8765 -0.4355
  4024G12c C02174761   1.162   6.628   9.818  0.7832 -1.3121 -0.8607
  4024G12c C01L74762   1.103   6.239   9.717  1.7163 -1.3313  0.6748
  4024G12c O00774763   0.855   6.294   9.656  0.7810  1.9107  0.7046
  4024G12c C02274764   1.050   6.591   9.742  0.5768  0.8192  0.6657
  4024G12c C02374765   1.101   6.741   9.892 -0.1401 -0.7706  1.1521
  4024G12c C00G74766   0.932   6.892  10.039  1.6664 -0.3699 -0.7773
  4024G12c C00E74767   0.717   7.029  10.069  0.2793  2.0639 -0.1049
  4024G12c O00A74768   0.665   7.139  10.141  1.4450  1.8626 -0.6496
  4024G12c C02474769   0.753   7.201  10.218 -0.2979 -0.8962  0.1540
  4024G12c H00V74770   0.832   7.251  10.161 -2.2163 -0.0828 -1.8576
  4024G12c H00U74771   0.808   7.205  10.312  6.1231  2.9101 -3.3746
  4024G12c H00T74772   0.690   7.281  10.256  3.0430  2.4636 -1.0641
  4034G12c C00D74773   2.621  10.979   6.392  0.6027 -1.1920 -3.1797
  4034G12c O00B74774   2.494  10.928   6.355  0.1960  0.7432 -0.7248
  4034G12c C02574775   2.363  10.951   6.400 -0.2236 -1.4700 -0.4963
  4034G12c C02674776   2.279  11.020   6.308 -0.0802 -0.2897  0.2634
  4034G12c H00Y74777   2.342  11.082   6.245  0.0485  1.9100  2.4739
  4034G12c H00X74778   2.239  11.111   6.354  2.2973  2.0071 -2.0734
  4034G12c O00C74779   2.178  10.932   6.256  1.8401  1.7231 -0.2811
  4034G12c H00W74780   2.233  10.857   6.242  1.7960  1.6060  0.1723
  4034G12c C02774781   2.321  10.888   6.516  0.2312  0.0639  0.3646
  4034G12c O00D74782   2.395  10.770   6.550 -0.0691  0.0714  0.0313
  4034G12c H00Z74783   2.431  10.716   6.481  4.0455  1.5991  0.8043
  4034G12c C02874784   2.190  10.923   6.598 -1.3578 -1.1853 -1.5668
  4034G12c C02974785   2.171  11.044   6.667 -1.5741  1.8177  0.9579
  4034G12c H01074786   2.264  11.099   6.655 -2.4835  2.3006 -5.6067
  4034G12c C02T74787   2.059  11.071   6.746  0.2175  0.2457 -0.8488
  4034G12c H01O74788   2.063  11.165   6.800 -0.2427 -0.3365  0.2222
  4034G12c C02S74789   1.945  10.991   6.719 -1.5155  0.5674 -1.1670
  4034G12c O00J74790   1.818  11.030   6.733 -0.7415  1.2118  0.0652
  4034G12c H01P74791   1.811  11.098   6.797  2.6691  1.9855 -0.2685
  4034G12c C02R74792   1.961  10.859   6.673  0.0771 -0.1888 -0.5843
  4034G12c O00I74793   1.848  10.787   6.625  1.4194 -0.1379  0.3331
  4034G12c C02Q74794   1.771  10.834   6.502 -1.2259 -1.7684  2.9038
  4034G12c H01N74795   1.788  10.761   6.423 -1.7088 -1.6469  2.6877
  4034G12c H01R74796   1.664  10.848   6.485  0.3183  2.6962 -7.0358
  4034G12c H01Q74797   1.825  10.893   6.428  2.6885 -0.6518  6.4745
  4034G12c C02A74798   2.090  10.833   6.613 -0.4794  1.0598  1.6032
  4034G12c H01174799   2.098  10.744   6.553  1.4065  2.0570  0.3169
  4034G12c C00C74800   2.640  10.983   6.529  0.0619 -0.1137 -0.3437
  4034G12c H01274801   2.560  10.955   6.595  3.0322 -1.5029  2.7923
  4034G12c C00B74802   2.762  10.990   6.588 -0.1030  1.1292 -0.9503
  4034G12c C00A74803   2.793  10.990   6.730  0.3842  0.6432 -1.1296
  4034G12c C00974804   2.719  11.055   6.837  0.9926  0.9802  1.3790
  4034G12c C00874805   2.595  11.112   6.857 -0.4621 -0.9020 -0.5298
  4034G12c H01374806   2.529  11.131   6.774 -0.1901 -2.6036 -1.1710
  4034G12c C00774807   2.557  11.176   6.972  0.3033  0.6501 -0.8167
  4034G12c H01474808   2.457  11.199   7.004 -0.0197  0.1859 -1.4759
  4034G12c C00674809   2.645  11.208   7.073 -1.0965 -0.0539  0.2814
  4034G12c C00574810   2.765  11.140   7.064  0.2987  0.7048 -1.7660
  4034G12c C00474811   2.876  11.188   7.130  0.4796  0.1111 -1.8534
  4034G12c C00374812   3.007  11.158   7.071  0.7605 -1.0603 -0.1951
  4034G12c C00274813   3.113  11.199   7.163 -0.3403 -0.0532  1.8754
  4034G12c C00174814   3.253  11.201   7.140 -0.0518 -1.3230 -0.3687
  4034G12c C00M74815   3.328  11.219   7.010 -0.2339 -0.7516 -0.5314
  4034G12c C00L74816   3.276  11.170   6.891  0.0504  0.9862  0.0083
  4034G12c C00R74817   3.338  11.171   6.758  0.1954 -1.4877  0.8850
  4034G12c C00Q74818   3.415  11.278   6.705  0.0170  0.3436  0.5423
  4034G12c C00V74819   3.401  11.315   6.570 -1.2693 -0.3909 -0.1492
  4034G12c C00U74820   3.298  11.250   6.492 -2.1737 -0.7572  1.7371
  4034G12c C00T74821   3.217  11.166   6.549 -0.2469 -0.4252 -1.3506
  4034G12c C01674822   3.094  11.114   6.491  0.3414 -1.2177  0.7170
  4034G12c C01574823   3.075  11.144   6.369 -0.5270  0.1953 -0.5258
  4034G12c C01074824   3.178  11.219   6.284 -2.1361 -0.8751  1.2494
  4034G12c C01174825   3.141  11.282   6.160 -1.1203  1.6550  0.6839
  4034G12c H00574826   3.215  11.295   6.083 -1.3531  0.5064  0.2512
  4034G12c C01274827   3.019  11.292   6.114 -0.0263  0.8291 -0.0762
  4034G12c C01774828   2.965  11.411   6.039 -0.9400  0.8135  3.3977
  4034G12c O00274829   2.940  11.387   5.900 -0.3930  0.7332  0.3255
  4034G12c H00474830   2.914  11.447   5.832  1.8680 -1.0171 -2.1816
  4034G12c C01874831   2.931  11.522   6.097 -0.3185  0.8540  0.5843
  4034G12c O00174832   2.968  11.550   6.228  0.1816 -2.2903 -0.1017
  4034G12c H00374833   2.931  11.488   6.289 -0.5856 -3.3530 -1.5991
  4034G12c C01974834   2.851  11.651   6.065 -0.6201  1.1536 -0.6889
  4034G12c H00274835   2.800  11.684   6.156 -2.9814 -3.1028 -0.3353
  4034G12c H00174836   2.943  11.690   6.022  2.5593 -8.9847 -4.6458
  4034G12c O00074837   2.764  11.654   5.956  1.4875 -1.8701 -0.2449
  4034G12c C01A74838   2.686  11.766   5.978 -0.3469 -0.0634  0.6217
  4034G12c C02K74839   2.551  11.731   6.015 -0.5588 -0.1679 -0.6924
  4034G12c O00G74840   2.518  11.606   5.996 -0.2498 -0.9054  0.2482
  4034G12c C02M74841   2.474  11.541   6.124 -0.5575  0.2446 -0.4307
  4034G12c H01G74842   2.410  11.599   6.191 -5.0374  2.9888 -6.5227
  4034G12c H01F74843   2.568  11.532   6.177 -2.2911 -2.6009  2.3473
  4034G12c H01E74844   2.416  11.451   6.104 -2.8059  2.6320 -5.4967
  4034G12c C02J74845   2.461  11.840   6.024 -0.6336 -2.4003 -0.0810
  4034G12c H01H74846   2.358  11.822   6.050 -1.8168  5.0851  1.3032
  4034G12c C02I74847   2.491  11.962   6.043  1.2404 -1.8665 -0.7571
  4034G12c C02N74848   2.389  12.058   6.077 -2.0978 -0.7277 -0.6859
  4034G12c H01M74849   2.385  12.119   6.166 -1.7322 -1.5150 -0.1225
  4034G12c C02O74850   2.290  12.089   5.988  1.5877  1.1805  0.5999
  4034G12c H01L74851   2.219  12.145   6.046 -2.8207  1.5011 -4.7649
  4034G12c C02P74852   2.230  12.034   5.860 -1.4022  2.5851 -1.6842
  4034G12c H01K74853   2.197  12.116   5.797  3.4022  3.4370 -3.3166
  4034G12c H01J74854   2.313  11.971   5.828 -0.1762  0.5234  4.7862
  4034G12c O00H74855   2.121  11.958   5.901 -1.0281 -0.8890 -0.5259
  4034G12c H01I74856   2.145  11.879   5.948 -3.8123 -3.8273 -3.7418
  4034G12c C02H74857   2.619  12.003   6.020 -1.0411  0.6287  0.6870
  4034G12c H01C74858   2.651  12.105   6.033  6.0749 -1.8800  5.4466
  4034G12c C02L74859   2.711  11.902   5.991 -0.0092 -0.7777  1.3140
  4034G12c H01D74860   2.802  11.945   5.952 -3.8094  6.5897 -0.3634
  4034G12c C01374861   2.932  11.187   6.168 -0.4187  2.0398  0.8459
  4034G12c H00074862   2.848  11.182   6.101  0.1384 -7.9306  0.1487
  4034G12c C01474863   2.958  11.114   6.300  0.1554  0.3875  0.7736
  4034G12c C00F74864   2.862  11.044   6.371 -1.0013  0.7162 -0.6315
  4034G12c C00H74865   3.008  11.029   6.564 -0.4050  0.9525  2.4577
  4034G12c C00I74866   3.025  11.001   6.701 -0.1348 -1.4197 -2.2980
  4034G12c C00J74867   3.165  11.030   6.751 -1.0038  0.8548 -0.2911
  4034G12c C00Z74868   3.290  11.275   6.359  0.0403  0.5211 -0.5579
  4034G12c C00Y74869   3.395  11.348   6.297  1.8205  1.1716 -0.2273
  4034G12c H00674870   3.390  11.367   6.191 -2.8186  2.6205  0.1489
  4034G12c C00X74871   3.488  11.427   6.374  0.0820 -0.6622 -1.9921
  4034G12c O00374872   3.567  11.542   6.346 -0.1341 -1.3126  0.1866
  4034G12c C01B74873   3.491  11.651   6.302  0.5096 -0.6993 -0.3960
  4034G12c H00974874   3.434  11.694   6.385 -2.3891  3.0769 -4.1317
  4034G12c H00874875   3.441  11.657   6.206 -4.6382  4.9999  2.2720
  4034G12c H00774876   3.569  11.728   6.306  1.2924 -1.5466  4.5575
  4034G12c C00W74877   3.486  11.415   6.514  0.3898 -0.9134 -1.2460
  4034G12c O00474878   3.558  11.502   6.582 -0.9209  1.2583 -0.9166
  4034G12c C01C74879   3.584  11.469   6.709 -1.2910  0.7472 -2.3038
  4034G12c H00A74880   3.689  11.452   6.729 -2.2632  2.8124  6.9658
  4034G12c C00P74881   3.479  11.385   6.781 -0.1480 -1.8386 -2.4359
  4034G12c C00O74882   3.468  11.427   6.918 -0.3846  1.9003 -0.0641
  4034G12c C01D74883   3.535  11.542   6.977  1.3469  0.9559  0.1091
  4034G12c H00S74884   3.584  11.606   6.905 -0.3287  1.9388 -0.1971
  4034G12c C01E74885   3.519  11.591   7.110  1.0477 -1.0611  0.6048
  4034G12c O00874886   3.550  11.710   7.155  0.0369  1.8296  0.5363
  4034G12c C01V74887   3.662  11.713   7.241 -1.0571  0.5490  1.4999
  4034G12c C01Z74888   3.611  11.745   7.385 -1.6022  0.1747 -0.4631
  4034G12c H00R74889   3.565  11.842   7.404 -0.5193  1.5983 -4.4212
  4034G12c H00Q74890   3.530  11.677   7.412 -4.9885  3.6996 -1.4060
  4034G12c O00974891   3.702  11.734   7.495  0.1101 -0.5834 -0.0469
  4034G12c H00P74892   3.661  11.675   7.557  2.2681 -3.8029 -1.5254
  4034G12c C01W74893   3.787  11.674   7.206  0.7491 -0.2422  0.7497
  4034G12c H00O74894   3.859  11.669   7.286 -0.7482 -6.6535  2.0372
  4034G12c C01X74895   3.871  11.654   7.076 -0.8944  1.7578 -1.1655
  4034G12c H00N74896   3.903  11.551   7.058  2.8113  2.2577  1.9102
  4034G12c H00M74897   3.831  11.703   6.988  5.7890  3.3010 -3.7024
  4034G12c C01Y74898   4.008  11.705   7.079 -1.6809 -0.4282 -1.5164
  4034G12c C02D74899   4.088  11.622   7.163  0.9216  1.8221 -1.6342
  4034G12c H01974900   4.076  11.515   7.178 -2.9084  2.8245  4.0261
  4034G12c C02C74901   4.195  11.689   7.225 -0.2272 -0.5474  0.9320
  4034G12c H01A74902   4.272  11.645   7.286 -0.3656 -2.8067 -0.4594
  4034G12c C02B74903   4.246  11.809   7.168  0.1853  1.6512 -0.2890
  4034G12c O00E74904   4.363  11.862   7.210  0.2491 -0.7740 -0.2619
  4034G12c H01B74905   4.386  11.934   7.154 -2.4508 -1.3818 -2.2318
  4034G12c C02F74906   4.156  11.879   7.083  1.4294 -0.3798 -0.4147
  4034G12c O00F74907   4.176  12.027   7.078  1.7677  0.5263 -0.4750
  4034G12c C02G74908   4.161  12.117   7.210  1.9816  0.3274 -0.5058
  4034G12c H01774909   4.053  12.115   7.228  2.9930  1.2997  7.9045
  4034G12c H01674910   4.215  12.197   7.159  1.7433  3.7774  4.2774
  4034G12c H01574911   4.211  12.057   7.286  5.2357 -3.9914 -5.7541
  4034G12c C02E74912   4.040  11.827   7.036  0.2582 -1.3336  1.6260
  4034G12c H01874913   3.953  11.885   7.006  0.5731  0.3071  3.7760
  4034G12c C01F74914   3.405  11.536   7.180  0.6510 -1.7680  0.7972
  4034G12c C01G74915   3.310  11.594   7.279  0.4697  1.2519 -0.1839
  4034G12c H00L74916   3.294  11.695   7.316 -2.7591 -1.4982  6.8273
  4034G12c C01H74917   3.201  11.505   7.334 -1.0053 -0.1636  1.2081
  4034G12c H00B74918   3.109  11.560   7.344 -1.2484 -0.3585  0.1057
  4034G12c C01I74919   3.194  11.374   7.297  1.0831 -0.5348 -0.8153
  4034G12c C01U74920   3.390  11.392   7.151 -1.6996 -0.1965 -0.3271
  4034G12c C00S74921   3.262  11.099   6.664  0.3857  0.3493 -0.3196
  4034G12c C00K74922   3.165  11.087   6.884  0.4941 -0.4712 -0.1241
  4034G12c C00N74923   3.408  11.342   7.022  0.5895  2.2248  0.7334
  4034G12c C00074924   3.311  11.303   7.225 -1.6129 -0.3877  0.8316
  4034G12c C01J74925   3.083  11.292   7.255 -1.6467 -0.6145 -0.2106
  4034G12c C01K74926   2.956  11.326   7.310 -0.7388  1.3308  1.2801
  4034G12c C01P74927   2.924  11.415   7.411  0.2272  0.8585 -1.4732
  4034G12c C01Q74928   3.013  11.432   7.521  0.0811 -0.4128 -0.1924
  4034G12c H00G74929   3.026  11.532   7.559  0.9583  1.0704 -4.1264
  4034G12c C01R74930   3.071  11.328   7.584  1.1144 -1.6049 -0.5403
  4034G12c H00F74931   3.059  11.234   7.533 -1.7289 -1.3858 -0.3750
  4034G12c C01S74932   3.134  11.311   7.718 -0.0857  1.0968 -0.1715
  4034G12c H00E74933   3.050  11.273   7.777  0.5924 -5.6235 -3.0736
  4034G12c H00D74934   3.205  11.228   7.719  3.7447  4.2102 -3.1460
  4034G12c O00574935   3.187  11.433   7.754 -0.6289  0.2751  1.0456
  4034G12c H00C74936   3.146  11.456   7.836  1.9778  3.3769  1.5614
  4034G12c C01O74937   2.790  11.437   7.439  0.4688 -1.5102  1.0798
  4034G12c H00H74938   2.779  11.508   7.519  2.7359  5.8559 -4.5140
  4034G12c C01N74939   2.679  11.371   7.371  1.9508 -2.5959 -0.0243
  4034G12c O00674940   2.540  11.380   7.410 -0.7505  0.0686 -0.1060
  4034G12c C01T74941   2.521  11.412   7.542  0.7230  0.0811  0.7080
  4034G12c H00K74942   2.461  11.344   7.603 -4.2645  1.1290 -2.7410
  4034G12c H00J74943   2.598  11.446   7.611 -2.9295 -0.0678  5.1260
  4034G12c H00I74944   2.452  11.496   7.547  4.4959  3.2184  3.7581
  4034G12c C01M74945   2.710  11.309   7.260  1.1616 -0.2839 -1.9110
  4034G12c C02074946   3.047  11.064   6.969 -3.0996 -1.1387  0.1346
  4034G12c C02174947   2.923  11.003   6.907 -1.2303 -0.7070  0.0429
  4034G12c C01L74948   2.846  11.281   7.231  0.8750  0.1316  1.4687
  4034G12c O00774949   2.614  11.294   7.151 -0.1812  0.0785 -0.8502
  4034G12c C02274950   2.794  11.050   6.948 -0.3888 -1.4468 -1.6399
  4034G12c C02374951   2.922  10.959   6.779  0.6156  1.2788 -1.5249
  4034G12c C00G74952   2.875  11.020   6.508  0.3527  0.2799 -0.2328
  4034G12c C00E74953   2.733  11.005   6.315  0.1502  0.6361  1.0453
  4034G12c O00A74954   2.741  10.995   6.181 -0.8475 -0.8961  0.6854
  4034G12c C02474955   2.642  10.938   6.110  0.6362 -0.7428 -1.4188
  4034G12c H00V74956   2.537  10.960   6.130  0.4513 -5.2495  3.8213
  4034G12c H00U74957   2.667  10.834   6.133  0.7381 -0.4347 -0.1372
  4034G12c H00T74958   2.629  10.969   6.006  0.2634  3.0162 -0.3011
  4044G12c C00D74959  11.630   0.219  10.932  1.2916  1.9378  1.7232
  4044G12c O00B74960  11.624   0.309  10.832 -0.0321 -0.8443 -0.1673
  4044G12c C02574961  11.682   0.420  10.869  0.1855 -1.4359 -1.4570
  4044G12c C02674962  11.825   0.424  10.863 -1.7150 -1.4887 -0.2467
  4044G12c H00Y74963  11.887   0.356  10.921 -6.3691 -5.8793 -0.1259
  4044G12c H00X74964  11.846   0.508  10.929 -4.1026 -4.3938  4.4114
  4044G12c O00C74965  11.847   0.436  10.746 -0.5105  0.1577  0.0173
  4044G12c H00W74966  11.755   0.444  10.725 -0.5812  0.7964  0.5212
  4044G12c C02774967  11.608   0.524  10.915  0.2008  0.6270  0.5280
  4044G12c O00D74968  11.659   0.625  11.004  1.0858  1.0783 -0.3849
  4044G12c H00Z74969  11.618   0.708  11.024  0.5618  0.9502 -0.9398
  4044G12c C02874970  11.468   0.501  10.890  0.0511 -0.0949  0.4189
  4044G12c C02974971  11.373   0.477  10.991 -1.3301  0.1755  0.1571
  4044G12c H01074972  11.404   0.473  11.094 -1.6392 -2.7064  0.1909
  4044G12c C02T74973  11.236   0.474  10.958  0.9588 -0.5582 -0.3337
  4044G12c H01O74974  11.153   0.466  11.026  1.7761  4.3069  1.4485
  4044G12c C02S74975  11.208   0.484  10.818  1.8998  0.5952  0.0697
  4044G12c O00J74976  11.075   0.468  10.791 -0.4112 -2.0493  0.1988
  4044G12c H01P74977  11.091   0.458  10.698 -0.1273  1.1072 -0.1453
  4044G12c C02R74978  11.294   0.518  10.723 -1.5871  1.4100  0.2723
  4044G12c O00I74979  11.271   0.496  10.588 -1.5787 -0.6523 -0.4049
  4044G12c C02Q74980  11.296   0.373  10.533  0.9571 -0.0889 -1.3671
  4044G12c H01N74981  11.195   0.333  10.530 -1.7534  4.8406  6.6123
  4044G12c H01R74982  11.366   0.315  10.593  2.1996  4.3630  1.8066
  4044G12c H01Q74983  11.366   0.404  10.456  1.9107  0.2572 -0.3831
  4044G12c C02A74984  11.432   0.515  10.756  2.3793  0.6899  1.1002
  4044G12c H01174985  11.502   0.573  10.699  0.2882  3.8701  1.6555
  4044G12c C00C74986  11.652   0.240  11.071  0.9474 -1.6172  1.4492
  4044G12c H01274987  11.614   0.332  11.115 -8.5875 -6.1734  4.1232
  4044G12c C00B74988  11.661   0.141  11.161  0.9840 -0.0073  1.2376
  4044G12c C00A74989  11.696   0.151  11.299 -1.2078 -0.4284  0.2224
  4044G12c C00974990  11.782   0.254  11.379 -1.7897  0.8238  0.3578
  4044G12c C00874991  11.852   0.366  11.343  2.2822  0.0292 -1.7655
  4044G12c H01374992  11.837   0.379  11.237 -1.8574  3.4713 -0.9074
  4044G12c C00774993  11.948   0.419  11.429 -0.5648 -0.4166  2.0137
  4044G12c H01474994  11.998   0.509  11.396  3.0341 -1.8834  3.2899
  4044G12c C00674995  11.978   0.343  11.571 -0.4029 -0.9423 -0.6762
  4044G12c C00574996  11.909   0.232  11.589  0.7370 -1.0866  1.7201
  4044G12c C00474997  11.937   0.137  11.696  0.8202 -0.6794  2.7508
  4044G12c C00374998  11.893   0.005  11.689  0.8446  0.6572  0.1937
  4044G12c C00274999  11.949  -0.086  11.791  0.4924  0.2201 -2.6018
  4044G12c C00175000  11.919  -0.227  11.822 -1.5199 -2.0693  0.0126
  4044G12c C00M75001  11.918  -0.324  11.724  1.1519  0.0317  0.0786
  4044G12c C00L75002  11.841  -0.302  11.600 -0.6598  0.3717 -0.0536
  4044G12c C00R75003  11.859  -0.362  11.480  1.8565  0.9674  1.6043
  4044G12c C00Q75004  11.941  -0.475  11.442 -1.7648  0.0595  0.0500
  4044G12c C00V75005  11.943  -0.507  11.303 -0.9342 -0.1435  1.0808
  4044G12c C00U75006  11.887  -0.420  11.215  3.1700  2.7767  0.8634
  4044G12c C00T75007  11.763  -0.337  11.256  0.3000 -2.4740  0.4283
  4044G12c C01675008  11.722  -0.228  11.166 -0.9232  1.2073  0.9314
  4044G12c C01575009  11.737  -0.248  11.022 -0.5475 -0.1160  1.1199
  4044G12c C01075010  11.809  -0.368  10.986  0.5152  0.5770  1.8400
  4044G12c C01175011  11.823  -0.385  10.852 -1.8818 -0.6916  1.8733
  4044G12c H00575012  11.821  -0.488  10.818 12.2200  0.1676 -4.9030
  4044G12c C01275013  11.765  -0.312  10.751 -0.8782  1.0411 -0.1313
  4044G12c C01775014  11.778  -0.357  10.615  2.2922  0.7671  0.5359
  4044G12c O00275015  11.675  -0.427  10.565  0.3619 -0.2743  0.0057
  4044G12c H00475016  11.601  -0.425  10.623 -0.6280  0.4193 -1.2703
  4044G12c C01875017  11.879  -0.315  10.537 -0.5267 -0.7449  0.3264
  4044G12c O00175018  11.989  -0.246  10.564 -1.7262  0.8075  0.9909
  4044G12c H00375019  12.068  -0.292  10.539 -2.5591 -2.9533  4.7092
  4044G12c C01975020  11.908  -0.378  10.398 -0.6114 -0.9209 -0.3162
  4044G12c H00275021  12.007  -0.422  10.408 -1.5838 -2.6112  2.4643
  4044G12c H00175022  11.854  -0.471  10.414 -3.5077  0.7369 -0.0023
  4044G12c O00075023  11.896  -0.295  10.278 -0.3762 -1.2261  1.0375
  4044G12c C01A75024  11.824  -0.168  10.280 -0.5200 -0.8203  0.6634
  4044G12c C02K75025  11.895  -0.042  10.266  0.3665  0.2156 -0.9732
  4044G12c O00G75026  12.026  -0.040  10.215  0.1944 -0.7683  0.4636
  4044G12c C02M75027  12.028  -0.018  10.079  0.3763 -0.1786 -0.3655
  4044G12c H01G75028  12.103   0.058  10.055  2.1988 -3.5375 -6.6111
  4044G12c H01F75029  11.940   0.029  10.037  2.3025  1.8293 -2.2477
  4044G12c H01E75030  12.053  -0.109  10.023 -1.7013 -2.9172  2.9253
  4044G12c C02J75031  11.818   0.079  10.288 -0.1957 -0.5947  0.6697
  4044G12c H01H75032  11.873   0.165  10.252  3.3217 -2.1761  2.0289
  4044G12c C02I75033  11.680   0.093  10.316  0.5345  0.4615  0.3419
  4044G12c C02N75034  11.592   0.213  10.288 -0.2355  0.1698  1.0140
  4044G12c H01M75035  11.488   0.184  10.291  2.0328-10.5689 -1.6546
  4044G12c C02O75036  11.620   0.339  10.263 -0.6799 -0.2782  1.2465
  4044G12c H01L75037  11.724   0.361  10.285 -0.1503 -3.5406  2.1800
  4044G12c C02P75038  11.521   0.427  10.210 -0.8209  0.6910 -1.8558
  4044G12c H01K75039  11.528   0.453  10.104 -2.0928  2.5964 -1.5023
  4044G12c H01J75040  11.431   0.393  10.260  2.7926 -2.9860  2.5429
  4044G12c O00H75041  11.569   0.556  10.269  0.6051  0.4676 -1.3674
  4044G12c H01I75042  11.607   0.540  10.355 -0.1715 -0.9108 -1.2626
  4044G12c C02H75043  11.616  -0.034  10.317 -0.4216 -0.9082  0.7135
  4044G12c H01C75044  11.523   0.001  10.359  0.2614  3.0309 -0.8321
  4044G12c C02L75045  11.675  -0.166  10.315 -0.8682 -0.6440  2.0147
  4044G12c H01D75046  11.643  -0.269  10.312 -0.1159 -0.8440  0.5715
  4044G12c C01375047  11.706  -0.183  10.793  0.9531  1.4265  0.7854
  4044G12c H00075048  11.637  -0.151  10.717 -0.0212 -0.7987  0.7035
  4044G12c C01475049  11.709  -0.148  10.932 -0.4636  0.1721  0.6747
  4044G12c C00F75050  11.669  -0.022  10.977 -0.8579  1.9644  0.2834
  4044G12c C00H75051  11.683  -0.104  11.206  0.5565  0.6540  1.1344
  4044G12c C00I75052  11.697  -0.089  11.343 -0.8967 -0.3924  1.2664
  4044G12c C00J75053  11.740  -0.194  11.427  1.9882  1.0796  0.7074
  4044G12c C00Z75054  11.905  -0.440  11.073  1.4600 -1.0109 -0.6308
  4044G12c C00Y75055  11.983  -0.554  11.010  0.7370 -0.4870  0.4404
  4044G12c H00675056  11.991  -0.573  10.904  5.2620  7.0735 -0.8992
  4044G12c C00X75057  12.025  -0.642  11.121 -0.4353  0.7124 -0.2238
  4044G12c O00375058  12.112  -0.755  11.086  0.1574 -1.7353  0.1033
  4044G12c C01B75059  12.249  -0.703  11.062  0.7537  0.0642 -1.1702
  4044G12c H00975060  12.329  -0.759  11.111 -1.5466 -0.5295  2.0289
  4044G12c H00875061  12.256  -0.705  10.953 -3.5089 -3.0445 -1.5315
  4044G12c H00775062  12.265  -0.602  11.097 -2.2774  0.2364 -0.0974
  4044G12c C00W75063  11.997  -0.630  11.250 -0.7729  0.7356  2.8807
  4044G12c O00475064  12.033  -0.712  11.347 -1.1292 -0.2563  1.2153
  4044G12c C01C75065  12.106  -0.652  11.450  1.2666 -1.3249  1.4545
  4044G12c H00A75066  12.212  -0.635  11.439  1.1747 -0.7396  1.4719
  4044G12c C00P75067  12.031  -0.549  11.527  0.8799  0.5875 -0.8895
  4044G12c C00O75068  12.082  -0.513  11.650 -0.7143 -0.6314 -0.7862
  4044G12c C01D75069  12.191  -0.604  11.696 -0.1885  0.0826 -0.7019
  4044G12c H00S75070  12.196  -0.705  11.657 -1.9104 -0.3876  0.2792
  4044G12c C01E75071  12.276  -0.547  11.797 -0.1278 -0.0055  0.4423
  4044G12c O00875072  12.355  -0.638  11.855  0.1916  0.5244  0.4898
  4044G12c C01V75073  12.321  -0.669  11.979 -1.1449 -1.8060 -0.8688
  4044G12c C01Z75074  12.442  -0.652  12.087 -0.1860 -0.0511  0.2770
  4044G12c H00R75075  12.426  -0.721  12.171 -7.5352  0.9334  0.0224
  4044G12c H00Q75076  12.540  -0.671  12.045  0.2928  3.8774 -0.5442
  4044G12c O00975077  12.427  -0.548  12.180 -0.4869 -0.7663 -0.5194
  4044G12c H00P75078  12.492  -0.567  12.245  0.2117  3.8012  0.3033
  4044G12c C01W75079  12.201  -0.726  12.021 -2.0169 -0.0411  0.6529
  4044G12c H00O75080  12.130  -0.733  11.940 -2.4216  1.8965  0.8307
  4044G12c C01X75081  12.138  -0.757  12.161 -0.9795  1.2845  1.5921
  4044G12c H00N75082  12.227  -0.757  12.225 -1.4454  3.7176  2.2984
  4044G12c H00M75083  12.072  -0.680  12.201 -4.5789 -1.4626  1.1835
  4044G12c C01Y75084  12.092  -0.910  12.162  0.8394 -0.0161  0.5373
  4044G12c C02D75085  12.165  -1.008  12.230  1.1030 -1.1476  1.1234
  4044G12c H01975086  12.250  -0.963  12.279  2.3444 -0.2287 -1.7536
  4044G12c C02C75087  12.103  -1.134  12.245  1.8926 -0.4671 -0.1452
  4044G12c H01A75088  12.177  -1.206  12.279 -0.9422 -2.8166  1.2386
  4044G12c C02B75089  11.976  -1.144  12.185  0.9541 -0.8595  1.9007
  4044G12c O00E75090  11.913  -1.275  12.183 -1.4060  0.3941 -0.3879
  4044G12c H01B75091  11.820  -1.268  12.202 -0.2990  1.5611  5.6087
  4044G12c C02F75092  11.903  -1.052  12.108  0.5411 -0.1199  0.7425
  4044G12c O00F75093  11.765  -1.054  12.091  0.2849 -1.0160  1.6245
  4044G12c C02G75094  11.705  -0.983  11.978  0.4805 -0.0049 -0.3836
  4044G12c H01775095  11.597  -0.987  11.967  0.0320 -6.2648  3.6215
  4044G12c H01675096  11.746  -1.044  11.898 -0.9684 -2.9535  1.0338
  4044G12c H01575097  11.716  -0.875  11.968  2.2972 -0.1538 -0.1966
  4044G12c C02E75098  11.957  -0.927  12.114 -2.3568 -0.6670  0.7036
  4044G12c H01875099  11.904  -0.842  12.073  0.4009 -0.1646 -2.0063
  4044G12c C01F75100  12.225  -0.423  11.867 -1.1267 -0.6762 -0.2518
  4044G12c C01G75101  12.315  -0.320  11.909  0.0843  0.6629  0.9468
  4044G12c H00L75102  12.421  -0.325  11.932 -1.3362  2.6836  9.6728
  4044G12c C01H75103  12.254  -0.196  11.933 -0.5603  1.6658 -1.4580
  4044G12c H00B75104  12.317  -0.115  11.967 -0.3674  1.2718 -0.8713
  4044G12c C01I75105  12.118  -0.160  11.930 -1.0223  0.8591 -0.1529
  4044G12c C01U75106  12.091  -0.377  11.863  0.4316 -0.5367  0.8795
  4044G12c C00S75107  11.757  -0.331  11.396 -0.4569 -2.1730 -0.1539
  4044G12c C00K75108  11.805  -0.168  11.550  0.2659 -0.4726  0.4841
  4044G12c C00N75109  12.033  -0.416  11.738 -0.9011 -0.3994  1.7320
  4044G12c C00075110  12.023  -0.273  11.910  0.7030  0.7248 -0.1543
  4044G12c C01J75111  12.051  -0.039  11.882 -0.1821  0.4946 -0.8437
  4044G12c C01K75112  12.092   0.088  11.899 -1.2723 -2.2505  0.5666
  4044G12c C01P75113  12.146   0.163  12.014 -1.9524  1.2201 -0.2136
  4044G12c C01Q75114  12.177   0.099  12.138  1.3873  0.0308  1.3240
  4044G12c H00G75115  12.129   0.003  12.137 -0.1318  0.7725 -0.8626
  4044G12c C01R75116  12.225   0.144  12.259  1.9496  0.5446 -0.4167
  4044G12c H00F75117  12.214   0.091  12.352  0.4189 -4.2064 -3.1393
  4044G12c C01S75118  12.288   0.274  12.322 -0.1796 -1.4141  1.1423
  4044G12c H00E75119  12.221   0.355  12.352  6.1492  3.8486  2.2021
  4044G12c H00D75120  12.326   0.245  12.420 -5.2165 -7.1068  1.7196
  4044G12c O00575121  12.363   0.357  12.259  0.1876  0.3316  0.3333
  4044G12c H00C75122  12.456   0.351  12.244 -0.5547 -3.5910 -3.8022
  4044G12c C01O75123  12.157   0.309  12.005 -1.3018  1.4491  0.1972
  4044G12c H00H75124  12.211   0.342  12.092 -1.7071 -0.0607  1.0350
  4044G12c C01N75125  12.101   0.387  11.885  0.3752 -2.0621  0.4936
  4044G12c O00675126  12.104   0.520  11.882  0.5082  1.5719 -1.3703
  4044G12c C01T75127  12.236   0.583  11.911 -0.9520 -0.1241 -1.1679
  4044G12c H00K75128  12.208   0.684  11.882  3.0284  0.8267 -1.9349
  4044G12c H00J75129  12.281   0.542  11.821  0.7289  2.7171 -1.6742
  4044G12c H00I75130  12.294   0.564  12.001 -0.1067  0.1880 -1.6439
  4044G12c C01M75131  12.075   0.312  11.781 -0.4727  1.9917 -0.5371
  4044G12c C02075132  11.811  -0.033  11.585 -0.5154 -0.4352 -0.9999
  4044G12c C02175133  11.744   0.069  11.515  0.0535  1.2704  1.3130
  4044G12c C01L75134  12.043   0.166  11.788 -0.3135  1.2074 -0.0206
  4044G12c O00775135  12.055   0.384  11.672  0.2468 -0.3583 -0.0988
  4044G12c C02275136  11.819   0.179  11.493  1.4798  1.1954 -0.7714
  4044G12c C02375137  11.688   0.044  11.397  0.8562 -1.6422 -0.0546
  4044G12c C00G75138  11.679   0.007  11.118 -0.3463  1.0531  0.6424
  4044G12c C00E75139  11.651   0.088  10.882  1.3000 -1.3925 -1.2915
  4044G12c O00A75140  11.643   0.085  10.743 -0.8630  0.1061  0.9359
  4044G12c C02475141  11.758   0.099  10.669 -0.2991 -1.1018 -1.6261
  4044G12c H00V75142  11.775   0.197  10.625  4.5984 -2.7522 -3.8514
  4044G12c H00U75143  11.848   0.109  10.730  0.5373  4.4091 -3.4704
  4044G12c H00T75144  11.792   0.015  10.607 -3.2179 -2.8829 -0.9183
  4054G12c C00D75145   0.517   0.369   0.244  1.3208  2.7235 -0.3572
  4054G12c O00B75146   0.497   0.273   0.133  0.2885  0.7821  0.0730
  4054G12c C02575147   0.564   0.277   0.008  0.8839 -0.3953 -0.0053
  4054G12c C02675148   0.678   0.168  -0.023 -1.3758 -1.3752  2.1646
  4054G12c H00Y75149   0.700   0.192  -0.127 -0.5021 -4.9398  1.4525
  4054G12c H00X75150   0.646   0.064  -0.025  0.5195 -1.9735 -1.7779
  4054G12c O00C75151   0.802   0.213   0.044 -0.0415  0.3879 -0.4158
  4054G12c H00W75152   0.831   0.165   0.120  0.8840  2.5499  0.6248
  4054G12c C02775153   0.497   0.349  -0.093 -0.4274 -0.8499  1.9733
  4054G12c O00D75154   0.360   0.395  -0.086  1.2452  0.5613 -0.3097
  4054G12c H00Z75155   0.312   0.341  -0.024 -2.8352 -0.4613 -4.0834
  4054G12c C02875156   0.586   0.401  -0.189 -0.7188  0.2073  0.3391
  4054G12c C02975157   0.580   0.356  -0.322  1.1680  2.8470 -0.8750
  4054G12c H01075158   0.485   0.332  -0.367  2.0637  2.6361 -2.7314
  4054G12c C02T75159   0.699   0.372  -0.392 -2.5992 -0.6909  1.8110
  4054G12c H01O75160   0.712   0.324  -0.489 -2.0182  9.0842 -3.5923
  4054G12c C02S75161   0.805   0.433  -0.363  0.7136  1.3631  1.8528
  4054G12c O00J75162   0.883   0.467  -0.459 -0.1599 -0.5578  0.2202
  4054G12c H01P75163   0.854   0.450  -0.547 -1.0357 -0.4485  0.4847
  4054G12c C02R75164   0.801   0.502  -0.241 -1.1499  1.3985 -0.7541
  4054G12c O00I75165   0.891   0.598  -0.198  0.1163 -1.5413 -1.2891
  4054G12c C02Q75166   0.837   0.732  -0.184 -0.6528 -0.4458  1.1885
  4054G12c H01N75167   0.919   0.802  -0.168  6.5670 -7.0625 -3.5433
  4054G12c H01R75168   0.765   0.751  -0.104 -1.5322 -4.3933  1.4290
  4054G12c H01Q75169   0.789   0.773  -0.272 -0.8059  0.5735  1.7442
  4054G12c C02A75170   0.708   0.465  -0.147  0.5658  0.8183  0.3694
  4054G12c H01175171   0.742   0.506  -0.053  5.3787  4.0504 -2.5357
  4054G12c C00C75172   0.576   0.495   0.200  0.4855 -0.6150 -0.7605
  4054G12c H01275173   0.629   0.487   0.107  5.0714 -6.6259  2.0164
  4054G12c C00B75174   0.585   0.596   0.294 -1.6031 -0.6950  0.8196
  4054G12c C00A75175   0.681   0.707   0.286 -0.1710  0.9488  1.1728
  4054G12c C00975176   0.796   0.738   0.209 -0.3842 -0.9036 -1.6895
  4054G12c C00875177   0.880   0.667   0.123  0.8959 -0.1032  0.0589
  4054G12c H01375178   0.850   0.568   0.091  5.0174 -0.0188 -4.6878
  4054G12c C00775179   0.992   0.740   0.091 -1.9806 -2.5435 -0.8643
  4054G12c H01475180   1.049   0.693   0.013 -0.1969 -1.4800 -0.2320
  4054G12c C00675181   1.029   0.858   0.153 -0.9695 -1.8679  1.7563
  4054G12c C00575182   0.961   0.902   0.265  0.4432  1.3930  3.0057
  4054G12c C00475183   0.986   1.012   0.350 -0.7824 -0.6763 -0.9481
  4054G12c C00375184   0.911   1.037   0.471  0.1893 -0.0955  0.9582
  4054G12c C00275185   0.984   1.126   0.558  0.2673  0.9130 -1.2807
  4054G12c C00175186   0.942   1.197   0.679  0.8501  0.0448  0.2203
  4054G12c C00M75187   0.864   1.114   0.760 -0.3699  2.0126  0.6040
  4054G12c C00L75188   0.750   1.023   0.714  0.5929 -0.3352 -0.4106
  4054G12c C00R75189   0.671   0.940   0.794  1.2714 -2.2498 -1.4809
  4054G12c C00Q75190   0.702   0.891   0.930 -0.0221 -1.4442 -0.9736
  4054G12c C00V75191   0.604   0.798   0.964 -0.5103  0.9978 -0.9960
  4054G12c C00U75192   0.511   0.743   0.877 -0.8904 -1.8849  0.4878
  4054G12c C00T75193   0.520   0.756   0.750  0.5824 -1.2030  1.1676
  4054G12c C01675194   0.464   0.689   0.643 -0.7474  0.8438  0.4370
  4054G12c C01575195   0.415   0.570   0.683 -1.5389 -0.8766 -0.0032
  4054G12c C01075196   0.386   0.561   0.823  1.9547  0.5055  1.2240
  4054G12c C01175197   0.319   0.453   0.862  0.4248 -0.1341 -0.1829
  4054G12c H00575198   0.270   0.447   0.958  8.0174 -2.3852  3.9614
  4054G12c C01275199   0.243   0.371   0.769 -0.4957  0.1013  0.1547
  4054G12c C01775200   0.163   0.284   0.826 -0.0838 -0.8577 -0.5905
  4054G12c O00275201   0.201   0.138   0.828  0.2707 -0.1720 -0.6688
  4054G12c H00475202   0.286   0.123   0.791 -0.5836  2.2921 -3.8807
  4054G12c C01875203   0.060   0.339   0.913 -0.1151  0.3201  1.3676
  4054G12c O00175204   0.031   0.479   0.916 -0.4721  0.0474 -0.1371
  4054G12c H00375205  -0.007   0.521   0.840 -2.5995 -1.5473  0.0169
  4054G12c C01975206  -0.029   0.278   1.009  0.1128 -0.7238 -0.6288
  4054G12c H00275207  -0.114   0.343   0.990  0.0415 -0.1832  1.3844
  4054G12c H00175208  -0.050   0.172   1.016 -0.4107 -0.7581 -2.3826
  4054G12c O00075209   0.021   0.291   1.142 -1.0214 -0.7221 -1.3465
  4054G12c C01A75210  -0.086   0.260   1.229  0.6521 -0.8320 -1.1139
  4054G12c C02K75211  -0.156   0.376   1.284 -0.8208  0.6153  1.3203
  4054G12c O00G75212  -0.107   0.504   1.257  0.5047 -1.2070  0.2422
  4054G12c C02M75213  -0.184   0.586   1.173 -1.0126  0.1802  0.1270
  4054G12c H01G75214  -0.146   0.642   1.087  0.0258  4.9208  3.5134
  4054G12c H01F75215  -0.187   0.657   1.256 -1.8353 -4.3075  4.1406
  4054G12c H01E75216  -0.265   0.520   1.140  0.5278 -2.9993  2.5350
  4054G12c C02J75217  -0.297   0.345   1.322 -2.4350  0.0213 -1.3074
  4054G12c H01H75218  -0.360   0.430   1.344  3.8784  4.2649  1.9566
  4054G12c C02I75219  -0.359   0.217   1.321 -0.5579  1.1032 -0.4238
  4054G12c C02N75220  -0.507   0.188   1.321  0.0330  1.6721  1.1183
  4054G12c H01M75221  -0.555   0.108   1.375 -2.8479 -0.4958 -4.2088
  4054G12c C02O75222  -0.582   0.254   1.232  1.0540 -0.4575 -0.1465
  4054G12c H01L75223  -0.677   0.205   1.217  2.7455 -3.2883 -2.0491
  4054G12c C02P75224  -0.549   0.365   1.124  0.3047 -1.8929 -1.5225
  4054G12c H01K75225  -0.453   0.348   1.075  2.1261  1.2033  0.7296
  4054G12c H01J75226  -0.609   0.360   1.034  1.2852 -7.2454 -2.0472
  4054G12c O00H75227  -0.531   0.484   1.208  0.0936 -1.1938  0.8123
  4054G12c H01I75228  -0.472   0.531   1.151 -3.9857 -4.2116 -6.6237
  4054G12c C02H75229  -0.271   0.107   1.315 -0.0000  2.0868 -0.2279
  4054G12c H01C75230  -0.296   0.003   1.306 -1.7951  2.6316 -2.1764
  4054G12c C02L75231  -0.141   0.133   1.269  0.0484 -0.1793 -1.4413
  4054G12c H01D75232  -0.074   0.053   1.240  2.2188 -0.4779  3.7895
  4054G12c C01375233   0.317   0.356   0.646 -0.9049 -0.0602  0.3114
  4054G12c H00075234   0.268   0.273   0.598 -1.9166  0.6184  0.1675
  4054G12c C01475235   0.389   0.470   0.592 -0.1006  1.0194 -0.9509
  4054G12c C00F75236   0.466   0.466   0.467  0.0451  0.5819 -0.7484
  4054G12c C00H75237   0.518   0.702   0.511 -2.0346 -0.6725 -0.3718
  4054G12c C00I75238   0.584   0.817   0.478  1.5855  0.5545  1.6265
  4054G12c C00J75239   0.586   0.926   0.573 -0.2964 -0.2437 -0.7195
  4054G12c C00Z75240   0.426   0.639   0.920 -0.8530  0.5375  1.0482
  4054G12c C00Y75241   0.408   0.619   1.061 -0.5841  0.1614  0.5790
  4054G12c H00675242   0.349   0.546   1.115 -0.8046 -2.8605 -3.5588
  4054G12c C00X75243   0.510   0.656   1.149 -0.1376  0.6783  1.2631
  4054G12c O00375244   0.519   0.567   1.257 -0.5982 -0.8999 -0.8793
  4054G12c C01B75245   0.646   0.573   1.328  0.6273 -0.4154  0.2531
  4054G12c H00975246   0.738   0.576   1.269 -0.4892  0.0648 -1.5124
  4054G12c H00875247   0.664   0.674   1.366 -2.8534  1.4050 -2.6019
  4054G12c H00775248   0.663   0.511   1.416 -5.0103  4.8091  5.5677
  4054G12c C00W75249   0.598   0.746   1.096  1.7733  0.2486  0.9369
  4054G12c O00475250   0.694   0.782   1.194 -0.4899  0.4799  0.5480
  4054G12c C01C75251   0.813   0.833   1.145 -0.5615 -0.2348  1.0086
  4054G12c H00A75252   0.901   0.785   1.186  0.6307  2.4655  1.7538
  4054G12c C00P75253   0.819   0.908   1.030  0.8448 -0.4589  0.8581
  4054G12c C00O75254   0.938   0.971   0.985  0.3324 -0.9961  1.2820
  4054G12c C01D75255   1.059   0.950   1.046 -1.0879  0.7215  1.0512
  4054G12c H00S75256   1.057   0.899   1.142 -1.9205 -2.3270 -0.5343
  4054G12c C01E75257   1.188   1.006   0.997 -0.8069  0.2950 -1.5556
  4054G12c O00875258   1.317   0.971   1.043 -0.9724 -0.8636  1.0299
  4054G12c C01V75259   1.330   0.954   1.185  0.0448 -0.5565 -1.2605
  4054G12c C01Z75260   1.291   1.054   1.298 -0.8728 -0.2978  0.5549
  4054G12c H00R75261   1.354   1.075   1.384 -3.3162  0.2923  2.2660
  4054G12c H00Q75262   1.293   1.150   1.247 -2.0832 -1.0879 -1.0189
  4054G12c O00975263   1.170   1.011   1.357 -0.8156 -0.9310  0.4271
  4054G12c H00P75264   1.119   0.982   1.283  2.1963 -3.3395 -0.8365
  4054G12c C01W75265   1.365   0.830   1.221 -0.7420 -0.6445 -0.1577
  4054G12c H00O75266   1.356   0.739   1.164  0.3479 -2.8165  3.0101
  4054G12c C01X75267   1.422   0.776   1.352 -0.3097 -0.8518 -2.1296
  4054G12c H00N75268   1.516   0.723   1.361 -3.1118 -5.6891  1.6685
  4054G12c H00M75269   1.402   0.828   1.446 -0.3685 -3.5307 -0.5995
  4054G12c C01Y75270   1.325   0.656   1.392  1.8298  0.1807 -0.7443
  4054G12c C02D75271   1.336   0.515   1.355 -1.7517  0.1714  1.2341
  4054G12c H01975272   1.433   0.477   1.327 -2.5461  0.0350 -1.5504
  4054G12c C02C75273   1.228   0.426   1.376 -1.6336 -0.3434 -0.8257
  4054G12c H01A75274   1.235   0.331   1.324  3.8538 -1.5550  1.8333
  4054G12c C02B75275   1.120   0.482   1.437  0.0167 -1.3376 -1.5137
  4054G12c O00E75276   1.023   0.400   1.501  1.0232 -0.5499 -1.3551
  4054G12c H01B75277   0.961   0.385   1.432 -0.8933 -2.3331  0.6442
  4054G12c C02F75278   1.103   0.615   1.500  1.0074 -0.8502  1.4215
  4054G12c O00F75279   1.004   0.622   1.591  0.7279 -0.3389  0.2552
  4054G12c C02G75280   1.014   0.752   1.674 -0.3089 -0.3214  0.7630
  4054G12c H01775281   1.036   0.849   1.629 -5.8525  0.9873  0.4859
  4054G12c H01675282   1.096   0.712   1.733  0.1124  1.2445  1.2743
  4054G12c H01575283   0.928   0.788   1.730 -2.7748 -3.8003 -0.6298
  4054G12c C02E75284   1.204   0.698   1.463 -0.2424  1.2923  0.0851
  4054G12c H01875285   1.206   0.800   1.498 -3.0722  1.1948  0.6252
  4054G12c C01F75286   1.185   1.099   0.895 -1.2883 -0.7143  0.6879
  4054G12c C01G75287   1.314   1.140   0.844 -0.3864 -0.7494  0.4184
  4054G12c H00L75288   1.412   1.127   0.887 -0.4390 -3.8615 -0.2583
  4054G12c C01H75289   1.295   1.174   0.703  2.1228  0.4165 -0.2386
  4054G12c H00B75290   1.379   1.174   0.635  5.0769 -4.3686  3.1744
  4054G12c C01I75291   1.168   1.210   0.653 -0.4631 -0.4498  1.7499
  4054G12c C01U75292   1.063   1.154   0.851 -1.1033 -0.2219 -0.1098
  4054G12c C00S75293   0.566   0.882   0.713  0.2185 -1.3539 -0.2917
  4054G12c C00K75294   0.700   0.999   0.586 -0.3148  0.2567 -1.0015
  4054G12c C00N75295   0.945   1.064   0.873 -2.0229 -0.2595 -0.2942
  4054G12c C00075296   1.060   1.227   0.739  0.1892 -0.0231  1.6530
  4054G12c C01J75297   1.111   1.170   0.524 -0.2816  0.0741  2.3934
  4054G12c C01K75298   1.180   1.172   0.395 -0.4993 -0.3281 -0.4657
  4054G12c C01P75299   1.293   1.221   0.335 -1.4828 -0.2292 -0.0840
  4054G12c C01Q75300   1.383   1.310   0.390  1.1412  0.5467 -0.5131
  4054G12c H00G75301   1.488   1.286   0.390  0.3778 -3.1142  1.7539
  4054G12c C01R75302   1.345   1.434   0.447 -1.7020  0.5380  0.9031
  4054G12c H00F75303   1.239   1.447   0.435 -2.1243 -2.4883  0.9764
  4054G12c C01S75304   1.436   1.548   0.488  2.7964 -0.5911 -1.3253
  4054G12c H00E75305   1.511   1.492   0.544 -2.5696  0.4966  7.9508
  4054G12c H00D75306   1.375   1.623   0.537  2.6069  3.3330 -6.9790
  4054G12c O00575307   1.457   1.619   0.376 -0.7389  0.3860  0.5587
  4054G12c H00C75308   1.502   1.702   0.380 -2.7718  1.6716 -1.8137
  4054G12c C01O75309   1.347   1.192   0.220 -0.0490  1.4923 -0.5462
  4054G12c H00H75310   1.439   1.241   0.193 -0.6918  1.5850 -2.6403
  4054G12c C01N75311   1.283   1.096   0.133 -0.8634 -1.2384  1.5441
  4054G12c O00675312   1.370   1.059   0.032 -1.2000  0.6866 -0.3304
  4054G12c C01T75313   1.317   1.054  -0.101 -1.5334  1.4895 -1.0387
  4054G12c H00K75314   1.248   1.137  -0.121  0.5293  2.0327 -6.8313
  4054G12c H00J75315   1.375   1.050  -0.193 -1.2579 -1.1845 -0.7636
  4054G12c H00I75316   1.259   0.966  -0.074  2.2048 -0.2967  1.6488
  4054G12c C01M75317   1.170   1.032   0.181 -0.5214 -1.2833  0.2639
  4054G12c C02075318   0.770   1.004   0.466  0.0488 -2.1892  1.0542
  4054G12c C02175319   0.744   0.920   0.349 -0.0500  0.5260  0.9785
  4054G12c C01L75320   1.108   1.077   0.314  1.1723  0.4005 -0.3730
  4054G12c O00775321   1.113   0.944   0.096  0.2321  0.5144  1.7621
  4054G12c C02275322   0.843   0.851   0.294 -0.4350 -1.2127  0.5004
  4054G12c C02375323   0.652   0.817   0.353 -0.3226  0.0603 -1.1214
  4054G12c C00G75324   0.523   0.586   0.424  0.3525  0.3767  0.8743
  4054G12c C00E75325   0.454   0.359   0.374 -0.0156 -1.4795  0.0137
  4054G12c O00A75326   0.371   0.253   0.397 -0.3536 -0.4610 -1.3562
  4054G12c C02475327   0.451   0.148   0.418  0.1255 -1.4958 -0.0730
  4054G12c H00V75328   0.410   0.105   0.510 -0.7185  2.2759  1.4180
  4054G12c H00U75329   0.556   0.160   0.448 -0.0729  5.3766 -1.3308
  4054G12c H00T75330   0.433   0.066   0.349  2.9621 -0.9343 -1.5842
  4064G12c C00D75331   5.608   8.327  12.610  1.8504 -0.6572  0.6328
  4064G12c O00B75332   5.512   8.238  12.577 -0.1005 -1.4536  0.1510
  4064G12c C02575333   5.474   8.144  12.663 -1.0187 -0.2805  0.4144
  4064G12c C02675334   5.471   8.019  12.592 -2.1592  0.9545 -1.6087
  4064G12c H00Y75335   5.462   7.934  12.659 -1.2569 -0.5872 -3.3803
  4064G12c H00X75336   5.573   7.996  12.560 -1.4411  3.9430 -1.6167
  4064G12c O00C75337   5.359   7.994  12.499 -0.9209  0.8325  0.9157
  4064G12c H00W75338   5.277   7.976  12.542 -2.3717 -5.2593 -3.6705
  4064G12c C02775339   5.440   8.154  12.789  0.6102 -1.0725  0.4067
  4064G12c O00D75340   5.442   8.276  12.839  1.1938  0.0750  0.1035
  4064G12c H00Z75341   5.512   8.324  12.797  0.6105  1.0210  0.1878
  4064G12c C02875342   5.398   8.060  12.899 -0.6393 -3.4865 -0.1702
  4064G12c C02975343   5.452   7.924  12.927  1.1028 -1.2086 -1.4412
  4064G12c H01075344   5.514   7.892  12.845  1.1530  0.9210 -2.2423
  4064G12c C02T75345   5.410   7.844  13.039 -0.0709  2.5304  0.0046
  4064G12c H01O75346   5.430   7.740  13.061 -3.1551  2.1152  1.1876
  4064G12c C02S75347   5.308   7.898  13.107 -0.1141  0.9296 -2.5292
  4064G12c O00J75348   5.244   7.810  13.193 -0.3000 -0.3154 -1.5403
  4064G12c H01P75349   5.165   7.827  13.143  3.4963 -4.0860 -9.8074
  4064G12c C02R75350   5.251   8.027  13.095  0.8407  1.2240 -0.6831
  4064G12c O00I75351   5.143   8.050  13.168  0.4473  0.0567  1.7793
  4064G12c C02Q75352   5.162   8.122  13.287 -0.1766 -1.0951 -1.4990
  4064G12c H01N75353   5.262   8.107  13.328 -0.4509  6.0813  2.6481
  4064G12c H01R75354   5.094   8.099  13.368 -1.8350 -1.8676 -3.0689
  4064G12c H01Q75355   5.153   8.230  13.280  1.4850 -0.1182  6.9766
  4064G12c C02A75356   5.295   8.099  12.985 -0.5365 -0.2728 -0.4619
  4064G12c H01175357   5.227   8.183  12.973 -3.1914 -1.7053  3.4481
  4064G12c C00C75358   5.607   8.460  12.546 -0.0246  2.4962  0.4833
  4064G12c H01275359   5.513   8.496  12.507 -2.2951  0.1031  3.5698
  4064G12c C00B75360   5.712   8.546  12.548 -1.3381  0.6314 -0.9274
  4064G12c C00A75361   5.698   8.677  12.504 -0.3225  0.6135  0.8909
  4064G12c C00975362   5.656   8.710  12.366 -0.4293  1.1573  0.2943
  4064G12c C00875363   5.605   8.651  12.251 -0.5311  0.0543  2.1796
  4064G12c H01375364   5.562   8.552  12.253 -1.3028  0.2338 -2.0746
  4064G12c C00775365   5.606   8.706  12.124 -1.6194 -0.0800  2.9024
  4064G12c H01475366   5.561   8.668  12.034  1.3614  0.9718  0.9050
  4064G12c C00675367   5.673   8.825  12.093  1.8069  0.1480  0.8793
  4064G12c C00575368   5.731   8.885  12.201  0.4264  0.4363 -0.5037
  4064G12c C00475369   5.829   8.989  12.185 -1.0574  0.1908 -0.9959
  4064G12c C00375370   5.920   9.015  12.294  0.2159 -0.6293  1.2202
  4064G12c C00275371   6.026   9.097  12.260 -0.4639 -0.9871  1.0438
  4064G12c C00175372   6.148   9.145  12.321 -2.2686 -1.9644  1.1548
  4064G12c C00M75373   6.227   9.043  12.390 -1.3977 -0.8691 -0.1639
  4064G12c C00L75374   6.180   8.954  12.489 -0.4896  0.0480  0.5614
  4064G12c C00R75375   6.245   8.846  12.549  0.8882  1.2367  0.6813
  4064G12c C00Q75376   6.381   8.794  12.523 -1.9487  0.7969 -0.1217
  4064G12c C00V75377   6.404   8.668  12.592 -1.3531  1.0045 -1.0341
  4064G12c C00U75378   6.296   8.586  12.637 -1.3886 -1.0183 -0.8280
  4064G12c C00T75379   6.174   8.640  12.653  0.5024 -0.8286  0.3903
  4064G12c C01675380   6.057   8.561  12.669  0.1750 -2.3338 -1.6617
  4064G12c C01575381   6.079   8.428  12.716  1.2857 -1.0569  2.9178
  4064G12c C01075382   6.215   8.382  12.723  0.6146 -0.0005 -0.4451
  4064G12c C01175383   6.235   8.240  12.756  1.2311  1.0943 -0.2786
  4064G12c H00575384   6.325   8.185  12.779  1.0407  0.4518 -1.0562
  4064G12c C01275385   6.114   8.157  12.752 -0.5497  0.0007 -1.0464
  4064G12c C01775386   6.145   8.019  12.737  0.2010  1.4249 -0.3326
  4064G12c O00275387   6.145   7.927  12.849  1.1320 -1.4449 -0.2776
  4064G12c H00475388   6.224   7.898  12.892  1.7655 -1.1304 -1.1876
  4064G12c C01875389   6.213   7.978  12.612 -0.0686 -0.2227 -1.1194
  4064G12c O00175390   6.180   8.058  12.493  0.5232  0.0311 -0.7054
  4064G12c H00375391   6.187   8.147  12.524  1.7789  0.2654 -1.6221
  4064G12c C01975392   6.288   7.837  12.584  1.6096 -0.2307 -0.5012
  4064G12c H00275393   6.213   7.758  12.583  2.2382 -1.0101  3.5502
  4064G12c H00175394   6.335   7.879  12.495  1.7424  2.2871  0.7256
  4064G12c O00075395   6.368   7.807  12.715 -0.2546  0.5615 -0.6380
  4064G12c C01A75396   6.505   7.797  12.710 -1.1803  2.7271 -1.1259
  4064G12c C02K75397   6.582   7.782  12.830  0.3967  0.5072 -0.5762
  4064G12c O00G75398   6.506   7.764  12.949 -0.6720 -0.9931 -0.1573
  4064G12c C02M75399   6.482   7.618  12.967  0.2953  0.1518  0.2466
  4064G12c H01G75400   6.549   7.551  13.022  2.4203  3.9897  2.4988
  4064G12c H01F75401   6.449   7.550  12.888  1.4034 -3.5042  2.7825
  4064G12c H01E75402   6.380   7.610  13.003 -2.3767 -1.7371 -6.8929
  4064G12c C02J75403   6.723   7.811  12.838 -0.5284 -1.4553  0.2010
  4064G12c H01H75404   6.754   7.846  12.936  3.3445  2.3688 -2.1918
  4064G12c C02I75405   6.802   7.809  12.720 -0.8079 -0.3687  3.0616
  4064G12c C02N75406   6.946   7.804  12.729 -0.3827  1.1597  0.8951
  4064G12c H01M75407   7.003   7.867  12.797  1.5502  3.0507 -2.3391
  4064G12c C02O75408   7.014   7.702  12.672  1.4866  0.8152  0.4066
  4064G12c H01L75409   6.956   7.652  12.596  0.0508  0.4595  1.7107
  4064G12c C02P75410   7.160   7.662  12.676 -1.3521 -1.2729  1.9605
  4064G12c H01K75411   7.172   7.554  12.678  0.8796 -1.0815  0.7232
  4064G12c H01J75412   7.181   7.684  12.571  5.0521 -6.8187  1.7975
  4064G12c O00H75413   7.254   7.712  12.780  0.8107  1.6813 -0.0405
  4064G12c H01I75414   7.334   7.750  12.747  0.1499  1.5886 -1.8217
  4064G12c C02H75415   6.725   7.786  12.606 -0.9782 -1.0686  0.9594
  4064G12c H01C75416   6.786   7.782  12.517  1.5659  1.2204  2.5099
  4064G12c C02L75417   6.588   7.775  12.592  2.0166  1.6319 -0.1231
  4064G12c H01D75418   6.552   7.771  12.490  3.3021  3.7687 -0.7120
  4064G12c C01375419   5.989   8.205  12.767  0.9484  0.4024 -1.0458
  4064G12c H00075420   5.903   8.142  12.783 -0.0197  2.2722  1.5237
  4064G12c C01475421   5.970   8.343  12.722 -0.7099  1.0525  0.6177
  4064G12c C00F75422   5.849   8.375  12.644  0.1601  0.7083  1.3779
  4064G12c C00H75423   5.927   8.606  12.625  0.6684  0.4385 -0.4738
  4064G12c C00I75424   5.914   8.739  12.580 -0.8595 -2.2789 -0.7942
  4064G12c C00J75425   6.036   8.811  12.582  0.9130 -0.7140  0.7864
  4064G12c C00Z75426   6.323   8.470  12.700 -0.2259  0.6146  0.3741
  4064G12c C00Y75427   6.455   8.439  12.738 -0.4288  0.0708  0.7851
  4064G12c H00675428   6.450   8.355  12.806  6.2407 -3.4606 -2.6365
  4064G12c C00X75429   6.567   8.523  12.689 -0.3234 -0.0608 -0.0397
  4064G12c O00375430   6.710   8.503  12.703  1.3000 -0.6467  1.6461
  4064G12c C01B75431   6.743   8.368  12.669 -0.7117  0.8570 -0.9035
  4064G12c H00975432   6.842   8.389  12.708 -1.9401  3.1966  1.1368
  4064G12c H00875433   6.667   8.291  12.685 -3.8649  4.9320  6.0286
  4064G12c H00775434   6.757   8.354  12.562 -3.8981 -1.4638 -1.0791
  4064G12c C00W75435   6.539   8.637  12.612 -0.5732  1.2336  0.6834
  4064G12c O00475436   6.651   8.688  12.538 -0.0956 -0.7402 -0.4432
  4064G12c C01C75437   6.608   8.776  12.434  0.3483  0.0159  1.9718
  4064G12c H00A75438   6.598   8.705  12.353  5.1219 -0.3919  1.6315
  4064G12c C00P75439   6.486   8.846  12.435 -1.4420  0.5119  1.6361
  4064G12c C00O75440   6.478   8.963  12.350  1.0815 -0.2143  0.3691
  4064G12c C01D75441   6.581   8.975  12.247  1.2517 -1.0691  1.4582
  4064G12c H00S75442   6.669   8.912  12.250 -2.5357 -6.9126 -1.5600
  4064G12c C01E75443   6.570   9.061  12.131  1.3757  1.2907  0.0610
  4064G12c O00875444   6.670   9.054  12.035  0.4235 -0.1104 -1.0791
  4064G12c C01V75445   6.811   9.049  12.065 -0.7766  0.1352  0.0357
  4064G12c C01Z75446   6.877   8.934  12.002 -0.0570  1.4317  0.3342
  4064G12c H00R75447   6.881   8.854  12.076  2.9364 -1.3027 -2.5838
  4064G12c H00Q75448   6.816   8.868  11.941 -3.5364 -0.8740  5.8505
  4064G12c O00975449   6.997   8.971  11.941 -0.1458  0.1504 -0.0358
  4064G12c H00P75450   6.979   9.037  11.876  2.2564 -3.0827 -4.3170
  4064G12c C01W75451   6.872   9.129  12.158 -0.2727 -1.1182  1.2016
  4064G12c H00O75452   6.798   9.188  12.210 -2.0079 -1.6530 -0.6131
  4064G12c C01X75453   7.020   9.157  12.212  1.0332 -0.0480  0.1896
  4064G12c H00N75454   7.079   9.070  12.183  1.4397  0.6273 -1.0332
  4064G12c H00M75455   7.014   9.258  12.172  5.0007  0.4726  0.6576
  4064G12c C01Y75456   6.997   9.128  12.369 -0.0041  0.4002 -1.1006
  4064G12c C02D75457   6.929   9.038  12.452 -1.2113 -1.2894  1.1507
  4064G12c H01975458   6.884   8.955  12.400  0.7076 -3.0103  2.1626
  4064G12c C02C75459   6.909   9.094  12.574  0.0570  0.5604  1.0037
  4064G12c H01A75460   6.850   9.023  12.631 -0.2644 -3.4662 -3.9891
  4064G12c C02B75461   6.989   9.190  12.639 -0.9491 -0.8438 -2.0294
  4064G12c O00E75462   6.936   9.241  12.744 -0.3311 -0.7660  1.1791
  4064G12c H01B75463   7.000   9.284  12.799  0.2974 -1.3456  0.9039
  4064G12c C02F75464   7.082   9.270  12.555 -0.0488  0.0347  0.2608
  4064G12c O00F75465   7.180   9.338  12.599 -1.5810  0.5123  0.7552
  4064G12c C02G75466   7.250   9.251  12.690 -0.2393  0.6486 -0.0880
  4064G12c H01775467   7.287   9.156  12.652  4.5691 -0.8517  7.2803
  4064G12c H01675468   7.226   9.283  12.792  3.7918  1.2821  0.7361
  4064G12c H01575469   7.341   9.296  12.651 -1.6426  0.5659 -3.5840
  4064G12c C02E75470   7.086   9.214  12.429 -0.6158 -0.0221  0.7578
  4064G12c H01875471   7.169   9.253  12.371  2.1934 -4.2361  1.7110
  4064G12c C01F75472   6.441   9.121  12.119  0.6689  0.7470  0.1460
  4064G12c C01G75473   6.389   9.174  11.995  0.1995  1.2424  0.0747
  4064G12c H00L75474   6.455   9.170  11.909  2.7311 -2.0521  2.0624
  4064G12c C01H75475   6.249   9.221  11.986 -1.4289  0.1552 -0.2165
  4064G12c H00B75476   6.212   9.223  11.884  8.5019 -2.5873 -4.4752
  4064G12c C01I75477   6.165   9.193  12.096 -1.4482  1.1499 -0.4855
  4064G12c C01U75478   6.363   9.148  12.241  1.9252 -0.0293 -0.3551
  4064G12c C00S75479   6.156   8.777  12.625 -0.3545  0.7772  2.1179
  4064G12c C00K75480   6.040   8.923  12.496 -0.3073 -1.8574 -0.3167
  4064G12c C00N75481   6.373   9.048  12.345  0.1843 -0.8986  0.8270
  4064G12c C00075482   6.229   9.203  12.224  1.0035 -2.0995  0.5019
  4064G12c C01J75483   6.034   9.154  12.129  0.8787  1.3615  0.0334
  4064G12c C01K75484   5.944   9.134  12.023 -1.6826 -0.3038 -1.1366
  4064G12c C01P75485   5.916   9.217  11.917  0.7652 -2.1202 -0.2552
  4064G12c C01Q75486   5.973   9.357  11.906  1.0129 -0.5863  0.5084
  4064G12c H00G75487   6.028   9.392  11.820 -0.1952  1.9035  0.7025
  4064G12c C01R75488   5.947   9.458  11.983  1.0162 -1.0834  0.5578
  4064G12c H00F75489   5.880   9.460  12.068  0.0062 -2.8187 -0.1669
  4064G12c C01S75490   5.973   9.608  11.956  0.8852 -0.5456 -1.2181
  4064G12c H00E75491   5.964   9.660  12.051  4.6813 -1.3224 -0.3730
  4064G12c H00D75492   6.079   9.632  11.948  1.4347 -1.7975  1.9543
  4064G12c O00575493   5.912   9.650  11.836 -0.5239  0.3483  0.0182
  4064G12c H00C75494   5.843   9.712  11.854  0.9457  2.1588 -0.3070
  4064G12c C01O75495   5.841   9.163  11.809 -0.5610 -0.4597 -0.1149
  4064G12c H00H75496   5.811   9.237  11.736 10.4000  6.6042  1.3550
  4064G12c C01N75497   5.780   9.046  11.835  0.0137 -0.9081 -2.3855
  4064G12c O00675498   5.711   8.996  11.736 -1.2434 -0.7700  1.2277
  4064G12c C01T75499   5.570   9.007  11.752  0.8563 -0.6872  0.4836
  4064G12c H00K75500   5.511   9.098  11.743  0.8521 -0.3140  3.5578
  4064G12c H00J75501   5.481   8.969  11.701 -3.7651  3.4952  4.7953
  4064G12c H00I75502   5.533   8.974  11.850  0.4754  2.1681  1.3365
  4064G12c C01M75503   5.769   8.979  11.958  1.1620  1.0952  0.0998
  4064G12c C02075504   5.916   8.949  12.416 -0.6780 -1.4889  1.0129
  4064G12c C02175505   5.790   8.892  12.439 -0.2168 -0.2145  0.2816
  4064G12c C01L75506   5.851   9.034  12.057  0.7687  0.5192  1.6320
  4064G12c O00775507   5.710   8.859  11.969  0.5107  0.3465 -0.1638
  4064G12c C02275508   5.706   8.840  12.333  0.5493  0.4299 -1.5045
  4064G12c C02375509   5.780   8.790  12.536 -0.2898  0.7371 -2.0215
  4064G12c C00G75510   5.826   8.509  12.605  0.4184  1.2138 -0.3385
  4064G12c C00E75511   5.738   8.281  12.622 -1.7182  0.1287 -0.1063
  4064G12c O00A75512   5.771   8.144  12.607  0.4040 -1.5745 -0.7773
  4064G12c C02475513   5.829   8.098  12.494 -0.5741 -0.6051 -0.7546
  4064G12c H00V75514   5.778   8.142  12.408  1.4261  1.4234 -0.9570
  4064G12c H00U75515   5.847   7.991  12.487  3.8695 -0.1654  2.1599
  4064G12c H00T75516   5.915   8.163  12.506 -1.0938 -0.7892  5.5985
  4074G12c C00D75517   7.109   3.006  13.580 -1.5359  0.7253 -0.1364
  4074G12c O00B75518   7.185   2.937  13.473 -0.5453  0.1789  0.5526
  4074G12c C02575519   7.313   2.930  13.444 -0.8713 -0.4858  0.1368
  4074G12c C02675520   7.331   3.022  13.317 -0.1225  0.0129 -1.5071
  4074G12c H00Y75521   7.422   2.993  13.263 -2.0260  2.0705 -6.1092
  4074G12c H00X75522   7.339   3.125  13.352 -2.5918 -0.2865  0.0631
  4074G12c O00C75523   7.249   2.996  13.211 -0.3472  0.9598 -0.6001
  4074G12c H00W75524   7.180   3.021  13.272 -0.8328  2.2107 -1.6211
  4074G12c C02775525   7.407   2.868  13.518  0.3188 -0.6757 -0.3276
  4074G12c O00D75526   7.356   2.839  13.650 -0.7501  1.5490  1.1592
  4074G12c H00Z75527   7.281   2.897  13.657 -1.6577  0.6223 -0.4711
  4074G12c C02875528   7.552   2.857  13.510  0.8822 -0.4367  0.0723
  4074G12c C02975529   7.633   2.872  13.617  0.6041  1.5647 -0.0374
  4074G12c H01075530   7.604   2.875  13.721 -6.7087  0.2465 -1.7714
  4074G12c C02T75531   7.770   2.831  13.600 -1.2734 -0.7805  0.5121
  4074G12c H01O75532   7.828   2.810  13.689  3.5111  3.8272 -1.2912
  4074G12c C02S75533   7.843   2.844  13.481  0.4884  0.2251 -1.8286
  4074G12c O00J75534   7.979   2.857  13.480  0.9406 -0.5199 -0.0196
  4074G12c H01P75535   7.995   2.887  13.392 -6.2450 -2.9606 -2.4467
  4074G12c C02R75536   7.759   2.872  13.368 -0.3302  1.1185  0.8245
  4074G12c O00I75537   7.825   2.926  13.252  0.0614 -0.5023 -0.6007
  4074G12c C02Q75538   7.788   3.040  13.188  1.5868 -1.5971  2.3051
  4074G12c H01N75539   7.690   3.028  13.141  1.5088 -0.2926  2.1000
  4074G12c H01R75540   7.855   3.058  13.105 -5.8556 -0.2436 -4.0318
  4074G12c H01Q75541   7.771   3.141  13.228 -3.3218  0.1559 -3.4779
  4074G12c C02A75542   7.613   2.871  13.385  1.3761  0.8006 -0.9310
  4074G12c H01175543   7.554   2.827  13.306  4.3935 -3.3267 -1.0548
  4074G12c C00C75544   7.189   3.104  13.638  0.0816 -0.9766 -1.3872
  4074G12c H01275545   7.285   3.147  13.612 -1.6330  2.6959 -1.9447
  4074G12c C00B75546   7.115   3.204  13.727  0.2811  0.1840  0.9333
  4074G12c C00A75547   7.169   3.330  13.796  0.4080 -0.8867  1.5860
  4074G12c C00975548   7.299   3.364  13.862  0.4512 -0.0781 -0.5467
  4074G12c C00875549   7.406   3.268  13.886 -1.3825 -0.9475  0.3481
  4074G12c H01375550   7.425   3.170  13.846  1.5772 -0.6113  0.8715
  4074G12c C00775551   7.501   3.312  13.994  0.5129 -0.2707 -0.8965
  4074G12c H01475552   7.588   3.257  14.026  0.5457 -0.2764 -0.9938
  4074G12c C00675553   7.475   3.429  14.068  0.7430 -0.5715 -0.8711
  4074G12c C00575554   7.365   3.497  14.053  0.7139  1.5787  0.4728
  4074G12c C00475555   7.315   3.576  14.157 -1.1577  1.1878 -0.9490
  4074G12c C00375556   7.173   3.594  14.158 -0.4622 -0.5505  0.4607
  4074G12c C00275557   7.131   3.636  14.282  1.0834 -1.1781  0.1182
  4074G12c C00175558   6.999   3.663  14.341  0.0883  1.9749 -0.1293
  4074G12c C00M75559   6.890   3.578  14.337  0.1459  1.3259  0.0960
  4074G12c C00L75560   6.868   3.502  14.226 -0.3990  2.9356  0.2599
  4074G12c C00R75561   6.765   3.409  14.210  0.9058  0.0616  0.2583
  4074G12c C00Q75562   6.662   3.350  14.275  0.3696  0.0371  0.5149
  4074G12c C00V75563   6.587   3.247  14.210  0.9032 -1.1828 -0.9335
  4074G12c C00U75564   6.621   3.202  14.083  1.2600 -0.7602  0.7328
  4074G12c C00T75565   6.717   3.263  14.007  0.8845  0.4908 -1.1822
  4074G12c C01675566   6.789   3.199  13.917 -0.8612  1.3544 -0.1065
  4074G12c C01575567   6.748   3.078  13.877  1.0753  0.5056  0.9079
  4074G12c C01075568   6.639   3.020  13.925 -0.4140 -0.3875 -1.1117
  4074G12c C01175569   6.580   2.908  13.861 -0.4888  0.7211 -1.5490
  4074G12c H00575570   6.482   2.865  13.871  0.2137 -0.1970  2.4645
  4074G12c C01275571   6.650   2.840  13.774  1.8806  0.0327 -0.0193
  4074G12c C01775572   6.585   2.716  13.731 -1.8126  0.1693  1.7692
  4074G12c O00275573   6.546   2.711  13.599 -1.3880  0.8193 -1.5540
  4074G12c H00475574   6.581   2.798  13.591  2.6735  0.1579  4.8190
  4074G12c C01875575   6.537   2.637  13.829  0.2531 -1.0576  0.6219
  4074G12c O00175576   6.433   2.543  13.776  0.2576  0.6837 -0.4968
  4074G12c H00375577   6.347   2.525  13.810  1.8370  3.5007  5.8324
  4074G12c C01975578   6.564   2.645  13.976  0.3014  2.3467  0.4025
  4074G12c H00275579   6.568   2.540  14.006  0.9513  1.6536 -1.9949
  4074G12c H00175580   6.667   2.675  13.991  0.4478  2.7450 -1.2345
  4074G12c O00075581   6.461   2.697  14.053 -0.2821 -0.9830  0.9617
  4074G12c C01A75582   6.475   2.654  14.195 -0.2316 -0.0419  0.2147
  4074G12c C02K75583   6.371   2.629  14.271 -1.2700  0.8590  0.7989
  4074G12c O00G75584   6.251   2.628  14.206 -0.1909 -0.0735  0.8026
  4074G12c C02M75585   6.150   2.662  14.292 -0.6586  0.5597 -0.9823
  4074G12c H01G75586   6.070   2.734  14.271 -1.9427  1.0731  4.7824
  4074G12c H01F75587   6.168   2.721  14.383  5.8488  1.5837 -2.6872
  4074G12c H01E75588   6.110   2.562  14.305  2.0005 -0.5634 -1.2776
  4074G12c C02J75589   6.393   2.620  14.410  1.8389 -1.2715  2.0883
  4074G12c H01H75590   6.295   2.583  14.436  0.6456 -2.1484 -3.1076
  4074G12c C02I75591   6.512   2.621  14.471  1.5484 -1.7313 -0.4085
  4074G12c C02N75592   6.518   2.595  14.617 -2.3933 -0.7794  0.2023
  4074G12c H01M75593   6.481   2.494  14.633 -2.0453 -2.0691 -5.9210
  4074G12c C02O75594   6.593   2.679  14.701 -0.4857  1.4207 -1.7871
  4074G12c H01L75595   6.630   2.774  14.664  2.7340  0.7784 -0.4068
  4074G12c C02P75596   6.625   2.640  14.841 -0.3755 -0.7859  0.5001
  4074G12c H01K75597   6.567   2.560  14.887 -4.2757  3.8280  4.2979
  4074G12c H01J75598   6.718   2.586  14.825 -2.0758 -3.9475  0.9538
  4074G12c O00H75599   6.665   2.746  14.933  1.0811 -0.3008  0.9444
  4074G12c H01I75600   6.757   2.761  14.917  1.2095 -1.2609  0.6936
  4074G12c C02H75601   6.624   2.669  14.407 -1.5713  1.5318  0.9091
  4074G12c H01C75602   6.721   2.676  14.455 -1.5244  1.2336  0.8622
  4074G12c C02L75603   6.604   2.692  14.264  0.1653 -1.4592 -1.3454
  4074G12c H01D75604   6.677   2.753  14.212 -4.8227  0.0924 -7.2050
  4074G12c C01375605   6.781   2.876  13.751 -0.4982 -1.4441 -0.9203
  4074G12c H00075606   6.853   2.811  13.704 -0.7444  1.0405 -5.0130
  4074G12c C01475607   6.822   3.018  13.786 -0.0307  0.9525  0.4568
  4074G12c C00F75608   6.934   3.060  13.727  0.3501  1.5323  1.3193
  4074G12c C00H75609   6.918   3.251  13.862  0.1373 -1.1166 -0.3224
  4074G12c C00I75610   6.967   3.378  13.918 -0.8670  0.1216  1.5626
  4074G12c C00J75611   6.881   3.445  14.008 -1.1841 -0.1356  1.5945
  4074G12c C00Z75612   6.562   3.096  14.026  1.3027 -1.0326  1.4380
  4074G12c C00Y75613   6.457   3.040  14.095 -1.1086 -1.8592 -0.2510
  4074G12c H00675614   6.396   2.953  14.072 -1.6314 -1.3890 -0.6610
  4074G12c C00X75615   6.444   3.064  14.222  1.2774 -0.4681 -0.8834
  4074G12c O00375616   6.331   2.997  14.280 -0.0340 -0.9101  0.2181
  4074G12c C01B75617   6.229   3.091  14.327 -0.6164 -0.4303 -0.6508
  4074G12c H00975618   6.195   3.156  14.246 -3.2203  1.0470  1.5508
  4074G12c H00875619   6.265   3.147  14.412 -0.4436 -1.8589  0.2341
  4074G12c H00775620   6.152   3.030  14.374 -0.4797 -1.5261 -1.8227
  4074G12c C00W75621   6.495   3.178  14.282  1.3955 -0.6490  1.3509
  4074G12c O00475622   6.475   3.221  14.407  0.6023  0.3913 -1.3845
  4074G12c C01C75623   6.555   3.301  14.485  0.4959 -1.1659  0.3676
  4074G12c H00A75624   6.516   3.301  14.586 -2.1898  2.5910 -0.5479
  4074G12c C00P75625   6.666   3.369  14.411 -0.2292  0.2016  0.3858
  4074G12c C00O75626   6.780   3.404  14.495 -0.3570 -1.8952 -0.0835
  4074G12c C01D75627   6.801   3.365  14.636  0.4336  0.4840 -0.0401
  4074G12c H00S75628   6.752   3.280  14.681  9.2054 -1.8804  6.3234
  4074G12c C01E75629   6.902   3.408  14.727 -1.0200 -1.3007  1.6921
  4074G12c O00875630   6.940   3.330  14.830  0.8768  0.0899  0.6208
  4074G12c C01V75631   6.938   3.196  14.825  0.4046 -0.1545 -0.9634
  4074G12c C01Z75632   6.951   3.137  14.969 -0.4990  0.9845 -1.6877
  4074G12c H00R75633   7.029   3.200  15.011  3.6229 -0.9151 -6.0775
  4074G12c H00Q75634   6.862   3.168  15.024  3.4298 -0.5534  6.1798
  4074G12c O00975635   6.989   3.008  14.981 -0.1589 -0.7582  0.4352
  4074G12c H00P75636   7.071   2.972  14.951 -1.1858 -2.8043 -0.0659
  4074G12c C01W75637   6.980   3.123  14.722  0.7001  0.0612  1.5034
  4074G12c H00O75638   7.030   3.169  14.638 -3.5193  1.9638 -0.0660
  4074G12c C01X75639   6.928   2.986  14.676  1.6967  0.5014 -0.1334
  4074G12c H00N75640   6.830   2.962  14.720  0.2418 -0.0273 -3.4905
  4074G12c H00M75641   6.910   3.023  14.575  1.5051  4.3578  1.2270
  4074G12c C01Y75642   7.033   2.865  14.719 -2.1649 -1.0392 -0.1386
  4074G12c C02D75643   6.992   2.729  14.715 -0.1082  0.2325  1.3218
  4074G12c H01975644   6.899   2.711  14.663  0.4067  2.3533 -0.4002
  4074G12c C02C75645   7.071   2.637  14.781  1.0014  0.6582 -1.3059
  4074G12c H01A75646   7.038   2.536  14.762 -1.8092  1.2836  0.0069
  4074G12c C02B75647   7.211   2.654  14.804 -0.4674 -0.1631 -0.5644
  4074G12c O00E75648   7.263   2.589  14.907 -0.3382 -0.8239 -0.2884
  4074G12c H01B75649   7.305   2.517  14.862  1.5592  0.7420 -1.1393
  4074G12c C02F75650   7.257   2.782  14.781  0.5052 -1.2111 -0.5031
  4074G12c O00F75651   7.379   2.818  14.801 -0.6011  0.7765 -0.5421
  4074G12c C02G75652   7.464   2.788  14.693  0.3771 -0.4649  0.2094
  4074G12c H01775653   7.425   2.816  14.595 -0.1646 -0.9332  0.2916
  4074G12c H01675654   7.561   2.836  14.706  4.9923 -8.2362 -2.0598
  4074G12c H01575655   7.479   2.680  14.696  1.1730 -0.6305 -4.9117
  4074G12c C02E75656   7.171   2.890  14.731  0.6933 -0.7367  0.6128
  4074G12c H01875657   7.227   2.979  14.705 -0.7914 -0.9492 -3.6978
  4074G12c C01F75658   6.974   3.513  14.677 -1.0578  2.3503  2.0345
  4074G12c C01G75659   7.121   3.523  14.704  0.1454  0.4770 -0.8456
  4074G12c H00L75660   7.161   3.447  14.770  0.0878  2.5364  1.6551
  4074G12c C01H75661   7.213   3.596  14.617  1.1227 -0.0903  0.2660
  4074G12c H00B75662   7.308   3.545  14.608  0.9646 -0.1683 -1.1442
  4074G12c C01I75663   7.159   3.677  14.512 -0.8798  1.4785 -0.9146
  4074G12c C01U75664   6.946   3.597  14.563  0.1902  1.1368 -0.6688
  4074G12c C00S75665   6.765   3.387  14.069 -0.7443  0.1549  0.9809
  4074G12c C00K75666   6.946   3.524  14.102 -0.5604 -0.1846  1.5068
  4074G12c C00N75667   6.877   3.522  14.471  2.6641  0.8868  0.0560
  4074G12c C00075668   7.024   3.692  14.498  0.9121  1.0610 -0.3602
  4074G12c C01J75669   7.217   3.671  14.384 -0.9182 -0.0435 -0.4653
  4074G12c C01K75670   7.366   3.692  14.365 -1.1963  1.6711 -0.1602
  4074G12c C01P75671   7.472   3.736  14.447 -1.5779  0.8188 -0.4930
  4074G12c C01Q75672   7.461   3.847  14.533  0.6791  0.2126 -0.3072
  4074G12c H00G75673   7.401   3.929  14.498  0.0877  0.8540  2.0964
  4074G12c C01R75674   7.507   3.829  14.660  0.6478 -1.7762  0.9746
  4074G12c H00F75675   7.566   3.738  14.662  4.8363 -0.1190 -9.9999
  4074G12c C01S75676   7.490   3.929  14.783 -0.1120 -0.2704  0.7762
  4074G12c H00E75677   7.463   4.028  14.748  1.7199  0.9637  2.7784
  4074G12c H00D75678   7.412   3.862  14.821  3.4161 -4.5783  0.8823
  4074G12c O00575679   7.601   3.928  14.863  0.1381  0.2884  1.5161
  4074G12c H00C75680   7.582   3.991  14.930 -6.6363 -2.0817  2.2151
  4074G12c C01O75681   7.604   3.693  14.435  1.4841 -0.0267 -0.2033
  4074G12c H00H75682   7.691   3.738  14.481 -2.0167  3.2675  3.6348
  4074G12c C01N75683   7.634   3.595  14.332  1.1443 -0.9522 -0.4806
  4074G12c O00675684   7.756   3.543  14.333  0.8974 -0.0258 -0.0906
  4074G12c C01T75685   7.826   3.588  14.213  0.4400  0.2394  1.0881
  4074G12c H00K75686   7.904   3.663  14.214 -2.2180  3.1042  2.7867
  4074G12c H00J75687   7.762   3.625  14.133  0.7897  0.0966  0.7410
  4074G12c H00I75688   7.865   3.491  14.183  2.5847  0.9588  1.5013
  4074G12c C01M75689   7.521   3.541  14.258  1.2857  0.2360 -0.2568
  4074G12c C02075690   7.078   3.580  14.051 -0.0987  2.1160  0.0337
  4074G12c C02175691   7.147   3.518  13.943  0.1110  0.4120 -0.9812
  4074G12c C01L75692   7.400   3.600  14.267 -0.0499 -0.2310  0.2544
  4074G12c O00775693   7.531   3.428  14.179 -0.2870 -0.2430 -0.0152
  4074G12c C02275694   7.274   3.469  13.948  0.6947 -1.1682 -0.0969
  4074G12c C02375695   7.089   3.415  13.867 -0.2582  0.8119 -0.2056
  4074G12c C00G75696   6.978   3.187  13.763 -0.9385  0.4155  0.4456
  4074G12c C00E75697   6.972   2.997  13.605  1.3253  0.0608  0.7024
  4074G12c O00A75698   6.905   2.905  13.525  0.9403 -0.3040 -0.2614
  4074G12c C02475699   6.829   2.961  13.424 -1.8929  0.1222  0.1951
  4074G12c H00V75700   6.895   2.964  13.337  2.4557 -3.0360  3.1350
  4074G12c H00U75701   6.790   3.062  13.427  0.3322  1.3464 -5.1633
  4074G12c H00T75702   6.743   2.894  13.412  0.9115 -3.2205 -2.6141
  4084G12c C00D75703   1.477   5.806   0.746  0.7596  0.3065 -0.0604
  4084G12c O00B75704   1.394   5.819   0.629  0.4139  0.6515 -0.7743
  4084G12c C02575705   1.443   5.899   0.532 -0.1070  0.8583 -0.2792
  4084G12c C02675706   1.528   5.793   0.436  0.5197 -1.7863 -0.8092
  4084G12c H00Y75707   1.522   5.826   0.332  1.4402  6.5301  1.3782
  4084G12c H00X75708   1.504   5.688   0.452  4.8253 -1.9355  6.8056
  4084G12c O00C75709   1.658   5.794   0.485  0.6422  0.7315  1.4197
  4084G12c H00W75710   1.694   5.731   0.425  4.3297 -0.7527  4.9744
  4084G12c C02775711   1.427   6.033   0.542 -2.1590  0.9497  0.0895
  4084G12c O00D75712   1.355   6.082   0.643 -0.0224  0.0745 -0.4162
  4084G12c H00Z75713   1.311   6.016   0.694 -5.0170  3.1221 -0.4962
  4084G12c C02875714   1.505   6.110   0.454  0.3613  0.5368  1.6738
  4084G12c C02975715   1.558   6.217   0.511 -1.0219  0.0223 -0.4709
  4084G12c H01075716   1.558   6.211   0.619 -1.5116  0.3339 -0.4515
  4084G12c C02T75717   1.622   6.293   0.415 -0.4841 -0.4775  1.1499
  4084G12c H01O75718   1.683   6.369   0.461 -1.6138  4.3045 -4.7103
  4084G12c C02S75719   1.667   6.259   0.278  0.7001  0.0830 -1.5919
  4084G12c O00J75720   1.755   6.331   0.195 -1.6036 -0.6055 -0.4758
  4084G12c H01P75721   1.721   6.347   0.108  1.5622 -1.9125 -2.0081
  4084G12c C02R75722   1.604   6.139   0.227  0.7315 -0.2001  1.4503
  4084G12c O00I75723   1.627   6.094   0.101  0.3270 -0.0646  0.5909
  4084G12c C02Q75724   1.729   6.001   0.099 -1.0383  0.6677 -0.5158
  4084G12c H01N75725   1.692   5.902   0.125 -3.4727  0.8271 -3.1626
  4084G12c H01R75726   1.752   6.000  -0.007 -2.5068 -4.1186 -0.8701
  4084G12c H01Q75727   1.819   6.054   0.132  2.1441 -2.5380 -3.5345
  4084G12c C02A75728   1.509   6.085   0.311  0.5301  1.0895 -1.1093
  4084G12c H01175729   1.428   6.016   0.289 -1.9884  1.2354  6.2737
  4084G12c C00C75730   1.578   5.884   0.782  2.6868  0.2048 -0.5288
  4084G12c H01275731   1.573   5.960   0.706 -1.4022 -0.2880 -0.8348
  4084G12c C00B75732   1.654   5.881   0.902  0.9178 -0.5408  0.1748
  4084G12c C00A75733   1.755   5.967   0.960  1.7172 -1.2769  0.7163
  4084G12c C00975734   1.865   6.030   0.881  0.9597  2.1769  0.7235
  4084G12c C00875735   1.875   6.069   0.741 -0.0038  0.8336 -2.3641
  4084G12c H01375736   1.793   6.061   0.670  0.5691 -1.8650 -2.8057
  4084G12c C00775737   2.011   6.113   0.716  0.6057  1.8122 -0.4684
  4084G12c H01475738   2.033   6.121   0.611  3.1888  9.5201  0.3271
  4084G12c C00675739   2.116   6.120   0.807 -0.0845  1.0512  1.1237
  4084G12c C00575740   2.092   6.063   0.937 -1.1825 -0.0797  0.3585
  4084G12c C00475741   2.195   6.050   1.033  0.3266  1.0780  1.2034
  4084G12c C00375742   2.169   5.977   1.148 -0.1564 -0.5762  1.7228
  4084G12c C00275743   2.283   5.965   1.239  0.3094  0.9745  1.8116
  4084G12c C00175744   2.290   5.872   1.358 -1.9269  1.0983  0.0487
  4084G12c C00M75745   2.220   5.744   1.375  0.4981  1.7415 -2.2414
  4084G12c C00L75746   2.096   5.722   1.323 -0.3502  0.5303 -0.9823
  4084G12c C00R75747   2.018   5.603   1.326 -1.7162 -1.3223  0.6209
  4084G12c C00Q75748   2.053   5.466   1.352 -0.3516 -0.3543  1.0636
  4084G12c C00V75749   1.938   5.390   1.357 -0.6240  1.2252  1.2692
  4084G12c C00U75750   1.816   5.435   1.281 -1.3840  0.8595 -0.1879
  4084G12c C00T75751   1.805   5.557   1.226 -0.6188 -0.8272  0.6687
  4084G12c C01675752   1.711   5.607   1.142  0.6986  0.6578  0.4389
  4084G12c C01575753   1.600   5.518   1.130  0.4111  0.7031 -2.4640
  4084G12c C01075754   1.608   5.383   1.180 -0.8300  1.7362 -0.3862
  4084G12c C01175755   1.503   5.296   1.145  0.4543  0.3413 -1.4564
  4084G12c H00575756   1.504   5.189   1.157 -2.8251  0.4032  0.1075
  4084G12c C01275757   1.391   5.340   1.055 -0.5631 -0.6686  0.3469
  4084G12c C01775758   1.271   5.259   1.039  1.1957 -0.2881  2.0239
  4084G12c O00275759   1.222   5.208   1.154 -0.7614 -0.9321 -0.1418
  4084G12c H00475760   1.140   5.165   1.139 -0.9362 -0.3371 -0.8757
  4084G12c C01875761   1.186   5.257   0.919  0.3477 -0.3580  0.6189
  4084G12c O00175762   1.223   5.339   0.812  1.5398 -0.4648  1.0928
  4084G12c H00375763   1.172   5.357   0.734 -2.0317  4.0193  4.1577
  4084G12c C01975764   1.049   5.180   0.877  1.1841  1.4575  0.3778
  4084G12c H00275765   1.059   5.079   0.838 -0.1032  0.4091  2.6660
  4084G12c H00175766   1.038   5.145   0.979  6.2435  1.6436  1.0902
  4084G12c O00075767   0.919   5.252   0.875 -1.2524 -0.6100 -0.0819
  4084G12c C01A75768   0.788   5.230   0.911 -0.4731  1.2960  1.7655
  4084G12c C02K75769   0.741   5.109   0.974  2.9826 -0.7363  0.8219
  4084G12c O00G75770   0.832   4.997   1.000  1.1552 -0.1719 -0.7889
  4084G12c C02M75771   0.770   4.886   1.090  0.3277  0.7276 -0.0559
  4084G12c H01G75772   0.689   4.832   1.042 -1.4690  2.8919  0.4384
  4084G12c H01F75773   0.852   4.819   1.118  3.3826  3.0253 -3.0074
  4084G12c H01E75774   0.722   4.923   1.181  3.0683  2.1160  0.8874
  4084G12c C02J75775   0.597   5.100   1.006  0.4626 -1.0174 -1.7089
  4084G12c H01H75776   0.556   5.053   1.094  3.5873  1.4005  1.1661
  4084G12c C02I75777   0.505   5.205   0.971 -0.6862  0.2056  1.0991
  4084G12c C02N75778   0.367   5.190   0.999  0.4608  0.2481  1.4852
  4084G12c H01M75779   0.338   5.213   1.100 -2.1133  7.4145 -0.5982
  4084G12c C02O75780   0.269   5.171   0.905 -0.1573  0.6252  1.2434
  4084G12c H01L75781   0.280   5.157   0.798  2.9040 -0.4288  1.6457
  4084G12c C02P75782   0.130   5.160   0.945 -0.6274 -0.1843 -0.4483
  4084G12c H01K75783   0.082   5.216   1.027 -3.4883 -0.7909 -1.6324
  4084G12c H01J75784   0.059   5.160   0.862  2.2674 -6.6717 -3.2274
  4084G12c O00H75785   0.131   5.028   0.997 -1.6004  0.8176  0.9468
  4084G12c H01I75786   0.195   4.971   0.956 -1.2135  1.4647  0.6532
  4084G12c C02H75787   0.554   5.336   0.934  0.2010 -0.3408 -0.5123
  4084G12c H01C75788   0.495   5.426   0.927  3.1797  1.6871 -0.7018
  4084G12c C02L75789   0.692   5.339   0.907  1.1163 -0.4943 -1.6953
  4084G12c H01D75790   0.708   5.437   0.865  1.6881 -1.6810 -4.3586
  4084G12c C01375791   1.393   5.466   1.008  0.3697 -0.5259  1.2256
  4084G12c H00075792   1.304   5.491   0.952  0.1383  3.1075  3.1092
  4084G12c C01475793   1.509   5.549   1.032 -1.5152  0.8566 -0.1913
  4084G12c C00F75794   1.524   5.671   0.957 -0.7265  0.5756  0.1879
  4084G12c C00H75795   1.714   5.738   1.086 -0.2789  0.0401  0.1605
  4084G12c C00I75796   1.815   5.819   1.136  0.3770 -1.2863  0.7805
  4084G12c C00J75797   1.904   5.767   1.221  0.2397 -0.0452 -0.4349
  4084G12c C00Z75798   1.723   5.344   1.244 -0.1838 -0.5296  0.7683
  4084G12c C00Y75799   1.728   5.214   1.303  0.2775 -1.4756 -1.3404
  4084G12c H00675800   1.655   5.138   1.283  0.3953 -1.3024 -2.4355
  4084G12c C00X75801   1.839   5.167   1.385  0.1990  0.1660 -0.6076
  4084G12c O00375802   1.834   5.044   1.449  1.0096  0.6843 -0.3144
  4084G12c C01B75803   1.814   5.055   1.590  1.4693  0.0483  2.3258
  4084G12c H00975804   1.803   5.157   1.625 -0.2572 -0.6835  3.9716
  4084G12c H00875805   1.906   5.037   1.646 -0.2718  0.6972  5.4803
  4084G12c H00775806   1.739   4.982   1.622  0.6703  2.0141  5.1000
  4084G12c C00W75807   1.956   5.254   1.411  1.4613 -0.2240 -0.9068
  4084G12c O00475808   2.061   5.226   1.496 -1.3262  0.5042 -0.4673
  4084G12c C01C75809   2.179   5.294   1.466 -1.6424 -0.9299 -1.4928
  4084G12c H00A75810   2.274   5.247   1.489 -2.1063 -1.0055  0.3958
  4084G12c C00P75811   2.183   5.415   1.396 -0.4093 -1.2273 -2.5526
  4084G12c C00O75812   2.305   5.489   1.368  0.1056  0.1623  1.4482
  4084G12c C01D75813   2.422   5.416   1.333  2.0385 -1.9852  1.0654
  4084G12c H00S75814   2.410   5.311   1.353  3.7284 -3.2318 -3.6602
  4084G12c C01E75815   2.550   5.475   1.304 -0.6128  1.8784 -0.6859
  4084G12c O00875816   2.649   5.405   1.243  0.9718 -0.1166  1.0130
  4084G12c C01V75817   2.649   5.258   1.267 -1.6055 -1.4115  0.4782
  4084G12c C01Z75818   2.716   5.204   1.395 -0.7074 -0.3098 -2.2000
  4084G12c H00R75819   2.647   5.176   1.475  2.5291  7.5106  4.0126
  4084G12c H00Q75820   2.783   5.118   1.387 -2.2437 -1.8171  0.4556
  4084G12c O00975821   2.758   5.329   1.459 -0.2764  1.5168  2.2117
  4084G12c H00P75822   2.708   5.401   1.424 -0.3223  4.1030  7.1602
  4084G12c C01W75823   2.600   5.165   1.192 -0.4182  0.2749  1.2814
  4084G12c H00O75824   2.582   5.178   1.086  1.2584  1.8107  1.1616
  4084G12c C01X75825   2.542   5.039   1.233  1.2852  0.2138 -0.4888
  4084G12c H00N75826   2.543   5.053   1.341  1.3597 -4.0802  0.1495
  4084G12c H00M75827   2.452   4.993   1.192  2.0915 -2.0860  0.2608
  4084G12c C01Y75828   2.650   4.948   1.187  0.9219  1.7793 -1.5346
  4084G12c C02D75829   2.712   4.873   1.279 -0.2024  0.5457 -1.1121
  4084G12c H01975830   2.693   4.869   1.386  9.4692  0.0111  1.0856
  4084G12c C02C75831   2.816   4.801   1.226  1.3949 -0.5330 -2.0812
  4084G12c H01A75832   2.879   4.733   1.280  1.5933  0.8812 -0.4897
  4084G12c C02B75833   2.858   4.804   1.096 -0.5161 -0.1102 -1.6626
  4084G12c O00E75834   2.984   4.731   1.062  0.5358 -1.0599 -0.0022
  4084G12c H01B75835   3.020   4.740   0.975 -3.6910  0.8666 -1.7197
  4084G12c C02F75836   2.793   4.886   0.998  0.0790  1.6423  0.3221
  4084G12c O00F75837   2.833   4.897   0.866 -0.5258  0.2316  0.8997
  4084G12c C02G75838   2.832   5.022   0.802  0.4196  1.5907  0.3485
  4084G12c H01775839   2.927   5.075   0.809  0.4243  1.8469 -1.3939
  4084G12c H01675840   2.792   5.027   0.701 -2.1657 -3.9824  0.8670
  4084G12c H01575841   2.758   5.089   0.846  1.3043  3.8056 -1.4470
  4084G12c C02E75842   2.679   4.956   1.053  0.6853  2.0012  1.7226
  4084G12c H01875843   2.614   5.018   0.993 -4.4015  0.4515  5.3599
  4084G12c C01F75844   2.551   5.619   1.306 -0.8825 -0.2680 -1.7962
  4084G12c C01G75845   2.652   5.703   1.246 -1.1212  1.0047 -0.5258
  4084G12c H00L75846   2.742   5.647   1.228 -1.4730  0.8586 -1.8286
  4084G12c C01H75847   2.610   5.828   1.195 -0.7959 -0.5466 -0.1423
  4084G12c H00B75848   2.646   5.868   1.101  1.8265 -2.9144 -0.2293
  4084G12c C01I75849   2.503   5.891   1.261 -0.6485 -0.1418 -1.0058
  4084G12c C01U75850   2.441   5.696   1.365 -1.0473  0.2760 -1.2238
  4084G12c C00S75851   1.916   5.627   1.239  0.8232  1.4001  0.5783
  4084G12c C00K75852   2.024   5.818   1.264 -0.5303 -0.0380  0.2458
  4084G12c C00N75853   2.314   5.635   1.364 -0.3529 -0.0390 -0.8047
  4084G12c C00075854   2.430   5.838   1.373  0.1955 -0.5022  1.3076
  4084G12c C01J75855   2.408   5.982   1.185  1.0368 -1.7644 -0.0078
  4084G12c C01K75856   2.441   6.061   1.075 -0.5827 -1.7148  2.1730
  4084G12c C01P75857   2.571   6.117   1.016 -1.2575  0.6986  0.8649
  4084G12c C01Q75858   2.685   6.128   1.116 -1.7850 -1.0889 -1.2156
  4084G12c H00G75859   2.676   6.129   1.224  0.2160  4.6016 -0.9342
  4084G12c C01R75860   2.799   6.182   1.074 -0.7403  1.0574 -0.4938
  4084G12c H00F75861   2.820   6.204   0.970  1.8302  6.3596  0.9643
  4084G12c C01S75862   2.907   6.205   1.168 -1.7402 -0.5058 -0.2181
  4084G12c H00E75863   2.999   6.231   1.117 -1.2833  0.3623  1.0329
  4084G12c H00D75864   2.909   6.116   1.232  0.7998 -1.9988 -2.2783
  4084G12c O00575865   2.929   6.341   1.243  0.3269 -0.5807  0.3267
  4084G12c H00C75866   2.865   6.373   1.306 -1.9048 -1.5488 -1.4020
  4084G12c C01O75867   2.562   6.197   0.905  0.0705  0.9476  0.9553
  4084G12c H00H75868   2.652   6.244   0.870  0.5679  4.1308  5.9495
  4084G12c C01N75869   2.450   6.214   0.817 -1.4090  0.4540 -0.6617
  4084G12c O00675870   2.456   6.265   0.687  0.0796 -0.4494  0.5976
  4084G12c C01T75871   2.480   6.398   0.675  0.4186  3.8932  0.7592
  4084G12c H00K75872   2.552   6.447   0.740  1.9460  0.7377  1.5579
  4084G12c H00J75873   2.374   6.421   0.685  1.0187  4.6051  8.1046
  4084G12c H00I75874   2.516   6.407   0.573 -4.9734  0.6833 -1.6760
  4084G12c C01M75875   2.336   6.159   0.869  0.5053 -1.0855  0.6298
  4084G12c C02075876   2.048   5.938   1.181  2.3831 -2.3191  1.3364
  4084G12c C02175877   1.932   6.001   1.108 -0.5867 -1.5474  1.3032
  4084G12c C01L75878   2.328   6.088   0.999 -1.0290  0.0294  0.7355
  4084G12c O00775879   2.257   6.140   0.774 -0.9942  0.3153  0.1462
  4084G12c C02275880   1.957   6.062   0.984 -0.7836  0.6798  1.0473
  4084G12c C02375881   1.811   5.948   1.085 -1.0466  1.5964  0.5879
  4084G12c C00G75882   1.618   5.766   0.995 -0.5345 -0.2949  0.7228
  4084G12c C00E75883   1.445   5.706   0.841 -0.7682  0.3558  0.3889
  4084G12c O00A75884   1.332   5.642   0.795 -0.9352  0.4043 -1.4860
  4084G12c C02475885   1.198   5.711   0.781  0.5805  1.0835  0.1659
  4084G12c H00V75886   1.171   5.715   0.675 -2.4265  1.4766  0.8949
  4084G12c H00U75887   1.199   5.795   0.849  0.8077  0.1115  1.3747
  4084G12c H00T75888   1.126   5.657   0.841 -0.9744  6.1338  3.1496
  4094G12c C00D75889  13.148  11.078   3.094 -0.6313 -0.1611 -1.1024
  4094G12c O00B75890  13.158  11.192   3.147 -1.1799 -0.3287 -0.5184
  4094G12c C02575891  13.085  11.266   3.248  0.7410 -1.6578 -1.7404
  4094G12c C02675892  13.063  11.206   3.391 -0.0835  0.1490  0.1796
  4094G12c H00Y75893  13.043  11.279   3.469 -0.2907 -1.8285  2.0261
  4094G12c H00X75894  13.158  11.153   3.400  0.7117 -0.0530 -6.5325
  4094G12c O00C75895  12.947  11.142   3.422  0.8664 -1.3103 -0.7182
  4094G12c H00W75896  12.883  11.191   3.471 -0.5291  2.2221 -5.6196
  4094G12c C02775897  13.036  11.392   3.229  0.4285  0.4235  0.7844
  4094G12c O00D75898  12.968  11.455   3.335  0.3071  0.1757 -0.5934
  4094G12c H00Z75899  12.997  11.545   3.341  6.7437 -1.8322  2.1097
  4094G12c C02875900  13.062  11.468   3.112 -0.0123  0.0781 -0.9657
  4094G12c C02975901  12.955  11.496   3.027  0.3596 -0.3628  0.6663
  4094G12c H01075902  12.863  11.468   3.077  1.7235 -4.0870  1.3097
  4094G12c C02T75903  12.975  11.544   2.901 -0.2061  0.5185 -1.5142
  4094G12c H01O75904  12.878  11.562   2.858 -1.0372  1.1233  0.5288
  4094G12c C02S75905  13.105  11.589   2.863  1.8879 -0.2305 -2.5577
  4094G12c O00J75906  13.121  11.614   2.732  0.5743  0.6236 -0.5539
  4094G12c H01P75907  13.094  11.703   2.748 -2.5947 -0.5244  0.9565
  4094G12c C02R75908  13.212  11.583   2.952 -1.6354 -0.3908 -0.4883
  4094G12c O00I75909  13.346  11.612   2.923  0.2338 -0.3315 -0.9901
  4094G12c C02Q75910  13.422  11.687   3.015 -0.7146  1.3669  0.4893
  4094G12c H01N75911  13.422  11.762   2.937 -0.1335  0.8613 -0.0058
  4094G12c H01R75912  13.502  11.622   2.978 -5.0131 -2.4684 -2.6684
  4094G12c H01Q75913  13.372  11.687   3.112 -3.5290 -2.5112 -0.8030
  4094G12c C02A75914  13.189  11.514   3.065 -0.0998 -0.7010 -0.7674
  4094G12c H01175915  13.255  11.502   3.150  0.3264 -1.7141 -1.2272
  4094G12c C00C75916  13.045  10.989   3.061  0.8916  0.5540 -0.0865
  4094G12c H01275917  12.960  11.026   3.117 -0.5834 -0.4804 -1.6024
  4094G12c C00B75918  13.026  10.870   2.987  2.1703 -0.1154  1.2127
  4094G12c C00A75919  12.921  10.801   2.955  1.3033 -1.5615 -1.4662
  4094G12c C00975920  12.824  10.735   3.052 -1.2346 -0.4566  0.9390
  4094G12c C00875921  12.786  10.762   3.181 -0.3663  0.8651  0.2132
  4094G12c H01375922  12.822  10.858   3.217 -1.1535  1.3903 -0.3942
  4094G12c C00775923  12.732  10.644   3.241 -1.0066  0.7299 -0.9352
  4094G12c H01475924  12.745  10.639   3.348  0.2526  3.7060 -0.8750
  4094G12c C00675925  12.694  10.531   3.176  1.4221 -1.3765 -0.7342
  4094G12c C00575926  12.706  10.524   3.036 -1.8842 -0.2834  0.0410
  4094G12c C00475927  12.706  10.400   2.965  0.9585 -0.7349  1.0942
  4094G12c C00375928  12.764  10.387   2.827 -1.6152 -0.2737 -1.3863
  4094G12c C00275929  12.745  10.254   2.758 -0.5945 -0.6693 -1.4028
  4094G12c C00175930  12.791  10.197   2.640  1.8056  0.3757 -1.0839
  4094G12c C00M75931  12.930  10.230   2.588 -1.2134  1.2808 -2.4514
  4094G12c C00L75932  13.001  10.344   2.616 -0.3422 -0.1065 -1.6227
  4094G12c C00R75933  13.140  10.380   2.602 -0.9942 -0.6920  1.8045
  4094G12c C00Q75934  13.254  10.288   2.573  0.1969 -0.6698 -0.7222
  4094G12c C00V75935  13.376  10.370   2.581 -0.3152 -0.1006 -2.4407
  4094G12c C00U75936  13.385  10.516   2.623  0.1239 -0.5789  1.1145
  4094G12c C00T75937  13.270  10.570   2.664  0.1194 -0.3592 -0.0521
  4094G12c C01675938  13.270  10.689   2.754 -1.8872  0.7117  1.6602
  4094G12c C01575939  13.389  10.745   2.787 -0.6746 -0.2549  0.5657
  4094G12c C01075940  13.500  10.689   2.734 -0.2047  0.7834 -1.5059
  4094G12c C01175941  13.609  10.777   2.744  0.2619  0.3178 -0.7057
  4094G12c H00575942  13.695  10.774   2.679 -2.2986 -0.7926 -4.2423
  4094G12c C01275943  13.631  10.867   2.842 -0.6213  0.2068 -0.4729
  4094G12c C01775944  13.756  10.938   2.875 -1.6992  1.2115 -2.2478
  4094G12c O00275945  13.755  11.070   2.906 -0.4064 -0.0151  0.6891
  4094G12c H00475946  13.828  11.126   2.885 -5.4373  5.1045 -5.5661
  4094G12c C01875947  13.880  10.879   2.852 -1.0725  0.4444 -0.3899
  4094G12c O00175948  13.878  10.743   2.837 -0.8080  0.3943  0.5085
  4094G12c H00375949  13.953  10.728   2.893  2.2406  3.5229 -2.4721
  4094G12c C01975950  14.040  10.935   2.881  0.2896  0.2944 -0.1756
  4094G12c H00275951  14.108  10.939   2.795 -2.2327 -5.0513 -2.6306
  4094G12c H00175952  14.025  10.999   2.968  0.4621 -4.5750  3.5926
  4094G12c O00075953  14.082  10.841   2.978 -0.1729 -1.0401  0.1520
  4094G12c C01A75954  14.220  10.816   2.989  1.0108  0.4481  1.1804
  4094G12c C02K75955  14.326  10.913   2.976 -0.8421  2.3229  0.9658
  4094G12c O00G75956  14.321  11.046   2.967  1.1246 -0.2495  1.1445
  4094G12c C02M75957  14.361  11.145   3.059  0.1348 -0.8005  0.1445
  4094G12c H01G75958  14.279  11.215   3.045 -2.2217 -4.2066 -5.1910
  4094G12c H01F75959  14.373  11.103   3.158  2.8781 -1.0870 -0.2729
  4094G12c H01E75960  14.436  11.219   3.034  0.4798 -2.5667 -4.7897
  4094G12c C02J75961  14.459  10.868   2.963 -0.2155 -0.7191 -0.0273
  4094G12c H01H75962  14.527  10.950   2.943  1.1167 -1.4032  1.6357
  4094G12c C02I75963  14.502  10.738   2.958  1.6774 -0.3894  0.3887
  4094G12c C02N75964  14.636  10.696   2.938 -0.4228 -0.1665  0.9211
  4094G12c H01M75965  14.713  10.772   2.941 -0.0113 -0.3247 -3.0799
  4094G12c C02O75966  14.674  10.565   2.948 -3.4796 -0.7008 -0.9597
  4094G12c H01L75967  14.600  10.487   2.948 -6.6313  2.1771  2.0768
  4094G12c C02P75968  14.825  10.523   2.957  0.2732  1.3130  0.2570
  4094G12c H01K75969  14.829  10.534   3.065 -1.5887  3.5264  0.1560
  4094G12c H01J75970  14.830  10.415   2.955 -1.8305  1.2098 -1.3909
  4094G12c O00H75971  14.934  10.589   2.876  0.1229  1.1457 -1.9329
  4094G12c H01I75972  14.898  10.675   2.858  0.1409  1.8587  1.1744
  4094G12c C02H75973  14.395  10.636   2.957 -0.5037 -0.9328 -0.5971
  4094G12c H01C75974  14.393  10.529   2.970 -2.4615 -0.7760  0.5982
  4094G12c C02L75975  14.257  10.675   2.973 -0.5913 -1.6100  1.0488
  4094G12c H01D75976  14.177  10.606   2.997  0.1124 -1.4456  3.9376
  4094G12c C01375977  13.522  10.914   2.916 -1.2176 -0.6152 -1.1509
  4094G12c H00075978  13.537  10.985   2.996  4.5280 -0.4350 -2.1314
  4094G12c C01475979  13.387  10.865   2.874 -0.8683  1.0943  0.2905
  4094G12c C00F75980  13.272  10.917   2.928 -1.1944  0.6112 -1.7635
  4094G12c C00H75981  13.144  10.746   2.804 -1.2043  1.1009 -3.1232
  4094G12c C00I75982  13.027  10.677   2.773 -0.1763  0.3991 -0.5601
  4094G12c C00J75983  13.037  10.562   2.688 -0.8401 -1.0900 -1.5812
  4094G12c C00Z75984  13.504  10.579   2.654  1.0587 -0.1329 -1.5355
  4094G12c C00Y75985  13.617  10.515   2.634  0.1397  0.9863  0.7798
  4094G12c H00675986  13.715  10.554   2.656  2.2097 -4.3758  1.9849
  4094G12c C00X75987  13.620  10.371   2.596 -0.4620  0.6405  0.1788
  4094G12c O00375988  13.728  10.286   2.631  1.8882  0.2521  0.0773
  4094G12c C01B75989  13.773  10.271   2.767 -0.7222  0.1205  1.6143
  4094G12c H00975990  13.878  10.241   2.767 -1.9372 -4.6370  0.9969
  4094G12c H00875991  13.783  10.359   2.830 -0.5560 -1.1763  3.4326
  4094G12c H00775992  13.730  10.208   2.846 -1.2929  1.4356  2.3625
  4094G12c C00W75993  13.504  10.311   2.552 -0.0240  0.3818 -1.6056
  4094G12c O00475994  13.511  10.191   2.519 -1.4891 -0.2305 -0.4569
  4094G12c C01C75995  13.391  10.112   2.510  2.7025 -0.5520 -0.5916
  4094G12c H00A75996  13.394  10.030   2.440 -0.5652 -5.5596  4.7400
  4094G12c C00P75997  13.263  10.144   2.569 -0.5408 -0.2205  0.6092
  4094G12c C00O75998  13.146  10.061   2.579 -0.3156 -0.5653 -1.1872
  4094G12c C01D75999  13.178   9.914   2.620 -0.6281 -0.2541  2.4143
  4094G12c H00S76000  13.279   9.886   2.594 -0.0260 -0.1994  4.5992
  4094G12c C01E76001  13.086   9.827   2.671  0.0577 -2.0541 -0.5188
  4094G12c O00876002  13.124   9.692   2.719  0.3668  1.1841  0.2522
  4094G12c C01V76003  13.247   9.675   2.792 -2.2148 -0.0889 -1.3143
  4094G12c C01Z76004  13.263   9.746   2.929 -0.1284  0.9918 -0.8772
  4094G12c H00R76005  13.242   9.848   2.896 -5.8061  1.2931  2.9847
  4094G12c H00Q76006  13.359   9.714   2.969 -4.0179 -4.1844  5.4064
  4094G12c O00976007  13.161   9.717   3.023  1.7213  0.8094  0.9777
  4094G12c H00P76008  13.091   9.779   3.011  2.8355  1.4233 -3.5571
  4094G12c C01W76009  13.312   9.556   2.777  0.4688 -0.9937  0.3658
  4094G12c H00O76010  13.389   9.533   2.849 -1.7930  4.2716  4.8604
  4094G12c C01X76011  13.251   9.448   2.693 -0.5136  0.0518 -0.0460
  4094G12c H00N76012  13.165   9.400   2.739 -1.7294 -0.8410 -3.1730
  4094G12c H00M76013  13.238   9.472   2.588 -2.5881  2.1977  0.6574
  4094G12c C01Y76014  13.392   9.362   2.662 -1.1077 -0.6952 -0.6929
  4094G12c C02D76015  13.374   9.225   2.613  0.8275 -0.0204 -0.0113
  4094G12c H01976016  13.283   9.169   2.629 -0.0086 -0.8280 -6.1792
  4094G12c C02C76017  13.471   9.135   2.565 -0.4446  0.6646  0.9778
  4094G12c H01A76018  13.440   9.037   2.531  5.1968 -0.3650 -1.8367
  4094G12c C02B76019  13.589   9.201   2.519  0.2727 -1.0631 -0.2431
  4094G12c O00E76020  13.681   9.126   2.470  0.5869 -2.2200  0.7898
  4094G12c H01B76021  13.643   9.104   2.386  1.3950 -3.2069  0.6713
  4094G12c C02F76022  13.616   9.346   2.535  0.4787 -1.9157  1.1884
  4094G12c O00F76023  13.732   9.385   2.503  0.1084 -0.7423 -1.7995
  4094G12c C02G76024  13.756   9.510   2.484 -0.6205  1.6396  0.0432
  4094G12c H01776025  13.865   9.513   2.488 -0.7175  2.5500  3.7455
  4094G12c H01676026  13.759   9.572   2.574 -3.6601 -2.0718  2.8268
  4094G12c H01576027  13.741   9.559   2.388 -0.0209 -2.6298 -2.3631
  4094G12c C02E76028  13.510   9.420   2.610 -0.2094  1.1455 -1.2130
  4094G12c H01876029  13.520   9.526   2.625 -3.5680  0.9630  3.2734
  4094G12c C01F76030  12.962   9.878   2.705  0.8256  0.2824  1.0673
  4094G12c C01G76031  12.872   9.816   2.793  1.6159  0.6062 -1.4522
  4094G12c H00L76032  12.910   9.717   2.814  3.1557 -0.6959 -8.8783
  4094G12c C01H76033  12.758   9.891   2.858  0.5007  0.8606 -0.6725
  4094G12c H00B76034  12.708   9.848   2.943  3.8450  2.9291  2.4528
  4094G12c C01I76035  12.737  10.014   2.808 -0.1775  0.8091  2.1920
  4094G12c C01U76036  12.915  10.000   2.657  2.3181 -0.8136 -0.9419
  4094G12c C00S76037  13.156  10.516   2.629  0.3801 -0.3509 -1.4324
  4094G12c C00K76038  12.942  10.455   2.688  2.2778 -0.8277 -1.3311
  4094G12c C00N76039  12.997  10.096   2.590 -0.6868  0.6060  0.1376
  4094G12c C00076040  12.796  10.055   2.684 -1.0481  1.0735 -0.4040
  4094G12c C01J76041  12.713  10.148   2.851  2.5154 -0.7392 -1.0896
  4094G12c C01K76042  12.630  10.172   2.956 -0.1968 -0.3769 -0.1835
  4094G12c C01P76043  12.511  10.097   3.004 -0.7907 -1.1867 -1.0504
  4094G12c C01Q76044  12.462   9.975   2.933  1.2243 -1.9263  1.2046
  4094G12c H00G76045  12.469   9.965   2.825 -2.2713 -4.3588  1.1298
  4094G12c C01R76046  12.398   9.877   2.995  0.2121  0.5922 -2.5175
  4094G12c H00F76047  12.440   9.856   3.093 -3.9361  0.1953 -0.7319
  4094G12c C01S76048  12.284   9.809   2.946 -0.2075 -0.2773 -0.6823
  4094G12c H00E76049  12.256   9.825   2.842  1.3401  0.4650 -0.9923
  4094G12c H00D76050  12.292   9.700   2.955 -1.7750 -0.3878 -0.5370
  4094G12c O00576051  12.158   9.817   3.001  1.6436  0.0017 -1.2877
  4094G12c H00C76052  12.090   9.845   2.941 -0.4489  2.2431  1.9476
  4094G12c C01O76053  12.440  10.140   3.124 -0.0217 -0.2376  0.8097
  4094G12c H00H76054  12.361  10.095   3.181  1.1237 -1.7607  1.2357
  4094G12c C01N76055  12.513  10.217   3.221 -0.5761 -0.7943  1.3751
  4094G12c O00676056  12.461  10.228   3.359 -0.3167  0.1266 -0.1885
  4094G12c C01T76057  12.533  10.287   3.472 -0.3013  0.3915 -1.1540
  4094G12c H00K76058  12.531  10.220   3.558 -1.0686  0.7666 -0.8805
  4094G12c H00J76059  12.638  10.286   3.442 -1.2680 -2.6410 -4.9754
  4094G12c H00I76060  12.496  10.386   3.497  2.1448  1.5269 -1.8078
  4094G12c C01M76061  12.593  10.310   3.165 -1.4963  0.3227  0.5814
  4094G12c C02076062  12.833  10.499   2.774  0.2843  1.0657  2.0170
  4094G12c C02176063  12.818  10.626   2.848 -0.7516 -0.4469  0.5831
  4094G12c C01L76064  12.649  10.298   3.024 -0.1607 -0.2106 -1.0813
  4094G12c O00776065  12.619  10.430   3.241  0.0216  0.1655  1.4935
  4094G12c C02276066  12.759  10.635   2.970 -1.0824  0.3989 -0.6679
  4094G12c C02376067  12.922  10.728   2.844 -0.0721  0.7097  1.1840
  4094G12c C00G76068  13.146  10.839   2.907  0.7290 -0.5681  1.2539
  4094G12c C00E76069  13.277  11.034   3.017  1.1032 -0.0798 -2.9720
  4094G12c O00A76070  13.377  11.116   3.038 -0.3991  0.5071  0.6357
  4094G12c C02476071  13.401  11.240   2.976  0.2316 -1.2020 -1.2508
  4094G12c H00V76072  13.415  11.212   2.871 -3.9827 -0.0363 -2.2304
  4094G12c H00U76073  13.485  11.281   3.031 -0.9707  0.9030 -0.9575
  4094G12c H00T76074  13.328  11.320   2.969  4.2335  3.0501  2.6065
  4104G12c C00D76075   9.633  11.809   1.721 -0.8890  0.9116  0.5419
  4104G12c O00B76076   9.701  11.834   1.833 -1.0776  0.8316  0.3089
  4104G12c C02576077   9.658  11.869   1.963 -1.0059 -0.1330  1.7518
  4104G12c C02676078   9.749  11.838   2.068  1.3612  0.5618  0.1248
  4104G12c H00Y76079   9.802  11.755   2.020  1.4806 -1.3667  3.4514
  4104G12c H00X76080   9.717  11.780   2.154  2.5770  3.4489  2.6495
  4104G12c O00C76081   9.847  11.931   2.076 -0.6377 -0.6895 -0.8016
  4104G12c H00W76082   9.805  12.008   2.111  4.3169  2.1101 -0.5080
  4104G12c C02776083   9.561  11.949   2.012  1.4209  0.6959  0.8066
  4104G12c O00D76084   9.465  12.023   1.944 -0.1618  0.4558  0.0981
  4104G12c H00Z76085   9.415  12.070   2.008 -0.5749  0.8755 -0.5254
  4104G12c C02876086   9.546  11.983   2.162 -0.1806 -1.5283  0.3132
  4104G12c C02976087   9.514  11.889   2.248 -0.6263  0.3390 -0.2005
  4104G12c H01076088   9.487  11.794   2.206  4.9221 -1.2863 -0.5662
  4104G12c C02T76089   9.521  11.927   2.397 -1.0291  1.7140 -0.6975
  4104G12c H01O76090   9.516  11.853   2.475  1.4613 -3.7641 -5.3668
  4104G12c C02S76091   9.522  12.070   2.430 -1.2577 -1.4993 -0.9520
  4104G12c O00J76092   9.528  12.123   2.557 -1.5827  0.7185 -0.0963
  4104G12c H01P76093   9.476  12.202   2.547  3.1882  3.9484 -1.0995
  4104G12c C02R76094   9.487  12.151   2.319  0.4102 -0.7172 -0.8181
  4104G12c O00I76095   9.472  12.280   2.354 -0.0673  0.1511  0.4622
  4104G12c C02Q76096   9.381  12.355   2.296 -0.8253  0.4805  1.0709
  4104G12c H01N76097   9.288  12.298   2.292 -2.6600  3.4533 -0.2356
  4104G12c H01R76098   9.420  12.367   2.195  2.5385 -1.4089  2.0679
  4104G12c H01Q76099   9.387  12.458   2.330  5.7208 -0.0660  2.0853
  4104G12c C02A76100   9.511  12.111   2.197  0.0542 -0.8445 -0.3534
  4104G12c H01176101   9.476  12.192   2.134  3.5981 -1.8385 -3.7842
  4104G12c C00C76102   9.554  11.904   1.655 -0.2731  2.1096  0.8514
  4104G12c H01276103   9.542  11.996   1.711  1.2663  0.7634  3.4603
  4104G12c C00B76104   9.481  11.881   1.530 -0.4516 -0.7375  0.4068
  4104G12c C00A76105   9.390  11.971   1.458  0.2759 -1.8461  1.0481
  4104G12c C00976106   9.304  12.077   1.505  0.7374 -1.0927  2.0321
  4104G12c C00876107   9.266  12.127   1.625  1.5881 -0.2629  1.2826
  4104G12c H01376108   9.333  12.097   1.705  1.9288  3.2623  2.4042
  4104G12c C00776109   9.141  12.205   1.652 -0.2411  0.0444 -0.3689
  4104G12c H01476110   9.074  12.239   1.730  3.9666  5.4582  1.1252
  4104G12c C00676111   9.067  12.231   1.528  0.4166 -0.7452 -1.2065
  4104G12c C00576112   9.107  12.163   1.413 -1.3881  0.2288 -1.8217
  4104G12c C00476113   9.012  12.146   1.303  1.2647 -1.8296 -1.1751
  4104G12c C00376114   9.037  12.055   1.201  0.7173  1.3333 -1.9369
  4104G12c C00276115   8.919  12.032   1.124 -2.0325  0.2690  0.0308
  4104G12c C00176116   8.876  11.905   1.069 -1.9893  0.4062 -0.8352
  4104G12c C00M76117   8.921  11.771   1.088  0.9457  0.4679  0.4807
  4104G12c C00L76118   9.050  11.723   1.092 -1.4557  2.8492 -0.6644
  4104G12c C00R76119   9.077  11.598   1.144  1.8184 -1.0823 -0.4574
  4104G12c C00Q76120   9.001  11.489   1.183  1.7947 -0.7241 -2.6585
  4104G12c C00V76121   9.076  11.386   1.246 -0.6677  0.3103 -0.6320
  4104G12c C00U76122   9.209  11.417   1.292 -1.4357  0.5372 -1.2017
  4104G12c C00T76123   9.258  11.537   1.293  0.0095  0.8403 -0.5123
  4104G12c C01676124   9.356  11.583   1.367 -1.0075  1.3357  0.0072
  4104G12c C01576125   9.426  11.486   1.441  0.5070 -0.3903  0.7774
  4104G12c C01076126   9.385  11.354   1.446  0.0528 -0.7936  0.0027
  4104G12c C01176127   9.451  11.258   1.531  1.1947 -1.3280  0.4864
  4104G12c H00576128   9.405  11.161   1.521 -0.9781 -0.0424 -2.8529
  4104G12c C01276129   9.564  11.280   1.613  0.4671  0.4789  0.7901
  4104G12c C01776130   9.643  11.165   1.669  0.6689 -0.9346 -2.6007
  4104G12c O00276131   9.637  11.066   1.579  0.8227  0.6742  0.4739
  4104G12c H00476132   9.673  10.981   1.602 -2.5263 -0.5866  1.5635
  4104G12c C01876133   9.687  11.153   1.802 -0.3760 -1.0307  1.8590
  4104G12c O00176134   9.655  11.256   1.889 -1.6547 -1.2744  1.0014
  4104G12c H00376135   9.671  11.204   1.967  1.8478  1.3044  2.0967
  4104G12c C01976136   9.745  11.022   1.849 -0.0545  0.0720 -0.0027
  4104G12c H00276137   9.746  11.012   1.957  2.2772  0.2304  0.0049
  4104G12c H00176138   9.675  10.946   1.813 -3.0885  2.1894  1.1914
  4104G12c O00076139   9.886  11.024   1.797  0.7391  1.3754 -0.0132
  4104G12c C01A76140   9.946  10.900   1.779  0.8483 -0.1433 -1.4757
  4104G12c C02K76141   9.908  10.766   1.817  0.2204 -0.4516 -0.8507
  4104G12c O00G76142   9.792  10.768   1.899  0.4577 -0.4672 -0.3185
  4104G12c C02M76143   9.722  10.654   1.920  0.9642  0.9503 -1.5108
  4104G12c H01G76144   9.663  10.658   1.828 -0.6369  0.4733 -0.5272
  4104G12c H01F76145   9.677  10.693   2.011 -3.9818 -2.4067 -2.3058
  4104G12c H01E76146   9.792  10.576   1.951  0.1634 -0.1400 -2.4197
  4104G12c C02J76147   9.979  10.648   1.794 -0.4816 -0.3994 -0.0794
  4104G12c H01H76148   9.945  10.547   1.807  0.5999 -1.4216 -4.3512
  4104G12c C02I76149  10.078  10.657   1.702  1.6163  0.4511  0.1823
  4104G12c C02N76150  10.125  10.536   1.635 -0.3800 -1.0052 -0.7088
  4104G12c H01M76151  10.209  10.477   1.670  1.1869  2.5919  1.9211
  4104G12c C02O76152  10.063  10.496   1.519 -0.3399  1.0701 -0.6975
  4104G12c H01L76153  10.102  10.404   1.479 -4.2066 -1.2977  0.6709
  4104G12c C02P76154   9.939  10.546   1.435 -0.3850  1.0110  0.5222
  4104G12c H01K76155  10.007  10.589   1.361  0.6726  6.3080  4.3575
  4104G12c H01J76156   9.867  10.474   1.395  0.7780 -1.8671  3.3601
  4104G12c O00H76157   9.867  10.661   1.479 -0.6808 -0.0925 -0.2243
  4104G12c H01I76158   9.878  10.724   1.409  0.4367  2.1686  1.9176
  4104G12c C02H76159  10.136  10.784   1.667  1.4540  0.4031  1.7960
  4104G12c H01C76160  10.234  10.793   1.623 -0.3884 -6.9695 -5.0599
  4104G12c C02L76161  10.070  10.906   1.704 -0.5027  1.6000 -0.6032
  4104G12c H01D76162  10.120  10.996   1.669  0.0786  0.1576 -3.6214
  4104G12c C01376163   9.590  11.416   1.629 -0.1050  0.8385 -1.0409
  4104G12c H00076164   9.661  11.450   1.703 -2.7678  2.2589  0.9481
  4104G12c C01476165   9.534  11.522   1.538  0.9194 -0.9133  0.6958
  4104G12c C00F76166   9.553  11.658   1.561 -1.8105 -0.1200  2.1739
  4104G12c C00H76167   9.374  11.710   1.400 -0.4508 -0.0535  0.6510
  4104G12c C00I76168   9.331  11.794   1.301  0.1431 -0.0933 -0.1151
  4104G12c C00J76169   9.255  11.733   1.193  0.7933  1.0298  0.7836
  4104G12c C00Z76170   9.262  11.318   1.372  0.7424  0.6107 -1.1898
  4104G12c C00Y76171   9.197  11.187   1.394  1.0808 -0.5804 -0.3272
  4104G12c H00676172   9.227  11.108   1.461 -0.1571  4.2687  6.3918
  4104G12c C00X76173   9.065  11.167   1.355 -1.7625 -0.2064  0.8601
  4104G12c O00376174   9.012  11.042   1.345  1.5619  0.8744  0.6655
  4104G12c C01B76175   9.088  10.932   1.276 -1.0759  1.6369  0.7623
  4104G12c H00976176   9.173  10.895   1.333  0.1346  7.4306  3.1217
  4104G12c H00876177   9.150  10.967   1.193 -4.3862  2.6231 -1.3843
  4104G12c H00776178   9.020  10.860   1.232  0.7617 -0.6279  1.5542
  4104G12c C00W76179   9.005  11.257   1.276 -0.9426 -0.6768  0.3288
  4104G12c O00476180   8.878  11.215   1.232 -0.0454 -1.6307  0.4293
  4104G12c C01C76181   8.816  11.332   1.183 -0.7586 -1.4410 -0.1693
  4104G12c H00A76182   8.713  11.299   1.178 -1.2517 -1.1857  5.5885
  4104G12c C00P76183   8.852  11.464   1.180 -0.6417  0.0853  0.6540
  4104G12c C00O76184   8.768  11.583   1.174 -0.0618  1.2691  2.4769
  4104G12c C01D76185   8.608  11.581   1.190 -1.2095  0.2560 -0.6563
  4104G12c H00S76186   8.564  11.484   1.204 -2.6688  0.5179 -3.3269
  4104G12c C01E76187   8.502  11.677   1.159 -1.0860  1.5294  0.8574
  4104G12c O00876188   8.373  11.665   1.178  0.3987 -0.2789  0.2254
  4104G12c C01V76189   8.291  11.633   1.075  0.1600 -0.4773  0.5247
  4104G12c C01Z76190   8.138  11.665   1.108  0.0861  0.2835 -0.6529
  4104G12c H00R76191   8.085  11.754   1.077  1.5650  2.1548  1.9698
  4104G12c H00Q76192   8.079  11.589   1.057  0.2684  1.7924 -3.2234
  4104G12c O00976193   8.132  11.665   1.264 -0.0828 -1.3375 -0.0649
  4104G12c H00P76194   8.203  11.606   1.284 -3.1178 -3.2717  6.2090
  4104G12c C01W76195   8.338  11.579   0.955  2.0991 -0.0117 -0.1020
  4104G12c H00O76196   8.442  11.550   0.964  1.3855 -1.9735  2.2026
  4104G12c C01X76197   8.255  11.532   0.839  0.1247 -1.3880 -0.4306
  4104G12c H00N76198   8.168  11.598   0.843  1.5351  0.6123 -1.4293
  4104G12c H00M76199   8.285  11.565   0.740  9.1774 -5.9099  0.2805
  4104G12c C01Y76200   8.206  11.387   0.851  0.7281  0.3745 -0.6002
  4104G12c C02D76201   8.068  11.369   0.842  2.5797 -0.6586  0.4676
  4104G12c H01976202   8.030  11.467   0.819 -2.5653 -1.9452  2.6293
  4104G12c C02C76203   8.015  11.240   0.849  0.1764  0.3822 -0.8936
  4104G12c H01A76204   7.907  11.240   0.851 -0.0575  3.9887 -5.8706
  4104G12c C02B76205   8.105  11.123   0.858  1.1241  0.1947  1.2326
  4104G12c O00E76206   8.047  10.995   0.892 -0.5311  0.6546 -0.9387
  4104G12c H01B76207   7.986  11.023   0.959  0.9874  6.8692 -1.8483
  4104G12c C02F76208   8.240  11.143   0.878 -0.2949 -0.8777 -1.3115
  4104G12c O00F76209   8.317  11.042   0.865 -0.4087 -0.8808 -2.0586
  4104G12c C02G76210   8.348  10.967   0.976  0.3856  1.0423 -0.1976
  4104G12c H01776211   8.285  10.905   1.040 -1.5170  1.8633 -1.2265
  4104G12c H01676212   8.426  10.891   0.983  1.2173  2.0648  2.0673
  4104G12c H01576213   8.406  11.038   1.035  5.0618 -2.1202 -0.6786
  4104G12c C02E76214   8.293  11.274   0.881  0.4966 -0.4793 -1.4146
  4104G12c H01876215   8.398  11.282   0.857 -0.0172  0.3130 -3.5215
  4104G12c C01F76216   8.555  11.797   1.124  0.2075 -0.5853 -0.1446
  4104G12c C01G76217   8.488  11.905   1.148  0.8828 -0.2735 -1.6754
  4104G12c H00L76218   8.391  11.887   1.193 -2.1446  2.4231 -6.7016
  4104G12c C01H76219   8.558  12.031   1.137 -1.2111  1.0835  1.7010
  4104G12c H00B76220   8.523  12.120   1.188 -0.8694  0.0269  3.8696
  4104G12c C01I76221   8.691  12.049   1.087 -0.1168 -0.7156  0.0404
  4104G12c C01U76222   8.689  11.814   1.082  1.2665 -0.3079 -0.1607
  4104G12c C00S76223   9.189  11.624   1.225  0.7550  2.4840 -1.7481
  4104G12c C00K76224   9.136  11.817   1.146  0.1591 -0.6471 -2.0886
  4104G12c C00N76225   8.796  11.710   1.120  1.3953  0.2175  1.0424
  4104G12c C00076226   8.739  11.930   1.033 -0.6299 -0.9968 -1.5173
  4104G12c C01J76227   8.815  12.120   1.120  0.9024 -1.3840  1.1502
  4104G12c C01K76228   8.809  12.249   1.196 -0.2181  0.9391  0.3115
  4104G12c C01P76229   8.731  12.359   1.188  1.3588 -0.7889  0.1328
  4104G12c C01Q76230   8.633  12.398   1.083  0.7530  0.3987 -0.8330
  4104G12c H00G76231   8.532  12.389   1.119  3.5432  1.1953  8.5622
  4104G12c C01R76232   8.660  12.403   0.953  0.0684  0.1808 -0.5259
  4104G12c H00F76233   8.579  12.402   0.881 -3.6477 -3.1185  3.3975
  4104G12c C01S76234   8.789  12.350   0.870 -1.0509 -1.2462  0.4164
  4104G12c H00E76235   8.882  12.311   0.912 -1.4438 -1.3739  1.1859
  4104G12c H00D76236   8.761  12.266   0.806 -1.3245  0.5872 -1.9042
  4104G12c O00576237   8.831  12.438   0.776 -0.5374  1.1223 -0.8903
  4104G12c H00C76238   8.855  12.522   0.812 -1.5137 -0.0382  2.7159
  4104G12c C01O76239   8.725  12.444   1.300  1.3597 -0.3998 -0.1326
  4104G12c H00H76240   8.671  12.537   1.298  2.9532  0.5117 -2.4202
  4104G12c C01N76241   8.787  12.437   1.418  1.1047 -1.0166 -0.0679
  4104G12c O00676242   8.752  12.527   1.531 -1.1523  1.1768  0.2133
  4104G12c C01T76243   8.862  12.553   1.625 -0.1080  1.8322 -0.5434
  4104G12c H00K76244   8.969  12.568   1.611  1.0215 -5.7740 -2.2606
  4104G12c H00J76245   8.815  12.624   1.693 -0.5448  2.0231 -1.0330
  4104G12c H00I76246   8.874  12.467   1.690  0.8317 -0.8803 -4.1420
  4104G12c C01M76247   8.893  12.342   1.405  0.3863  0.2729 -1.3327
  4104G12c C02076248   9.133  11.953   1.196  1.1991  0.1650  1.0067
  4104G12c C02176249   9.245  12.002   1.279 -1.1786  1.5577  0.4655
  4104G12c C01L76250   8.898  12.248   1.300 -0.6021  0.0606 -1.7249
  4104G12c O00776251   8.964  12.318   1.518  0.5798  0.3091 -0.8114
  4104G12c C02276252   9.223  12.093   1.391  2.7258 -0.4986  0.2166
  4104G12c C02376253   9.340  11.933   1.322 -0.8675  0.6234 -0.1650
  4104G12c C00G76254   9.470  11.750   1.497  0.5373 -0.2793 -0.6277
  4104G12c C00E76255   9.675  11.698   1.640  0.5152 -1.5864  1.5665
  4104G12c O00A76256   9.777  11.623   1.656 -1.2499 -1.5237  0.1884
  4104G12c C02476257   9.893  11.727   1.657 -0.5771 -0.8622  0.1185
  4104G12c H00V76258   9.894  11.785   1.565 -1.6686 -0.0590  0.6048
  4104G12c H00U76259   9.989  11.675   1.664 -0.3137 -0.2844  0.8959
  4104G12c H00T76260   9.908  11.804   1.733  0.5612 -0.4601 -0.5060
  4114G12c C00D76261  13.215  10.523   5.510 -0.5404 -0.2761  0.5674
  4114G12c O00B76262  13.142  10.422   5.528  0.8801 -0.3589  0.1062
  4114G12c C02576263  13.177  10.306   5.464  2.0593 -0.6798 -0.9566
  4114G12c C02676264  13.171  10.304   5.307 -0.8049  1.7349 -1.9076
  4114G12c H00Y76265  13.071  10.279   5.274 -2.5136  4.9864  0.5354
  4114G12c H00X76266  13.228  10.225   5.257 -9.0788 -6.5683  0.2756
  4114G12c O00C76267  13.233  10.415   5.239 -0.1580 -0.6067 -0.4925
  4114G12c H00W76268  13.300  10.440   5.300  0.9004 -1.8174 -1.1397
  4114G12c C02776269  13.168  10.201   5.544 -1.0149  1.8851 -0.3452
  4114G12c O00D76270  13.119  10.223   5.670 -0.0778 -0.9003 -0.3696
  4114G12c H00Z76271  13.147  10.312   5.654 -0.5587 -1.2496 -3.4511
  4114G12c C02876272  13.162  10.052   5.497 -0.1115  0.6338  0.1587
  4114G12c C02976273  13.038   9.998   5.438 -0.6541 -0.5759  0.3202
  4114G12c H01076274  12.966  10.078   5.425  0.7073  0.9983  2.0673
  4114G12c C02T76275  13.055   9.859   5.394 -1.0857  0.2781  2.4748
  4114G12c H01O76276  13.002   9.787   5.334 -4.8503  1.9410  3.6332
  4114G12c C02S76277  13.166   9.787   5.433 -0.8605 -1.1065  0.0794
  4114G12c O00J76278  13.192   9.674   5.379 -1.3936 -0.0916  2.4365
  4114G12c H01P76279  13.264   9.675   5.441  2.7886 -3.9236 -2.0059
  4114G12c C02R76280  13.275   9.839   5.516 -0.9995  0.7151 -1.4251
  4114G12c O00I76281  13.372   9.748   5.562 -0.2252 -0.1162 -1.4256
  4114G12c C02Q76282  13.311   9.640   5.651  0.1117  0.3704  0.8047
  4114G12c H01N76283  13.385   9.563   5.673 -1.7019 -1.1265  1.9799
  4114G12c H01R76284  13.206   9.613   5.639  1.2944 -4.0861 -0.3319
  4114G12c H01Q76285  13.303   9.661   5.758 -2.4203 -3.8733  1.5580
  4114G12c C02A76286  13.264   9.968   5.551 -1.0032 -1.3331 -0.4517
  4114G12c H01176287  13.333  10.023   5.614  0.0908 -5.1307  1.8271
  4114G12c C00C76288  13.158  10.627   5.463  0.8417  0.3533  0.7087
  4114G12c H01276289  13.061  10.630   5.415  0.1807  0.5059  2.0323
  4114G12c C00B76290  13.211  10.756   5.500  0.9563  0.2520 -0.5873
  4114G12c C00A76291  13.127  10.870   5.505  0.2782 -1.2369  1.1637
  4114G12c C00976292  13.030  10.922   5.410  0.1587  1.9008  0.0094
  4114G12c C00876293  12.980  10.888   5.277  1.5675 -0.1428 -0.1139
  4114G12c H01376294  13.010  10.790   5.244  2.4175 -1.4280  4.0972
  4114G12c C00776295  12.895  10.980   5.211  1.2484  1.3541 -1.7307
  4114G12c H01476296  12.837  10.942   5.128  0.9806  0.8463 -1.3206
  4114G12c C00676297  12.930  11.123   5.215 -2.3214  0.5658  1.4311
  4114G12c C00576298  13.005  11.163   5.329  0.4317 -0.4615  0.9757
  4114G12c C00476299  13.056  11.296   5.343 -0.6308  0.5453  0.2086
  4114G12c C00376300  13.151  11.327   5.444 -0.0824  0.3131 -0.6361
  4114G12c C00276301  13.213  11.461   5.435  0.0022 -0.1948 -1.2031
  4114G12c C00176302  13.312  11.533   5.523  0.0256  0.2360  1.2292
  4114G12c C00M76303  13.449  11.474   5.546 -0.3007 -0.4830  1.2383
  4114G12c C00L76304  13.440  11.347   5.603  0.3915  0.6592  1.0951
  4114G12c C00R76305  13.553  11.270   5.609 -0.5499  0.0419  0.0232
  4114G12c C00Q76306  13.705  11.284   5.588  1.2927  0.0926  0.3883
  4114G12c C00V76307  13.790  11.171   5.618  1.8597  0.8384  0.6668
  4114G12c C00U76308  13.745  11.043   5.616 -1.5484 -0.4412  1.9452
  4114G12c C00T76309  13.607  11.020   5.600 -0.0339  0.8148 -0.1358
  4114G12c C01676310  13.542  10.904   5.589  0.4940  0.9211 -1.8400
  4114G12c C01576311  13.625  10.795   5.573 -1.2016 -0.9493 -0.2276
  4114G12c C01076312  13.766  10.810   5.592  0.5602 -0.3332  1.0304
  4114G12c C01176313  13.857  10.701   5.572  0.7035  1.5401 -2.6693
  4114G12c H00576314  13.958  10.667   5.592 -1.0660 -1.4700  1.7816
  4114G12c C01276315  13.793  10.573   5.563 -0.2970 -0.5366  2.2179
  4114G12c C01776316  13.878  10.451   5.548 -0.0195  0.7271  0.8737
  4114G12c O00276317  13.894  10.411   5.417  0.1232 -0.9945 -0.0421
  4114G12c H00476318  13.833  10.349   5.380 -2.4549  0.2889  1.8984
  4114G12c C01876319  13.880  10.364   5.652 -0.8438  0.2296  1.1854
  4114G12c O00176320  13.828  10.411   5.771 -1.1805  0.6718  0.3433
  4114G12c H00376321  13.782  10.493   5.762 -4.1048 -0.9577 -0.5684
  4114G12c C01976322  13.915  10.220   5.647  0.3362  0.1681 -0.2014
  4114G12c H00276323  13.833  10.156   5.678  1.3662 -3.5987 -4.6573
  4114G12c H00176324  13.908  10.198   5.540 -2.9025  4.3807 -0.9746
  4114G12c O00076325  14.018  10.193   5.724  0.2646  0.4169 -0.4254
  4114G12c C01A76326  14.010  10.080   5.801  0.6967  0.6396 -0.1041
  4114G12c C02K76327  14.005  10.093   5.946 -0.7150  1.5539  1.5135
  4114G12c O00G76328  14.023  10.206   6.002 -0.4382 -0.0543 -0.7607
  4114G12c C02M76329  13.922  10.234   6.087  1.1470  0.5885  0.3878
  4114G12c H01G76330  13.943  10.335   6.121  0.5990 -0.1393  2.9802
  4114G12c H01F76331  13.831  10.228   6.027  0.6266  2.0935  1.0213
  4114G12c H01E76332  13.893  10.205   6.188  3.2789  1.6421  1.3302
  4114G12c C02J76333  13.980   9.972   6.020  0.8017 -1.8205 -0.0100
  4114G12c H01H76334  13.961   9.970   6.126  3.2971  0.2942  0.5179
  4114G12c C02I76335  13.936   9.852   5.955 -0.8316 -0.9030 -0.4597
  4114G12c C02N76336  13.870   9.750   6.015  0.5463 -0.3878 -0.5196
  4114G12c H01M76337  13.921   9.717   6.104 -0.4859  3.9547  1.8431
  4114G12c C02O76338  13.737   9.747   5.992 -1.1146 -0.8356 -1.0551
  4114G12c H01L76339  13.718   9.844   5.949 -4.0845 -1.4831 -1.2922
  4114G12c C02P76340  13.640   9.661   6.072 -0.6074  1.1609 -0.5236
  4114G12c H01K76341  13.673   9.623   6.168  1.0245 -1.8184 -2.2103
  4114G12c H01J76342  13.560   9.728   6.104 -0.1696 -1.5686  7.1558
  4114G12c O00H76343  13.625   9.565   5.974 -0.7413 -0.0238 -0.3819
  4114G12c H01I76344  13.704   9.572   5.923 -2.7064  5.8955 -3.0384
  4114G12c C02H76345  13.932   9.862   5.826 -0.3847 -0.9894  1.6685
  4114G12c H01C76346  13.887   9.771   5.791  2.5984 -2.2417  0.9902
  4114G12c C02L76347  13.989   9.952   5.726  1.0915 -0.8505  0.8293
  4114G12c H01D76348  13.997   9.934   5.620  0.8583 -2.5046  1.0847
  4114G12c C01376349  13.650  10.548   5.564 -0.6644 -0.6674 -0.3751
  4114G12c H00076350  13.619  10.444   5.558  2.3363 -1.7697  1.9236
  4114G12c C01476351  13.569  10.660   5.577 -1.9971 -1.0589  2.4613
  4114G12c C00F76352  13.430  10.654   5.559 -1.5175 -0.3620  0.7640
  4114G12c C00H76353  13.406  10.899   5.567  0.5356 -0.7445  0.9082
  4114G12c C00I76354  13.316  11.004   5.594  0.1899  0.2737 -1.8333
  4114G12c C00J76355  13.387  11.122   5.609 -1.7512 -0.1308 -0.4270
  4114G12c C00Z76356  13.827  10.935   5.629 -0.6509 -0.5276 -0.9268
  4114G12c C00Y76357  13.958  10.951   5.622 -0.4417 -1.3068 -1.5924
  4114G12c H00676358  14.019  10.862   5.621  1.6637 -0.0101  2.3784
  4114G12c C00X76359  14.014  11.067   5.610  0.9676  0.4759  0.0846
  4114G12c O00376360  14.137  11.090   5.584  1.0652  0.0425  0.7027
  4114G12c C01B76361  14.215  10.974   5.533  0.4637 -0.9089 -0.3926
  4114G12c H00976362  14.258  10.915   5.614 -3.9084 -3.2455  0.3487
  4114G12c H00876363  14.306  11.008   5.483  1.9270  2.5640  4.3625
  4114G12c H00776364  14.153  10.909   5.471  0.8410 -2.2638  0.6338
  4114G12c C00W76365  13.929  11.181   5.621  0.1483  0.6977  0.3347
  4114G12c O00476366  13.989  11.282   5.572 -0.1566  0.6643  0.2088
  4114G12c C01C76367  13.919  11.374   5.513  0.3724  1.6162 -0.1389
  4114G12c H00A76368  13.970  11.409   5.424 -2.4036 -7.1942 -5.7592
  4114G12c C00P76369  13.774  11.394   5.530  1.1501 -1.5352 -1.2724
  4114G12c C00O76370  13.700  11.500   5.458 -0.5783  0.4832  0.4346
  4114G12c C01D76371  13.773  11.605   5.375 -0.3448  1.1863  0.6186
  4114G12c H00S76372  13.881  11.607   5.370 -0.1784  5.5733  3.5097
  4114G12c C01E76373  13.709  11.685   5.281  2.0160 -0.6303  0.1215
  4114G12c O00876374  13.782  11.768   5.201  0.1312 -0.0846  0.2324
  4114G12c C01V76375  13.782  11.912   5.193  0.5225  0.0912 -0.3468
  4114G12c C01Z76376  13.715  11.993   5.306 -0.8663 -0.0332 -1.2735
  4114G12c H00R76377  13.619  12.043   5.296  0.0606  3.1017  3.6482
  4114G12c H00Q76378  13.732  11.924   5.389 -0.7286 -0.3081 -1.5317
  4114G12c O00976379  13.789  12.105   5.317 -2.7733  0.5219 -0.8413
  4114G12c H00P76380  13.736  12.173   5.357 -0.6435  1.3364  0.7130
  4114G12c C01W76381  13.830  11.965   5.093 -0.7470  0.5267  0.6962
  4114G12c H00O76382  13.885  11.892   5.036  4.7433  0.8957  5.1151
  4114G12c C01X76383  13.860  12.114   5.059  0.0262  0.6640  0.1317
  4114G12c H00N76384  13.784  12.179   5.102  0.0047  0.7680 -0.0638
  4114G12c H00M76385  13.957  12.150   5.091 -0.8808 -0.1478  4.0690
  4114G12c C01Y76386  13.823  12.141   4.903  1.1242 -0.1726 -0.3493
  4114G12c C02D76387  13.687  12.113   4.866  1.8799  0.4219 -0.1607
  4114G12c H01976388  13.621  12.041   4.913  1.1349 -1.0978 -3.3558
  4114G12c C02C76389  13.627  12.184   4.757  0.4988  0.4710  0.5749
  4114G12c H01A76390  13.532  12.166   4.711  0.4537 -0.2886  0.9511
  4114G12c C02B76391  13.715  12.265   4.684  0.5709 -0.3855 -0.0024
  4114G12c O00E76392  13.696  12.290   4.554 -1.7324 -1.1305  1.1501
  4114G12c H01B76393  13.779  12.318   4.518 -1.0911 -3.6203  0.6302
  4114G12c C02F76394  13.833  12.304   4.731  1.6334  0.6174 -0.1568
  4114G12c O00F76395  13.910  12.385   4.657 -0.1118  1.2946  1.0124
  4114G12c C02G76396  13.974  12.507   4.699  0.7000  0.1690  1.2608
  4114G12c H01776397  13.945  12.580   4.775  4.4323  2.6700  0.4648
  4114G12c H01676398  13.994  12.585   4.624  0.1349  2.4648  3.4268
  4114G12c H01576399  14.080  12.485   4.687  0.0762 -1.3863 -2.1027
  4114G12c C02E76400  13.899  12.242   4.841 -0.0281 -0.9862  0.2351
  4114G12c H01876401  13.998  12.258   4.880  0.0073 -0.8218  0.0821
  4114G12c C01F76402  13.569  11.683   5.285  0.9934 -0.0829  0.9225
  4114G12c C01G76403  13.471  11.745   5.197  1.5296  0.0496  0.2289
  4114G12c H00L76404  13.508  11.810   5.119  0.2334 -0.6696 -1.0179
  4114G12c C01H76405  13.335  11.699   5.190 -0.2815  0.4625  0.3261
  4114G12c H00B76406  13.293  11.668   5.096 -1.9635  0.7275  0.9678
  4114G12c C01I76407  13.285  11.649   5.318  0.1984  0.5968 -0.7880
  4114G12c C01U76408  13.504  11.627   5.399 -1.0328 -1.8859  1.2368
  4114G12c C00S76409  13.525  11.126   5.608 -0.3253 -0.1653 -0.3418
  4114G12c C00K76410  13.332  11.254   5.590 -0.1120  0.9049 -0.4335
  4114G12c C00N76411  13.563  11.533   5.481 -1.5898 -0.4627 -0.9600
  4114G12c C00076412  13.362  11.645   5.440  0.8095  1.1373 -0.6713
  4114G12c C01J76413  13.180  11.543   5.322  0.6162 -1.3574  0.5729
  4114G12c C01K76414  13.075  11.523   5.233 -0.1710 -1.5208 -0.2171
  4114G12c C01P76415  13.016  11.615   5.149  0.5160  2.5536  1.0905
  4114G12c C01Q76416  13.011  11.755   5.177 -0.0831 -0.2212 -0.2024
  4114G12c H00G76417  12.983  11.819   5.095  0.3171 -3.8777 -3.3246
  4114G12c C01R76418  13.008  11.786   5.311 -0.7474 -0.5006  0.8293
  4114G12c H00F76419  13.012  11.700   5.376 -1.6179 -2.0103 -1.0716
  4114G12c C01S76420  12.963  11.911   5.391  2.3606  0.9889  0.7941
  4114G12c H00E76421  12.991  11.901   5.496 -0.7738 -5.5417  1.2122
  4114G12c H00D76422  13.051  11.968   5.359  1.5291  1.6067 -0.3907
  4114G12c O00576423  12.853  11.913   5.335  2.8478 -0.0681 -0.3467
  4114G12c H00C76424  12.870  11.971   5.263  1.6353  1.5933  0.6766
  4114G12c C01O76425  12.928  11.572   5.041  1.4751  0.3465 -1.7360
  4114G12c H00H76426  12.871  11.643   4.982 -1.6947  1.3394  2.2931
  4114G12c C01N76427  12.900  11.439   5.015  3.1050 -1.1048  0.9774
  4114G12c O00676428  12.845  11.402   4.899 -0.8077  0.3326 -0.2566
  4114G12c C01T76429  12.719  11.350   4.886 -0.3287 -2.0375  0.4944
  4114G12c H00K76430  12.653  11.436   4.882  2.2818 -0.0060 -0.9095
  4114G12c H00J76431  12.715  11.301   4.789  2.5701 -6.3490  2.4029
  4114G12c H00I76432  12.672  11.271   4.944 -1.8577 -3.5983 -2.7621
  4114G12c C01M76433  12.935  11.345   5.124 -1.0621 -0.8807  1.7572
  4114G12c C02076434  13.195  11.245   5.543  0.1737 -0.7449 -0.1604
  4114G12c C02176435  13.121  11.114   5.534  1.4154  0.2979 -0.3483
  4114G12c C01L76436  13.027  11.388   5.233 -0.5166  0.6623 -0.5823
  4114G12c O00776437  12.887  11.218   5.132  0.2656  0.2969  1.1636
  4114G12c C02276438  13.051  11.063   5.426  0.5296  1.4930  0.1598
  4114G12c C02376439  13.179  10.992   5.558  0.1704 -2.1977  1.7906
  4114G12c C00G76440  13.349  10.775   5.536 -0.6747  1.3115 -1.0915
  4114G12c C00E76441  13.353  10.525   5.547 -1.1968 -1.8228 -0.9600
  4114G12c O00A76442  13.409  10.403   5.606 -0.4917  0.7210  0.2249
  4114G12c C02476443  13.438  10.406   5.739  1.1762 -0.9544 -1.0664
  4114G12c H00V76444  13.516  10.337   5.771  1.8232  1.3681  2.6184
  4114G12c H00U76445  13.455  10.506   5.779  4.4422 -2.3255  1.1959
  4114G12c H00T76446  13.356  10.358   5.792  2.7354  0.1172  2.4982
  4124G12c C00D76447   9.097   4.899   1.792 -0.5495  0.7497 -1.6631
  4124G12c O00B76448   9.135   4.784   1.825  0.5471  0.1368 -0.0797
  4124G12c C02576449   9.256   4.736   1.863 -0.2162  2.2936  0.0953
  4124G12c C02676450   9.291   4.706   2.012  2.5207 -0.3279  0.5180
  4124G12c H00Y76451   9.386   4.682   2.061 -0.7014 -2.7249  6.1050
  4124G12c H00X76452   9.258   4.603   2.019  2.8216 -0.3071  2.4080
  4124G12c O00C76453   9.233   4.795   2.107  0.5377 -1.5476  1.0283
  4124G12c H00W76454   9.280   4.856   2.161 -1.7176  8.2130 -6.6832
  4124G12c C02776455   9.320   4.661   1.777  0.1499 -0.2149  0.8300
  4124G12c O00D76456   9.302   4.666   1.645 -0.9287 -0.1528  0.1461
  4124G12c H00Z76457   9.361   4.708   1.584  0.8796  2.2380  3.4013
  4124G12c C02876458   9.441   4.573   1.808 -0.2800 -1.3979  0.6821
  4124G12c C02976459   9.567   4.585   1.766 -0.7849  0.1509 -0.8063
  4124G12c H01076460   9.598   4.666   1.700  3.0128 -4.0133 -4.4448
  4124G12c C02T76461   9.684   4.517   1.825  0.1628 -1.3469  1.1068
  4124G12c H01O76462   9.772   4.557   1.777 -2.6883 -2.8768 -5.9008
  4124G12c C02S76463   9.657   4.412   1.904  2.2891  0.0909  0.0025
  4124G12c O00J76464   9.743   4.334   1.961 -0.2775 -0.9334 -0.7541
  4124G12c H01P76465   9.725   4.241   1.962  2.0639 -1.4164  0.2934
  4124G12c C02R76466   9.524   4.361   1.893  0.2576 -0.7693  0.5673
  4124G12c O00I76467   9.486   4.246   1.946  1.8363 -0.4400  1.0054
  4124G12c C02Q76468   9.481   4.238   2.082 -2.3236 -0.1818  0.9742
  4124G12c H01N76469   9.571   4.261   2.140 -0.6111 -0.0963 -1.6107
  4124G12c H01R76470   9.406   4.172   2.124 -4.5997  0.3945 -2.0632
  4124G12c H01Q76471   9.427   4.323   2.123  2.3003  3.9852 -0.9893
  4124G12c C02A76472   9.404   4.436   1.866  0.8445 -0.3537  1.7910
  4124G12c H01176473   9.311   4.383   1.883  0.2835  0.4593  1.2922
  4124G12c C00C76474   9.154   5.014   1.844  0.7285 -0.0185  0.5856
  4124G12c H01276475   9.244   5.017   1.902  2.6966  2.3906 -2.4027
  4124G12c C00B76476   9.082   5.138   1.856  2.1876 -0.5460  1.4364
  4124G12c C00A76477   9.116   5.259   1.919  0.5602 -0.7003  0.3377
  4124G12c C00976478   9.097   5.248   2.060  0.7865 -0.9172  0.0833
  4124G12c C00876479   9.101   5.140   2.151 -1.1416  0.5857 -0.8083
  4124G12c H01376480   9.133   5.047   2.105 -1.5488  1.9931 -4.0687
  4124G12c C00776481   9.053   5.171   2.280  2.5608 -1.8790 -0.6312
  4124G12c H01476482   9.014   5.095   2.346  2.7409 -0.1672  1.4867
  4124G12c C00676483   9.012   5.302   2.332  0.6012 -0.7808 -0.1534
  4124G12c C00576484   8.991   5.384   2.224  1.2822 -2.3835 -1.7091
  4124G12c C00476485   8.903   5.498   2.235 -0.3592 -0.5703 -0.3677
  4124G12c C00376486   8.889   5.592   2.131 -0.4381  0.8823  0.0594
  4124G12c C00276487   8.795   5.694   2.134 -1.4107 -0.8063 -0.3378
  4124G12c C00176488   8.734   5.792   2.047  0.4403 -1.0683  0.5743
  4124G12c C00M76489   8.700   5.781   1.910  0.0332  0.2797 -1.1635
  4124G12c C00L76490   8.764   5.682   1.828 -0.1239 -0.1209  1.5789
  4124G12c C00R76491   8.716   5.621   1.708 -0.1393  0.1450  1.1629
  4124G12c C00Q76492   8.587   5.635   1.640 -1.5429  0.7168 -1.7096
  4124G12c C00V76493   8.564   5.538   1.546  1.3547  0.5285 -0.7400
  4124G12c C00U76494   8.625   5.418   1.542 -0.1052  1.3557 -0.8093
  4124G12c C00T76495   8.749   5.409   1.600  1.7739  0.0230 -0.9666
  4124G12c C01676496   8.813   5.285   1.634  0.5818 -0.9243  1.2231
  4124G12c C01576497   8.764   5.171   1.564 -1.0918 -2.1819 -0.3933
  4124G12c C01076498   8.648   5.183   1.497  0.7876 -0.7902 -1.3811
  4124G12c C01176499   8.583   5.071   1.453  0.2397 -0.4236  0.0599
  4124G12c H00576500   8.495   5.060   1.393 -1.8958 -1.2293  3.2133
  4124G12c C01276501   8.648   4.952   1.428 -0.4455  1.0751  0.2544
  4124G12c C01776502   8.596   4.834   1.339  1.2012 -0.5464 -0.3314
  4124G12c O00276503   8.649   4.826   1.214  0.0135 -0.0500 -0.1561
  4124G12c H00476504   8.627   4.746   1.169 -0.6792 -3.9391  6.3591
  4124G12c C01876505   8.524   4.736   1.388 -0.1940 -0.0531  1.1146
  4124G12c O00176506   8.522   4.746   1.533  1.3151  1.1182  0.6482
  4124G12c H00376507   8.531   4.840   1.531 -0.5354  1.4388 -5.8026
  4124G12c C01976508   8.481   4.606   1.309  0.1133 -1.4645 -1.9409
  4124G12c H00276509   8.491   4.518   1.371  2.4940  1.2723  1.7509
  4124G12c H00176510   8.375   4.624   1.292  0.6888  3.0661 -1.4382
  4124G12c O00076511   8.527   4.594   1.184  0.2166  1.1314  0.8173
  4124G12c C01A76512   8.572   4.474   1.149 -0.8439  0.4047 -0.4708
  4124G12c C02K76513   8.655   4.403   1.236 -0.2610  2.0433 -0.6060
  4124G12c O00G76514   8.728   4.470   1.340  0.4522  0.3120 -1.9759
  4124G12c C02M76515   8.872   4.493   1.324  1.0182  1.6988  0.8733
  4124G12c H01G76516   8.960   4.431   1.306  5.0856  7.0687  1.0586
  4124G12c H01F76517   8.883   4.560   1.410 -1.2446  8.2797 -3.5770
  4124G12c H01E76518   8.896   4.554   1.237 -0.5101  3.6164  1.7755
  4124G12c C02J76519   8.705   4.266   1.206  3.5039 -0.4682 -2.1082
  4124G12c H01H76520   8.796   4.246   1.261  0.8608  0.8723  3.0848
  4124G12c C02I76521   8.653   4.201   1.091  0.3094 -0.4887  0.8755
  4124G12c C02N76522   8.694   4.072   1.053  0.0540  0.5041 -0.1327
  4124G12c H01M76523   8.622   3.992   1.062  0.6785  0.2033  2.3936
  4124G12c C02O76524   8.788   4.053   0.952  2.0135  0.4756 -1.1763
  4124G12c H01L76525   8.808   4.151   0.911 -1.4394 -0.2930 -5.0464
  4124G12c C02P76526   8.781   3.933   0.854  0.1606 -0.6170  0.8386
  4124G12c H01K76527   8.850   3.975   0.781 -4.2910 -1.8606 -4.4336
  4124G12c H01J76528   8.826   3.868   0.929 -0.0733  2.6595  3.9206
  4124G12c O00H76529   8.642   3.900   0.810  0.2524  1.2786 -0.5058
  4124G12c H01I76530   8.591   3.947   0.746  2.9578  8.8887  2.3397
  4124G12c C02H76531   8.561   4.282   1.018  0.0191  0.8943 -0.3731
  4124G12c H01C76532   8.537   4.242   0.921 -5.8562  2.4677  0.2300
  4124G12c C02L76533   8.528   4.419   1.040  0.2922  1.3162  1.1029
  4124G12c H01D76534   8.443   4.444   0.978 -0.3395  0.2317  1.5356
  4124G12c C01376535   8.775   4.938   1.491  0.0145  1.0488 -1.0324
  4124G12c H00076536   8.856   4.872   1.461  2.7799  0.3325  6.7932
  4124G12c C01476537   8.824   5.049   1.587 -0.3605 -0.4964  0.0645
  4124G12c C00F76538   8.936   5.033   1.679  1.2086 -0.4829  1.6380
  4124G12c C00H76539   8.921   5.275   1.722  0.5205 -0.9846 -2.5342
  4124G12c C00I76540   8.958   5.394   1.784 -0.1818  0.3687 -1.5112
  4124G12c C00J76541   8.891   5.511   1.767  1.4054  0.9189 -1.0988
  4124G12c C00Z76542   8.562   5.301   1.485  1.8251 -0.8771 -0.5892
  4124G12c C00Y76543   8.446   5.305   1.417  0.0678 -0.8300 -0.3230
  4124G12c H00676544   8.386   5.229   1.369 -0.4050 -1.5182  1.3171
  4124G12c C00X76545   8.397   5.433   1.386  1.3672 -0.3370 -0.1007
  4124G12c O00376546   8.288   5.420   1.310  0.5889  1.4611  0.2665
  4124G12c C01B76547   8.327   5.374   1.168 -0.7106  0.2801 -1.1367
  4124G12c H00976548   8.248   5.334   1.105  2.7264  0.3701 -5.7720
  4124G12c H00876549   8.361   5.475   1.145  2.0936 -0.5633 -0.8571
  4124G12c H00776550   8.400   5.294   1.179 -0.8419 -0.4884 -5.0419
  4124G12c C00W76551   8.443   5.554   1.460 -0.8083  0.0094 -0.6058
  4124G12c O00476552   8.408   5.687   1.440 -0.8596 -0.2527  0.1514
  4124G12c C01C76553   8.405   5.747   1.550  0.0615 -1.2142  0.3819
  4124G12c H00A76554   8.303   5.771   1.577 -0.9383 -0.4445 -3.7846
  4124G12c C00P76555   8.493   5.732   1.654 -1.2954  1.0777  1.2243
  4124G12c C00O76556   8.460   5.778   1.788 -0.5275 -1.6481 -0.6919
  4124G12c C01D76557   8.325   5.786   1.829  0.9211 -1.2532  0.7248
  4124G12c H00S76558   8.241   5.793   1.761 -0.3742  5.0099  2.7126
  4124G12c C01E76559   8.287   5.795   1.970 -1.3281 -0.0129  1.2640
  4124G12c O00876560   8.173   5.742   2.020  1.6878  0.6495 -0.0996
  4124G12c C01V76561   8.071   5.728   1.936 -1.3871  0.1569 -1.9862
  4124G12c C01Z76562   8.006   5.600   1.980  1.4090 -0.6113 -0.1018
  4124G12c H00R76563   8.059   5.525   1.921 -0.2240  2.1334 -5.4186
  4124G12c H00Q76564   8.053   5.578   2.076  1.1564 -2.6889 -0.4419
  4124G12c O00976565   7.864   5.609   1.991  1.4789 -0.7554  0.3589
  4124G12c H00P76566   7.806   5.540   1.962  0.3936  2.7088 -6.8367
  4124G12c C01W76567   8.006   5.831   1.885  1.7258 -1.1775 -1.7198
  4124G12c H00O76568   7.950   5.793   1.800  1.0025  7.4590 -5.6961
  4124G12c C01X76569   8.033   5.976   1.844  1.0958  0.8565 -0.2415
  4124G12c H00N76570   8.126   5.997   1.897 -0.2132 -3.6325  4.1221
  4124G12c H00M76571   8.066   5.972   1.740 -1.0132  2.0168 -0.9910
  4124G12c C01Y76572   7.924   6.078   1.860  0.9109 -1.8555  0.9384
  4124G12c C02D76573   7.907   6.159   1.735 -0.1045 -0.4668 -0.4642
  4124G12c H01976574   7.987   6.127   1.669  6.7642  1.8338  6.1094
  4124G12c C02C76575   7.833   6.275   1.717  0.7854  0.1859 -0.0929
  4124G12c H01A76576   7.848   6.354   1.645 -0.7748  3.3080  2.8159
  4124G12c C02B76577   7.739   6.281   1.817  0.1192  1.4806 -0.7811
  4124G12c O00E76578   7.663   6.393   1.824  0.2833 -0.4920  0.7971
  4124G12c H01B76579   7.640   6.417   1.913 -5.0629  2.6685 -1.2110
  4124G12c C02F76580   7.731   6.190   1.939  0.3498 -1.8398  0.3517
  4124G12c O00F76581   7.649   6.207   2.059 -0.4721 -0.4626 -0.5523
  4124G12c C02G76582   7.608   6.332   2.109  0.5593  0.2968  2.3942
  4124G12c H01776583   7.651   6.377   2.198  4.7167  0.2088  0.5309
  4124G12c H01676584   7.509   6.315   2.152  0.1329 -0.5359  1.1229
  4124G12c H01576585   7.569   6.421   2.060  1.5398 -2.8008 -4.6842
  4124G12c C02E76586   7.820   6.086   1.958  2.0071 -0.8752  0.8624
  4124G12c H01876587   7.805   5.997   2.017  3.4675 -1.0040  1.0637
  4124G12c C01F76588   8.380   5.801   2.074  1.2747  0.1467  1.6888
  4124G12c C01G76589   8.363   5.767   2.209 -1.2311 -1.7876 -1.2092
  4124G12c H00L76590   8.269   5.714   2.216 -3.8312  2.3780 -2.7097
  4124G12c C01H76591   8.468   5.726   2.291 -0.7357  0.2216 -0.3530
  4124G12c H00B76592   8.481   5.641   2.356 -2.6965  0.7894  0.8392
  4124G12c C01I76593   8.612   5.768   2.247 -0.7854  1.0448 -0.1222
  4124G12c C01U76594   8.507   5.843   2.033  0.6523  0.7025 -1.8368
  4124G12c C00S76595   8.801   5.524   1.655  0.0555 -0.8816 -1.0024
  4124G12c C00K76596   8.871   5.597   1.869  0.2670 -1.1644 -2.1211
  4124G12c C00N76597   8.551   5.784   1.902  1.0535  0.5494 -0.7191
  4124G12c C00076598   8.616   5.837   2.124 -1.8909  2.5589 -0.0383
  4124G12c C01J76599   8.725   5.696   2.259 -0.3046  0.1907  0.4629
  4124G12c C01K76600   8.765   5.640   2.389 -1.1118  0.1958  1.0372
  4124G12c C01P76601   8.723   5.652   2.518  0.5427 -1.0151  1.7528
  4124G12c C01Q76602   8.686   5.784   2.567  0.6785 -1.2188  0.3609
  4124G12c H00G76603   8.703   5.879   2.519  2.4931  0.6237  4.4146
  4124G12c C01R76604   8.636   5.803   2.679 -1.4424  1.1071  0.9978
  4124G12c H00F76605   8.663   5.744   2.765 -2.3786 -3.1433 -1.4903
  4124G12c C01S76606   8.591   5.943   2.715  2.2786 -0.2556  0.7959
  4124G12c H00E76607   8.624   5.988   2.809  3.1757 -0.3789  0.5384
  4124G12c H00D76608   8.610   6.007   2.629  4.4812 -0.9581  0.7167
  4124G12c O00576609   8.442   5.935   2.718  0.0099 -0.3680 -0.0893
  4124G12c H00C76610   8.409   5.892   2.640  0.9379 -4.4611  1.6656
  4124G12c C01O76611   8.743   5.550   2.605  0.1645 -0.0972 -0.6673
  4124G12c H00H76612   8.714   5.558   2.709 -1.3188 -1.4463 -0.9671
  4124G12c C01N76613   8.830   5.455   2.594  1.3050 -1.0571 -0.7391
  4124G12c O00676614   8.831   5.362   2.703 -0.3104  0.6160  0.1700
  4124G12c C01T76615   8.749   5.246   2.649  0.7745 -1.0914  1.1332
  4124G12c H00K76616   8.775   5.187   2.561 -0.2310 -1.6590  1.2162
  4124G12c H00J76617   8.642   5.241   2.665  1.2327  3.2479  7.2911
  4124G12c H00I76618   8.781   5.154   2.697  3.2973 -1.0464 -0.3596
  4124G12c C01M76619   8.893   5.445   2.475 -0.3114 -0.4773  0.4995
  4124G12c C02076620   8.934   5.558   2.001  2.1927  1.7143  0.2271
  4124G12c C02176621   9.052   5.467   1.993  0.1291  0.2730  0.4345
  4124G12c C01L76622   8.850   5.523   2.363 -2.6870 -0.7471 -0.2349
  4124G12c O00776623   8.959   5.326   2.462 -1.0732 -0.4984  1.8542
  4124G12c C02276624   9.066   5.377   2.094  0.7017 -0.2952  0.0088
  4124G12c C02376625   9.058   5.382   1.879 -0.6443 -0.5166 -0.4424
  4124G12c C00G76626   8.986   5.153   1.747 -0.5022  0.0129  0.1848
  4124G12c C00E76627   9.007   4.912   1.693 -2.0555  1.0375 -0.3301
  4124G12c O00A76628   8.958   4.794   1.622 -1.3648 -0.7867 -1.0787
  4124G12c C02476629   8.897   4.694   1.694  1.6032  1.7740 -1.0003
  4124G12c H00V76630   8.853   4.720   1.790 -2.5232 -0.1229 -2.2729
  4124G12c H00U76631   8.825   4.675   1.614  4.7480 -0.2835 -3.5012
  4124G12c H00T76632   8.942   4.596   1.709 -4.2308 -0.1587  6.7276
  4134G12c C00D76633   5.724  11.501   5.930 -0.6073 -0.5738  0.1412
  4134G12c O00B76634   5.615  11.571   5.875  0.2927 -0.5025 -0.1641
  4134G12c C02576635   5.475  11.538   5.913 -3.0161  1.7260 -0.1782
  4134G12c C02676636   5.402  11.423   5.839  1.5084  0.1801  1.2069
  4134G12c H00Y76637   5.362  11.474   5.752  5.2510  0.0472 -0.7150
  4134G12c H00X76638   5.309  11.375   5.870 -2.3220  5.2179 -1.7704
  4134G12c O00C76639   5.487  11.330   5.793  0.8399 -0.7097  0.6474
  4134G12c H00W76640   5.536  11.386   5.735  2.3841 -1.0496  1.6010
  4134G12c C02776641   5.396  11.605   6.008 -1.7215  0.0235  0.4611
  4134G12c O00D76642   5.447  11.736   6.047  0.4003 -0.2558  0.5933
  4134G12c H00Z76643   5.537  11.709   6.058  0.8963  1.8282  1.7546
  4134G12c C02876644   5.268  11.562   6.046  0.0742  1.3665 -1.9482
  4134G12c C02976645   5.153  11.640   6.054  3.3723  0.7668 -1.1752
  4134G12c H01076646   5.145  11.723   5.985 -0.2047  1.4272 -0.0739
  4134G12c C02T76647   5.034  11.596   6.109 -0.6563 -0.8829 -1.1873
  4134G12c H01O76648   4.947  11.653   6.080 -3.9581  1.1831 10.1093
  4134G12c C02S76649   5.027  11.490   6.202  1.2389  1.0504 -2.0147
  4134G12c O00J76650   4.914  11.427   6.247 -1.9754  1.2578 -0.7335
  4134G12c H01P76651   4.957  11.366   6.305 -3.9602 -0.4763 -1.0452
  4134G12c C02R76652   5.144  11.413   6.210 -0.7300  0.1263 -1.4777
  4134G12c O00I76653   5.139  11.311   6.297  0.3778 -1.2915  1.4419
  4134G12c C02Q76654   5.173  11.177   6.243  0.5679 -1.6649  1.5142
  4134G12c H01N76655   5.157  11.081   6.291  7.8892 -4.5346 -1.1666
  4134G12c H01R76656   5.280  11.164   6.251  0.8061  0.0948  1.4818
  4134G12c H01Q76657   5.136  11.143   6.146 -1.9516  0.9369  1.4665
  4134G12c C02A76658   5.255  11.441   6.123  1.0164 -0.2425  1.6447
  4134G12c H01176659   5.336  11.370   6.119  4.2686  3.3955 -0.8685
  4134G12c C00C76660   5.692  11.378   5.998 -0.9459  0.0094  2.0461
  4134G12c H01276661   5.592  11.338   5.987 -3.3432  6.5007 -3.8076
  4134G12c C00B76662   5.798  11.278   6.035 -0.3057  0.3784 -0.3570
  4134G12c C00A76663   5.775  11.135   6.028  0.7316 -1.1374 -1.1927
  4134G12c C00976664   5.671  11.068   6.090  1.6999  0.7696  0.8462
  4134G12c C00876665   5.536  11.073   6.101 -1.7997 -0.6793  0.2765
  4134G12c H01376666   5.505  11.128   6.013 -1.7354 -6.5077 -3.7289
  4134G12c C00776667   5.462  10.987   6.187 -0.2167 -0.5282  0.2445
  4134G12c H01476668   5.355  10.998   6.175  0.6199  6.1619 -3.4045
  4134G12c C00676669   5.520  10.886   6.275  0.2616 -0.0809 -0.5702
  4134G12c C00576670   5.648  10.856   6.226  0.8171 -0.5311  0.4432
  4134G12c C00476671   5.735  10.761   6.292 -0.4949 -2.1562  1.0474
  4134G12c C00376672   5.870  10.759   6.262  1.0753 -0.6705 -0.1710
  4134G12c C00276673   5.955  10.679   6.350 -1.2728  0.0831 -0.3088
  4134G12c C00176674   6.103  10.654   6.371 -0.1582 -0.1415 -0.9658
  4134G12c C00M76675   6.183  10.768   6.386  1.2914  2.6774  0.3305
  4134G12c C00L76676   6.155  10.892   6.332  0.5820  1.3698 -0.5507
  4134G12c C00R76677   6.247  11.003   6.335  1.1132  0.7689 -0.2687
  4134G12c C00Q76678   6.348  11.038   6.433 -0.4939 -0.9190 -0.3233
  4134G12c C00V76679   6.382  11.175   6.405 -0.2954 -0.4642 -1.1994
  4134G12c C00U76680   6.332  11.246   6.288  0.6167 -0.5039  0.9745
  4134G12c C00T76681   6.246  11.203   6.196  0.5065  0.4356 -1.4214
  4134G12c C01676682   6.154  11.279   6.129 -0.4714 -1.4493  0.5675
  4134G12c C01576683   6.173  11.413   6.121  0.1940 -0.2858 -1.2339
  4134G12c C01076684   6.289  11.470   6.192 -1.3465 -0.5564 -0.4321
  4134G12c C01176685   6.318  11.602   6.179  0.9379  0.7979 -0.1402
  4134G12c H00576686   6.399  11.635   6.243  0.4931  5.7481 -1.8875
  4134G12c C01276687   6.247  11.685   6.073 -0.0132 -0.4701  0.0778
  4134G12c C01776688   6.249  11.839   6.066  0.8340  1.1349  1.6854
  4134G12c O00276689   6.134  11.903   6.036  0.4927 -0.3050  0.6459
  4134G12c H00476690   6.078  11.826   6.039 -2.9769  2.1171  0.7995
  4134G12c C01876691   6.362  11.902   6.071 -0.7301  0.9246 -0.4822
  4134G12c O00176692   6.473  11.838   6.106 -1.9882  0.6189 -1.1353
  4134G12c H00376693   6.559  11.878   6.102 -2.0801  0.7051 -2.9357
  4134G12c C01976694   6.368  12.053   6.050  0.3415 -0.0107  1.4106
  4134G12c H00276695   6.292  12.074   5.974  4.8706  3.7097 -2.4368
  4134G12c H00176696   6.338  12.091   6.147 -0.4187  2.0632  0.3770
  4134G12c O00076697   6.499  12.096   6.019  0.3235 -1.3771  0.9554
  4134G12c C01A76698   6.537  12.096   5.890 -1.5818  0.5751  1.0933
  4134G12c C02K76699   6.663  12.029   5.871  0.1160 -0.5262  0.0987
  4134G12c O00G76700   6.696  11.937   5.961  0.2287  0.7651 -0.6817
  4134G12c C02M76701   6.760  12.010   6.073  0.4161  0.7820 -1.8796
  4134G12c H01G76702   6.693  12.077   6.126  4.1485  0.9162  2.9498
  4134G12c H01F76703   6.771  11.934   6.150 -4.4788 -1.3549 -3.0192
  4134G12c H01E76704   6.858  12.056   6.062  2.9228 -2.6729  3.8262
  4134G12c C02J76705   6.718  12.012   5.749  0.4214  0.4166  0.9378
  4134G12c H01H76706   6.796  11.950   5.706 -1.3925 -2.0323  1.0850
  4134G12c C02I76707   6.667  12.105   5.645  1.8961  1.9854 -2.1771
  4134G12c C02N76708   6.732  12.133   5.514  0.2346 -0.6116 -1.2058
  4134G12c H01M76709   6.754  12.040   5.462 -3.8948  0.2207 -4.6853
  4134G12c C02O76710   6.790  12.249   5.479 -0.3184  1.4319 -2.1457
  4134G12c H01L76711   6.786  12.339   5.538 -0.2103 -2.0510  3.5495
  4134G12c C02P76712   6.888  12.262   5.371 -2.6843  0.0080 -0.5994
  4134G12c H01K76713   6.871  12.202   5.281 -6.3501 -1.5965  1.0358
  4134G12c H01J76714   6.904  12.357   5.322 -5.3260  0.1639 -1.2238
  4134G12c O00H76715   7.013  12.276   5.436 -0.0699 -0.9902 -0.2451
  4134G12c H01I76716   6.993  12.195   5.481 -3.9147  0.2696  0.4814
  4134G12c C02H76717   6.564  12.190   5.679  0.1635  1.4542 -0.8653
  4134G12c H01C76718   6.565  12.282   5.623 -3.0635  1.8944 -0.2651
  4134G12c C02L76719   6.488  12.179   5.796 -2.0532 -0.3566 -0.6125
  4134G12c H01D76720   6.404  12.241   5.825 -1.2240  2.0859 -3.1648
  4134G12c C01376721   6.145  11.615   6.000  1.0233 -0.2149  0.2726
  4134G12c H00076722   6.073  11.672   5.944  4.6324  9.6946  4.5226
  4134G12c C01476723   6.099  11.484   6.020 -0.3129  0.9079  0.0701
  4134G12c C00F76724   5.955  11.444   6.003 -1.0167 -0.3814  1.1563
  4134G12c C00H76725   6.038  11.224   6.084 -0.4218  1.5528  0.0196
  4134G12c C00I76726   6.013  11.081   6.081 -1.3892 -0.6725  0.4009
  4134G12c C00J76727   6.117  11.011   6.157 -0.2720  0.9177 -0.5713
  4134G12c C00Z76728   6.367  11.388   6.275 -0.0597  0.2059  0.2853
  4134G12c C00Y76729   6.499  11.420   6.323  2.5960  0.5128 -1.9681
  4134G12c H00676730   6.537  11.519   6.304  4.4261  0.1335 -0.3683
  4134G12c C00X76731   6.573  11.329   6.406 -0.4970 -0.0573 -0.2988
  4134G12c O00376732   6.711  11.357   6.445 -0.6361 -0.5406  0.6877
  4134G12c C01B76733   6.748  11.398   6.572 -0.0938 -0.3169  0.2585
  4134G12c H00976734   6.676  11.475   6.602 -1.4114 -1.8643  1.1121
  4134G12c H00876735   6.849  11.437   6.585  2.0352 -3.9752 -3.9650
  4134G12c H00776736   6.763  11.305   6.627  3.9105 -2.3325 -3.9153
  4134G12c C00W76737   6.500  11.222   6.469 -2.1299 -0.1535  2.8945
  4134G12c O00476738   6.569  11.157   6.561  0.3663  0.2468 -0.5717
  4134G12c C01C76739   6.526  11.039   6.599 -1.8307  0.8542  2.0130
  4134G12c H00A76740   6.590  10.993   6.673  1.3863  0.5246 -0.8795
  4134G12c C00P76741   6.398  10.979   6.550  0.2626  1.0024 -1.5058
  4134G12c C00O76742   6.347  10.848   6.587 -1.6359  0.6992  0.2441
  4134G12c C01D76743   6.371  10.802   6.732  1.1336 -0.1629 -1.2565
  4134G12c H00S76744   6.432  10.873   6.785 -0.0173 -2.6410  3.6635
  4134G12c C01E76745   6.303  10.696   6.796  0.8081  0.0551 -0.1238
  4134G12c O00876746   6.292  10.678   6.936  0.9719  1.5283  0.4635
  4134G12c C01V76747   6.357  10.772   7.017  1.0317  1.4000  2.0851
  4134G12c C01Z76748   6.253  10.874   7.076 -1.0593 -0.2023 -0.2837
  4134G12c H00R76749   6.157  10.842   7.115 -0.4501  4.0011  5.2912
  4134G12c H00Q76750   6.298  10.942   7.148 -3.8056  1.5456 -0.1188
  4134G12c O00976751   6.248  10.986   6.989  0.1809  1.0022  1.3299
  4134G12c H00P76752   6.186  10.979   6.918  0.6057  7.7052 -0.0278
  4134G12c C01W76753   6.487  10.755   7.040  1.0942 -1.7899 -0.1952
  4134G12c H00O76754   6.535  10.823   7.109 -3.0487 -0.4218  1.5458
  4134G12c C01X76755   6.584  10.666   6.976  0.6171 -0.9947 -0.4766
  4134G12c H00N76756   6.629  10.637   7.071 -5.3161 -0.9726  2.5356
  4134G12c H00M76757   6.550  10.564   6.958 -0.2610 -1.6779  4.3573
  4134G12c C01Y76758   6.678  10.693   6.867 -1.4396  0.2459  0.2929
  4134G12c C02D76759   6.647  10.655   6.728  1.1357 -0.6906 -0.1931
  4134G12c H01976760   6.567  10.582   6.717  1.7146 -1.7002  1.9135
  4134G12c C02C76761   6.731  10.689   6.636  0.3726  1.3567  1.9335
  4134G12c H01A76762   6.727  10.628   6.547  0.3616  0.8479  2.2816
  4134G12c C02B76763   6.844  10.767   6.665 -0.8900 -0.7246  0.2908
  4134G12c O00E76764   6.924  10.796   6.558 -1.5439 -0.3653 -1.1683
  4134G12c H01B76765   7.012  10.815   6.584 -0.1856 -2.2297 -4.1767
  4134G12c C02F76766   6.890  10.794   6.789  1.4086  1.1656 -0.6079
  4134G12c O00F76767   6.988  10.873   6.819  0.6728 -0.0650  0.7297
  4134G12c C02G76768   6.968  10.987   6.906  0.2324  0.2147 -0.2639
  4134G12c H01776769   7.036  10.950   6.982 -0.9553 -2.5086 -0.4814
  4134G12c H01676770   6.878  11.044   6.932  0.0119 -1.5671  3.1347
  4134G12c H01576771   7.018  11.070   6.856  5.1373  0.9895  5.3862
  4134G12c C02E76772   6.806  10.756   6.887  0.4748 -0.4755 -1.9818
  4134G12c H01876773   6.824  10.774   6.992  0.9647 -0.1013 -2.1271
  4134G12c C01F76774   6.198  10.629   6.712 -0.9004  2.1187  0.3851
  4134G12c C01G76775   6.084  10.578   6.760  0.0041 -0.6507  1.5691
  4134G12c H00L76776   6.060  10.545   6.861 -3.3379 -0.5868  0.8686
  4134G12c C01H76777   5.968  10.554   6.689  0.0035 -0.5535 -0.6738
  4134G12c H00B76778   5.872  10.558   6.737  1.1883 -1.7333  1.8767
  4134G12c C01I76779   5.989  10.559   6.549 -0.6562  0.1310  3.0870
  4134G12c C01U76780   6.203  10.631   6.572  1.2240 -0.1392 -0.4587
  4134G12c C00S76781   6.227  11.061   6.204  1.3332 -0.0777  0.3481
  4134G12c C00K76782   6.057  10.904   6.233  0.3641  0.3270 -1.6718
  4134G12c C00N76783   6.250  10.753   6.511 -1.6274 -0.6174 -0.8631
  4134G12c C00076784   6.110  10.562   6.495  0.3068  1.0267  0.8851
  4134G12c C01J76785   5.894  10.589   6.447  2.6121  0.4028 -0.7523
  4134G12c C01K76786   5.759  10.608   6.482  1.7867 -0.4298  0.4791
  4134G12c C01P76787   5.670  10.519   6.555  0.2100 -1.0331 -0.7997
  4134G12c C01Q76788   5.738  10.403   6.612  2.2685  1.4119 -1.5646
  4134G12c H00G76789   5.770  10.311   6.567  5.4226 -1.3240  5.6602
  4134G12c C01R76790   5.726  10.384   6.744  0.5409 -2.2668 -0.8280
  4134G12c H00F76791   5.654  10.450   6.792 -1.5163 -1.1176 -5.2775
  4134G12c C01S76792   5.755  10.261   6.831 -0.5761  1.0766 -0.2042
  4134G12c H00E76793   5.691  10.188   6.781  2.5461  1.9212 -5.8895
  4134G12c H00D76794   5.857  10.222   6.824 -2.4162 -3.4039 -8.6237
  4134G12c O00576795   5.693  10.280   6.963 -0.4954  0.7733 -0.7249
  4134G12c H00C76796   5.603  10.307   6.964 -1.4552 -2.1138 -2.4859
  4134G12c C01O76797   5.550  10.542   6.606  0.5243  0.5793  0.6731
  4134G12c H00H76798   5.499  10.492   6.687 -0.0427  0.7288  0.4119
  4134G12c C01N76799   5.472  10.644   6.552 -0.4258  1.2384  0.1669
  4134G12c O00676800   5.340  10.656   6.601  0.9230  0.2878 -0.6205
  4134G12c C01T76801   5.320  10.804   6.633  2.2923  0.4927  0.5641
  4134G12c H00K76802   5.393  10.866   6.580  4.2517 -2.0057  0.2757
  4134G12c H00J76803   5.220  10.836   6.665  1.3482 -1.0464 -0.7781
  4134G12c H00I76804   5.333  10.802   6.741  1.1305  0.8830  0.7171
  4134G12c C01M76805   5.543  10.716   6.442  1.9542 -0.8057 -1.1116
  4134G12c C02076806   5.927  10.861   6.186  1.8915 -1.0482  0.0672
  4134G12c C02176807   5.842  10.909   6.084  0.9432 -0.6858 -1.9379
  4134G12c C01L76808   5.686  10.687   6.399 -0.1487 -0.5177  1.2300
  4134G12c O00776809   5.467  10.797   6.362  0.2448  0.3315  1.1300
  4134G12c C02276810   5.716  10.930   6.114  0.6141  0.4046 -1.0959
  4134G12c C02376811   5.889  11.041   6.037  0.2339 -0.1160  0.3560
  4134G12c C00G76812   5.933  11.307   6.038  2.1033  1.0599  0.3480
  4134G12c C00E76813   5.856  11.532   5.931  0.3543 -1.6085  0.1743
  4134G12c O00A76814   5.883  11.658   5.883 -1.1131  1.0464  0.9760
  4134G12c C02476815   5.896  11.674   5.743 -0.2853 -1.0296  2.0046
  4134G12c H00V76816   5.907  11.782   5.735  2.7566 -1.0910  4.1028
  4134G12c H00U76817   5.809  11.652   5.682 -0.9751 -0.0074  2.5950
  4134G12c H00T76818   5.988  11.624   5.713  0.1938  0.0632  1.6575
  4144G12c C00D76819   1.464   0.864  12.773  0.3831 -0.6779 -0.3157
  4144G12c O00B76820   1.566   0.792  12.833  1.2387  0.1699  0.3546
  4144G12c C02576821   1.673   0.856  12.896  1.3693 -0.5385 -0.3244
  4144G12c C02676822   1.627   0.924  13.017 -0.1395 -0.3020 -0.3198
  4144G12c H00Y76823   1.693   1.000  13.056  3.7092 -5.2184  3.3839
  4144G12c H00X76824   1.615   0.824  13.059 -4.7024 -0.5215 -1.8652
  4144G12c O00C76825   1.529   1.030  13.019 -0.0224  0.8962 -0.6137
  4144G12c H00W76826   1.451   0.986  13.051 -0.1286  0.7974 -1.0074
  4144G12c C02776827   1.801   0.843  12.854  1.0548  2.2624  0.0744
  4144G12c O00D76828   1.857   0.752  12.763 -0.7090  0.5360 -0.6591
  4144G12c H00Z76829   1.936   0.795  12.734 -3.1027  5.6731 -0.2028
  4144G12c C02876830   1.911   0.938  12.883 -1.8072  0.1240 -0.5622
  4144G12c C02976831   1.978   0.928  13.009  0.6930 -2.0243  1.4138
  4144G12c H01076832   1.952   0.834  13.055 -3.9124 -4.4092 -5.3205
  4144G12c C02T76833   2.084   1.008  13.015 -1.0049  0.9019  0.8013
  4144G12c H01O76834   2.139   1.018  13.108  2.9310  2.0616 -1.4973
  4144G12c C02S76835   2.131   1.084  12.894  0.2407 -0.7993 -0.5080
  4144G12c O00J76836   2.248   1.159  12.878  0.7848  0.3613  0.8204
  4144G12c H01P76837   2.234   1.209  12.799  1.3147  3.8928  2.8028
  4144G12c C02R76838   2.039   1.113  12.791 -1.1972 -0.8393  0.7303
  4144G12c O00I76839   2.072   1.189  12.675  0.8341 -1.6427  0.2810
  4144G12c C02Q76840   1.959   1.227  12.592  0.0421 -1.5566 -0.6288
  4144G12c H01N76841   1.887   1.147  12.576  0.6870 -2.2270 -0.2143
  4144G12c H01R76842   1.886   1.292  12.640 -5.3000 -9.1016  2.5119
  4144G12c H01Q76843   1.986   1.281  12.501  4.4720 -2.4411  0.0625
  4144G12c C02A76844   1.924   1.051  12.803 -0.6657  0.0988  0.1466
  4144G12c H01176845   1.840   1.077  12.741 -0.8093  4.3725  1.9394
  4144G12c C00C76846   1.504   0.885  12.648 -2.2795  1.6341  0.0343
  4144G12c H01276847   1.612   0.885  12.643 -2.3423  3.2848 -2.1017
  4144G12c C00B76848   1.394   0.933  12.560 -1.1029 -0.2507 -2.4961
  4144G12c C00A76849   1.402   0.950  12.421 -0.5702  0.0025 -1.2849
  4144G12c C00976850   1.505   1.026  12.353  1.2808 -0.1248  1.6799
  4144G12c C00876851   1.601   1.117  12.405  0.2986  0.1103 -0.3030
  4144G12c H01376852   1.655   1.103  12.497 -2.7667  1.1978  1.7358
  4144G12c C00776853   1.637   1.216  12.326 -0.2343 -0.1805 -0.9376
  4144G12c H01476854   1.734   1.255  12.353 -2.5635  1.4885  6.2755
  4144G12c C00676855   1.568   1.257  12.225  0.8236  1.5932 -0.0043
  4144G12c C00576856   1.473   1.179  12.174  1.1593 -0.8019 -1.2693
  4144G12c C00476857   1.395   1.215  12.059  0.4628  0.5349 -1.8255
  4144G12c C00376858   1.267   1.161  12.052 -0.0886 -0.6495  0.0674
  4144G12c C00276859   1.169   1.223  11.964 -1.8785 -0.0538 -1.4568
  4144G12c C00176860   1.026   1.211  11.952  0.3973  0.4845  0.7460
  4144G12c C00M76861   0.940   1.229  12.076 -0.5821 -0.3134  0.8323
  4144G12c C00L76862   0.972   1.164  12.189 -0.7248 -1.3468 -1.1173
  4144G12c C00R76863   0.898   1.167  12.310 -1.1358  0.1385 -0.1015
  4144G12c C00Q76864   0.766   1.219  12.342  0.3061  0.4629 -0.9535
  4144G12c C00V76865   0.729   1.175  12.470 -1.1107 -0.5889 -1.1898
  4144G12c C00U76866   0.816   1.102  12.563 -0.4415  0.3288  0.0775
  4144G12c C00T76867   0.929   1.051  12.514 -0.6068 -0.0106  1.4711
  4144G12c C01676868   1.016   0.988  12.589 -0.1436  0.8399 -0.6163
  4144G12c C01576869   1.007   1.003  12.726  0.5390  0.5467 -0.2223
  4144G12c C01076870   0.900   1.059  12.773  0.1274 -1.2378 -0.2438
  4144G12c C01176871   0.906   1.110  12.897 -0.8434  2.1825  0.5124
  4144G12c H00576872   0.828   1.158  12.954  0.1438  0.6999  3.2292
  4144G12c C01276873   1.011   1.099  12.980 -0.0109  0.8722  0.9730
  4144G12c C01776874   0.980   1.143  13.118  0.1817  0.1862 -2.4219
  4144G12c O00276875   0.976   1.061  13.225 -1.3269  0.6420 -0.7909
  4144G12c H00476876   1.055   1.019  13.256 -2.2958  0.1436  1.0628
  4144G12c C01876877   0.983   1.277  13.150 -0.6962 -0.5577  1.2580
  4144G12c O00176878   0.980   1.322  13.273 -0.9311  1.4592  0.9737
  4144G12c H00376879   0.999   1.274  13.352  0.3944 -1.4229 -1.0041
  4144G12c C01976880   1.050   1.379  13.049 -0.2577 -0.4832 -1.4251
  4144G12c H00276881   1.073   1.483  13.071 -2.5277 -0.5751  1.7813
  4144G12c H00176882   1.146   1.347  13.011  0.1180  0.5006 -1.3155
  4144G12c O00076883   0.936   1.408  12.948  0.3283  0.5386 -0.2639
  4144G12c C01A76884   0.969   1.469  12.825 -0.0080  0.6716 -0.5992
  4144G12c C02K76885   1.092   1.522  12.778  1.0834 -1.2126 -0.6555
  4144G12c O00G76886   1.180   1.543  12.883 -0.1228  0.2000  1.1648
  4144G12c C02M76887   1.306   1.579  12.877 -1.0923 -0.3515 -1.0080
  4144G12c H01G76888   1.338   1.629  12.785 -1.1479  0.4671 -0.5910
  4144G12c H01F76889   1.382   1.500  12.870 -2.8072 -2.7496  4.5197
  4144G12c H01E76890   1.368   1.643  12.940  1.4755 -2.0851 -1.7043
  4144G12c C02J76891   1.116   1.532  12.636  0.0846  0.1455 -0.3313
  4144G12c H01H76892   1.213   1.579  12.639 -1.2001  2.8554  0.3017
  4144G12c C02I76893   1.023   1.505  12.529  1.9423  1.5155 -0.0902
  4144G12c C02N76894   1.033   1.556  12.395  0.7560 -0.2352 -0.4167
  4144G12c H01M76895   1.064   1.509  12.303  1.0664  2.9196 -1.9899
  4144G12c C02O76896   0.980   1.684  12.384  0.8380  0.1795  1.0912
  4144G12c H01L76897   0.921   1.729  12.462 -2.7129  7.1369 -5.0493
  4144G12c C02P76898   0.986   1.770  12.273 -0.1106  0.0247 -0.0429
  4144G12c H01K76899   1.060   1.848  12.257  0.9889 -0.8772  0.6381
  4144G12c H01J76900   1.001   1.734  12.171 -0.5252 -1.6316  0.4603
  4144G12c O00H76901   0.895   1.881  12.297  0.3978  0.7596 -1.1370
  4144G12c H01I76902   0.912   1.873  12.390 -2.8587 -0.3172 -0.5675
  4144G12c C02H76903   0.896   1.457  12.580 -0.3075  0.2068  0.0283
  4144G12c H01C76904   0.821   1.424  12.509  0.3493 -2.6297  0.5843
  4144G12c C02L76905   0.867   1.445  12.729 -0.1267  0.5662  0.8438
  4144G12c H01D76906   0.762   1.432  12.750 -0.3362  3.4666  1.7614
  4144G12c C01376907   1.124   1.033  12.931 -0.2508 -0.8018  0.3394
  4144G12c H00076908   1.218   1.033  12.985  0.7946 -2.1060 -1.4357
  4144G12c C01476909   1.118   0.962  12.805 -1.2714 -0.5860  1.0295
  4144G12c C00F76910   1.239   0.914  12.750  1.2082 -2.2789  1.3872
  4144G12c C00H76911   1.146   0.940  12.522  0.5254  0.4858 -0.2814
  4144G12c C00I76912   1.161   0.948  12.380  0.8794 -0.0034 -2.5805
  4144G12c C00J76913   1.058   0.999  12.309  1.5283  1.8003  0.5537
  4144G12c C00Z76914   0.795   1.112  12.691 -0.0065  1.3211  1.1441
  4144G12c C00Y76915   0.674   1.144  12.748 -0.4347  1.2771 -0.5210
  4144G12c H00676916   0.634   1.107  12.841 -2.1343  2.9148 -0.5676
  4144G12c C00X76917   0.601   1.231  12.669  1.5542  0.1423  1.9732
  4144G12c O00376918   0.485   1.289  12.698  0.9079  0.5121 -1.0873
  4144G12c C01B76919   0.431   1.291  12.842 -0.6769  0.7465 -0.9409
  4144G12c H00976920   0.422   1.194  12.892  0.4770 -0.5070 -3.0990
  4144G12c H00876921   0.334   1.339  12.853 -0.2679  1.5236 -0.6533
  4144G12c H00776922   0.504   1.353  12.895  1.2226  1.8073 -4.6597
  4144G12c C00W76923   0.611   1.231  12.517  0.4599  0.4755 -1.7268
  4144G12c O00476924   0.529   1.302  12.443  0.3523 -0.3713  0.1533
  4144G12c C01C76925   0.591   1.380  12.355 -1.3110 -0.3907  0.9938
  4144G12c H00A76926   0.526   1.464  12.337 -1.3167 -0.1795  1.9310
  4144G12c C00P76927   0.716   1.340  12.285 -1.4845 -1.4230 -1.4671
  4144G12c C00O76928   0.761   1.404  12.163  0.2672 -1.0745 -0.8345
  4144G12c C01D76929   0.712   1.535  12.136  0.2030  1.7355  0.4951
  4144G12c H00S76930   0.654   1.607  12.191  1.4566  1.8170  1.7524
  4144G12c C01E76931   0.761   1.591  12.020  0.5486 -0.0825 -0.4536
  4144G12c O00876932   0.714   1.716  11.972  0.8319 -1.0302 -1.1933
  4144G12c C01V76933   0.570   1.735  11.956  1.0125 -0.0981 -0.5635
  4144G12c C01Z76934   0.535   1.888  11.979 -0.6509  0.2422  0.6705
  4144G12c H00R76935   0.595   1.956  12.039  1.0649 -3.3729  3.3111
  4144G12c H00Q76936   0.557   1.918  11.877  6.7780 -0.9791  1.6458
  4144G12c O00976937   0.385   1.900  12.012  0.6850 -0.3336  0.7897
  4144G12c H00P76938   0.388   1.937  12.099  2.9367  0.9736  0.1892
  4144G12c C01W76939   0.512   1.663  11.855  0.0461 -0.4481  1.0930
  4144G12c H00O76940   0.541   1.559  11.850 -0.4034 -0.7370  3.9989
  4144G12c C01X76941   0.373   1.673  11.800  0.1093  1.3202  1.9385
  4144G12c H00N76942   0.370   1.774  11.758  3.1040  1.5522  2.1594
  4144G12c H00M76943   0.348   1.598  11.724 -2.1822 -0.4539  4.3664
  4144G12c C01Y76944   0.267   1.670  11.907 -0.2272  1.4323  1.0877
  4144G12c C02D76945   0.255   1.548  11.993 -1.4034 -0.0425  0.2974
  4144G12c H01976946   0.328   1.481  12.035  0.4172  0.7849 -1.4628
  4144G12c C02C76947   0.146   1.548  12.095  1.3096 -0.0251  1.0519
  4144G12c H01A76948   0.175   1.476  12.170 -1.1058 -4.0945 -1.7360
  4144G12c C02B76949   0.042   1.640  12.087  2.0951  0.7554 -0.0559
  4144G12c O00E76950  -0.052   1.640  12.187 -0.6379 -1.6486  0.5963
  4144G12c H01B76951  -0.102   1.714  12.156 -2.4988 -0.0843  6.7245
  4144G12c C02F76952   0.072   1.757  12.018 -1.2539 -0.8500  0.8182
  4144G12c O00F76953  -0.012   1.859  12.029 -1.3562 -0.1475  0.8655
  4144G12c C02G76954   0.043   1.994  12.023 -0.0416  2.0237 -0.7792
  4144G12c H01776955   0.002   2.035  11.931  3.2331 10.2886  0.9328
  4144G12c H01676956   0.148   2.023  12.017  0.4850 -0.5657 -7.9498
  4144G12c H01576957  -0.006   2.051  12.102  6.6891 -1.0210  6.2965
  4144G12c C02E76958   0.167   1.756  11.909  0.7705  0.8606  1.5198
  4144G12c H01876959   0.130   1.817  11.828 -2.0083 -4.0683 -1.1945
  4144G12c C01F76960   0.859   1.535  11.922 -0.4658  0.1729  1.7895
  4144G12c C01G76961   0.965   1.594  11.840 -0.0101  0.0011 -0.4275
  4144G12c H00L76962   0.940   1.699  11.827  0.8774 -0.0381 -2.6036
  4144G12c C01H76963   1.085   1.531  11.783 -0.5213 -0.0146  0.3207
  4144G12c H00B76964   1.143   1.594  11.717 -1.7761  0.4553 -0.3615
  4144G12c C01I76965   1.104   1.413  11.844  0.6181 -0.1997  0.4903
  4144G12c C01U76966   0.882   1.392  11.938  0.9925  0.2700 -1.5527
  4144G12c C00S76967   0.955   1.057  12.382  0.8627 -1.4199 -1.2035
  4144G12c C00K76968   1.085   1.072  12.192  0.5377 -0.3232  1.5758
  4144G12c C00N76969   0.848   1.343  12.073 -1.1869  0.6259 -0.2280
  4144G12c C00076970   0.990   1.330  11.885 -0.1048 -0.1744  1.1824
  4144G12c C01J76971   1.220   1.339  11.889 -0.4386 -1.4419  0.3273
  4144G12c C01K76972   1.353   1.406  11.899 -0.0930  1.4822 -0.2797
  4144G12c C01P76973   1.420   1.495  11.817 -0.1332 -1.7140  1.1613
  4144G12c C01Q76974   1.384   1.544  11.681  1.1563  0.5362  0.4378
  4144G12c H00G76975   1.359   1.455  11.625 -0.3664 -0.1902  2.2005
  4144G12c C01R76976   1.430   1.648  11.622 -0.8562 -0.2694  2.0491
  4144G12c H00F76977   1.487   1.723  11.676  3.5295  1.0015 -3.8683
  4144G12c C01S76978   1.415   1.673  11.475 -0.6169  1.3737  0.8400
  4144G12c H00E76979   1.401   1.589  11.406 -7.3050  1.6676  1.5106
  4144G12c H00D76980   1.314   1.708  11.495 -1.9697  1.4262 -5.1340
  4144G12c O00576981   1.496   1.776  11.445 -1.0984 -0.0057  0.7725
  4144G12c H00C76982   1.482   1.853  11.499  3.1959  1.7101 -0.3119
  4144G12c C01O76983   1.538   1.552  11.862  0.5804 -1.1348 -0.5160
  4144G12c H00H76984   1.588   1.624  11.798 -1.1043  0.8272  0.2867
  4144G12c C01N76985   1.601   1.529  11.981  1.1443 -0.3518 -1.7467
  4144G12c O00676986   1.708   1.589  12.021  1.3780 -0.3563 -0.1782
  4144G12c C01T76987   1.787   1.690  11.967  0.6924  1.8158  0.5704
  4144G12c H00K76988   1.879   1.641  11.935  4.8379  8.0971  2.0412
  4144G12c H00J76989   1.749   1.763  11.895 -3.4275  5.9817  6.5259
  4144G12c H00I76990   1.854   1.714  12.049  0.0586 -2.8997  2.6306
  4144G12c C01M76991   1.546   1.406  12.048 -0.1405 -0.7018  0.9024
  4144G12c C02076992   1.224   1.060  12.145  0.4592 -1.2939 -0.2845
  4144G12c C02176993   1.322   0.976  12.215 -1.7543  0.0101  0.1455
  4144G12c C01L76994   1.423   1.343  12.003  0.6994 -0.2456 -0.2035
  4144G12c O00776995   1.616   1.377  12.166  0.4140 -0.4661  2.2798
  4144G12c C02276996   1.450   1.045  12.222 -0.7734 -1.3032  0.2478
  4144G12c C02376997   1.298   0.922  12.340 -0.4941 -0.1663  2.0721
  4144G12c C00G76998   1.256   0.938  12.611  1.6416 -0.2486 -1.4591
  4144G12c C00E76999   1.330   0.849  12.827 -0.0005  0.2934  1.5661
  4144G12c O00A77000   1.305   0.824  12.957 -1.6326 -0.0447 -0.0064
  4144G12c C02477001   1.348   0.703  13.026 -1.1209  0.1799  0.4415
  4144G12c H00V77002   1.271   0.633  13.058  1.3000 -2.8679 -0.1926
  4144G12c H00U77003   1.397   0.716  13.122 -0.6265 -0.9264  0.3486
  4144G12c H00T77004   1.425   0.671  12.956  4.6726 12.1147  0.1888
  4154G12c C00D77005  10.847   9.996   2.528 -0.1488  1.3717 -0.5489
  4154G12c O00B77006  10.969  10.042   2.466  0.2254  0.5369  1.1554
  4154G12c C02577007  11.075  10.086   2.554  0.5745  0.7452  0.0359
  4154G12c C02677008  11.083  10.228   2.567  2.2569 -1.3041  2.4895
  4154G12c H00Y77009  11.143  10.280   2.492 -0.0390  0.2157  1.6785
  4154G12c H00X77010  11.154  10.240   2.649  3.7250  1.3556  0.9015
  4154G12c O00C77011  10.958  10.287   2.554  0.7051  1.6085  0.9642
  4154G12c H00W77012  10.905  10.245   2.488 -2.7123  2.6644  2.9063
  4154G12c C02777013  11.160  10.003   2.629  2.1425 -0.2407 -1.2976
  4154G12c O00D77014  11.176   9.870   2.586 -0.5852  1.5027  1.2159
  4154G12c H00Z77015  11.233   9.867   2.511  3.1564  1.1561  3.9344
  4154G12c C02877016  11.281  10.063   2.693 -1.4324  0.5307  0.8043
  4154G12c C02977017  11.274  10.087   2.822 -0.5035  2.0767  1.9486
  4154G12c H01077018  11.200  10.036   2.883 -0.7509 -4.7526 -3.4576
  4154G12c C02T77019  11.397  10.105   2.894 -0.7563 -0.1584  0.5567
  4154G12c H01O77020  11.404  10.140   2.996 -0.0444  0.0710  0.4322
  4154G12c C02S77021  11.508  10.119   2.814 -1.5494  0.9031  0.9351
  4154G12c O00J77022  11.607  10.178   2.894 -0.3471  0.6685 -0.3636
  4154G12c H01P77023  11.674  10.208   2.834 -1.3538  0.9040 -1.3992
  4154G12c C02R77024  11.502  10.144   2.675  1.7797 -0.0619  0.0037
  4154G12c O00I77025  11.620  10.191   2.621 -1.2229 -0.4277 -0.2293
  4154G12c C02Q77026  11.621  10.223   2.475  0.5096  1.0154  1.1570
  4154G12c H01N77027  11.726  10.198   2.464  2.4166  8.6881 -0.9567
  4154G12c H01R77028  11.551  10.153   2.428 -0.5684  0.3012  3.7399
  4154G12c H01Q77029  11.610  10.324   2.438 -2.3150 -0.3365 -1.9788
  4154G12c C02A77030  11.391  10.096   2.602 -0.1050  0.8632 -0.8516
  4154G12c H01177031  11.388  10.060   2.500  1.2371 -2.8020  0.2903
  4154G12c C00C77032  10.832   9.996   2.667 -0.3915 -0.2494  1.7167
  4154G12c H01277033  10.914  10.015   2.735 -1.2049 -0.4984  2.7868
  4154G12c C00B77034  10.701   9.998   2.725  0.4042 -0.6637 -0.5698
  4154G12c C00A77035  10.654  10.031   2.856 -0.9069 -1.2765 -3.3540
  4154G12c C00977036  10.732  10.034   2.980  2.5291 -1.0977 -0.2762
  4154G12c C00877037  10.853   9.977   3.029 -0.2278  1.3147  0.7334
  4154G12c H01377038  10.913   9.942   2.946 -1.7358 -3.0441  1.3922
  4154G12c C00777039  10.858   9.991   3.173 -2.1785  0.2116 -1.2290
  4154G12c H01477040  10.946   9.948   3.218 -0.7575  1.8596 -2.4046
  4154G12c C00677041  10.742  10.003   3.250  0.4915 -0.5006 -0.0199
  4154G12c C00577042  10.619  10.033   3.193  0.1452 -0.6336 -0.1211
  4154G12c C00477043  10.493  10.039   3.260 -0.8059 -1.0076 -1.9260
  4154G12c C00377044  10.383  10.038   3.182  0.2818 -0.7831 -0.3121
  4154G12c C00277045  10.258  10.033   3.258 -2.1940  0.4767 -0.3653
  4154G12c C00177046  10.114  10.019   3.214  1.1474  1.2897 -0.1014
  4154G12c C00M77047  10.055   9.951   3.097 -0.1670 -1.2820 -1.3794
  4154G12c C00L77048  10.119   9.964   2.974 -0.5407 -0.2113  0.0838
  4154G12c C00R77049  10.101   9.894   2.854 -0.8528  0.8270  0.1791
  4154G12c C00Q77050  10.006   9.793   2.819  1.4186  0.6512 -0.9356
  4154G12c C00V77051  10.044   9.726   2.700  3.1151 -0.3041 -0.4082
  4154G12c C00U77052  10.157   9.767   2.627  0.3812 -0.3491  0.4147
  4154G12c C00T77053  10.236   9.877   2.657  0.5099  0.0290 -0.0866
  4154G12c C01677054  10.358   9.894   2.607 -0.4594  0.4528  0.5767
  4154G12c C01577055  10.399   9.821   2.498  1.3029  0.8746 -2.1810
  4154G12c C01077056  10.317   9.721   2.457  1.1427 -0.6108  0.4886
  4154G12c C01177057  10.378   9.634   2.354  0.5090  0.6103  0.2739
  4154G12c H00577058  10.321   9.546   2.326  4.7995 -3.9218  4.8786
  4154G12c C01277059  10.495   9.662   2.297  0.4590 -0.8317 -0.5795
  4154G12c C01777060  10.556   9.567   2.196 -0.1588 -0.1939 -0.4055
  4154G12c O00277061  10.610   9.443   2.231 -0.8087 -0.1718  0.6044
  4154G12c H00477062  10.568   9.432   2.315 -7.0361  1.5248 -2.0278
  4154G12c C01877063  10.560   9.608   2.069 -1.9336 -2.0070  2.4981
  4154G12c O00177064  10.625   9.530   1.981  1.9625  0.8733 -0.0219
  4154G12c H00377065  10.625   9.440   2.010 -0.8167  1.3405  1.6423
  4154G12c C01977066  10.485   9.730   1.996 -0.6074 -2.1294  0.2684
  4154G12c H00277067  10.395   9.764   2.046 -1.0847  4.5570 -4.4450
  4154G12c H00177068  10.566   9.802   1.984 -2.2440 -0.1634  0.8340
  4154G12c O00077069  10.415   9.710   1.886  0.8644  1.5636  2.2777
  4154G12c C01A77070  10.377   9.808   1.800  0.0160 -0.6893 -0.2583
  4154G12c C02K77071  10.409   9.793   1.657  1.3620 -1.4502 -0.2335
  4154G12c O00G77072  10.496   9.697   1.594  0.8440  1.4053  0.1788
  4154G12c C02M77073  10.562   9.596   1.657  2.2882 -0.6746 -1.0696
  4154G12c H01G77074  10.594   9.625   1.758 -2.1580  1.5672 -0.1777
  4154G12c H01F77075  10.667   9.602   1.627  1.9021  1.7249 -2.1149
  4154G12c H01E77076  10.523   9.500   1.687  4.9901 -2.1011 -1.9209
  4154G12c C02J77077  10.372   9.885   1.563 -0.0378 -0.4245 -0.5245
  4154G12c H01H77078  10.394   9.848   1.464 -5.7974 -6.7739  0.1924
  4154G12c C02I77079  10.327  10.018   1.613 -1.3698  1.8224 -0.7646
  4154G12c C02N77080  10.349  10.146   1.543  0.8297  2.5455  0.1426
  4154G12c H01M77081  10.307  10.234   1.589 -5.6470  1.4728 -3.0615
  4154G12c C02O77082  10.400  10.174   1.424 -0.7820  0.3573 -1.1220
  4154G12c H01L77083  10.456  10.098   1.372 -2.3216 -1.8126  0.3033
  4154G12c C02P77084  10.403  10.322   1.353 -1.1297  0.0767 -0.2482
  4154G12c H01K77085  10.429  10.326   1.247  6.2852  3.0166  1.4398
  4154G12c H01J77086  10.303  10.349   1.318 -1.6758 -2.1166 -0.5080
  4154G12c O00H77087  10.473  10.444   1.415  0.4046  0.9915 -0.9106
  4154G12c H01I77088  10.564  10.419   1.420 -1.1569 -4.5832  5.2100
  4154G12c C02H77089  10.318  10.037   1.753  0.2265  0.7778 -0.5938
  4154G12c H01C77090  10.267  10.122   1.795  0.4376 -1.7747  5.3631
  4154G12c C02L77091  10.329   9.930   1.844 -0.2474 -0.5165 -0.8013
  4154G12c H01D77092  10.295   9.928   1.947  0.7761  0.9876 -0.4161
  4154G12c C01377093  10.574   9.764   2.344 -0.1581  0.7192  1.7370
  4154G12c H00077094  10.665   9.775   2.287  1.3328  0.8791  4.1112
  4154G12c C01477095  10.524   9.845   2.444  0.3255 -0.0362  0.6375
  4154G12c C00F77096  10.617   9.925   2.509  1.6504  0.0175 -0.8423
  4154G12c C00H77097  10.455   9.970   2.671  0.1601 -0.3059  0.3733
  4154G12c C00I77098  10.429  10.037   2.790  0.4847  0.3503 -0.5659
  4154G12c C00J77099  10.294  10.006   2.841 -0.3867  0.4107  1.4906
  4154G12c C00Z77100  10.197   9.683   2.514 -0.3644  0.0496  0.3035
  4154G12c C00Y77101  10.122   9.562   2.488  1.9194  1.5994  0.6884
  4154G12c H00677102  10.145   9.483   2.419 -4.7499  1.6285 -1.9779
  4154G12c C00X77103   9.997   9.550   2.532  0.5263 -0.1817 -0.6199
  4154G12c O00377104   9.901   9.463   2.483  0.6977 -0.6947 -1.4523
  4154G12c C01B77105   9.858   9.479   2.337  0.0234  2.1682  1.0769
  4154G12c H00977106   9.793   9.405   2.292 -0.7296  0.0349  5.4192
  4154G12c H00877107   9.950   9.518   2.292  0.9145 -3.4723 -2.4400
  4154G12c H00777108   9.811   9.577   2.339 -1.8367  1.2955  0.6683
  4154G12c C00W77109   9.969   9.619   2.654  0.9522 -0.6306  0.7917
  4154G12c O00477110   9.833   9.621   2.692  0.2974  0.3189  0.3127
  4154G12c C01C77111   9.816   9.639   2.824  1.4529 -2.3690  2.5203
  4154G12c H00A77112   9.764   9.557   2.871 -2.2618 -0.4163  1.9462
  4154G12c C00P77113   9.896   9.730   2.900 -1.3704  1.4843 -0.3237
  4154G12c C00O77114   9.918   9.727   3.050 -0.3671 -0.8762  1.3581
  4154G12c C01D77115   9.907   9.614   3.124 -1.3270  0.6584  0.7053
  4154G12c H00S77116   9.846   9.527   3.103 -3.3152  2.4915 -1.4041
  4154G12c C01E77117   9.963   9.587   3.249 -0.8715  1.0148 -0.2232
  4154G12c O00877118   9.986   9.475   3.323 -0.3744  1.1719 -1.7768
  4154G12c C01V77119   9.978   9.355   3.259 -1.3290 -0.1648 -0.6083
  4154G12c C01Z77120   9.852   9.282   3.324  0.2709 -0.9895  0.6863
  4154G12c H00R77121   9.843   9.207   3.404  4.0616  2.1936  4.3676
  4154G12c H00Q77122   9.790   9.355   3.376  1.3408  0.9392 -0.6891
  4154G12c O00977123   9.773   9.230   3.224  0.2886 -0.5802 -0.6427
  4154G12c H00P77124   9.809   9.212   3.138  0.0166  4.4397 -1.9655
  4154G12c C01W77125  10.070   9.304   3.167  0.8181 -0.0783 -0.2223
  4154G12c H00O77126  10.157   9.356   3.129  1.4933 -0.1546  1.1866
  4154G12c C01X77127  10.081   9.169   3.095 -1.9003 -2.9552 -0.1555
  4154G12c H00N77128  10.172   9.144   3.150 -1.1222 -2.6839 -1.2995
  4154G12c H00M77129  10.001   9.097   3.107 -3.0304 -1.5996  0.5661
  4154G12c C01Y77130  10.090   9.193   2.941  0.6115  0.5355 -0.1352
  4154G12c C02D77131   9.971   9.183   2.879 -1.3725 -0.9412  0.1480
  4154G12c H01977132   9.877   9.185   2.931 -2.2617 -4.7466 -1.1281
  4154G12c C02C77133   9.965   9.170   2.734  0.1382 -1.0661 -0.8521
  4154G12c H01A77134   9.884   9.136   2.672  0.5549 -3.9908  0.0977
  4154G12c C02B77135  10.082   9.203   2.670  0.1625  0.2924 -0.2430
  4154G12c O00E77136  10.093   9.219   2.539 -0.9038  0.0246  1.6388
  4154G12c H01B77137  10.152   9.288   2.513 -3.1012  2.3317  2.5902
  4154G12c C02F77138  10.194   9.221   2.733  0.2425 -1.3128  0.1437
  4154G12c O00F77139  10.301   9.257   2.665  1.0236  0.7736  0.1511
  4154G12c C02G77140  10.394   9.156   2.609 -0.0170  1.6399  0.2293
  4154G12c H01777141  10.468   9.116   2.678 -0.5179 -3.6840 -2.0709
  4154G12c H01677142  10.360   9.071   2.550  2.6094  2.1861 -2.1812
  4154G12c H01577143  10.445   9.222   2.539  2.0663 -2.2447 -2.0675
  4154G12c C02E77144  10.198   9.216   2.870 -0.0713  0.6379 -0.6863
  4154G12c H01877145  10.282   9.233   2.936 -3.4600  0.9596  3.7911
  4154G12c C01F77146  10.033   9.693   3.324  1.4641  0.4872 -1.0412
  4154G12c C01G77147  10.087   9.705   3.458 -0.2846  0.0283 -0.3487
  4154G12c H00L77148  10.076   9.607   3.501 -0.2418 -1.2958 -3.2620
  4154G12c C01H77149  10.136   9.820   3.522  0.5938 -0.5769 -0.3961
  4154G12c H00B77150  10.196   9.786   3.605 -1.9173 -1.7835  0.9780
  4154G12c C01I77151  10.137   9.929   3.433 -0.5676  0.6101  1.4048
  4154G12c C01U77152  10.027   9.815   3.267  0.3815 -0.5530  0.8358
  4154G12c C00S77153  10.193   9.945   2.767  1.7393  0.6361  1.0128
  4154G12c C00K77154  10.250  10.029   2.966  1.0431 -1.0432 -0.1327
  4154G12c C00N77155   9.989   9.825   3.133 -0.5118 -1.6155  0.9358
  4154G12c C00077156  10.058   9.940   3.318 -2.0640  0.1817  1.2885
  4154G12c C01J77157  10.257   9.996   3.398 -1.4743 -0.0556  2.0027
  4154G12c C01K77158  10.359  10.019   3.482  0.5520 -1.5688  1.3296
  4154G12c C01P77159  10.377  10.031   3.631  0.5996 -0.8975  0.9192
  4154G12c C01Q77160  10.282  10.022   3.736  0.7040  1.6505  0.5649
  4154G12c H00G77161  10.199  10.090   3.747 -4.2257 -4.1113  1.4061
  4154G12c C01R77162  10.282   9.908   3.815 -0.4777  1.4233 -1.2300
  4154G12c H00F77163  10.356   9.830   3.824  1.5457  3.6472  3.1964
  4154G12c C01S77164  10.147   9.868   3.903  0.3220 -0.3428 -1.2662
  4154G12c H00E77165  10.101   9.958   3.944 -4.3983 -3.2688  0.3982
  4154G12c H00D77166  10.082   9.841   3.820  1.6044  1.7197 -2.9713
  4154G12c O00577167  10.205   9.763   3.973  0.8277 -1.1258 -2.0052
  4154G12c H00C77168  10.202   9.678   3.930 -1.8219 -1.3305 -1.4805
  4154G12c C01O77169  10.505  10.061   3.689  0.0648 -1.4879  0.9358
  4154G12c H00H77170  10.524  10.025   3.789 -0.2267 -1.1069  1.1332
  4154G12c C01N77171  10.625  10.033   3.609 -1.4544  0.0920  0.7088
  4154G12c O00677172  10.731   9.954   3.652  2.5925  0.5192  0.7125
  4154G12c C01T77173  10.809  10.039   3.742  0.4906 -1.1619  0.9902
  4154G12c H00K77174  10.753  10.129   3.766 -3.4531 -3.5769  1.3650
  4154G12c H00J77175  10.914  10.045   3.713  0.5350 -3.9327  0.4693
  4154G12c H00I77176  10.796   9.953   3.808 -2.0862 -3.1287 -1.9635
  4154G12c C01M77177  10.613  10.029   3.473  0.4415 -0.9901  0.0943
  4154G12c C02077178  10.367  10.077   3.053  0.5776 -1.8948  0.0066
  4154G12c C02177179  10.494  10.113   2.999  0.8940  2.2799  0.0890
  4154G12c C01L77180  10.485  10.036   3.407  0.1031  0.3706 -1.9746
  4154G12c O00777181  10.727  10.007   3.386 -0.9324 -0.6485  0.7036
  4154G12c C02277182  10.618  10.076   3.064  1.7280  0.5915  0.0302
  4154G12c C02377183  10.527  10.082   2.869 -0.4973  0.4178 -0.0646
  4154G12c C00G77184  10.593   9.971   2.634 -1.6932  0.9434  0.5060
  4154G12c C00E77185  10.738   9.965   2.452 -0.8086  0.4065 -3.0538
  4154G12c O00A77186  10.788   9.937   2.327 -1.7563  0.0101  0.1723
  4154G12c C02477187  10.738  10.040   2.233  0.0270 -0.5697 -0.2921
  4154G12c H00V77188  10.777  10.025   2.132 -3.3676  2.2423 -2.1090
  4154G12c H00U77189  10.756  10.143   2.264  0.4854 -0.9713  0.7851
  4154G12c H00T77190  10.630  10.051   2.235 -0.0978 -1.8150 -0.1698
  4164G12c C00D77191  13.097   6.079   9.005 -0.5044  0.7008 -0.5816
  4164G12c O00B77192  13.212   6.119   8.968  0.3508  0.5070 -0.0788
  4164G12c C02577193  13.195   6.213   8.858  1.3288 -0.9580 -1.3653
  4164G12c C02677194  13.304   6.328   8.896 -1.7004 -2.1289  1.8945
  4164G12c H00Y77195  13.347   6.351   8.993 -3.0337  2.1601  1.5791
  4164G12c H00X77196  13.277   6.420   8.845  0.1855 -3.1802 -1.1301
  4164G12c O00C77197  13.408   6.280   8.827  1.3501 -2.4983  2.0121
  4164G12c H00W77198  13.382   6.190   8.814  0.8910 -2.3586  1.9232
  4164G12c C02777199  13.154   6.198   8.723  0.3321  0.2961  1.0880
  4164G12c O00D77200  13.170   6.082   8.660 -1.0695  0.2328  0.7917
  4164G12c H00Z77201  13.208   6.039   8.735 -0.3580  4.9524  3.3316
  4164G12c C02877202  13.140   6.317   8.628 -0.5447 -0.3457 -1.1826
  4164G12c C02977203  13.018   6.402   8.622 -0.5853 -0.1623 -1.3578
  4164G12c H01077204  12.950   6.363   8.696 -2.5948  1.0941 -2.5250
  4164G12c C02T77205  12.979   6.465   8.512  0.0725  0.5305 -0.0917
  4164G12c H01O77206  12.878   6.501   8.494 -0.6810 -1.3717  0.1930
  4164G12c C02S77207  13.042   6.431   8.393 -1.9148 -0.2059 -0.8194
  4164G12c O00J77208  12.976   6.481   8.274  0.1799  0.5874 -1.0885
  4164G12c H01P77209  13.061   6.482   8.234  0.1287 -0.2468 -1.2246
  4164G12c C02R77210  13.171   6.393   8.386 -0.8286  0.5725 -2.9869
  4164G12c O00I77211  13.229   6.407   8.266 -2.0849  0.0931 -0.0153
  4164G12c C02Q77212  13.353   6.463   8.284 -0.6736  1.5189 -1.0292
  4164G12c H01N77213  13.421   6.437   8.365 -0.4870  0.5130 -1.5063
  4164G12c H01R77214  13.347   6.558   8.337 -1.5221 -0.9948  3.5796
  4164G12c H01Q77215  13.422   6.455   8.200 -2.6683 -0.7601 -2.4928
  4164G12c C02A77216  13.210   6.313   8.500 -1.1816  0.5361 -0.3974
  4164G12c H01177217  13.278   6.231   8.479 -2.4348 -0.8568  0.8120
  4164G12c C00C77218  13.032   5.975   8.932  0.2624  1.5622  0.4414
  4164G12c H01277219  13.087   5.940   8.846 -0.3335 -0.8638  0.9843
  4164G12c C00B77220  12.904   5.929   8.974 -1.4257 -0.7940 -0.4208
  4164G12c C00A77221  12.808   5.834   8.909  0.2383 -2.4167 -0.0967
  4164G12c C00977222  12.782   5.836   8.772 -0.9517  0.2665  0.8782
  4164G12c C00877223  12.843   5.888   8.650  0.4157 -0.7196 -0.9141
  4164G12c H01377224  12.941   5.932   8.662 -1.1566  1.9760  3.0469
  4164G12c C00777225  12.752   5.921   8.553 -0.8115  0.9778 -0.7335
  4164G12c H01477226  12.789   5.977   8.468  1.9446  1.5366  0.7593
  4164G12c C00677227  12.611   5.887   8.560  0.8362 -0.5738 -2.7245
  4164G12c C00577228  12.557   5.822   8.679  0.4799 -1.1485  0.1030
  4164G12c C00477229  12.420   5.794   8.697  0.4880 -1.1382  0.2893
  4164G12c C00377230  12.390   5.760   8.828  0.1815  0.2813 -0.6054
  4164G12c C00277231  12.245   5.762   8.850  0.5565 -1.3946 -2.8910
  4164G12c C00177232  12.155   5.697   8.951 -1.9324  0.5300 -0.4873
  4164G12c C00M77233  12.176   5.734   9.087  0.3441 -1.6020  1.1810
  4164G12c C00L77234  12.301   5.746   9.135 -1.4267  1.3943 -0.0694
  4164G12c C00R77235  12.336   5.835   9.244  1.6360 -1.2800  0.4686
  4164G12c C00Q77236  12.251   5.900   9.351  0.0636  0.6578 -0.2592
  4164G12c C00V77237  12.338   5.995   9.431  0.1752 -0.4797 -1.2704
  4164G12c C00U77238  12.473   6.034   9.405 -0.6845  0.6307  1.3006
  4164G12c C00T77239  12.528   5.988   9.289 -0.4432 -0.1386  0.7629
  4164G12c C01677240  12.670   6.017   9.262 -0.1297 -0.0863  1.3872
  4164G12c C01577241  12.734   6.126   9.328  0.8787 -0.0405  0.9111
  4164G12c C01077242  12.657   6.202   9.425 -0.3870 -0.3381 -1.0229
  4164G12c C01177243  12.715   6.320   9.473 -1.1636  0.8816  0.0656
  4164G12c H00577244  12.662   6.378   9.547 -3.6472 -2.6816  1.2214
  4164G12c C01277245  12.832   6.364   9.423 -0.6353  0.4660  0.3970
  4164G12c C01777246  12.892   6.470   9.479  0.7260  0.1720  1.5223
  4164G12c O00277247  12.887   6.593   9.412 -0.8180  0.1726  0.5250
  4164G12c H00477248  12.902   6.656   9.481  3.4811 -0.4267  0.2924
  4164G12c C01877249  12.971   6.460   9.591  0.2929  0.9636 -1.0916
  4164G12c O00177250  13.002   6.346   9.675  1.2161 -0.1083  0.6554
  4164G12c H00377251  12.953   6.335   9.755 -4.5174  3.9570 -1.9230
  4164G12c C01977252  13.072   6.570   9.648 -1.3138 -0.8617 -0.4849
  4164G12c H00277253  13.158   6.523   9.696 -1.3548  0.6829  1.1560
  4164G12c H00177254  13.131   6.641   9.592 -2.6637  0.0207 -0.8082
  4164G12c O00077255  12.987   6.654   9.737 -0.3179 -0.3441 -0.2333
  4164G12c C01A77256  13.037   6.738   9.822  0.2395 -0.4699  0.7498
  4164G12c C02K77257  13.024   6.718   9.960 -1.3285 -0.3882 -1.1203
  4164G12c O00G77258  12.940   6.631  10.034 -1.0590 -1.7168 -1.2987
  4164G12c C02M77259  13.002   6.517  10.059 -0.5093 -1.1279 -0.0629
  4164G12c H01G77260  13.106   6.526  10.026 -0.3013 -1.2518  0.5614
  4164G12c H01F77261  12.976   6.425  10.007 -1.4179 -3.8802  4.9549
  4164G12c H01E77262  12.985   6.492  10.163  4.8650  1.2038  1.5426
  4164G12c C02J77263  13.096   6.807  10.042 -0.4604 -0.4374 -0.9593
  4164G12c H01H77264  13.093   6.797  10.149  1.1402  3.7387 -0.3984
  4164G12c C02I77265  13.164   6.925   9.991  1.6743 -0.8984  1.0199
  4164G12c C02N77266  13.206   7.017  10.090 -0.1819 -1.1619 -0.4575
  4164G12c H01M77267  13.148   7.074  10.161  3.1619  2.9499 -0.8371
  4164G12c C02O77268  13.347   6.998  10.102 -1.1349  0.7138  0.6085
  4164G12c H01L77269  13.392   6.921  10.040 -6.6924 -3.7288  1.6964
  4164G12c C02P77270  13.468   7.055  10.182  0.4941  0.0254 -0.2614
  4164G12c H01K77271  13.538   7.027  10.103 -1.5372  1.5510 -2.6435
  4164G12c H01J77272  13.495   7.159  10.171 -3.3352  1.0998 -0.2749
  4164G12c O00H77273  13.457   7.033  10.335 -0.9609  1.0976 -0.8494
  4164G12c H01I77274  13.470   7.123  10.359  9.3021  0.1101 -0.5670
  4164G12c C02H77275  13.152   6.956   9.848 -0.0535  0.5650 -1.4192
  4164G12c H01C77276  13.153   7.061   9.821  4.7238  2.4621  4.7927
  4164G12c C02L77277  13.097   6.863   9.776 -1.4722  0.3970 -1.1792
  4164G12c H01D77278  13.072   6.900   9.678  0.6880 -4.2465 -3.6519
  4164G12c C01377279  12.893   6.295   9.310  0.8610  0.3321 -1.2540
  4164G12c H00077280  12.971   6.337   9.248  1.8147  1.1412  0.4630
  4164G12c C01477281  12.841   6.168   9.267  0.1452  1.3203 -0.0545
  4164G12c C00F77282  12.910   6.105   9.160 -1.2107  0.3792  0.2370
  4164G12c C00H77283  12.724   5.950   9.151 -0.4408 -0.2637  0.3527
  4164G12c C00I77284  12.649   5.848   9.084 -0.8660 -0.5821  0.3846
  4164G12c C00J77285  12.524   5.823   9.122  1.1882 -0.2857 -0.9326
  4164G12c C00Z77286  12.529   6.150   9.466 -1.0682  0.4358 -1.6357
  4164G12c C00Y77287  12.464   6.197   9.576 -1.5943  0.2770 -0.6489
  4164G12c H00677288  12.508   6.258   9.653  3.6477  1.1701 -4.0622
  4164G12c C00X77289  12.347   6.146   9.622 -2.0037  1.0012  0.2320
  4164G12c O00377290  12.316   6.157   9.753  0.9838  0.2069 -0.5485
  4164G12c C01B77291  12.317   6.033   9.819 -0.4013  0.8668  0.8529
  4164G12c H00977292  12.406   5.975   9.792 -0.2215  1.7328 -0.4496
  4164G12c H00877293  12.228   5.972   9.802  2.4261 -5.2670  5.8134
  4164G12c H00777294  12.316   6.042   9.928  0.5873  3.7541  0.6718
  4164G12c C00W77295  12.275   6.062   9.540 -0.3254 -0.6414 -1.0530
  4164G12c O00477296  12.134   6.057   9.548  0.1633 -0.3383  1.5434
  4164G12c C01C77297  12.071   5.935   9.513  2.0640  1.9455 -1.4268
  4164G12c H00A77298  11.975   5.926   9.561  2.4060  0.2083 -1.0327
  4164G12c C00P77299  12.112   5.896   9.378 -0.0380  0.1181 -1.4527
  4164G12c C00O77300  12.029   5.891   9.259  0.7407 -0.8540 -0.9815
  4164G12c C01D77301  11.930   5.985   9.253  1.2103 -1.0873  0.2638
  4164G12c H00S77302  11.900   6.062   9.323 -1.3627  1.2440 -3.2062
  4164G12c C01E77303  11.891   6.033   9.132  0.5976 -0.2328  0.4142
  4164G12c O00877304  11.848   6.158   9.131 -0.9315  0.9722 -0.8019
  4164G12c C01V77305  11.935   6.255   9.130 -1.8608  2.4739 -0.1835
  4164G12c C01Z77306  12.090   6.242   9.126  1.3995  0.3367  0.2101
  4164G12c H00R77307  12.142   6.146   9.121  1.9462  0.5661  1.3642
  4164G12c H00Q77308  12.145   6.319   9.074  0.0042 -1.1603 -3.6694
  4164G12c O00977309  12.135   6.264   9.267  1.9688  0.8211  0.2109
  4164G12c H00P77310  12.088   6.217   9.334  1.6091  2.6042  1.2601
  4164G12c C01W77311  11.881   6.381   9.130 -0.5655  0.4608 -0.0721
  4164G12c H00O77312  11.774   6.390   9.125 -0.4651  0.3932 -5.3901
  4164G12c C01X77313  11.939   6.510   9.176  0.3126 -0.1990 -1.4114
  4164G12c H00N77314  12.038   6.521   9.131 -0.1100 -2.3938 -2.9766
  4164G12c H00M77315  11.873   6.581   9.127 -0.7522 -2.9929 -4.1896
  4164G12c C01Y77316  11.909   6.535   9.324 -1.0874 -0.4704 -0.7960
  4164G12c C02D77317  11.778   6.607   9.348 -1.4462  1.4505 -1.4680
  4164G12c H01977318  11.718   6.624   9.260 -4.9181 -0.4681  0.4313
  4164G12c C02C77319  11.736   6.625   9.492  0.0719  1.5441  0.0518
  4164G12c H01A77320  11.640   6.669   9.518  0.6059  3.3897 -0.9996
  4164G12c C02B77321  11.807   6.565   9.597  0.2067 -0.3130 -1.7478
  4164G12c O00E77322  11.749   6.559   9.714  0.7638  0.6322 -1.0689
  4164G12c H01B77323  11.656   6.577   9.706  0.4149  0.4017  1.8803
  4164G12c C02F77324  11.933   6.521   9.566  0.9531  1.3168 -0.1529
  4164G12c O00F77325  12.019   6.508   9.666 -0.9403  0.6665 -0.4973
  4164G12c C02G77326  12.034   6.626   9.733 -0.0393  0.9544 -0.0939
  4164G12c H01777327  12.139   6.621   9.761  1.6755  0.6899 -5.9183
  4164G12c H01677328  12.001   6.620   9.836 -6.8971 -4.8213 -2.1928
  4164G12c H01577329  12.040   6.715   9.670  1.8199 -2.5205 -5.2474
  4164G12c C02E77330  11.990   6.504   9.436 -1.5244  0.4933  0.1092
  4164G12c H01877331  12.091   6.466   9.434 -0.0997  4.1063 -0.3358
  4164G12c C01F77332  11.916   5.965   9.006 -1.4647  1.6722 -0.2813
  4164G12c C01G77333  11.863   5.982   8.879  0.8110 -0.4050 -1.0572
  4164G12c H00L77334  11.792   6.061   8.859  4.8247  3.0901 -2.0509
  4164G12c C01H77335  11.940   5.921   8.779  0.8559  0.0862  0.6113
  4164G12c H00B77336  11.946   5.991   8.697  4.6427 -1.8103 -0.8492
  4164G12c C01I77337  12.028   5.821   8.804  0.2159 -1.5353  1.3158
  4164G12c C01U77338  11.982   5.841   9.028 -0.3525  0.5054 -0.3527
  4164G12c C00S77339  12.453   5.886   9.221 -0.8977 -1.8357 -0.3537
  4164G12c C00K77340  12.426   5.744   9.058 -0.6672  0.8696 -0.3559
  4164G12c C00N77341  12.058   5.827   9.136 -0.0219  0.6271  1.0995
  4164G12c C00077342  12.033   5.761   8.927 -1.8101  1.1450 -1.0303
  4164G12c C01J77343  12.161   5.814   8.753 -0.5325 -0.2159 -0.2331
  4164G12c C01K77344  12.200   5.855   8.615 -3.6461 -0.0094  0.0726
  4164G12c C01P77345  12.119   5.883   8.504  0.1429 -0.6491 -0.0183
  4164G12c C01Q77346  11.988   5.852   8.494 -0.2373 -0.8663  0.1849
  4164G12c H00G77347  11.952   5.769   8.553  1.0997 -0.6859  1.2732
  4164G12c C01R77348  11.891   5.946   8.469  0.4628  0.5071  0.5372
  4164G12c H00F77349  11.924   6.045   8.440  4.2474  0.5303  4.4227
  4164G12c C01S77350  11.734   5.914   8.496 -0.6892  0.0091 -0.4511
  4164G12c H00E77351  11.731   5.813   8.537  0.1136 -1.7152 -4.3269
  4164G12c H00D77352  11.698   5.976   8.578  1.2529  1.5088 -0.6843
  4164G12c O00577353  11.670   5.920   8.371  0.3413 -1.3049 -0.3452
  4164G12c H00C77354  11.709   5.924   8.285 -4.4099  8.5192 -2.7851
  4164G12c C01O77355  12.170   5.939   8.388  0.7255 -0.0416  0.0258
  4164G12c H00H77356  12.119   5.972   8.299  6.1428  1.8214 -2.6054
  4164G12c C01N77357  12.314   5.932   8.374 -0.9425  0.0076  0.5839
  4164G12c O00677358  12.391   5.967   8.258 -0.2303 -0.0920  0.3841
  4164G12c C01T77359  12.361   5.921   8.120  0.3226 -1.1611  1.8536
  4164G12c H00K77360  12.397   5.826   8.081  1.4285  1.3997 -3.8482
  4164G12c H00J77361  12.259   5.887   8.142 -0.0157  0.0901  2.2534
  4164G12c H00I77362  12.354   5.994   8.040  5.3794 -5.6834 -3.2024
  4164G12c C01M77363  12.399   5.886   8.479 -0.9240  0.9006  0.2566
  4164G12c C02077364  12.465   5.706   8.930 -1.2624 -0.5664  0.5367
  4164G12c C02177365  12.612   5.711   8.893  0.9397  1.0214  1.7351
  4164G12c C01L77366  12.331   5.844   8.607 -0.8757 -2.1257 -0.1404
  4164G12c O00777367  12.535   5.892   8.456 -0.4325  0.9794  0.6677
  4164G12c C02277368  12.650   5.782   8.773  0.8172 -0.5393 -0.5361
  4164G12c C02377369  12.708   5.766   8.980 -0.8257  0.8634  0.6457
  4164G12c C00G77370  12.842   5.996   9.087  0.6418  0.5633  0.1804
  4164G12c C00E77371  13.036   6.138   9.127 -2.7524  0.1247 -0.2345
  4164G12c O00A77372  13.128   6.223   9.193 -0.4513  0.5486 -0.0807
  4164G12c C02477373  13.237   6.161   9.275 -1.9032 -0.6724  0.6564
  4164G12c H00V77374  13.315   6.094   9.238 -0.1947  0.8479  1.3906
  4164G12c H00U77375  13.188   6.090   9.340  1.6531 -0.7863  3.3720
  4164G12c H00T77376  13.260   6.255   9.326 -4.4434  2.1997 -3.2310
  4174G12c C00D77377   7.191  10.727   1.662  0.1025 -0.2334 -1.9982
  4174G12c O00B77378   7.136  10.693   1.775 -1.2847  0.0112 -0.7582
  4174G12c C02577379   7.130  10.796   1.875 -1.0542 -0.0012 -0.3965
  4174G12c C02677380   7.255  10.783   1.964  0.2657 -0.0941 -0.5378
  4174G12c H00Y77381   7.280  10.822   2.063  1.3702 -2.0365 -0.0305
  4174G12c H00X77382   7.321  10.844   1.903  0.0947 -4.6783 -5.6067
  4174G12c O00C77383   7.310  10.658   1.934  0.5144 -0.8548  0.8122
  4174G12c H00W77384   7.235  10.621   1.979  0.4454  2.3711  3.6091
  4174G12c C02777385   7.014  10.867   1.901  0.7933 -2.4466 -0.0445
  4174G12c O00D77386   6.992  10.893   2.033  0.3225  0.5627 -0.5348
  4174G12c H00Z77387   7.052  10.853   2.094  5.1920  6.0019 -1.3838
  4174G12c C02877388   6.902  10.903   1.828  0.4614  0.1149 -2.5020
  4174G12c C02977389   6.823  11.011   1.871 -1.2186 -1.2456 -0.4692
  4174G12c H01077390   6.844  11.088   1.944  2.2612 -6.2329  4.1044
  4174G12c C02T77391   6.713  11.047   1.794  0.5468 -0.4848 -0.7366
  4174G12c H01O77392   6.645  11.111   1.849 -2.1906  3.3206 -7.8464
  4174G12c C02S77393   6.708  10.991   1.667 -0.6888 -0.2722  0.3977
  4174G12c O00J77394   6.585  10.999   1.603  0.0803  1.2529  0.5850
  4174G12c H01P77395   6.593  10.954   1.520  1.1459  1.6713  0.4558
  4174G12c C02R77396   6.810  10.901   1.616  1.4056  0.5100 -1.4913
  4174G12c O00I77397   6.789  10.849   1.488  1.3930 -0.3037 -1.1903
  4174G12c C02Q77398   6.893  10.847   1.379 -0.9219 -1.0159  0.1338
  4174G12c H01N77399   6.917  10.940   1.328  2.7805 -2.2719 -0.5525
  4174G12c H01R77400   6.992  10.859   1.422  0.8726 -5.1039 -2.5355
  4174G12c H01Q77401   6.891  10.745   1.341 -1.8285 -2.3059  3.4460
  4174G12c C02A77402   6.883  10.842   1.711 -0.1748 -0.5084  1.2512
  4174G12c H01177403   6.948  10.774   1.658 -4.6426 -0.9689 -4.1050
  4174G12c C00C77404   7.218  10.865   1.626 -0.1343 -0.0033 -0.4434
  4174G12c H01277405   7.176  10.939   1.693  1.7919  0.6570  0.0616
  4174G12c C00B77406   7.292  10.931   1.529  0.7503 -0.7044  0.5712
  4174G12c C00A77407   7.351  11.064   1.490 -2.1459  0.1288 -0.6047
  4174G12c C00977408   7.323  11.206   1.547  0.5125  0.7380 -0.3661
  4174G12c C00877409   7.219  11.259   1.624 -0.6457 -1.3665  0.6155
  4174G12c H01377410   7.147  11.181   1.644 -4.1168  1.8347  1.2474
  4174G12c C00777411   7.182  11.381   1.595  0.1722  0.9154  0.6137
  4174G12c H01477412   7.086  11.406   1.637 -0.8341  7.6758 -4.8769
  4174G12c C00677413   7.244  11.474   1.503  0.0954  1.8318  1.3063
  4174G12c C00577414   7.352  11.413   1.431  0.1478 -0.8711  1.0992
  4174G12c C00477415   7.396  11.468   1.315 -0.9291  0.7286  0.5903
  4174G12c C00377416   7.470  11.380   1.230  0.3321 -0.9035  0.0276
  4174G12c C00277417   7.518  11.442   1.103  1.3741 -0.2408 -1.0008
  4174G12c C00177418   7.593  11.403   0.990  1.3072  0.1794  0.6017
  4174G12c C00M77419   7.608  11.266   0.931 -0.8043 -1.8643  0.5368
  4174G12c C00L77420   7.578  11.158   1.013  1.8263 -1.4246 -0.0477
  4174G12c C00R77421   7.567  11.030   0.969  0.6187  0.3589  0.0528
  4174G12c C00Q77422   7.546  10.966   0.842  0.0447  1.5443  1.0590
  4174G12c C00V77423   7.504  10.824   0.844  0.6050  0.7115 -1.9450
  4174G12c C00U77424   7.456  10.771   0.970 -0.4247  1.5248  0.7426
  4174G12c C00T77425   7.476  10.832   1.082  0.1988  0.4328  1.1480
  4174G12c C01677426   7.425  10.788   1.206 -0.0738 -0.0563  0.8921
  4174G12c C01577427   7.364  10.656   1.216 -0.9970 -0.8313 -0.2896
  4174G12c C01077428   7.374  10.594   1.101  0.9462  0.4300  0.0168
  4174G12c C01177429   7.360  10.447   1.107  1.0900 -1.1473  0.6432
  4174G12c H00577430   7.421  10.381   1.047  2.2840 -2.2733  3.0229
  4174G12c C01277431   7.253  10.402   1.192 -1.3934  0.9148 -1.4789
  4174G12c C01777432   7.238  10.271   1.214  0.0122 -2.1507 -1.2235
  4174G12c O00277433   7.330  10.202   1.299 -0.2312 -0.4769  0.0116
  4174G12c H00477434   7.403  10.258   1.274 -3.7383  4.0764 -0.7734
  4174G12c C01877435   7.170  10.201   1.130 -0.5327  1.0760  0.7356
  4174G12c O00177436   7.065  10.257   1.062  0.4723  1.3601  0.1057
  4174G12c H00377437   7.043  10.184   1.006  3.6781  1.2944 -1.1567
  4174G12c C01977438   7.204  10.055   1.094  1.2761  1.1205  1.6425
  4174G12c H00277439   7.247  10.014   1.186 -8.8826 -4.8712  4.6281
  4174G12c H00177440   7.107  10.006   1.105  3.6053 -4.5440 -0.7298
  4174G12c O00077441   7.203  10.033   0.953  1.8367  1.2843  0.2287
  4174G12c C01A77442   7.270   9.911   0.908 -0.3557  0.4527  0.3196
  4174G12c C02K77443   7.266   9.906   0.774 -0.1531  0.6761  0.0268
  4174G12c O00G77444   7.288  10.025   0.704 -1.6050 -0.6392  1.1916
  4174G12c C02M77445   7.417  10.042   0.662  1.1461 -0.5731  1.0558
  4174G12c H01G77446   7.429  10.025   0.556 10.2220  4.5180  0.7689
  4174G12c H01F77447   7.496  10.007   0.729  2.1411 -0.1683  0.0987
  4174G12c H01E77448   7.428  10.150   0.668  3.5899 -0.7180 -0.3917
  4174G12c C02J77449   7.256   9.774   0.722  0.0336 -2.4935 -1.0294
  4174G12c H01H77450   7.237   9.745   0.620  3.1064 -9.5085  0.1309
  4174G12c C02I77451   7.282   9.663   0.812 -1.1605  2.0630 -0.8007
  4174G12c C02N77452   7.270   9.534   0.742 -0.1876  1.2452 -0.4291
  4174G12c H01M77453   7.247   9.440   0.789 -0.3940  2.0934  1.1995
  4174G12c C02O77454   7.353   9.510   0.633 -0.9357 -1.1475  1.5311
  4174G12c H01L77455   7.396   9.596   0.584 -4.8017  0.9840  1.6210
  4174G12c C02P77456   7.328   9.373   0.554 -1.8951  0.5372 -1.7708
  4174G12c H01K77457   7.404   9.305   0.594  0.8794  3.9385 -1.0322
  4174G12c H01J77458   7.269   9.291   0.596 -1.8480  1.7897  0.8004
  4174G12c O00H77459   7.363   9.393   0.413 -0.9480 -1.2779  0.0720
  4174G12c H01I77460   7.377   9.303   0.387 -3.2409 -1.9084  0.8319
  4174G12c C02H77461   7.327   9.674   0.944  0.8458  0.1119 -0.2805
  4174G12c H01C77462   7.351   9.601   1.020  4.8452 -0.3083 -1.8139
  4174G12c C02L77463   7.302   9.802   0.996 -0.5934  2.3609  2.2168
  4174G12c H01D77464   7.327   9.831   1.097 -0.4304  1.4782  2.4343
  4174G12c C01377465   7.207  10.498   1.280 -0.2469 -1.2946 -0.1141
  4174G12c H00077466   7.148  10.462   1.363  3.5355 -2.2821  2.2606
  4174G12c C01477467   7.292  10.611   1.322 -0.9740  0.7674 -0.5138
  4174G12c C00F77468   7.280  10.707   1.430 -0.6863  0.2838 -1.0885
  4174G12c C00H77469   7.415  10.875   1.316  0.8711 -1.1441  0.6691
  4174G12c C00I77470   7.501  10.989   1.317  0.3055  0.5220  0.1411
  4174G12c C00J77471   7.564  11.025   1.190  0.7107 -1.2337  0.0145
  4174G12c C00Z77472   7.410  10.649   0.968  1.0923 -0.4407 -0.9618
  4174G12c C00Y77473   7.395  10.566   0.852  0.7296  0.2377 -1.1198
  4174G12c H00677474   7.321  10.488   0.842  1.9983 -0.3411 -9.7501
  4174G12c C00X77475   7.415  10.627   0.742  0.1824 -0.0629 -0.9659
  4174G12c O00377476   7.371  10.541   0.634  1.2839 -0.2596 -0.8508
  4174G12c C01B77477   7.473  10.441   0.609  0.1190 -0.0925  0.7219
  4174G12c H00977478   7.569  10.487   0.586 -2.1134  2.3336 -4.2924
  4174G12c H00877479   7.473  10.373   0.695 -2.0654  3.0121  3.3016
  4174G12c H00777480   7.431  10.386   0.525 -7.5110  4.3503  1.1856
  4174G12c C00W77481   7.486  10.746   0.725 -1.2660  0.1831  0.7009
  4174G12c O00477482   7.503  10.804   0.614  1.1750  1.2853 -0.5921
  4174G12c C01C77483   7.561  10.922   0.602  0.2779 -0.2426  1.4690
  4174G12c H00A77484   7.648  10.932   0.540 -2.8694  2.6199 -2.7760
  4174G12c C00P77485   7.546  11.023   0.713  0.8215 -0.0579  1.1852
  4174G12c C00O77486   7.528  11.169   0.694  0.0449 -0.1633 -0.9995
  4174G12c C01D77487   7.442  11.221   0.583  2.1048  0.1240  0.4179
  4174G12c H00S77488   7.407  11.144   0.515  0.9108 -0.3685  1.5565
  4174G12c C01E77489   7.364  11.345   0.593  1.4929  0.6119  0.7420
  4174G12c O00877490   7.272  11.396   0.512  0.9490  0.5636  1.2644
  4174G12c C01V77491   7.308  11.388   0.370  0.5342 -1.4038  0.9796
  4174G12c C01Z77492   7.194  11.326   0.277  1.1489  0.1921  0.2756
  4174G12c H00R77493   7.212  11.230   0.229  3.0470  0.7014 -0.0798
  4174G12c H00Q77494   7.110  11.324   0.346  0.5121 -3.4644 -0.5457
  4174G12c O00977495   7.190  11.420   0.186 -0.7280 -1.0479  1.0169
  4174G12c H00P77496   7.174  11.502   0.229 -3.9397  0.9167 -3.5959
  4174G12c C01W77497   7.442  11.397   0.327  0.4282 -0.7740  0.1391
  4174G12c H00O77498   7.483  11.338   0.245  5.2093  2.8340 -0.2687
  4174G12c C01X77499   7.550  11.479   0.400  0.9054  0.9651  0.7080
  4174G12c H00N77500   7.583  11.546   0.321  1.0153 -4.1004 -3.8329
  4174G12c H00M77501   7.539  11.543   0.488  2.7811  3.3811 -0.7653
  4174G12c C01Y77502   7.678  11.388   0.421 -1.4660  0.0435  1.0558
  4174G12c C02D77503   7.760  11.412   0.530  0.3115  1.0992  0.4586
  4174G12c H01977504   7.726  11.506   0.568  4.0059  2.4600  0.5930
  4174G12c C02C77505   7.884  11.364   0.571  0.0570  0.5806  0.7297
  4174G12c H01A77506   7.957  11.433   0.610 -3.1935  2.3099  4.0998
  4174G12c C02B77507   7.937  11.263   0.483 -1.0648 -2.3163 -1.4142
  4174G12c O00E77508   8.045  11.199   0.514  0.8659 -1.5645 -0.4673
  4174G12c H01B77509   8.074  11.153   0.437  1.8889 -0.1319 -0.9509
  4174G12c C02F77510   7.870  11.220   0.365 -0.0342 -1.8892  0.5472
  4174G12c O00F77511   7.950  11.129   0.292  0.8512  1.6591 -0.7492
  4174G12c C02G77512   7.914  11.087   0.166  0.7662 -0.5931  0.2179
  4174G12c H01777513   7.834  11.013   0.153 -2.1683  2.8018 -2.0249
  4174G12c H01677514   8.003  11.047   0.118  2.3343  0.5149  2.1803
  4174G12c H01577515   7.883  11.184   0.126  3.4184  1.1528  2.2828
  4174G12c C02E77516   7.739  11.294   0.329 -2.1902 -0.4235 -0.2294
  4174G12c H01877517   7.705  11.258   0.233  0.8559  2.0415 -2.3405
  4174G12c C01F77518   7.414  11.446   0.690  1.7204  0.2524 -0.7523
  4174G12c C01G77519   7.349  11.580   0.706  0.5217  0.9242  0.8824
  4174G12c H00L77520   7.262  11.595   0.643 -0.7602 -2.2285  1.8015
  4174G12c C01H77521   7.365  11.655   0.830  0.8680 -0.3248 -0.5626
  4174G12c H00B77522   7.293  11.734   0.837 -2.7632 -3.7133  2.3441
  4174G12c C01I77523   7.459  11.587   0.919  0.9412 -1.2110  0.3037
  4174G12c C01U77524   7.514  11.405   0.776 -1.4021 -0.0428  0.3139
  4174G12c C00S77525   7.534  10.950   1.086  1.4227 -0.8101 -0.9257
  4174G12c C00K77526   7.576  11.161   1.160 -0.6066  0.2534  1.8303
  4174G12c C00N77527   7.562  11.276   0.790 -0.0197  0.3366  0.4578
  4174G12c C00077528   7.552  11.487   0.887 -1.6895 -0.5063  0.1015
  4174G12c C01J77529   7.444  11.562   1.055  0.6997 -0.0111  1.0462
  4174G12c C01K77530   7.371  11.649   1.139 -0.1794  1.0516  1.3971
  4174G12c C01P77531   7.334  11.792   1.122 -0.5299  0.1586  0.6211
  4174G12c C01Q77532   7.369  11.894   1.020 -1.1402  0.2537 -0.8647
  4174G12c H00G77533   7.455  11.909   0.956 -0.8517  0.4848 -0.4197
  4174G12c C01R77534   7.267  11.936   0.950 -1.5247 -0.8545 -0.8615
  4174G12c H00F77535   7.166  11.899   0.964 -4.5535  6.8782  0.1301
  4174G12c C01S77536   7.258  12.045   0.839  0.8358 -0.0432  0.6971
  4174G12c H00E77537   7.320  12.129   0.871 -1.5536  1.0558  2.5532
  4174G12c H00D77538   7.316  12.047   0.747 -7.3858 -4.9341 -5.1873
  4174G12c O00577539   7.130  12.068   0.810  1.5656 -0.7931 -0.4001
  4174G12c H00C77540   7.111  12.104   0.724  0.6981  3.8751  1.6051
  4174G12c C01O77541   7.241  11.853   1.217  0.2019  0.3499  1.5359
  4174G12c H00H77542   7.200  11.950   1.197  5.0754  1.6565 -3.6524
  4174G12c C01N77543   7.211  11.791   1.338  0.0412 -1.0480 -1.1677
  4174G12c O00677544   7.130  11.862   1.419  0.9367  1.1376  0.7509
  4174G12c C01T77545   7.023  11.781   1.465 -1.1668  0.0402  0.6448
  4174G12c H00K77546   6.961  11.751   1.381  0.3945  0.1128 -0.5695
  4174G12c H00J77547   6.960  11.854   1.517 -4.7478 -3.4188  1.3624
  4174G12c H00I77548   7.025  11.711   1.549  1.0578 -0.4591  0.2082
  4174G12c C01M77549   7.250  11.660   1.353  0.6863  2.4275 -0.3131
  4174G12c C02077550   7.522  11.246   1.265  1.3500 -2.5379  0.5211
  4174G12c C02177551   7.495  11.205   1.392 -1.0314 -0.7338  0.6704
  4174G12c C01L77552   7.340  11.589   1.270  2.4042  0.6769 -0.6155
  4174G12c O00777553   7.215  11.599   1.463  0.1916 -1.1176  0.8490
  4174G12c C02277554   7.415  11.282   1.467 -1.0805  1.6297 -0.2146
  4174G12c C02377555   7.480  11.067   1.428 -0.7901  2.0376  0.4583
  4174G12c C00G77556   7.335  10.842   1.434 -0.3711 -0.9246 -0.0043
  4174G12c C00E77557   7.224  10.650   1.553  0.1393  0.0787 -0.6521
  4174G12c O00A77558   7.213  10.500   1.566  0.8904 -0.1567 -1.4676
  4174G12c C02477559   7.190  10.437   1.694  0.1335 -0.9686 -1.2866
  4174G12c H00V77560   7.100  10.461   1.751  1.0134  2.2571 -1.1667
  4174G12c H00U77561   7.178  10.329   1.699 -7.0083 -0.3033  2.8752
  4174G12c H00T77562   7.270  10.451   1.766 -2.1171  0.9480  0.9668
  4184G12c C00D77563   4.501  11.967  13.600  0.1069 -0.4103 -0.6261
  4184G12c O00B77564   4.605  11.954  13.510  0.1109  0.2353  0.0119
  4184G12c C02577565   4.581  11.936  13.375 -0.7089  0.5636  1.0085
  4184G12c C02677566   4.523  11.799  13.327 -2.5029  0.3415 -1.2041
  4184G12c H00Y77567   4.560  11.779  13.227  6.8816  1.1670  1.6081
  4184G12c H00X77568   4.418  11.826  13.343 -0.2795  5.1781  9.8650
  4184G12c O00C77569   4.575  11.689  13.397 -1.5424  0.0472  0.3906
  4184G12c H00W77570   4.495  11.640  13.411  3.2459 -8.8761  0.6877
  4184G12c C02777571   4.634  12.042  13.299 -1.0468  0.4381 -0.1304
  4184G12c O00D77572   4.700  12.143  13.364  0.2725  1.0988  0.3202
  4184G12c H00Z77573   4.715  12.082  13.435 -1.0945 -2.2801 -2.1284
  4184G12c C02877574   4.584  12.051  13.166 -0.6186  1.6293 -0.3255
  4184G12c C02977575   4.447  12.034  13.148 -0.2274  0.9009 -0.1689
  4184G12c H01077576   4.391  12.043  13.240 -3.9038  2.3504 -2.4410
  4184G12c C02T77577   4.384  12.039  13.012  0.7351 -0.8272 -0.0784
  4184G12c H01O77578   4.278  12.019  13.002  0.0637 -0.9608  5.4960
  4184G12c C02S77579   4.475  12.076  12.898 -1.0619  1.1166 -0.2393
  4184G12c O00J77580   4.423  12.110  12.776  0.3836  0.3060  0.0973
  4184G12c H01P77581   4.482  12.114  12.702  0.9531 -2.1634  0.3570
  4184G12c C02R77582   4.611  12.120  12.928 -0.0475 -0.2691 -2.3003
  4184G12c O00I77583   4.679  12.200  12.842  0.6047 -1.9363 -1.7491
  4184G12c C02Q77584   4.698  12.337  12.864  1.3781  0.2418 -1.6355
  4184G12c H01N77585   4.640  12.369  12.951  4.0663 -3.9535  1.8836
  4184G12c H01R77586   4.663  12.403  12.784 -0.8456 -3.1317 -3.5560
  4184G12c H01Q77587   4.801  12.353  12.893  2.4432  2.0730 -5.9518
  4184G12c C02A77588   4.672  12.075  13.054  0.1188 -0.5887  1.3234
  4184G12c H01177589   4.772  12.112  13.068  0.8473 -3.9483  5.9327
  4184G12c C00C77590   4.521  11.916  13.731 -0.8631 -0.0722  0.2548
  4184G12c H01277591   4.617  11.899  13.778 -1.1967  1.7814  1.6493
  4184G12c C00B77592   4.429  11.933  13.831  1.0133 -0.0469  0.1263
  4184G12c C00A77593   4.448  11.857  13.962 -0.9306  0.1237 -0.0528
  4184G12c C00977594   4.524  11.725  13.976  1.5583 -1.4276 -0.6738
  4184G12c C00877595   4.603  11.639  13.909 -0.4716 -0.3075 -0.6093
  4184G12c H01377596   4.650  11.698  13.831  4.6221  1.0686  3.2581
  4184G12c C00777597   4.627  11.501  13.945 -0.3559  0.5583  1.6977
  4184G12c H01477598   4.675  11.447  13.865  1.3228  4.0729  0.2468
  4184G12c C00677599   4.562  11.455  14.060  0.4840  0.6022  0.4528
  4184G12c C00577600   4.481  11.542  14.123 -1.5355 -0.0987  1.2872
  4184G12c C00477601   4.383  11.495  14.227  1.8264  1.1598 -1.2995
  4184G12c C00377602   4.267  11.564  14.243  0.8396  1.4826 -0.7349
  4184G12c C00277603   4.151  11.485  14.308 -0.2870 -1.3676 -0.4958
  4184G12c C00177604   4.025  11.515  14.370  0.3828  0.1723  1.1676
  4184G12c C00M77605   3.927  11.601  14.301  0.6143 -0.7282  1.2221
  4184G12c C00L77606   3.975  11.716  14.240 -1.6987 -0.9421  0.5925
  4184G12c C00R77607   3.907  11.778  14.131 -0.0352 -0.3208 -0.2088
  4184G12c C00Q77608   3.778  11.749  14.073 -0.3919  1.1537 -0.0345
  4184G12c C00V77609   3.734  11.831  13.961  0.4038 -0.1095  0.2067
  4184G12c C00U77610   3.827  11.903  13.886 -0.7994 -0.8223 -0.3973
  4184G12c C00T77611   3.958  11.917  13.931 -0.8597  0.6358 -0.0767
  4184G12c C01677612   4.062  11.973  13.861  0.3243 -0.6682 -0.5704
  4184G12c C01577613   4.035  12.023  13.743  1.7719 -0.4852 -0.7641
  4184G12c C01077614   3.895  12.056  13.712  0.9722  0.7726  2.4332
  4184G12c C01177615   3.859  12.123  13.595  0.2093  0.4499  0.1772
  4184G12c H00577616   3.767  12.159  13.552 -0.2993  1.7423  2.2793
  4184G12c C01277617   3.963  12.142  13.504  1.9293  0.1334 -0.6494
  4184G12c C01777618   3.915  12.186  13.365 -0.4160 -0.7896 -0.0493
  4184G12c O00277619   3.993  12.274  13.292 -0.1912  0.8236  0.2436
  4184G12c H00477620   3.913  12.320  13.273 -1.6093 -0.6516  2.5712
  4184G12c C01877621   3.812  12.112  13.297 -0.7243 -0.4049 -0.5496
  4184G12c O00177622   3.745  11.998  13.356  0.3232  0.7507  1.4195
  4184G12c H00377623   3.699  11.934  13.304 -0.3253 -1.5337  4.6095
  4184G12c C01977624   3.751  12.137  13.166  0.4701 -0.6751  0.1515
  4184G12c H00277625   3.694  12.230  13.164  0.9980 -0.2023  3.7012
  4184G12c H00177626   3.831  12.157  13.094 -0.1148  5.6455  0.9544
  4184G12c O00077627   3.683  12.033  13.096  0.1315  0.0598 -0.4316
  4184G12c C01A77628   3.769  11.927  13.042 -2.7279 -2.0293  0.4768
  4184G12c C02K77629   3.759  11.802  13.107  0.6231  1.8371 -0.5382
  4184G12c O00G77630   3.654  11.790  13.210 -0.3770  1.0035  1.0984
  4184G12c C02M77631   3.562  11.692  13.127  0.2028 -0.3685  0.3960
  4184G12c H01G77632   3.496  11.778  13.136  5.1143  3.2573  4.5306
  4184G12c H01F77633   3.489  11.673  13.207  0.3549  0.8268  0.8214
  4184G12c H01E77634   3.576  11.632  13.037  1.3166  1.4319 -0.6684
  4184G12c C02J77635   3.853  11.694  13.052 -0.5443  1.6738 -1.0335
  4184G12c H01H77636   3.848  11.602  13.107 -5.5356  2.9252  0.8462
  4184G12c C02I77637   3.940  11.708  12.947  0.5238 -0.0049 -1.2802
  4184G12c C02N77638   4.025  11.590  12.914  0.7466 -0.7116  0.4923
  4184G12c H01M77639   3.991  11.502  12.862 -0.2827 -2.2702  3.6810
  4184G12c C02O77640   4.159  11.609  12.927 -1.1644 -0.1694 -0.1493
  4184G12c H01L77641   4.213  11.516  12.915 -0.7015  0.3322 -2.2960
  4184G12c C02P77642   4.224  11.708  12.995 -0.8771 -0.8422 -0.9332
  4184G12c H01K77643   4.192  11.802  12.950 -0.8370 -1.9584 -3.3801
  4184G12c H01J77644   4.175  11.713  13.092  1.8723  3.6519  0.3754
  4184G12c O00H77645   4.347  11.689  12.932 -0.5912  0.9626  0.3327
  4184G12c H01I77646   4.407  11.758  12.956  1.5157 -0.3041 -1.0619
  4184G12c C02H77647   3.952  11.852  12.901 -0.5591 -0.1532  1.0565
  4184G12c H01C77648   4.032  11.875  12.832 -0.7034  2.4456  1.6998
  4184G12c C02L77649   3.863  11.957  12.947 -0.3391  1.2135 -0.9684
  4184G12c H01D77650   3.885  12.060  12.928  1.3541  1.6927  2.9669
  4184G12c C01377651   4.087  12.104  13.521 -0.0787 -1.0392  0.9385
  4184G12c H00077652   4.149  12.089  13.434  0.7457  1.6232  1.0425
  4184G12c C01477653   4.131  12.051  13.647  0.0729 -1.1390 -1.1687
  4184G12c C00F77654   4.265  12.009  13.677 -0.2903 -0.5583 -1.0553
  4184G12c C00H77655   4.199  11.951  13.900 -0.9800  0.1771 -0.5177
  4184G12c C00I77656   4.226  11.902  14.035  0.3996  0.7364 -0.3010
  4184G12c C00J77657   4.113  11.849  14.111 -2.2142  0.2461  1.7966
  4184G12c C00Z77658   3.799  12.007  13.801  0.1472  1.0368  1.4552
  4184G12c C00Y77659   3.662  12.033  13.775  1.9227  0.2005 -1.0372
  4184G12c H00677660   3.606  12.081  13.696  2.1457  1.4198 -0.4676
  4184G12c C00X77661   3.559  11.949  13.834 -1.0104  0.3194 -1.2587
  4184G12c O00377662   3.427  11.958  13.806  1.8784  0.4406 -0.7055
  4184G12c C01B77663   3.372  12.093  13.844 -0.2451  0.5244 -1.4955
  4184G12c H00977664   3.330  12.158  13.767  4.8894  1.2136 -3.9187
  4184G12c H00877665   3.457  12.150  13.881  1.6890 -2.4566 -1.1707
  4184G12c H00777666   3.272  12.103  13.886  1.1270  3.8763  1.1847
  4184G12c C00W77667   3.604  11.850  13.940  0.4019 -0.3413 -0.0781
  4184G12c O00477668   3.513  11.781  14.024  0.2362 -1.2467 -0.3814
  4184G12c C01C77669   3.563  11.657  14.062 -0.4798  1.3083  2.1706
  4184G12c H00A77670   3.555  11.579  13.988  2.7325 -2.8901  5.9794
  4184G12c C00P77671   3.685  11.650  14.126 -0.5869 -1.0314 -1.5621
  4184G12c C00O77672   3.706  11.536  14.208  2.1017 -0.7834 -0.7841
  4184G12c C01D77673   3.607  11.431  14.216  1.9184  0.0344 -0.2988
  4184G12c H00S77674   3.508  11.452  14.179  1.4205 -3.4991 -1.2005
  4184G12c C01E77675   3.641  11.292  14.244  0.4829  1.6193  0.4664
  4184G12c O00877676   3.588  11.170  14.228 -0.0951 -0.3664  0.1681
  4184G12c C01V77677   3.456  11.153  14.181 -1.9701 -0.3087 -0.9597
  4184G12c C01Z77678   3.430  11.042  14.081  0.5121  0.7363 -0.2983
  4184G12c H00R77679   3.518  10.992  14.119  1.3813  1.9020 -0.7431
  4184G12c H00Q77680   3.348  10.973  14.064  0.6504 -0.9308  5.0418
  4184G12c O00977681   3.473  11.088  13.958 -0.3741  0.3711 -0.6875
  4184G12c H00P77682   3.449  11.178  13.969  4.8310  1.6467  1.4447
  4184G12c C01W77683   3.361  11.244  14.232  0.4412  0.7323  0.0277
  4184G12c H00O77684   3.408  11.308  14.305  7.6867 -3.0594 -0.9137
  4184G12c C01X77685   3.210  11.236  14.238  0.0813 -0.2248 -0.3144
  4184G12c H00N77686   3.164  11.141  14.207  0.3762 -1.3907  2.6928
  4184G12c H00M77687   3.155  11.307  14.176 -4.8156 -6.1499 -3.3078
  4184G12c C01Y77688   3.157  11.252  14.368  0.0724  0.5429 -1.9263
  4184G12c C02D77689   3.063  11.348  14.400  0.2978  1.8418 -0.1333
  4184G12c H01977690   3.040  11.419  14.322  0.4285 -0.4751 -2.3351
  4184G12c C02C77691   2.989  11.344  14.521 -0.2217 -2.0792  1.3902
  4184G12c H01A77692   2.891  11.389  14.523 -0.9456 -3.3412 -2.0115
  4184G12c C02B77693   3.057  11.282  14.632 -0.1403 -0.9680  1.8124
  4184G12c O00E77694   3.022  11.268  14.762  1.9974  0.5546 -0.9379
  4184G12c H01B77695   3.073  11.199  14.803  4.1189  0.8531 -2.9569
  4184G12c C02F77696   3.180  11.200  14.608  0.2320 -0.8040 -0.6855
  4184G12c O00F77697   3.225  11.096  14.697 -0.2522  0.3019 -0.2451
  4184G12c C02G77698   3.265  11.123  14.829 -0.9227  0.4788 -0.1294
  4184G12c H01777699   3.289  11.039  14.896 -1.3878  0.3934 -0.0663
  4184G12c H01677700   3.222  11.208  14.882  3.8920  2.9737  0.0446
  4184G12c H01577701   3.364  11.168  14.821 -0.9533 -0.1210 -7.1602
  4184G12c C02E77702   3.213  11.173  14.477  1.4236  1.2701 -0.8699
  4184G12c H01877703   3.295  11.105  14.458  2.4839  3.7686 -6.2715
  4184G12c C01F77704   3.772  11.290  14.310  0.8110  0.7548  0.4901
  4184G12c C01G77705   3.859  11.186  14.311  0.0613  0.1338  0.5654
  4184G12c H00L77706   3.808  11.097  14.277  2.0686 -1.1296  0.8008
  4184G12c C01H77707   3.995  11.172  14.350  1.1387 -0.0132 -0.0561
  4184G12c H00B77708   4.046  11.079  14.332  5.3891  2.4042 -1.4718
  4184G12c C01I77709   4.057  11.290  14.401 -0.4311  0.1404 -1.8507
  4184G12c C01U77710   3.839  11.403  14.366  0.9540  1.0244  1.2061
  4184G12c C00S77711   3.987  11.858  14.050  0.9691  0.7005  0.7814
  4184G12c C00K77712   4.117  11.747  14.214 -0.6859 -0.0060 -0.2215
  4184G12c C00N77713   3.799  11.527  14.299  0.4167 -0.3708 -0.0874
  4184G12c C00077714   3.967  11.399  14.430  0.3924  0.9688  0.0176
  4184G12c C01J77715   4.177  11.350  14.352  0.4991  2.4072 -0.7222
  4184G12c C01K77716   4.315  11.290  14.349  0.6578  0.9557 -3.5367
  4184G12c C01P77717   4.348  11.169  14.409 -0.9367  0.1138  1.6365
  4184G12c C01Q77718   4.284  11.112  14.516  0.8425  1.0855 -0.1521
  4184G12c H00G77719   4.177  11.115  14.498  0.1280 -0.2129  3.4927
  4184G12c C01R77720   4.336  11.044  14.614  0.9352  0.1994 -1.1251
  4184G12c H00F77721   4.432  11.029  14.662  1.9494  6.9954 -0.5767
  4184G12c C01S77722   4.223  10.970  14.707 -0.5642 -2.4329 -1.1547
  4184G12c H00E77723   4.161  11.040  14.764 -3.6029  0.7429 -7.8379
  4184G12c H00D77724   4.259  10.892  14.774 -2.9128 -2.6096 -0.0359
  4184G12c O00577725   4.142  10.880  14.626 -2.1964 -0.8375  1.2141
  4184G12c H00C77726   4.147  10.806  14.684  3.3606  2.9014  6.0131
  4184G12c C01O77727   4.457  11.109  14.342 -0.3580  0.2448 -0.2381
  4184G12c H00H77728   4.492  11.011  14.372  2.7446  2.5068  4.1170
  4184G12c C01N77729   4.544  11.161  14.269  0.7302 -0.5291  0.6494
  4184G12c O00677730   4.654  11.083  14.249 -1.5694  1.2799  0.3685
  4184G12c C01T77731   4.785  11.139  14.289  0.9058 -0.5202  2.1708
  4184G12c H00K77732   4.786  11.208  14.205 -0.4004 -2.0499  0.8588
  4184G12c H00J77733   4.867  11.069  14.273 -0.1969 -1.2883 -0.4077
  4184G12c H00I77734   4.787  11.189  14.386 -3.8956 -5.9472  5.4050
  4184G12c C01M77735   4.509  11.293  14.217 -1.9071  0.0915  1.2392
  4184G12c C02077736   4.253  11.709  14.229  0.0012 -2.0986  0.2286
  4184G12c C02177737   4.373  11.758  14.161 -2.1934 -0.3767  1.1996
  4184G12c C01L77738   4.404  11.361  14.258 -0.9144  1.7198 -1.2380
  4184G12c O00777739   4.598  11.341  14.116  0.2335  0.9634  0.0938
  4184G12c C02277740   4.465  11.678  14.099  0.2096  1.1896  0.8622
  4184G12c C02377741   4.357  11.862  14.064  0.1947 -0.6749 -0.2418
  4184G12c C00G77742   4.297  11.966  13.804 -0.1885 -0.2858 -0.0602
  4184G12c C00E77743   4.368  12.024  13.581 -0.4070 -1.2990 -0.1668
  4184G12c O00A77744   4.371  12.110  13.478 -0.4410  0.5868  1.1215
  4184G12c C02477745   4.406  12.229  13.525 -0.3822  0.1434  0.8372
  4184G12c H00V77746   4.382  12.325  13.478 -4.1028 -3.0624 -4.2918
  4184G12c H00U77747   4.512  12.215  13.548  1.0109  6.1226 -0.8774
  4184G12c H00T77748   4.352  12.232  13.619 -1.2879  3.7652  0.2995
  4194G12c C00D77749   0.383   7.892   8.381  0.6454  0.7953 -0.2797
  4194G12c O00B77750   0.464   7.963   8.301  1.3461 -2.0759  0.3777
  4194G12c C02577751   0.577   8.013   8.364 -0.0418  1.1683 -0.2230
  4194G12c C02677752   0.707   7.929   8.342 -1.3838 -1.6397  0.4580
  4194G12c H00Y77753   0.688   7.846   8.409 -3.3639 -2.8427 -1.5600
  4194G12c H00X77754   0.803   7.979   8.357 -2.1327 -1.6532  6.9176
  4194G12c O00C77755   0.721   7.851   8.221  0.0333 -0.7458  0.1748
  4194G12c H00W77756   0.654   7.868   8.157  0.9913  0.3872 -0.5497
  4194G12c C02777757   0.572   8.124   8.452 -0.1977 -0.3906  0.4016
  4194G12c O00D77758   0.458   8.214   8.473 -1.0976 -0.1903 -0.6343
  4194G12c H00Z77759   0.382   8.183   8.427  1.0393 -6.5296 -0.4067
  4194G12c C02877760   0.683   8.173   8.534 -0.9303  0.4946  0.8218
  4194G12c C02977761   0.761   8.084   8.624 -1.0569 -0.9758 -0.1578
  4194G12c H01077762   0.742   7.978   8.635 -3.4401 -0.3666  2.1316
  4194G12c C02T77763   0.853   8.148   8.701 -0.8202 -0.4901 -1.3659
  4194G12c H01O77764   0.903   8.102   8.785  4.0893  3.9547 -1.5795
  4194G12c C02S77765   0.860   8.289   8.698 -0.0137 -0.3146 -0.2283
  4194G12c O00J77766   0.881   8.342   8.824 -1.6310  1.8142  0.2630
  4194G12c H01P77767   0.967   8.313   8.851  0.0320  2.5167 -3.8665
  4194G12c C02R77768   0.812   8.376   8.599  0.3197  0.4363  0.4285
  4194G12c O00I77769   0.796   8.506   8.565 -0.7032 -0.5559  0.0546
  4194G12c C02Q77770   0.790   8.580   8.690  0.4989 -1.1708  1.7654
  4194G12c H01N77771   0.703   8.550   8.748  1.3270 -1.9256  2.6331
  4194G12c H01R77772   0.878   8.563   8.752 -0.0184 -1.5921  2.3886
  4194G12c H01Q77773   0.755   8.679   8.662  1.6412 -2.5832 -5.7460
  4194G12c C02A77774   0.730   8.300   8.504  1.5566  0.6951 -0.1919
  4194G12c H01177775   0.684   8.365   8.431 -3.8857 -3.9183 -1.2292
  4194G12c C00C77776   0.333   7.892   8.516  1.2584  0.1345 -0.2803
  4194G12c H01277777   0.369   7.975   8.574  2.9430  1.2696 -2.8671
  4194G12c C00B77778   0.214   7.822   8.551 -2.2197  1.6357 -0.8109
  4194G12c C00A77779   0.136   7.860   8.666  1.1319 -0.8236 -0.4079
  4194G12c C00977780   0.173   7.923   8.789  1.2448 -1.7233  0.2394
  4194G12c C00877781   0.283   8.000   8.846  0.2154 -0.0016 -0.3925
  4194G12c H01377782   0.348   8.056   8.780 -1.8597 -0.7341 -3.1939
  4194G12c C00777783   0.306   7.996   8.991 -1.1444 -0.6901 -0.4282
  4194G12c H01477784   0.391   8.047   9.033  0.9778 -0.1968 -4.9677
  4194G12c C00677785   0.220   7.923   9.064 -2.1156  0.2251 -0.1239
  4194G12c C00577786   0.113   7.844   9.013  0.5404  0.7126  1.5488
  4194G12c C00477787   0.033   7.744   9.087 -1.5570  1.5584 -0.9224
  4194G12c C00377788  -0.060   7.669   9.009 -1.5062 -1.2325  1.1867
  4194G12c C00277789  -0.136   7.580   9.091 -0.0932 -1.2124 -0.9124
  4194G12c C00177790  -0.238   7.486   9.053  0.0886  1.0390 -0.6291
  4194G12c C00M77791  -0.224   7.395   8.937  0.7243  0.8534  0.3362
  4194G12c C00L77792  -0.214   7.438   8.798  1.0168  1.2900  0.5048
  4194G12c C00R77793  -0.169   7.360   8.696  0.9092 -0.8134 -0.2638
  4194G12c C00Q77794  -0.155   7.218   8.674 -0.9729  1.0956 -1.6217
  4194G12c C00V77795  -0.091   7.188   8.558  1.5513  1.0844 -2.3138
  4194G12c C00U77796  -0.026   7.277   8.482 -2.4333 -1.3191 -1.8544
  4194G12c C00T77797  -0.019   7.415   8.507 -0.6951 -0.5502  0.2513
  4194G12c C01677798   0.069   7.509   8.475  0.2408  1.8003  0.5693
  4194G12c C01577799   0.132   7.472   8.354  0.8599 -0.6608  1.1576
  4194G12c C01077800   0.112   7.341   8.297 -0.4151  0.2474  0.6775
  4194G12c C01177801   0.174   7.306   8.179 -1.4062  0.8078  0.1242
  4194G12c H00577802   0.140   7.215   8.130  0.8520  1.6534 -3.2205
  4194G12c C01277803   0.265   7.392   8.100  2.1118  0.7115  0.8089
  4194G12c C01777804   0.337   7.370   7.965  0.6615 -0.8989  0.3870
  4194G12c O00277805   0.441   7.434   7.956  0.2133  0.1060 -0.7024
  4194G12c H00477806   0.471   7.425   7.867  3.0309  6.6841 -0.6883
  4194G12c C01877807   0.302   7.282   7.870  0.7895  0.2616  0.3720
  4194G12c O00177808   0.399   7.248   7.773  0.5078  0.2688  0.1683
  4194G12c H00377809   0.409   7.171   7.826 -0.7833  2.0078  3.0664
  4194G12c C01977810   0.198   7.169   7.871 -1.4918  0.4125  1.6969
  4194G12c H00277811   0.224   7.120   7.777 -0.0701  1.4620  1.5253
  4194G12c H00177812   0.202   7.097   7.953  3.6416 -1.8896 -0.3350
  4194G12c O00077813   0.075   7.217   7.822 -1.2299  1.5794 -0.0494
  4194G12c C01A77814  -0.041   7.147   7.849  0.0090 -0.3801 -2.5377
  4194G12c C02K77815  -0.064   7.008   7.858 -0.0560  0.9731  1.2866
  4194G12c O00G77816   0.048   6.935   7.819 -1.4246  0.6205 -0.9289
  4194G12c C02M77817   0.098   6.827   7.921  0.4497  1.0752 -0.2803
  4194G12c H01G77818   0.069   6.817   8.026 -2.8493 -2.7949 -1.4420
  4194G12c H01F77819   0.191   6.882   7.933 -1.7365  4.1631  3.9969
  4194G12c H01E77820   0.099   6.733   7.866  3.7614  1.2343 -0.6026
  4194G12c C02J77821  -0.188   6.952   7.886  1.1240 -0.6433 -0.0646
  4194G12c H01H77822  -0.195   6.845   7.884 -3.2375 -0.5473 -6.6971
  4194G12c C02I77823  -0.316   7.035   7.879 -0.9134  0.4455 -0.3836
  4194G12c C02N77824  -0.436   6.965   7.850  0.7792  0.1152 -0.4271
  4194G12c H01M77825  -0.495   6.952   7.760 -2.7773  0.1802  1.8301
  4194G12c C02O77826  -0.475   6.869   7.944  0.7873 -0.3779  0.3328
  4194G12c H01L77827  -0.553   6.794   7.948  0.0614  0.3679  0.4500
  4194G12c C02P77828  -0.421   6.871   8.096 -1.4643  0.1232  0.4851
  4194G12c H01K77829  -0.403   6.954   8.164 -1.0426 -2.0685  3.1524
  4194G12c H01J77830  -0.350   6.788   8.105 -2.3684 -1.4313 -4.7639
  4194G12c O00H77831  -0.538   6.817   8.188 -1.3365 -0.9368  1.2308
  4194G12c H01I77832  -0.558   6.725   8.181 -3.8572 -0.5791  3.3316
  4194G12c C02H77833  -0.291   7.174   7.848 -0.4460  0.0081  1.3134
  4194G12c H01C77834  -0.377   7.232   7.819  0.3589  1.3675  1.6138
  4194G12c C02L77835  -0.168   7.225   7.857 -1.4736  0.2136  1.4219
  4194G12c H01D77836  -0.148   7.327   7.826  0.2377  0.0112  1.7861
  4194G12c C01377837   0.275   7.513   8.165  0.3422 -0.4105 -0.1206
  4194G12c H00077838   0.309   7.595   8.104 -1.1352  1.6008  1.6776
  4194G12c C01477839   0.221   7.557   8.291  1.2290 -0.0680 -0.4241
  4194G12c C00F77840   0.247   7.675   8.364  0.3346 -0.5178 -0.9707
  4194G12c C00H77841   0.063   7.636   8.516  0.4267 -1.4551 -0.9739
  4194G12c C00I77842  -0.024   7.668   8.615  1.7322  0.5477 -0.3717
  4194G12c C00J77843  -0.124   7.576   8.646 -0.0289 -0.1050  0.0593
  4194G12c C00Z77844   0.025   7.248   8.362  0.2156  0.0783 -1.1825
  4194G12c C00Y77845   0.018   7.118   8.312 -0.8268 -2.7327  1.2016
  4194G12c H00677846   0.098   7.062   8.265  0.4171  3.5361 -4.9034
  4194G12c C00X77847  -0.041   7.019   8.389 -1.3591 -1.9977  0.0772
  4194G12c O00377848  -0.018   6.890   8.370  0.1215  0.3068 -1.8461
  4194G12c C01B77849   0.096   6.852   8.431 -1.1403  1.0965 -0.5140
  4194G12c H00977850   0.086   6.885   8.535  3.7772 -7.6343  3.3550
  4194G12c H00877851   0.177   6.892   8.370 -1.6810 -0.2485 -2.1424
  4194G12c H00777852   0.088   6.743   8.428 -2.5354  1.1842 -0.2101
  4194G12c C00W77853  -0.107   7.058   8.512  1.3198  1.2473  0.2174
  4194G12c O00477854  -0.152   6.959   8.594 -0.0650 -0.8698  0.3036
  4194G12c C01C77855  -0.204   6.978   8.705  0.1939  0.7844 -2.5017
  4194G12c H00A77856  -0.289   6.916   8.725  0.2019  1.6407  0.5742
  4194G12c C00P77857  -0.180   7.114   8.768 -0.7784  1.1807  1.0572
  4194G12c C00O77858  -0.202   7.128   8.919  0.3388  0.7036  1.0868
  4194G12c C01D77859  -0.189   7.010   8.999 -0.0296 -0.1510 -1.1454
  4194G12c H00S77860  -0.165   6.913   8.957 -4.5763 -0.2985 -3.6780
  4194G12c C01E77861  -0.191   7.027   9.146  0.2683 -0.0456 -0.6160
  4194G12c O00877862  -0.148   6.947   9.254 -1.0898 -0.5694 -0.6446
  4194G12c C01V77863  -0.079   6.838   9.212 -0.9795 -0.2943 -0.3218
  4194G12c C01Z77864  -0.174   6.721   9.160  0.4487 -0.0509 -1.0658
  4194G12c H00R77865  -0.183   6.728   9.052  1.1774  2.1405 -1.0101
  4194G12c H00Q77866  -0.144   6.616   9.157 -6.9691 -2.5377  1.3476
  4194G12c O00977867  -0.305   6.739   9.226 -0.4582  1.2231  0.0076
  4194G12c H00P77868  -0.372   6.741   9.159  1.5511 -0.6037 -2.1311
  4194G12c C01W77869   0.055   6.845   9.196 -0.4997 -0.9741 -0.2783
  4194G12c H00O77870   0.091   6.944   9.218  1.9833 -1.2160 -2.8586
  4194G12c C01X77871   0.156   6.750   9.137 -0.9383  1.1016  0.1048
  4194G12c H00N77872   0.130   6.644   9.147  2.8107  0.4928  6.4015
  4194G12c H00M77873   0.242   6.750   9.205  2.1086  0.0893 -3.5686
  4194G12c C01Y77874   0.225   6.811   9.023 -0.6749  1.1937  0.0178
  4194G12c C02D77875   0.248   6.733   8.900 -0.6221 -0.3662 -1.3306
  4194G12c H01977876   0.244   6.626   8.911 -2.6053 -0.4121 -2.2992
  4194G12c C02C77877   0.267   6.801   8.770  0.1791  0.3773 -0.3207
  4194G12c H01A77878   0.270   6.755   8.673  4.8915 -2.8735  1.2181
  4194G12c C02B77879   0.271   6.948   8.766  0.6432  1.9358 -0.4042
  4194G12c O00E77880   0.278   7.015   8.646  0.4567  1.0005  0.5816
  4194G12c H01B77881   0.288   7.108   8.645  3.2215  0.7500  0.2283
  4194G12c C02F77882   0.274   7.018   8.893  1.7794  0.2004  0.1270
  4194G12c O00F77883   0.299   7.155   8.924  0.1808 -0.3454 -0.0974
  4194G12c C02G77884   0.245   7.260   8.832  0.5451  1.0143  0.1182
  4194G12c H01777885   0.314   7.341   8.809  2.4889 -1.0861 -1.5679
  4194G12c H01677886   0.161   7.310   8.880  0.0453  1.7267 -1.4839
  4194G12c H01577887   0.215   7.211   8.740  0.5310 -3.5209  2.3887
  4194G12c C02E77888   0.235   6.945   9.018  0.1380 -0.0286  0.5121
  4194G12c H01877889   0.232   6.997   9.113 -0.6778  1.5864 -0.3700
  4194G12c C01F77890  -0.207   7.157   9.206 -1.5900  1.6621 -0.5631
  4194G12c C01G77891  -0.176   7.181   9.345  0.1638  0.1939 -0.1468
  4194G12c H00L77892  -0.154   7.116   9.428 -3.0883 -5.7433 -3.5438
  4194G12c C01H77893  -0.160   7.335   9.372  2.1897  0.1608  1.7167
  4194G12c H00B77894  -0.134   7.370   9.471  6.4556 -0.2917  0.8473
  4194G12c C01I77895  -0.171   7.441   9.263 -0.6578 -0.0889 -0.9037
  4194G12c C01U77896  -0.240   7.269   9.123  0.5855  1.8658  0.1042
  4194G12c C00S77897  -0.126   7.450   8.586  1.5550  1.4463  0.9159
  4194G12c C00K77898  -0.160   7.573   8.784  0.9527  1.2271 -1.5336
  4194G12c C00N77899  -0.219   7.259   8.974  0.6988  0.4288 -0.4075
  4194G12c C00077900  -0.261   7.409   9.169  0.8303  0.7121  0.8719
  4194G12c C01J77901  -0.074   7.534   9.220  1.9246  1.7901  0.2799
  4194G12c C01K77902   0.063   7.569   9.269 -0.5899  1.2681  0.0847
  4194G12c C01P77903   0.161   7.522   9.369 -1.3960  0.0759 -0.7287
  4194G12c C01Q77904   0.152   7.389   9.431  0.1481  0.2265 -0.8757
  4194G12c H00G77905   0.098   7.389   9.524 -1.5430  5.1985 -1.6869
  4194G12c C01R77906   0.243   7.301   9.371  0.1816 -1.3458  0.2598
  4194G12c H00F77907   0.285   7.338   9.279 -3.6096  3.3728  0.1983
  4194G12c C01S77908   0.264   7.170   9.393 -0.3042  0.3367  0.2038
  4194G12c H00E77909   0.326   7.141   9.478 -1.6943  1.3131  1.5785
  4194G12c H00D77910   0.164   7.141   9.424 -0.9889  2.0998 -0.3017
  4194G12c O00577911   0.337   7.111   9.302  0.1136  0.0661 -0.6332
  4194G12c H00C77912   0.394   7.053   9.351  3.8920  4.3835  0.4006
  4194G12c C01O77913   0.276   7.583   9.390  1.2621 -1.0668  1.1911
  4194G12c H00H77914   0.368   7.548   9.434  4.6025  4.6331 -0.6562
  4194G12c C01N77915   0.299   7.703   9.342 -0.8267  1.0026  0.3803
  4194G12c O00677916   0.415   7.745   9.391  0.2022  1.0252 -1.0822
  4194G12c C01T77917   0.427   7.878   9.432  0.5304  0.7776 -0.4584
  4194G12c H00K77918   0.323   7.875   9.466  0.9284 -0.8229  0.6879
  4194G12c H00J77919   0.436   7.949   9.351  3.7563  0.1578 -0.7031
  4194G12c H00I77920   0.495   7.911   9.510  2.4706 -1.5477 -1.1060
  4194G12c C01M77921   0.220   7.766   9.248 -0.9498  0.1044 -0.5372
  4194G12c C02077922  -0.091   7.673   8.869 -0.5939 -0.5702  0.8122
  4194G12c C02177923  -0.042   7.798   8.808 -1.6324  0.9001  0.3441
  4194G12c C01L77924   0.095   7.699   9.208 -0.3299  0.8208 -0.7391
  4194G12c O00777925   0.256   7.899   9.190 -0.7870  0.1623  1.0720
  4194G12c C02277926   0.075   7.856   8.871 -0.7960 -0.5024  0.3462
  4194G12c C02377927   0.005   7.789   8.667  1.6570  0.3177 -0.1658
  4194G12c C00G77928   0.164   7.718   8.464  1.6917 -0.2917  1.2986
  4194G12c C00E77929   0.350   7.762   8.325 -0.1851  1.0343  1.5274
  4194G12c O00A77930   0.356   7.772   8.185  0.0893 -0.5096  0.1099
  4194G12c C02477931   0.251   7.849   8.103  0.2135 -0.9990  1.6149
  4194G12c H00V77932   0.232   7.956   8.094 -0.2751 -1.4616 -8.3190
  4194G12c H00U77933   0.279   7.819   8.002 -0.4906 -1.3245  1.5107
  4194G12c H00T77934   0.152   7.802   8.109 -1.7480  3.1929  3.4050
  4204G12c C00D77935   4.106   2.883   3.258 -0.0627  0.0036 -0.4655
  4204G12c O00B77936   4.065   2.775   3.174 -1.4593  0.4985  1.5577
  4204G12c C02577937   4.118   2.746   3.058  1.1172 -1.2621 -0.1112
  4204G12c C02677938   4.046   2.616   3.008 -0.0561  1.2818 -0.3733
  4204G12c H00Y77939   4.099   2.525   3.037 -0.5439 -1.3377 -6.9509
  4204G12c H00X77940   4.053   2.648   2.904  0.9117 -3.6438 -1.9574
  4204G12c O00C77941   3.912   2.609   3.057 -2.1627 -0.1604  1.7293
  4204G12c H00W77942   3.936   2.618   3.148  1.1019 -0.5068  0.9823
  4204G12c C02777943   4.223   2.809   2.987  0.7884 -0.1593  0.1793
  4204G12c O00D77944   4.299   2.919   3.029 -0.0791  0.7903 -0.4688
  4204G12c H00Z77945   4.350   2.961   2.962 -4.6858 -2.2639 -6.3748
  4204G12c C02877946   4.273   2.748   2.857 -1.3039  0.2467 -1.1051
  4204G12c C02977947   4.370   2.655   2.841 -1.1774 -0.7412 -0.7887
  4204G12c H01077948   4.457   2.607   2.884 -0.9780 -4.7724 -5.2482
  4204G12c C02T77949   4.373   2.584   2.719  0.0585  0.2218 -1.0986
  4204G12c H01O77950   4.437   2.497   2.721 -1.5229 -1.0570  4.4566
  4204G12c C02S77951   4.275   2.607   2.634 -1.5932  0.8303 -0.9735
  4204G12c O00J77952   4.285   2.525   2.529 -1.5698  0.1488  1.5438
  4204G12c H01P77953   4.233   2.563   2.460  7.0617  4.1475 -3.7008
  4204G12c C02R77954   4.192   2.718   2.642  0.6114 -0.3343 -0.0660
  4204G12c O00I77955   4.098   2.717   2.543  0.8144  0.3942 -0.4730
  4204G12c C02Q77956   3.976   2.731   2.618  0.0592  1.7445  2.4082
  4204G12c H01N77957   3.934   2.676   2.702 -4.3408  0.5830 -0.3955
  4204G12c H01R77958   3.917   2.661   2.559  2.4204  1.9763 -0.3280
  4204G12c H01Q77959   3.905   2.813   2.604  2.8932  3.5260 -2.8305
  4204G12c C02A77960   4.202   2.793   2.751  1.5375  0.0487 -0.3637
  4204G12c H01177961   4.110   2.844   2.772 -0.6817 -5.7186  5.9554
  4204G12c C00C77962   4.039   2.998   3.310  0.8343 -0.1263  0.1231
  4204G12c H01277963   3.940   3.028   3.277 -1.1644 -0.9318  4.9305
  4204G12c C00B77964   4.082   3.061   3.420  1.4765 -0.0933  1.2332
  4204G12c C00A77965   4.013   3.176   3.470 -0.2020 -1.0131 -1.5665
  4204G12c C00977966   3.958   3.281   3.395 -0.1169 -1.1503  0.1546
  4204G12c C00877967   3.946   3.328   3.264 -0.9593  1.4633  0.0502
  4204G12c H01377968   3.924   3.247   3.196 -0.8749  0.1725  1.5590
  4204G12c C00777969   3.931   3.477   3.240 -1.3350  0.3172  0.9671
  4204G12c H01477970   3.917   3.515   3.140 -1.5116  1.6662  1.4998
  4204G12c C00677971   3.970   3.579   3.334  0.2871  0.1269  0.1085
  4204G12c C00577972   4.009   3.527   3.452  0.3787  1.9569  1.5086
  4204G12c C00477973   4.047   3.614   3.564  0.4523  0.2451 -0.0656
  4204G12c C00377974   4.093   3.563   3.687  1.8897  0.0593  0.2431
  4204G12c C00277975   4.136   3.665   3.776  1.6788 -1.3333  0.2866
  4204G12c C00177976   4.202   3.647   3.913 -1.0708  0.7803  0.6108
  4204G12c C00M77977   4.325   3.560   3.939  0.3120 -0.9023  0.1401
  4204G12c C00L77978   4.307   3.421   3.905 -0.3090  1.1808 -0.0026
  4204G12c C00R77979   4.407   3.322   3.901 -0.3917 -0.2964  1.1511
  4204G12c C00Q77980   4.548   3.354   3.912 -1.3859 -0.4757  1.0431
  4204G12c C00V77981   4.621   3.238   3.876 -1.4139  0.2829  1.1624
  4204G12c C00U77982   4.563   3.142   3.783  0.0119 -1.6321 -1.2300
  4204G12c C00T77983   4.437   3.156   3.744  0.1546  0.3434  0.0592
  4204G12c C01677984   4.375   3.056   3.653  1.8243  0.1804 -2.4140
  4204G12c C01577985   4.452   2.963   3.592 -0.8094  0.7407  0.4295
  4204G12c C01077986   4.579   2.938   3.644  0.0684 -1.6516 -0.1539
  4204G12c C01177987   4.665   2.848   3.580 -0.9133 -0.0477  0.0310
  4204G12c H00577988   4.760   2.839   3.630 -1.3734  1.9792  1.3145
  4204G12c C01277989   4.613   2.775   3.469 -0.0585  0.9725  0.3730
  4204G12c C01777990   4.673   2.663   3.414  2.2673  0.6955 -0.2267
  4204G12c O00277991   4.777   2.676   3.313 -0.4476  0.5711  1.2423
  4204G12c H00477992   4.838   2.607   3.336  5.4041  6.9373  6.8900
  4204G12c C01877993   4.620   2.545   3.450  0.3589 -0.7128 -0.1089
  4204G12c O00177994   4.526   2.515   3.530  0.5856 -0.6469 -0.2764
  4204G12c H00377995   4.569   2.468   3.600  1.4334  3.3532  2.0343
  4204G12c C01977996   4.699   2.413   3.401  1.6957  1.0944 -1.3753
  4204G12c H00277997   4.644   2.330   3.447  3.8130 -0.2879 -1.2343
  4204G12c H00177998   4.653   2.369   3.313  6.9275 -2.0438 -2.7811
  4204G12c O00077999   4.837   2.430   3.437  1.0112 -0.8735 -1.7547
  4204G12c C01A78000   4.925   2.332   3.402  0.1254 -0.9983  0.0389
  4204G12c C02K78001   5.014   2.319   3.503 -1.0938  0.8099 -1.0587
  4204G12c O00G78002   4.978   2.366   3.627  0.2344 -1.4644 -0.7502
  4204G12c C02M78003   5.039   2.324   3.750  1.0894 -1.1249  0.6620
  4204G12c H01G78004   5.029   2.219   3.775 -2.4619 -0.2818  3.1686
  4204G12c H01F78005   4.967   2.361   3.823 -1.4592  3.0759 -3.7040
  4204G12c H01E78006   5.144   2.354   3.761  0.0235  2.0216  3.0413
  4204G12c C02J78007   5.149   2.283   3.471 -0.8961 -2.0947  0.2997
  4204G12c H01H78008   5.224   2.279   3.549  2.6290 -6.4727 -3.0091
  4204G12c C02I78009   5.207   2.242   3.348  1.4610 -0.2789  0.1221
  4204G12c C02N78010   5.355   2.229   3.335 -1.5101  2.6356 -0.3282
  4204G12c H01M78011   5.435   2.294   3.305  0.4269  1.2539  1.7141
  4204G12c C02O78012   5.405   2.115   3.386  1.0217  0.4857  0.2569
  4204G12c H01L78013   5.326   2.049   3.419  0.8462  0.7084  0.2844
  4204G12c C02P78014   5.561   2.082   3.405 -2.5092 -1.2111 -1.3082
  4204G12c H01K78015   5.594   2.011   3.329 -6.7890 -6.2621  1.2288
  4204G12c H01J78016   5.609   2.179   3.420  2.2108 -4.3409  7.3631
  4204G12c O00H78017   5.569   1.984   3.517 -0.3144 -0.6549 -0.2089
  4204G12c H01I78018   5.629   1.916   3.489 -1.0387 -0.7316 -1.6495
  4204G12c C02H78019   5.103   2.258   3.261  2.0822  1.3003  1.8857
  4204G12c H01C78020   5.109   2.226   3.158  3.8237  0.9928  2.0691
  4204G12c C02L78021   4.971   2.313   3.273  0.2575 -0.5690  0.2026
  4204G12c H01D78022   4.922   2.378   3.202  2.7239  1.0088 -0.1282
  4204G12c C01378023   4.482   2.798   3.424 -1.1007 -0.7203 -1.0979
  4204G12c H00078024   4.451   2.761   3.328 -4.9869  0.2339 -0.3052
  4204G12c C01478025   4.397   2.889   3.492 -0.0080  0.1122  0.4401
  4204G12c C00F78026   4.277   2.922   3.424 -0.9529 -2.5341 -0.9610
  4204G12c C00H78027   4.241   3.086   3.599 -1.7080 -1.0004 -1.5869
  4204G12c C00I78028   4.160   3.180   3.671 -0.3469  0.2391 -0.7941
  4204G12c C00J78029   4.222   3.247   3.778 -1.6134  0.5121  0.8620
  4204G12c C00Z78030   4.639   3.032   3.736 -0.8452 -2.2988 -0.2632
  4204G12c C00Y78031   4.777   3.033   3.787  0.2415 -0.9458  0.3432
  4204G12c H00678032   4.857   2.965   3.764  0.8497 -1.1884  2.9780
  4204G12c C00X78033   4.832   3.135   3.861 -0.7080 -1.4626  0.8736
  4204G12c O00378034   4.958   3.119   3.887  0.4086  1.8630 -0.1594
  4204G12c C01B78035   5.058   3.191   3.838  0.7709 -0.8338 -0.8269
  4204G12c H00978036   5.119   3.263   3.891  2.5122  0.6373 -4.5937
  4204G12c H00878037   5.009   3.244   3.756 -2.3340  0.4655  1.7783
  4204G12c H00778038   5.134   3.114   3.819 -0.6748 -3.9374  4.9910
  4204G12c C00W78039   4.757   3.235   3.924  2.5702  0.6461  0.5415
  4204G12c O00478040   4.819   3.339   3.993  2.1289 -1.8079 -0.5527
  4204G12c C01C78041   4.765   3.458   3.953  0.2879 -0.3134 -1.0055
  4204G12c H00A78042   4.801   3.522   3.873  2.1305  2.9551  2.2919
  4204G12c C00P78043   4.623   3.476   3.943 -0.5944 -1.0606 -0.7804
  4204G12c C00O78044   4.581   3.605   3.946  0.7685 -0.5563 -1.3969
  4204G12c C01D78045   4.670   3.721   3.939  0.5146  0.2522 -0.0281
  4204G12c H00S78046   4.777   3.709   3.948  0.7949 -4.9172 -6.3506
  4204G12c C01E78047   4.613   3.844   3.909 -0.7934 -1.2252  0.5531
  4204G12c O00878048   4.706   3.939   3.857 -0.4349 -2.1405 -0.9218
  4204G12c C01V78049   4.797   3.912   3.756  0.9351 -0.7332  1.3621
  4204G12c C01Z78050   4.945   3.934   3.784 -0.4705 -0.6814  1.0545
  4204G12c H00R78051   5.021   3.938   3.707 -2.8800 -2.5113 -1.5288
  4204G12c H00Q78052   4.978   4.025   3.834  5.8122 -3.8539  3.2571
  4204G12c O00978053   5.016   3.831   3.853  1.1860 -2.0210  0.1292
  4204G12c H00P78054   4.985   3.819   3.942  6.5499 -4.9962  1.8048
  4204G12c C01W78055   4.743   3.898   3.635 -0.7028  0.3926  0.0787
  4204G12c H00O78056   4.639   3.927   3.637 -0.5242  1.4791 -3.3535
  4204G12c C01X78057   4.785   3.826   3.505  1.5016  0.0747 -1.5948
  4204G12c H00N78058   4.723   3.883   3.437 -0.7974  0.2212  0.5354
  4204G12c H00M78059   4.878   3.880   3.488  1.4627  2.4145  4.3367
  4204G12c C01Y78060   4.778   3.680   3.481  0.2143  0.6696 -1.6344
  4204G12c C02D78061   4.890   3.593   3.487  2.4959 -0.3610  2.5398
  4204G12c H01978062   4.993   3.623   3.471  2.9012 -3.6366 -1.7609
  4204G12c C02C78063   4.879   3.452   3.472 -0.2752  1.0463 -1.6635
  4204G12c H01A78064   4.980   3.418   3.488 -1.6995 -1.4584  2.7634
  4204G12c C02B78065   4.751   3.382   3.490  1.0870 -2.0799 -0.3733
  4204G12c O00E78066   4.770   3.242   3.486 -0.4207  0.6848  0.6208
  4204G12c H01B78067   4.692   3.189   3.487 -0.0050 -0.2437 -3.5319
  4204G12c C02F78068   4.638   3.468   3.516  0.6767  0.2499  1.1635
  4204G12c O00F78069   4.526   3.425   3.548 -1.3462 -0.3004 -0.4200
  4204G12c C02G78070   4.400   3.485   3.502  1.1652  1.0214 -0.8850
  4204G12c H01778071   4.319   3.411   3.506  0.3030  2.0037 -0.0426
  4204G12c H01678072   4.413   3.552   3.418 -3.6924  1.2117 -1.6161
  4204G12c H01578073   4.350   3.544   3.578  2.2192 -3.8348  3.9612
  4204G12c C02E78074   4.650   3.618   3.501  0.0545  0.2596  0.2506
  4204G12c H01878075   4.570   3.677   3.542  0.6762 -2.1194  5.3827
  4204G12c C01F78076   4.479   3.867   3.908  1.3432  0.5364 -1.3995
  4204G12c C01G78077   4.419   3.991   3.870 -0.1846  0.5748 -0.0118
  4204G12c H00L78078   4.464   4.088   3.855 -3.1470  1.7021 -2.2725
  4204G12c C01H78079   4.278   3.986   3.831  0.5170 -0.8707 -0.5399
  4204G12c H00B78080   4.264   4.025   3.731  7.5483  2.7090 -0.4283
  4204G12c C01I78081   4.197   3.872   3.842  0.4386 -1.6076  1.5157
  4204G12c C01U78082   4.385   3.767   3.952 -0.8657  0.2630 -0.2944
  4204G12c C00S78083   4.360   3.225   3.818 -1.4155  1.5086  0.3830
  4204G12c C00K78084   4.200   3.384   3.806  1.1869 -0.0080 -0.6382
  4204G12c C00N78085   4.443   3.637   3.956 -0.8539 -1.0613 -1.1203
  4204G12c C00078086   4.244   3.781   3.950 -0.9690  0.0798 -0.0212
  4204G12c C01J78087   4.138   3.803   3.734 -0.7428 -0.0652  0.9260
  4204G12c C01K78088   4.078   3.851   3.615 -0.6810 -0.8827 -0.1011
  4204G12c C01P78089   4.028   3.984   3.601 -0.4081 -1.5628 -0.8764
  4204G12c C01Q78090   4.016   4.070   3.701 -1.8241 -0.5036 -1.0993
  4204G12c H00G78091   4.081   4.156   3.700  0.9518 -2.5274 -1.4393
  4204G12c C01R78092   3.941   4.027   3.805 -1.9235 -0.2823  0.0501
  4204G12c H00F78093   3.886   3.938   3.778 -4.1343  1.0647 -0.0415
  4204G12c C01S78094   3.950   4.100   3.926  0.5486  1.1318  1.0883
  4204G12c H00E78095   3.965   4.037   4.014  3.0656  0.2587  0.0821
  4204G12c H00D78096   4.044   4.145   3.895  1.6473 -3.0532 -2.2577
  4204G12c O00578097   3.872   4.212   3.897 -1.5363  0.2769  0.2116
  4204G12c H00C78098   3.786   4.213   3.936 -2.8648 -1.1869 -2.5016
  4204G12c C01O78099   3.978   4.020   3.471 -0.5902  0.6713 -0.1744
  4204G12c H00H78100   3.937   4.119   3.461 -1.5649  0.0406 -2.7054
  4204G12c C01N78101   3.938   3.927   3.380  1.6265  1.7846 -1.3860
  4204G12c O00678102   3.887   3.957   3.257 -0.7140  0.4930 -0.4455
  4204G12c C01T78103   3.758   3.964   3.216 -0.2782 -0.0532 -0.0574
  4204G12c H00K78104   3.737   3.857   3.218 -1.2544  0.1446  0.3836
  4204G12c H00J78105   3.754   3.983   3.109  1.4484  0.8168  0.0090
  4204G12c H00I78106   3.686   3.999   3.290  5.0129  1.6593  4.6727
  4204G12c C01M78107   3.985   3.794   3.406 -0.0617 -1.5811  1.7079
  4204G12c C02078108   4.092   3.433   3.724 -1.3076 -1.6011  0.4466
  4204G12c C02178109   4.013   3.354   3.622  2.3170 -0.2476 -0.3734
  4204G12c C01L78110   4.034   3.750   3.533 -0.7449 -0.1574 -0.9077
  4204G12c O00778111   3.977   3.705   3.304 -0.7446 -0.0992 -0.0579
  4204G12c C02278112   3.985   3.392   3.492 -0.1020 -0.3724  0.9998
  4204G12c C02378113   4.062   3.222   3.594  1.5697 -2.5673 -0.2217
  4204G12c C00G78114   4.199   3.029   3.477 -0.4104  1.6121 -1.9249
  4204G12c C00E78115   4.211   2.842   3.339  1.9706  1.0863  0.4599
  4204G12c O00A78116   4.243   2.706   3.316 -1.3110 -0.9481 -0.6757
  4204G12c C02478117   4.174   2.620   3.407 -0.2411  0.1127 -0.3291
  4204G12c H00V78118   4.222   2.533   3.364  0.8765  1.5253 -1.9952
  4204G12c H00U78119   4.213   2.652   3.504  0.0232  0.6510 -0.6133
  4204G12c H00T78120   4.068   2.595   3.393 -1.3098  5.1734 -2.3086
  4214G12c C00D78121   5.204   3.917  10.342 -2.0700  0.4118 -0.3602
  4214G12c O00B78122   5.152   4.034  10.280  0.1899 -0.3840 -0.2539
  4214G12c C02578123   5.172   4.166  10.313 -1.1180  0.0761 -0.4938
  4214G12c C02678124   5.129   4.252  10.178 -0.1599  0.0642 -0.4860
  4214G12c H00Y78125   5.198   4.233  10.096  0.7455 -3.4489  1.0087
  4214G12c H00X78126   5.182   4.342  10.208  1.1429 -2.6687  6.3839
  4214G12c O00C78127   4.986   4.255  10.155  1.1030 -0.9985 -0.0458
  4214G12c H00W78128   4.969   4.162  10.151 -0.7438 -1.0099  4.6481
  4214G12c C02778129   5.222   4.225  10.434  0.1457 -0.2981  0.1619
  4214G12c O00D78130   5.260   4.135  10.530  1.3399 -2.4750 -1.1908
  4214G12c H00Z78131   5.217   4.058  10.498 -6.8792  2.5436 -3.9082
  4214G12c C02878132   5.218   4.373  10.441 -0.5178  0.0393  0.0848
  4214G12c C02978133   5.322   4.474  10.429 -2.0179  0.9069  1.3090
  4214G12c H01078134   5.418   4.441  10.394 -1.9298 -2.2886  4.2540
  4214G12c C02T78135   5.294   4.606  10.464 -0.2591 -0.9304 -1.3721
  4214G12c H01O78136   5.373   4.678  10.450  0.7189 -0.1888  5.8877
  4214G12c C02S78137   5.167   4.650  10.527  0.1728 -0.4331 -1.3233
  4214G12c O00J78138   5.153   4.772  10.589 -0.0381 -1.0649 -0.5168
  4214G12c H01P78139   5.060   4.792  10.591  0.3480  0.6782  3.5492
  4214G12c C02R78140   5.074   4.547  10.529 -0.0604 -0.2734  0.2271
  4214G12c O00I78141   4.953   4.574  10.578 -0.2130 -0.7546 -0.5327
  4214G12c C02Q78142   4.840   4.570  10.478 -0.5507 -0.3768  0.8618
  4214G12c H01N78143   4.825   4.645  10.400  0.9816  0.2412  1.1371
  4214G12c H01R78144   4.744   4.573  10.529  0.4513 -1.0035  2.8343
  4214G12c H01Q78145   4.820   4.467  10.450  4.3970 -2.1944  3.4626
  4214G12c C02A78146   5.096   4.427  10.477 -0.8299  0.3261  0.4267
  4214G12c H01178147   5.016   4.355  10.487  5.8081 -8.1523 -0.8705
  4214G12c C00C78148   5.339   3.893  10.317  1.4662 -1.2189 -1.2627
  4214G12c H01278149   5.392   3.961  10.252  2.0639 -1.1848 -0.7433
  4214G12c C00B78150   5.412   3.779  10.363 -0.9302  0.7321  0.4769
  4214G12c C00A78151   5.563   3.747  10.338  0.4775 -0.5923 -1.2662
  4214G12c C00978152   5.668   3.816  10.258 -0.2830 -0.7441 -0.6577
  4214G12c C00878153   5.673   3.925  10.164 -0.2502  0.9932 -0.8370
  4214G12c H01378154   5.616   4.011  10.196 -2.4487 -2.3399  5.1242
  4214G12c C00778155   5.773   3.930  10.057  0.2433 -0.1289  0.0220
  4214G12c H01478156   5.757   3.984   9.965 -1.4596 -3.1153 -1.5054
  4214G12c C00678157   5.814   3.806  10.010  0.7758 -0.2415 -0.4622
  4214G12c C00578158   5.809   3.704  10.108  0.4712  0.7485  1.0084
  4214G12c C00478159   5.848   3.567  10.077 -0.3328 -0.4354  0.8460
  4214G12c C00378160   5.845   3.456  10.171  0.1166 -1.5037 -1.6995
  4214G12c C00278161   5.920   3.339  10.137  0.5674  0.1447 -1.8837
  4214G12c C00178162   5.910   3.206  10.202 -0.6516 -0.0335 -0.0431
  4214G12c C00M78163   5.813   3.138  10.277  0.7106 -1.6083 -0.6852
  4214G12c C00L78164   5.712   3.206  10.342 -0.2195 -0.9907 -0.8593
  4214G12c C00R78165   5.576   3.177  10.339  0.7561  1.6946  1.1011
  4214G12c C00Q78166   5.504   3.061  10.284  0.7142  0.4523  0.4822
  4214G12c C00V78167   5.351   3.070  10.296 -0.8199  0.3830 -1.4212
  4214G12c C00U78168   5.283   3.194  10.322  0.2497 -0.4724  0.5247
  4214G12c C00T78169   5.359   3.300  10.359  1.0482 -0.1652 -1.0557
  4214G12c C01678170   5.322   3.427  10.387  1.2530 -0.7786 -0.1793
  4214G12c C01578171   5.179   3.443  10.380  3.1302  1.0926  0.3026
  4214G12c C01078172   5.097   3.348  10.333  1.2858  2.2262 -0.0075
  4214G12c C01178173   4.955   3.353  10.337  3.2884 -0.2669 -3.0294
  4214G12c H00578174   4.897   3.266  10.308  0.6394  0.3496  0.0437
  4214G12c C01278175   4.886   3.470  10.394  0.3697  0.7832  0.5828
  4214G12c C01778176   4.735   3.462  10.406 -0.5636  0.5627  1.0527
  4214G12c O00278177   4.661   3.586  10.389  0.4116 -0.8895 -0.0143
  4214G12c H00478178   4.698   3.617  10.470 -1.4135 -1.9267  1.2521
  4214G12c C01878179   4.669   3.355  10.474 -1.2747  0.1960 -0.4574
  4214G12c O00178180   4.728   3.245  10.524  1.1273 -1.7737 -0.5488
  4214G12c H00378181   4.812   3.287  10.512  1.8681 -4.0007 -4.1647
  4214G12c C01978182   4.515   3.360  10.486 -1.0985  0.9778 -0.9711
  4214G12c H00278183   4.456   3.442  10.443 -3.5449 -1.3737 -2.2833
  4214G12c H00178184   4.444   3.286  10.450  1.5832 -3.2030  1.8729
  4214G12c O00078185   4.495   3.339  10.637  1.1026 -0.0624  2.1943
  4214G12c C01A78186   4.391   3.415  10.681  0.3595 -0.1060  0.5393
  4214G12c C02K78187   4.297   3.354  10.769 -1.6218  0.0471  0.4444
  4214G12c O00G78188   4.320   3.233  10.802 -1.7016 -0.2273  0.0703
  4214G12c C02M78189   4.255   3.181  10.921  0.0599  0.5050  1.3195
  4214G12c H01G78190   4.293   3.234  11.008  4.6368  2.8587 -1.8788
  4214G12c H01F78191   4.267   3.072  10.919  3.9793  0.8350 -3.9520
  4214G12c H01E78192   4.153   3.201  10.890 -0.3817 -1.9530  1.0472
  4214G12c C02J78193   4.235   3.453  10.862 -0.7812  0.0469 -2.0501
  4214G12c H01H78194   4.177   3.409  10.942  1.6743 -1.9422 -1.2967
  4214G12c C02I78195   4.251   3.600  10.835  1.4626  1.9501 -0.4636
  4214G12c C02N78196   4.167   3.664  10.928 -0.6167 -0.0860  0.8961
  4214G12c H01M78197   4.154   3.608  11.019 -2.0599 -2.3169 -0.6289
  4214G12c C02O78198   4.138   3.782  10.933 -0.6714 -1.7016 -0.9674
  4214G12c H01L78199   4.160   3.843  10.846 -0.3580  1.3014  1.1614
  4214G12c C02P78200   4.109   3.855  11.067 -1.0794 -1.0552 -1.3043
  4214G12c H01K78201   4.206   3.899  11.091  0.7410 -3.5763 -3.6868
  4214G12c H01J78202   4.026   3.925  11.060  2.2854  2.9703 -3.0340
  4214G12c O00H78203   4.051   3.775  11.165  1.3000 -0.3038  1.2096
  4214G12c H01I78204   4.092   3.804  11.245  1.5564  1.1046  0.5715
  4214G12c C02H78205   4.329   3.657  10.723  0.1830  0.2875 -0.4724
  4214G12c H01C78206   4.338   3.764  10.715 -5.5907  1.5908  6.0012
  4214G12c C02L78207   4.415   3.562  10.652  0.9372 -1.1631  0.7978
  4214G12c H01D78208   4.485   3.596  10.577  0.3851 -0.3943  0.6250
  4214G12c C01378209   4.972   3.581  10.404 -1.9252 -0.1268 -1.0024
  4214G12c H00078210   4.933   3.669  10.453  3.0218  1.5727  0.2466
  4214G12c C01478211   5.125   3.570  10.389  2.0528  0.7592  0.4724
  4214G12c C00F78212   5.194   3.683  10.381 -0.4542 -1.5732 -1.6502
  4214G12c C00H78213   5.396   3.544  10.398  0.1360 -1.0571  0.2279
  4214G12c C00I78214   5.539   3.525  10.405 -1.5453  1.3031  0.5476
  4214G12c C00J78215   5.590   3.397  10.392  0.7324  0.2397 -0.1968
  4214G12c C00Z78216   5.150   3.218  10.316 -0.6924 -0.5354 -0.2752
  4214G12c C00Y78217   5.069   3.098  10.296 -0.3797  0.8084  0.3085
  4214G12c H00678218   4.966   3.098  10.329 -0.2757  0.9413  0.6303
  4214G12c C00X78219   5.118   2.966  10.277 -1.5832  2.2771  1.0535
  4214G12c O00378220   5.014   2.870  10.263 -1.4963  1.4235 -1.4031
  4214G12c C01B78221   5.056   2.723  10.304  0.1151 -2.1931  0.0889
  4214G12c H00978222   5.124   2.664  10.243  1.1098 -4.3468  3.1892
  4214G12c H00878223   4.988   2.662  10.364  0.4500 -1.8653  0.8055
  4214G12c H00778224   5.139   2.723  10.373  0.0811 -2.0718  0.1299
  4214G12c C00W78225   5.261   2.959  10.257  1.3627 -0.4249  0.0524
  4214G12c O00478226   5.323   2.843  10.224  1.2346  0.5553  0.9914
  4214G12c C01C78227   5.452   2.812  10.243  0.4520 -1.3450 -0.5173
  4214G12c H00A78228   5.493   2.722  10.287 -0.2087 -0.3954  2.1319
  4214G12c C00P78229   5.549   2.926  10.244 -1.2677 -1.3834  1.0010
  4214G12c C00O78230   5.694   2.906  10.203 -0.6451  0.8336  1.4351
  4214G12c C01D78231   5.732   2.778  10.134 -0.0839  0.4664 -0.5724
  4214G12c H00S78232   5.674   2.697  10.175  5.9845 -2.8054  2.2142
  4214G12c C01E78233   5.794   2.814  10.007 -1.3688 -0.5145 -0.4171
  4214G12c O00878234   5.768   2.751   9.879  0.5901  0.5681  0.9670
  4214G12c C01V78235   5.698   2.637   9.870 -1.7328 -1.9606  0.0125
  4214G12c C01Z78236   5.614   2.649   9.735 -1.2804 -0.4225  0.3844
  4214G12c H00R78237   5.530   2.582   9.715  2.4956 -5.8637  1.4625
  4214G12c H00Q78238   5.546   2.732   9.718 -2.1191 -1.2643 -0.5371
  4214G12c O00978239   5.678   2.622   9.613  0.8645  0.6149 -1.6541
  4214G12c H00P78240   5.760   2.600   9.654 -0.1936 -1.0512 -0.3654
  4214G12c C01W78241   5.686   2.532   9.966 -1.9613 -0.3376  1.4731
  4214G12c H00O78242   5.752   2.525  10.051  3.9183 -1.4358 -2.8558
  4214G12c C01X78243   5.620   2.409   9.938  0.9825  1.8053  0.7576
  4214G12c H00N78244   5.525   2.448   9.904  0.7653  7.9037  7.1365
  4214G12c H00M78245   5.644   2.328   9.870 -4.1945  0.9291 -0.2047
  4214G12c C01Y78246   5.567   2.345  10.063  1.0842  1.2988  1.9771
  4214G12c C02D78247   5.507   2.219  10.031 -0.7146  1.4868  0.2525
  4214G12c H01978248   5.467   2.190   9.935 -3.0516  1.6985  1.1235
  4214G12c C02C78249   5.438   2.135  10.132 -0.8665  1.2504  1.4604
  4214G12c H01A78250   5.395   2.037  10.118 -2.2219  1.8168  1.5853
  4214G12c C02B78251   5.454   2.186  10.257 -1.1940  0.8959 -0.4155
  4214G12c O00E78252   5.438   2.113  10.366 -0.4382  1.2228  0.6015
  4214G12c H01B78253   5.518   2.065  10.375 -2.9905 -3.7489 -1.4106
  4214G12c C02F78254   5.492   2.319  10.279 -0.2373 -0.3163  0.5991
  4214G12c O00F78255   5.519   2.346  10.416  0.8293 -0.8008  1.6717
  4214G12c C02G78256   5.390   2.380  10.461  0.1491 -0.0531  0.1376
  4214G12c H01778257   5.397   2.398  10.568  1.2205  4.3059 -0.5626
  4214G12c H01678258   5.396   2.483  10.424  6.8106 -0.6522 -1.0991
  4214G12c H01578259   5.319   2.302  10.435 -2.3500  1.8542  0.9318
  4214G12c C02E78260   5.536   2.403  10.176 -0.2395  0.4910 -0.6145
  4214G12c H01878261   5.591   2.493  10.195  0.5361  0.2568 -1.7389
  4214G12c C01F78262   5.878   2.936   9.991 -0.3569  1.3989  0.0960
  4214G12c C01G78263   5.934   2.967   9.875 -0.0448  0.5766 -0.6341
  4214G12c H00L78264   5.962   2.900   9.795  0.3539  1.6498 -1.4075
  4214G12c C01H78265   5.993   3.090   9.866  0.0802  0.1559 -1.0523
  4214G12c H00B78266   6.023   3.128   9.769 -1.0594  1.8013 -0.7782
  4214G12c C01I78267   5.997   3.176   9.977 -0.2105  0.5289 -0.6876
  4214G12c C01U78268   5.909   3.001  10.113  1.4652  0.1231  0.1147
  4214G12c C00S78269   5.504   3.281  10.391  0.4605  0.2781  0.4737
  4214G12c C00K78270   5.716   3.349  10.366 -1.6997 -1.1440 -0.8030
  4214G12c C00N78271   5.792   3.002  10.206  0.1419 -1.3994  0.6453
  4214G12c C00078272   5.971   3.113  10.113 -0.8936  0.3461 -0.2426
  4214G12c C01J78273   5.975   3.318  10.005 -2.4450 -0.7807 -0.1144
  4214G12c C01K78274   5.995   3.426   9.905 -0.0230 -0.2511  0.3310
  4214G12c C01P78275   6.062   3.436   9.787  0.7630  1.9451 -1.9950
  4214G12c C01Q78276   6.149   3.327   9.744  0.6497 -0.1288 -0.3120
  4214G12c H00G78277   6.197   3.246   9.796  2.3755 -1.3061 -3.6457
  4214G12c C01R78278   6.201   3.319   9.619 -1.4480  1.1433  0.1547
  4214G12c H00F78279   6.187   3.375   9.528  1.3892  0.1016 -1.0031
  4214G12c C01S78280   6.308   3.222   9.578 -2.0011 -0.2669 -0.1231
  4214G12c H00E78281   6.285   3.194   9.475 -2.2037 -5.8452  1.3286
  4214G12c H00D78282   6.395   3.288   9.582  0.1449 -2.7707 -3.2768
  4214G12c O00578283   6.333   3.121   9.663  1.0028 -1.5283  1.3336
  4214G12c H00C78284   6.394   3.061   9.622  0.3800  0.2624 -2.4646
  4214G12c C01O78285   6.058   3.555   9.705  0.0760  1.3389  0.4225
  4214G12c H00H78286   6.101   3.556   9.605 -2.3645 -2.2765 -0.7477
  4214G12c C01N78287   5.986   3.665   9.737  1.2058  0.8362  0.6506
  4214G12c O00678288   6.026   3.790   9.686 -0.1571 -0.8274 -0.7947
  4214G12c C01T78289   6.145   3.806   9.587  1.0105  0.3828  1.1414
  4214G12c H00K78290   6.127   3.905   9.544  1.0574 -0.4957 -0.9272
  4214G12c H00J78291   6.119   3.732   9.513 -0.9489 -0.6957  2.8440
  4214G12c H00I78292   6.247   3.794   9.625  0.8812 -1.2438  0.9905
  4214G12c C01M78293   5.918   3.650   9.860  0.3097  0.7044  1.4492
  4214G12c C02078294   5.773   3.463  10.289 -0.1135 -0.9187 -0.3988
  4214G12c C02178295   5.728   3.604  10.315  0.0827  1.3307 -1.5811
  4214G12c C01L78296   5.922   3.548   9.955 -0.2922  1.8000  0.9187
  4214G12c O00778297   5.862   3.774   9.882  0.5408  1.1623  0.4873
  4214G12c C02278298   5.761   3.720  10.245  0.0276 -1.6584 -0.3800
  4214G12c C02378299   5.612   3.634  10.385  0.2155 -1.0591  0.4129
  4214G12c C00G78300   5.333   3.671  10.371  0.2953  0.9782 -0.4823
  4214G12c C00E78301   5.132   3.801  10.359 -0.7764  0.3506 -0.3506
  4214G12c O00A78302   5.009   3.850  10.349  0.1696  2.6200 -0.9363
  4214G12c C02478303   4.941   3.796  10.238  1.2183 -0.5180  1.2806
  4214G12c H00V78304   4.985   3.737  10.157 -0.0895 -0.2078  0.3185
  4214G12c H00U78305   4.909   3.896  10.206 -7.3322 -4.1554 -3.3198
  4214G12c H00T78306   4.840   3.766  10.267  1.7019 -0.5588  2.9809
  4224G12c C00D78307   6.108   9.229   9.130 -2.2716 -1.5041 -0.3165
  4224G12c O00B78308   5.991   9.182   9.074 -0.4745  1.1826 -0.3985
  4224G12c C02578309   5.879   9.250   9.065 -0.9907 -0.3060  0.4100
  4224G12c C02678310   5.825   9.256   8.928 -1.1825 -0.7927  0.4314
  4224G12c H00Y78311   5.757   9.171   8.932 -2.3133  0.1646  4.0131
  4224G12c H00X78312   5.911   9.244   8.863 -1.0079  2.5316 -0.0470
  4224G12c O00C78313   5.756   9.366   8.901  0.2393  0.3966  1.0264
  4224G12c H00W78314   5.678   9.377   8.953 -1.5591 -6.7867  0.3280
  4224G12c C02778315   5.809   9.275   9.185 -0.3516 -1.1822  1.9122
  4224G12c O00D78316   5.839   9.223   9.307  0.2432  1.3169 -0.3326
  4224G12c H00Z78317   5.795   9.243   9.388 -0.0488 -2.4717  0.5545
  4224G12c C02878318   5.720   9.379   9.191  0.7446 -0.9433 -0.6979
  4224G12c C02978319   5.765   9.511   9.166 -1.8677  1.0121  0.8002
  4224G12c H01078320   5.864   9.540   9.135 -1.0674  6.7064  7.3543
  4224G12c C02T78321   5.680   9.605   9.178  0.2881  0.4350 -0.5637
  4224G12c H01O78322   5.721   9.699   9.143 -4.8040  2.9339 -0.2810
  4224G12c C02S78323   5.546   9.606   9.213 -0.0114 -0.4783  1.1015
  4224G12c O00J78324   5.449   9.701   9.238  0.3432 -1.5623 -0.4535
  4224G12c H01P78325   5.368   9.653   9.247 -0.1511 -0.5132  1.0094
  4224G12c C02R78326   5.493   9.476   9.241  0.4810 -1.8865  1.9561
  4224G12c O00I78327   5.365   9.470   9.295  1.1015 -1.0913 -1.3500
  4224G12c C02Q78328   5.348   9.416   9.419 -0.4390  0.2577  0.5017
  4224G12c H01N78329   5.249   9.415   9.465  0.9197 -1.9992  3.5079
  4224G12c H01R78330   5.387   9.314   9.411  3.3989  1.7082 -0.3035
  4224G12c H01Q78331   5.382   9.454   9.515 -1.1927  0.9253  0.5110
  4224G12c C02A78332   5.590   9.359   9.239  0.6800  1.5332 -0.8095
  4224G12c H01178333   5.547   9.265   9.271 -3.0239  1.5702 -5.1494
  4224G12c C00C78334   6.121   9.365   9.185  1.1675  0.3218 -0.4524
  4224G12c H01278335   6.064   9.453   9.160 -9.3223 -5.0859  1.0793
  4224G12c C00B78336   6.250   9.404   9.246  0.7579 -0.4527  1.8912
  4224G12c C00A78337   6.291   9.534   9.303 -1.4120 -0.3601 -0.5293
  4224G12c C00978338   6.250   9.658   9.280 -1.7172  0.6579 -0.1972
  4224G12c C00878339   6.137   9.713   9.209  0.0951  0.6022 -0.4552
  4224G12c H01378340   6.042   9.663   9.206  2.3692 -4.1379  0.8103
  4224G12c C00778341   6.158   9.835   9.163 -0.9465 -0.6124  0.9733
  4224G12c H01478342   6.083   9.888   9.105  0.9933 -1.3563 -2.3379
  4224G12c C00678343   6.281   9.918   9.177 -0.3817 -1.8903  0.1523
  4224G12c C00578344   6.377   9.866   9.258 -1.7734 -0.1217  0.0781
  4224G12c C00478345   6.501   9.923   9.296 -1.1196  0.2155  0.3015
  4224G12c C00378346   6.600   9.846   9.352  0.5162  0.4561  0.5685
  4224G12c C00278347   6.730   9.912   9.367  0.3067 -0.1060  0.0240
  4224G12c C00178348   6.860   9.873   9.388 -0.5129  0.7448 -0.5345
  4224G12c C00M78349   6.886   9.747   9.336  0.3154 -0.3868  0.3497
  4224G12c C00L78350   6.829   9.626   9.383 -0.8121  0.1693 -0.7203
  4224G12c C00R78351   6.864   9.489   9.333  1.5416  0.4655  0.8008
  4224G12c C00Q78352   6.976   9.434   9.258  1.8449 -0.8765 -0.4558
  4224G12c C00V78353   6.960   9.306   9.208 -0.5850 -0.0865 -0.3240
  4224G12c C00U78354   6.834   9.246   9.216 -1.5089  0.3493  0.9628
  4224G12c C00T78355   6.730   9.296   9.290  0.9553  2.3184  0.5410
  4224G12c C01678356   6.584   9.250   9.273 -2.6196 -1.3175 -0.3968
  4224G12c C01578357   6.566   9.132   9.217 -1.3137  0.5588  1.4407
  4224G12c C01078358   6.683   9.054   9.178  0.2370 -0.7855  1.2478
  4224G12c C01178359   6.653   8.933   9.115 -0.7921 -1.7868  1.2563
  4224G12c H00578360   6.711   8.865   9.054 -3.0029 -4.4914  2.0919
  4224G12c C01278361   6.526   8.867   9.137  0.5182 -0.6005 -1.2377
  4224G12c C01778362   6.523   8.724   9.121 -0.2793 -0.5990 -0.4039
  4224G12c O00278363   6.476   8.648   9.212  0.1054  0.1247  0.1954
  4224G12c H00478364   6.528   8.572   9.191  3.8951  2.1903  1.6144
  4224G12c C01878365   6.477   8.698   8.994  0.7890 -1.2252 -0.8658
  4224G12c O00178366   6.508   8.766   8.887 -0.7471  0.2627  0.4750
  4224G12c H00378367   6.435   8.824   8.870  1.7071  2.2242 -4.2787
  4224G12c C01978368   6.369   8.595   8.972  0.4336  1.1060 -0.6247
  4224G12c H00278369   6.429   8.529   8.908  4.2232  3.8252 -0.0581
  4224G12c H00178370   6.334   8.548   9.063  0.4266 -2.3481 -2.3120
  4224G12c O00078371   6.248   8.614   8.887 -0.1274 -1.6084  0.6418
  4224G12c C01A78372   6.158   8.506   8.884  0.6003 -1.7654  0.0931
  4224G12c C02K78373   6.020   8.531   8.902  1.7707 -0.4980  0.3195
  4224G12c O00G78374   5.993   8.661   8.941  1.7724 -0.6509  0.2001
  4224G12c C02M78375   5.885   8.717   8.892  0.7041 -1.4940  1.4925
  4224G12c H01G78376   5.806   8.683   8.825  2.1552  0.1637 -1.1537
  4224G12c H01F78377   5.925   8.814   8.861  2.8741 -0.2540  7.3535
  4224G12c H01E78378   5.828   8.742   8.982 -2.5287  3.4724 -1.6783
  4224G12c C02J78379   5.917   8.420   8.899  0.0394  0.3083 -0.7083
  4224G12c H01H78380   5.815   8.439   8.928  0.4550 -0.3140  1.2735
  4224G12c C02I78381   5.964   8.291   8.906 -0.4819 -2.8779 -0.5967
  4224G12c C02N78382   5.894   8.164   8.912  1.2805  0.5215 -0.1155
  4224G12c H01M78383   5.931   8.078   8.966 -5.0627 -1.3449  1.7374
  4224G12c C02O78384   5.774   8.152   8.859  0.3214  0.5154  0.4771
  4224G12c H01L78385   5.742   8.213   8.776  0.2025  1.6461  1.3408
  4224G12c C02P78386   5.713   8.028   8.891  0.2087  2.1021  0.5421
  4224G12c H01K78387   5.638   8.013   8.969 -0.6551  2.1591 -0.2678
  4224G12c H01J78388   5.644   8.042   8.807  0.6083  2.9535  0.3511
  4224G12c O00H78389   5.784   7.913   8.834 -1.1193 -0.5698  0.8554
  4224G12c H01I78390   5.757   7.850   8.899  2.4926 -3.6950 -0.4919
  4224G12c C02H78391   6.102   8.268   8.882 -1.3256  0.5319 -2.5817
  4224G12c H01C78392   6.161   8.185   8.846  2.9052 -0.7230  5.7947
  4224G12c C02L78393   6.202   8.376   8.888  1.2028  0.4508 -0.0435
  4224G12c H01D78394   6.302   8.362   8.849  0.6585  6.0105 -4.0593
  4224G12c C01378395   6.416   8.943   9.178  1.3596 -0.6884 -0.3059
  4224G12c H00078396   6.321   8.893   9.172  2.8194 -3.1990 -4.4640
  4224G12c C01478397   6.439   9.080   9.197 -1.1263  1.0053  0.6034
  4224G12c C00F78398   6.335   9.167   9.212  1.6080  0.0482  0.5497
  4224G12c C00H78399   6.486   9.340   9.302 -0.2003  1.4676 -0.5376
  4224G12c C00I78400   6.514   9.461   9.357  1.2180 -0.2310 -1.1892
  4224G12c C00J78401   6.651   9.493   9.396  2.4007  0.8486 -1.8010
  4224G12c C00Z78402   6.810   9.106   9.158  0.5620 -3.0362 -1.3649
  4224G12c C00Y78403   6.900   9.057   9.084  0.0732 -1.6500 -1.7446
  4224G12c H00678404   6.883   8.955   9.053 -7.5243 -2.0160  2.3714
  4224G12c C00X78405   7.014   9.128   9.059 -0.8189 -0.6797 -0.9578
  4224G12c O00378406   7.111   9.075   8.980  1.1972 -0.9446  1.0229
  4224G12c C01B78407   7.106   9.108   8.844  1.1961  0.6646 -0.7640
  4224G12c H00978408   7.174   9.039   8.795  0.2704  0.8086 -2.2830
  4224G12c H00878409   7.176   9.190   8.829  1.8401  0.0391 -1.1649
  4224G12c H00778410   7.015   9.114   8.784  1.0593 -0.7956 -0.7078
  4224G12c C00W78411   7.051   9.244   9.121  0.4300  1.0806 -2.4337
  4224G12c O00478412   7.183   9.286   9.112 -1.0584  0.1937  0.3820
  4224G12c C01C78413   7.200   9.426   9.159  0.5941 -0.0374 -0.4752
  4224G12c H00A78414   7.294   9.467   9.193  3.1408 -4.4419 -1.7807
  4224G12c C00P78415   7.087   9.506   9.202 -0.1806  1.8864  0.7798
  4224G12c C00O78416   7.096   9.653   9.188  0.9710  0.0987  0.0936
  4224G12c C01D78417   7.194   9.701   9.102 -1.2902  0.7781 -0.5946
  4224G12c H00S78418   7.285   9.671   9.052  1.6546 -1.5630  5.7096
  4224G12c C01E78419   7.173   9.836   9.070  0.8423 -1.5389 -0.4330
  4224G12c O00878420   7.219   9.897   8.945  1.6147  0.5686 -1.2560
  4224G12c C01V78421   7.359   9.917   8.942  1.1759 -0.3045  1.0587
  4224G12c C01Z78422   7.427   9.943   8.805  1.6255  0.2374  0.8539
  4224G12c H00R78423   7.522   9.996   8.803  0.3254  2.6396 -0.4231
  4224G12c H00Q78424   7.409   9.860   8.736 -3.2574  4.3412 -3.2561
  4224G12c O00978425   7.339  10.037   8.741 -0.1569 -0.7691  2.6015
  4224G12c H00P78426   7.280  10.095   8.786  2.7606  1.5202  3.6430
  4224G12c C01W78427   7.418   9.950   9.059  1.2644 -0.4230 -1.3452
  4224G12c H00O78428   7.365   9.940   9.153 -3.3783  3.4260 -3.2940
  4224G12c C01X78429   7.561   9.958   9.073  0.2501 -1.9417  0.6968
  4224G12c H00N78430   7.596   9.893   9.153 -6.2647 -5.2210  1.2306
  4224G12c H00M78431   7.598   9.884   9.002 -2.0193 -2.3214 -0.1302
  4224G12c C01Y78432   7.614  10.102   9.088 -1.6184  0.0408 -1.3403
  4224G12c C02D78433   7.601  10.210   9.001  1.0990  1.1257 -1.5297
  4224G12c H01978434   7.525  10.207   8.924  0.6083  5.1059 -1.2544
  4224G12c C02C78435   7.644  10.323   9.031 -0.7146 -1.0718  0.3604
  4224G12c H01A78436   7.618  10.410   8.972  0.9173  3.4434  5.8309
  4224G12c C02B78437   7.738  10.360   9.133  0.4002  0.9221 -0.7889
  4224G12c O00E78438   7.816  10.460   9.113 -1.0936  0.8931 -0.7504
  4224G12c H01B78439   7.762  10.531   9.082 -1.8149 -0.5189 -2.8310
  4224G12c C02F78440   7.793  10.251   9.203 -1.5077  0.5443  1.8769
  4224G12c O00F78441   7.912  10.267   9.279 -0.1682 -0.2072 -0.0298
  4224G12c C02G78442   7.930  10.164   9.382 -1.4427 -2.6181 -0.2830
  4224G12c H01778443   8.019  10.197   9.436 -0.3364 -0.4116 -3.3356
  4224G12c H01678444   7.853  10.166   9.459 -1.6168 -3.5354 -0.4261
  4224G12c H01578445   7.952  10.067   9.338  0.6298 -1.5506 -1.7060
  4224G12c C02E78446   7.723  10.123   9.178 -1.1663  0.7481  1.2223
  4224G12c H01878447   7.745  10.029   9.227 -1.1121  1.2765  2.2325
  4224G12c C01F78448   7.107   9.921   9.171 -0.0246 -0.4603 -2.4383
  4224G12c C01G78449   7.089  10.059   9.143 -0.4005 -0.5726  0.1071
  4224G12c H00L78450   7.166  10.115   9.092 -1.4652 -2.3247 -3.6488
  4224G12c C01H78451   6.971  10.138   9.175 -0.9947  1.8926 -1.9597
  4224G12c H00B78452   6.954  10.238   9.138  1.1033  2.5915 -1.0887
  4224G12c C01I78453   6.887  10.062   9.267  0.4490  0.8105  0.1524
  4224G12c C01U78454   7.052   9.879   9.290  0.3604 -1.6927 -0.5448
  4224G12c C00S78455   6.746   9.426   9.340  2.0909 -0.1184 -0.9862
  4224G12c C00K78456   6.681   9.631   9.402  1.4661  0.1671 -2.2901
  4224G12c C00N78457   7.015   9.754   9.264 -0.8285  0.2674 -0.4501
  4224G12c C00078458   6.950   9.953   9.344 -0.4442  0.5846  0.5888
  4224G12c C01J78459   6.741  10.055   9.304 -0.2568 -0.1013  1.3616
  4224G12c C01K78460   6.625  10.135   9.248  0.7854 -0.5584 -1.3691
  4224G12c C01P78461   6.603  10.272   9.205 -1.7005 -0.0916 -0.9259
  4224G12c C01Q78462   6.688  10.378   9.250 -0.5437 -0.6168 -1.5194
  4224G12c H00G78463   6.769  10.442   9.218  1.3918 -3.0350 -1.6283
  4224G12c C01R78464   6.694  10.378   9.391 -0.1639 -1.1648  1.4573
  4224G12c H00F78465   6.603  10.332   9.429 -0.3345 -2.1488 -0.0829
  4224G12c C01S78466   6.762  10.462   9.488 -0.5101  0.7041  0.8373
  4224G12c H00E78467   6.857  10.516   9.478 -1.7785  2.3437 -3.4270
  4224G12c H00D78468   6.798  10.374   9.540 -5.0389 -2.9477 -1.8790
  4224G12c O00578469   6.668  10.551   9.531 -0.4338 -0.0391 -0.7025
  4224G12c H00C78470   6.608  10.501   9.584  4.1759 -6.6491 -1.1491
  4224G12c C01O78471   6.502  10.312   9.117  0.7826 -0.6873  0.0996
  4224G12c H00H78472   6.493  10.413   9.081 -5.4281  2.6376  9.1301
  4224G12c C01N78473   6.412  10.221   9.070  1.2178 -0.0734 -0.2467
  4224G12c O00678474   6.314  10.263   8.986  0.3490  0.4575 -0.0862
  4224G12c C01T78475   6.212  10.330   9.058  0.6644 -2.3402  0.3358
  4224G12c H00K78476   6.164  10.399   8.988  1.6978 -1.3435  0.5892
  4224G12c H00J78477   6.288  10.399   9.095 -3.1567 -1.1047  6.6268
  4224G12c H00I78478   6.167  10.260   9.128  0.1234 -0.9085  1.4512
  4224G12c C01M78479   6.395  10.113   9.150  2.0962 -0.3136  0.7048
  4224G12c C02078480   6.581   9.722   9.411  1.8044 -1.5632  1.1634
  4224G12c C02178481   6.448   9.687   9.403  0.5407  0.6459  0.3304
  4224G12c C01L78482   6.511  10.044   9.229 -0.7868 -0.4783  0.3093
  4224G12c O00778483   6.284  10.035   9.104  0.3554 -0.0620 -1.2766
  4224G12c C02278484   6.353   9.747   9.326  1.4273  0.2922  0.4829
  4224G12c C02378485   6.418   9.557   9.367  0.0617  0.2364 -0.5977
  4224G12c C00G78486   6.354   9.306   9.251 -0.8023 -0.4331  0.5637
  4224G12c C00E78487   6.221   9.143   9.138  0.1858  0.7208 -1.1237
  4224G12c O00A78488   6.204   9.048   9.043  1.4921 -1.7261 -1.6613
  4224G12c C02478489   6.260   9.068   8.917 -0.0357  1.8917 -0.5992
  4224G12c H00V78490   6.354   9.014   8.920 -0.6730  0.8033  0.0103
  4224G12c H00U78491   6.265   9.173   8.887 -5.6774  1.6413 -3.0676
  4224G12c H00T78492   6.196   9.042   8.832 -1.2424 -0.1695  0.9022
  4234G12c C00D78493  12.848  10.567  10.942  0.4926 -0.5637 -0.8156
  4234G12c O00B78494  12.886  10.599  10.810  0.9579 -0.5020 -0.4260
  4234G12c C02578495  12.998  10.644  10.764 -0.3128  0.2751  0.0800
  4234G12c C02678496  13.027  10.798  10.777 -1.1378  0.4096  0.7285
  4234G12c H00Y78497  12.962  10.818  10.862 -0.5758  0.7974  1.0720
  4234G12c H00X78498  12.997  10.880  10.712  0.0280 -0.2514 -0.6832
  4234G12c O00C78499  13.143  10.812  10.858 -0.0032 -0.6210  0.5024
  4234G12c H00W78500  13.216  10.763  10.823 -3.6944 -4.9195 -1.7611
  4234G12c C02778501  13.079  10.558  10.682  0.2302 -0.9162  0.6566
  4234G12c O00D78502  13.056  10.434  10.716  0.3932  0.9875  0.6730
  4234G12c H00Z78503  12.997  10.436  10.790 -0.8128 -1.4851 -0.1518
  4234G12c C02878504  13.189  10.585  10.600 -1.3357 -2.3395 -0.3861
  4234G12c C02978505  13.200  10.719  10.539 -2.6095  0.2466  1.0279
  4234G12c H01078506  13.142  10.801  10.579 -2.6353  0.9788 -0.4923
  4234G12c C02T78507  13.323  10.760  10.474 -1.2053  0.0201 -0.3518
  4234G12c H01O78508  13.338  10.853  10.421  8.2435  0.7785  2.7228
  4234G12c C02S78509  13.421  10.655  10.468  0.8575 -0.3986  0.7586
  4234G12c O00J78510  13.503  10.704  10.381 -1.4340  0.7928 -1.7852
  4234G12c H01P78511  13.566  10.636  10.363  1.0109  0.1135  6.8078
  4234G12c C02R78512  13.396  10.518  10.504  1.2881 -0.1025  1.7706
  4234G12c O00I78513  13.495  10.438  10.456  0.8457 -0.4210  0.2211
  4234G12c C02Q78514  13.462  10.299  10.442  0.6277 -0.6416  0.5657
  4234G12c H01N78515  13.391  10.264  10.367 -0.2617  2.3101 -0.0394
  4234G12c H01R78516  13.437  10.255  10.538  0.4189 -0.4267  0.6106
  4234G12c H01Q78517  13.554  10.268  10.392  4.1806  2.7543  4.6468
  4234G12c C02A78518  13.274  10.484  10.558 -0.2564  0.2822 -1.1832
  4234G12c H01178519  13.254  10.382  10.531  1.7999  0.8080 -4.9750
  4234G12c C00C78520  12.907  10.453  11.006 -1.1238 -0.2481  0.4324
  4234G12c H01278521  12.981  10.399  10.949  1.3174  1.8640  1.4541
  4234G12c C00B78522  12.889  10.409  11.130 -0.9549  0.3697  1.7550
  4234G12c C00A78523  12.961  10.300  11.200  1.3921  1.6441 -1.2709
  4234G12c C00978524  13.025  10.174  11.139  0.9492  0.7137  0.2945
  4234G12c C00878525  13.033  10.123  11.017  1.7988 -1.0126  0.5855
  4234G12c H01378526  13.012  10.180  10.928 -5.1502  2.9561  4.3448
  4234G12c C00778527  13.033   9.979  10.993 -1.7526 -0.9152 -0.9365
  4234G12c H01478528  13.040   9.935  10.895  1.4176  1.8049 -2.0196
  4234G12c C00678529  13.004   9.897  11.108 -0.1487  0.7343  0.3236
  4234G12c C00578530  12.971   9.951  11.231 -0.7955  1.6095  0.9420
  4234G12c C00478531  12.908   9.858  11.330 -1.1939 -0.3276 -0.1846
  4234G12c C00378532  12.847   9.931  11.447 -0.4883 -1.3382  1.1019
  4234G12c C00278533  12.760   9.850  11.522 -0.5828 -1.3228  0.7162
  4234G12c C00178534  12.695   9.868  11.642  0.1453  0.2224  0.3483
  4234G12c C00M78535  12.605   9.974  11.653 -0.1339  1.0785 -1.6986
  4234G12c C00L78536  12.642  10.104  11.615  0.8991  0.6054  0.3680
  4234G12c C00R78537  12.552  10.214  11.616 -1.8437 -1.0762 -0.0854
  4234G12c C00Q78538  12.404  10.225  11.608 -1.1975  0.9647  0.8788
  4234G12c C00V78539  12.357  10.352  11.578  1.2337  1.3946 -0.8218
  4234G12c C00U78540  12.422  10.474  11.542 -1.8112  1.7423  0.4204
  4234G12c C00T78541  12.551  10.435  11.492 -0.0749 -0.6349  1.5182
  4234G12c C01678542  12.618  10.481  11.378  1.8346  0.1072  0.3554
  4234G12c C01578543  12.546  10.591  11.318  0.7379  0.3242  0.2354
  4234G12c C01078544  12.419  10.638  11.361 -1.0120  0.7100  0.2405
  4234G12c C01178545  12.364  10.767  11.309  0.4243  2.5985  0.0836
  4234G12c H00578546  12.273  10.815  11.341 -0.3427  0.9744  0.3872
  4234G12c C01278547  12.427  10.835  11.212  0.0206 -0.9678  0.6931
  4234G12c C01778548  12.372  10.957  11.159  1.6546  1.3370 -0.0965
  4234G12c O00278549  12.243  10.973  11.126  0.5580 -0.3250 -1.1067
  4234G12c H00478550  12.203  10.889  11.144  0.8690 -1.0866 -3.7085
  4234G12c C01878551  12.468  11.054  11.143  1.1415 -0.3926  0.3274
  4234G12c O00178552  12.600  11.036  11.200  1.0302  0.6188 -1.1683
  4234G12c H00378553  12.652  11.115  11.202 -1.7809  2.5868 -0.9104
  4234G12c C01978554  12.447  11.196  11.101  0.1094  2.1330  1.1690
  4234G12c H00278555  12.339  11.203  11.082 -0.6576 -1.7382  3.4498
  4234G12c H00178556  12.498  11.283  11.141 -1.7183  4.9219 -2.2671
  4234G12c O00078557  12.468  11.199  10.958  0.1119  1.3430  0.7529
  4234G12c C01A78558  12.418  11.305  10.880  0.8697  1.4219 -0.2883
  4234G12c C02K78559  12.434  11.262  10.746  0.4289  1.9410  0.3784
  4234G12c O00G78560  12.428  11.145  10.718 -0.5986 -0.8480  0.9148
  4234G12c C02M78561  12.360  11.098  10.600  0.4759 -0.0276 -0.9935
  4234G12c H01G78562  12.267  11.154  10.608  0.9828  0.5522  1.1534
  4234G12c H01F78563  12.332  10.993  10.605 -0.9366  0.3347 -1.1477
  4234G12c H01E78564  12.436  11.094  10.522  2.2406  0.8827  0.6314
  4234G12c C02J78565  12.410  11.377  10.665  0.6609  1.9920  1.9793
  4234G12c H01H78566  12.437  11.362  10.562 -1.4352  4.2962  1.0641
  4234G12c C02I78567  12.360  11.496  10.693  0.7858 -0.0869  2.0444
  4234G12c C02N78568  12.321  11.602  10.611  1.5781  0.7552  0.1791
  4234G12c H01M78569  12.228  11.604  10.557  2.3706  0.6106 -1.1944
  4234G12c C02O78570  12.421  11.650  10.538 -0.5797 -0.0839  0.3966
  4234G12c H01L78571  12.515  11.603  10.564 -0.2166  0.9354  0.9571
  4234G12c C02P78572  12.392  11.708  10.408 -0.0815  0.7141 -0.8078
  4234G12c H01K78573  12.478  11.729  10.344  0.9783 -1.7898 -0.2627
  4234G12c H01J78574  12.356  11.621  10.353  1.5795 -0.5490  0.0540
  4234G12c O00H78575  12.321  11.823  10.432  0.2273  1.3909 -0.2830
  4234G12c H01I78576  12.366  11.899  10.464  0.1538 -0.3369  4.2333
  4234G12c C02H78577  12.342  11.516  10.825 -0.2619 -0.0829  0.9457
  4234G12c H01C78578  12.306  11.618  10.838 -3.8821 -0.5032 -4.1282
  4234G12c C02L78579  12.353  11.424  10.933 -2.4643  1.3107 -1.3209
  4234G12c H01D78580  12.342  11.461  11.033  1.8845  1.8471 -0.9364
  4234G12c C01378581  12.549  10.779  11.171  0.8408 -2.2556 -0.7283
  4234G12c H00078582  12.597  10.835  11.092  1.6303  0.8579  1.8602
  4234G12c C01478583  12.598  10.655  11.213  0.1252 -1.1567  2.3874
  4234G12c C00F78584  12.700  10.585  11.149 -0.2237 -0.3057  0.6890
  4234G12c C00H78585  12.741  10.427  11.328 -0.0834  0.3666  0.3784
  4234G12c C00I78586  12.816  10.335  11.400  1.5368 -0.3502 -0.0167
  4234G12c C00J78587  12.739  10.285  11.518  0.0269 -0.2680  0.2260
  4234G12c C00Z78588  12.355  10.569  11.484 -0.8179  0.3131 -1.2868
  4234G12c C00Y78589  12.232  10.598  11.528  0.4389  1.0060 -2.4621
  4234G12c H00678590  12.184  10.680  11.476  1.2035  3.0247 -0.1242
  4234G12c C00X78591  12.172  10.508  11.606  2.6218 -1.0190 -1.6457
  4234G12c O00378592  12.046  10.542  11.649  0.0368  1.2526  0.6990
  4234G12c C01B78593  11.937  10.550  11.554  0.0485 -0.7501  1.1831
  4234G12c H00978594  11.995  10.550  11.461 -1.8852  0.2876 -0.0519
  4234G12c H00878595  11.872  10.633  11.581 -2.1314 -1.9963 -0.0981
  4234G12c H00778596  11.866  10.468  11.542 -3.4563  1.8573  3.3747
  4234G12c C00W78597  12.222  10.374  11.627 -2.1117  0.7853  2.3383
  4234G12c O00478598  12.124  10.279  11.659 -0.5755  1.1497  0.6539
  4234G12c C01C78599  12.171  10.162  11.603  0.3646 -0.6874 -0.5622
  4234G12c H00A78600  12.105  10.101  11.544  3.0584 -2.1336 -2.1583
  4234G12c C00P78601  12.309  10.118  11.640 -0.5217  0.6200  0.5154
  4234G12c C00O78602  12.339   9.989  11.692  0.0743 -0.9540 -1.2144
  4234G12c C01D78603  12.229   9.899  11.712  0.7407  0.4295  0.1179
  4234G12c H00S78604  12.130   9.941  11.701  0.9768  2.6570  5.1769
  4234G12c C01E78605  12.243   9.764  11.682  1.3829 -0.8338  0.9935
  4234G12c O00878606  12.129   9.692  11.662  0.0515  0.4074 -0.4148
  4234G12c C01V78607  12.001   9.738  11.675  1.1891 -1.1003 -0.2309
  4234G12c C01Z78608  11.958   9.763  11.819  0.9260 -0.4395 -0.2829
  4234G12c H00R78609  11.920   9.667  11.854 -4.7919  3.8735  6.9519
  4234G12c H00Q78610  12.042   9.795  11.881  0.7776  0.3622 -0.4928
  4234G12c O00978611  11.881   9.878  11.844 -1.6299  0.7323  0.8816
  4234G12c H00P78612  11.941   9.933  11.892  2.8695 -4.8500  2.1961
  4234G12c C01W78613  11.927   9.788  11.585  0.3259  0.0706 -0.4882
  4234G12c H00O78614  11.841   9.842  11.621  1.5333 -0.4201  3.3372
  4234G12c C01X78615  11.952   9.754  11.429 -1.2643 -0.1053  0.6969
  4234G12c H00N78616  12.015   9.666  11.437  0.8147  1.3204  0.4925
  4234G12c H00M78617  11.861   9.697  11.411 -2.1523  2.3881 -3.1615
  4234G12c C01Y78618  12.029   9.840  11.338 -0.3876 -1.0684 -0.9377
  4234G12c C02D78619  11.980   9.968  11.323  1.1720 -1.7420  0.8916
  4234G12c H01978620  11.876   9.997  11.326  1.4684  0.7498 -5.2358
  4234G12c C02C78621  12.064  10.069  11.271  0.0026 -0.1011 -0.5076
  4234G12c H01A78622  12.039  10.173  11.251 -9.1576 -1.6899  0.5370
  4234G12c C02B78623  12.201  10.047  11.261  0.0657 -0.6087  1.2349
  4234G12c O00E78624  12.268  10.160  11.230  1.2029  0.0362 -0.8355
  4234G12c H01B78625  12.354  10.140  11.197  1.8874  3.5686 -1.3884
  4234G12c C02F78626  12.250   9.918  11.278  0.0936 -0.1154  0.3038
  4234G12c O00F78627  12.382   9.920  11.264 -0.4278 -0.8432 -0.1218
  4234G12c C02G78628  12.450   9.798  11.290  0.7939  1.2008 -0.6963
  4234G12c H01778629  12.476   9.786  11.395  4.5144  4.4400 -1.1216
  4234G12c H01678630  12.556   9.819  11.278  2.3110 -1.8790  5.2168
  4234G12c H01578631  12.437   9.704  11.236  2.2114 -1.2139  2.9852
  4234G12c C02E78632  12.164   9.809  11.322  0.2751  0.1083  0.9424
  4234G12c H01878633  12.177   9.703  11.307  0.3226  0.2285  0.0766
  4234G12c C01F78634  12.370   9.709  11.662 -1.1365  0.0293  0.4510
  4234G12c C01G78635  12.411   9.575  11.631  0.3198 -0.0536 -1.3291
  4234G12c H00L78636  12.333   9.502  11.645  1.1376 -0.9469 -1.3913
  4234G12c C01H78637  12.546   9.539  11.569 -0.0236 -0.3513 -0.8192
  4234G12c H00B78638  12.549   9.457  11.499  2.5924 -1.4654  0.5235
  4234G12c C01I78639  12.640   9.658  11.570 -1.3101  1.3276 -0.0066
  4234G12c C01U78640  12.469   9.805  11.700 -0.7556 -2.5694  1.0926
  4234G12c C00S78641  12.620  10.332  11.562 -1.0545 -2.0407 -0.1927
  4234G12c C00K78642  12.757  10.147  11.547 -0.8097 -1.1900 -0.6728
  4234G12c C00N78643  12.470   9.936  11.687 -0.0771 -0.6637 -0.1083
  4234G12c C00078644  12.601   9.754  11.662  2.3394 -0.1153 -1.0209
  4234G12c C01J78645  12.740   9.710  11.480  1.7983  0.2932 -0.4636
  4234G12c C01K78646  12.825   9.632  11.391  0.6959  0.0831 -0.1876
  4234G12c C01P78647  12.826   9.493  11.357  0.7210  0.3703 -1.0813
  4234G12c C01Q78648  12.794   9.388  11.449 -0.2075 -0.7094 -0.5000
  4234G12c H00G78649  12.840   9.392  11.547 -0.9357 -1.2077 -0.1427
  4234G12c C01R78650  12.742   9.269  11.403 -1.6412 -0.8759 -1.1981
  4234G12c H00F78651  12.731   9.251  11.297 -0.6325  3.4944 -2.1279
  4234G12c C01S78652  12.721   9.143  11.489 -1.6110  1.5232 -0.2077
  4234G12c H00E78653  12.767   9.160  11.587 -0.8050  2.9778 -0.8236
  4234G12c H00D78654  12.614   9.140  11.509 -2.1930 -2.4408 -3.2750
  4234G12c O00578655  12.789   9.016  11.440  0.4216 -0.2940  0.9779
  4234G12c H00C78656  12.856   9.031  11.375 -1.2328 -1.1085 -0.9694
  4234G12c C01O78657  12.903   9.462  11.234 -0.2420  0.9529 -1.3647
  4234G12c H00H78658  12.914   9.355  11.228 -3.5832  0.6768 -3.7340
  4234G12c C01N78659  12.958   9.548  11.137 -1.0977  1.5921  0.8032
  4234G12c O00678660  13.020   9.477  11.032 -0.5569 -0.3225  0.9783
  4234G12c C01T78661  12.958   9.481  10.908 -1.1677 -1.2972 -0.4179
  4234G12c H00K78662  12.870   9.418  10.916 -4.5484  2.4560 -5.0874
  4234G12c H00J78663  12.942   9.587  10.886  2.5861 -0.3345  0.9928
  4234G12c H00I78664  13.033   9.436  10.842 -2.7652 -3.4836 -0.7925
  4234G12c C01M78665  12.959   9.689  11.172 -0.3633  0.8350 -2.3830
  4234G12c C02078666  12.853  10.080  11.455 -0.3818  2.9355 -0.9159
  4234G12c C02178667  12.955  10.147  11.377 -0.2880  0.6540  1.0454
  4234G12c C01L78668  12.897   9.722  11.301  0.8686  0.3753 -0.4190
  4234G12c O00778669  13.005   9.770  11.080 -0.0350 -0.2966 -0.6185
  4234G12c C02278670  12.997  10.087  11.253  1.4306  0.2732 -1.2024
  4234G12c C02378671  12.918  10.276  11.328  1.4813  0.9369  0.6692
  4234G12c C00G78672  12.784  10.471  11.205 -0.5764  1.6922  1.5121
  4234G12c C00E78673  12.724  10.603  11.015 -0.2400 -0.5274  1.1347
  4234G12c O00A78674  12.622  10.655  10.953  0.3205 -0.9826  0.0422
  4234G12c C02478675  12.586  10.600  10.820 -0.1142  1.3609  0.2853
  4234G12c H00V78676  12.632  10.637  10.729  1.0766 -0.4673  0.1156
  4234G12c H00U78677  12.480  10.609  10.845 -1.3844 -4.6564 -2.0669
  4234G12c H00T78678  12.594  10.491  10.814  1.0891  1.5224 -0.9800
  4244G12c C00D78679   1.815   3.907   5.703  1.1260 -0.5470  1.6396
  4244G12c O00B78680   1.861   4.019   5.635  0.8886  1.3192 -0.9184
  4244G12c C02578681   1.841   4.133   5.697  0.9717  1.1474 -0.3887
  4244G12c C02678682   1.735   4.194   5.614  2.3095  1.1015  0.0074
  4244G12c H00Y78683   1.776   4.179   5.514  2.7631  2.3232  0.0006
  4244G12c H00X78684   1.736   4.303   5.617  0.5119  1.0846  3.0685
  4244G12c O00C78685   1.594   4.144   5.639 -1.0639 -0.8374 -1.3039
  4244G12c H00W78686   1.572   4.140   5.731  2.3701  6.8741  0.1985
  4244G12c C02778687   1.909   4.173   5.811 -0.8172  2.0184  1.6829
  4244G12c O00D78688   2.017   4.094   5.869 -1.7073 -0.3934  0.0251
  4244G12c H00Z78689   1.966   4.021   5.901 -2.2555 -1.3383 -2.8354
  4244G12c C02878690   1.856   4.274   5.904 -0.4692 -0.8769 -0.8273
  4244G12c C02978691   1.733   4.346   5.880 -0.4541  1.1276 -0.1717
  4244G12c H01078692   1.646   4.309   5.829 -3.5694  0.1253  5.4444
  4244G12c C02T78693   1.714   4.464   5.951  0.2031 -0.6167 -0.5635
  4244G12c H01O78694   1.615   4.506   5.943 -1.9733 -4.8073  2.3130
  4244G12c C02S78695   1.805   4.520   6.035  0.3298 -0.3582  1.4558
  4244G12c O00J78696   1.775   4.654   6.057  1.4386 -2.3110 -0.0611
  4244G12c H01P78697   1.815   4.678   6.139  6.6023 -1.3271 -2.6902
  4244G12c C02R78698   1.919   4.453   6.067  1.4110 -0.7471 -1.1779
  4244G12c O00I78699   1.989   4.487   6.173 -1.8794  1.0994  0.4479
  4244G12c C02Q78700   1.946   4.487   6.300 -0.9854 -0.3650 -1.6361
  4244G12c H01N78701   1.904   4.392   6.332 -1.2492 -0.0949 -1.1823
  4244G12c H01R78702   1.857   4.548   6.304 -2.7151 -2.8821  3.2475
  4244G12c H01Q78703   2.022   4.525   6.369 -4.9305  2.7768  1.1891
  4244G12c C02A78704   1.943   4.326   6.002 -0.6886  1.5342 -0.5760
  4244G12c H01178705   2.039   4.277   6.005 -0.2904  2.2825 -0.9024
  4244G12c C00C78706   1.761   3.920   5.832 -0.0283  1.2191  1.8378
  4244G12c H01278707   1.748   4.012   5.887  2.3175  0.5586  3.5734
  4244G12c C00B78708   1.697   3.810   5.892 -0.0450 -0.3035  1.3508
  4244G12c C00A78709   1.643   3.818   6.025  0.5317  0.6806 -0.3887
  4244G12c C00978710   1.703   3.881   6.152  0.8347  1.6407  0.1375
  4244G12c C00878711   1.797   3.966   6.200  0.0934  0.3498 -0.6200
  4244G12c H01378712   1.801   4.049   6.131  0.2974 -2.3882 -4.0262
  4244G12c C00778713   1.839   3.976   6.339 -2.0103 -1.9859  0.7073
  4244G12c H01478714   1.871   4.077   6.358  2.4221 -2.8135 -1.5094
  4244G12c C00678715   1.815   3.874   6.428 -1.7953  0.4528  1.1667
  4244G12c C00578716   1.714   3.781   6.376 -0.4903 -0.4047  0.2861
  4244G12c C00478717   1.662   3.668   6.453 -0.6018 -0.7775 -0.5978
  4244G12c C00378718   1.572   3.576   6.401  1.4169 -0.9046 -1.1746
  4244G12c C00278719   1.545   3.463   6.480  0.3252  0.6995 -1.3935
  4244G12c C00178720   1.493   3.326   6.454  1.3848 -0.3260 -0.4514
  4244G12c C00M78721   1.535   3.257   6.343  0.9821 -1.3017 -1.4362
  4244G12c C00L78722   1.550   3.327   6.220  0.1131 -0.1886 -0.2454
  4244G12c C00R78723   1.571   3.263   6.089  1.1680  0.1560 -1.3405
  4244G12c C00Q78724   1.607   3.121   6.066 -0.2343 -0.4266 -0.3541
  4244G12c C00V78725   1.650   3.120   5.929 -0.8827  0.8717  0.9002
  4244G12c C00U78726   1.645   3.229   5.837  0.6680 -0.8344  1.1380
  4244G12c C00T78727   1.582   3.350   5.868  0.3125  0.4933  2.1095
  4244G12c C01678728   1.598   3.470   5.796 -1.0643 -0.9211  0.9457
  4244G12c C01578729   1.657   3.452   5.676 -0.6681 -0.7265 -0.1081
  4244G12c C01078730   1.693   3.322   5.624  0.7178  0.5275  0.6678
  4244G12c C01178731   1.720   3.307   5.490 -0.0195 -0.0056  0.7691
  4244G12c H00578732   1.650   3.237   5.445 -0.8578  0.3857  1.4712
  4244G12c C01278733   1.749   3.423   5.398  0.0089 -0.1205 -1.4487
  4244G12c C01778734   1.745   3.435   5.261 -1.2616 -1.4608  0.1113
  4244G12c O00278735   1.648   3.506   5.193 -0.5961  0.3968  0.5938
  4244G12c H00478736   1.658   3.600   5.188 -1.7260  0.5359  0.8307
  4244G12c C01878737   1.840   3.368   5.190 -0.0233  0.4364 -0.0015
  4244G12c O00178738   1.918   3.271   5.242 -1.7238  0.7516 -0.0378
  4244G12c H00378739   1.984   3.269   5.174 -3.7429 -0.4758 -2.0363
  4244G12c C01978740   1.875   3.358   5.035 -0.5906  1.0026 -0.1065
  4244G12c H00278741   1.809   3.278   5.001 -2.1312  0.3788  3.9913
  4244G12c H00178742   1.866   3.464   5.012  5.6241  1.8103  0.3758
  4244G12c O00078743   2.001   3.324   5.019 -0.1237 -0.0860 -0.6406
  4244G12c C01A78744   2.086   3.370   4.920  0.5617 -0.8038 -1.3781
  4244G12c C02K78745   2.059   3.475   4.826  0.1300  1.0688 -0.1913
  4244G12c O00G78746   1.941   3.532   4.819  0.5291 -1.4532  1.0636
  4244G12c C02M78747   1.929   3.667   4.803 -1.3364 -0.5820 -0.1978
  4244G12c H01G78748   1.830   3.690   4.841 -3.5547 -2.3158 -4.4426
  4244G12c H01F78749   1.952   3.694   4.699 -2.5827 -6.5614 -2.2448
  4244G12c H01E78750   2.004   3.703   4.873 -0.7355  2.8328 -2.4760
  4244G12c C02J78751   2.175   3.519   4.767  1.7577  0.4821 -0.5526
  4244G12c H01H78752   2.185   3.619   4.727  3.7072  1.4962  2.2658
  4244G12c C02I78753   2.302   3.461   4.767  0.2213 -0.4256 -1.5521
  4244G12c C02N78754   2.437   3.526   4.731  0.2859 -1.1707 -0.3370
  4244G12c H01M78755   2.402   3.625   4.704  0.0711 -2.2585 -4.2281
  4244G12c C02O78756   2.563   3.465   4.714  1.2613  1.0625  0.6236
  4244G12c H01L78757   2.602   3.374   4.757 -5.7846 -1.4108  2.5239
  4244G12c C02P78758   2.670   3.561   4.647 -0.5936 -0.7660 -0.3444
  4244G12c H01K78759   2.760   3.569   4.707  1.9325 -3.9165 -3.5149
  4244G12c H01J78760   2.681   3.541   4.540 -1.6181  0.5468 -0.7122
  4244G12c O00H78761   2.635   3.706   4.650 -0.1554  0.6547 -0.9185
  4244G12c H01I78762   2.620   3.754   4.570 -2.2657  1.7589  0.0981
  4244G12c C02H78763   2.297   3.327   4.819 -1.3188 -0.8103 -0.9736
  4244G12c H01C78764   2.393   3.278   4.812 -0.5844  0.2439  1.2595
  4244G12c C02L78765   2.217   3.321   4.930 -1.1572  1.8062  0.6224
  4244G12c H01D78766   2.259   3.239   4.986  1.6907  3.6915  1.3232
  4244G12c C01378767   1.755   3.542   5.482 -1.5081 -0.9787  0.3254
  4244G12c H00078768   1.743   3.627   5.417 -2.0064  0.0417  1.7033
  4244G12c C01478769   1.711   3.562   5.614 -0.8535  1.2596  3.2345
  4244G12c C00F78770   1.722   3.682   5.683 -0.5742 -0.7343  0.8843
  4244G12c C00H78771   1.608   3.594   5.868  1.6353 -1.1135  0.1751
  4244G12c C00I78772   1.556   3.605   6.008 -0.2002 -0.0865  0.2565
  4244G12c C00J78773   1.518   3.487   6.058  0.5011  1.0156  0.5258
  4244G12c C00Z78774   1.675   3.216   5.708  2.3056  0.5477 -0.5721
  4244G12c C00Y78775   1.690   3.093   5.667 -0.2180 -2.1468  0.7614
  4244G12c H00678776   1.717   3.048   5.573  1.9117 -4.8110  2.5665
  4244G12c C00X78777   1.706   2.984   5.745 -0.7437  1.6174 -1.0132
  4244G12c O00378778   1.763   2.864   5.697  0.3334  0.5372  0.2650
  4244G12c C01B78779   1.913   2.877   5.679 -1.2564  1.1380  0.9083
  4244G12c H00978780   1.940   2.940   5.594 -0.8150 -0.9364 -0.5206
  4244G12c H00878781   1.967   2.782   5.685  2.8584  3.1984 -1.2571
  4244G12c H00778782   1.978   2.924   5.753  3.7521  2.1890 -3.8490
  4244G12c C00W78783   1.704   3.001   5.878  1.2606 -0.0948  0.8926
  4244G12c O00478784   1.756   2.898   5.968  0.8190 -0.0835  0.3324
  4244G12c C01C78785   1.677   2.896   6.075  0.7304  0.4506 -2.6384
  4244G12c H00A78786   1.603   2.817   6.075 -0.9637  1.8276  3.4546
  4244G12c C00P78787   1.638   3.011   6.152 -1.3382  0.9083 -0.2461
  4244G12c C00O78788   1.649   3.022   6.290  1.1857 -0.0971 -0.6524
  4244G12c C01D78789   1.714   2.916   6.367  0.4869  0.3051  0.5876
  4244G12c H00S78790   1.747   2.816   6.342 -6.3579 -2.4779  1.5590
  4244G12c C01E78791   1.761   2.939   6.510  0.6222  1.1156  0.0081
  4244G12c O00878792   1.850   2.852   6.557  0.8791 -1.3296  0.0152
  4244G12c C01V78793   1.832   2.765   6.665  2.0117  2.9794 -0.0137
  4244G12c C01Z78794   1.764   2.814   6.794  0.4515  0.8996  0.1501
  4244G12c H00R78795   1.784   2.730   6.861  2.5358  1.3767  0.1447
  4244G12c H00Q78796   1.814   2.886   6.859 -0.2937  4.0905 -2.6703
  4244G12c O00978797   1.638   2.784   6.798 -0.3788  0.0986 -0.7255
  4244G12c H00P78798   1.621   2.692   6.793 -0.7697 -0.3651  5.2744
  4244G12c C01W78799   1.928   2.670   6.658 -0.3142  0.4020 -1.7722
  4244G12c H00O78800   1.968   2.650   6.560  4.8289 -3.9192  0.9770
  4244G12c C01X78801   1.948   2.573   6.773 -1.5732  0.4624 -1.5104
  4244G12c H00N78802   2.020   2.494   6.753  1.3665  4.1020 -6.2867
  4244G12c H00M78803   1.988   2.640   6.850 -0.0842  4.6435 -5.7076
  4244G12c C01Y78804   1.823   2.495   6.799 -0.1977 -2.0234  2.0429
  4244G12c C02D78805   1.786   2.415   6.686 -0.7002 -0.1531  0.5280
  4244G12c H01978806   1.827   2.443   6.590 -0.3076  6.4655  2.4463
  4244G12c C02C78807   1.700   2.308   6.722 -0.4539  0.6498  1.0960
  4244G12c H01A78808   1.680   2.230   6.650  0.9616  1.6490 -0.3879
  4244G12c C02B78809   1.657   2.281   6.845 -0.7145 -1.4333  0.2511
  4244G12c O00E78810   1.559   2.185   6.856  0.3285 -0.7758 -0.0526
  4244G12c H01B78811   1.539   2.183   6.763 -2.8118 -6.8162  0.5005
  4244G12c C02F78812   1.692   2.371   6.957 -0.0289  0.7542 -0.1221
  4244G12c O00F78813   1.662   2.337   7.068 -0.8407  0.0167 -0.7017
  4244G12c C02G78814   1.597   2.431   7.148 -0.2513  0.6794 -0.6578
  4244G12c H01778815   1.494   2.455   7.122 -0.9806  2.1491  3.2025
  4244G12c H01678816   1.564   2.389   7.243  1.7447  2.7862  1.0099
  4244G12c H01578817   1.638   2.525   7.185  2.0362 -1.1873  1.7317
  4244G12c C02E78818   1.769   2.490   6.922  0.4732  0.7843 -2.3818
  4244G12c H01878819   1.783   2.560   7.002 -4.2093 -1.1200  0.3121
  4244G12c C01F78820   1.722   3.065   6.573  0.9585 -0.6404  1.3336
  4244G12c C01G78821   1.774   3.115   6.703  0.5280 -2.0071 -2.8032
  4244G12c H00L78822   1.866   3.069   6.736  1.2130  0.8042 -0.5480
  4244G12c C01H78823   1.735   3.249   6.739  1.6321 -1.2285 -0.5102
  4244G12c H00B78824   1.786   3.291   6.824  0.2142 -0.1987 -0.1509
  4244G12c C01I78825   1.628   3.315   6.661  1.3815 -1.0554 -0.7259
  4244G12c C01U78826   1.623   3.141   6.510  0.7611  0.8082  1.0078
  4244G12c C00S78827   1.549   3.362   5.994 -1.5166 -0.6009 -1.8029
  4244G12c C00K78828   1.509   3.467   6.189 -1.1120 -0.0685 -0.5076
  4244G12c C00N78829   1.614   3.142   6.366  0.2889 -0.7209 -0.5061
  4244G12c C00078830   1.549   3.247   6.568 -2.7208 -0.3971  0.4061
  4244G12c C01J78831   1.624   3.449   6.613  0.0694  0.3121  0.5334
  4244G12c C01K78832   1.710   3.557   6.664 -1.3937  0.8549 -0.9013
  4244G12c C01P78833   1.770   3.570   6.796  0.8507 -0.4696  0.3818
  4244G12c C01Q78834   1.683   3.514   6.914 -0.7675 -0.8222 -0.3153
  4244G12c H00G78835   1.580   3.547   6.914 -2.7766 -6.4629  0.9302
  4244G12c C01R78836   1.754   3.488   7.026  1.7010  0.3541 -1.2216
  4244G12c H00F78837   1.859   3.465   7.037  1.6161  1.8966  3.9986
  4244G12c C01S78838   1.683   3.471   7.161 -1.5436  1.1714 -0.9689
  4244G12c H00E78839   1.578   3.447   7.146 -0.2841 -1.0225 -8.3131
  4244G12c H00D78840   1.722   3.394   7.227 -3.7560  3.9327  3.8444
  4244G12c O00578841   1.689   3.603   7.213 -0.3870 -0.2562 -0.4441
  4244G12c H00C78842   1.620   3.656   7.177 -0.5562  1.8544  2.7040
  4244G12c C01O78843   1.879   3.645   6.822  0.5451  0.8087  0.0681
  4244G12c H00H78844   1.904   3.664   6.925  2.0478 -1.3019  0.1284
  4244G12c C01N78845   1.911   3.728   6.717 -1.9622  2.1759 -0.4662
  4244G12c O00678846   2.005   3.830   6.753  0.0173 -0.2879  0.1314
  4244G12c C01T78847   1.960   3.970   6.754  0.2456  1.1290  1.7866
  4244G12c H00K78848   1.863   4.003   6.714  1.5712  6.4767  2.5568
  4244G12c H00J78849   2.020   4.017   6.676  2.3844 -5.4532 -0.8675
  4244G12c H00I78850   2.027   4.037   6.808  2.7215  0.9391 -0.9165
  4244G12c C01M78851   1.837   3.739   6.599  1.1717  0.4072  0.9142
  4244G12c C02078852   1.513   3.588   6.272  0.4248  0.1171 -0.2862
  4244G12c C02178853   1.544   3.707   6.209 -0.0994  0.5293  1.9345
  4244G12c C01L78854   1.728   3.659   6.572 -1.5978  0.1598 -0.0527
  4244G12c O00778855   1.906   3.824   6.516  0.2532 -1.0609  0.8672
  4244G12c C02278856   1.649   3.793   6.253 -0.7404  0.5907  0.1052
  4244G12c C02378857   1.545   3.722   6.067 -1.0682 -1.3551 -0.0698
  4244G12c C00G78858   1.675   3.691   5.813  0.6699  0.7749 -1.3755
  4244G12c C00E78859   1.803   3.789   5.639  0.8046 -0.5495 -0.6228
  4244G12c O00A78860   1.859   3.800   5.516 -0.0845  0.7752 -0.0893
  4244G12c C02478861   2.005   3.783   5.531  0.2692 -0.9773  0.1776
  4244G12c H00V78862   2.034   3.869   5.591  3.8243  2.2878 -5.6946
  4244G12c H00U78863   2.066   3.785   5.440  1.3692  3.0320  0.8802
  4244G12c H00T78864   2.013   3.693   5.591  3.2519 -0.9468 -0.1144
  4254G12c C00D78865   2.625  11.745   4.937  0.1710  0.6090  1.6172
  4254G12c O00B78866   2.631  11.878   4.972 -0.5492  0.3105 -0.1092
  4254G12c C02578867   2.620  11.929   5.105  1.2764  2.2595  1.2217
  4254G12c C02678868   2.474  11.924   5.169 -0.5770  1.1051 -0.7991
  4254G12c H00Y78869   2.416  11.963   5.086 -3.5012 -6.6643 -2.9057
  4254G12c H00X78870   2.469  11.969   5.268 -1.0675  2.4799 -1.4469
  4254G12c O00C78871   2.452  11.788   5.193 -0.2740 -1.3020  0.4178
  4254G12c H00W78872   2.418  11.774   5.280 -0.7036  4.5676  1.3739
  4254G12c C02778873   2.728  11.980   5.171  0.2422 -0.2527 -1.1570
  4254G12c O00D78874   2.695  12.043   5.290 -0.1339 -0.5440  0.0793
  4254G12c H00Z78875   2.727  12.129   5.311 -4.6108  0.4965  3.4015
  4254G12c C02878876   2.863  12.012   5.108  0.9543 -1.2391 -0.0152
  4254G12c C02978877   2.966  11.989   5.206 -1.0113 -0.2684 -0.8414
  4254G12c H01078878   2.953  11.931   5.296  0.7158 -2.1198 -1.7540
  4254G12c C02T78879   3.095  11.997   5.151  0.3914 -1.1389  0.3006
  4254G12c H01O78880   3.169  11.988   5.229 -0.8889  0.8283  1.8083
  4254G12c C02S78881   3.115  12.056   5.026 -1.9256  1.3710 -0.3730
  4254G12c O00J78882   3.250  12.075   4.989  0.5102 -0.7394 -0.8673
  4254G12c H01P78883   3.274  12.127   4.914  2.6871  2.3576  1.8438
  4254G12c C02R78884   3.011  12.079   4.931 -0.1809  1.2875  0.8526
  4254G12c O00I78885   3.031  12.150   4.820  1.3930 -2.2673 -0.2967
  4254G12c C02Q78886   3.143  12.120   4.727  0.9917 -0.4287  2.1267
  4254G12c H01N78887   3.244  12.158   4.714  1.3456 -0.3639  4.8062
  4254G12c H01R78888   3.132  12.013   4.710  0.9013 -0.4662  2.4209
  4254G12c H01Q78889   3.109  12.157   4.631  4.1650  3.2774  2.2777
  4254G12c C02A78890   2.877  12.058   4.972  0.6201 -1.2454  0.1115
  4254G12c H01178891   2.790  12.085   4.914  2.6192 -0.6582 -2.7213
  4254G12c C00C78892   2.733  11.666   4.937 -0.2041  0.2356  0.8702
  4254G12c H01278893   2.809  11.727   4.985  0.4428 -0.8271  1.2319
  4254G12c C00B78894   2.728  11.524   4.932 -1.3871 -0.1715  1.1638
  4254G12c C00A78895   2.819  11.413   4.955  0.6029 -0.9568  0.2554
  4254G12c C00978896   2.942  11.423   4.871 -0.6071  1.4759 -0.7784
  4254G12c C00878897   2.995  11.537   4.800  0.1392  0.9824 -1.7367
  4254G12c H01378898   2.938  11.629   4.807 -2.2899 -0.4453 -2.1831
  4254G12c C00778899   3.084  11.529   4.702  0.2144  2.5564 -0.2115
  4254G12c H01478900   3.144  11.611   4.665  4.0450  1.6078  3.5624
  4254G12c C00678901   3.157  11.401   4.693  1.6056  0.5484 -0.9690
  4254G12c C00578902   3.097  11.292   4.748  0.5643  1.4976 -0.2167
  4254G12c C00478903   3.113  11.161   4.719 -1.8223 -1.1772 -1.3568
  4254G12c C00378904   3.019  11.069   4.748  0.2209  0.2941 -0.9814
  4254G12c C00278905   3.033  10.945   4.674 -1.5807 -0.5392  1.0640
  4254G12c C00178906   2.937  10.834   4.644  0.3725  0.4448  1.0275
  4254G12c C00M78907   2.796  10.842   4.600 -1.9037 -0.0809 -0.4853
  4254G12c C00L78908   2.723  10.944   4.676 -0.4009 -0.7327 -0.1144
  4254G12c C00R78909   2.585  11.001   4.646 -0.7109  1.4570  1.1389
  4254G12c C00Q78910   2.504  10.943   4.529 -0.1221 -0.8144 -1.3011
  4254G12c C00V78911   2.406  11.043   4.507  1.0442 -0.0699 -0.4436
  4254G12c C00U78912   2.383  11.159   4.590  0.9576  0.6905  0.6873
  4254G12c C00T78913   2.458  11.196   4.696  0.9590 -2.2005 -0.2397
  4254G12c C01678914   2.488  11.333   4.745 -0.7371  1.3524  1.5467
  4254G12c C01578915   2.364  11.399   4.741 -1.2374 -0.7747  0.3361
  4254G12c C01078916   2.261  11.367   4.664 -0.0611  2.3800 -0.3789
  4254G12c C01178917   2.151  11.464   4.639  0.4046 -0.2633 -2.6290
  4254G12c H00578918   2.065  11.447   4.577  0.6208 -2.7240 -2.3198
  4254G12c C01278919   2.139  11.565   4.735  0.2696 -2.0649 -0.2472
  4254G12c C01778920   2.009  11.641   4.731 -0.0501 -0.0690  0.0076
  4254G12c O00278921   1.933  11.636   4.613  0.3112 -0.3128 -0.6314
  4254G12c H00478922   1.873  11.709   4.615  1.8784  1.1670 -4.0463
  4254G12c C01878923   1.965  11.748   4.816 -1.1527 -0.5227  0.9284
  4254G12c O00178924   1.984  11.746   4.950  0.5513  0.4629 -1.2331
  4254G12c H00378925   2.046  11.813   4.975  0.7009 -0.9525  2.3274
  4254G12c C01978926   1.848  11.842   4.794  0.4497  1.0193  1.2933
  4254G12c H00278927   1.760  11.793   4.753 -1.8401 -1.3925  8.2795
  4254G12c H00178928   1.820  11.911   4.874  3.7867  1.5247  2.0858
  4254G12c O00078929   1.856  11.922   4.679 -1.5356 -0.6197  1.4897
  4254G12c C01A78930   1.888  12.052   4.691  0.5781 -1.9551 -1.6423
  4254G12c C02K78931   1.821  12.152   4.614 -0.5191 -1.1900  1.9297
  4254G12c O00G78932   1.712  12.119   4.544  0.2880 -2.2474 -0.8176
  4254G12c C02M78933   1.734  12.073   4.420  0.1605 -0.3157  0.0470
  4254G12c H01G78934   1.802  12.128   4.355 -0.0964  0.9149  0.8075
  4254G12c H01F78935   1.782  11.976   4.435  2.5094  0.6583 -0.8316
  4254G12c H01E78936   1.639  12.064   4.368 -0.8564 -4.5086  2.3853
  4254G12c C02J78937   1.878  12.280   4.609 -0.6805 -2.1657 -2.2731
  4254G12c H01H78938   1.840  12.360   4.548  3.7422 -2.0518 -5.1337
  4254G12c C02I78939   1.988  12.324   4.687  0.3489 -0.9478 -0.1221
  4254G12c C02N78940   2.016  12.453   4.699  0.7455  0.6325  0.3716
  4254G12c H01M78941   1.974  12.516   4.777  6.2558  3.1879  1.5867
  4254G12c C02O78942   2.084  12.518   4.594 -0.7536 -0.6018 -0.8508
  4254G12c H01L78943   2.123  12.468   4.506 -5.0622 -4.8323 -0.6019
  4254G12c C02P78944   2.088  12.665   4.560  0.8554  0.0211  0.3244
  4254G12c H01K78945   1.988  12.706   4.574 -0.7778 -4.0737  1.4346
  4254G12c H01J78946   2.072  12.683   4.453 -6.7542 -0.6832  1.0477
  4254G12c O00H78947   2.201  12.712   4.600 -0.1447  1.4691  1.1875
  4254G12c H01I78948   2.241  12.728   4.516 -1.7287 -2.9858 -0.5196
  4254G12c C02H78949   2.037  12.228   4.789 -1.4673  0.3082  1.7398
  4254G12c H01C78950   2.072  12.270   4.882  0.1358 -3.1416  2.7881
  4254G12c C02L78951   2.007  12.089   4.751 -0.9882  1.1953 -1.2365
  4254G12c H01D78952   2.060  12.007   4.797  0.8586  0.3932 -4.6496
  4254G12c C01378953   2.256  11.591   4.818 -0.3118  0.5995 -0.4700
  4254G12c H00078954   2.228  11.662   4.894 -8.5526 -0.1746 -2.2588
  4254G12c C01478955   2.367  11.516   4.809  0.2571 -1.5202  0.3757
  4254G12c C00F78956   2.491  11.561   4.856 -0.9727 -2.6235  0.2308
  4254G12c C00H78957   2.592  11.356   4.833  1.3395  0.6011  0.9882
  4254G12c C00I78958   2.673  11.248   4.873 -0.2668  1.0783  0.1624
  4254G12c C00J78959   2.656  11.123   4.817  0.1737 -0.4615  0.3750
  4254G12c C00Z78960   2.277  11.248   4.574 -2.3539 -0.0856  0.5408
  4254G12c C00Y78961   2.159  11.201   4.504 -1.1770  0.5740  0.0238
  4254G12c H00678962   2.073  11.267   4.503  2.2425  5.3515  2.6555
  4254G12c C00X78963   2.172  11.084   4.422 -0.6152 -0.3839 -0.6627
  4254G12c O00378964   2.065  11.075   4.344 -0.8319  0.6057  0.1067
  4254G12c C01B78965   2.036  10.979   4.238 -0.3876  0.1246 -2.1151
  4254G12c H00978966   2.066  10.876   4.259  2.7668  0.1818 -5.7114
  4254G12c H00878967   1.935  10.974   4.196 -0.7765  2.0152 -1.4220
  4254G12c H00778968   2.116  11.009   4.170  0.8349  3.9498  0.8801
  4254G12c C00W78969   2.298  11.009   4.431  0.4187 -0.2055 -1.0955
  4254G12c O00478970   2.295  10.903   4.350 -0.2825 -0.7100  1.1118
  4254G12c C01C78971   2.414  10.842   4.328  2.5590  0.3121  0.6444
  4254G12c H00A78972   2.410  10.778   4.241 -5.0493  0.3778  0.5513
  4254G12c C00P78973   2.526  10.873   4.404 -1.3762  0.9600  0.0372
  4254G12c C00O78974   2.669  10.820   4.380  0.8945 -0.8086  0.3469
  4254G12c C01D78975   2.696  10.759   4.246  0.8882 -0.3000 -1.5791
  4254G12c H00S78976   2.630  10.733   4.165  1.6248 -1.8218 -1.7056
  4254G12c C01E78977   2.848  10.752   4.202 -0.3227 -0.5426  0.1387
  4254G12c O00878978   2.864  10.720   4.067  0.6853  2.2428 -0.5101
  4254G12c C01V78979   2.766  10.650   3.996  1.9142  0.2981  1.4435
  4254G12c C01Z78980   2.790  10.495   4.003  0.0344 -0.6754 -0.9664
  4254G12c H00R78981   2.859  10.462   3.926  0.7209  7.3669 -4.2934
  4254G12c H00Q78982   2.848  10.463   4.090  1.1750  2.7375 -0.3890
  4254G12c O00978983   2.692  10.404   4.046  0.1029  0.5417 -1.0123
  4254G12c H00P78984   2.675  10.369   4.132  2.3862  0.5919 -0.5092
  4254G12c C01W78985   2.692  10.691   3.891  0.9589  1.1387  0.6692
  4254G12c H00O78986   2.682  10.790   3.849 -3.0306 -1.3797 -4.8735
  4254G12c C01X78987   2.656  10.602   3.778 -1.6772 -0.5953  0.5323
  4254G12c H00N78988   2.625  10.502   3.807  0.4864 -1.6717 -0.7776
  4254G12c H00M78989   2.562  10.641   3.738 -1.0119  2.4229  1.7233
  4254G12c C01Y78990   2.764  10.571   3.660 -1.8667  0.3554 -0.7876
  4254G12c C02D78991   2.704  10.539   3.530  0.4431 -0.4608  1.0861
  4254G12c H01978992   2.601  10.574   3.532  1.7801  3.6944  3.2604
  4254G12c C02C78993   2.766  10.472   3.423 -1.4878  0.3738 -0.0463
  4254G12c H01A78994   2.701  10.470   3.337 -1.2094 -1.0349 -0.2385
  4254G12c C02B78995   2.904  10.428   3.446  0.1455  0.3966  1.0314
  4254G12c O00E78996   2.979  10.391   3.341  1.3162 -0.5544 -1.4732
  4254G12c H01B78997   3.056  10.352   3.379  0.7224  4.6250  6.2328
  4254G12c C02F78998   2.957  10.449   3.580  1.7056  0.9134 -1.1581
  4254G12c O00F78999   3.082  10.440   3.623 -0.2515 -0.7231  0.5691
  4254G12c C02G79000   3.183  10.373   3.558 -2.0415 -0.6538  0.4524
  4254G12c H01779001   3.162  10.282   3.503 -2.1550 -1.0624  1.1568
  4254G12c H01679002   3.215  10.436   3.475  0.1659 -2.0106  0.2404
  4254G12c H01579003   3.259  10.370   3.637 -2.9875  4.6652  1.7733
  4254G12c C02E79004   2.892  10.519   3.688 -0.2873 -0.4476 -0.4233
  4254G12c H01879005   2.935  10.545   3.784  0.0720 -1.7209 -0.2354
  4254G12c C01F79006   2.942  10.771   4.293  0.4520 -1.7106 -1.3315
  4254G12c C01G79007   3.083  10.776   4.265 -1.7319 -0.5156 -1.0518
  4254G12c H00L79008   3.111  10.751   4.164 -1.0298 -2.8685 -0.3161
  4254G12c C01H79009   3.179  10.797   4.365 -1.5915  0.0239 -0.2838
  4254G12c H00B79010   3.283  10.823   4.355 -0.5855 -4.2059 -1.6331
  4254G12c C01I79011   3.119  10.809   4.495 -0.9252 -1.8695 -0.6591
  4254G12c C01U79012   2.904  10.771   4.430  0.7472  0.0358 -0.4051
  4254G12c C00S79013   2.555  11.100   4.724 -0.8272 -0.7907 -0.9260
  4254G12c C00K79014   2.770  11.040   4.779 -0.7541  0.3667 -1.2603
  4254G12c C00N79015   2.774  10.809   4.472 -0.1076 -0.2945  1.7875
  4254G12c C00079016   2.994  10.759   4.534  0.6284  1.1973  0.2618
  4254G12c C01J79017   3.146  10.922   4.587  0.8563  0.5818  0.1398
  4254G12c C01K79018   3.259  11.012   4.578  0.8387  2.1386  0.0803
  4254G12c C01P79019   3.408  10.989   4.546 -0.9353 -0.5973 -0.0739
  4254G12c C01Q79020   3.479  10.865   4.558 -0.1175 -0.6932  0.8014
  4254G12c H00G79021   3.512  10.837   4.459 -1.2618 -0.7027  0.4147
  4254G12c C01R79022   3.463  10.767   4.643 -0.0299  0.1714 -0.0758
  4254G12c H00F79023   3.534  10.687   4.625 -2.0554 -1.6529 -0.0797
  4254G12c C01S79024   3.373  10.780   4.773 -0.2788 -0.1445 -1.3217
  4254G12c H00E79025   3.441  10.768   4.858  0.1257 -0.8787 -1.7500
  4254G12c H00D79026   3.336  10.881   4.792  7.7837  2.4900  2.6374
  4254G12c O00579027   3.296  10.671   4.790  0.5359  1.7820 -0.7914
  4254G12c H00C79028   3.225  10.695   4.733  0.7922  3.0066 -0.6080
  4254G12c C01O79029   3.473  11.104   4.486  1.7596 -0.6307 -1.2954
  4254G12c H00H79030   3.572  11.089   4.447  2.8413  0.2415  1.0146
  4254G12c C01N79031   3.424  11.225   4.523  0.3710  0.7843 -0.8633
  4254G12c O00679032   3.476  11.334   4.461  0.9931 -0.1075  0.6169
  4254G12c C01T79033   3.590  11.324   4.375  0.8898 -0.5690 -0.3992
  4254G12c H00K79034   3.567  11.250   4.299  2.1012 -1.7981  0.4190
  4254G12c H00J79035   3.674  11.340   4.443  1.2299  3.5048 -1.5930
  4254G12c H00I79036   3.601  11.416   4.317  0.7458  0.3663  1.0226
  4254G12c C01M79037   3.304  11.244   4.607  0.0673  0.4221  1.1463
  4254G12c C02079038   2.888  11.100   4.807  0.2115 -0.4948  0.5462
  4254G12c C02179039   2.904  11.213   4.895  1.2124  1.4069  0.8116
  4254G12c C01L79040   3.226  11.131   4.643 -0.4111 -1.2722 -1.0787
  4254G12c O00779041   3.276  11.382   4.639 -0.1044  0.7439 -0.2656
  4254G12c C02279042   3.005  11.293   4.860 -1.1298 -1.8634 -0.8723
  4254G12c C02379043   2.790  11.287   4.952 -0.8801  0.4797 -0.5026
  4254G12c C00G79044   2.608  11.481   4.871  1.5393 -2.0838 -0.9045
  4254G12c C00E79045   2.504  11.704   4.882 -1.4037  0.0209 -0.2781
  4254G12c O00A79046   2.407  11.787   4.851  0.8824  0.4208  0.4574
  4254G12c C02479047   2.404  11.837   4.717  0.4129  0.5797 -0.1538
  4254G12c H00V79048   2.360  11.937   4.721 -1.0412 -0.1138  5.8789
  4254G12c H00U79049   2.341  11.785   4.645  0.2618 -0.6429  0.8511
  4254G12c H00T79050   2.507  11.856   4.688  1.8636  4.1417  6.4827
  4264G12c C00D79051   0.347   5.952  10.579  0.2455  0.1421  0.4611
  4264G12c O00B79052   0.438   6.018  10.515  0.4291 -1.0208  0.1905
  4264G12c C02579053   0.423   6.146  10.463  0.3540  0.3945 -1.0429
  4264G12c C02679054   0.386   6.265  10.555 -0.4061  0.0065 -0.2228
  4264G12c H00Y79055   0.399   6.366  10.514 -5.1906  0.9563  0.2896
  4264G12c H00X79056   0.414   6.260  10.660  3.7748 -2.3119 -1.3394
  4264G12c O00C79057   0.250   6.254  10.560 -0.4931 -1.1686 -0.8357
  4264G12c H00W79058   0.198   6.182  10.527  1.2683 -2.2714 -1.3061
  4264G12c C02779059   0.474   6.170  10.349 -2.0346 -0.9080 -1.3382
  4264G12c O00D79060   0.482   6.048  10.279 -0.7139  0.0097  0.5575
  4264G12c H00Z79061   0.454   5.989  10.346 -3.2109 -4.5202 -4.1384
  4264G12c C02879062   0.460   6.298  10.278 -1.3968  0.7258  0.7560
  4264G12c C02979063   0.355   6.390  10.295  0.7536 -1.8049 -1.4665
  4264G12c H01079064   0.281   6.349  10.362  5.1375 -3.6083  2.5331
  4264G12c C02T79065   0.367   6.522  10.236  0.3509  1.4743  0.4249
  4264G12c H01O79066   0.284   6.590  10.246  2.4130  5.2641 -5.4289
  4264G12c C02S79067   0.482   6.545  10.171 -1.2293  1.4408  0.1247
  4264G12c O00J79068   0.523   6.678  10.194 -0.2826  0.1381  0.7467
  4264G12c H01P79069   0.617   6.679  10.185 -0.3296 -6.1050 -4.5191
  4264G12c C02R79070   0.597   6.467  10.157  1.0870  0.0477 -0.4601
  4264G12c O00I79071   0.691   6.539  10.088  1.8960  2.1463 -0.0712
  4264G12c C02Q79072   0.763   6.440  10.010 -0.1131 -0.4733  1.4237
  4264G12c H01N79073   0.806   6.344  10.039 -2.2124 -6.3938-11.6662
  4264G12c H01R79074   0.832   6.506   9.957 -3.1050  0.3182 -1.6168
  4264G12c H01Q79075   0.724   6.414   9.912 -0.8982  1.5587  1.1833
  4264G12c C02A79076   0.581   6.343  10.212 -0.5118 -1.2145  0.1151
  4264G12c H01179077   0.656   6.268  10.195 -0.1275 -0.4459 -1.6586
  4264G12c C00C79078   0.219   5.926  10.526 -0.0922 -1.9271 -0.5458
  4264G12c H01279079   0.202   5.950  10.422  2.4060  1.0360 -0.3661
  4264G12c C00B79080   0.125   5.858  10.619  0.0798  0.7560 -0.8625
  4264G12c C00A79081  -0.013   5.829  10.591  0.1541 -0.2780  1.3796
  4264G12c C00979082  -0.102   5.929  10.549 -1.2922  0.4071  1.0877
  4264G12c C00879083  -0.077   6.053  10.503  0.6702  0.0818 -1.0970
  4264G12c H01379084   0.002   6.104  10.452 -0.6252  0.4473 -2.7687
  4264G12c C00779085  -0.180   6.139  10.522 -0.0116  0.1039  0.6578
  4264G12c H01479086  -0.192   6.237  10.479 -1.5847  0.5926  2.2000
  4264G12c C00679087  -0.314   6.104  10.546  0.4146  0.3754  0.5263
  4264G12c C00579088  -0.330   5.978  10.604 -0.8573  1.6818 -1.0677
  4264G12c C00479089  -0.436   5.929  10.678  0.1541 -0.8283  0.3809
  4264G12c C00379090  -0.425   5.821  10.763  1.2209 -0.0941  0.4849
  4264G12c C00279091  -0.520   5.827  10.885 -0.9790  0.0219 -1.2295
  4264G12c C00179092  -0.526   5.746  11.009  0.4687  1.5376 -0.9539
  4264G12c C00M79093  -0.420   5.705  11.095 -0.5582  1.7009 -2.1226
  4264G12c C00L79094  -0.285   5.683  11.051 -0.0175 -2.3762  0.6504
  4264G12c C00R79095  -0.165   5.665  11.108  1.1625  0.4248  0.4517
  4264G12c C00Q79096  -0.139   5.689  11.249 -0.6160  0.9767 -0.7434
  4264G12c C00V79097  -0.001   5.654  11.276 -0.5002  0.8836  0.0087
  4264G12c C00U79098   0.100   5.641  11.178  2.0946 -1.0790 -0.0452
  4264G12c C00T79099   0.074   5.650  11.045  0.3853  0.0137  0.1665
  4264G12c C01679100   0.160   5.657  10.938  0.5211 -1.0445 -0.7965
  4264G12c C01579101   0.286   5.704  10.971 -1.9126  0.3306 -1.6510
  4264G12c C01079102   0.329   5.664  11.104 -0.9860 -0.2506  1.7704
  4264G12c C01179103   0.462   5.680  11.132 -1.0952  0.9377 -2.0083
  4264G12c H00579104   0.519   5.672  11.223  0.0908 -7.1407 -3.0690
  4264G12c C01279105   0.552   5.686  11.020  0.5388  1.0505 -0.5762
  4264G12c C01779106   0.694   5.661  11.045 -1.4182 -0.1998  0.3655
  4264G12c O00279107   0.755   5.566  10.960 -0.4888  0.1013 -0.9125
  4264G12c H00479108   0.683   5.526  10.913  1.7450 -0.3578 -4.0935
  4264G12c C01879109   0.766   5.722  11.140 -0.0840  0.5331  1.2440
  4264G12c O00179110   0.907   5.702  11.154  1.0597  0.7266 -0.1412
  4264G12c H00379111   0.925   5.691  11.062  8.1177 -0.5433  1.1004
  4264G12c C01979112   0.713   5.839  11.225 -0.4821  1.4050  1.3292
  4264G12c H00279113   0.762   5.911  11.161  0.9331 -1.7376 -1.2380
  4264G12c H00179114   0.606   5.860  11.214 -1.0648 -2.8535 -3.0772
  4264G12c O00079115   0.773   5.795  11.359  0.6079 -0.4300  2.0105
  4264G12c C01A79116   0.840   5.900  11.425 -0.4043 -2.2429 -0.4471
  4264G12c C02K79117   0.824   5.908  11.570 -1.9213  0.6628 -0.6896
  4264G12c O00G79118   0.808   5.776  11.639 -1.3160 -1.2204  0.0828
  4264G12c C02M79119   0.758   5.813  11.777  0.4388  0.2534  0.2997
  4264G12c H01G79120   0.673   5.879  11.790 -0.2229 -0.4942 -0.1667
  4264G12c H01F79121   0.712   5.738  11.841  4.9011 -4.1226 -1.2639
  4264G12c H01E79122   0.836   5.858  11.838  2.7284 -0.2686 -2.1135
  4264G12c C02J79123   0.844   6.037  11.629 -1.2641  1.2348  0.1273
  4264G12c H01H79124   0.811   6.057  11.730 -3.1361 -3.7161  0.6397
  4264G12c C02I79125   0.876   6.147  11.548  0.5267 -1.2111 -0.4136
  4264G12c C02N79126   0.835   6.269  11.584 -0.1101 -1.3627  0.0686
  4264G12c H01M79127   0.851   6.314  11.681  4.4531  3.5615 -2.6740
  4264G12c C02O79128   0.730   6.329  11.521 -0.2959  0.9902  1.2173
  4264G12c H01L79129   0.690   6.297  11.426 -2.8805  6.1186  0.3972
  4264G12c C02P79130   0.669   6.471  11.556 -1.1830  0.2867  0.5203
  4264G12c H01K79131   0.754   6.535  11.582  0.4232  0.5795 -4.8760
  4264G12c H01J79132   0.665   6.529  11.464  1.6485 -3.3964 -2.0973
  4264G12c O00H79133   0.557   6.503  11.630 -1.6104  1.1447  0.3170
  4264G12c H01I79134   0.546   6.453  11.710  2.1284 -1.9248 -0.9235
  4264G12c C02H79135   0.876   6.118  11.401 -0.8519  1.4133 -1.0011
  4264G12c H01C79136   0.895   6.189  11.322  5.0589 -2.3196 -3.2491
  4264G12c C02L79137   0.895   5.992  11.337  0.6867 -0.8149 -0.6444
  4264G12c H01D79138   0.930   5.985  11.235  6.2357 -6.1188  1.3137
  4264G12c C01379139   0.504   5.724  10.897 -0.9235 -0.6182 -1.8538
  4264G12c H00079140   0.586   5.739  10.829 -0.9789  3.5559 -1.0897
  4264G12c C01479141   0.367   5.734  10.867  1.0006  1.8802  0.0052
  4264G12c C00F79142   0.315   5.771  10.754 -0.2163 -0.6617  1.3737
  4264G12c C00H79143   0.099   5.703  10.816 -0.0780 -0.5320 -2.6517
  4264G12c C00I79144  -0.039   5.700  10.797 -0.9381 -0.5244 -1.1618
  4264G12c C00J79145  -0.114   5.665  10.900 -0.3980  1.1787 -0.9468
  4264G12c C00Z79146   0.239   5.651  11.204 -0.2774 -1.2168 -0.4022
  4264G12c C00Y79147   0.281   5.626  11.332 -0.7650 -0.0604 -0.6147
  4264G12c H00679148   0.377   5.583  11.352 -1.2090 -1.3871 -1.2959
  4264G12c C00X79149   0.181   5.618  11.438 -1.1041 -1.4572  0.6438
  4264G12c O00379150   0.220   5.584  11.576  0.2724  0.1454  0.5548
  4264G12c C01B79151   0.253   5.700  11.640 -0.8239  0.4743  0.5745
  4264G12c H00979152   0.293   5.772  11.569  2.1142 -0.6847  0.9477
  4264G12c H00879153   0.332   5.693  11.715 -2.2803 -3.7648  1.8784
  4264G12c H00779154   0.185   5.743  11.713  2.9815  1.8356  3.5399
  4264G12c C00W79155   0.046   5.628  11.410 -0.3194 -1.5171  0.4373
  4264G12c O00479156  -0.034   5.631  11.524  0.2779  0.0894  2.1122
  4264G12c C01C79157  -0.142   5.728  11.501  0.4846 -0.1159  0.7533
  4264G12c H00A79158  -0.146   5.808  11.573  1.7412 -1.1968  2.0424
  4264G12c C00P79159  -0.212   5.716  11.369 -2.0152  1.1441 -0.4556
  4264G12c C00O79160  -0.352   5.768  11.348  0.4853  0.0151  0.2661
  4264G12c C01D79161  -0.392   5.867  11.436 -0.3827 -0.3173  0.7275
  4264G12c H00S79162  -0.358   5.852  11.537 -0.6819  2.4312  1.2726
  4264G12c C01E79163  -0.508   5.962  11.421 -1.2468  0.7641 -0.0038
  4264G12c O00879164  -0.518   6.076  11.485 -1.3929 -1.2152 -0.2575
  4264G12c C01V79165  -0.422   6.165  11.497 -1.8247  0.8460  0.4668
  4264G12c C01Z79166  -0.439   6.282  11.593  0.4145 -0.8400  1.6888
  4264G12c H00R79167  -0.340   6.306  11.631  2.8566 -4.5457 -1.8145
  4264G12c H00Q79168  -0.450   6.378  11.542  2.8958  0.7984  4.1152
  4264G12c O00979169  -0.543   6.264  11.672  1.3128  0.1614  0.4468
  4264G12c H00P79170  -0.599   6.335  11.647  2.2719  1.1422  1.0784
  4264G12c C01W79171  -0.308   6.149  11.423  2.2589 -0.0312 -0.2969
  4264G12c H00O79172  -0.310   6.080  11.339 -0.0110 -2.5151  1.7064
  4264G12c C01X79173  -0.190   6.246  11.422 -0.4935 -1.2248  0.9792
  4264G12c H00N79174  -0.188   6.262  11.314 -2.6363  1.1162  1.2604
  4264G12c H00M79175  -0.240   6.331  11.467 -0.1641 -1.1392  1.1878
  4264G12c C01Y79176  -0.066   6.215  11.489 -0.5190  1.0455 -1.6573
  4264G12c C02D79177  -0.035   6.248  11.629  0.9653  0.5381  1.4745
  4264G12c H01979178  -0.113   6.300  11.683 -4.5659  1.2052 -6.3400
  4264G12c C02C79179   0.094   6.220  11.678  0.5532 -0.5562  3.1865
  4264G12c H01A79180   0.120   6.223  11.783 -1.0992  6.3785  3.6388
  4264G12c C02B79181   0.185   6.141  11.600  0.8356 -1.5995 -1.1692
  4264G12c O00E79182   0.294   6.085  11.657  0.8592 -1.8118  0.0955
  4264G12c H01B79183   0.325   6.033  11.584  3.3610  1.3421 -1.1823
  4264G12c C02F79184   0.157   6.120  11.457  2.2993 -1.9986  3.0305
  4264G12c O00F79185   0.266   6.069  11.375 -1.1820  0.7653 -0.3626
  4264G12c C02G79186   0.271   6.112  11.241  0.0431  0.7876  1.0920
  4264G12c H01779187   0.374   6.077  11.229  0.6931  0.9799  5.2790
  4264G12c H01679188   0.219   6.058  11.162  1.8999  0.3858  0.0989
  4264G12c H01579189   0.265   6.219  11.221  3.2331  1.6888  4.4549
  4264G12c C02E79190   0.032   6.165  11.403 -1.6716  0.3820  0.3626
  4264G12c H01879191   0.009   6.102  11.318  0.4468  5.1256 -4.0217
  4264G12c C01F79192  -0.588   5.935  11.300  0.7409 -1.7937  0.8095
  4264G12c C01G79193  -0.670   6.038  11.246 -0.6363 -0.4016  0.7456
  4264G12c H00L79194  -0.691   6.124  11.309  3.1246 -1.2741  3.4051
  4264G12c C01H79195  -0.714   6.030  11.107 -1.3956 -0.2662  0.3112
  4264G12c H00B79196  -0.779   6.112  11.077 -5.9189 -2.8380  2.5686
  4264G12c C01I79197  -0.663   5.930  11.030  0.3626 -0.4415  0.5858
  4264G12c C01U79198  -0.563   5.827  11.214 -0.8148  0.2276  0.5511
  4264G12c C00S79199  -0.066   5.645  11.022 -0.8476 -0.0309 -0.9510
  4264G12c C00K79200  -0.260   5.687  10.908  0.2192 -0.3044  0.8881
  4264G12c C00N79201  -0.447   5.763  11.224  0.8847 -0.4353 -0.4231
  4264G12c C00079202  -0.628   5.810  11.084 -1.7725 -0.3634 -0.7407
  4264G12c C01J79203  -0.618   5.923  10.884  1.6280 -0.1427 -1.5372
  4264G12c C01K79204  -0.636   6.023  10.785  1.1486  0.4855  0.5861
  4264G12c C01P79205  -0.750   6.105  10.765  0.6153 -1.2933  0.2918
  4264G12c C01Q79206  -0.878   6.054  10.811 -1.4551 -0.9044 -0.4353
  4264G12c H00G79207  -0.956   6.108  10.863  0.8055  0.7718  1.3212
  4264G12c C01R79208  -0.935   5.966  10.735 -1.4919  1.1658  1.1313
  4264G12c H00F79209  -0.887   5.897  10.666  4.9116  0.8814  5.4901
  4264G12c C01S79210  -1.073   5.917  10.754 -1.0805  0.9344  0.4941
  4264G12c H00E79211  -1.139   5.990  10.708 -0.2223 -1.3804 -4.8192
  4264G12c H00D79212  -1.081   5.820  10.705  1.7270  0.2658  1.2427
  4264G12c O00579213  -1.084   5.893  10.893  0.4935 -0.4923  1.1428
  4264G12c H00C79214  -1.011   5.840  10.924 -1.5776 -1.8270  3.8842
  4264G12c C01O79215  -0.740   6.229  10.690 -0.4276 -1.0797 -0.4603
  4264G12c H00H79216  -0.835   6.277  10.672 -0.6285 -2.2552 -2.8064
  4264G12c C01N79217  -0.619   6.254  10.614 -1.1879  1.1870  1.4821
  4264G12c O00679218  -0.601   6.356  10.514 -1.4783  1.0744  0.3867
  4264G12c C01T79219  -0.711   6.435  10.484  0.4640 -1.0146 -0.1102
  4264G12c H00K79220  -0.756   6.359  10.420  0.3612 -2.8768  2.0965
  4264G12c H00J79221  -0.771   6.502  10.546  6.0027  4.7301 -0.5026
  4264G12c H00I79222  -0.685   6.504  10.403 -0.8083  2.6505  2.4621
  4264G12c C01M79223  -0.530   6.155  10.612  0.0179  0.2911  0.9981
  4264G12c C02079224  -0.298   5.758  10.781 -0.6688  0.9424  0.6326
  4264G12c C02179225  -0.227   5.762  10.663 -1.2653  0.1129 -1.3753
  4264G12c C01L79226  -0.537   6.035  10.685 -0.4679  0.0452 -0.5086
  4264G12c O00779227  -0.429   6.184  10.537 -0.4100  0.6344 -1.4592
  4264G12c C02279228  -0.227   5.890  10.608 -0.4931  1.0056 -0.2296
  4264G12c C02379229  -0.080   5.742  10.674 -0.2812  0.2572  1.8274
  4264G12c C00G79230   0.189   5.767  10.727  0.4208 -1.4663  1.3688
  4264G12c C00E79231   0.402   5.858  10.669 -1.7879  1.0281  0.0181
  4264G12c O00A79232   0.531   5.853  10.674  1.3319 -1.0320 -0.6703
  4264G12c C02479233   0.609   5.787  10.575  1.8586 -0.3814 -2.0055
  4264G12c H00V79234   0.573   5.689  10.606 -1.1261 -0.7225 -6.2252
  4264G12c H00U79235   0.715   5.797  10.600  2.7150 -1.9064 -4.8700
  4264G12c H00T79236   0.587   5.834  10.479  7.1510  2.5198 -1.9746
  4274G12c C00D79237   4.654   8.440  12.179 -0.0350  0.4626 -0.2251
  4274G12c O00B79238   4.645   8.380  12.305  1.8390  1.0570  0.1464
  4274G12c C02579239   4.689   8.252  12.305  0.6507  0.3802  0.8358
  4274G12c C02679240   4.625   8.130  12.238 -0.5283  0.2231  0.4451
  4274G12c H00Y79241   4.722   8.084  12.219 -0.3972  0.7503 -0.1574
  4274G12c H00X79242   4.608   8.117  12.131  3.9934  0.0811 -0.3619
  4274G12c O00C79243   4.527   8.071  12.324  0.2508 -1.0640  1.0116
  4274G12c H00W79244   4.522   8.102  12.413  3.8126 -1.9991  1.6108
  4274G12c C02779245   4.799   8.256  12.397 -1.4325  0.2957  0.1131
  4274G12c O00D79246   4.845   8.364  12.459  1.3277  0.0312 -0.0762
  4274G12c H00Z79247   4.811   8.446  12.426  0.3682 -1.4250 -2.9281
  4274G12c C02879248   4.893   8.138  12.408 -0.6869 -0.6746  0.0142
  4274G12c C02979249   5.012   8.169  12.346  0.5529  0.8917 -1.3088
  4274G12c H01079250   5.049   8.269  12.330  4.3617 -0.0062  1.0344
  4274G12c C02T79251   5.109   8.059  12.345 -0.5278 -0.5607 -0.1516
  4274G12c H01O79252   5.208   8.093  12.317  2.7039 -3.1730  6.9394
  4274G12c C02S79253   5.069   7.932  12.355 -0.5547  2.0863  0.5957
  4274G12c O00J79254   5.151   7.833  12.361 -0.2034  0.0731 -1.1340
  4274G12c H01P79255   5.098   7.758  12.384  0.1451  0.5554  1.4219
  4274G12c C02R79256   4.951   7.912  12.421 -0.1382 -0.1026  0.6825
  4274G12c O00I79257   4.915   7.787  12.458 -0.1513 -0.1279  0.2007
  4274G12c C02Q79258   4.843   7.727  12.345 -1.2549 -0.4203 -0.1678
  4274G12c H01N79259   4.799   7.662  12.420  2.4581 -2.2728  0.5458
  4274G12c H01R79260   4.922   7.663  12.307 -0.6545  0.4848 -0.4633
  4274G12c H01Q79261   4.792   7.794  12.276 -3.5843  1.1535  2.9646
  4274G12c C02A79262   4.844   8.003  12.439  0.5198 -0.0475  0.0321
  4274G12c H01179263   4.749   7.965  12.474 -1.7707  1.4820 -4.1298
  4274G12c C00C79264   4.523   8.497  12.148  0.1903 -1.5937  0.7031
  4274G12c H01279265   4.447   8.485  12.224 -0.5220 -2.8318 -0.1880
  4274G12c C00B79266   4.495   8.567  12.036 -0.1809 -0.9154  0.2041
  4274G12c C00A79267   4.372   8.647  12.005  0.6241  0.4871 -0.8768
  4274G12c C00979268   4.218   8.624  12.016  0.3120  1.3631 -2.0037
  4274G12c C00879269   4.133   8.508  12.059  0.8602  1.6041  0.4582
  4274G12c H01379270   4.193   8.456  12.131  3.1976 -0.3435 -2.7715
  4274G12c C00779271   4.015   8.473  11.989 -1.3232  0.5446  1.2383
  4274G12c H01479272   3.960   8.381  12.003 -1.8216  0.9611  2.0446
  4274G12c C00679273   3.978   8.562  11.885  0.1510  1.1280  0.9227
  4274G12c C00579274   4.060   8.667  11.853 -0.1859  0.5067  0.6381
  4274G12c C00479275   4.012   8.754  11.761 -0.4638  0.7776 -1.1379
  4274G12c C00379276   4.106   8.846  11.699  0.8493 -0.8008 -0.3604
  4274G12c C00279277   4.076   8.921  11.580 -1.0029  1.3667  0.2681
  4274G12c C00179278   4.157   8.998  11.485  0.5167 -0.6678  1.1815
  4274G12c C00M79279   4.270   8.942  11.437  2.8525 -0.6176 -0.9428
  4274G12c C00L79280   4.382   8.920  11.521  0.0442 -0.7840  0.1082
  4274G12c C00R79281   4.500   8.843  11.491  0.9777  2.8286  0.2001
  4274G12c C00Q79282   4.570   8.836  11.372 -0.0655 -0.2878  0.6194
  4274G12c C00V79283   4.693   8.773  11.387 -2.3791  0.5697 -0.0264
  4274G12c C00U79284   4.746   8.716  11.508 -1.2275 -0.0892  0.8994
  4274G12c C00T79285   4.688   8.759  11.621 -1.6317 -1.3658  0.7585
  4274G12c C01679286   4.706   8.687  11.744 -1.6795  0.1143 -0.4437
  4274G12c C01579287   4.808   8.584  11.747  1.7621  0.0510  0.6135
  4274G12c C01079288   4.892   8.566  11.643  0.9486  0.1279 -0.7760
  4274G12c C01179289   4.988   8.468  11.658 -0.8544  0.9820  1.2908
  4274G12c H00579290   5.048   8.474  11.568 -6.1595  3.0592 -2.3246
  4274G12c C01279291   5.002   8.383  11.754  0.0322  0.5098 -0.3670
  4274G12c C01779292   5.104   8.283  11.723  0.6799 -0.7481  1.1310
  4274G12c O00279293   5.237   8.331  11.739  0.5325  0.6899 -0.8730
  4274G12c H00479294   5.299   8.261  11.744 -1.1639 -0.8216 -0.2070
  4274G12c C01879295   5.080   8.176  11.650  0.1124  1.8231  0.5924
  4274G12c O00179296   4.947   8.152  11.612 -0.3400  0.8547  2.7350
  4274G12c H00379297   4.902   8.214  11.668  0.5799  7.5484 -3.1993
  4274G12c C01979298   5.189   8.075  11.591  0.7357  0.6153  0.2157
  4274G12c H00279299   5.150   7.985  11.545 -0.1415  0.1210  1.8824
  4274G12c H00179300   5.235   8.125  11.506 -6.7620 -0.1941 -4.6955
  4274G12c O00079301   5.282   8.077  11.689 -0.0828  0.7731 -0.1587
  4274G12c C01A79302   5.371   7.988  11.675 -2.0517 -0.8534  1.6069
  4274G12c C02K79303   5.509   8.015  11.628 -0.3077  0.5027 -0.3793
  4274G12c O00G79304   5.524   8.149  11.600 -0.6496  0.1003 -0.0382
  4274G12c C02M79305   5.565   8.193  11.479 -1.7637  0.4799  1.3450
  4274G12c H01G79306   5.498   8.166  11.398  1.2776 -5.0465  0.4340
  4274G12c H01F79307   5.672   8.188  11.458 -1.4328  8.3165 -0.2454
  4274G12c H01E79308   5.574   8.300  11.495  5.5229  1.1304 -4.5290
  4274G12c C02J79309   5.596   7.917  11.606 -0.4253 -0.8948  0.8854
  4274G12c H01H79310   5.696   7.947  11.581  0.6942  0.8859  6.6910
  4274G12c C02I79311   5.586   7.796  11.634  0.7861  2.3104  0.3723
  4274G12c C02N79312   5.666   7.698  11.565 -1.3467 -0.0265 -0.4102
  4274G12c H01M79313   5.766   7.659  11.583  0.7883  3.0465 -4.6419
  4274G12c C02O79314   5.612   7.601  11.480 -0.3440  0.2670  1.9123
  4274G12c H01L79315   5.670   7.509  11.478  0.5161  0.7625 -4.2185
  4274G12c C02P79316   5.476   7.596  11.422 -0.9893  0.1090 -0.7274
  4274G12c H01K79317   5.475   7.503  11.366 -4.4212 -0.0905 -0.4633
  4274G12c H01J79318   5.391   7.577  11.488 -0.3052 -0.2634  0.0563
  4274G12c O00H79319   5.432   7.721  11.358 -0.0408  0.0764 -0.4179
  4274G12c H01I79320   5.381   7.764  11.424  0.0563  2.7250 -1.9847
  4274G12c C02H79321   5.450   7.768  11.699 -0.5137 -0.1308  0.5448
  4274G12c H01C79322   5.440   7.669  11.742 -4.3721  1.1234  2.7386
  4274G12c C02L79323   5.339   7.853  11.721  1.3577  1.1672  1.7109
  4274G12c H01D79324   5.247   7.831  11.773  2.1746 -1.8427  1.9437
  4274G12c C01379325   4.905   8.396  11.859 -1.5530  0.9202 -0.1710
  4274G12c H00079326   4.904   8.307  11.920 -2.1504  1.2099  0.2397
  4274G12c C01479327   4.813   8.505  11.863 -0.9633 -0.9667 -0.1788
  4274G12c C00F79328   4.741   8.539  11.980  1.6098  0.4542  0.0846
  4274G12c C00H79329   4.606   8.687  11.848  0.2696 -1.0633  0.7170
  4274G12c C00I79330   4.493   8.762  11.827 -1.6230 -0.0134 -1.9611
  4274G12c C00J79331   4.487   8.840  11.707  1.2372  0.4356 -1.1198
  4274G12c C00Z79332   4.870   8.638  11.515 -0.5386  1.2240 -1.7256
  4274G12c C00Y79333   4.960   8.634  11.410 -1.0775 -0.7472  0.0686
  4274G12c H00679334   5.053   8.579  11.418 -2.5612 -2.8308  5.0864
  4274G12c C00X79335   4.922   8.710  11.285 -1.5488  1.1771 -0.5279
  4274G12c O00379336   5.016   8.714  11.191 -1.2908  0.0564 -1.5503
  4274G12c C01B79337   5.030   8.831  11.090 -0.7522  1.1027  0.3981
  4274G12c H00979338   5.002   8.927  11.133  3.0250  1.7145  1.5938
  4274G12c H00879339   5.138   8.834  11.082  0.0660 -5.4767  5.1269
  4274G12c H00779340   4.983   8.787  11.002 -5.4624  3.1971  1.6665
  4274G12c C00W79341   4.791   8.768  11.267 -0.0373  1.0194  2.5260
  4274G12c O00479342   4.752   8.823  11.156 -0.5851 -1.6412  1.4754
  4274G12c C01C79343   4.619   8.857  11.140  0.7496 -1.1673  0.8648
  4274G12c H00A79344   4.579   8.831  11.043  2.8887  1.4235 -0.8075
  4274G12c C00P79345   4.521   8.860  11.242  1.6278  0.5529  0.3450
  4274G12c C00O79346   4.382   8.880  11.213 -1.7666 -0.7036  1.3400
  4274G12c C01D79347   4.334   8.824  11.084  0.5118 -1.1034 -1.3080
  4274G12c H00S79348   4.382   8.786  10.994 -0.6164  2.4781 -3.4977
  4274G12c C01E79349   4.193   8.805  11.072 -0.8271 -1.1783  0.4449
  4274G12c O00879350   4.138   8.771  10.952 -0.2252  0.1642  1.2935
  4274G12c C01V79351   4.181   8.651  10.890  0.3901  0.3658  0.5295
  4274G12c C01Z79352   4.207   8.661  10.740  0.8813 -1.1369  0.8148
  4274G12c H00R79353   4.200   8.762  10.700 -2.3470 -1.4862  0.3704
  4274G12c H00Q79354   4.310   8.654  10.704 -1.5708 -3.9215 -6.4153
  4274G12c O00979355   4.115   8.596  10.667  0.0193  0.4984 -0.7855
  4274G12c H00P79356   4.023   8.613  10.682 -0.4570 -0.5808 -2.3860
  4274G12c C01W79357   4.180   8.531  10.948  0.8801 -0.3406  1.3683
  4274G12c H00O79358   4.180   8.449  10.877  1.3734  2.2543 -1.7745
  4274G12c C01X79359   4.131   8.499  11.081  0.0188  0.0762  0.6669
  4274G12c H00N79360   4.049   8.557  11.124 -0.5173  2.8635 -3.8212
  4274G12c H00M79361   4.042   8.442  11.052  1.6173 -0.0762 -4.4696
  4274G12c C01Y79362   4.238   8.469  11.165  0.1132  1.1987  1.7833
  4274G12c C02D79363   4.243   8.531  11.284 -1.2350  0.1803  0.8569
  4274G12c H01979364   4.159   8.576  11.335 -2.4508  0.1194 -1.0314
  4274G12c C02C79365   4.362   8.536  11.371 -0.3902  0.9799 -0.6753
  4274G12c H01A79366   4.347   8.608  11.450  0.9387  0.8776 -0.3229
  4274G12c C02B79367   4.465   8.438  11.336 -1.3199  0.9468 -0.7503
  4274G12c O00E79368   4.578   8.453  11.411  0.6382  1.6888 -1.0099
  4274G12c H01B79369   4.593   8.375  11.463  3.6002 -0.8308 -5.3157
  4274G12c C02F79370   4.457   8.375  11.216  0.9278  2.0786 -0.0116
  4274G12c O00F79371   4.565   8.297  11.168 -0.4681  0.0690 -0.0533
  4274G12c C02G79372   4.551   8.164  11.166  0.7762  0.3442 -0.5300
  4274G12c H01779373   4.638   8.130  11.110  0.1323 -1.1575 -0.6382
  4274G12c H01679374   4.483   8.148  11.082 -0.9952 -2.5934  1.3805
  4274G12c H01579375   4.492   8.101  11.232 -3.9269  7.2671  2.5251
  4274G12c C02E79376   4.357   8.402  11.123  0.3431 -0.8749 -1.1126
  4274G12c H01879377   4.375   8.362  11.024 -1.9422  4.4611 -3.8836
  4274G12c C01F79378   4.107   8.846  11.176 -1.8806  0.3068  1.5754
  4274G12c C01G79379   3.971   8.823  11.174 -0.5424  0.7293 -0.7869
  4274G12c H00L79380   3.932   8.766  11.091 -1.7137 -2.3891  1.7721
  4274G12c C01H79381   3.894   8.855  11.289  1.3898  0.8350  1.0541
  4274G12c H00B79382   3.799   8.804  11.302  0.8212  2.4159  3.3255
  4274G12c C01I79383   3.948   8.935  11.396 -1.9086  1.5058 -0.6216
  4274G12c C01U79384   4.156   8.929  11.271  0.1343  0.4220  0.9812
  4274G12c C00S79385   4.551   8.808  11.605  1.5674 -0.9632  0.9336
  4274G12c C00K79386   4.359   8.892  11.652 -0.6334 -0.5872 -0.3814
  4274G12c C00N79387   4.285   8.923  11.304  1.1854 -1.9033 -0.8237
  4274G12c C00079388   4.079   8.999  11.359 -1.4311 -0.9508  0.4517
  4274G12c C01J79389   3.941   8.922  11.529  0.4313 -0.0780 -0.1511
  4274G12c C01K79390   3.833   8.837  11.599 -1.0693  0.7963 -2.3869
  4274G12c C01P79391   3.696   8.833  11.570  0.9681 -1.3309  0.4098
  4274G12c C01Q79392   3.634   8.932  11.465  0.5609  0.7595 -1.1616
  4274G12c H00G79393   3.635   9.038  11.483  0.0961  0.3605  1.4225
  4274G12c C01R79394   3.555   8.868  11.371  0.3008 -0.2413  1.5001
  4274G12c H00F79395   3.555   8.761  11.358 -4.1808 -0.0802 -0.8706
  4274G12c C01S79396   3.482   8.954  11.260  1.0978 -0.0639 -1.1723
  4274G12c H00E79397   3.557   8.989  11.190 -1.6030  2.0375 -3.1201
  4274G12c H00D79398   3.415   8.879  11.217  4.0081 -0.7587 -4.7337
  4274G12c O00579399   3.411   9.056  11.316  0.5924  0.3648  0.3424
  4274G12c H00C79400   3.463   9.093  11.386  2.4465 -1.1534 -0.2151
  4274G12c C01O79401   3.609   8.751  11.650  0.0799  1.2583  1.5006
  4274G12c H00H79402   3.507   8.774  11.624  0.7139  7.2830  3.4438
  4274G12c C01N79403   3.671   8.659  11.726  1.2625  1.5405  0.8642
  4274G12c O00679404   3.594   8.577  11.797  0.9684 -0.1735  0.8459
  4274G12c C01T79405   3.602   8.432  11.768 -0.2537 -0.3722  0.9214
  4274G12c H00K79406   3.507   8.411  11.817 -0.4013  2.5308  1.9735
  4274G12c H00J79407   3.694   8.383  11.800 -0.7373 -1.6524  0.3372
  4274G12c H00I79408   3.613   8.423  11.660  0.9365 -1.8645  1.1556
  4274G12c C01M79409   3.804   8.654  11.766  1.1133  0.1336  1.6149
  4274G12c C02079410   4.252   8.830  11.732  0.2686 -0.7861 -0.1882
  4274G12c C02179411   4.267   8.782  11.865  0.3737  0.0075  0.1500
  4274G12c C01L79412   3.888   8.743  11.710 -0.5772  1.0499  0.9472
  4274G12c O00779413   3.848   8.550  11.844 -1.4597  0.7285 -0.0403
  4274G12c C02279414   4.176   8.695  11.915 -0.0912  1.3178 -1.1050
  4274G12c C02379415   4.391   8.753  11.925  0.6958  1.2358  1.6910
  4274G12c C00G79416   4.604   8.594  11.953  0.8088 -1.2799  0.0664
  4274G12c C00E79417   4.766   8.456  12.095  1.8461  0.1672  0.7761
  4274G12c O00A79418   4.893   8.418  12.148 -0.6438 -0.0895  2.0298
  4274G12c C02479419   4.957   8.543  12.177 -1.2627  0.3312  0.6569
  4274G12c H00V79420   4.972   8.629  12.111 -4.4610  2.2697  2.3334
  4274G12c H00U79421   4.904   8.578  12.266 -0.4077  3.5495 -0.0200
  4274G12c H00T79422   5.061   8.510  12.183  0.5858  5.8293  2.3556
  4284G12c C00D79423   6.202  11.298   4.686 -0.2452  1.1724 -0.2535
  4284G12c O00B79424   6.128  11.256   4.573  0.7876 -1.1019  0.9772
  4284G12c C02579425   6.178  11.255   4.453  0.2463  0.1435 -1.3690
  4284G12c C02679426   6.118  11.128   4.381  0.7098 -0.3768  0.1927
  4284G12c H00Y79427   6.011  11.104   4.377 -0.0252  0.9062  6.4321
  4284G12c H00X79428   6.141  11.042   4.443 -5.0518  0.6576  4.2401
  4284G12c O00C79429   6.171  11.127   4.243 -0.9029  0.7704 -0.2325
  4284G12c H00W79430   6.114  11.099   4.173  1.4799 -0.4725 -1.7497
  4284G12c C02779431   6.258  11.355   4.409  1.8383 -0.8717  1.1108
  4284G12c O00D79432   6.315  11.359   4.288  0.8827  0.6438 -0.1994
  4284G12c H00Z79433   6.288  11.269   4.275  0.9771  0.4758  0.7426
  4284G12c C02879434   6.214  11.484   4.448  0.6329 -0.3650 -1.5053
  4284G12c C02979435   6.301  11.588   4.472 -0.0048 -1.2441  0.0160
  4284G12c H01079436   6.405  11.560   4.465 -1.1803 -7.1840  2.8930
  4284G12c C02T79437   6.246  11.712   4.510 -2.2258  1.3600 -2.2541
  4284G12c H01O79438   6.319  11.788   4.531  4.5840 -2.5100 -9.2147
  4284G12c C02S79439   6.115  11.749   4.520  0.1684 -0.2352 -0.5255
  4284G12c O00J79440   6.072  11.875   4.556 -0.3100  1.5547  1.2771
  4284G12c H01P79441   5.979  11.887   4.545  0.1578  1.0616 -4.7499
  4284G12c C02R79442   6.030  11.649   4.474  0.2154  0.5596  2.7931
  4284G12c O00I79443   5.892  11.696   4.463  0.6827 -0.7550  1.0400
  4284G12c C02Q79444   5.793  11.615   4.526 -0.9495  0.1490  2.3272
  4284G12c H01N79445   5.705  11.646   4.470  3.2402 -0.2201 -4.9613
  4284G12c H01R79446   5.748  11.664   4.613 -0.4375  1.4566  1.8690
  4284G12c H01Q79447   5.742  11.523   4.496 -1.4884  1.2511 -0.2823
  4284G12c C02A79448   6.081  11.524   4.427  1.8598 -2.2291  0.9111
  4284G12c H01179449   6.021  11.466   4.358 -0.5504  3.1858 -1.8431
  4284G12c C00C79450   6.343  11.296   4.694  1.1643  1.2005 -1.8930
  4284G12c H01279451   6.397  11.218   4.643 -0.2492 -1.6883  0.8588
  4284G12c C00B79452   6.417  11.389   4.775  0.1947 -0.1644  1.4103
  4284G12c C00A79453   6.550  11.412   4.773 -0.7523  0.0280  0.3175
  4284G12c C00979454   6.651  11.330   4.727  0.6289  0.7645  0.9692
  4284G12c C00879455   6.649  11.211   4.662 -1.4374  1.2576 -0.4769
  4284G12c H01379456   6.571  11.182   4.593 -1.1962  2.5099 -1.2866
  4284G12c C00779457   6.767  11.125   4.673  0.2792 -1.1382  0.8001
  4284G12c H01479458   6.765  11.022   4.640  1.4848 -0.5486 -1.2395
  4284G12c C00679459   6.865  11.152   4.773  0.6303 -1.0166 -0.9263
  4284G12c C00579460   6.869  11.279   4.822  0.2040  0.4505  0.0586
  4284G12c C00479461   6.938  11.302   4.957  0.4759  0.1501  0.0076
  4284G12c C00379462   6.904  11.416   5.034 -0.3783 -0.1842  1.0649
  4284G12c C00279463   7.004  11.451   5.132  0.6013  0.3712  0.0687
  4284G12c C00179464   7.015  11.539   5.249  1.6331 -0.3574 -0.2474
  4284G12c C00M79465   6.896  11.621   5.290  0.5434 -0.0198 -0.7314
  4284G12c C00L79466   6.774  11.646   5.223  1.2247 -0.0741 -0.1472
  4284G12c C00R79467   6.649  11.678   5.282  1.0025  0.6562  1.9672
  4284G12c C00Q79468   6.594  11.687   5.415 -1.0228  1.2059 -0.6284
  4284G12c C00V79469   6.449  11.725   5.413 -1.5989  0.6465 -0.4068
  4284G12c C00U79470   6.359  11.699   5.298 -1.3005  0.7226 -0.7521
  4284G12c C00T79471   6.416  11.686   5.174  0.2463 -0.8105 -0.4858
  4284G12c C01679472   6.343  11.616   5.067 -0.9081  1.1613 -1.3058
  4284G12c C01579473   6.208  11.592   5.092  1.0404  0.5347 -0.9388
  4284G12c C01079474   6.154  11.659   5.209 -0.4322 -1.4881 -1.7062
  4284G12c C01179475   6.010  11.655   5.227  0.5649  0.8346  1.0015
  4284G12c H00579476   5.974  11.728   5.298  2.0490  2.7434 -0.1514
  4284G12c C01279477   5.928  11.574   5.140  1.1264  0.0154  0.5687
  4284G12c C01779478   5.795  11.573   5.137  1.9938 -0.7086 -0.9320
  4284G12c O00279479   5.722  11.676   5.071  0.3309  0.7099  0.2264
  4284G12c H00479480   5.668  11.657   4.996 -5.2178 -2.8979  4.7283
  4284G12c C01879481   5.749  11.495   5.224  0.9023  0.5101 -0.5570
  4284G12c O00179482   5.618  11.493   5.235  0.4544 -2.1119 -1.1879
  4284G12c H00379483   5.588  11.582   5.241  4.3160 -0.8722  1.8860
  4284G12c C01979484   5.831  11.419   5.323  0.8307  2.2416 -1.2943
  4284G12c H00279485   5.897  11.360   5.260 -2.4169 -4.3600  0.9500
  4284G12c H00179486   5.884  11.476   5.400  1.0911  0.3902 -0.0601
  4284G12c O00079487   5.744  11.323   5.407  1.7719 -0.7796  0.2618
  4284G12c C01A79488   5.754  11.194   5.476 -0.5786 -0.7707  0.7251
  4284G12c C02K79489   5.648  11.103   5.521  0.4269  0.5492 -1.7684
  4284G12c O00G79490   5.523  11.137   5.512  0.7724 -0.5141  0.2588
  4284G12c C02M79491   5.475  11.061   5.407  0.9725 -0.5429  1.4109
  4284G12c H01G79492   5.441  10.965   5.443  5.8826 -0.3992  7.2087
  4284G12c H01F79493   5.547  11.055   5.325  1.2346 -6.1052  1.9123
  4284G12c H01E79494   5.391  11.128   5.390 -3.5987 -5.3075  3.8324
  4284G12c C02J79495   5.686  10.993   5.622  1.6565  0.5005 -0.4306
  4284G12c H01H79496   5.605  10.962   5.686  0.3358  5.4328  0.5191
  4284G12c C02I79497   5.825  10.972   5.642 -0.3054 -0.4594 -1.0874
  4284G12c C02N79498   5.855  10.857   5.725 -0.3653  2.6758  2.3842
  4284G12c H01M79499   5.858  10.851   5.833  3.4616  0.4146  2.2768
  4284G12c C02O79500   5.869  10.727   5.669  0.6261  0.7313  1.4820
  4284G12c H01L79501   5.858  10.714   5.562 -2.9372 -2.7919  2.1665
  4284G12c C02P79502   5.882  10.584   5.733  1.0185  0.4708 -0.7742
  4284G12c H01K79503   5.879  10.507   5.655 -7.0725  1.8537 -2.2679
  4284G12c H01J79504   5.970  10.577   5.796 -0.2776  3.8142  1.5494
  4284G12c O00H79505   5.780  10.572   5.830  1.4244 -0.7493  0.5102
  4284G12c H01I79506   5.806  10.578   5.921  3.9224 -1.2457 -0.1390
  4284G12c C02H79507   5.925  11.062   5.602  0.7943 -0.6533 -0.8245
  4284G12c H01C79508   6.031  11.047   5.589  1.2660  4.3444 -4.4635
  4284G12c C02L79509   5.878  11.162   5.525 -0.5001 -0.6459 -0.0001
  4284G12c H01D79510   5.965  11.195   5.472 -1.6351  6.4795  2.1262
  4284G12c C01379511   5.988  11.504   5.038  0.0170 -0.0719  0.3753
  4284G12c H00079512   5.916  11.444   4.985 -0.2476  1.1899 -0.7150
  4284G12c C01479513   6.133  11.519   5.000 -0.8261 -1.7278 -0.0045
  4284G12c C00F79514   6.210  11.444   4.902 -0.6986 -0.1611 -0.0749
  4284G12c C00H79515   6.406  11.554   4.963  0.0674 -1.7285  0.5095
  4284G12c C00I79516   6.545  11.572   4.947  0.9939  1.9517  0.6435
  4284G12c C00J79517   6.626  11.632   5.051  1.1660  2.9326  0.9381
  4284G12c C00Z79518   6.222  11.718   5.314 -0.3749  0.8530  0.7603
  4284G12c C00Y79519   6.164  11.754   5.433  0.3095  1.0461 -1.8858
  4284G12c H00679520   6.068  11.754   5.483  3.1022  1.0224  3.8752
  4284G12c C00X79521   6.250  11.802   5.534  0.0744 -0.5336  0.2283
  4284G12c O00379522   6.184  11.845   5.645  1.4617  0.2295  0.6498
  4284G12c C01B79523   6.209  11.981   5.659 -1.2469 -0.1268  0.6406
  4284G12c H00979524   6.255  12.008   5.754 -2.5807 -3.2516  2.2547
  4284G12c H00879525   6.113  12.029   5.644 -3.3801 -4.2064  0.5529
  4284G12c H00779526   6.292  12.016   5.597 -0.9968  3.3104  2.7278
  4284G12c C00W79527   6.384  11.775   5.523 -1.8838 -0.1441 -0.9562
  4284G12c O00479528   6.452  11.768   5.643 -2.2355  1.1041  0.2549
  4284G12c C01C79529   6.575  11.700   5.651  0.6237 -0.3745  0.6173
  4284G12c H00A79530   6.588  11.652   5.746  0.9727  2.0918  1.8514
  4284G12c C00P79531   6.661  11.658   5.539 -1.0340 -0.2317 -0.0848
  4284G12c C00O79532   6.785  11.600   5.548  0.6415 -1.2001 -0.6012
  4284G12c C01D79533   6.822  11.537   5.662 -0.2262 -1.5187  0.8769
  4284G12c H00S79534   6.771  11.545   5.757 -0.7266  7.2634  0.2830
  4284G12c C01E79535   6.897  11.406   5.670 -1.1656  0.9878 -0.1565
  4284G12c O00879536   6.870  11.314   5.769 -0.4512  0.8294  2.0556
  4284G12c C01V79537   6.744  11.258   5.786 -0.3738  0.1655  2.3204
  4284G12c C01Z79538   6.647  11.324   5.876  1.5406  0.3704  1.0776
  4284G12c H00R79539   6.655  11.427   5.909  2.2412  2.9279 -6.1154
  4284G12c H00Q79540   6.562  11.321   5.807  3.4118 -0.5870 -1.2789
  4284G12c O00979541   6.627  11.237   5.982 -0.2572 -0.5124  2.2976
  4284G12c H00P79542   6.699  11.252   6.042  3.4172 -3.6916 -1.0742
  4284G12c C01W79543   6.720  11.130   5.741  0.8600 -0.0107  0.7360
  4284G12c H00O79544   6.622  11.091   5.767 -0.3855 -5.3118 -9.1749
  4284G12c C01X79545   6.798  11.038   5.656 -0.5442 -0.2532  0.8070
  4284G12c H00N79546   6.894  11.088   5.640  0.8612  0.2332  8.7264
  4284G12c H00M79547   6.748  11.025   5.560 -2.7740 -3.2733  2.3164
  4284G12c C01Y79548   6.812  10.913   5.693  0.0343  1.6067  0.8235
  4284G12c C02D79549   6.925  10.866   5.762 -1.9828 -1.0944  1.1280
  4284G12c H01979550   7.014  10.924   5.780  1.0712 -4.3878 -2.5050
  4284G12c C02C79551   6.971  10.731   5.780  1.6448  0.5482 -0.2270
  4284G12c H01A79552   7.061  10.712   5.836  1.5478  1.5969  0.2931
  4284G12c C02B79553   6.883  10.632   5.732  0.5481 -0.5602 -0.3357
  4284G12c O00E79554   6.914  10.505   5.746  0.2942  0.4043  0.7481
  4284G12c H01B79555   7.003  10.482   5.725 -0.9005 -0.1530 -4.2485
  4284G12c C02F79556   6.747  10.667   5.685 -1.4858  0.5369  1.2922
  4284G12c O00F79557   6.651  10.584   5.634 -0.0556  1.8747 -0.4004
  4284G12c C02G79558   6.663  10.443   5.642  1.8088 -1.4496  0.0069
  4284G12c H01779559   6.741  10.392   5.585  0.8520 -4.4664  1.2918
  4284G12c H01679560   6.653  10.388   5.736 -7.1995  4.0136  2.8765
  4284G12c H01579561   6.564  10.421   5.604  0.7410  1.4741  0.8903
  4284G12c C02E79562   6.715  10.803   5.668 -0.3038 -0.5211  0.9768
  4284G12c H01879563   6.613  10.838   5.680 -1.9393 -5.3291  2.0389
  4284G12c C01F79564   6.978  11.386   5.561  0.9378  2.1906 -0.5165
  4284G12c C01G79565   7.057  11.264   5.545 -0.1945 -0.5079  0.5711
  4284G12c H00L79566   7.061  11.208   5.637 -7.6319 -3.1492 -0.4302
  4284G12c C01H79567   7.109  11.229   5.416  0.8691  0.4861 -1.6306
  4284G12c H00B79568   7.141  11.132   5.382  0.9180 -0.3594  0.7351
  4284G12c C01I79569   7.106  11.335   5.318 -0.5233 -0.6503  0.8606
  4284G12c C01U79570   7.003  11.487   5.457  0.5275 -0.7297 -1.2074
  4284G12c C00S79571   6.557  11.684   5.161 -0.9138 -1.0714 -1.6730
  4284G12c C00K79572   6.756  11.602   5.086  0.0678  0.2276  1.3392
  4284G12c C00N79573   6.896  11.586   5.441  0.2894 -0.4579  0.3729
  4284G12c C00079574   7.076  11.466   5.344 -0.6063  0.6714 -0.3325
  4284G12c C01J79575   7.091  11.341   5.176 -0.6061  0.4929  0.4346
  4284G12c C01K79576   7.131  11.227   5.100  0.1651 -0.1015  0.4952
  4284G12c C01P79577   7.223  11.119   5.134  1.4011 -0.4456  0.2243
  4284G12c C01Q79578   7.333  11.152   5.226 -0.7359 -0.9142 -1.1347
  4284G12c H00G79579   7.326  11.188   5.328  2.6126 10.4307 -4.1487
  4284G12c C01R79580   7.457  11.152   5.181 -0.5361 -0.3988 -0.7909
  4284G12c H00F79581   7.470  11.143   5.074  0.2722 -1.3326 -0.6236
  4284G12c C01S79582   7.591  11.185   5.248  0.6829 -1.4655  0.3714
  4284G12c H00E79583   7.657  11.231   5.175  2.2941 -4.3835 -0.0735
  4284G12c H00D79584   7.557  11.235   5.339 -1.9436  2.1275 -2.4589
  4284G12c O00579585   7.608  11.055   5.279 -0.0526 -0.9636 -0.6082
  4284G12c H00C79586   7.564  11.029   5.358  0.6421 -0.0845  0.0867
  4284G12c C01O79587   7.243  11.022   5.034  0.0978  2.3954 -0.6783
  4284G12c H00H79588   7.326  10.955   5.049  1.1992  3.7650 -0.5246
  4284G12c C01N79589   7.167  11.016   4.924  0.3010 -0.5073 -0.5712
  4284G12c O00679590   7.206  10.920   4.833 -0.7353  0.5711  2.4021
  4284G12c C01T79591   7.281  10.973   4.722  0.5823 -0.5451  0.6599
  4284G12c H00K79592   7.238  10.971   4.622 -4.3198  1.7277  2.5661
  4284G12c H00J79593   7.342  10.898   4.672 -1.3383 -1.3903 -0.4739
  4284G12c H00I79594   7.338  11.066   4.729  0.5141 -0.5948  2.0251
  4284G12c C01M79595   7.049  11.084   4.899 -0.4310  0.5789 -1.5059
  4284G12c C02079596   6.809  11.505   4.998  2.0784  0.3793  0.6680
  4284G12c C02179597   6.739  11.479   4.879 -0.5830  0.5686  0.4447
  4284G12c C01L79598   7.037  11.206   4.991  0.1561  0.7355  0.0807
  4284G12c O00779599   6.969  11.075   4.780 -0.4325 -0.3558 -1.3129
  4284G12c C02279600   6.780  11.380   4.796 -1.1910  0.2164 -0.1459
  4284G12c C02379601   6.604  11.511   4.840 -0.9530  0.1361  2.3524
  4284G12c C00G79602   6.343  11.465   4.872 -0.0970 -0.1713  0.0495
  4284G12c C00E79603   6.145  11.361   4.805 -0.2503 -2.3583 -0.9636
  4284G12c O00A79604   6.022  11.330   4.804 -0.4499 -0.6579  2.0257
  4284G12c C02479605   5.985  11.219   4.868 -0.8694 -0.0132 -0.1905
  4284G12c H00V79606   6.011  11.217   4.974  5.7702 -4.8904 -1.5771
  4284G12c H00U79607   6.022  11.125   4.826 -2.0442 -1.7858  2.5946
  4284G12c H00T79608   5.877  11.212   4.856 -0.6468  0.1398 -2.3128
  4294G12c C00D79609   3.453   3.824  12.614  1.0269 -0.2839  0.6010
  4294G12c O00B79610   3.488   3.862  12.490  0.8919  0.5061  0.3184
  4294G12c C02579611   3.465   3.994  12.439  0.9664  1.3263  2.0299
  4294G12c C02679612   3.509   3.982  12.282 -0.0427  2.0843  0.2476
  4294G12c H00Y79613   3.616   3.992  12.261 -0.1319 12.1131  2.3180
  4294G12c H00X79614   3.470   4.066  12.225 -4.9218 -2.7098 -4.0937
  4294G12c O00C79615   3.468   3.871  12.197  0.1042  1.1206 -0.6974
  4294G12c H00W79616   3.397   3.844  12.252  3.6837 -0.1570  3.6044
  4294G12c C02779617   3.410   4.110  12.492 -1.2961 -0.0323 -1.0208
  4294G12c O00D79618   3.346   4.096  12.612 -0.9374  0.8526 -2.0066
  4294G12c H00Z79619   3.348   4.190  12.616  5.4277  1.2819 -7.1825
  4294G12c C02879620   3.400   4.238  12.430 -0.7262 -0.0001 -2.8316
  4294G12c C02979621   3.499   4.342  12.431  0.3713 -1.1681 -0.0602
  4294G12c H01079622   3.578   4.329  12.502  1.2155 -1.2147 -0.9994
  4294G12c C02T79623   3.484   4.468  12.369 -1.1697 -0.1644  0.5227
  4294G12c H01O79624   3.535   4.550  12.416  1.6830 -1.5338 -0.0795
  4294G12c C02S79625   3.391   4.486  12.265  1.1275 -1.4085  0.7553
  4294G12c O00J79626   3.351   4.602  12.210  0.5342 -1.7285 -0.4660
  4294G12c H01P79627   3.269   4.570  12.175  2.3383 -0.6788 -6.1625
  4294G12c C02R79628   3.289   4.383  12.253  0.0520  1.5014 -1.4342
  4294G12c O00I79629   3.165   4.401  12.176  0.6444 -0.9439 -1.2736
  4294G12c C02Q79630   3.049   4.419  12.271  0.7326 -1.1726 -0.2607
  4294G12c H01N79631   3.056   4.495  12.348 -5.9341 -0.2831 -0.2640
  4294G12c H01R79632   3.044   4.331  12.336 -3.8330 -1.8917 -1.3735
  4294G12c H01Q79633   2.958   4.451  12.220  4.4505  3.6530 -4.4322
  4294G12c C02A79634   3.293   4.264  12.340 -0.8082 -0.7048 -0.8944
  4294G12c H01179635   3.202   4.209  12.361 -3.6489  4.9172  2.9143
  4294G12c C00C79636   3.513   3.876  12.718 -0.1373 -2.1732 -1.7495
  4294G12c H01279637   3.571   3.962  12.690  1.8790 -1.4947  3.8213
  4294G12c C00B79638   3.504   3.831  12.849 -1.4673 -0.6285 -2.4135
  4294G12c C00A79639   3.601   3.863  12.939  0.3864 -0.0668  0.5158
  4294G12c C00979640   3.734   3.817  12.897  0.5636  0.8782 -1.3355
  4294G12c C00879641   3.787   3.781  12.784 -0.2055  0.6745 -1.3518
  4294G12c H01379642   3.738   3.817  12.695 -5.1567  4.1498  2.4961
  4294G12c C00779643   3.911   3.711  12.792  1.2587  0.7126  0.7925
  4294G12c H01479644   3.953   3.697  12.694 -2.8010  5.1709 -1.8016
  4294G12c C00679645   3.987   3.667  12.905 -0.0711 -0.8851 -0.2592
  4294G12c C00579646   3.909   3.695  13.019 -1.9941  0.3807 -1.1976
  4294G12c C00479647   3.949   3.641  13.145  0.1738 -1.9475  0.0614
  4294G12c C00379648   3.847   3.617  13.239 -0.2034 -0.9461 -0.7334
  4294G12c C00279649   3.886   3.533  13.361  0.9402  0.6277  1.3513
  4294G12c C00179650   3.834   3.493  13.486 -0.3752 -0.8842  0.5693
  4294G12c C00M79651   3.683   3.455  13.478 -0.1072 -1.0439 -0.7016
  4294G12c C00L79652   3.588   3.539  13.421 -2.5547 -1.3740  1.0949
  4294G12c C00R79653   3.459   3.479  13.374 -0.0870  0.3519 -0.7101
  4294G12c C00Q79654   3.383   3.358  13.403  1.9462 -0.6729  0.6350
  4294G12c C00V79655   3.276   3.321  13.314  0.0696  0.5988  0.3470
  4294G12c C00U79656   3.255   3.394  13.195 -0.7096  0.8796  1.0992
  4294G12c C00T79657   3.321   3.511  13.171 -0.5029  1.9052  0.4251
  4294G12c C01679658   3.313   3.587  13.052  1.4522 -0.5192 -0.4823
  4294G12c C01579659   3.225   3.542  12.957  1.8498 -1.1199 -1.1378
  4294G12c C01079660   3.143   3.427  12.984  1.0843  1.5735 -1.6729
  4294G12c C01179661   3.034   3.400  12.886 -0.3864  1.0179 -0.5721
  4294G12c H00579662   2.936   3.359  12.903  0.1326 -2.2634 -4.7981
  4294G12c C01279663   3.048   3.449  12.758  0.7093 -0.8778  0.8354
  4294G12c C01779664   2.919   3.459  12.688 -0.3833  1.1691  1.7270
  4294G12c O00279665   2.858   3.331  12.653  0.3950 -1.5305 -0.4711
  4294G12c H00479666   2.767   3.329  12.628  0.6342 -2.2763 -1.2703
  4294G12c C01879667   2.849   3.581  12.677 -0.7019  0.1734  0.8467
  4294G12c O00179668   2.919   3.682  12.730  1.6295 -1.4470  0.8151
  4294G12c H00379669   2.976   3.636  12.791  2.9649  5.1353  5.0211
  4294G12c C01979670   2.703   3.596  12.667  0.2451 -1.5617  2.7024
  4294G12c H00279671   2.694   3.543  12.762 -0.3788 -2.1513  2.3190
  4294G12c H00179672   2.677   3.702  12.668  3.8159 -0.3658 -3.6417
  4294G12c O00079673   2.656   3.541  12.544  2.3516 -0.0672 -0.4137
  4294G12c C01A79674   2.623   3.629  12.440 -1.1848  0.6761  0.5894
  4294G12c C02K79675   2.506   3.686  12.421  0.6932 -0.8144 -0.8135
  4294G12c O00G79676   2.392   3.644  12.481 -0.5815  1.7706  0.7128
  4294G12c C02M79677   2.312   3.733  12.567 -2.2206 -0.7241  0.0558
  4294G12c H01G79678   2.329   3.841  12.573 -3.4250 -0.2386 -3.7269
  4294G12c H01F79679   2.218   3.718  12.515 -1.3468 -3.6484 -0.7882
  4294G12c H01E79680   2.314   3.659  12.647 -2.0099 -3.5150 -2.4307
  4294G12c C02J79681   2.484   3.777  12.316  0.3565 -0.3637 -2.2945
  4294G12c H01H79682   2.381   3.811  12.316 -0.9462 -3.9443  0.7123
  4294G12c C02I79683   2.588   3.841  12.256  1.1249  0.9735  0.3101
  4294G12c C02N79684   2.546   3.948  12.159  0.9961  1.2467  1.3866
  4294G12c H01M79685   2.441   3.970  12.174 -1.2563  2.7803-11.2933
  4294G12c C02O79686   2.626   4.021  12.077 -1.5432 -1.3208  0.8842
  4294G12c H01L79687   2.729   3.988  12.071 -1.7935 -1.6501 -2.7674
  4294G12c C02P79688   2.567   4.121  11.963  0.1134 -0.7795  0.4530
  4294G12c H01K79689   2.636   4.205  11.948  0.9181 -1.3065  1.1320
  4294G12c H01J79690   2.569   4.067  11.868  1.8240  0.9470 -0.5387
  4294G12c O00H79691   2.446   4.180  12.007 -0.3033  1.3930  2.1686
  4294G12c H01I79692   2.386   4.175  11.933 -2.7361  1.8917  4.0235
  4294G12c C02H79693   2.717   3.791  12.279 -0.8244 -1.2217 -0.2781
  4294G12c H01C79694   2.786   3.855  12.227 -0.1398 -3.0274 -1.6756
  4294G12c C02L79695   2.737   3.681  12.363 -1.2469 -0.9773 -0.3141
  4294G12c H01D79696   2.842   3.671  12.387  0.8934  0.3197 -7.9523
  4294G12c C01379697   3.162   3.516  12.721  1.2340 -0.0849 -0.5439
  4294G12c H00079698   3.162   3.510  12.613 -0.1550  0.8855 -0.6089
  4294G12c C01479699   3.237   3.584  12.817  1.1296 -0.7030  0.4408
  4294G12c C00F79700   3.331   3.676  12.786 -0.5019 -0.0022 -0.0984
  4294G12c C00H79701   3.402   3.700  13.031 -0.0097  0.9573  0.4127
  4294G12c C00I79702   3.481   3.738  13.125  0.2694  0.8946 -0.3681
  4294G12c C00J79703   3.492   3.658  13.249  0.6985 -0.2391  0.3821
  4294G12c C00Z79704   3.163   3.355  13.091  0.9633 -1.3308  0.4045
  4294G12c C00Y79705   3.110   3.229  13.107 -0.3344 -0.8445 -1.8729
  4294G12c H00679706   3.061   3.188  13.020 -6.4006  1.8064  0.0502
  4294G12c C00X79707   3.134   3.149  13.210  1.9937 -0.2382  0.0312
  4294G12c O00379708   3.092   3.011  13.217  1.2257  0.4278 -0.6198
  4294G12c C01B79709   3.121   2.921  13.098 -1.9321  0.5606  0.6745
  4294G12c H00979710   3.222   2.878  13.100 -2.6022 -1.0217  1.4357
  4294G12c H00879711   3.062   2.830  13.092 -3.1308  1.4153 -0.9170
  4294G12c H00779712   3.082   2.979  13.014 -3.5824 -5.3793 -3.0268
  4294G12c C00W79713   3.218   3.196  13.314  0.2361 -0.1492  1.6185
  4294G12c O00479714   3.223   3.112  13.410  0.8742  0.3983 -0.8954
  4294G12c C01C79715   3.320   3.139  13.506  1.3966  0.3933  0.7634
  4294G12c H00A79716   3.266   3.169  13.593  2.6199  3.0999  0.6216
  4294G12c C00P79717   3.427   3.241  13.472  0.0657  0.4029  0.4618
  4294G12c C00O79718   3.568   3.214  13.497  0.2090 -0.8990 -0.2614
  4294G12c C01D79719   3.609   3.076  13.505 -1.4098 -0.8336  0.5554
  4294G12c H00S79720   3.531   3.000  13.511 -2.7011  0.5502  1.7867
  4294G12c C01E79721   3.754   3.043  13.477 -1.4367 -0.3621 -1.3566
  4294G12c O00879722   3.783   2.914  13.461 -0.3589 -0.3544  1.8213
  4294G12c C01V79723   3.765   2.849  13.324 -0.9712 -1.6581 -0.6067
  4294G12c C01Z79724   3.717   2.703  13.349 -1.2682 -1.3909  0.5344
  4294G12c H00R79725   3.812   2.655  13.323 -0.0192  2.1153 -1.7307
  4294G12c H00Q79726   3.674   2.672  13.445 -0.0913 -1.4831  1.0470
  4294G12c O00979727   3.604   2.687  13.252  0.6169  0.9175 -0.5588
  4294G12c H00P79728   3.618   2.623  13.184  3.0170 -0.1491  0.8338
  4294G12c C01W79729   3.790   2.923  13.216 -0.3885  2.1264 -0.5392
  4294G12c H00O79730   3.781   3.030  13.208 -3.0425  1.7027 -4.4055
  4294G12c C01X79731   3.835   2.874  13.073 -0.7954 -1.0473  0.4962
  4294G12c H00N79732   3.892   2.782  13.058  2.5029  0.1174  4.8467
  4294G12c H00M79733   3.763   2.815  13.016 -3.6760  2.6059  0.1493
  4294G12c C01Y79734   3.865   2.963  12.961  0.2334 -0.9290 -0.9637
  4294G12c C02D79735   4.004   2.982  12.927  0.4590  0.5657 -1.0569
  4294G12c H01979736   4.083   2.941  12.988 -1.4094  1.2211  1.9051
  4294G12c C02C79737   4.015   3.039  12.804 -0.6778 -0.7279 -0.9569
  4294G12c H01A79738   4.123   3.036  12.803 -0.6444 -0.4294  0.5898
  4294G12c C02B79739   3.913   3.095  12.716  0.8140 -3.0196 -0.3026
  4294G12c O00E79740   3.939   3.138  12.593 -0.1337 -1.0514  0.4192
  4294G12c H01B79741   3.861   3.162  12.545 -0.0836 -4.9331 -1.7864
  4294G12c C02F79742   3.779   3.083  12.770 -0.6228  0.2197 -1.9771
  4294G12c O00F79743   3.669   3.157  12.724  0.7079 -0.4253 -2.4937
  4294G12c C02G79744   3.667   3.286  12.781  0.3136  0.9870 -1.0775
  4294G12c H01779745   3.627   3.340  12.867  0.3785 -2.8100  1.4310
  4294G12c H01679746   3.766   3.326  12.803  3.4353 -6.3408 -0.6143
  4294G12c H01579747   3.621   3.347  12.703 -4.0273  2.8998  2.7266
  4294G12c C02E79748   3.753   3.004  12.890  0.0681  1.0552  1.2175
  4294G12c H01879749   3.653   3.010  12.931 -4.0734 -1.9217 -7.1026
  4294G12c C01F79750   3.848   3.145  13.486 -1.8196  0.4296 -0.6142
  4294G12c C01G79751   3.988   3.124  13.475 -0.7011  0.6145  0.1923
  4294G12c H00L79752   4.025   3.028  13.442 -2.6117  0.0722 -0.4278
  4294G12c C01H79753   4.079   3.239  13.459  1.9047  0.4111 -1.6636
  4294G12c H00B79754   4.155   3.210  13.388  6.0355  0.3218  2.5276
  4294G12c C01I79755   4.018   3.361  13.451  0.7803  0.1026 -1.3590
  4294G12c C01U79756   3.815   3.271  13.547  0.9605  1.8238  0.1773
  4294G12c C00S79757   3.404   3.548  13.269 -0.7418  0.2041 -0.9160
  4294G12c C00K79758   3.615   3.632  13.323  3.6962  0.0827  1.4245
  4294G12c C00N79759   3.685   3.310  13.510 -0.9067 -0.7063  0.9403
  4294G12c C00079760   3.911   3.380  13.533  2.7309 -0.8164 -0.4792
  4294G12c C01J79761   4.013   3.470  13.359 -0.2685  0.5749  0.0215
  4294G12c C01K79762   4.128   3.504  13.269  0.7235 -1.5643 -1.7567
  4294G12c C01P79763   4.262   3.482  13.297  0.2471 -2.2032  0.3499
  4294G12c C01Q79764   4.302   3.414  13.419  0.6296 -0.2102 -0.3441
  4294G12c H00G79765   4.260   3.435  13.517 -3.0290 -2.3306 -1.3737
  4294G12c C01R79766   4.403   3.321  13.419  1.2555 -0.7201 -0.3316
  4294G12c H00F79767   4.448   3.294  13.325 -0.3691 -0.9325 -1.0761
  4294G12c C01S79768   4.459   3.265  13.534 -2.0248  2.2844  0.3708
  4294G12c H00E79769   4.438   3.333  13.617 -3.6552  1.8444  0.3508
  4294G12c H00D79770   4.403   3.172  13.549  0.8245  0.1768 -1.5908
  4294G12c O00579771   4.610   3.230  13.518  0.6417 -1.8329  0.7790
  4294G12c H00C79772   4.655   3.200  13.595  2.5916 -4.6724 -1.3999
  4294G12c C01O79773   4.349   3.506  13.199 -0.0858  0.7549 -0.1966
  4294G12c H00H79774   4.449   3.466  13.204  0.3118  1.9950  5.3623
  4294G12c C01N79775   4.306   3.552  13.076 -1.0110  0.0279  0.9882
  4294G12c O00679776   4.407   3.542  12.978  0.0647 -1.7105 -0.1191
  4294G12c C01T79777   4.385   3.598  12.836 -0.8523 -0.3513 -1.9740
  4294G12c H00K79778   4.301   3.665  12.812 -3.1221  0.3174  6.2436
  4294G12c H00J79779   4.432   3.544  12.754  3.8084 -1.7451  1.4709
  4294G12c H00I79780   4.466   3.670  12.829 -1.4543  0.7200  1.1462
  4294G12c C01M79781   4.170   3.581  13.050 -0.1418  1.1653  0.1725
  4294G12c C02079782   3.725   3.691  13.243  0.0106  0.6521  1.3577
  4294G12c C02179783   3.714   3.789  13.151 -0.4952  1.2491  1.4188
  4294G12c C01L79784   4.077   3.572  13.155 -0.6479  0.2700 -1.4994
  4294G12c O00779785   4.114   3.627  12.933  1.2938 -0.7483 -0.4720
  4294G12c C02279786   3.791   3.787  13.028 -0.0613  0.8970 -0.0269
  4294G12c C02379787   3.592   3.822  13.081 -0.9641  0.4339  0.4232
  4294G12c C00G79788   3.404   3.740  12.893 -0.2990  0.2688 -0.4497
  4294G12c C00E79789   3.361   3.731  12.647  1.0884 -0.9423  0.8722
  4294G12c O00A79790   3.298   3.680  12.538 -0.5770 -1.3429 -0.2029
  4294G12c C02479791   3.189   3.771  12.479 -0.4109 -0.0005  1.9065
  4294G12c H00V79792   3.121   3.805  12.557  1.7730 -1.5726  4.5941
  4294G12c H00U79793   3.113   3.706  12.435  1.0755 -0.9691  0.7386
  4294G12c H00T79794   3.212   3.848  12.406 -5.2992  1.4624  1.6767
  4304G12c C00D79795   8.797   4.391   6.094  0.2745  0.4215  0.6636
  4304G12c O00B79796   8.852   4.479   6.197 -0.7388  1.8576 -0.2903
  4304G12c C02579797   8.945   4.576   6.174 -0.8750  0.3068 -0.9367
  4304G12c C02679798   8.908   4.699   6.263 -1.6442  1.8212 -1.9081
  4304G12c H00Y79799   8.814   4.743   6.231 -2.6602 -0.2845 -1.9254
  4304G12c H00X79800   8.996   4.763   6.267 -2.1610  2.5085 -1.5828
  4304G12c O00C79801   8.864   4.629   6.391  0.3546 -0.0336 -1.2767
  4304G12c H00W79802   8.932   4.563   6.392  3.1323  2.7043 -0.7527
  4304G12c C02779803   9.043   4.537   6.079 -2.0760 -0.6676 -0.0621
  4304G12c O00D79804   9.028   4.449   5.968  1.9640 -0.6725 -0.2294
  4304G12c H00Z79805   9.067   4.485   5.890 -0.9144 -0.3650 -1.5860
  4304G12c C02879806   9.143   4.640   6.039  1.6318  0.1184 -2.4809
  4304G12c C02979807   9.103   4.734   5.934  0.9472 -0.1562  0.4940
  4304G12c H01079808   9.002   4.723   5.896  0.7811 -5.2640  1.9191
  4304G12c C02T79809   9.187   4.832   5.897  0.9522  1.1412  0.3802
  4304G12c H01O79810   9.158   4.907   5.825  3.3855  0.2642 -1.5785
  4304G12c C02S79811   9.289   4.855   5.991 -1.1595 -0.5500  0.6024
  4304G12c O00J79812   9.365   4.972   5.976  0.3978 -0.2144 -0.4421
  4304G12c H01P79813   9.428   4.964   6.046 -2.0486 -0.2713  1.8243
  4304G12c C02R79814   9.326   4.774   6.098 -0.8533  0.4035 -1.2044
  4304G12c O00I79815   9.448   4.806   6.160  0.9523  0.2949  1.0042
  4304G12c C02Q79816   9.535   4.693   6.157 -0.7569  1.9641 -0.0925
  4304G12c H01N79817   9.623   4.752   6.186  1.7350 -1.1176 -1.1338
  4304G12c H01R79818   9.512   4.644   6.063  5.5429  5.2764 -3.7235
  4304G12c H01Q79819   9.566   4.629   6.240  1.1678 -2.2760 -3.8918
  4304G12c C02A79820   9.259   4.655   6.118 -2.2206 -1.9525 -0.7188
  4304G12c H01179821   9.296   4.573   6.176 -5.0254 -3.9415 -1.6353
  4304G12c C00C79822   8.807   4.257   6.101  1.0060  0.4776  1.7309
  4304G12c H01279823   8.844   4.217   6.194 10.4303 -1.2094 -2.2033
  4304G12c C00B79824   8.757   4.181   5.989 -0.8802  0.3006 -2.0290
  4304G12c C00A79825   8.736   4.035   5.990 -0.6870 -0.1149 -1.2358
  4304G12c C00979826   8.820   3.938   6.056  0.1446  2.1069  0.4194
  4304G12c C00879827   8.940   3.951   6.137 -0.4057  0.3329  1.6174
  4304G12c H01379828   8.975   4.044   6.179 -0.5500  5.9133 -8.9434
  4304G12c C00779829   9.043   3.859   6.100 -0.3119  0.1973  1.7150
  4304G12c H01479830   9.147   3.870   6.124  0.2479  3.4164 -1.7111
  4304G12c C00679831   9.023   3.750   6.012 -1.7052 -0.8927 -2.0403
  4304G12c C00579832   8.892   3.743   5.960 -1.8766  0.1116  0.5865
  4304G12c C00479833   8.868   3.657   5.846  0.4277 -0.2122  0.3090
  4304G12c C00379834   8.768   3.673   5.740 -0.9544 -0.2084  0.0633
  4304G12c C00279835   8.755   3.582   5.623 -0.7425  0.3666 -1.1794
  4304G12c C00179836   8.673   3.575   5.503  1.0928 -0.3564  0.8469
  4304G12c C00M79837   8.620   3.703   5.431 -0.6183 -1.1714 -1.3525
  4304G12c C00L79838   8.593   3.826   5.505 -0.3669  2.3395 -1.4919
  4304G12c C00R79839   8.570   3.947   5.443  0.0485 -0.4205 -0.6447
  4304G12c C00Q79840   8.589   4.003   5.307 -1.1400  1.2646 -0.8397
  4304G12c C00V79841   8.578   4.143   5.286  0.6789  0.5512 -1.5271
  4304G12c C00U79842   8.561   4.230   5.399  0.0644  1.6769 -1.1678
  4304G12c C00T79843   8.574   4.169   5.522 -1.1660 -0.7403 -0.1646
  4304G12c C01679844   8.614   4.240   5.641  1.3188 -0.5657 -0.5472
  4304G12c C01579845   8.647   4.377   5.641  1.9691 -1.0968  1.9364
  4304G12c C01079846   8.608   4.440   5.520  0.5893  0.6554  1.3679
  4304G12c C01179847   8.608   4.585   5.522  0.3365 -1.2772  1.4090
  4304G12c H00579848   8.580   4.635   5.430 -1.7300 -1.3562  1.9588
  4304G12c C01279849   8.656   4.662   5.631  0.4252 -0.9697  0.3302
  4304G12c C01779850   8.667   4.798   5.624  0.6699 -1.5402 -0.8270
  4304G12c O00279851   8.609   4.886   5.720 -0.0037  0.4284 -0.6504
  4304G12c H00479852   8.588   4.977   5.705  2.4355  1.2142  0.4345
  4304G12c C01879853   8.752   4.856   5.529 -0.3411 -1.0591  0.1184
  4304G12c O00179854   8.793   4.989   5.511 -0.2685  0.1684  0.2159
  4304G12c H00379855   8.833   5.001   5.596 -2.2908  7.0856  0.5163
  4304G12c C01979856   8.825   4.772   5.412  0.0608 -0.9948 -0.0416
  4304G12c H00279857   8.756   4.701   5.367  2.2941 -4.7472  2.1545
  4304G12c H00179858   8.854   4.846   5.338 -8.0242 -2.2489 -5.0619
  4304G12c O00079859   8.968   4.726   5.425 -2.5698  1.4597 -1.2359
  4304G12c C01A79860   9.000   4.601   5.457  1.8108  1.7033  0.3277
  4304G12c C02K79861   9.069   4.590   5.573  0.1556 -0.2705  1.1200
  4304G12c O00G79862   9.171   4.680   5.627  0.8591 -0.0217 -0.1673
  4304G12c C02M79863   9.214   4.797   5.554  2.6405  1.5487 -0.9244
  4304G12c H01G79864   9.201   4.768   5.450 -0.3539 -3.9640  0.7895
  4304G12c H01F79865   9.291   4.868   5.586  3.5233  2.0969 -4.1553
  4304G12c H01E79866   9.117   4.844   5.572  0.0288 -3.0494 -2.2912
  4304G12c C02J79867   9.097   4.461   5.634  1.9602 -0.0399 -0.4470
  4304G12c H01H79868   9.159   4.454   5.722  3.8586  1.3781 -1.6635
  4304G12c C02I79869   9.018   4.350   5.603 -0.3954  1.0944  1.5879
  4304G12c C02N79870   9.048   4.235   5.680 -0.7468  0.6526  0.0969
  4304G12c H01M79871   9.152   4.247   5.707  0.2970  1.2510 -3.9095
  4304G12c C02O79872   8.978   4.127   5.694 -0.9085  0.2299  0.8636
  4304G12c H01L79873   8.883   4.126   5.643 -0.7547  6.1202  0.1589
  4304G12c C02P79874   9.011   4.003   5.757  0.6444  0.3267  0.9776
  4304G12c H01K79875   9.108   3.991   5.804  3.6490  2.2022 -4.3657
  4304G12c H01J79876   8.919   3.956   5.793  1.3209 -2.2024 -0.5045
  4304G12c O00H79877   9.014   3.940   5.628  0.7382 -1.0344  1.0576
  4304G12c H01I79878   8.934   3.892   5.611  0.3473  0.9337 -3.3834
  4304G12c C02H79879   8.937   4.359   5.485 -1.1375 -0.7592 -0.8343
  4304G12c H01C79880   8.882   4.267   5.473 -1.8002  0.3256 -8.1955
  4304G12c C02L79881   8.924   4.482   5.421  0.9719  1.1943 -1.9708
  4304G12c H01D79882   8.852   4.499   5.342  1.3481  4.5784 -1.6753
  4304G12c C01379883   8.722   4.591   5.728 -1.4770 -0.3149  0.2201
  4304G12c H00079884   8.768   4.660   5.798 -2.3130 -1.2982  1.7690
  4304G12c C01479885   8.694   4.456   5.760 -0.2317 -0.2434  0.6101
  4304G12c C00F79886   8.715   4.385   5.878 -2.2889  0.3826 -0.8317
  4304G12c C00H79887   8.651   4.170   5.770  1.2521  1.2257  1.6045
  4304G12c C00I79888   8.622   4.038   5.772 -0.4538 -0.3748  0.6758
  4304G12c C00J79889   8.572   3.978   5.658 -1.1985 -0.0707 -0.2456
  4304G12c C00Z79890   8.602   4.367   5.402  0.5113 -1.4361  1.1869
  4304G12c C00Y79891   8.595   4.431   5.266 -0.4395  1.1544 -1.3546
  4304G12c H00679892   8.592   4.538   5.257  5.9212  1.6550  0.2561
  4304G12c C00X79893   8.634   4.333   5.161 -0.6506  2.1626 -1.5701
  4304G12c O00379894   8.607   4.381   5.041 -1.0828 -0.2052 -1.6509
  4304G12c C01B79895   8.467   4.357   5.001  0.2226  0.1510  0.6875
  4304G12c H00979896   8.473   4.404   4.903  3.2213  1.4623  1.4714
  4304G12c H00879897   8.373   4.355   5.056 -3.6425 -1.6706 -5.4315
  4304G12c H00779898   8.429   4.256   4.984  2.5640 -0.8335  1.1280
  4304G12c C00W79899   8.596   4.192   5.160  0.2558  1.1771 -0.1571
  4304G12c O00479900   8.653   4.125   5.049  0.2683  0.2339  0.8981
  4304G12c C01C79901   8.602   4.001   5.059  1.2978 -0.1658 -0.5893
  4304G12c H00A79902   8.521   3.998   4.987 -1.8370 -1.5406  2.8196
  4304G12c C00P79903   8.619   3.922   5.182 -1.4244 -1.0069 -0.7160
  4304G12c C00O79904   8.659   3.788   5.189  0.0715  0.2142 -0.0143
  4304G12c C01D79905   8.749   3.769   5.074  0.1003 -0.1087  0.7679
  4304G12c H00S79906   8.768   3.844   4.999 -1.6676  2.8694  3.1821
  4304G12c C01E79907   8.840   3.643   5.099 -0.8998 -1.0463 -0.1994
  4304G12c O00879908   8.946   3.634   5.011 -0.4180 -0.2006  0.1380
  4304G12c C01V79909   8.955   3.727   4.916  0.2879 -0.0028  2.0018
  4304G12c C01Z79910   9.063   3.827   4.961 -0.7684  0.3708  0.2198
  4304G12c H00R79911   9.138   3.805   5.037  1.3663  0.0434 -1.8762
  4304G12c H00Q79912   9.114   3.883   4.882 -2.7560  4.1203  1.4985
  4304G12c O00979913   9.017   3.923   5.063 -0.3550  1.1458  1.2281
  4304G12c H00P79914   9.019   3.889   5.151  0.5492 -3.7982 -0.5557
  4304G12c C01W79915   8.890   3.717   4.792  1.7440  0.6636  0.3778
  4304G12c H00O79916   8.904   3.798   4.722 -1.9641  3.0684  2.2295
  4304G12c C01X79917   8.799   3.645   4.710  0.5874 -1.5877  0.2800
  4304G12c H00N79918   8.848   3.579   4.639  1.5185  0.4875 -1.0741
  4304G12c H00M79919   8.753   3.587   4.790  0.2357 -0.8291  0.6403
  4304G12c C01Y79920   8.666   3.723   4.666  0.0504 -1.3300 -0.0827
  4304G12c C02D79921   8.543   3.666   4.707  0.5824 -2.6741 -0.6924
  4304G12c H01979922   8.542   3.596   4.789 -4.1186  1.2844  3.0298
  4304G12c C02C79923   8.422   3.702   4.664  0.2564  0.4136  0.0184
  4304G12c H01A79924   8.334   3.648   4.697 -1.5144  2.9154 -0.4899
  4304G12c C02B79925   8.408   3.818   4.596 -1.6275 -1.2286 -1.1328
  4304G12c O00E79926   8.295   3.879   4.554 -1.0540  0.4094  0.5778
  4304G12c H01B79927   8.340   3.954   4.519 -1.1188  0.7231  1.1575
  4304G12c C02F79928   8.528   3.874   4.539  0.0460 -0.8232  1.0640
  4304G12c O00F79929   8.489   3.995   4.473 -0.0973 -0.2215 -0.1895
  4304G12c C02G79930   8.580   4.094   4.414  0.4842  0.1284 -0.2695
  4304G12c H01779931   8.659   4.127   4.481  0.0812  1.4272 -0.4221
  4304G12c H01679932   8.521   4.169   4.362  2.4324 -0.0175 -2.7723
  4304G12c H01579933   8.625   4.038   4.332 -0.7452 -5.4297  2.5981
  4304G12c C02E79934   8.666   3.832   4.576  1.8925  0.1858 -1.1035
  4304G12c H01879935   8.735   3.907   4.539  1.9424  1.9967  2.4245
  4304G12c C01F79936   8.838   3.572   5.206 -1.2010 -0.3655  1.9797
  4304G12c C01G79937   8.957   3.521   5.253 -0.1991  0.6210  1.1087
  4304G12c H00L79938   9.037   3.505   5.181  3.6087 -1.4878  5.5672
  4304G12c C01H79939   8.990   3.518   5.381 -0.9861  0.3096 -0.0138
  4304G12c H00B79940   9.087   3.564   5.397 -2.0230  1.9794  1.6753
  4304G12c C01I79941   8.870   3.479   5.464  0.8402 -0.6539  0.2402
  4304G12c C01U79942   8.741   3.572   5.299  0.3542 -1.1050 -0.2083
  4304G12c C00S79943   8.531   4.044   5.536  0.4647  0.0038 -0.0250
  4304G12c C00K79944   8.611   3.845   5.634  0.1384  0.1675 -1.0893
  4304G12c C00N79945   8.667   3.701   5.298  0.2756  0.2881 -0.4501
  4304G12c C00079946   8.740   3.481   5.414 -0.5497  1.6486 -0.5759
  4304G12c C01J79947   8.874   3.506   5.602 -0.7449 -0.6870  1.2353
  4304G12c C01K79948   8.986   3.499   5.687  1.2853  1.2911  0.5265
  4304G12c C01P79949   9.099   3.409   5.674  0.5897  1.1092  0.0921
  4304G12c C01Q79950   9.118   3.325   5.552 -1.5407  0.5630 -0.4882
  4304G12c H00G79951   9.041   3.249   5.540  3.5609 -4.5995 -3.1926
  4304G12c C01R79952   9.243   3.334   5.486 -0.4993 -0.1852  0.4469
  4304G12c H00F79953   9.256   3.273   5.398  1.7593  1.2139 -0.2194
  4304G12c C01S79954   9.355   3.430   5.489  1.0199  0.6282  0.1165
  4304G12c H00E79955   9.406   3.441   5.585 -0.7184 -0.8548  1.2540
  4304G12c H00D79956   9.419   3.352   5.447  3.8053 -3.5418 10.4576
  4304G12c O00579957   9.337   3.543   5.394  0.8336 -0.8826 -1.0207
  4304G12c H00C79958   9.262   3.590   5.426  4.9152  4.8847  0.9877
  4304G12c C01O79959   9.186   3.381   5.771 -0.9707 -1.8295  0.0613
  4304G12c H00H79960   9.262   3.306   5.756 -1.8225 -2.7455  0.3140
  4304G12c C01N79961   9.176   3.464   5.889 -1.2591  1.5649  0.1298
  4304G12c O00679962   9.274   3.457   5.982  0.8193 -0.3834 -0.2024
  4304G12c C01T79963   9.291   3.333   6.041 -0.8438  0.4807  0.1350
  4304G12c H00K79964   9.299   3.339   6.150  0.2422  5.8462 -0.1090
  4304G12c H00J79965   9.372   3.270   6.003 -0.8315 -1.8213  3.6870
  4304G12c H00I79966   9.217   3.254   6.036 -2.1306  1.1814  5.2978
  4304G12c C01M79967   9.080   3.558   5.887 -0.6514 -0.7178  1.8121
  4304G12c C02079968   8.675   3.772   5.755 -0.8999 -1.4745 -1.1628
  4304G12c C02179969   8.685   3.845   5.881 -0.1041 -0.9667 -0.9544
  4304G12c C01L79970   8.975   3.564   5.805  0.0229  0.6651  1.3190
  4304G12c O00779971   9.120   3.666   5.975 -0.4251  0.7045 -0.1102
  4304G12c C02279972   8.774   3.817   5.988 -0.5197 -0.0133  3.1315
  4304G12c C02379973   8.651   3.977   5.893 -0.9997 -0.4726  2.5369
  4304G12c C00G79974   8.697   4.243   5.880 -0.1979 -0.8081 -1.6086
  4304G12c C00E79975   8.730   4.455   5.993 -1.0699  0.7728 -1.9787
  4304G12c O00A79976   8.695   4.581   6.006  0.5189  0.2565  0.0227
  4304G12c C02479977   8.551   4.573   6.045 -0.7513  0.1950 -0.2050
  4304G12c H00V79978   8.540   4.525   6.143  3.1896  4.8275  2.7239
  4304G12c H00U79979   8.489   4.533   5.965 -0.6075 -0.2741 -0.0840
  4304G12c H00T79980   8.532   4.676   6.017  0.4020 -0.6203 -4.2442
  4314G12c C00D79981   9.140   3.776  12.889  1.0679 -1.3782 -1.0197
  4314G12c O00B79982   9.023   3.714  12.870  1.0034  0.4332 -0.9798
  4314G12c C02579983   8.942   3.717  12.756  1.5709 -0.0416  1.0860
  4314G12c C02679984   8.802   3.758  12.800  0.7462  1.9388 -0.9272
  4314G12c H00Y79985   8.765   3.695  12.881  5.2096  0.5648  0.1744
  4314G12c H00X79986   8.729   3.747  12.720 -1.3092  1.3112  0.9726
  4314G12c O00C79987   8.791   3.867  12.890  0.1061  0.5335  0.1042
  4314G12c H00W79988   8.708   3.887  12.850 -0.1258 -4.0688 -2.0837
  4314G12c C02779989   8.987   3.674  12.630 -1.3836  1.0773 -1.6431
  4314G12c O00D79990   9.117   3.638  12.597  1.5618  0.2811  0.3780
  4314G12c H00Z79991   9.153   3.630  12.684 -6.5484  3.0880  4.5481
  4314G12c C02879992   8.894   3.682  12.514  0.2336 -0.6581 -0.1321
  4314G12c C02979993   8.941   3.745  12.399  0.8934  0.2799 -1.5891
  4314G12c H01079994   9.037   3.792  12.385 -2.0829  5.7352 -5.5650
  4314G12c C02T79995   8.855   3.739  12.289 -0.1736  0.5913  0.5566
  4314G12c H01O79996   8.880   3.795  12.200  2.2511  1.4830  1.7404
  4314G12c C02S79997   8.733   3.674  12.296  0.3989  0.1904  1.1207
  4314G12c O00J79998   8.649   3.667  12.180  0.0552  1.6902 -1.0407
  4314G12c H01P79999   8.559   3.664  12.206 -1.0536 -3.2281 -4.6354
  4314G12c C02R80000   8.716   3.585  12.399  1.6552 -2.2567  0.8741
  4314G12c O00I80001   8.626   3.490  12.379 -1.0925  0.3287  1.1422
  4314G12c C02Q80002   8.642   3.381  12.277  0.5700  1.2033 -0.7752
  4314G12c H01N80003   8.571   3.387  12.194  1.1469  5.3537 -1.0931
  4314G12c H01R80004   8.751   3.375  12.273  0.7572 -2.9445  4.6318
  4314G12c H01Q80005   8.590   3.310  12.341  6.5003 -2.3462  0.5391
  4314G12c C02A80006   8.788   3.599  12.505 -0.3957  0.3351  0.1780
  4314G12c H01180007   8.746   3.525  12.572 -3.9880  1.6303 -0.5548
  4314G12c C00C80008   9.200   3.861  12.813 -0.0117 -1.6611  0.2494
  4314G12c H01280009   9.138   3.908  12.738  1.0605 -0.1628  0.2759
  4314G12c C00B80010   9.330   3.901  12.827 -0.0287 -0.0650  1.4629
  4314G12c C00A80011   9.416   3.971  12.726  0.5255 -0.2303  0.0920
  4314G12c C00980012   9.405   3.972  12.575 -0.1963 -0.9124  0.2334
  4314G12c C00880013   9.325   3.933  12.470 -0.1634 -0.1172 -1.7222
  4314G12c H01380014   9.221   3.905  12.475 -0.2165 -0.3922 -4.1476
  4314G12c C00780015   9.379   3.921  12.340  1.2195  0.4950 -0.1933
  4314G12c H01480016   9.321   3.878  12.259 -1.8504  8.5770 -2.7595
  4314G12c C00680017   9.513   3.931  12.308  0.2036 -0.4808 -1.2269
  4314G12c C00580018   9.601   3.955  12.415  0.8970 -1.5834  0.5535
  4314G12c C00480019   9.740   3.953  12.413 -0.7111  1.1227  0.5789
  4314G12c C00380020   9.821   3.977  12.527  2.7172 -0.7831  1.5062
  4314G12c C00280021   9.960   3.956  12.502 -1.2204  0.3290 -0.5680
  4314G12c C00180022  10.071   3.949  12.583  0.7486 -0.1637  1.8632
  4314G12c C00M80023  10.065   3.889  12.705 -0.1885 -0.3325  0.8599
  4314G12c C00L80024   9.970   3.917  12.811  0.4460  1.4056 -0.3033
  4314G12c C00R80025   9.954   3.806  12.912  0.0829 -0.0695 -0.5321
  4314G12c C00Q80026  10.034   3.696  12.965 -1.8184 -0.8431 -0.2363
  4314G12c C00V80027   9.962   3.639  13.079 -0.9742  0.7871 -0.7965
  4314G12c C00U80028   9.825   3.649  13.113 -0.5210 -0.9594  0.8940
  4314G12c C00T80029   9.748   3.737  13.042 -0.7601 -0.5023  1.6174
  4314G12c C01680030   9.609   3.745  13.038 -0.6841 -1.5354 -0.8012
  4314G12c C01580031   9.542   3.651  13.112 -0.6478 -1.7504  1.6285
  4314G12c C01080032   9.607   3.556  13.192  0.4731  0.5189 -0.5955
  4314G12c C01180033   9.521   3.484  13.278 -0.7749  0.1991 -0.0048
  4314G12c H00580034   9.564   3.420  13.354  1.3200  1.7626  0.1899
  4314G12c C01280035   9.384   3.491  13.285  0.8607  1.5110 -1.0414
  4314G12c C01780036   9.298   3.408  13.381 -0.1937  1.5192 -0.1726
  4314G12c O00280037   9.376   3.361  13.476 -0.6192 -1.2424 -0.9303
  4314G12c H00480038   9.316   3.310  13.528 -2.5645  0.9962 -0.9089
  4314G12c C01880039   9.192   3.337  13.339 -0.2443 -2.1260  0.1401
  4314G12c O00180040   9.174   3.358  13.205  0.7123 -0.1523  0.6923
  4314G12c H00380041   9.228   3.418  13.156 -3.6334  1.7597 -2.0367
  4314G12c C01980042   9.124   3.212  13.396 -1.6230 -0.2256  0.2311
  4314G12c H00280043   9.032   3.192  13.340  0.2646 -1.2032 -2.6225
  4314G12c H00180044   9.162   3.117  13.359 -4.4782 -0.5696 -2.0262
  4314G12c O00080045   9.134   3.223  13.530  0.0375 -1.6984  0.3965
  4314G12c C01A80046   9.056   3.164  13.614 -0.1290 -1.5844 -0.8056
  4314G12c C02K80047   8.992   3.041  13.599  2.1942  0.8981 -0.3874
  4314G12c O00G80048   9.017   2.957  13.489 -0.5248 -0.2505 -0.8626
  4314G12c C02M80049   8.913   2.861  13.463 -0.2366 -1.0624  0.5281
  4314G12c H01G80050   8.933   2.769  13.517 -1.3587 -3.7812 -3.4795
  4314G12c H01F80051   8.898   2.834  13.359  3.4087  1.5199 -0.7649
  4314G12c H01E80052   8.813   2.906  13.468 -1.2826 -1.8975 -6.9369
  4314G12c C02J80053   8.895   3.000  13.715 -0.0550 -0.5114  0.5200
  4314G12c H01H80054   8.846   2.903  13.711  0.2661 -0.6120 -2.0370
  4314G12c C02I80055   8.929   3.053  13.839  1.0507 -0.1924 -0.5974
  4314G12c C02N80056   8.939   2.972  13.946  2.4371  0.8321  0.9479
  4314G12c H01M80057   9.026   2.954  14.008  1.7854  3.7090  2.7841
  4314G12c C02O80058   8.841   2.973  14.057 -1.6264  0.0812 -1.1914
  4314G12c H01L80059   8.875   2.995  14.157 -5.1909  2.7161 -0.4229
  4314G12c C02P80060   8.707   3.035  14.045  0.1490  1.7835 -0.1294
  4314G12c H01K80061   8.681   3.094  14.133 -2.6705  1.0182 -0.4120
  4314G12c H01J80062   8.730   3.103  13.962  3.4809  1.6484  0.6377
  4314G12c O00H80063   8.614   2.919  14.011 -0.0617 -1.0953 -0.2379
  4314G12c H01I80064   8.638   2.840  14.057  1.3555 -1.9678 -2.4095
  4314G12c C02H80065   9.007   3.174  13.854  1.9960  0.0323 -0.2059
  4314G12c H01C80066   9.064   3.210  13.938  2.3656 -5.3372  2.0553
  4314G12c C02L80067   9.070   3.230  13.733 -1.8386  0.3700  1.0233
  4314G12c H01D80068   9.139   3.313  13.739  1.0430 -1.5866 -2.7437
  4314G12c C01380069   9.336   3.604  13.219  1.1451 -0.8493  0.8128
  4314G12c H00080070   9.231   3.597  13.246  0.2567 -5.8904 -3.2050
  4314G12c C01480071   9.405   3.649  13.105  1.2063 -0.2643 -0.8106
  4314G12c C00F80072   9.341   3.735  13.004  0.5677 -0.1436 -0.0658
  4314G12c C00H80073   9.543   3.856  12.955 -0.8442  1.4931 -0.3819
  4314G12c C00I80074   9.624   3.938  12.873  0.6476  0.5509 -0.3447
  4314G12c C00J80075   9.761   3.920  12.888  1.6999 -2.9503  0.8212
  4314G12c C00Z80076   9.749   3.560  13.192  1.3460  1.3850 -0.4148
  4314G12c C00Y80077   9.829   3.471  13.266  1.1271  1.2361  0.3937
  4314G12c H00680078   9.788   3.381  13.309 -2.8777  2.6592 -0.3023
  4314G12c C00X80079   9.962   3.446  13.247 -1.0211  0.9613 -0.5700
  4314G12c O00380080  10.031   3.346  13.322  0.5992  1.7023  0.3776
  4314G12c C01B80081  10.171   3.356  13.333  0.2360  0.2006 -0.1340
  4314G12c H00980082  10.205   3.254  13.347 -3.4981 -0.8976  1.4125
  4314G12c H00880083  10.203   3.411  13.422 -0.5037  0.5894 -0.1027
  4314G12c H00780084  10.248   3.349  13.256  0.3941  2.2589 -0.1900
  4314G12c C00W80085  10.040   3.547  13.168  1.0751  0.8197 -0.9356
  4314G12c O00480086  10.180   3.537  13.162  0.4154 -0.5576  0.9491
  4314G12c C01C80087  10.235   3.569  13.032  0.2767  2.0414 -0.6344
  4314G12c H00A80088  10.342   3.576  13.019  1.4457 -3.0568  4.2380
  4314G12c C00P80089  10.161   3.645  12.935 -0.2705 -1.9901 -1.5473
  4314G12c C00O80090  10.206   3.681  12.798 -0.5487  0.0301 -1.2175
  4314G12c C01D80091  10.302   3.590  12.744 -1.1673  1.7905 -0.1520
  4314G12c H00S80092  10.325   3.501  12.800 -3.4156  0.7041 -0.9204
  4314G12c C01E80093  10.368   3.601  12.626  0.4500  1.1690 -0.3576
  4314G12c O00880094  10.467   3.506  12.583  0.0189  0.4595 -1.2925
  4314G12c C01V80095  10.598   3.550  12.568  1.7175  0.9818  1.1787
  4314G12c C01Z80096  10.675   3.572  12.692 -1.3806  1.7394  0.6653
  4314G12c H00R80097  10.725   3.667  12.674  2.4934 -0.3360 -0.1624
  4314G12c H00Q80098  10.602   3.610  12.763 -6.8075  2.7766 -4.9543
  4314G12c O00980099  10.761   3.445  12.688  1.3631  0.3229  1.0333
  4314G12c H00P80100  10.725   3.371  12.736  4.0322 -0.7672  1.4382
  4314G12c C01W80101  10.641   3.566  12.437 -0.4545  1.3306 -0.3290
  4314G12c H00O80102  10.584   3.531  12.351 -0.0525 -2.5904  0.9157
  4314G12c C01X80103  10.775   3.601  12.380  0.0937  0.7025 -1.0780
  4314G12c H00N80104  10.751   3.676  12.456  0.6186  3.3839 -3.4826
  4314G12c H00M80105  10.858   3.532  12.388  1.7241  2.5928 -1.2135
  4314G12c C01Y80106  10.774   3.701  12.257  1.0605  1.0339 -1.2781
  4314G12c C02D80107  10.739   3.828  12.275 -0.0514  0.0205 -0.4885
  4314G12c H01980108  10.682   3.834  12.366  0.9866 -0.7984  0.2332
  4314G12c C02C80109  10.765   3.928  12.180  0.2679  1.2219 -0.4962
  4314G12c H01A80110  10.729   4.019  12.224  5.2027  2.3893  1.4171
  4314G12c C02B80111  10.811   3.891  12.049  0.0724  0.6659 -0.4132
  4314G12c O00E80112  10.792   3.970  11.942  0.3060 -0.9265 -1.6884
  4314G12c H01B80113  10.740   3.914  11.887  3.2039 -3.8398 -1.6336
  4314G12c C02F80114  10.825   3.760  12.018 -2.6968 -0.9601  0.9846
  4314G12c O00F80115  10.855   3.710  11.896  0.2716  0.9263  0.1194
  4314G12c C02G80116  10.947   3.604  11.881 -1.3226  1.6540  2.2645
  4314G12c H01780117  11.027   3.583  11.951 -1.0794  7.8517  4.1213
  4314G12c H01680118  11.013   3.634  11.799 -2.4482  1.5666  1.3014
  4314G12c H01580119  10.926   3.500  11.904  2.1796 -0.0466 -1.5222
  4314G12c C02E80120  10.799   3.668  12.120  0.6414  1.8756 -0.7507
  4314G12c H01880121  10.802   3.560  12.120  7.3906  1.7207  5.0374
  4314G12c C01F80122  10.317   3.702  12.534 -1.0595  0.8674  1.1300
  4314G12c C01G80123  10.300   3.679  12.402  0.7705  0.1867 -0.4499
  4314G12c H00L80124  10.331   3.590  12.350 -0.2138 -2.5332  3.4082
  4314G12c C01H80125  10.189   3.744  12.336  0.0542 -0.2209  0.5985
  4314G12c H00B80126  10.181   3.704  12.236 -8.0403 -0.1912  0.9376
  4314G12c C01I80127  10.124   3.840  12.409 -0.1427 -1.2705 -0.8990
  4314G12c C01U80128  10.244   3.808  12.602 -0.9142  1.1046  0.4431
  4314G12c C00S80129   9.835   3.840  12.969  0.3414  0.8262 -0.8514
  4314G12c C00K80130   9.843   3.964  12.767  0.1234  1.8363 -1.0196
  4314G12c C00N80131  10.159   3.777  12.703  0.2719  0.2072 -0.1427
  4314G12c C00080132  10.179   3.903  12.515 -0.8759 -0.5974 -0.9032
  4314G12c C01J80133  10.000   3.911  12.379 -1.2698  1.8220 -0.4386
  4314G12c C01K80134   9.927   3.907  12.260  0.3832 -0.5442 -1.0798
  4314G12c C01P80135   9.961   3.871  12.126 -0.0571 -1.2306  0.4829
  4314G12c C01Q80136  10.100   3.862  12.078  0.3970  0.7215  0.9692
  4314G12c H00G80137  10.168   3.921  12.137  0.9924 -5.3733  6.9211
  4314G12c C01R80138  10.139   3.794  11.962  2.1520  1.5394  0.7458
  4314G12c H00F80139  10.061   3.732  11.921  1.7222  4.4692 -3.1918
  4314G12c C01S80140  10.271   3.789  11.888 -0.6969  0.6416 -0.7434
  4314G12c H00E80141  10.282   3.693  11.839  0.2303  0.2651  0.1822
  4314G12c H00D80142  10.274   3.864  11.809 -9.7611 -0.7649 -3.0083
  4314G12c O00580143  10.388   3.787  11.952  0.2423  0.4133 -0.3697
  4314G12c H00C80144  10.383   3.865  12.006 -3.9575 -2.1809  3.3073
  4314G12c C01O80145   9.867   3.831  12.025  0.7536 -0.1308 -1.2538
  4314G12c H00H80146   9.888   3.827  11.920 -6.4995  0.2613 -3.0271
  4314G12c C01N80147   9.733   3.825  12.048 -0.0231 -0.8766  1.3302
  4314G12c O00680148   9.637   3.812  11.953 -0.8755  0.0516 -0.1201
  4314G12c C01T80149   9.614   3.897  11.835  0.6914  0.8437  0.4403
  4314G12c H00K80150   9.588   4.002  11.844 -0.2805  1.1196 -4.2549
  4314G12c H00J80151   9.523   3.885  11.776  1.5224  6.1964 -2.2342
  4314G12c H00I80152   9.692   3.878  11.762  2.8315 -0.9719  3.0876
  4314G12c C01M80153   9.689   3.882  12.180 -1.0628 -0.9989 -0.7867
  4314G12c C02080154   9.764   4.003  12.650  0.8190  0.0874 -1.1513
  4314G12c C02180155   9.623   4.009  12.647  0.6150 -0.5217 -0.6482
  4314G12c C01L80156   9.791   3.922  12.290 -0.9088  0.2696  0.4844
  4314G12c O00780157   9.558   3.905  12.189 -1.8777 -0.8577 -1.8804
  4314G12c C02280158   9.546   3.970  12.544 -2.1993 -2.2642 -0.2144
  4314G12c C02380159   9.554   4.004  12.768  1.9705 -0.9381  1.7267
  4314G12c C00G80160   9.409   3.831  12.925 -0.3939 -0.4675 -0.7568
  4314G12c C00E80161   9.204   3.717  12.987  0.8200 -0.0262  0.4936
  4314G12c O00A80162   9.156   3.598  13.036 -1.0210  0.0740 -0.0813
  4314G12c C02480163   9.155   3.484  12.924  1.3566  0.3176  2.9160
  4314G12c H00V80164   9.096   3.498  12.833 -1.4384 -3.4826  4.0025
  4314G12c H00U80165   9.126   3.378  12.924 -1.5824  1.0334  0.8487
  4314G12c H00T80166   9.248   3.478  12.867  2.2204  6.6458  3.3925
  4324G12c C00D80167  11.220  12.276   5.314  0.3492 -0.4183 -0.5281
  4324G12c O00B80168  11.248  12.304   5.180 -1.3150  0.5299  0.2800
  4324G12c C02580169  11.149  12.382   5.117 -1.1470 -1.0661 -0.3283
  4324G12c C02680170  11.171  12.527   5.143  0.1229  0.6111  0.0860
  4324G12c H00Y80171  11.126  12.584   5.061  3.6273  2.4568 -0.6807
  4324G12c H00X80172  11.275  12.552   5.121  1.2876  1.4732  5.8562
  4324G12c O00C80173  11.151  12.588   5.273 -0.8606 -0.2115 -1.5128
  4324G12c H00W80174  11.184  12.533   5.342 -1.7200 -1.3591 -1.9938
  4324G12c C02780175  11.058  12.321   5.031  0.6982  0.5585  0.3421
  4324G12c O00D80176  11.056  12.191   5.001 -0.7947 -0.3629  1.1576
  4324G12c H00Z80177  11.141  12.150   5.006 -2.9508 -5.7915 -2.1474
  4324G12c C02880178  10.959  12.394   4.942 -0.3404  0.6151 -1.7593
  4324G12c C02980179  10.978  12.452   4.809 -0.5070  1.8460  0.7369
  4324G12c H01080180  11.077  12.437   4.769 -0.6920 -4.7233  2.1780
  4324G12c C02T80181  10.878  12.531   4.751 -1.3381  0.0611  0.1365
  4324G12c H01O80182  10.882  12.582   4.656  1.5050 -0.9905 -0.3450
  4324G12c C02S80183  10.743  12.527   4.789  1.7152  0.3547 -0.1766
  4324G12c O00J80184  10.651  12.533   4.682 -0.8238 -0.7028  0.1257
  4324G12c H01P80185  10.585  12.596   4.656 -4.0848 -2.8553  2.8708
  4324G12c C02R80186  10.716  12.457   4.911  0.0886  0.4489 -0.2009
  4324G12c O00I80187  10.595  12.434   4.968 -0.3726 -0.4055 -0.1866
  4324G12c C02Q80188  10.467  12.493   4.929 -1.4908 -0.8142  0.2423
  4324G12c H01N80189  10.499  12.596   4.911  0.4348 -1.2922  0.8740
  4324G12c H01R80190  10.393  12.526   5.002  3.5170  3.4655  3.7446
  4324G12c H01Q80191  10.427  12.449   4.838 -7.0758 -0.7826  2.5036
  4324G12c C02A80192  10.826  12.383   4.995 -1.4541  0.9075 -0.1060
  4324G12c H01180193  10.794  12.314   5.072  6.2453  2.8667  5.4492
  4324G12c C00C80194  11.310  12.303   5.424 -0.2882  1.1877 -0.4759
  4324G12c H01280195  11.400  12.356   5.399  0.8520  1.3058  3.5614
  4324G12c C00B80196  11.277  12.275   5.557 -0.4626 -0.7563  0.7016
  4324G12c C00A80197  11.348  12.331   5.670 -0.6035  1.2036  0.5008
  4324G12c C00980198  11.494  12.356   5.673 -2.1143  0.6779 -0.8153
  4324G12c C00880199  11.598  12.342   5.580  0.4567  2.4128  1.0509
  4324G12c H01380200  11.592  12.319   5.475 -2.4876 -0.9262  1.8739
  4324G12c C00780201  11.728  12.309   5.627  0.4167  0.4336 -0.6857
  4324G12c H01480202  11.792  12.252   5.562 -0.9656  1.5587 -3.1018
  4324G12c C00680203  11.746  12.279   5.767  0.5402 -0.9247 -0.9725
  4324G12c C00580204  11.648  12.296   5.860  0.9053 -0.2981  0.1658
  4324G12c C00480205  11.646  12.236   5.986 -0.0616 -1.7400 -0.8347
  4324G12c C00380206  11.529  12.206   6.056 -1.3392  0.0781  0.3837
  4324G12c C00280207  11.557  12.135   6.187 -0.7544  0.6424 -0.7010
  4324G12c C00180208  11.462  12.082   6.281  0.7371  0.1155 -0.1982
  4324G12c C00M80209  11.379  11.976   6.222 -1.0926  0.3207 -0.7427
  4324G12c C00L80210  11.274  12.019   6.143 -0.8750 -0.8407 -0.4715
  4324G12c C00R80211  11.193  11.922   6.068 -0.0732 -0.0051  0.2663
  4324G12c C00Q80212  11.158  11.792   6.071 -0.3991 -1.6529  1.9097
  4324G12c C00V80213  11.047  11.746   5.977 -0.7518  0.2155 -0.7820
  4324G12c C00U80214  11.017  11.824   5.858 -0.5071 -1.9232 -1.6694
  4324G12c C00T80215  11.082  11.936   5.826  0.5356 -1.1367 -0.6664
  4324G12c C01680216  11.068  12.018   5.719  0.0104 -0.8309 -0.2400
  4324G12c C01580217  10.981  11.965   5.621 -3.1303  0.5914 -0.0179
  4324G12c C01080218  10.895  11.856   5.651  0.5430  0.4820 -0.3940
  4324G12c C01180219  10.789  11.817   5.552 -2.8659  0.6095 -1.3573
  4324G12c H00580220  10.740  11.720   5.554 -2.3167  0.3025 -2.4511
  4324G12c C01280221  10.782  11.875   5.423  0.6642  0.6518 -0.2480
  4324G12c C01780222  10.646  11.846   5.360 -0.2744  0.0598  2.1382
  4324G12c O00280223  10.549  11.803   5.444 -0.3728  1.0855  1.0072
  4324G12c H00480224  10.533  11.731   5.384  1.7911  3.6043 -2.7875
  4324G12c C01880225  10.619  11.844   5.225 -1.0388 -0.0668  0.7999
  4324G12c O00180226  10.741  11.841   5.166 -0.8957 -0.3266 -0.1572
  4324G12c H00380227  10.818  11.890   5.192 -1.3948 -0.3028  1.2916
  4324G12c C01980228  10.485  11.799   5.158  0.9832  0.8632 -0.7844
  4324G12c H00280229  10.411  11.817   5.236 -0.3730  0.4221 -1.9453
  4324G12c H00180230  10.475  11.864   5.071  1.4633 -3.5629 -4.3255
  4324G12c O00080231  10.489  11.656   5.135  0.3014 -0.7928  0.0114
  4324G12c C01A80232  10.371  11.602   5.073  1.1186 -0.2569  0.5101
  4324G12c C02K80233  10.336  11.607   4.947  1.9365 -1.9314  0.9177
  4324G12c O00G80234  10.387  11.694   4.850  0.4791  0.2930  0.3221
  4324G12c C02M80235  10.480  11.636   4.776  1.4156 -2.2674  0.5585
  4324G12c H01G80236  10.549  11.719   4.795  5.1769 -5.4134  1.3949
  4324G12c H01F80237  10.420  11.626   4.686  4.3110  0.5087 -1.8024
  4324G12c H01E80238  10.552  11.565   4.817  0.6367 -3.5345 -0.2364
  4324G12c C02J80239  10.242  11.516   4.908  0.8054 -0.3217  0.5690
  4324G12c H01H80240  10.208  11.529   4.806 -1.0686  2.8980  1.5227
  4324G12c C02I80241  10.178  11.413   4.984 -1.0619 -0.6527  0.8070
  4324G12c C02N80242  10.073  11.332   4.929 -0.3861  0.4030 -0.9693
  4324G12c H01M80243   9.971  11.354   4.957 -1.8949 -3.2517 -3.2980
  4324G12c C02O80244  10.088  11.199   4.889  0.7196  1.2962 -0.0521
  4324G12c H01L80245  10.002  11.142   4.920  2.9266 -2.7069 -0.8913
  4324G12c C02P80246  10.217  11.130   4.858  0.8738 -0.8256 -1.5394
  4324G12c H01K80247  10.316  11.126   4.902  0.7495  1.9951 -0.8747
  4324G12c H01J80248  10.188  11.026   4.842  2.5797 -1.7594  1.1731
  4324G12c O00H80249  10.259  11.168   4.714 -0.6195 -0.8410  0.7784
  4324G12c H01I80250  10.180  11.169   4.661 -1.2777 -0.4432  1.7677
  4324G12c C02H80251  10.214  11.417   5.125 -0.5107  0.0531  0.2692
  4324G12c H01C80252  10.182  11.339   5.191  3.4144 -2.7675 -0.9898
  4324G12c C02L80253  10.316  11.511   5.158 -0.3106  1.8463 -1.3317
  4324G12c H01D80254  10.321  11.512   5.266  1.3987 -3.4825 -1.2170
  4324G12c C01380255  10.885  11.987   5.400  0.0507  0.9008 -0.9524
  4324G12c H00080256  10.893  12.044   5.309 -1.9518  1.7806 -0.6211
  4324G12c C01480257  10.988  12.018   5.484 -0.0379  1.5412  0.0140
  4324G12c C00F80258  11.080  12.129   5.480 -1.8952  0.6734  0.0740
  4324G12c C00H80259  11.168  12.114   5.705  0.5347  1.4098 -0.3312
  4324G12c C00I80260  11.220  12.173   5.816 -0.9350 -1.6265 -0.6770
  4324G12c C00J80261  11.212  12.108   5.938  1.2555 -0.3664  1.7410
  4324G12c C00Z80262  10.920  11.782   5.768 -0.2456  0.2562  1.2441
  4324G12c C00Y80263  10.853  11.669   5.801  1.4562  1.3152 -0.1503
  4324G12c H00680264  10.768  11.625   5.751  3.8213 -3.1600 -0.4937
  4324G12c C00X80265  10.885  11.583   5.904  1.8896  1.4491  0.4814
  4324G12c O00380266  10.795  11.483   5.916 -0.9103  0.7099  1.3767
  4324G12c C01B80267  10.852  11.357   5.924 -0.8959  0.8444 -0.1762
  4324G12c H00980268  10.896  11.295   5.846 -1.8979 -3.7938  2.7828
  4324G12c H00880269  10.900  11.315   6.012  1.3206 -3.5889 -3.3497
  4324G12c H00780270  10.765  11.316   5.975  0.3604 -2.3176 -0.4949
  4324G12c C00W80271  10.976  11.624   6.007 -1.2189 -1.6010 -0.4110
  4324G12c O00480272  11.016  11.529   6.104 -0.4019  0.6130  0.7410
  4324G12c C01C80273  11.134  11.562   6.156  0.7107 -0.1390  0.0194
  4324G12c H00A80274  11.198  11.477   6.178 -2.9344 -3.7409 -2.5416
  4324G12c C00P80275  11.189  11.701   6.179 -0.0917  1.6045  0.5265
  4324G12c C00O80276  11.315  11.722   6.257  0.2415  0.4678  1.8528
  4324G12c C01D80277  11.385  11.615   6.323  2.0304  1.3992  0.9714
  4324G12c H00S80278  11.348  11.520   6.288 -6.4608  5.0744 -1.3568
  4324G12c C01E80279  11.501  11.635   6.396 -1.6903  2.0757 -0.2875
  4324G12c O00880280  11.549  11.526   6.466 -0.2391 -0.8491 -0.1659
  4324G12c C01V80281  11.492  11.494   6.594 -0.3153 -0.5225 -1.1807
  4324G12c C01Z80282  11.577  11.484   6.735 -0.9042  1.0142 -1.2864
  4324G12c H00R80283  11.631  11.578   6.741  4.3382 -1.9173  0.3442
  4324G12c H00Q80284  11.520  11.474   6.827 -3.0821 -0.9441 -2.7882
  4324G12c O00980285  11.684  11.394   6.711 -0.8100  0.1617 -0.2817
  4324G12c H00P80286  11.760  11.449   6.697  0.3679 -2.2186 -3.6813
  4324G12c C01W80287  11.373  11.440   6.599  1.9485 -0.7548 -1.4364
  4324G12c H00O80288  11.314  11.453   6.509  2.8818  3.7832 -1.5436
  4324G12c C01X80289  11.327  11.358   6.712 -0.7929  0.8921 -0.5284
  4324G12c H00N80290  11.268  11.267   6.698  2.2870 -1.4473  1.2033
  4324G12c H00M80291  11.414  11.307   6.753 -1.0646  3.7988  4.0616
  4324G12c C01Y80292  11.263  11.438   6.807  0.5884  0.1985  0.6790
  4324G12c C02D80293  11.153  11.506   6.755  0.3661  0.0933 -0.4630
  4324G12c H01980294  11.157  11.496   6.648  2.4897  2.3507 -0.6485
  4324G12c C02C80295  11.062  11.562   6.842  0.9593 -0.9756  0.5252
  4324G12c H01A80296  10.972  11.605   6.801  1.2477 -3.9334 -3.5309
  4324G12c C02B80297  11.104  11.579   6.976  0.9914  0.0540 -0.1879
  4324G12c O00E80298  11.020  11.641   7.064 -0.1842  1.5225 -0.1881
  4324G12c H01B80299  11.039  11.600   7.147 -0.6460  1.5870 -0.0537
  4324G12c C02F80300  11.214  11.531   7.033 -1.0688 -1.7714  0.0276
  4324G12c O00F80301  11.232  11.546   7.164 -0.3167 -0.3997 -1.6829
  4324G12c C02G80302  11.336  11.445   7.221 -0.3796 -0.4614  1.3063
  4324G12c H01780303  11.357  11.341   7.193  2.2029  0.4181 -0.2096
  4324G12c H01680304  11.425  11.501   7.194  0.8331 -2.3260  1.3542
  4324G12c H01580305  11.325  11.437   7.329 -3.0486 -0.6556  1.0625
  4324G12c C02E80306  11.286  11.446   6.949 -0.4326 -0.8142 -0.0375
  4324G12c H01880307  11.384  11.400   6.955 -0.1850 -0.1246  1.4000
  4324G12c C01F80308  11.567  11.760   6.386  0.9097 -0.7551  0.9030
  4324G12c C01G80309  11.716  11.765   6.382  0.2811 -0.2034 -0.5311
  4324G12c H00L80310  11.782  11.690   6.425  1.5136 -0.4951 -2.8481
  4324G12c C01H80311  11.762  11.894   6.340  0.2236  1.1705  0.9867
  4324G12c H00B80312  11.864  11.908   6.307 -0.2422 -2.6268 -2.5044
  4324G12c C01I80313  11.677  12.004   6.327 -0.3943  0.1633  0.4442
  4324G12c C01U80314  11.491  11.875   6.373 -0.4743 -0.7170 -0.4845
  4324G12c C00S80315  11.151  11.986   5.943 -1.5176  0.7044 -2.0642
  4324G12c C00K80316  11.300  12.127   6.039  0.2259 -0.4203 -0.8818
  4324G12c C00N80317  11.386  11.852   6.275 -0.6429 -0.6535  0.4928
  4324G12c C00080318  11.535  11.999   6.376 -1.1444 -0.3754 -0.6646
  4324G12c C01J80319  11.684  12.114   6.228 -0.2864  0.3730 -0.1814
  4324G12c C01K80320  11.802  12.162   6.156 -1.6772 -1.1031  0.4031
  4324G12c C01P80321  11.916  12.185   6.225  0.1266 -1.0092  2.0300
  4324G12c C01Q80322  11.929  12.202   6.371  2.3930 -0.9489 -1.3751
  4324G12c H00G80323  11.879  12.121   6.422 -0.9455  2.4615  1.1004
  4324G12c C01R80324  12.017  12.284   6.439 -0.5867 -0.9886  0.1853
  4324G12c H00F80325  12.054  12.340   6.354 -6.4221  1.7922 -0.7923
  4324G12c C01S80326  12.057  12.283   6.589 -0.1746 -2.2873 -0.9257
  4324G12c H00E80327  12.085  12.184   6.627 -4.7561 -2.5389  2.1661
  4324G12c H00D80328  12.158  12.324   6.597 -2.1039  2.8703 -1.2173
  4324G12c O00580329  11.953  12.358   6.637 -2.0561 -0.3689  0.1055
  4324G12c H00C80330  11.924  12.419   6.572 -3.2222 -4.1798 -3.1050
  4324G12c C01O80331  12.028  12.189   6.148 -0.6141 -0.2254 -1.9190
  4324G12c H00H80332  12.127  12.202   6.187 -2.2189 -0.5334  2.5376
  4324G12c C01N80333  12.022  12.181   6.004  1.3915 -0.4794  0.3729
  4324G12c O00680334  12.136  12.172   5.916  0.3888  1.1073  0.0177
  4324G12c C01T80335  12.216  12.060   5.937 -0.5660  0.8077 -1.1548
  4324G12c H00K80336  12.217  11.964   5.886  2.9181  0.2122 -0.1438
  4324G12c H00J80337  12.301  12.112   5.893  0.9484 -0.2131  0.4849
  4324G12c H00I80338  12.206  12.053   6.045  0.0377 -0.7051 -1.1898
  4324G12c C01M80339  11.899  12.187   5.943  0.0119 -0.6993  1.2376
  4324G12c C02080340  11.398  12.230   6.012 -0.5531  1.7781  0.5899
  4324G12c C02180341  11.395  12.318   5.901 -1.0508 -1.6090 -0.4962
  4324G12c C01L80342  11.783  12.211   6.030  1.4910 -0.0229 -0.6356
  4324G12c O00780343  11.869  12.222   5.804  1.6367  0.7298 -0.3144
  4324G12c C02280344  11.519  12.330   5.814 -0.6338  1.7398  0.5025
  4324G12c C02380345  11.303  12.285   5.798  2.0804  1.5683  0.6911
  4324G12c C00G80346  11.177  12.164   5.575  0.0522 -1.2319 -0.9632
  4324G12c C00E80347  11.093  12.218   5.356 -0.6600  0.4535 -0.3040
  4324G12c O00A80348  10.996  12.233   5.264  2.1433  0.9415 -0.0105
  4324G12c C02480349  10.890  12.316   5.313 -0.0386  0.3440  0.3029
  4324G12c H00V80350  10.837  12.382   5.245  3.7366  2.3761 -0.8271
  4324G12c H00U80351  10.941  12.395   5.369  2.7016  0.8363 -2.7534
  4324G12c H00T80352  10.804  12.266   5.359  0.4883 -1.7708 -0.9405
  4334G12c C00D80353   9.449   8.507   1.216 -1.0281  0.5593 -2.4707
  4334G12c O00B80354   9.423   8.541   1.079  0.5764  0.1467  0.5119
  4334G12c C02580355   9.519   8.583   0.997  0.0711 -0.0374 -0.0199
  4334G12c C02680356   9.450   8.676   0.892 -0.1082  0.1363 -0.8986
  4334G12c H00Y80357   9.508   8.701   0.803  4.0799 -7.1539 -0.5700
  4334G12c H00X80358   9.462   8.772   0.943  1.2159  0.7298 -2.2558
  4334G12c O00C80359   9.312   8.653   0.873  0.7695  1.0131 -0.6205
  4334G12c H00W80360   9.246   8.714   0.901 -0.1613 -0.5581  0.6850
  4334G12c C02780361   9.655   8.550   1.012  1.1048 -1.5038 -2.5781
  4334G12c O00D80362   9.695   8.436   1.077  0.3793 -0.1029 -0.3956
  4334G12c H00Z80363   9.614   8.390   1.092 -4.2155  5.3185 -5.8501
  4334G12c C02880364   9.761   8.636   0.943 -1.1349  1.9430  0.4824
  4334G12c C02980365   9.873   8.554   0.906 -2.2489  2.1858  0.0490
  4334G12c H01080366   9.889   8.453   0.942  2.6959  3.8116  2.9022
  4334G12c C02T80367   9.994   8.631   0.850  0.8752  0.0293  0.0998
  4334G12c H01O80368  10.086   8.577   0.833  1.2774  0.7580 -0.0787
  4334G12c C02S80369   9.981   8.761   0.813 -1.2884  1.0955  0.0095
  4334G12c O00J80370  10.084   8.815   0.726  0.1334 -0.8111 -1.5776
  4334G12c H01P80371  10.041   8.876   0.667  1.3873  0.9702 -0.7210
  4334G12c C02R80372   9.861   8.824   0.832  0.6767 -0.3659  1.2211
  4334G12c O00I80373   9.866   8.944   0.766  0.0935  0.1654  0.3068
  4334G12c C02Q80374   9.802   9.058   0.796 -0.4942  0.6702  0.5967
  4334G12c H01N80375   9.858   9.132   0.738  0.2337  0.8111  1.4628
  4334G12c H01R80376   9.699   9.066   0.762 -1.8970  1.3035  4.6866
  4334G12c H01Q80377   9.795   9.072   0.904  6.6705  3.0902  1.0041
  4334G12c C02A80378   9.748   8.767   0.905 -1.6852  2.7006  0.0835
  4334G12c H01180379   9.649   8.808   0.895 -3.1181 -1.1948 -3.0372
  4334G12c C00C80380   9.555   8.544   1.296  1.1067 -0.7727  0.5402
  4334G12c H01280381   9.609   8.631   1.260 -4.1570  1.1619 -3.4171
  4334G12c C00B80382   9.584   8.500   1.435 -0.8574  0.4023  0.0617
  4334G12c C00A80383   9.673   8.549   1.545  1.0341 -0.0973  0.1986
  4334G12c C00980384   9.777   8.638   1.538  0.6616  1.9250 -0.9155
  4334G12c C00880385   9.837   8.665   1.414  1.1451 -0.1222 -0.6065
  4334G12c H01380386   9.791   8.657   1.317 -0.4125 -2.7637  0.3031
  4334G12c C00780387   9.975   8.698   1.416 -0.7674 -0.3825 -0.5223
  4334G12c H01480388  10.034   8.728   1.330  3.3904  4.6115  3.7299
  4334G12c C00680389  10.057   8.673   1.528  1.7544  0.5110  0.5550
  4334G12c C00580390   9.996   8.620   1.642 -0.3057  0.8348 -0.9253
  4334G12c C00480391  10.082   8.542   1.736 -0.8890  0.7306  0.9429
  4334G12c C00380392  10.002   8.453   1.817  0.8686  1.9756 -1.0716
  4334G12c C00280393  10.079   8.361   1.892  0.2556 -1.9483  0.6043
  4334G12c C00180394  10.044   8.266   1.988 -0.9371  0.9378 -0.0312
  4334G12c C00M80395   9.950   8.171   1.961 -0.3489 -2.0115  2.3703
  4334G12c C00L80396   9.817   8.194   1.926 -0.7348 -0.5713 -0.5138
  4334G12c C00R80397   9.724   8.097   1.866  1.4553  0.5050  0.8689
  4334G12c C00Q80398   9.718   7.953   1.859 -1.3226  0.3980 -0.3957
  4334G12c C00V80399   9.601   7.902   1.785 -0.9868  1.1167  0.6651
  4334G12c C00U80400   9.513   7.985   1.703  1.1803 -0.1145  0.0653
  4334G12c C00T80401   9.547   8.111   1.688 -2.3527  0.3887 -0.1082
  4334G12c C01680402   9.479   8.185   1.598 -1.4099  0.5510 -2.4106
  4334G12c C01580403   9.393   8.146   1.512 -0.9145 -0.9571  0.8609
  4334G12c C01080404   9.350   8.019   1.533  0.7986  0.1395  0.0667
  4334G12c C01180405   9.216   7.989   1.500 -0.1664  2.2280 -1.3695
  4334G12c H00580406   9.190   7.903   1.561  3.0482 -1.8704 -5.3934
  4334G12c C01280407   9.135   8.062   1.415 -1.0858  0.0510 -0.0712
  4334G12c C01780408   8.985   8.068   1.405  0.6422  1.3033  1.0897
  4334G12c O00280409   8.924   8.179   1.345  0.6499  0.3064 -1.8165
  4334G12c H00480410   8.842   8.148   1.308  3.0752 -5.8698 -2.6961
  4334G12c C01880411   8.902   7.970   1.439 -0.6590 -1.1872 -0.2589
  4334G12c O00180412   8.947   7.862   1.495 -0.2767  1.0084  0.6333
  4334G12c H00380413   9.034   7.866   1.459  0.0825  1.2521  1.5163
  4334G12c C01980414   8.750   7.970   1.422  0.1769  0.5308  0.0902
  4334G12c H00280415   8.728   7.880   1.365 -0.2607  0.7273 -0.0582
  4334G12c H00180416   8.701   7.951   1.518  3.4580  0.1277  1.7448
  4334G12c O00080417   8.701   8.091   1.350  0.2247 -0.5059  0.5119
  4334G12c C01A80418   8.582   8.148   1.338 -0.0404 -0.0481 -0.9522
  4334G12c C02K80419   8.562   8.287   1.351 -1.4602  0.4288  1.0264
  4334G12c O00G80420   8.661   8.385   1.391  0.7881  0.3267 -1.5614
  4334G12c C02M80421   8.638   8.524   1.420 -0.0513 -0.4775  0.9237
  4334G12c H01G80422   8.713   8.575   1.481 -3.4415  3.8702  1.7106
  4334G12c H01F80423   8.583   8.531   1.513  2.7746 -0.5001  2.6660
  4334G12c H01E80424   8.590   8.589   1.346 -4.6582 -1.2182  3.1099
  4334G12c C02J80425   8.420   8.344   1.349 -1.4652 -1.2497 -0.4440
  4334G12c H01H80426   8.396   8.448   1.341  3.1267  0.2508  2.9143
  4334G12c C02I80427   8.312   8.270   1.322 -1.0146 -1.5229 -2.3893
  4334G12c C02N80428   8.175   8.328   1.278 -0.9402 -1.3604 -0.2263
  4334G12c H01M80429   8.131   8.411   1.333 -0.8981 -4.2440  4.4946
  4334G12c C02O80430   8.124   8.283   1.159  0.8159  1.0805  0.6553
  4334G12c H01L80431   8.181   8.207   1.109  2.1924  0.1716  3.5068
  4334G12c C02P80432   7.991   8.318   1.119  0.1348  0.3198  0.1114
  4334G12c H01K80433   7.993   8.388   1.035  1.5371 -0.0937 -0.2020
  4334G12c H01J80434   7.921   8.243   1.081  1.1925 -0.7034  0.1749
  4334G12c O00H80435   7.954   8.438   1.180  0.0413  0.4385 -0.8867
  4334G12c H01I80436   7.962   8.422   1.273 -1.3029 -3.5405 -1.3286
  4334G12c C02H80437   8.342   8.122   1.327 -0.6288 -0.0270 -0.4671
  4334G12c H01C80438   8.244   8.084   1.302 -2.6661  2.5390  2.9819
  4334G12c C02L80439   8.466   8.065   1.345  1.8314  0.7396  0.2425
  4334G12c H01D80440   8.456   7.958   1.340  5.8225  0.1990  1.4800
  4334G12c C01380441   9.201   8.175   1.360  0.0574 -0.2547 -0.8343
  4334G12c H00080442   9.146   8.236   1.289  0.5147  5.1407  3.1681
  4334G12c C01480443   9.316   8.226   1.429  0.1482 -0.1021  0.4844
  4334G12c C00F80444   9.376   8.358   1.391  1.7005 -0.3247  0.3402
  4334G12c C00H80445   9.524   8.321   1.591  0.9207  1.8064 -1.1582
  4334G12c C00I80446   9.624   8.363   1.676  0.9461 -1.2427 -0.9890
  4334G12c C00J80447   9.657   8.286   1.786 -0.1528  0.5265  1.3223
  4334G12c C00Z80448   9.401   7.931   1.627 -0.3780  1.2436  0.4128
  4334G12c C00Y80449   9.374   7.784   1.623 -1.2808 -0.0515  1.0878
  4334G12c H00680450   9.287   7.748   1.570  0.5017  0.4675 -2.3222
  4334G12c C00X80451   9.477   7.709   1.691 -0.9179  0.7511  0.0257
  4334G12c O00380452   9.482   7.580   1.680 -0.7502  1.1406  0.0174
  4334G12c C01B80453   9.587   7.529   1.585 -1.3458  0.6859 -0.5106
  4334G12c H00980454   9.576   7.593   1.498  0.5577  2.0654  0.2256
  4334G12c H00880455   9.619   7.425   1.578  0.0383  0.6122  4.6142
  4334G12c H00780456   9.677   7.557   1.639  0.1472 -3.2320 -0.7932
  4334G12c C00W80457   9.578   7.761   1.772 -1.2270 -1.5372 -1.4515
  4334G12c O00480458   9.671   7.677   1.845 -0.1017 -0.1064  0.1561
  4334G12c C01C80459   9.777   7.728   1.921 -2.3559 -1.3991  0.0967
  4334G12c H00A80460   9.800   7.683   2.016 -5.2369  0.5246  1.7907
  4334G12c C00P80461   9.814   7.864   1.919  0.8989  1.9185  2.1501
  4334G12c C00O80462   9.949   7.906   1.968  0.7635 -0.0662 -0.3228
  4334G12c C01D80463  10.044   7.783   1.978  0.5624  1.3184 -2.9930
  4334G12c H00S80464  10.058   7.678   1.999 -0.1867  1.0868 -3.6452
  4334G12c C01E80465  10.184   7.805   1.976  0.3312 -0.8686 -0.0581
  4334G12c O00880466  10.266   7.701   1.970  0.3461 -0.3745 -0.3093
  4334G12c C01V80467  10.380   7.692   2.040 -0.5513 -0.0734 -0.7750
  4334G12c C01Z80468  10.482   7.617   1.946 -0.2576 -1.3802  1.6137
  4334G12c H00R80469  10.464   7.517   1.906  0.6264 -1.1247  0.5767
  4334G12c H00Q80470  10.483   7.683   1.859 -0.3980 -0.8959  1.9795
  4334G12c O00980471  10.589   7.592   2.022 -0.0322  0.1101  0.4932
  4334G12c H00P80472  10.547   7.579   2.106  1.7879  1.7511  1.6685
  4334G12c C01W80473  10.409   7.748   2.161 -0.4365  1.8902  0.7611
  4334G12c H00O80474  10.328   7.814   2.188 -3.1160 -1.8325  2.2270
  4334G12c C01X80475  10.544   7.741   2.232  1.7948 -0.1343 -0.1585
  4334G12c H00N80476  10.543   7.734   2.341  7.7257 -3.5798 -0.0906
  4334G12c H00M80477  10.536   7.633   2.244  1.1226 -0.4248 -2.8968
  4334G12c C01Y80478  10.649   7.840   2.194 -0.1499  0.6338  0.2335
  4334G12c C02D80479  10.616   7.979   2.160  0.9503  0.4448 -0.7571
  4334G12c H01980480  10.520   8.029   2.161 -0.2049 -1.5518 -4.1184
  4334G12c C02C80481  10.718   8.051   2.123  0.9531 -1.0451 -0.1226
  4334G12c H01A80482  10.684   8.150   2.100  3.6878  0.4423  2.0052
  4334G12c C02B80483  10.851   7.999   2.105  0.0142 -1.1511  0.0362
  4334G12c O00E80484  10.930   8.089   2.061 -0.9417  0.4433 -0.2107
  4334G12c H01B80485  10.996   8.045   2.010  0.4687  4.3155 -1.9240
  4334G12c C02F80486  10.885   7.865   2.097  1.5729  0.2800 -0.1856
  4334G12c O00F80487  11.004   7.825   2.034  1.1879  1.2582 -0.7112
  4334G12c C02G80488  11.070   7.707   2.068 -0.7537  0.8721 -1.5131
  4334G12c H01780489  11.168   7.685   2.110 -2.7475 -4.6549  0.7495
  4334G12c H01680490  11.128   7.687   1.978  2.4336 -0.0104  0.6307
  4334G12c H01580491  11.008   7.621   2.094 -1.2373  1.8881  0.8096
  4334G12c C02E80492  10.765   7.789   2.137  0.0125 -0.7598 -0.2118
  4334G12c H01880493  10.764   7.688   2.176  0.5886 -2.8188 -5.0818
  4334G12c C01F80494  10.232   7.950   1.974  0.4590 -0.9302 -0.8060
  4334G12c C01G80495  10.360   8.018   1.942  0.5448  0.0950 -0.9791
  4334G12c H00L80496  10.433   7.943   1.917 -1.0053 -1.5288 -0.6953
  4334G12c C01H80497  10.367   8.149   1.912 -0.5868 -2.0020  0.3664
  4334G12c H00B80498  10.436   8.141   1.829 -3.1186  0.8950 -2.1229
  4334G12c C01I80499  10.264   8.244   1.943  1.5254 -1.4006 -0.6888
  4334G12c C01U80500  10.137   8.049   1.992 -1.3006 -0.9523  0.6572
  4334G12c C00S80501   9.623   8.164   1.793 -0.8508  1.1721  0.4538
  4334G12c C00K80502   9.790   8.297   1.835 -0.1516  0.4462 -0.7062
  4334G12c C00N80503   9.999   8.029   1.986 -0.5335 -3.4930  1.6074
  4334G12c C00080504  10.159   8.191   2.018 -2.1550  0.8875 -0.7930
  4334G12c C01J80505  10.216   8.354   1.858 -1.1712  0.1718 -0.6266
  4334G12c C01K80506  10.305   8.447   1.782  1.2369 -1.4717 -1.1627
  4334G12c C01P80507  10.446   8.453   1.771 -0.6914 -1.7127 -0.7913
  4334G12c C01Q80508  10.530   8.399   1.883  1.8093 -0.9382 -0.5435
  4334G12c H00G80509  10.474   8.367   1.970  1.2919 -3.5593 -1.7747
  4334G12c C01R80510  10.655   8.349   1.887  1.5742 -0.6754 -0.3673
  4334G12c H00F80511  10.693   8.302   1.976 -2.1208  0.4450  1.8928
  4334G12c C01S80512  10.764   8.341   1.780 -0.0219 -0.1928  0.2297
  4334G12c H00E80513  10.794   8.434   1.734  1.9099 -2.4561 -3.3247
  4334G12c H00D80514  10.846   8.306   1.842  4.5005  1.9411 -4.2923
  4334G12c O00580515  10.763   8.253   1.669  0.6966 -0.4721  0.0810
  4334G12c H00C80516  10.753   8.163   1.697 -0.0777  0.4075  2.8654
  4334G12c C01O80517  10.503   8.533   1.667 -0.4064  1.6283 -0.0835
  4334G12c H00H80518  10.603   8.560   1.638  0.4288 -1.9263 -0.7734
  4334G12c C01N80519  10.413   8.581   1.568  1.3497  0.3828 -1.1923
  4334G12c O00680520  10.440   8.647   1.449  0.5453 -1.2725  0.3008
  4334G12c C01T80521  10.447   8.561   1.337  0.0277 -0.7518 -0.1473
  4334G12c H00K80522  10.481   8.614   1.248 -3.2964 -1.1493 -1.7456
  4334G12c H00J80523  10.513   8.475   1.331 -2.3783 -2.7099  0.8335
  4334G12c H00I80524  10.343   8.528   1.335  0.5758 -2.4719 -2.0076
  4334G12c C01M80525  10.273   8.591   1.598 -0.7411  0.0262  0.4440
  4334G12c C02080526   9.862   8.426   1.811  0.6202  0.5073  1.3071
  4334G12c C02180527   9.785   8.533   1.748 -0.1555 -0.4873 -0.5437
  4334G12c C01L80528  10.223   8.537   1.714 -0.7446 -1.8528  0.4497
  4334G12c O00780529  10.186   8.664   1.507  1.2597 -0.0529  0.5535
  4334G12c C02280530   9.853   8.616   1.661 -0.9690 -0.6584  0.6761
  4334G12c C02380531   9.679   8.485   1.668 -1.9469 -0.5611  0.5501
  4334G12c C00G80532   9.499   8.397   1.463 -0.6629 -0.3216  0.5228
  4334G12c C00E80533   9.351   8.425   1.277 -2.0026  0.6847  0.1443
  4334G12c O00A80534   9.232   8.415   1.211 -0.5109 -0.2069  0.3173
  4334G12c C02480535   9.147   8.516   1.236  1.0623  0.6172  0.6896
  4334G12c H00V80536   9.167   8.540   1.341  0.7903  4.9058 -0.1405
  4334G12c H00U80537   9.043   8.485   1.237  0.6772  1.8745  0.2141
  4334G12c H00T80538   9.161   8.600   1.168  0.3319  0.2954  0.1408
  4344G12c C00D80539   7.661   2.673  11.018 -0.5011  0.5042  0.9580
  4344G12c O00B80540   7.691   2.689  10.888 -0.2040  0.0005 -1.3352
  4344G12c C02580541   7.801   2.607  10.851  0.0198  0.6201 -0.5008
  4344G12c C02680542   7.758   2.449  10.837  0.3750  1.1242 -1.0477
  4344G12c H00Y80543   7.783   2.403  10.933 -4.6615  3.3639  1.5250
  4344G12c H00X80544   7.793   2.389  10.753  0.3610  1.6479 -1.4223
  4344G12c O00C80545   7.627   2.437  10.801 -2.1403 -1.2574 -0.0023
  4344G12c H00W80546   7.588   2.431  10.887  4.0711  2.9668  3.5149
  4344G12c C02780547   7.923   2.654  10.812  0.9655 -0.1059 -0.0269
  4344G12c O00D80548   7.933   2.777  10.792 -1.7225  0.2257  1.3970
  4344G12c H00Z80549   7.852   2.823  10.776 -2.5878 -2.2444 -2.0269
  4344G12c C02880550   8.024   2.556  10.827 -0.2630  1.1551  2.1391
  4344G12c C02980551   8.072   2.530  10.958 -1.3156 -0.1573 -1.1393
  4344G12c H01080552   8.021   2.599  11.024  1.7498  3.0430 -1.9325
  4344G12c C02T80553   8.173   2.434  10.989  0.2355  0.5712  0.3140
  4344G12c H01O80554   8.169   2.396  11.090 -1.7036  3.7771  1.5132
  4344G12c C02S80555   8.208   2.349  10.888  0.2100 -0.0237 -0.0758
  4344G12c O00J80556   8.285   2.227  10.911 -1.1544  0.8183  0.0630
  4344G12c H01P80557   8.276   2.174  10.833  2.7448  1.3578 -0.9052
  4344G12c C02R80558   8.195   2.386  10.758 -1.5146  1.6034  1.3227
  4344G12c O00I80559   8.227   2.300  10.653 -2.0596  1.2545  1.7166
  4344G12c C02Q80560   8.131   2.183  10.666  0.0974 -1.4205  0.8622
  4344G12c H01N80561   8.058   2.169  10.587  4.4365 -2.3145 -3.2478
  4344G12c H01R80562   8.069   2.146  10.747 -4.0514  3.6160  0.2031
  4344G12c H01Q80563   8.188   2.099  10.625  5.4234  1.2085  2.4183
  4344G12c C02A80564   8.088   2.481  10.732  1.3704 -0.0135  0.4537
  4344G12c H01180565   8.016   2.489  10.652  1.4766  6.1784  0.6714
  4344G12c C00C80566   7.730   2.599  11.109  0.0771 -1.3409 -0.6199
  4344G12c H01280567   7.816   2.538  11.085 -0.2246 -0.3864 -4.4502
  4344G12c C00B80568   7.711   2.610  11.252  0.1214 -0.6869  1.5704
  4344G12c C00A80569   7.796   2.559  11.355  1.3158 -0.0709  0.9024
  4344G12c C00980570   7.896   2.467  11.360 -0.7356  0.2479 -2.8914
  4344G12c C00880571   7.927   2.354  11.289  0.1441  1.1341 -0.2055
  4344G12c H01380572   7.902   2.338  11.185 -0.4955 -4.9959  0.7059
  4344G12c C00780573   8.006   2.254  11.359  1.1226 -0.7161  1.2342
  4344G12c H01480574   8.025   2.160  11.310 -5.5266 -1.8035  0.3006
  4344G12c C00680575   7.987   2.232  11.496 -0.9394  0.4192 -0.2891
  4344G12c C00580576   7.929   2.330  11.568 -1.1787 -0.2444 -0.3951
  4344G12c C00480577   7.918   2.323  11.713  1.0919  1.9758 -0.0163
  4344G12c C00380578   7.851   2.427  11.778 -0.2888  0.0585  1.3421
  4344G12c C00280579   7.810   2.395  11.914 -0.5802  1.3868  0.0682
  4344G12c C00180580   7.733   2.472  12.012  1.7923 -1.7965 -0.0104
  4344G12c C00M80581   7.612   2.519  11.964  0.1968 -1.1019  0.3270
  4344G12c C00L80582   7.596   2.612  11.863 -0.4200 -1.2606 -1.2068
  4344G12c C00R80583   7.466   2.650  11.824 -0.5166  1.8175  1.1172
  4344G12c C00Q80584   7.322   2.669  11.887  1.2373 -0.5080 -0.9836
  4344G12c C00V80585   7.231   2.714  11.794 -0.6072  0.0636 -0.8481
  4344G12c C00U80586   7.263   2.748  11.665 -0.6003 -1.1194 -0.1376
  4344G12c C00T80587   7.380   2.697  11.596  0.8786  0.3141 -0.5199
  4344G12c C01680588   7.426   2.728  11.464 -1.2032 -0.7579  0.1177
  4344G12c C01580589   7.348   2.774  11.367 -0.2084 -0.3971  0.9212
  4344G12c C01080590   7.218   2.816  11.422  0.0207 -0.0600 -0.7467
  4344G12c C01180591   7.143   2.889  11.322  1.3935  0.6099  0.3637
  4344G12c H00580592   7.036   2.905  11.323  0.9506 -1.6650 -2.9486
  4344G12c C01280593   7.192   2.934  11.201 -0.2986 -0.2470 -1.1570
  4344G12c C01780594   7.132   3.053  11.132 -0.9262  0.3572  0.8983
  4344G12c O00280595   7.020   3.100  11.174  0.2070  1.1602 -1.6888
  4344G12c H00480596   7.052   3.173  11.223  2.5504  2.8314 -5.5350
  4344G12c C01880597   7.214   3.150  11.078 -0.4737 -0.8840 -1.5319
  4344G12c O00180598   7.355   3.151  11.061 -1.9820 -0.6492 -0.0144
  4344G12c H00380599   7.373   3.240  11.086 -1.7873 -0.3381 -1.2639
  4344G12c C01980600   7.154   3.284  11.033 -1.6494 -1.0275  1.1849
  4344G12c H00280601   7.231   3.317  10.963 -2.7190  2.4081  1.5535
  4344G12c H00180602   7.049   3.271  11.009 -0.0100 -2.0990 -7.1763
  4344G12c O00080603   7.151   3.359  11.154  0.6826  0.0851 -0.5705
  4344G12c C01A80604   7.044   3.452  11.163  0.9753 -0.1629 -0.2349
  4344G12c C02K80605   7.000   3.496  11.293  2.2954 -0.2931 -0.9091
  4344G12c O00G80606   7.079   3.443  11.393  0.9156 -1.0378 -0.3443
  4344G12c C02M80607   7.007   3.376  11.478 -1.3186  0.8647 -1.6386
  4344G12c H01G80608   7.008   3.435  11.570 -0.4946  0.7962 -1.6070
  4344G12c H01F80609   6.899   3.363  11.475 -0.6530 -7.3736  0.3109
  4344G12c H01E80610   7.059   3.285  11.506  0.3303  2.3101  0.1843
  4344G12c C02J80611   6.876   3.579  11.294 -0.3593 -0.2754  0.0113
  4344G12c H01H80612   6.857   3.611  11.395  0.1183 -1.8398  0.6068
  4344G12c C02I80613   6.785   3.599  11.180  0.7171  0.6897  0.2263
  4344G12c C02N80614   6.672   3.688  11.193 -0.8172  0.2778 -0.2569
  4344G12c H01M80615   6.592   3.687  11.121  5.0301  5.9232 -7.6686
  4344G12c C02O80616   6.670   3.781  11.286 -0.3284  0.8912 -0.0138
  4344G12c H01L80617   6.751   3.806  11.353 -1.4761  3.7571  0.3595
  4344G12c C02P80618   6.564   3.884  11.289  0.2107 -1.1040  0.7077
  4344G12c H01K80619   6.493   3.840  11.359 -3.6330  3.5117 -0.0404
  4344G12c H01J80620   6.620   3.969  11.328  0.5866  0.2780 -2.6550
  4344G12c O00H80621   6.465   3.883  11.190  1.3522  0.9434  0.0403
  4344G12c H01I80622   6.395   3.819  11.192 -1.4962  3.5651 -5.2029
  4344G12c C02H80623   6.864   3.581  11.067 -1.6754 -1.9157  0.4543
  4344G12c H01C80624   6.811   3.603  10.976  1.6746  0.0026 -1.1154
  4344G12c C02L80625   6.998   3.514  11.060  0.5364 -0.6363 -0.3533
  4344G12c H01D80626   7.035   3.491  10.960 -2.9008  1.2137 -2.1216
  4344G12c C01380627   7.311   2.882  11.154  0.4228  0.8276 -0.0872
  4344G12c H00080628   7.326   2.910  11.051 -6.5109  0.8992 -1.2840
  4344G12c C01480629   7.391   2.819  11.242 -1.0208  0.3006 -0.0629
  4344G12c C00F80630   7.525   2.769  11.202  1.6382 -0.2961  0.2107
  4344G12c C00H80631   7.566   2.722  11.422  0.7241 -0.7176  0.0121
  4344G12c C00I80632   7.659   2.683  11.526  0.0702  1.0029  0.4807
  4344G12c C00J80633   7.611   2.701  11.650  0.1985  0.2296 -1.3628
  4344G12c C00Z80634   7.183   2.808  11.565  2.5081 -0.0042 -0.9081
  4344G12c C00Y80635   7.054   2.826  11.621  0.2863  0.2156 -0.6405
  4344G12c H00680636   6.993   2.847  11.534 -0.6837  0.1034  0.0044
  4344G12c C00X80637   7.012   2.797  11.754  0.7506 -0.0992  3.3774
  4344G12c O00380638   6.889   2.822  11.792 -0.2720  0.3215 -0.1897
  4344G12c C01B80639   6.842   2.946  11.740  1.0209 -0.5728 -0.4054
  4344G12c H00980640   6.868   3.015  11.820 -2.8446 -4.8949  5.0151
  4344G12c H00880641   6.738   2.936  11.771  0.7430 -1.8703 -1.6611
  4344G12c H00780642   6.852   2.982  11.638  1.5544 -2.7559 -1.1620
  4344G12c C00W80643   7.096   2.735  11.837  0.2907  0.1835  0.8409
  4344G12c O00480644   7.073   2.743  11.975 -0.5397 -0.3097 -1.4461
  4344G12c C01C80645   7.162   2.686  12.071  1.3156  0.6765 -0.3072
  4344G12c H00A80646   7.145   2.699  12.176  1.3496 -2.8649  0.1979
  4344G12c C00P80647   7.295   2.634  12.026  1.1788  1.3377 -0.9258
  4344G12c C00O80648   7.374   2.523  12.080 -0.0108  1.0061 -1.7158
  4344G12c C01D80649   7.313   2.435  12.169 -0.5545 -0.0223  0.7750
  4344G12c H00S80650   7.220   2.485  12.191 -0.3012  0.6028  0.4079
  4344G12c C01E80651   7.374   2.314  12.223  1.4610  0.8475  1.3213
  4344G12c O00880652   7.288   2.237  12.302 -0.2063  0.2036  1.0299
  4344G12c C01V80653   7.266   2.282  12.431  0.8175  0.2429  0.6924
  4344G12c C01Z80654   7.388   2.286  12.528  0.7278  0.4507 -0.6384
  4344G12c H00R80655   7.438   2.383  12.525  4.6516 -1.5481 -5.6919
  4344G12c H00Q80656   7.349   2.302  12.629 -1.3224  0.2378 -1.3615
  4344G12c O00980657   7.463   2.161  12.536  0.5685 -0.4635 -0.0225
  4344G12c H00P80658   7.520   2.175  12.610 -0.9787  1.4275  0.8393
  4344G12c C01W80659   7.149   2.344  12.432 -0.1517 -0.4094 -1.5976
  4344G12c H00O80660   7.071   2.317  12.361 -3.5134  4.1463  0.1314
  4344G12c C01X80661   7.104   2.428  12.538  0.4948 -0.0541  0.3199
  4344G12c H00N80662   7.030   2.365  12.586 -0.4113  0.8503  0.1366
  4344G12c H00M80663   7.182   2.463  12.606 -2.8896  2.6202  2.9718
  4344G12c C01Y80664   7.028   2.561  12.476 -1.9811 -1.5247  1.3508
  4344G12c C02D80665   7.040   2.685  12.557  0.3002  0.7163  0.5791
  4344G12c H01980666   7.104   2.669  12.643  8.8047  0.8500 -5.0731
  4344G12c C02C80667   6.937   2.777  12.570 -1.2654  0.3957 -0.0773
  4344G12c H01A80668   6.936   2.860  12.639  3.2862 -0.3830  1.0813
  4344G12c C02B80669   6.836   2.772  12.484  0.9433  1.3344  0.5482
  4344G12c O00E80670   6.732   2.850  12.497  0.8054 -1.1560  0.1404
  4344G12c H01B80671   6.669   2.861  12.428  1.3525  0.5550 -0.1069
  4344G12c C02F80672   6.837   2.673  12.370  1.2940 -0.0066  0.3366
  4344G12c O00F80673   6.703   2.676  12.292 -0.9486  1.8883 -0.3248
  4344G12c C02G80674   6.710   2.558  12.205 -0.6314  2.0019  0.5787
  4344G12c H01780675   6.699   2.468  12.264 -4.7080  1.9592 -0.0517
  4344G12c H01680676   6.782   2.546  12.125 -1.2763 -4.0230  0.7009
  4344G12c H01580677   6.603   2.575  12.191 -1.0783  1.7576  3.3253
  4344G12c C02E80678   6.927   2.580  12.370  0.4282 -0.0212  0.4089
  4344G12c H01880679   6.909   2.482  12.328 -2.2972  2.0630 -3.5504
  4344G12c C01F80680   7.500   2.299  12.210  0.0377  0.2402 -0.5499
  4344G12c C01G80681   7.575   2.179  12.241 -0.8184 -0.8360  2.0072
  4344G12c H00L80682   7.539   2.086  12.282  0.3964 -6.3243 -7.8418
  4344G12c C01H80683   7.710   2.164  12.182  0.8563  0.0744  1.1765
  4344G12c H00B80684   7.758   2.086  12.241  3.2335 -0.1894 -1.0271
  4344G12c C01I80685   7.756   2.256  12.083  0.2032 -0.1556 -2.1066
  4344G12c C01U80686   7.576   2.404  12.161  0.5563 -0.6988  0.3712
  4344G12c C00S80687   7.481   2.673  11.684 -0.2159  1.2597  0.8401
  4344G12c C00K80688   7.690   2.632  11.761  0.3115  0.9466 -0.6617
  4344G12c C00N80689   7.507   2.483  12.058 -1.4257 -0.6199 -1.0491
  4344G12c C00080690   7.705   2.393  12.117  0.2016  0.3637 -0.3593
  4344G12c C01J80691   7.856   2.266  11.978  1.3596  1.2029  2.0433
  4344G12c C01K80692   7.930   2.161  11.915 -0.0828  1.2296  1.2495
  4344G12c C01P80693   7.977   2.029  11.962 -0.0116  0.5654  2.1007
  4344G12c C01Q80694   7.965   1.982  12.095  0.6929 -0.7631  0.2030
  4344G12c H00G80695   7.987   2.030  12.189 -6.9223 -2.1188  3.0088
  4344G12c C01R80696   7.901   1.869  12.130 -1.1458  0.4720 -0.3605
  4344G12c H00F80697   7.891   1.876  12.237  1.9923  3.6047 -0.1763
  4344G12c C01S80698   7.833   1.746  12.043  0.4341 -0.6283 -0.1147
  4344G12c H00E80699   7.745   1.707  12.094  0.3070 -0.9350 -0.5642
  4344G12c H00D80700   7.792   1.767  11.943 -5.3684 -1.4356  1.8706
  4344G12c O00580701   7.927   1.629  12.037 -0.5109  1.1188  0.2363
  4344G12c H00C80702   7.960   1.599  12.120  1.3315 -1.6139 -1.4044
  4344G12c C01O80703   8.036   1.941  11.861  0.3268  0.4910  0.1351
  4344G12c H00H80704   8.065   1.845  11.901  1.7550  0.8177 -0.0644
  4344G12c C01N80705   8.025   1.974  11.719 -0.8427  0.6142 -2.2772
  4344G12c O00680706   8.100   1.886  11.622  1.3787 -1.9872  0.8672
  4344G12c C01T80707   8.232   1.947  11.559 -0.3058 -0.3284 -0.2661
  4344G12c H00K80708   8.216   2.004  11.467  0.7368  1.2736  0.5279
  4344G12c H00J80709   8.252   1.847  11.522  1.1197  0.5766 -2.0181
  4344G12c H00I80710   8.314   1.946  11.631 -2.3901 -1.0876  2.2022
  4344G12c C01M80711   7.994   2.101  11.690 -0.0753  0.9642  0.4347
  4344G12c C02080712   7.798   2.542  11.709 -1.3657  0.8764  0.3405
  4344G12c C02180713   7.859   2.559  11.580  1.2468  0.5806  0.2673
  4344G12c C01L80714   7.932   2.190  11.775 -0.2904  0.7603 -1.0159
  4344G12c O00780715   8.022   2.128  11.567 -0.3046  0.0130 -0.8491
  4344G12c C02280716   7.885   2.445  11.508  0.3617 -2.4555  1.0435
  4344G12c C02380717   7.777   2.609  11.477  0.2671  0.4813  0.4176
  4344G12c C00G80718   7.596   2.686  11.298 -0.4087  0.4891  0.3615
  4344G12c C00E80719   7.563   2.760  11.065  0.6476  0.2759  0.8945
  4344G12c O00A80720   7.508   2.828  10.980 -0.3773  0.2292  1.6703
  4344G12c C02480721   7.586   2.952  10.964 -0.9035  0.5744 -0.7322
  4344G12c H00V80722   7.503   3.015  10.931 -2.0223 -4.0485 -7.9405
  4344G12c H00U80723   7.694   2.951  10.953 -0.8613  0.5990 -0.3229
  4344G12c H00T80724   7.582   2.992  11.065 -1.4419 -2.9394  0.7144
  4354G12c C00D80725   6.265   7.618   3.482 -0.4774  0.0838 -0.0941
  4354G12c O00B80726   6.251   7.496   3.556  0.8167  0.0168  0.3164
  4354G12c C02580727   6.130   7.421   3.568  2.0057 -0.1310  0.1463
  4354G12c C02680728   6.099   7.404   3.708  0.3255  0.3906 -1.1196
  4354G12c H00Y80729   6.194   7.413   3.761  0.0540 -7.8748  1.4798
  4354G12c H00X80730   6.061   7.310   3.748  3.3546 -4.6685 -8.8701
  4354G12c O00C80731   5.999   7.492   3.762 -0.2602 -0.2547  0.7534
  4354G12c H00W80732   5.938   7.492   3.689 -1.5336  5.1906  1.5702
  4354G12c C02780733   6.090   7.348   3.463  0.6529 -0.1793 -0.8275
  4354G12c O00D80734   6.008   7.233   3.481  0.7389 -0.9026 -1.2119
  4354G12c H00Z80735   6.019   7.185   3.401 -1.1919 -0.2298 -1.9061
  4354G12c C02880736   6.153   7.364   3.330 -0.1633  0.1798  2.1792
  4354G12c C02980737   6.293   7.359   3.296  1.2429 -1.2533  0.7681
  4354G12c H01080738   6.364   7.352   3.377  3.8371 -4.0528 -1.6151
  4354G12c C02T80739   6.350   7.347   3.175  0.2473  0.3745 -0.1816
  4354G12c H01O80740   6.458   7.343   3.174  0.1830 -1.3853 -2.0586
  4354G12c C02S80741   6.263   7.385   3.062 -0.2837  0.8247 -0.4418
  4354G12c O00J80742   6.326   7.400   2.935  0.2178  1.9533  0.9119
  4354G12c H01P80743   6.272   7.431   2.864 -2.9090 -0.9415  1.8955
  4354G12c C02R80744   6.128   7.403   3.090  2.1250  0.3309 -0.2422
  4354G12c O00I80745   6.038   7.471   3.008 -0.5039 -2.0614  0.4722
  4354G12c C02Q80746   5.910   7.432   2.986  1.4369 -0.7341  0.0946
  4354G12c H01N80747   5.863   7.390   2.897 -0.5846 -0.4301  0.9741
  4354G12c H01R80748   5.849   7.523   2.985  2.2899 -0.1588 -0.6379
  4354G12c H01Q80749   5.881   7.356   3.058  3.6969 -1.9046 -0.2146
  4354G12c C02A80750   6.068   7.375   3.217  1.7857  1.7164 -2.2802
  4354G12c H01180751   5.965   7.401   3.238  3.4289  2.8664  6.6763
  4354G12c C00C80752   6.150   7.691   3.430  0.4064  0.4424 -0.2965
  4354G12c H01280753   6.063   7.645   3.476  0.8355  2.0065  2.1699
  4354G12c C00B80754   6.144   7.802   3.350 -0.6086  0.7708  0.0446
  4354G12c C00A80755   6.031   7.880   3.297 -0.0577 -0.2692 -0.6626
  4354G12c C00980756   5.893   7.840   3.302 -2.3809 -1.3115  0.9733
  4354G12c C00880757   5.823   7.714   3.305 -0.6178  0.2190  1.0301
  4354G12c H01380758   5.844   7.620   3.355 -0.5915 -1.7593 -2.5308
  4354G12c C00780759   5.699   7.719   3.229 -1.0233  0.2068  0.8702
  4354G12c H01480760   5.641   7.628   3.228  3.7817 -3.5727 -9.7507
  4354G12c C00680761   5.673   7.812   3.127  1.8123 -0.7035 -0.3003
  4354G12c C00580762   5.748   7.931   3.127 -0.2340  0.9301  0.1703
  4354G12c C00480763   5.739   8.031   3.026  1.0908  0.5053 -0.8407
  4354G12c C00380764   5.833   8.144   3.024  0.7143  1.1374 -0.9745
  4354G12c C00280765   5.822   8.229   2.905  1.6082  0.3661  0.3275
  4354G12c C00180766   5.904   8.340   2.849 -0.2031 -0.7875 -1.4134
  4354G12c C00M80767   6.047   8.321   2.817  0.8482  0.8199 -0.1235
  4354G12c C00L80768   6.107   8.249   2.924 -1.2517  0.1157 -1.7137
  4354G12c C00R80769   6.238   8.221   2.920 -1.0593 -2.3842  0.6379
  4354G12c C00Q80770   6.339   8.253   2.812  2.3098 -0.4512 -0.6730
  4354G12c C00V80771   6.460   8.179   2.830  1.1262  0.2262  0.7637
  4354G12c C00U80772   6.466   8.095   2.941 -0.2583  0.0237  0.2606
  4354G12c C00T80773   6.406   8.099   3.061  0.9842 -0.7030 -1.9720
  4354G12c C01680774   6.395   7.994   3.156  0.7744  0.2930  0.8274
  4354G12c C01580775   6.497   7.897   3.155  0.7609  0.2416  1.3664
  4354G12c C01080776   6.581   7.900   3.036  0.8234 -1.0384 -0.0693
  4354G12c C01180777   6.651   7.782   3.008  1.9820 -0.6839 -1.7400
  4354G12c H00580778   6.699   7.744   2.920 -4.7024 -6.7028 -3.2102
  4354G12c C01280779   6.649   7.666   3.095  0.6253 -0.9987  0.2309
  4354G12c C01780780   6.723   7.545   3.065  1.0900  0.8969  1.8307
  4354G12c O00280781   6.675   7.470   2.962  0.4584 -0.4258  0.7616
  4354G12c H00480782   6.742   7.426   2.913  1.3651  0.0603  1.5496
  4354G12c C01880783   6.828   7.513   3.136  1.1860  0.3971 -0.6653
  4354G12c O00180784   6.847   7.573   3.269  0.2286 -0.8324  0.5037
  4354G12c H00380785   6.812   7.657   3.243  2.4222  1.1166  3.4871
  4354G12c C01980786   6.896   7.402   3.108 -0.9972  0.5294  0.0394
  4354G12c H00280787   6.996   7.427   3.145 -1.0936 -1.1138  1.4494
  4354G12c H00180788   6.838   7.313   3.131 -1.8010  0.6827 -1.3392
  4354G12c O00080789   6.898   7.361   2.975 -0.3553  1.1623  0.9982
  4354G12c C01A80790   6.996   7.422   2.897 -0.9567  0.1342 -0.5907
  4354G12c C02K80791   7.087   7.535   2.912 -0.1699 -0.7978 -0.5240
  4354G12c O00G80792   7.092   7.613   3.029  1.4344  1.1578  1.0695
  4354G12c C02M80793   7.221   7.644   3.063  0.1872  0.6217 -0.6262
  4354G12c H01G80794   7.196   7.690   3.158  3.1366 -2.9824  2.0840
  4354G12c H01F80795   7.281   7.553   3.060 -0.7242 -0.0638  1.0744
  4354G12c H01E80796   7.255   7.718   2.991  3.2818 -4.1506 -4.4225
  4354G12c C02J80797   7.197   7.547   2.813  1.9560 -0.5560 -0.4240
  4354G12c H01H80798   7.296   7.588   2.823  2.6762 -2.1801 -0.6600
  4354G12c C02I80799   7.205   7.452   2.704 -0.3082 -0.6229 -1.2813
  4354G12c C02N80800   7.330   7.427   2.641 -0.6891  0.2635  0.5263
  4354G12c H01M80801   7.370   7.341   2.692  1.2373 -1.1499 -3.2121
  4354G12c C02O80802   7.353   7.468   2.520 -0.0775 -0.6189  0.6354
  4354G12c H01L80803   7.408   7.402   2.455  2.7242  3.7055 -1.5801
  4354G12c C02P80804   7.308   7.586   2.445 -1.2642 -0.4146 -0.6252
  4354G12c H01K80805   7.210   7.608   2.487  0.7224  2.0238  3.1303
  4354G12c H01J80806   7.368   7.675   2.425  3.8328 -4.0922 -2.6947
  4354G12c O00H80807   7.272   7.542   2.321 -1.4604 -0.2532  0.5589
  4354G12c H01I80808   7.297   7.454   2.297  2.1632  1.5566 -3.0312
  4354G12c C02H80809   7.099   7.365   2.673 -2.0082  0.8320 -0.8065
  4354G12c H01C80810   7.100   7.291   2.593  2.1626 -0.4982  0.3627
  4354G12c C02L80811   6.993   7.351   2.766 -0.6289  0.7106 -0.4732
  4354G12c H01D80812   6.910   7.282   2.762  3.9652 -5.4210  2.1540
  4354G12c C01380813   6.581   7.676   3.217 -0.7411 -0.8323  1.2931
  4354G12c H00080814   6.591   7.599   3.292 -2.8774 -4.0667 -1.6162
  4354G12c C01480815   6.507   7.787   3.252  0.1265  0.2973  0.1912
  4354G12c C00F80816   6.391   7.771   3.345  0.3176 -1.7219  0.6714
  4354G12c C00H80817   6.275   7.975   3.234 -0.3766 -0.5786 -1.1020
  4354G12c C00I80818   6.169   8.056   3.217  0.6981 -0.6345 -0.9286
  4354G12c C00J80819   6.176   8.164   3.132  1.0990  0.7729 -0.4385
  4354G12c C00Z80820   6.574   8.004   2.932 -0.0301 -1.1382 -0.6572
  4354G12c C00Y80821   6.675   8.016   2.835  0.5398 -1.3277 -0.2902
  4354G12c H00680822   6.759   7.948   2.821 -4.1028 -7.1197 -2.3804
  4354G12c C00X80823   6.655   8.094   2.718  0.7562 -0.4911 -0.8471
  4354G12c O00380824   6.711   8.069   2.588 -0.0601  0.0179  0.1447
  4354G12c C01B80825   6.774   7.939   2.562  0.8132 -0.5761  0.0287
  4354G12c H00980826   6.766   7.901   2.460 -0.4204  3.3066 -1.4404
  4354G12c H00880827   6.703   7.860   2.586 -4.2844  3.0161 -2.2013
  4354G12c H00780828   6.875   7.910   2.590  0.3888 -2.8988 -0.7617
  4354G12c C00W80829   6.548   8.182   2.723 -2.5022 -0.3246  0.4366
  4354G12c O00480830   6.559   8.309   2.661 -1.4306 -1.1835  0.0447
  4354G12c C01C80831   6.450   8.336   2.602 -0.2420 -0.3163  0.1971
  4354G12c H00A80832   6.429   8.435   2.563 -0.0560  0.8295  2.8704
  4354G12c C00P80833   6.327   8.302   2.671 -0.7253 -0.3586  0.7255
  4354G12c C00O80834   6.194   8.298   2.613  0.3834 -0.2772 -0.5802
  4354G12c C01D80835   6.184   8.304   2.477  0.1689 -0.1882  0.6859
  4354G12c H00S80836   6.278   8.281   2.429 -0.5288  1.6747 -1.6856
  4354G12c C01E80837   6.061   8.315   2.409 -0.8320  0.8182  0.3556
  4354G12c O00880838   6.044   8.297   2.270 -1.6155  0.6930  0.3772
  4354G12c C01V80839   6.043   8.418   2.205  0.6207 -0.4437  0.0315
  4354G12c C01Z80840   6.103   8.389   2.056  0.2528 -1.0689 -1.0344
  4354G12c H00R80841   6.189   8.322   2.061  1.2063  0.1069 -1.5811
  4354G12c H00Q80842   6.154   8.485   2.054  3.4799 -2.7685 -3.5543
  4354G12c O00980843   6.034   8.315   1.973 -0.5500  0.7718 -1.7686
  4354G12c H00P80844   6.001   8.369   1.903  0.1574  1.3534 -1.6630
  4354G12c C01W80845   5.968   8.521   2.240 -0.2569  0.7016 -0.5318
  4354G12c H00O80846   5.916   8.528   2.334 -0.7935  5.9385 -1.0325
  4354G12c C01X80847   5.911   8.620   2.133 -1.1900 -0.7479  0.3935
  4354G12c H00N80848   5.889   8.566   2.041  2.2913  2.7840 -2.7183
  4354G12c H00M80849   5.833   8.685   2.172 -5.7136 -6.6325  1.9092
  4354G12c C01Y80850   6.034   8.703   2.117  0.1914  0.9427  1.2173
  4354G12c C02D80851   6.096   8.740   1.995  0.6699 -0.1557 -0.8975
  4354G12c H01980852   6.038   8.725   1.905 -3.4539 -5.5928  2.3733
  4354G12c C02C80853   6.221   8.787   1.998  0.0322 -0.0335  0.2586
  4354G12c H01A80854   6.274   8.783   1.904 -0.9635  2.9959 -0.4774
  4354G12c C02B80855   6.268   8.855   2.102  1.0588 -0.6951 -0.5873
  4354G12c O00E80856   6.381   8.918   2.085  1.3484  1.4085 -1.0326
  4354G12c H01B80857   6.371   9.004   2.123 -2.1558 -0.4238  2.5143
  4354G12c C02F80858   6.186   8.861   2.219  0.0147  0.0150 -0.1524
  4354G12c O00F80859   6.204   8.934   2.331 -0.8800  0.9492 -0.0208
  4354G12c C02G80860   6.274   8.857   2.416 -0.2229 -1.6993 -1.1578
  4354G12c H01780861   6.322   8.771   2.370  4.9548  0.3782 -0.0122
  4354G12c H01680862   6.200   8.825   2.489  2.0031 -5.2458 -0.3760
  4354G12c H01580863   6.363   8.903   2.459  1.2507 -6.8416  1.6704
  4354G12c C02E80864   6.074   8.759   2.230 -1.0381 -1.4587 -0.5612
  4354G12c H01880865   5.996   8.751   2.304 -3.3305 -1.1975 -2.8651
  4354G12c C01F80866   5.941   8.298   2.494  0.4963  0.1694  1.4774
  4354G12c C01G80867   5.829   8.234   2.462  0.3973  0.7958 -0.4137
  4354G12c H00L80868   5.814   8.194   2.363  4.2612  2.1198 -1.6110
  4354G12c C01H80869   5.711   8.225   2.560 -0.1505  1.3080 -0.5301
  4354G12c H00B80870   5.643   8.141   2.553 -0.8519  1.5263  2.6938
  4354G12c C01I80871   5.762   8.249   2.695  0.6444 -1.2939  0.5968
  4354G12c C01U80872   5.956   8.337   2.627 -1.2008  0.0882  1.2000
  4354G12c C00S80873   6.291   8.189   3.056  0.7217 -1.6994  0.5322
  4354G12c C00K80874   6.064   8.188   3.038 -1.1497  0.4267 -0.7413
  4354G12c C00N80875   6.075   8.317   2.681 -0.1256  1.8150  0.2117
  4354G12c C00080876   5.857   8.351   2.714  0.6111 -0.8326 -1.1163
  4354G12c C01J80877   5.705   8.205   2.822 -0.3860  1.5650  1.1998
  4354G12c C01K80878   5.595   8.116   2.862 -0.8655  0.2680 -0.0233
  4354G12c C01P80879   5.468   8.119   2.805 -0.7927 -0.2759 -0.2380
  4354G12c C01Q80880   5.408   8.229   2.742  0.3997 -0.0974 -1.5905
  4354G12c H00G80881   5.450   8.299   2.671 -0.6010  6.3261  3.6959
  4354G12c C01R80882   5.325   8.302   2.816  1.6677  1.5528  0.6396
  4354G12c H00F80883   5.267   8.269   2.901  1.1395 -2.4736 -1.2030
  4354G12c C01S80884   5.315   8.458   2.805 -0.4569  0.2305  0.3548
  4354G12c H00E80885   5.210   8.477   2.783 -0.6591 -1.4667 -0.1674
  4354G12c H00D80886   5.299   8.523   2.892 -3.4307  2.1649 -1.5419
  4354G12c O00580887   5.376   8.528   2.700  0.2227  0.7820 -0.9895
  4354G12c H00C80888   5.339   8.544   2.614 -2.0598  1.0227  0.0085
  4354G12c C01O80889   5.384   8.017   2.814 -0.3208  1.1700  2.3420
  4354G12c H00H80890   5.276   8.016   2.820 -0.6171 -1.0535 -1.3524
  4354G12c C01N80891   5.397   7.905   2.905 -1.4130  0.1637  0.0955
  4354G12c O00680892   5.284   7.845   2.953  0.1269  1.9695  1.3921
  4354G12c C01T80893   5.241   7.883   3.084 -2.6818 -0.1901  0.7052
  4354G12c H00K80894   5.141   7.840   3.087 -7.0003  8.3257 -3.4378
  4354G12c H00J80895   5.235   7.989   3.106  5.6922  0.2310  2.6114
  4354G12c H00I80896   5.310   7.856   3.164 -0.9687 -1.8673 -1.2800
  4354G12c C01M80897   5.527   7.918   2.975 -1.0689 -2.0497  0.7557
  4354G12c C02080898   5.947   8.147   3.108 -0.8075 -0.4367 -0.0315
  4354G12c C02180899   5.932   8.049   3.207 -1.9553  0.6377 -0.1498
  4354G12c C01L80900   5.633   8.009   2.939  0.5759  0.2920 -0.2853
  4354G12c O00780901   5.553   7.809   3.057 -0.3375  0.0163 -1.3199
  4354G12c C02280902   5.841   7.946   3.236  0.7051 -1.6323  1.4506
  4354G12c C02380903   6.056   8.007   3.255 -0.6469  1.1410 -1.1848
  4354G12c C00G80904   6.277   7.851   3.310 -0.7490  1.0100 -2.2041
  4354G12c C00E80905   6.380   7.662   3.438  0.3236 -2.1748 -0.7131
  4354G12c O00A80906   6.486   7.618   3.504  0.1148 -1.3470  1.3965
  4354G12c C02480907   6.584   7.725   3.555  1.3303  0.3544 -0.0672
  4354G12c H00V80908   6.592   7.812   3.489  4.6424  1.9874  2.3168
  4354G12c H00U80909   6.687   7.690   3.547  1.2079 -0.1827  0.7236
  4354G12c H00T80910   6.604   7.745   3.660 -6.7244 -4.3273  2.7574
  4364G12c C00D80911   9.205   7.113   0.799 -0.0253 -1.9820  0.6092
  4364G12c O00B80912   9.337   7.046   0.818 -0.0388 -1.3154  1.5315
  4364G12c C02580913   9.372   7.064   0.951  0.0705  1.4732 -0.1705
  4364G12c C02680914   9.439   7.197   0.976  1.0892  1.8660 -0.9561
  4364G12c H00Y80915   9.397   7.255   1.058  1.8299  4.2404 -2.1906
  4364G12c H00X80916   9.446   7.238   0.875  5.5782  1.9351 -0.7148
  4364G12c O00C80917   9.568   7.162   0.997 -0.0546 -0.4948 -0.7849
  4364G12c H00W80918   9.623   7.220   0.946  1.0180 -2.7940 -2.3222
  4364G12c C02780919   9.352   6.974   1.053  1.0900  1.1244  1.5000
  4364G12c O00D80920   9.266   6.879   0.974 -1.3886  0.4667  1.5653
  4364G12c H00Z80921   9.256   6.883   0.880 -2.9972 -4.0834  1.4446
  4364G12c C02880922   9.383   6.968   1.188 -0.3983 -0.5080 -0.8067
  4364G12c C02980923   9.396   7.074   1.280 -0.6936 -0.2549  0.0103
  4364G12c H01080924   9.369   7.172   1.243 -0.9254  0.0029  0.8420
  4364G12c C02T80925   9.416   7.065   1.422 -1.2417  1.0525 -2.0306
  4364G12c H01O80926   9.383   7.133   1.498 -1.5479 -5.0550  3.7330
  4364G12c C02S80927   9.401   6.917   1.468  0.5434  0.9630 -0.0929
  4364G12c O00J80928   9.450   6.897   1.592 -0.4913  0.1887 -0.1765
  4364G12c H01P80929   9.532   6.849   1.593 -1.7357 -2.1890  4.6148
  4364G12c C02R80930   9.385   6.804   1.377  0.8722 -0.5093 -0.6620
  4364G12c O00I80931   9.379   6.676   1.424  0.7704 -1.0728  0.2580
  4364G12c C02Q80932   9.382   6.561   1.335  2.4992 -1.1420  0.4885
  4364G12c H01N80933   9.476   6.556   1.279  2.4531 -1.2605  0.4218
  4364G12c H01R80934   9.349   6.471   1.388  0.9331 -0.7239  0.2411
  4364G12c H01Q80935   9.314   6.612   1.267 -0.3181 -2.1839  2.4570
  4364G12c C02A80936   9.389   6.841   1.230 -0.5898  0.4306 -0.8299
  4364G12c H01180937   9.394   6.750   1.172 -6.4422  2.9171 -5.9190
  4364G12c C00C80938   9.148   7.224   0.864 -0.1623 -0.6302  0.5600
  4364G12c H01280939   9.194   7.233   0.961  3.4182 -4.1524 -0.6696
  4364G12c C00B80940   9.010   7.271   0.832  0.5309  0.1344  0.0645
  4364G12c C00A80941   8.933   7.358   0.926  0.9436  0.2454 -1.4388
  4364G12c C00980942   8.932   7.394   1.058 -0.0130  0.8842  0.1365
  4364G12c C00880943   9.037   7.380   1.152  0.0364  1.0604 -0.2551
  4364G12c H01380944   9.134   7.350   1.113 -2.6414 -0.2290 -6.5551
  4364G12c C00780945   9.018   7.356   1.291  0.6555 -0.9938 -1.0867
  4364G12c H01480946   9.106   7.355   1.353  2.1410 -5.4246 -3.0743
  4364G12c C00680947   8.876   7.367   1.335  0.8861  1.0240 -0.0209
  4364G12c C00580948   8.771   7.367   1.237 -0.7132  0.3954  0.2925
  4364G12c C00480949   8.637   7.350   1.254  2.3918  0.9820 -0.7963
  4364G12c C00380950   8.552   7.364   1.145 -0.7359 -0.5905 -0.2849
  4364G12c C00280951   8.419   7.308   1.168 -0.4384 -0.2354 -0.5986
  4364G12c C00180952   8.309   7.283   1.086 -1.1847 -0.3976  1.1304
  4364G12c C00M80953   8.308   7.226   0.956 -0.9544  1.0953 -0.5353
  4364G12c C00L80954   8.401   7.269   0.867 -0.0076  0.9128 -1.2545
  4364G12c C00R80955   8.424   7.188   0.752 -0.3144 -2.5624 -1.2358
  4364G12c C00Q80956   8.342   7.093   0.678 -0.7312  0.0847 -0.6341
  4364G12c C00V80957   8.395   7.050   0.545 -1.3000  1.1537  0.7408
  4364G12c C00U80958   8.536   7.065   0.521 -0.7426  0.5917 -1.1966
  4364G12c C00T80959   8.609   7.126   0.611  0.4447 -0.0399  1.1240
  4364G12c C01680960   8.743   7.139   0.605 -0.5982  0.4866  1.4811
  4364G12c C01580961   8.822   7.074   0.510 -0.2897 -0.8925  0.9764
  4364G12c C01080962   8.753   7.023   0.405 -0.8999  1.3786 -3.2743
  4364G12c C01180963   8.821   6.938   0.322  0.0273 -1.9696  0.8523
  4364G12c H00580964   8.783   6.884   0.237  0.4603  1.3738 -1.5547
  4364G12c C01280965   8.963   6.947   0.314 -0.0326  1.8647 -0.1012
  4364G12c C01780966   9.021   6.911   0.187  0.1867  0.8683 -1.3260
  4364G12c O00280967   8.950   6.962   0.077 -1.8978  0.6421  0.7948
  4364G12c H00480968   8.921   7.050   0.093 -0.1090  1.7315 -1.7207
  4364G12c C01880969   9.137   6.834   0.181 -0.2505 -0.6059  0.3681
  4364G12c O00180970   9.211   6.789   0.282 -0.6034 -0.8396 -0.7872
  4364G12c H00380971   9.296   6.821   0.307 -0.5460 -1.6811  0.0921
  4364G12c C01980972   9.178   6.809   0.034 -0.5444 -3.4421 -1.3894
  4364G12c H00280973   9.082   6.796  -0.015 -1.0195  0.4629 -1.6813
  4364G12c H00180974   9.256   6.874  -0.007 -2.3389 -0.8683 -0.7925
  4364G12c O00080975   9.239   6.689  -0.028 -0.0850 -1.2122  1.3493
  4364G12c C01A80976   9.189   6.564   0.025  1.5986 -0.5362 -1.4759
  4364G12c C02K80977   9.070   6.517  -0.017 -1.0526 -1.3160 -0.4260
  4364G12c O00G80978   8.997   6.590  -0.104  0.2880 -0.1571 -0.1926
  4364G12c C02M80979   9.019   6.584  -0.236 -0.1850 -1.0645 -0.5834
  4364G12c H01G80980   8.998   6.677  -0.290 -5.2305 -0.5782  1.9600
  4364G12c H01F80981   9.125   6.583  -0.262 -0.0265  0.0697 -0.0121
  4364G12c H01E80982   8.976   6.504  -0.296 -1.4346  1.9721 -3.9506
  4364G12c C02J80983   9.037   6.397   0.021 -0.3267  0.1504 -0.6929
  4364G12c H01H80984   8.945   6.355  -0.016 -0.5149  0.7902 -0.9647
  4364G12c C02I80985   9.102   6.304   0.113 -1.1800 -1.5080  1.5176
  4364G12c C02N80986   9.045   6.190   0.165  1.3078 -1.4137 -0.8138
  4364G12c H01M80987   9.025   6.113   0.092  1.2471 -2.1039 -0.0871
  4364G12c C02O80988   9.018   6.192   0.298 -0.3225  1.2791  2.3762
  4364G12c H01L80989   9.066   6.273   0.351  0.9118  0.3532  2.6844
  4364G12c C02P80990   8.957   6.075   0.373  1.0136  0.4176 -0.9761
  4364G12c H01K80991   8.861   6.100   0.419  1.3146  5.4829 -2.8863
  4364G12c H01J80992   8.941   5.981   0.320 -2.2413 -2.0858  4.0076
  4364G12c O00H80993   9.065   6.068   0.467 -0.9776 -0.9785 -0.4376
  4364G12c H01I80994   9.054   6.125   0.542 -0.4584  4.5469 -4.2830
  4364G12c C02H80995   9.226   6.366   0.166 -0.9621  1.2791  1.0832
  4364G12c H01C80996   9.277   6.319   0.249 -0.0598 -4.8730 -2.5892
  4364G12c C02L80997   9.281   6.483   0.114  0.6034 -0.0338  1.1460
  4364G12c H01D80998   9.386   6.496   0.136  2.1814 -6.7570 -1.1756
  4364G12c C01380999   9.033   7.017   0.409 -0.8318 -0.4560 -0.3252
  4364G12c H00081000   9.137   7.039   0.390 -0.7554 -2.5445 -2.6086
  4364G12c C01481001   8.962   7.074   0.513 -1.1662 -1.2695  0.2868
  4364G12c C00F81002   9.025   7.137   0.631  1.0522  0.8087 -0.0254
  4364G12c C00H81003   8.800   7.223   0.695 -0.2430  0.3998 -1.5644
  4364G12c C00I81004   8.730   7.316   0.777  0.1281  0.0328  0.4379
  4364G12c C00J81005   8.620   7.257   0.804 -0.4238  1.1078 -2.5910
  4364G12c C00Z81006   8.607   7.008   0.409  1.1934  1.4170 -1.8282
  4364G12c C00Y81007   8.507   6.982   0.299  1.3781  0.0728 -0.8584
  4364G12c H00681008   8.550   6.960   0.203 -1.7450 -2.4502 -1.7617
  4364G12c C00X81009   8.363   6.977   0.319 -1.8741  1.3163 -0.3067
  4364G12c O00381010   8.271   6.982   0.216  0.9188  0.0106  0.3344
  4364G12c C01B81011   8.294   6.992   0.071  0.1789 -0.7563  0.4458
  4364G12c H00981012   8.273   7.099   0.064  2.5184 -0.4187 -2.7828
  4364G12c H00881013   8.203   6.963   0.019  0.0271 -1.0930  0.9004
  4364G12c H00781014   8.359   6.918   0.023 -3.5168 -0.3320 -5.6330
  4364G12c C00W81015   8.307   7.000   0.451 -0.4180 -0.2557 -0.4879
  4364G12c O00481016   8.175   6.974   0.512 -0.2288  0.0815  0.2927
  4364G12c C01C81017   8.163   6.919   0.643 -0.2837  0.2483  0.8630
  4364G12c H00A81018   8.123   6.829   0.686  4.1696 -3.3954 -2.1675
  4364G12c C00P81019   8.240   6.993   0.732  1.2745 -0.7339  1.8581
  4364G12c C00O81020   8.190   7.008   0.872  1.3875 -1.2797 -0.6551
  4364G12c C01D81021   8.089   6.921   0.906 -1.1238 -0.9853  1.8263
  4364G12c H00S81022   8.008   6.875   0.850 -0.2532  1.0672 -1.3058
  4364G12c C01E81023   8.082   6.896   1.048  0.2549 -0.9158 -0.2664
  4364G12c O00881024   8.025   6.786   1.086  0.5910  0.2080 -1.4761
  4364G12c C01V81025   8.023   6.670   1.012 -1.2529 -1.0567 -2.1707
  4364G12c C01Z81026   7.899   6.618   0.929  1.3287 -1.4314 -0.6632
  4364G12c H00R81027   7.833   6.702   0.952 -2.0583 -4.4156  1.1426
  4364G12c H00Q81028   7.866   6.640   0.828 -3.6279  5.7592  2.1094
  4364G12c O00981029   7.836   6.510   1.004 -0.0851  0.7825  0.5451
  4364G12c H00P81030   7.912   6.502   1.059  3.0202 -2.1128 -3.8835
  4364G12c C01W81031   8.131   6.601   1.002  0.3434 -0.5443 -0.0876
  4364G12c H00O81032   8.145   6.522   0.930 -1.7094  0.3023 -1.4394
  4364G12c C01X81033   8.268   6.638   1.070  0.9598  0.2721 -0.5871
  4364G12c H00N81034   8.238   6.656   1.173  0.7863 -4.5696  0.3554
  4364G12c H00M81035   8.339   6.556   1.059  1.3857  0.7622 -1.5023
  4364G12c C01Y81036   8.371   6.734   1.034  0.0001  0.4749  1.4385
  4364G12c C02D81037   8.420   6.846   1.094  0.0098 -0.5479  0.6686
  4364G12c H01981038   8.393   6.867   1.197  2.7269  3.2185  0.7168
  4364G12c C02C81039   8.520   6.909   1.017  2.0478  1.8386 -2.7811
  4364G12c H01A81040   8.534   7.009   1.055  0.0709  1.2850 -0.5123
  4364G12c C02B81041   8.568   6.863   0.891 -1.4270 -0.3286 -1.3076
  4364G12c O00E81042   8.699   6.923   0.861  0.6911  1.7608  0.0228
  4364G12c H01B81043   8.722   6.958   0.776  3.1155 -3.0360 -1.5022
  4364G12c C02F81044   8.519   6.754   0.835 -1.4810 -0.0959 -0.2762
  4364G12c O00F81045   8.547   6.727   0.690 -0.5469 -0.7311  0.5012
  4364G12c C02G81046   8.487   6.609   0.633 -0.0245  0.1431 -0.3648
  4364G12c H01781047   8.512   6.598   0.528 -5.4901  1.3884 -1.9275
  4364G12c H01681048   8.534   6.531   0.694  4.4368 -2.2610 -6.3829
  4364G12c H01581049   8.381   6.612   0.656 -0.1135 -3.4075  0.0557
  4364G12c C02E81050   8.417   6.691   0.897 -0.3296 -0.6140 -0.9464
  4364G12c H01881051   8.363   6.618   0.839 -0.7771 -1.1352  0.1108
  4364G12c C01F81052   8.121   6.994   1.140 -0.9211  1.3019  1.2378
  4364G12c C01G81053   8.145   6.982   1.279  1.3309 -0.2089 -0.4853
  4364G12c H00L81054   8.140   6.886   1.329 -2.4952  3.0036  6.0853
  4364G12c C01H81055   8.182   7.094   1.359 -0.5124  1.2921 -1.6640
  4364G12c H00B81056   8.214   7.073   1.460  0.3327  3.5652 -1.4204
  4364G12c C01I81057   8.255   7.198   1.288  0.4224  1.5836  0.0392
  4364G12c C01U81058   8.151   7.123   1.086 -0.7463 -0.4765 -0.8728
  4364G12c C00S81059   8.552   7.185   0.710  0.2382  0.6747  1.3670
  4364G12c C00K81060   8.521   7.311   0.904 -0.2143 -0.5285 -0.9332
  4364G12c C00N81061   8.211   7.121   0.958 -0.1815 -0.6411  0.6364
  4364G12c C00081062   8.209   7.218   1.159 -0.8290  0.9969  1.3142
  4364G12c C01J81063   8.380   7.280   1.309  0.8727  0.5930 -0.6835
  4364G12c C01K81064   8.460   7.315   1.435 -0.5851 -0.3626 -1.2036
  4364G12c C01P81065   8.434   7.305   1.572 -0.9522  1.5529 -1.5167
  4364G12c C01Q81066   8.307   7.288   1.637  1.6423 -0.2782 -0.2337
  4364G12c H00G81067   8.277   7.193   1.681  1.9717 -1.0442 -1.6414
  4364G12c C01R81068   8.260   7.403   1.687 -0.0467 -1.4935  1.0375
  4364G12c H00F81069   8.309   7.483   1.634  0.5734 -3.9892 -2.3778
  4364G12c C01S81070   8.189   7.422   1.808  0.3640  0.4660 -1.2059
  4364G12c H00E81071   8.215   7.343   1.878 -1.5498  1.0824  0.2492
  4364G12c H00D81072   8.235   7.494   1.875  0.0473 -2.9895  2.8960
  4364G12c O00581073   8.045   7.472   1.771 -1.4745  1.0620  0.0877
  4364G12c H00C81074   8.055   7.501   1.681 -4.0107 -0.6097 -0.8109
  4364G12c C01O81075   8.549   7.292   1.656 -0.3373 -0.3935 -0.6594
  4364G12c H00H81076   8.522   7.250   1.751 -2.8614  3.1242  0.2732
  4364G12c C01N81077   8.683   7.330   1.620  1.5682  1.4642  2.3527
  4364G12c O00681078   8.786   7.350   1.706 -1.1795  0.8312  0.0682
  4364G12c C01T81079   8.735   7.427   1.817 -1.4721  0.2149  0.3166
  4364G12c H00K81080   8.735   7.526   1.771 -0.3486 -0.7373 -1.7980
  4364G12c H00J81081   8.822   7.418   1.881 -4.2558 -0.3789  4.2040
  4364G12c H00I81082   8.640   7.396   1.861 -3.8268 -5.0178 -7.2545
  4364G12c C01M81083   8.704   7.337   1.483 -0.0467 -1.9532  0.1091
  4364G12c C02081084   8.589   7.360   1.010 -0.4762  0.4335  0.0407
  4364G12c C02181085   8.723   7.402   1.004 -1.6750  1.9175  0.6916
  4364G12c C01L81086   8.592   7.331   1.390 -2.1496 -0.7856 -1.1029
  4364G12c O00781087   8.840   7.359   1.452 -0.4493 -0.0394 -0.7597
  4364G12c C02281088   8.808   7.399   1.108 -0.2728 -0.4367 -0.1092
  4364G12c C02381089   8.794   7.381   0.886 -0.1475 -0.2240  0.7273
  4364G12c C00G81090   8.938   7.215   0.716  0.1067  1.0337  0.1951
  4364G12c C00E81091   9.129   7.071   0.687 -0.8131  0.2860 -0.5874
  4364G12c O00A81092   9.178   6.949   0.660 -0.0548 -0.2908 -0.1940
  4364G12c C02481093   9.113   6.840   0.713  0.2819  2.1344  0.0999
  4364G12c H00V81094   9.080   6.843   0.816  5.0990 -1.8420  2.0058
  4364G12c H00U81095   9.154   6.739   0.715  1.4713  2.6154  5.6799
  4364G12c H00T81096   9.024   6.808   0.658 -1.3750  2.6712  2.4098
  4374G12c C00D81097  11.182   7.127   4.756  0.8722 -0.3112  0.6405
  4374G12c O00B81098  11.247   7.139   4.877  0.7955  0.3125 -0.1736
  4374G12c C02581099  11.208   7.060   4.981  0.1260 -0.6266 -0.2883
  4374G12c C02681100  11.263   6.914   4.941  1.8093 -0.3883 -1.2155
  4374G12c H00Y81101  11.215   6.896   4.845  0.8407  3.4609 -1.5284
  4374G12c H00X81102  11.238   6.828   5.003  2.2708 -2.7705 -4.2243
  4374G12c O00C81103  11.406   6.908   4.897 -0.8396 -0.1012 -1.5522
  4374G12c H00W81104  11.418   6.987   4.847  5.6285 -3.2088 -5.6291
  4374G12c C02781105  11.142   7.100   5.093 -1.4542 -0.5551  0.7259
  4374G12c O00D81106  11.092   7.230   5.101 -0.9525 -0.1561  1.1554
  4374G12c H00Z81107  11.139   7.274   5.032 -0.3730  0.4667  1.9366
  4374G12c C02881108  11.106   6.984   5.190 -1.5676  0.7621 -0.7119
  4374G12c C02981109  11.018   6.872   5.188  1.3892 -2.2529  0.7768
  4374G12c H01081110  10.984   6.843   5.089 -3.8617  6.0728 -0.3824
  4374G12c C02T81111  10.951   6.833   5.298  0.4985 -0.3861 -1.7761
  4374G12c H01O81112  10.861   6.778   5.278 -2.3774  3.6799 -0.6251
  4374G12c C02S81113  10.982   6.870   5.430 -0.0698  2.0490  0.0544
  4374G12c O00J81114  10.894   6.877   5.523  0.4673  0.2095  0.1028
  4374G12c H01P81115  10.934   6.942   5.579  0.5292 -0.4889  0.8905
  4374G12c C02R81116  11.084   6.953   5.448 -0.0351 -0.9675 -0.0364
  4374G12c O00I81117  11.136   6.957   5.582  0.9660  1.6574 -0.9788
  4374G12c C02Q81118  11.094   7.079   5.632 -0.2569 -0.7072  0.3196
  4374G12c H01N81119  11.182   7.144   5.631  0.7265 -1.8792  3.4560
  4374G12c H01R81120  10.991   7.113   5.628 -0.0857  0.6901  4.8844
  4374G12c H01Q81121  11.088   7.051   5.737  2.3918 -2.0268  0.1669
  4374G12c C02A81122  11.150   7.010   5.334 -0.5655  0.4601 -0.1083
  4374G12c H01181123  11.213   7.096   5.348  0.1891 -0.7094  4.4005
  4374G12c C00C81124  11.043   7.152   4.766  0.1701  0.5702  0.3114
  4374G12c H01281125  11.023   7.175   4.870  5.3918 -0.6326  1.7840
  4374G12c C00B81126  10.970   7.180   4.652  0.0167  0.5818  3.2543
  4374G12c C00A81127  10.836   7.227   4.624 -2.5048 -0.1441 -0.6915
  4374G12c C00981128  10.727   7.249   4.717 -0.0031 -0.3394 -0.7603
  4374G12c C00881129  10.703   7.253   4.855  0.2398 -1.7294 -0.7737
  4374G12c H01381130  10.788   7.273   4.919  4.9551  0.8267 -7.3260
  4374G12c C00781131  10.572   7.243   4.903  0.2870 -0.5918 -1.7524
  4374G12c H01481132  10.528   7.213   4.997 -1.9424  5.2373 -0.7385
  4374G12c C00681133  10.470   7.258   4.803 -0.5027 -0.8311  2.5160
  4374G12c C00581134  10.495   7.289   4.672  0.7987  1.4594  1.1824
  4374G12c C00481135  10.397   7.272   4.570 -2.3128  0.6497 -0.9108
  4374G12c C00381136  10.434   7.265   4.436  0.4381 -0.0416  1.0210
  4374G12c C00281137  10.334   7.230   4.345  1.5840 -0.1577  1.9006
  4374G12c C00181138  10.336   7.175   4.207  1.6426  0.0519 -1.6448
  4374G12c C00M81139  10.443   7.104   4.154 -0.3949  1.4000  1.2140
  4374G12c C00L81140  10.574   7.146   4.137 -0.2905  0.0425 -0.2880
  4374G12c C00R81141  10.690   7.053   4.110 -0.2280  2.0707  0.4840
  4374G12c C00Q81142  10.704   6.936   4.019  0.6423  1.1474 -0.4202
  4374G12c C00V81143  10.833   6.881   4.009 -0.8058 -0.5179 -0.2909
  4374G12c C00U81144  10.939   6.906   4.100 -1.3167 -0.7648  0.0661
  4374G12c C00T81145  10.922   7.009   4.189  0.2100 -0.2250 -0.0321
  4374G12c C01681146  10.995   7.019   4.303  0.3715 -0.6031 -1.7461
  4374G12c C01581147  11.095   6.938   4.327  0.5990 -0.3081 -0.2103
  4374G12c C01081148  11.122   6.845   4.229  0.7394 -1.2912 -0.9525
  4374G12c C01181149  11.225   6.769   4.232 -1.1185  1.4111 -2.3429
  4374G12c H00581150  11.277   6.701   4.167  2.7000  1.6982  0.2368
  4374G12c C01281151  11.326   6.776   4.341 -1.7508 -0.4380  0.3849
  4374G12c C01781152  11.438   6.686   4.335 -0.1209  0.4198  0.1736
  4374G12c O00281153  11.508   6.654   4.461  1.1231 -0.2023  0.7069
  4374G12c H00481154  11.444   6.703   4.511 -4.8686 -2.4883 -4.0712
  4374G12c C01881155  11.492   6.642   4.216  0.5081 -0.1952  0.1752
  4374G12c O00181156  11.471   6.690   4.081 -1.1981  0.4124  1.1463
  4374G12c H00381157  11.563   6.701   4.060 -2.6680  2.1060 -5.6181
  4374G12c C01981158  11.636   6.569   4.236  1.4531 -0.9385  0.1468
  4374G12c H00281159  11.710   6.603   4.163  1.9883  4.6645  3.0188
  4374G12c H00181160  11.681   6.624   4.318 -0.7070  3.4845 -1.4429
  4374G12c O00081161  11.610   6.422   4.248 -0.3048 -1.2800  1.0430
  4374G12c C01A81162  11.606   6.339   4.141  0.8085  1.2967  0.8729
  4374G12c C02K81163  11.650   6.358   4.001  0.9045 -0.7469 -0.9054
  4374G12c O00G81164  11.728   6.474   3.980  1.6699 -0.8356 -0.3595
  4374G12c C02M81165  11.738   6.487   3.839 -0.2476  0.2649  0.7383
  4374G12c H01G81166  11.793   6.410   3.784 -5.6894 -3.3850  0.0793
  4374G12c H01F81167  11.644   6.484   3.785  0.2641  1.5899 -0.2656
  4374G12c H01E81168  11.765   6.593   3.838 -6.0432  1.8594 -0.3397
  4374G12c C02J81169  11.629   6.260   3.897 -0.5974 -0.2985  1.1454
  4374G12c H01H81170  11.644   6.277   3.791 -4.6490  3.3787  1.0485
  4374G12c C02I81171  11.590   6.131   3.922 -1.0626 -0.8405  0.6588
  4374G12c C02N81172  11.615   6.032   3.829 -0.3451 -0.7574  0.1963
  4374G12c H01M81173  11.577   6.022   3.729 -3.1628 -2.5022  1.3925
  4374G12c C02O81174  11.689   5.935   3.859  0.4228  0.4847 -0.6822
  4374G12c H01L81175  11.745   5.970   3.944  2.2220  2.3731 -2.5923
  4374G12c C02P81176  11.703   5.810   3.773 -0.1701 -1.4104 -0.0702
  4374G12c H01K81177  11.640   5.727   3.806 -1.3539 -0.6108 -0.2597
  4374G12c H01J81178  11.643   5.829   3.684  3.4177 -0.0981 -2.3093
  4374G12c O00H81179  11.809   5.734   3.776  0.4506  0.4338  0.4852
  4374G12c H01I81180  11.884   5.783   3.804  2.3895  0.1810 -3.8553
  4374G12c C02H81181  11.529   6.117   4.047 -2.0123 -0.4589 -1.1860
  4374G12c H01C81182  11.511   6.017   4.083  2.7532 -3.0262 -5.3706
  4374G12c C02L81183  11.526   6.219   4.145  0.4463  1.2568 -1.0541
  4374G12c H01D81184  11.449   6.222   4.220 -0.6561  1.2729 -2.1663
  4374G12c C01381185  11.298   6.859   4.458 -0.0649  0.2200  2.7885
  4374G12c H00081186  11.350   6.865   4.553  0.0634  1.6436  2.6396
  4374G12c C01481187  11.178   6.941   4.443 -1.8937 -0.5727  1.6295
  4374G12c C00F81188  11.140   7.054   4.522 -1.0814 -1.2497 -1.6912
  4374G12c C00H81189  10.940   7.106   4.401 -0.7138 -0.1779 -1.4150
  4374G12c C00I81190  10.830   7.181   4.392  0.4508  1.5412 -0.3287
  4374G12c C00J81191  10.768   7.184   4.261  1.3154 -0.6690 -0.2193
  4374G12c C00Z81192  11.038   6.817   4.115 -0.5446 -0.7529 -0.5278
  4374G12c C00Y81193  11.038   6.705   4.031  0.1203  1.4329 -1.1550
  4374G12c H00681194  11.106   6.626   4.058  1.5388  3.8575  2.8363
  4374G12c C00X81195  10.948   6.686   3.927  0.9991 -0.7909 -0.2801
  4374G12c O00381196  10.955   6.600   3.830 -1.1505 -0.3765  1.4222
  4374G12c C01B81197  11.001   6.465   3.844  0.3825 -1.2872 -0.4986
  4374G12c H00981198  10.907   6.410   3.843 -0.4719 -0.0388 -6.5142
  4374G12c H00881199  11.048   6.457   3.942 -3.9542 -7.1209  1.4005
  4374G12c H00781200  11.054   6.424   3.758  6.4445  1.8318  1.5234
  4374G12c C00W81201  10.851   6.778   3.910  1.6824  1.5578 -0.0143
  4374G12c O00481202  10.770   6.756   3.794 -0.5392 -0.8906  0.5871
  4374G12c C01C81203  10.642   6.809   3.823 -1.0264  0.6970 -0.0299
  4374G12c H00A81204  10.615   6.840   3.723  8.7058  2.1263 -2.7175
  4374G12c C00P81205  10.605   6.881   3.935  0.2136  0.6380  1.3223
  4374G12c C00O81206  10.459   6.902   3.972 -0.7511 -1.4639 -1.1282
  4374G12c C01D81207  10.382   6.782   3.956  0.7019 -0.7280  0.2939
  4374G12c H00S81208  10.409   6.696   3.896  2.6709 -2.8208  3.9302
  4374G12c C01E81209  10.276   6.756   4.036 -0.0003  0.0307 -0.2278
  4374G12c O00881210  10.254   6.624   4.027  0.3875 -1.2351  0.3753
  4374G12c C01V81211  10.337   6.559   4.110 -0.0468 -0.6272  0.3346
  4374G12c C01Z81212  10.289   6.523   4.246  1.5215 -0.0322 -1.1483
  4374G12c H00R81213  10.181   6.524   4.234  0.9644 -6.5029  1.3117
  4374G12c H00Q81214  10.311   6.420   4.272 -0.9820  0.6434  4.4534
  4374G12c O00981215  10.320   6.615   4.336  0.9026  0.8820  1.1359
  4374G12c H00P81216  10.346   6.689   4.284  2.5310 -1.9039 -2.2027
  4374G12c C01W81217  10.459   6.517   4.073 -0.1316 -0.5965 -1.5278
  4374G12c H00O81218  10.514   6.537   3.983  3.2783 -1.9340  0.1850
  4374G12c C01X81219  10.569   6.453   4.173  0.5830  1.4048 -0.8632
  4374G12c H00N81220  10.533   6.368   4.230 -0.3262 -0.5996 -4.2913
  4374G12c H00M81221  10.650   6.423   4.106  0.0519 -3.4316  0.4557
  4374G12c C01Y81222  10.656   6.511   4.269 -0.4493  0.2253 -1.1437
  4374G12c C02D81223  10.652   6.645   4.301  0.3264 -0.7953  1.7468
  4374G12c H01981224  10.570   6.705   4.264  0.1636 -0.4641  2.6392
  4374G12c C02C81225  10.753   6.723   4.383 -1.3599  0.0280 -0.9108
  4374G12c H01A81226  10.736   6.829   4.398 -0.9975  0.2036 -1.7116
  4374G12c C02B81227  10.866   6.654   4.447 -0.8266  0.9371  0.2474
  4374G12c O00E81228  10.945   6.712   4.547 -1.4867  1.2776  1.0134
  4374G12c H01B81229  10.879   6.694   4.612 -5.4529  3.6670 -2.1092
  4374G12c C02F81230  10.856   6.516   4.427  2.8710 -1.8730 -0.8422
  4374G12c O00F81231  10.954   6.443   4.510 -0.5355  1.5355  0.1749
  4374G12c C02G81232  11.046   6.367   4.433  0.3297 -0.7087 -0.8867
  4374G12c H01781233  11.124   6.354   4.508  3.2276 -5.7131 -4.4533
  4374G12c H01681234  11.092   6.432   4.358 -2.5002  4.2068  1.3699
  4374G12c H01581235  11.008   6.287   4.369 -1.2997  1.0007 -2.0959
  4374G12c C02E81236  10.764   6.446   4.340  1.4666 -0.5770 -0.0621
  4374G12c H01881237  10.778   6.339   4.334 -2.0574 -0.9111 -7.0000
  4374G12c C01F81238  10.217   6.859   4.117  0.2956 -1.0714  0.4356
  4374G12c C01G81239  10.096   6.849   4.203  0.5134 -0.2155 -2.6985
  4374G12c H00L81240  10.026   6.770   4.230 -3.0507  4.0165  1.2144
  4374G12c C01H81241  10.054   6.959   4.295  0.5618 -0.6344  0.1245
  4374G12c H00B81242   9.997   6.929   4.382  0.8366  2.2254  1.3491
  4374G12c C01I81243  10.135   7.085   4.295  0.4128  0.9270 -0.4836
  4374G12c C01U81244  10.256   6.993   4.101  2.7065 -0.0211 -0.0124
  4374G12c C00S81245  10.807   7.092   4.175 -0.6325  0.3839  1.8094
  4374G12c C00K81246  10.623   7.197   4.265  1.3743  0.6602 -1.8448
  4374G12c C00N81247  10.392   6.990   4.069  1.0403 -1.0724  0.2205
  4374G12c C00081248  10.218   7.104   4.177  1.3460  0.5294  0.1656
  4374G12c C01J81249  10.213   7.161   4.397  1.9561  0.1761 -2.0597
  4374G12c C01K81250  10.153   7.211   4.531  1.5361 -1.3527 -0.2166
  4374G12c C01P81251  10.021   7.176   4.589  1.1198  1.4750 -0.1400
  4374G12c C01Q81252   9.916   7.140   4.488  0.3198  1.3322 -3.1590
  4374G12c H00G81253   9.869   7.047   4.461  3.8968 -2.3521  2.1751
  4374G12c C01R81254   9.845   7.240   4.429 -1.6433 -0.9148 -0.3234
  4374G12c H00F81255   9.905   7.330   4.425 -0.1378 -1.5798  4.3611
  4374G12c C01S81256   9.758   7.195   4.311  0.4081  0.3610 -0.5093
  4374G12c H00E81257   9.781   7.103   4.257 -3.7624 -0.6241 -0.7498
  4374G12c H00D81258   9.678   7.126   4.338 -1.4656  1.3003 -3.3885
  4374G12c O00581259   9.742   7.313   4.226 -0.2543 -0.2561 -1.2992
  4374G12c H00C81260   9.815   7.307   4.167 -0.1518 -3.3571 -0.9343
  4374G12c C01O81261  10.006   7.179   4.724  0.6510  2.1293  0.7316
  4374G12c H00H81262   9.903   7.191   4.754 -1.7369 -2.5959 -4.7448
  4374G12c C01N81263  10.119   7.193   4.802 -0.0009 -0.2277 -2.0269
  4374G12c O00681264  10.087   7.233   4.939  0.2942  0.9901 -0.0282
  4374G12c C01T81265   9.969   7.209   5.005 -0.0476  0.5303 -0.1014
  4374G12c H00K81266   9.893   7.263   4.950  1.5439  3.4457  0.4652
  4374G12c H00J81267   9.935   7.107   4.985  0.2773 -0.1041  2.4171
  4374G12c H00I81268   9.982   7.220   5.113 -6.3004 -4.4372  1.4771
  4374G12c C01M81269  10.256   7.222   4.758  0.6470  0.9828  0.3431
  4374G12c C02081270  10.574   7.254   4.402 -0.2386  0.2564  1.2380
  4374G12c C02181271  10.659   7.303   4.499 -0.0894 -0.0773  0.3825
  4374G12c C01L81272  10.275   7.233   4.622  0.7318  0.2579 -0.8548
  4374G12c O00781273  10.347   7.239   4.842  0.2703  0.1636  0.5351
  4374G12c C02281274  10.620   7.286   4.628 -0.7933 -0.1452 -0.1374
  4374G12c C02381275  10.792   7.264   4.491 -0.5267 -1.1447 -0.0085
  4374G12c C00G81276  11.013   7.118   4.530 -0.3111  0.4727 -0.2261
  4374G12c C00E81277  11.227   7.089   4.625  0.5440 -0.2240  1.0377
  4374G12c O00A81278  11.360   7.093   4.602 -1.1376  0.4963 -0.7615
  4374G12c C02481279  11.372   7.190   4.492  0.8015  0.2414 -0.0911
  4374G12c H00V81280  11.443   7.136   4.429  0.4623  8.5274 -8.5121
  4374G12c H00U81281  11.438   7.271   4.524 -3.2639  2.9882  1.8123
  4374G12c H00T81282  11.291   7.221   4.427 -1.8853 -1.0784  2.5202
  4384G12c C00D81283   1.517   1.640   9.689  0.1874  1.6391 -0.1143
  4384G12c O00B81284   1.553   1.655   9.816 -0.0775  0.4289 -1.0885
  4384G12c C02581285   1.491   1.720   9.913  0.0349 -0.9587 -0.4488
  4384G12c C02681286   1.496   1.876   9.930  0.7216 -0.5799  0.8641
  4384G12c H00Y81287   1.547   1.907   9.839  1.3571 -0.6571  1.1946
  4384G12c H00X81288   1.571   1.918   9.997  2.5607 -1.8876 -0.3292
  4384G12c O00C81289   1.388   1.959   9.867 -0.3917 -1.2268 -1.5354
  4384G12c H00W81290   1.305   1.964   9.912 -2.3190  2.8830 -5.1247
  4384G12c C02781291   1.434   1.644   9.995 -1.1056 -1.3885  0.5857
  4384G12c O00D81292   1.443   1.513   9.989  0.1782 -0.2339  0.8737
  4384G12c H00Z81293   1.376   1.460   9.947  0.9755  1.3693 -2.5771
  4384G12c C02881294   1.336   1.684  10.080 -0.2847  1.1616 -0.2791
  4384G12c C02981295   1.405   1.722  10.205  0.2307  0.8945 -0.9560
  4384G12c H01081296   1.507   1.746  10.233  1.0824  1.5376 -4.4359
  4384G12c C02T81297   1.306   1.756  10.312  0.0291 -0.2388  0.2813
  4384G12c H01O81298   1.337   1.803  10.404 -4.8973 -2.4323  3.2842
  4384G12c C02S81299   1.159   1.715  10.303  0.1774 -0.8948 -1.7857
  4384G12c O00J81300   1.067   1.738  10.405  1.2281 -1.7833  0.1700
  4384G12c H01P81301   1.001   1.733  10.337 -2.0327 -0.6386  3.1066
  4384G12c C02R81302   1.122   1.638  10.181  0.3195  0.1691 -1.5051
  4384G12c O00I81303   0.990   1.589  10.178  0.6972 -0.6487  0.3298
  4384G12c C02Q81304   0.941   1.546  10.050 -0.9936  1.7552  0.8105
  4384G12c H01N81305   0.952   1.615   9.966 -3.5470  4.5200  2.6443
  4384G12c H01R81306   0.992   1.452  10.029 -3.5052 -0.1517  2.9698
  4384G12c H01Q81307   0.835   1.528  10.036  0.0813 -1.9095 -4.4364
  4384G12c C02A81308   1.202   1.647  10.068 -1.0279 -0.2408  1.2458
  4384G12c H01181309   1.154   1.633   9.973  0.3410 -7.5614  1.3154
  4384G12c C00C81310   1.402   1.695   9.637 -0.1430  1.9131 -0.3545
  4384G12c H01281311   1.372   1.797   9.659  4.8537  3.0681  1.6909
  4384G12c C00B81312   1.358   1.681   9.508  1.8907 -1.6172  0.2536
  4384G12c C00A81313   1.233   1.741   9.446  0.5143  0.7476 -0.4089
  4384G12c C00981314   1.088   1.733   9.486  0.4612  1.3989  0.8371
  4384G12c C00881315   1.026   1.693   9.618  2.3501 -0.6281 -1.8318
  4384G12c H01381316   1.087   1.685   9.708  2.7831 -4.4582 -2.3713
  4384G12c C00781317   0.887   1.642   9.622  0.4036  0.2322  2.4181
  4384G12c H01481318   0.850   1.601   9.714  7.8881  0.2835  5.8052
  4384G12c C00681319   0.813   1.642   9.493 -0.8586  1.7059 -1.5159
  4384G12c C00581320   0.886   1.670   9.371  0.9983  0.9208  0.7094
  4384G12c C00481321   0.814   1.641   9.244  0.8456 -0.5382  1.2963
  4384G12c C00381322   0.902   1.632   9.141 -0.3231 -0.7273 -0.6026
  4384G12c C00281323   0.844   1.567   9.021 -1.5362  0.6144 -0.8830
  4384G12c C00181324   0.894   1.569   8.880  1.1233  0.0914 -0.0134
  4384G12c C00M81325   1.020   1.528   8.855 -0.4860  0.1763  1.4413
  4384G12c C00L81326   1.123   1.519   8.947  0.9319 -0.8442  0.2834
  4384G12c C00R81327   1.225   1.449   8.961 -0.0897  1.1645 -0.6590
  4384G12c C00Q81328   1.275   1.336   8.880  0.5414 -2.2469 -0.0932
  4384G12c C00V81329   1.415   1.329   8.906  1.2818 -0.0403  0.0572
  4384G12c C00U81330   1.491   1.369   9.022 -0.2583  0.2522  0.4970
  4384G12c C00T81331   1.440   1.453   9.110 -1.1481  2.6517 -2.0433
  4384G12c C01681332   1.496   1.518   9.215  1.4636 -1.9591 -0.5706
  4384G12c C01581333   1.626   1.488   9.245  1.4698 -1.1810  0.6281
  4384G12c C01081334   1.697   1.410   9.155  0.0931 -1.3208 -0.3927
  4384G12c C01181335   1.830   1.398   9.182 -0.7847  0.6183 -0.6933
  4384G12c H00581336   1.898   1.414   9.100 -0.0109  2.8869  0.3318
  4384G12c C01281337   1.894   1.454   9.294 -0.2418  0.2995 -0.8024
  4384G12c C01781338   2.031   1.468   9.315  1.9442 -0.0411  0.1139
  4384G12c O00281339   2.087   1.402   9.411 -0.2197 -0.2697  1.0847
  4384G12c H00481340   2.045   1.322   9.439  1.9490 -2.9371 -2.6941
  4384G12c C01881341   2.090   1.576   9.261 -0.0509  0.7250 -0.4228
  4384G12c O00181342   2.033   1.631   9.156  2.0865  0.2370  1.0287
  4384G12c H00381343   2.098   1.698   9.148  1.7358  0.0832 -5.4381
  4384G12c C01981344   2.228   1.649   9.275 -0.1665 -0.0370 -0.1420
  4384G12c H00281345   2.215   1.729   9.348 -1.3697  2.8499 -3.3942
  4384G12c H00181346   2.291   1.562   9.294  4.0608  3.1967  1.4717
  4384G12c O00081347   2.290   1.701   9.147 -0.0939  0.4398  0.2069
  4384G12c C01A81348   2.374   1.812   9.150 -0.2128  0.5056 -0.2729
  4384G12c C02K81349   2.331   1.931   9.090  0.2603  0.4045 -0.1940
  4384G12c O00G81350   2.227   1.938   9.003 -0.1187 -1.1752  0.2853
  4384G12c C02M81351   2.100   1.938   9.078  0.5495  0.9386 -1.5744
  4384G12c H01G81352   2.028   1.868   9.035  0.4303 -2.6481  4.0263
  4384G12c H01F81353   2.090   1.914   9.183  3.5264  1.1673 -1.2040
  4384G12c H01E81354   2.040   2.030   9.084  4.0544  3.1297  2.0015
  4384G12c C02J81355   2.405   2.046   9.121 -0.9388 -0.5179 -0.8939
  4384G12c H01H81356   2.369   2.146   9.100 -0.1196 -0.0807 -0.2372
  4384G12c C02I81357   2.519   2.041   9.216  1.0244 -0.3450  0.1173
  4384G12c C02N81358   2.625   2.147   9.201 -0.6056 -0.8938  1.9284
  4384G12c H01M81359   2.647   2.245   9.240  1.0582  2.8569 -7.1090
  4384G12c C02O81360   2.742   2.119   9.133  0.1673  0.5838  0.0113
  4384G12c H01L81361   2.817   2.195   9.117  1.2722  0.0106  2.2029
  4384G12c C02P81362   2.819   1.997   9.070 -0.9344 -0.4409 -0.0742
  4384G12c H01K81363   2.787   2.009   8.967 -2.0767  3.9058  0.6684
  4384G12c H01J81364   2.925   2.013   9.049  0.1845 -1.8067  4.0367
  4384G12c O00H81365   2.813   1.890   9.164 -0.0865 -2.3460  0.1417
  4384G12c H01I81366   2.788   1.815   9.112  0.1993  2.3280 -7.5329
  4384G12c C02H81367   2.541   1.925   9.287 -1.7262 -0.2320 -0.8429
  4384G12c H01C81368   2.612   1.954   9.363  0.0513  4.2365 -4.0088
  4384G12c C02L81369   2.471   1.820   9.255  0.6853 -0.6809  1.1597
  4384G12c H01D81370   2.475   1.726   9.307 -1.5051 -2.0192 -0.9785
  4384G12c C01381371   1.811   1.494   9.392  1.6940 -0.8718 -0.4153
  4384G12c H00081372   1.871   1.523   9.477 -0.7905  1.1588  0.7023
  4384G12c C01481373   1.671   1.524   9.370 -0.2760 -1.0803  1.2520
  4384G12c C00F81374   1.578   1.590   9.461 -0.8531  1.8750 -0.5694
  4384G12c C00H81375   1.407   1.610   9.293 -0.9127 -1.0270 -0.5512
  4384G12c C00I81376   1.296   1.661   9.226  1.1654  1.2998  1.1095
  4384G12c C00J81377   1.262   1.606   9.108  0.7817  1.2967 -0.4571
  4384G12c C00Z81378   1.632   1.356   9.038  2.5101 -0.5116 -0.3749
  4384G12c C00Y81379   1.708   1.273   8.952  1.0517  1.4426  0.5330
  4384G12c H00681380   1.812   1.248   8.966  1.4565  2.1697 -1.1636
  4384G12c C00X81381   1.638   1.213   8.851 -1.6623 -0.4922  0.8846
  4384G12c O00381382   1.692   1.114   8.797  0.6890  0.5809  0.9937
  4384G12c C01B81383   1.823   1.146   8.739  0.2769  1.3486 -0.9450
  4384G12c H00981384   1.796   1.245   8.700 -9.1520 -2.0020 -4.3446
  4384G12c H00881385   1.925   1.109   8.748 -0.2940  0.6181  3.5355
  4384G12c H00781386   1.831   1.138   8.631 10.0432 -3.8412 -0.3593
  4384G12c C00W81387   1.496   1.231   8.836 -0.3875 -0.7420  1.9966
  4384G12c O00481388   1.441   1.154   8.744  0.4520 -0.4942  0.3535
  4384G12c C01C81389   1.309   1.184   8.706  1.0638  0.3683 -1.5242
  4384G12c H00A81390   1.296   1.142   8.608 -1.3524 -0.2218 -0.9811
  4384G12c C00P81391   1.219   1.260   8.768 -0.1555  0.5633  0.1267
  4384G12c C00O81392   1.090   1.307   8.728  0.3103  1.1101  0.4872
  4384G12c C01D81393   1.035   1.206   8.641  0.0314  0.5916  0.5244
  4384G12c H00S81394   1.092   1.136   8.582 -1.4979  0.7888 -1.2163
  4384G12c C01E81395   0.887   1.183   8.647  0.6433 -0.9072  0.5854
  4384G12c O00881396   0.818   1.080   8.589 -0.4577  1.0591  1.3384
  4384G12c C01V81397   0.875   0.994   8.513 -0.2783  1.2874 -0.0147
  4384G12c C01Z81398   0.960   0.902   8.589 -1.6093  0.2912  0.2131
  4384G12c H00R81399   1.062   0.882   8.557 -0.3906 -3.6112  5.9025
  4384G12c H00Q81400   0.982   0.938   8.689  3.2256  7.1000 -2.9184
  4384G12c O00981401   0.888   0.781   8.610  0.3193 -0.9685 -0.6514
  4384G12c H00P81402   0.860   0.732   8.534 -8.6432 -2.7225  3.1360
  4384G12c C01W81403   0.891   1.013   8.381 -1.0467 -0.4372 -0.6713
  4384G12c H00O81404   0.817   1.048   8.311  1.2320 -2.5127 -4.2506
  4384G12c C01X81405   0.978   0.937   8.279 -0.6004  0.4044 -0.2673
  4384G12c H00N81406   1.010   0.985   8.186  8.4461 -4.5588 -0.2902
  4384G12c H00M81407   1.080   0.939   8.317  0.3596 -5.0333 -1.9770
  4384G12c C01Y81408   0.954   0.781   8.252 -0.0230  1.2840  0.1096
  4384G12c C02D81409   1.039   0.709   8.167 -0.9754  0.1204  2.1618
  4384G12c H01981410   1.126   0.752   8.120  3.1001 -4.0606  5.4545
  4384G12c C02C81411   1.024   0.571   8.156 -2.2972  0.1387 -0.0819
  4384G12c H01A81412   1.100   0.511   8.106 -5.4684 -2.6780 -1.7377
  4384G12c C02B81413   0.920   0.511   8.241  1.7887  0.3010  0.3830
  4384G12c O00E81414   0.887   0.375   8.226  0.3020  0.2681  0.4568
  4384G12c H01B81415   0.809   0.351   8.274 -2.0942  5.5732 -0.3365
  4384G12c C02F81416   0.814   0.585   8.300  1.9880 -0.5359 -0.9192
  4384G12c O00F81417   0.702   0.508   8.340 -1.5351 -1.2253 -2.9459
  4384G12c C02G81418   0.693   0.457   8.460  0.3000 -1.5365 -0.3960
  4384G12c H01781419   0.679   0.556   8.504 -3.7184 -3.1427  2.1431
  4384G12c H01681420   0.777   0.403   8.503  2.8209  1.4235 -1.3789
  4384G12c H01581421   0.605   0.396   8.479  1.1527 -2.7461 -0.2706
  4384G12c C02E81422   0.844   0.721   8.307  0.0358 -0.5552  0.4052
  4384G12c H01881423   0.763   0.769   8.360  1.7865 -0.1422  2.8057
  4384G12c C01F81424   0.816   1.275   8.708 -1.5115  0.4305 -0.5809
  4384G12c C01G81425   0.678   1.259   8.763  0.5092 -1.0208  0.5760
  4384G12c H00L81426   0.624   1.167   8.782 -2.4134  0.2597 -1.1763
  4384G12c C01H81427   0.617   1.358   8.849 -0.1687  1.0955  1.9349
  4384G12c H00B81428   0.538   1.325   8.915 -0.8946  0.2226  0.6636
  4384G12c C01I81429   0.692   1.469   8.872 -0.6558  1.3200 -0.3199
  4384G12c C01U81430   0.874   1.401   8.745 -0.1227 -1.3121  0.0609
  4384G12c C00S81431   1.303   1.486   9.073  0.4978 -0.1227 -0.5805
  4384G12c C00K81432   1.137   1.600   9.064  0.3518  1.0002 -1.2588
  4384G12c C00N81433   1.015   1.423   8.760  1.7796 -1.0600  0.7805
  4384G12c C00081434   0.805   1.492   8.809 -0.6750 -1.6583 -0.2704
  4384G12c C01J81435   0.712   1.537   9.003 -0.2349 -0.8846 -0.5271
  4384G12c C01K81436   0.628   1.553   9.120 -0.0347 -0.5942 -0.9243
  4384G12c C01P81437   0.482   1.521   9.131  0.0855  0.0704  0.7900
  4384G12c C01Q81438   0.398   1.513   9.003 -0.7386 -0.3361  0.4125
  4384G12c H00G81439   0.373   1.425   8.946  0.2294 -1.9455  2.3993
  4384G12c C01R81440   0.288   1.600   8.979 -0.9321 -1.0942  0.1383
  4384G12c H00F81441   0.283   1.679   9.052 -3.8365 -3.1687  2.2928
  4384G12c C01S81442   0.187   1.576   8.873  0.2249  0.5644  0.1699
  4384G12c H00E81443   0.221   1.509   8.794  0.3453  5.2097 -3.9933
  4384G12c H00D81444   0.105   1.507   8.893 -1.2792  2.4983  0.8860
  4384G12c O00581445   0.124   1.690   8.829  0.6839 -0.7461  0.6411
  4384G12c H00C81446   0.119   1.745   8.905  4.6169 -0.8489  1.0501
  4384G12c C01O81447   0.411   1.530   9.254  0.5288  0.3277 -1.3010
  4384G12c H00H81448   0.305   1.519   9.268  0.7382  3.8306  4.4964
  4384G12c C01N81449   0.480   1.560   9.363  0.8126  0.3959 -1.3162
  4384G12c O00681450   0.422   1.594   9.482  1.1259 -0.3912 -0.4426
  4384G12c C01T81451   0.281   1.558   9.534 -0.2382  0.2934  1.1096
  4384G12c H00K81452   0.219   1.532   9.449  4.5830 -1.3877 -2.1043
  4384G12c H00J81453   0.226   1.631   9.593  2.9957 -0.6233  5.5632
  4384G12c H00I81454   0.325   1.473   9.588 -4.6374 -1.6441  1.8828
  4384G12c C01M81455   0.612   1.604   9.362 -0.1282 -0.1932  0.2116
  4384G12c C02081456   1.042   1.668   9.146 -0.6098 -0.4675 -0.3556
  4384G12c C02181457   1.080   1.753   9.253  1.7501 -0.2126 -0.4021
  4384G12c C01L81458   0.680   1.596   9.237  1.0982 -0.1396 -0.2619
  4384G12c O00781459   0.691   1.587   9.479  1.3122 -0.3717 -0.3637
  4384G12c C02281460   1.008   1.736   9.366 -0.7642 -0.2731 -0.5407
  4384G12c C02381461   1.212   1.742   9.299 -0.3266 -1.1218 -0.2486
  4384G12c C00G81462   1.448   1.633   9.413  0.4712 -0.6547 -0.5779
  4384G12c C00E81463   1.616   1.591   9.597 -1.0389  2.0298 -0.7996
  4384G12c O00A81464   1.741   1.546   9.638  0.1309  0.5788 -0.5135
  4384G12c C02481465   1.845   1.623   9.685 -1.1402  0.9021 -0.1515
  4384G12c H00V81466   1.861   1.680   9.593  8.6464 -1.5506 -0.5454
  4384G12c H00U81467   1.922   1.557   9.724  4.5170  5.7842 -2.2134
  4384G12c H00T81468   1.803   1.684   9.766  0.7603  0.9498  0.8138
  4394G12c C00D81469   2.922  12.040  10.024 -0.4979  0.3935 -0.6634
  4394G12c O00B81470   3.043  12.019  10.104 -0.3143 -0.4515  1.8536
  4394G12c C02581471   3.105  11.888  10.121  1.3996 -1.0219  0.9357
  4394G12c C02681472   3.257  11.892  10.070  0.2751  0.4869 -0.9109
  4394G12c H00Y81473   3.289  11.885   9.966  3.2471  1.4844 -0.1312
  4394G12c H00X81474   3.308  11.802  10.104  0.4342  0.4921 -1.1370
  4394G12c O00C81475   3.325  12.006  10.135 -0.8635 -0.5572  1.2466
  4394G12c H00W81476   3.252  12.057  10.166 -2.5012 -5.9731  7.2392
  4394G12c C02781477   3.054  11.785  10.197 -0.0714 -1.7271  1.1620
  4394G12c O00D81478   2.935  11.793  10.232 -2.9687  0.5776 -1.6317
  4394G12c H00Z81479   2.901  11.870  10.275  0.5431  0.7095  1.1544
  4394G12c C02881480   3.134  11.659  10.212 -0.1127  0.6430  0.2946
  4394G12c C02981481   3.252  11.642  10.291  1.1060 -0.0184 -0.4071
  4394G12c H01081482   3.277  11.736  10.338 -5.7001  1.0835  1.5386
  4394G12c C02T81483   3.327  11.522  10.295 -0.2146 -1.6961 -0.8246
  4394G12c H01O81484   3.427  11.513  10.334 -0.8477 -4.1882  0.3243
  4394G12c C02S81485   3.279  11.413  10.225  0.0079 -1.1338  0.4433
  4394G12c O00J81486   3.354  11.289  10.232 -0.0395 -1.0560 -0.4074
  4394G12c H01P81487   3.371  11.262  10.321  1.5026 -2.5781 -1.1131
  4394G12c C02R81488   3.130  11.401  10.196 -1.4024  0.4103 -0.1584
  4394G12c O00I81489   3.095  11.273  10.159 -0.1233 -0.4912 -0.3690
  4394G12c C02Q81490   3.027  11.281  10.016  0.0708 -1.1544 -0.3364
  4394G12c H01N81491   2.938  11.262  10.076  1.1911 -5.5793  0.0740
  4394G12c H01R81492   2.977  11.371   9.980 -0.6288 -1.1796  0.5278
  4394G12c H01Q81493   3.060  11.199   9.953 -1.1146 -1.4484 -0.6009
  4394G12c C02A81494   3.078  11.528  10.163 -0.1369  1.1066 -0.7712
  4394G12c H01181495   3.005  11.538  10.084  0.2703  0.8698 -1.1838
  4394G12c C00C81496   2.909  11.934   9.928  0.3592 -1.6772 -0.0285
  4394G12c H01281497   2.994  11.871   9.908  0.7725 -0.6947 -1.4689
  4394G12c C00B81498   2.793  11.907   9.846 -1.9374  0.8387 -1.0977
  4394G12c C00A81499   2.775  11.784   9.765 -1.1698  1.9942 -1.2738
  4394G12c C00981500   2.834  11.719   9.660 -1.6034 -1.2592  0.7694
  4394G12c C00881501   2.930  11.763   9.577 -0.1097 -0.4188 -0.2867
  4394G12c H01381502   2.968  11.851   9.627  0.0420 -0.7572  0.2046
  4394G12c C00781503   2.968  11.698   9.443 -0.2501  1.1498 -0.8242
  4394G12c H01481504   3.021  11.707   9.349  0.0584  1.4153 -0.6273
  4394G12c C00681505   2.863  11.625   9.379 -0.5021  0.3662  0.4632
  4394G12c C00581506   2.742  11.605   9.453  1.1622  0.3828 -0.9385
  4394G12c C00481507   2.624  11.563   9.382  0.4340  0.8030 -0.8466
  4394G12c C00381508   2.504  11.592   9.448 -0.6986  1.8297 -0.0149
  4394G12c C00281509   2.399  11.590   9.352 -0.5992 -0.6285  0.4283
  4394G12c C00181510   2.260  11.634   9.368  0.2469  0.8851  0.6196
  4394G12c C00M81511   2.192  11.744   9.435  2.1261  1.6191  1.0397
  4394G12c C00L81512   2.239  11.791   9.554 -1.5982 -0.3061 -0.9422
  4394G12c C00R81513   2.203  11.915   9.627  0.3256  0.0844  0.6032
  4394G12c C00Q81514   2.115  12.012   9.593 -0.6059 -1.9168  1.6821
  4394G12c C00V81515   2.118  12.114   9.694  1.2171 -0.7967 -0.7125
  4394G12c C00U81516   2.229  12.135   9.766  0.5928  0.2950  0.9593
  4394G12c C00T81517   2.345  12.059   9.761  1.6703  2.5174  0.8002
  4394G12c C01681518   2.442  12.054   9.842  0.9042 -0.5344  0.9015
  4394G12c C01581519   2.448  12.149   9.947  0.1355 -1.0932 -0.9943
  4394G12c C01081520   2.348  12.244   9.944 -1.0184  1.1717  1.1573
  4394G12c C01181521   2.356  12.364  10.022 -0.9448  0.4408  3.2826
  4394G12c H00581522   2.265  12.422  10.021  3.0113  7.0986  3.7881
  4394G12c C01281523   2.464  12.364  10.105  1.2098  0.2238 -0.0015
  4394G12c C01781524   2.462  12.463  10.207 -0.1765 -0.1713 -1.3157
  4394G12c O00281525   2.467  12.424  10.345  0.3980  0.2547  0.0261
  4394G12c H00481526   2.504  12.344  10.378 -0.3870  0.1754  0.7304
  4394G12c C01881527   2.440  12.599  10.161  1.2873  0.2660 -0.8880
  4394G12c O00181528   2.441  12.638  10.031 -0.2016  0.2834  0.9884
  4394G12c H00381529   2.450  12.723  10.070 -5.1716  2.1413 -1.5044
  4394G12c C01981530   2.423  12.734  10.243  0.2477 -0.6571 -0.0495
  4394G12c H00281531   2.317  12.758  10.236  0.6967  2.5989  2.9999
  4394G12c H00181532   2.403  12.732  10.350  2.0226 -2.1320  0.2747
  4394G12c O00081533   2.504  12.835  10.193  0.0748 -0.0530 -0.5306
  4394G12c C01A81534   2.628  12.837  10.246  0.1589 -1.2490  1.1788
  4394G12c C02K81535   2.690  12.958  10.225 -1.9416 -0.9570  0.9019
  4394G12c O00G81536   2.636  13.063  10.145 -0.3183  1.0084 -1.4202
  4394G12c C02M81537   2.518  13.096  10.210  0.5759  0.5696 -2.1882
  4394G12c H01G81538   2.499  13.202  10.191  5.6884  2.6792  2.7153
  4394G12c H01F81539   2.523  13.087  10.319 -0.5330 -1.8372 -2.2958
  4394G12c H01E81540   2.436  13.043  10.162 -1.4963  5.3296 -4.2169
  4394G12c C02J81541   2.821  12.973  10.283  1.7644  2.0062 -0.4459
  4394G12c H01H81542   2.868  13.066  10.253 -7.1313  7.2642  0.1601
  4394G12c C02I81543   2.871  12.887  10.369  0.0740  0.6714 -0.4934
  4394G12c C02N81544   3.020  12.870  10.398 -0.8424  1.7063 -0.2206
  4394G12c H01M81545   3.048  12.766  10.399 -4.7414  0.4739  5.5859
  4394G12c C02O81546   3.112  12.967  10.409  0.5025  0.8426 -0.3315
  4394G12c H01L81547   3.219  12.973  10.405  0.5860 -1.7937 -4.3510
  4394G12c C02P81548   3.071  13.112  10.436  1.8266 -1.2862 -0.2032
  4394G12c H01K81549   3.149  13.185  10.457  0.5542 -0.5906  2.1907
  4394G12c H01J81550   3.022  13.153  10.348  2.1067  5.2981  2.4248
  4394G12c O00H81551   2.977  13.085  10.553 -0.2244  0.3241  1.3166
  4394G12c H01I81552   2.968  12.992  10.537  4.2125  0.4840 -3.7140
  4394G12c C02H81553   2.798  12.767  10.407 -1.4815 -1.4050  1.0765
  4394G12c H01C81554   2.860  12.696  10.460  5.3537 -0.2032 -4.5085
  4394G12c C02L81555   2.671  12.753  10.360  0.4811 -0.5404 -0.2825
  4394G12c H01D81556   2.599  12.682  10.398  1.6473 -1.4662  0.2468
  4394G12c C01381557   2.558  12.249  10.117 -0.5508  1.3062  0.3245
  4394G12c H00081558   2.620  12.256  10.206  1.4779  4.3667 -1.2183
  4394G12c C01481559   2.564  12.155  10.017 -1.2162 -1.8246  0.7116
  4394G12c C00F81560   2.686  12.081   9.989  0.0024 -0.8873  0.3063
  4394G12c C00H81561   2.538  11.956   9.839  0.5347  0.9097 -1.4428
  4394G12c C00I81562   2.517  11.845   9.760  1.0486  0.7245  1.2214
  4394G12c C00J81563   2.388  11.814   9.718 -0.4668  0.3949  0.2948
  4394G12c C00Z81564   2.235  12.238   9.857 -0.6722  0.0767  0.2695
  4394G12c C00Y81565   2.118  12.324   9.862 -0.6625  0.8544  0.5523
  4394G12c H00681566   2.087  12.367   9.956 -1.1204 -0.2480  0.9175
  4394G12c C00X81567   2.019  12.329   9.745  0.0477  0.9200  0.4798
  4394G12c O00381568   1.943  12.446   9.740  0.6348 -2.2483 -0.0550
  4394G12c C01B81569   1.840  12.465   9.641  0.0127 -0.3345 -1.2165
  4394G12c H00981570   1.801  12.561   9.673 -0.3690  2.1654 -8.2656
  4394G12c H00881571   1.759  12.394   9.626 -2.7211  3.0041 -3.0895
  4394G12c H00781572   1.885  12.546   9.583 -0.0848  5.0683  5.6670
  4394G12c C00W81573   2.035  12.228   9.669  0.4234  1.0101  0.2801
  4394G12c O00481574   1.944  12.230   9.579  0.5529 -0.0821 -0.2839
  4394G12c C01C81575   1.967  12.168   9.475  1.3375  0.1444 -0.0455
  4394G12c H00A81576   1.902  12.187   9.391 -1.8428 -4.1650  1.2464
  4394G12c C00P81577   2.038  12.036   9.483  0.7944 -0.3452 -1.0530
  4394G12c C00O81578   2.071  11.960   9.360 -0.8782  1.4495  2.0013
  4394G12c C01D81579   2.027  12.027   9.238 -1.7205 -0.2281  1.3628
  4394G12c H00S81580   1.970  12.118   9.224 -5.0193 -2.5305 -0.8676
  4394G12c C01E81581   2.045  11.961   9.112  1.1716  0.8724  0.0173
  4394G12c O00881582   1.997  12.021   9.008  0.8744 -1.2416 -0.5456
  4394G12c C01V81583   1.890  11.971   8.936  1.3427 -0.8906 -0.9572
  4394G12c C01Z81584   1.888  12.023   8.799 -0.7147  0.3812  1.1755
  4394G12c H00R81585   1.931  12.122   8.786 -1.2215  1.1332  4.5955
  4394G12c H00Q81586   1.944  11.942   8.752  3.4166  5.2643 -2.9262
  4394G12c O00981587   1.749  12.029   8.747 -2.4136  0.2670 -1.0284
  4394G12c H00P81588   1.707  12.084   8.811  2.9323 -0.5069  3.5726
  4394G12c C01W81589   1.795  11.865   8.978 -0.1818 -2.9935 -0.4974
  4394G12c H00O81590   1.818  11.833   9.079  3.9104  5.7111  1.7994
  4394G12c C01X81591   1.700  11.772   8.895 -1.5678  0.2170 -0.6518
  4394G12c H00N81592   1.664  11.781   8.793  7.9325 -5.7147 -5.1737
  4394G12c H00M81593   1.752  11.678   8.878 -0.4007  0.4072  1.6654
  4394G12c C01Y81594   1.577  11.771   8.987  1.4794 -0.4953  0.6894
  4394G12c C02D81595   1.473  11.670   8.992 -2.0077 -1.3464 -0.1713
  4394G12c H01981596   1.476  11.578   8.936  4.3123 -0.5287 -1.6301
  4394G12c C02C81597   1.373  11.669   9.100  0.0779  1.6202 -1.4150
  4394G12c H01A81598   1.317  11.580   9.126 -1.2976  3.3416  1.9075
  4394G12c C02B81599   1.355  11.774   9.189 -0.4188 -1.9764  0.6298
  4394G12c O00E81600   1.262  11.785   9.295 -0.9024  0.1458  1.9288
  4394G12c H01B81601   1.258  11.879   9.290 -0.1776  0.1667  1.7170
  4394G12c C02F81602   1.429  11.894   9.148 -1.1209 -0.7571 -1.4578
  4394G12c O00F81603   1.392  12.014   9.202 -2.6330 -0.6235  0.0880
  4394G12c C02G81604   1.272  12.059   9.139 -0.1149 -0.2968 -0.0671
  4394G12c H01781605   1.205  11.978   9.108  0.4207 -2.4906  4.1364
  4394G12c H01681606   1.204  12.066   9.225  1.8300 -0.5044  1.5167
  4394G12c H01581607   1.274  12.155   9.087 -0.5212  1.0135  2.2411
  4394G12c C02E81608   1.527  11.900   9.050 -0.6752  0.8796 -1.1237
  4394G12c H01881609   1.552  12.005   9.053 -2.7695  1.4204 -1.9309
  4394G12c C01F81610   2.118  11.845   9.105 -0.4439 -0.4592  0.2903
  4394G12c C01G81611   2.184  11.789   8.988  1.0140  0.4777 -1.1434
  4394G12c H00L81612   2.179  11.831   8.889 -1.8207 -2.4301 -2.3157
  4394G12c C01H81613   2.279  11.668   8.998  1.0773 -0.3596 -0.3489
  4394G12c H00B81614   2.358  11.661   8.925  4.6005  3.1670  2.8661
  4394G12c C01I81615   2.310  11.620   9.127  0.4690  0.1429  0.9063
  4394G12c C01U81616   2.140  11.771   9.225 -0.1624 -0.6476  2.2447
  4394G12c C00S81617   2.319  11.932   9.705  2.2802  0.3246 -0.3154
  4394G12c C00K81618   2.367  11.737   9.607 -2.8207 -0.2604  0.2590
  4394G12c C00N81619   2.102  11.828   9.345 -0.4055 -0.1921 -0.0337
  4394G12c C00081620   2.211  11.645   9.231  1.3362 -0.5422  0.1556
  4394G12c C01J81621   2.426  11.584   9.210  0.0084  1.4250 -0.9194
  4394G12c C01K81622   2.543  11.518   9.166 -1.1434  1.4904  1.5100
  4394G12c C01P81623   2.570  11.417   9.057  0.5985  1.7459 -1.6952
  4394G12c C01Q81624   2.478  11.372   8.968 -1.1640 -0.4136  0.6599
  4394G12c H00G81625   2.499  11.361   8.863 -7.4113 -4.1413 -0.4580
  4394G12c C01R81626   2.353  11.351   8.989  1.0849  1.0656  1.9972
  4394G12c H00F81627   2.324  11.360   9.093  2.1966 -0.2455  2.4378
  4394G12c C01S81628   2.257  11.344   8.873 -2.1344  0.2057  0.0838
  4394G12c H00E81629   2.217  11.426   8.813  1.9600 -0.4016 -3.7650
  4394G12c H00D81630   2.323  11.311   8.793 -0.8260  0.3898  1.0815
  4394G12c O00581631   2.145  11.265   8.917 -0.2878 -0.4071  0.5130
  4394G12c H00C81632   2.070  11.320   8.902  1.2685  0.6389 -4.7455
  4394G12c C01O81633   2.687  11.353   9.037 -0.0043  2.1450 -0.8291
  4394G12c H00H81634   2.673  11.247   9.026  0.3745  1.7040  2.4918
  4394G12c C01N81635   2.787  11.394   9.119  0.3602 -2.2479 -1.1493
  4394G12c O00681636   2.902  11.336   9.124  0.4033 -0.3153  0.0998
  4394G12c C01T81637   2.995  11.387   9.047 -0.7107  1.4157  1.8421
  4394G12c H00K81638   2.959  11.395   8.944 -1.5277 -1.3018  1.8837
  4394G12c H00J81639   3.087  11.329   9.041  0.8766  4.0768 -2.2220
  4394G12c H00I81640   3.010  11.494   9.065  2.9784  0.6058  4.1065
  4394G12c C01M81641   2.778  11.490   9.217  1.8014  1.0282  0.8013
  4394G12c C02081642   2.489  11.661   9.572  0.3420  1.4376  0.8306
  4394G12c C02181643   2.609  11.652   9.648 -0.1833 -0.1560 -1.5505
  4394G12c C01L81644   2.653  11.531   9.249  0.2084 -1.5504 -0.4602
  4394G12c O00781645   2.890  11.559   9.261 -1.2831  0.7176 -1.3227
  4394G12c C02281646   2.734  11.638   9.599 -2.1455 -0.0882  1.9743
  4394G12c C02381647   2.637  11.763   9.744  0.7315  1.4649  1.1591
  4394G12c C00G81648   2.673  11.987   9.889  0.3646  0.6931 -1.0484
  4394G12c C00E81649   2.816  12.134  10.036  1.2965 -0.2639  0.7799
  4394G12c O00A81650   2.841  12.261  10.081  1.3873  1.2413  0.4560
  4394G12c C02481651   2.924  12.365  10.021 -2.0679  0.5111  0.3507
  4394G12c H00V81652   2.850  12.442  10.001 -1.8816 -0.2594 -3.6418
  4394G12c H00U81653   2.996  12.318   9.953 -0.4710  0.2752  2.1411
  4394G12c H00T81654   3.001  12.390  10.094  2.1259 -5.7926 -1.4662
  4404G12c C00D81655  13.139   2.286   8.525 -0.5261  0.5311  0.5759
  4404G12c O00B81656  13.166   2.188   8.426  1.9628  0.0142  0.8450
  4404G12c C02581657  13.291   2.148   8.362 -0.1573  0.3369  1.4386
  4404G12c C02681658  13.267   2.167   8.214 -1.0875  1.1994  0.0834
  4404G12c H00Y81659  13.183   2.098   8.217 -1.5202  1.8030  5.2164
  4404G12c H00X81660  13.344   2.118   8.155 -2.6286  0.8935 -1.7402
  4404G12c O00C81661  13.214   2.278   8.171 -0.8746  0.2568 -0.6869
  4404G12c H00W81662  13.251   2.360   8.199 -1.8631  0.9931 -1.5238
  4404G12c C02781663  13.393   2.134   8.451 -1.4444  0.3153 -1.0715
  4404G12c O00D81664  13.368   2.129   8.588  0.3239 -0.5684 -1.3815
  4404G12c H00Z81665  13.284   2.164   8.614 -0.2434 -2.8245 -0.1073
  4404G12c C02881666  13.539   2.094   8.407 -0.4678  0.1933  0.7487
  4404G12c C02981667  13.583   1.990   8.314 -0.4279  0.0423 -0.8691
  4404G12c H01081668  13.501   1.939   8.265 -1.8563 -2.9891  4.2816
  4404G12c C02T81669  13.722   1.976   8.300 -0.5810  0.3034  0.8962
  4404G12c H01O81670  13.751   1.896   8.233 -1.7652  3.3661 -3.4793
  4404G12c C02S81671  13.812   2.058   8.379 -1.3468  0.2396 -0.4618
  4404G12c O00J81672  13.956   2.042   8.368 -0.1203 -1.6635 -0.8825
  4404G12c H01P81673  14.005   2.107   8.415 -0.6846 -2.9882  1.5797
  4404G12c C02R81674  13.768   2.131   8.486  2.1376 -0.3192  1.0351
  4404G12c O00I81675  13.865   2.185   8.563 -1.4099 -0.0908 -0.1518
  4404G12c C02Q81676  13.815   2.248   8.682  0.1014 -0.4180  1.1756
  4404G12c H01N81677  13.725   2.190   8.703 -2.9359  2.9235 -1.9455
  4404G12c H01R81678  13.779   2.346   8.653 -0.2541 -1.1432 -0.9144
  4404G12c H01Q81679  13.885   2.218   8.761 -3.6703  4.7644  6.8832
  4404G12c C02A81680  13.639   2.144   8.483  2.6034  0.1316  0.3389
  4404G12c H01181681  13.591   2.200   8.563 -0.9843 -1.1691 -0.8091
  4404G12c C00C81682  13.230   2.391   8.556  1.2443  1.0529 -1.3324
  4404G12c H01281683  13.333   2.364   8.540  0.5554  0.6251 -5.5602
  4404G12c C00B81684  13.188   2.525   8.594 -0.4786  0.0393  0.9144
  4404G12c C00A81685  13.282   2.638   8.619  1.4154  1.7724  0.6066
  4404G12c C00981686  13.417   2.644   8.652  0.0271  0.6191 -0.2925
  4404G12c C00881687  13.510   2.563   8.710  0.9429 -0.3209  0.3719
  4404G12c H01381688  13.497   2.456   8.713 -4.7825  0.1681 -1.0827
  4404G12c C00781689  13.611   2.617   8.784  0.5302  0.8977  1.4576
  4404G12c H01481690  13.692   2.549   8.808 -0.8175  0.3475  4.8248
  4404G12c C00681691  13.612   2.765   8.803  2.1951  1.7502  1.2197
  4404G12c C00581692  13.505   2.843   8.754  0.0950  1.8302 -0.1010
  4404G12c C00481693  13.503   2.978   8.778 -0.0210  0.0079 -1.6104
  4404G12c C00381694  13.383   3.047   8.764  1.1511  2.4427  0.4728
  4404G12c C00281695  13.351   3.175   8.826 -1.0229  0.5663 -0.6692
  4404G12c C00181696  13.229   3.239   8.829  1.0082  0.4367  0.8820
  4404G12c C00M81697  13.096   3.199   8.844 -2.3411 -0.7180 -0.8369
  4404G12c C00L81698  13.042   3.098   8.764 -0.0553 -0.1162  1.3531
  4404G12c C00R81699  12.908   3.030   8.796  0.5801 -0.1678 -0.4510
  4404G12c C00Q81700  12.785   3.058   8.870  0.5142 -1.7224  1.5633
  4404G12c C00V81701  12.686   2.960   8.863 -0.7129  1.3605 -0.8333
  4404G12c C00U81702  12.726   2.824   8.819 -1.1742 -1.0116 -1.4717
  4404G12c C00T81703  12.851   2.787   8.766  0.3609 -0.0337 -1.3225
  4404G12c C01681704  12.880   2.682   8.688 -1.4521 -0.5228  0.5396
  4404G12c C01581705  12.787   2.573   8.683  0.1889 -1.6036 -0.7622
  4404G12c C01081706  12.665   2.588   8.759  1.2980  1.2235  2.1386
  4404G12c C01181707  12.562   2.487   8.727  0.3245  0.0607 -0.4805
  4404G12c H00581708  12.458   2.509   8.747  0.2435  0.4649 -1.3166
  4404G12c C01281709  12.594   2.380   8.645  0.6279 -0.5751  1.1810
  4404G12c C01781710  12.492   2.298   8.581  0.7834  1.6665 -0.0946
  4404G12c O00281711  12.416   2.339   8.478 -0.1306  1.0595 -1.0962
  4404G12c H00481712  12.468   2.411   8.444 -1.6695  0.9750 -3.7460
  4404G12c C01881713  12.468   2.162   8.609 -0.0796  0.2128 -1.0363
  4404G12c O00181714  12.407   2.071   8.528  0.2759 -0.2924 -0.9389
  4404G12c H00381715  12.397   1.982   8.560 -0.8601  1.0698  2.7911
  4404G12c C01981716  12.544   2.071   8.713  0.9989 -0.4678 -0.6279
  4404G12c H00281717  12.624   2.109   8.776 -6.3389  3.8841  7.1377
  4404G12c H00181718  12.456   2.038   8.768 -0.6189  1.4570 -1.9608
  4404G12c O00081719  12.604   1.954   8.644 -0.1051 -0.6973 -0.6218
  4404G12c C01A81720  12.686   1.868   8.708 -0.1210 -1.1192  1.5218
  4404G12c C02K81721  12.710   1.851   8.843  0.9221 -0.1721 -0.5394
  4404G12c O00G81722  12.626   1.875   8.951  0.8007 -1.3827  0.0518
  4404G12c C02M81723  12.514   1.802   8.942  0.9918 -0.5592  2.7878
  4404G12c H01G81724  12.509   1.714   9.007  2.8987 -2.8658 -0.0097
  4404G12c H01F81725  12.439   1.872   8.977 -2.8396 -3.4613  0.7817
  4404G12c H01E81726  12.505   1.779   8.835  4.1604 -2.6578  2.9052
  4404G12c C02J81727  12.801   1.734   8.881 -1.5096 -0.3439 -0.5207
  4404G12c H01H81728  12.808   1.729   8.988  2.9976  9.1241  0.1479
  4404G12c C02I81729  12.900   1.702   8.789  1.4853  0.3552  0.1253
  4404G12c C02N81730  13.009   1.625   8.836 -1.1722 -1.9235 -0.3181
  4404G12c H01M81731  13.061   1.669   8.920 -5.0600 -1.1723  1.8614
  4404G12c C02O81732  13.033   1.505   8.777  0.3133  0.4355  0.3566
  4404G12c H01L81733  12.965   1.480   8.697 -0.5149  1.4155  0.7390
  4404G12c C02P81734  13.149   1.415   8.809  0.7534 -1.6910  1.0916
  4404G12c H01K81735  13.197   1.400   8.713  1.9063 -4.9521  2.0991
  4404G12c H01J81736  13.229   1.463   8.866 -2.0741  5.7629 -0.6009
  4404G12c O00H81737  13.076   1.333   8.900  1.8500  0.1239 -0.3604
  4404G12c H01I81738  13.146   1.288   8.945  5.5129  0.5491 -5.1348
  4404G12c C02H81739  12.877   1.740   8.658 -2.1010 -1.0907  1.1079
  4404G12c H01C81740  12.953   1.733   8.582  1.5182  0.5060  4.3683
  4404G12c C02L81741  12.761   1.792   8.607  3.1116  0.8270 -0.3180
  4404G12c H01D81742  12.754   1.805   8.500  1.0342 -0.4109 -0.3574
  4404G12c C01381743  12.721   2.352   8.629  0.1435  0.3816 -0.0855
  4404G12c H00081744  12.758   2.263   8.581 -3.7813  0.0380 -2.6926
  4404G12c C01481745  12.823   2.454   8.629 -0.2532  0.3238  0.5265
  4404G12c C00F81746  12.959   2.440   8.590  2.0449  0.2656 -1.1948
  4404G12c C00H81747  13.009   2.671   8.629  1.0177 -1.8482 -0.9298
  4404G12c C00I81748  13.095   2.782   8.613 -0.2953  0.5894 -0.3057
  4404G12c C00J81749  13.038   2.913   8.667  1.2459  0.7105  0.8352
  4404G12c C00Z81750  12.634   2.718   8.826 -0.9556  0.8735 -0.5240
  4404G12c C00Y81751  12.505   2.759   8.847 -0.2455  1.2977  0.5444
  4404G12c H00681752  12.415   2.700   8.843 -2.9512  5.3850 -8.0976
  4404G12c C00X81753  12.478   2.892   8.903 -1.3305  0.2674 -0.9602
  4404G12c O00381754  12.360   2.927   8.965  0.2092  0.7500 -0.2313
  4404G12c C01B81755  12.355   2.890   9.087 -0.9059  1.9095 -0.8116
  4404G12c H00981756  12.283   2.809   9.093  0.9015  0.1061 -2.5129
  4404G12c H00881757  12.352   2.989   9.131  1.0422  3.6723 -4.4120
  4404G12c H00781758  12.447   2.841   9.120  1.0922  4.8758 -1.8422
  4404G12c C00W81759  12.574   2.982   8.926 -1.9013 -1.4902  0.9378
  4404G12c O00481760  12.552   3.108   8.989 -0.3113 -0.8136  0.6147
  4404G12c C01C81761  12.656   3.165   9.032 -0.1795  0.0988 -0.9553
  4404G12c H00A81762  12.622   3.241   9.101  1.8674 -2.2426  2.7782
  4404G12c C00P81763  12.779   3.179   8.957  0.1584 -0.2007  0.9628
  4404G12c C00O81764  12.896   3.244   9.012  0.9009 -1.5530 -0.2926
  4404G12c C01D81765  12.885   3.293   9.150  0.9662  0.4912  1.0899
  4404G12c H00S81766  12.781   3.283   9.177 -0.2997 -3.9440 -4.6286
  4404G12c C01E81767  12.979   3.368   9.218 -0.9612  1.4300  0.2242
  4404G12c O00881768  12.940   3.383   9.341 -1.5080  0.8937 -0.3078
  4404G12c C01V81769  12.964   3.520   9.406 -0.1864  2.0976 -1.4340
  4404G12c C01Z81770  12.830   3.608   9.378  0.7119  0.9904  0.2435
  4404G12c H00R81771  12.791   3.643   9.473 -3.7149 -0.6058 -0.8520
  4404G12c H00Q81772  12.881   3.702   9.354  1.9486 -0.3120 -2.4575
  4404G12c O00981773  12.725   3.529   9.315  0.2225 -0.8963  0.4484
  4404G12c H00P81774  12.669   3.578   9.257  2.2206  3.3636  1.9011
  4404G12c C01W81775  13.071   3.544   9.489  0.4186  0.3877  0.8026
  4404G12c H00O81776  13.162   3.487   9.483 -0.1741 -0.2549 -4.4065
  4404G12c C01X81777  13.087   3.679   9.553  1.1027  0.2742  0.0884
  4404G12c H00N81778  12.996   3.731   9.581  0.1858 -4.0983  6.2994
  4404G12c H00M81779  13.157   3.678   9.636  2.1370 -1.0254 -0.7771
  4404G12c C01Y81780  13.186   3.751   9.453 -0.7092 -0.1989 -0.0566
  4404G12c C02D81781  13.290   3.831   9.520 -0.3488  0.3461 -2.1336
  4404G12c H01981782  13.299   3.861   9.624  2.1610  0.6867 -2.4304
  4404G12c C02C81783  13.374   3.920   9.438 -0.8444  0.4947  0.0672
  4404G12c H01A81784  13.439   3.987   9.492  2.8765 -1.9959 -1.1567
  4404G12c C02B81785  13.357   3.918   9.300  0.8953 -0.7465  0.8596
  4404G12c O00E81786  13.439   4.005   9.238 -0.5830 -0.9228  0.9835
  4404G12c H01B81787  13.396   4.035   9.159 -1.3089  0.5977  1.9396
  4404G12c C02F81788  13.273   3.826   9.235 -0.6536  0.1981  0.3237
  4404G12c O00F81789  13.234   3.830   9.107 -0.1541  1.0187  0.8155
  4404G12c C02G81790  13.262   3.731   9.016 -0.8618 -1.2282  0.8463
  4404G12c H01781791  13.368   3.754   9.008 -0.5909 -3.4388 -2.7673
  4404G12c H01681792  13.194   3.731   8.931 -0.4271 -4.6586  0.4440
  4404G12c H01581793  13.258   3.626   9.045  1.3808 -3.0786 -4.7764
  4404G12c C02E81794  13.194   3.749   9.312  0.3905  0.8728  1.4747
  4404G12c H01881795  13.100   3.719   9.269  2.3028 -5.6915  1.3321
  4404G12c C01F81796  13.107   3.370   9.158 -0.4621  0.1577  0.5756
  4404G12c C01G81797  13.247   3.379   9.221 -0.1499 -0.0105  0.0630
  4404G12c H00L81798  13.259   3.401   9.326  2.4266  3.0544 -0.7806
  4404G12c C01H81799  13.366   3.347   9.138  1.5718  1.2201 -0.4820
  4404G12c H00B81800  13.457   3.384   9.184  3.7736 -1.1232 -2.8219
  4404G12c C01I81801  13.373   3.310   9.011 -0.1117 -0.4529 -0.3390
  4404G12c C01U81802  13.120   3.350   9.019 -0.1759 -1.1727 -0.1292
  4404G12c C00S81803  12.932   2.907   8.748 -0.0450  0.6026  0.4669
  4404G12c C00K81804  13.140   3.007   8.706  1.8146  0.4188 -0.6397
  4404G12c C00N81805  13.018   3.277   8.952  1.5221 -0.3107  0.6413
  4404G12c C00081806  13.249   3.330   8.939  0.8677  2.0468 -0.5487
  4404G12c C01J81807  13.432   3.210   8.944 -0.6497  0.2084 -0.3992
  4404G12c C01K81808  13.564   3.159   8.951 -0.7780 -1.3170 -0.5835
  4404G12c C01P81809  13.683   3.201   9.025  0.0234  1.8018 -1.2732
  4404G12c C01Q81810  13.688   3.323   9.113 -0.0205 -0.7113 -1.3908
  4404G12c H00G81811  13.678   3.425   9.078 -1.1497 -0.2244  0.3137
  4404G12c C01R81812  13.745   3.315   9.230  1.1218  0.5912 -0.0007
  4404G12c H00F81813  13.777   3.219   9.269 -0.8193 -2.1147 -4.6225
  4404G12c C01S81814  13.782   3.425   9.323  1.3528  0.6166  0.4481
  4404G12c H00E81815  13.843   3.374   9.398  4.1733  3.9552  0.5484
  4404G12c H00D81816  13.860   3.500   9.305  1.8512  1.1025  4.2740
  4404G12c O00581817  13.644   3.440   9.378 -0.5234  0.9861 -1.0965
  4404G12c H00C81818  13.592   3.452   9.300  2.5669  2.0823 -3.0803
  4404G12c C01O81819  13.810   3.144   9.021  0.8001  1.9489  0.7029
  4404G12c H00H81820  13.899   3.191   9.062  5.1170 -2.6961 -2.6297
  4404G12c C01N81821  13.827   3.012   8.968 -0.1162 -0.6153  0.3877
  4404G12c O00681822  13.953   2.958   8.965 -2.2233  0.2719 -0.5634
  4404G12c C01T81823  14.031   2.982   8.844  0.1655  1.6531 -1.0188
  4404G12c H00K81824  13.972   3.021   8.762  2.6244 -1.6871 -4.5570
  4404G12c H00J81825  14.041   2.887   8.792 -0.2091  1.8254 -1.4032
  4404G12c H00I81826  14.138   3.003   8.849  1.5912 -4.5718  7.3312
  4404G12c C01M81827  13.719   2.967   8.888  0.3825  0.9333 -1.5752
  4404G12c C02081828  13.279   2.982   8.679 -0.7845  0.5300 -1.6300
  4404G12c C02181829  13.314   2.859   8.601  0.0647 -0.4683 -0.2429
  4404G12c C01L81830  13.599   3.039   8.870 -0.9129 -1.3213  0.0461
  4404G12c O00781831  13.727   2.834   8.842 -0.7833 -0.1382 -2.2175
  4404G12c C02281832  13.428   2.791   8.647 -2.1645  0.2448  0.7266
  4404G12c C02381833  13.224   2.756   8.575 -0.6730 -0.2698  0.1654
  4404G12c C00G81834  13.050   2.540   8.605  0.4950  0.9491  0.0787
  4404G12c C00E81835  13.002   2.326   8.513 -1.5083  0.1437 -0.9508
  4404G12c O00A81836  12.917   2.255   8.421  0.6947 -1.5668  0.5938
  4404G12c C02481837  12.904   2.291   8.285  1.8949 -1.3013 -0.0573
  4404G12c H00V81838  12.812   2.344   8.260  3.3300  1.1357 -0.2284
  4404G12c H00U81839  12.872   2.207   8.223 -3.0429 -2.7157  3.9758
  4404G12c H00T81840  12.993   2.338   8.245  4.1352 -3.2993  2.4208
  4414G12c C00D81841  12.341  12.099   0.092  1.3093 -2.5859  1.4894
  4414G12c O00B81842  12.348  12.072   0.229  0.5936  1.0087  0.5456
  4414G12c C02581843  12.227  12.021   0.281 -1.1852 -0.6815  0.3472
  4414G12c C02681844  12.237  11.868   0.300 -0.9408  0.3991 -0.5670
  4414G12c H00Y81845  12.253  11.821   0.204 -1.9982  1.3129 -1.2047
  4414G12c H00X81846  12.145  11.811   0.287 -0.8383  1.0976 -5.2069
  4414G12c O00C81847  12.318  11.817   0.428  0.6990  0.9162  0.4816
  4414G12c H00W81848  12.366  11.886   0.471  0.0657  1.0825  0.9275
  4414G12c C02781849  12.101  12.074   0.287 -0.6134 -0.0617  1.0774
  4414G12c O00D81850  12.070  12.204   0.246 -0.1493 -0.1834 -0.7181
  4414G12c H00Z81851  12.157  12.235   0.229 -1.3675  2.3045 -2.7575
  4414G12c C02881852  11.990  12.013   0.349 -2.8345  1.8708 -0.1750
  4414G12c C02981853  11.967  11.970   0.478  1.2531  0.9672 -0.2367
  4414G12c H01081854  12.037  11.999   0.555  1.5843 -1.0734  0.2410
  4414G12c C02T81855  11.852  11.906   0.527  1.1819 -1.5786  0.0412
  4414G12c H01O81856  11.859  11.885   0.632 -2.8039 -1.3693  0.4231
  4414G12c C02S81857  11.740  11.922   0.441  0.2560  0.6522  0.7818
  4414G12c O00J81858  11.622  11.881   0.489 -0.0046 -0.8345  0.8168
  4414G12c H01P81859  11.556  11.847   0.430 -3.6724  3.4625  2.1479
  4414G12c C02R81860  11.751  11.943   0.302 -1.3124 -0.7730 -0.9013
  4414G12c O00I81861  11.647  11.941   0.215 -0.1774 -0.1177 -0.1624
  4414G12c C02Q81862  11.538  12.022   0.196  1.3153 -0.5163 -1.4231
  4414G12c H01N81863  11.566  12.104   0.130  0.2242  0.3931 -0.7762
  4414G12c H01R81864  11.479  12.023   0.288 -6.8390  0.8187 -6.1514
  4414G12c H01Q81865  11.469  11.964   0.134 -2.1349  3.1417 -1.1826
  4414G12c C02A81866  11.887  11.987   0.265  0.3696 -2.2534  0.6197
  4414G12c H01181867  11.878  12.011   0.160 -0.1031 -4.5730  0.0977
  4414G12c C00C81868  12.397  12.002   0.019 -1.1885 -1.6928  2.2763
  4414G12c H01281869  12.430  11.906   0.057  4.5297 -2.2098 -3.2211
  4414G12c C00B81870  12.431  12.032  -0.108 -0.3775 -1.7161  0.0493
  4414G12c C00A81871  12.452  11.947  -0.215  0.6553 -0.5478 -0.3843
  4414G12c C00981872  12.567  11.867  -0.204  1.5325 -0.4196  0.4004
  4414G12c C00881873  12.628  11.812  -0.098 -1.6573  0.0094 -0.1287
  4414G12c H01381874  12.594  11.833   0.003 -1.9478  3.3248 -0.8815
  4414G12c C00781875  12.754  11.755  -0.111  0.0838 -0.8289  0.5815
  4414G12c H01481876  12.803  11.721  -0.021 -2.2789 -2.9156  1.1504
  4414G12c C00681877  12.805  11.743  -0.239  0.1212 -0.1269 -0.2267
  4414G12c C00581878  12.739  11.799  -0.351 -0.2075  0.9470 -1.9964
  4414G12c C00481879  12.798  11.804  -0.480  0.2069  0.3733 -0.4547
  4414G12c C00381880  12.737  11.893  -0.565  0.7490  1.0080  0.4474
  4414G12c C00281881  12.808  11.908  -0.692 -0.4615 -0.2444  0.8156
  4414G12c C00181882  12.786  12.002  -0.805  0.1743 -0.5987  0.0521
  4414G12c C00M81883  12.755  12.132  -0.773  0.0114  0.2725 -1.1893
  4414G12c C00L81884  12.609  12.166  -0.741  0.7547  1.1241 -3.2508
  4414G12c C00R81885  12.591  12.291  -0.670 -1.1427 -0.2067 -0.8940
  4414G12c C00Q81886  12.639  12.428  -0.708  1.8055 -1.8774 -0.8483
  4414G12c C00V81887  12.579  12.531  -0.642  1.9375  1.4948 -1.1833
  4414G12c C00U81888  12.506  12.514  -0.520  0.7588 -0.8984 -0.9666
  4414G12c C00T81889  12.466  12.389  -0.483  0.3354 -0.6359 -0.0685
  4414G12c C01681890  12.429  12.354  -0.356 -0.1878  0.4405  0.3286
  4414G12c C01581891  12.421  12.449  -0.260 -1.8104  1.9233  0.7251
  4414G12c C01081892  12.416  12.578  -0.303  0.5531 -2.0295 -1.4107
  4414G12c C01181893  12.388  12.683  -0.205 -1.6122 -0.4912 -0.7045
  4414G12c H00581894  12.408  12.783  -0.241  3.3375 -1.3892 -0.6820
  4414G12c C01281895  12.328  12.658  -0.073 -2.1430  0.8030 -0.3904
  4414G12c C01781896  12.252  12.754   0.030 -0.1581 -0.1704 -0.1688
  4414G12c O00281897  12.245  12.720   0.159  0.3350 -0.9216 -0.6789
  4414G12c H00481898  12.338  12.717   0.142  0.0876  0.4632 -2.4261
  4414G12c C01881899  12.183  12.862  -0.021 -0.6658  0.4281  0.1186
  4414G12c O00181900  12.165  12.885  -0.143 -0.5824 -1.0450  0.7104
  4414G12c H00381901  12.107  12.956  -0.120 -2.2840 -1.6705 -1.4369
  4414G12c C01981902  12.128  12.982   0.074  0.2658 -0.4194 -1.2213
  4414G12c H00281903  12.114  12.955   0.179  0.7875  6.1217  0.7500
  4414G12c H00181904  12.167  13.084   0.084 -7.9060  3.1689 -1.5012
  4414G12c O00081905  12.005  12.985  -0.008 -0.5738 -0.2576 -1.0078
  4414G12c C01A81906  11.905  13.035   0.036  0.0898 -0.7155  0.3337
  4414G12c C02K81907  11.861  13.017   0.176  0.4694 -0.0268  1.4762
  4414G12c O00G81908  11.900  12.901   0.250 -0.1722 -0.0731 -1.1676
  4414G12c C02M81909  11.855  12.772   0.204  0.0644  0.8133  0.8050
  4414G12c H01G81910  11.754  12.792   0.238 -1.3256 -0.4309 -2.3526
  4414G12c H01F81911  11.902  12.695   0.265 -4.5977 -3.3462 -0.5333
  4414G12c H01E81912  11.864  12.747   0.098  3.6291 -1.3997  1.5497
  4414G12c C02J81913  11.739  13.078   0.217 -0.3684 -2.0844 -0.0855
  4414G12c H01H81914  11.690  13.007   0.282 -0.0694 -1.3746  0.9363
  4414G12c C02I81915  11.651  13.158   0.129 -0.2560  0.3356  1.4520
  4414G12c C02N81916  11.523  13.231   0.143 -0.3704  0.4269  0.4974
  4414G12c H01M81917  11.486  13.284   0.056  0.0577  2.4318  1.4959
  4414G12c C02O81918  11.454  13.203   0.241 -0.0401 -0.1088 -0.3521
  4414G12c H01L81919  11.465  13.130   0.321 -0.2274 -2.0632 -2.0696
  4414G12c C02P81920  11.319  13.269   0.258 -0.6589 -0.0489  0.3998
  4414G12c H01K81921  11.340  13.352   0.191  0.9725 -1.8033 -1.3652
  4414G12c H01J81922  11.240  13.202   0.222 -0.5622 -0.9316  1.7910
  4414G12c O00H81923  11.303  13.314   0.390 -2.4537 -1.1300 -1.3908
  4414G12c H01I81924  11.254  13.395   0.386  2.3124  1.8793 -3.7556
  4414G12c C02H81925  11.723  13.208   0.021 -0.4847  1.3731 -0.1070
  4414G12c H01C81926  11.686  13.283  -0.047 -3.1802  1.8680  1.7978
  4414G12c C02L81927  11.827  13.134  -0.034  0.7816  0.7117  0.5982
  4414G12c H01D81928  11.854  13.191  -0.121  3.8760 -2.4757 -0.6542
  4414G12c C01381929  12.319  12.517  -0.047 -0.3955 -0.1498 -1.4923
  4414G12c H00081930  12.262  12.497   0.043 -0.4084  0.0363 -1.4596
  4414G12c C01481931  12.371  12.411  -0.130  0.8128  0.4573  0.9581
  4414G12c C00F81932  12.382  12.273  -0.082  0.7882 -1.1174 -0.7538
  4414G12c C00H81933  12.424  12.207  -0.306 -1.9458 -0.0804 -0.5358
  4414G12c C00I81934  12.428  12.108  -0.403 -0.2329  0.8119  1.0497
  4414G12c C00J81935  12.466  12.152  -0.550  0.2550 -0.8451  0.6467
  4414G12c C00Z81936  12.457  12.621  -0.437 -1.7544  1.5912 -0.8675
  4414G12c C00Y81937  12.490  12.758  -0.482 -1.5544  0.8296  0.2743
  4414G12c H00681938  12.451  12.844  -0.430  1.6691  1.6435  1.4239
  4414G12c C00X81939  12.552  12.771  -0.621  1.7882 -1.5286 -0.7342
  4414G12c O00381940  12.553  12.893  -0.686  1.4657  0.9836  1.4267
  4414G12c C01B81941  12.532  13.017  -0.619 -1.1716 -0.9168  2.3777
  4414G12c H00981942  12.526  13.040  -0.512  3.4091 -3.3020  3.3023
  4414G12c H00881943  12.525  13.111  -0.674 -0.1194 -2.1628  0.0429
  4414G12c H00781944  12.637  13.043  -0.608 -1.2677  3.6357 -4.4507
  4414G12c C00W81945  12.603  12.665  -0.690 -0.6525 -0.2570  0.2907
  4414G12c O00481946  12.661  12.691  -0.805 -0.0165 -0.2882 -1.1581
  4414G12c C01C81947  12.748  12.588  -0.852 -0.5318  0.0726  0.3494
  4414G12c H00A81948  12.782  12.576  -0.954 -3.9984 -3.0731 -0.5604
  4414G12c C00P81949  12.741  12.453  -0.795  0.8211  0.3459  0.8519
  4414G12c C00O81950  12.853  12.368  -0.821  1.4178 -0.3198 -0.1093
  4414G12c C01D81951  12.987  12.420  -0.832 -0.6312  0.6153  0.6420
  4414G12c H00S81952  12.999  12.527  -0.838  9.1537  0.0621  2.6702
  4414G12c C01E81953  13.105  12.342  -0.836  0.0436 -0.4672 -0.3891
  4414G12c O00881954  13.212  12.418  -0.850 -0.3783  0.6104 -0.6990
  4414G12c C01V81955  13.280  12.456  -0.729  0.5385  0.3995  0.6930
  4414G12c C01Z81956  13.298  12.613  -0.728 -0.1614 -1.4018  0.3254
  4414G12c H00R81957  13.289  12.623  -0.836  1.9658  0.6369  0.2965
  4414G12c H00Q81958  13.210  12.643  -0.671  0.1308  0.1842 -0.0341
  4414G12c O00981959  13.420  12.637  -0.667 -0.4200  0.3869 -0.7950
  4414G12c H00P81960  13.473  12.566  -0.698 -1.2822 -0.6236  0.0059
  4414G12c C01W81961  13.330  12.370  -0.631 -1.0040 -0.3193  0.9985
  4414G12c H00O81962  13.298  12.277  -0.676 -1.0418  2.0894 -4.2347
  4414G12c C01X81963  13.413  12.374  -0.490 -0.3458 -0.2477 -1.3407
  4414G12c H00N81964  13.478  12.286  -0.485  7.7939  5.1170 -2.4232
  4414G12c H00M81965  13.480  12.451  -0.450  5.7937 -2.6103 -6.2514
  4414G12c C01Y81966  13.305  12.370  -0.395  0.1358  0.4278  0.0081
  4414G12c C02D81967  13.266  12.474  -0.318 -0.9802 -0.0084  1.0758
  4414G12c H01981968  13.338  12.554  -0.305  2.0635 -3.0520  3.7544
  4414G12c C02C81969  13.151  12.488  -0.245  0.1324 -2.1778 -1.7245
  4414G12c H01A81970  13.141  12.570  -0.175  3.4220  1.4587 -5.2017
  4414G12c C02B81971  13.052  12.378  -0.246 -1.8042 -1.8011  0.8549
  4414G12c O00E81972  12.932  12.381  -0.189 -0.0908 -0.6455  0.0481
  4414G12c H01B81973  12.870  12.323  -0.232  3.9807 -1.7213 -4.9330
  4414G12c C02F81974  13.073  12.271  -0.342 -0.4778 -0.0012 -0.0720
  4414G12c O00F81975  12.981  12.175  -0.359  0.7733  0.6616  2.3535
  4414G12c C02G81976  12.931  12.179  -0.501 -2.0847 -0.8892  0.5956
  4414G12c H01781977  13.010  12.112  -0.535 -1.5913 -1.0945  2.1155
  4414G12c H01681978  12.832  12.134  -0.511 -3.6771  2.8574 -1.6598
  4414G12c H01581979  12.939  12.251  -0.583  1.9901  1.1709  2.6458
  4414G12c C02E81980  13.204  12.265  -0.402  0.0065 -1.0086 -0.0676
  4414G12c H01881981  13.216  12.201  -0.488 -5.6732 -2.4859  0.0957
  4414G12c C01F81982  13.078  12.194  -0.825 -0.2508 -1.4958 -0.7729
  4414G12c C01G81983  13.176  12.103  -0.788 -0.0617 -0.5399 -0.0088
  4414G12c H00L81984  13.279  12.131  -0.801  1.0621 -3.2133  2.5087
  4414G12c C01H81985  13.147  11.954  -0.771  1.4133 -2.0580 -0.3394
  4414G12c H00B81986  13.217  11.877  -0.741 -0.8844 -3.1545  2.5122
  4414G12c C01I81987  13.007  11.922  -0.791  1.2689  1.1166 -0.6277
  4414G12c C01U81988  12.959  12.144  -0.854 -0.1162 -0.5828  0.2082
  4414G12c C00S81989  12.498  12.286  -0.574 -0.9446  0.7932 -0.7300
  4414G12c C00K81990  12.557  12.077  -0.623 -1.3392 -0.5397  0.0086
  4414G12c C00N81991  12.846  12.232  -0.814 -0.6739  1.4347  0.6533
  4414G12c C00081992  12.921  12.022  -0.830  1.5014 -1.2452  0.0076
  4414G12c C01J81993  12.922  11.839  -0.708  0.1870 -0.6355  2.6925
  4414G12c C01K81994  12.977  11.733  -0.635 -0.6527 -0.1766 -0.0395
  4414G12c C01P81995  13.086  11.639  -0.635  1.0479  0.0616  0.3727
  4414G12c C01Q81996  13.168  11.641  -0.765  0.2265 -0.4514 -0.1025
  4414G12c H00G81997  13.147  11.653  -0.870  4.6197 -0.9074 -1.1298
  4414G12c C01R81998  13.282  11.586  -0.773 -0.2528 -0.5923  1.1710
  4414G12c H00F81999  13.345  11.589  -0.685  0.4830  4.1153  0.6451
  4414G12c C01S82000  13.347  11.533  -0.902 -0.5106 -0.0581  0.3536
  4414G12c H00E82001  13.453  11.513  -0.892  0.1919 -0.0481 -5.5977
  4414G12c H00D82002  13.367  11.619  -0.965 12.5226 -4.2898 -2.8048
  4414G12c O00582003  13.243  11.430  -0.949 -0.5961 -0.8863 -0.5681
  4414G12c H00C82004  13.267  11.350  -0.993  1.6822  1.4048 -3.6974
  4414G12c C01O82005  13.126  11.540  -0.536  0.4623 -1.7093 -1.0352
  4414G12c H00H82006  13.221  11.489  -0.538  0.2468 -2.0276 -3.7771
  4414G12c C01N82007  13.065  11.561  -0.420 -2.1369  0.3735  0.9585
  4414G12c O00682008  13.090  11.476  -0.313  0.4358 -0.0658  0.3568
  4414G12c C01T82009  13.072  11.331  -0.330  1.6070  0.5594  0.9332
  4414G12c H00K82010  13.068  11.295  -0.432  3.4294 -1.6400  1.5868
  4414G12c H00J82011  13.137  11.270  -0.266  2.5725  4.1041  3.5530
  4414G12c H00I82012  12.974  11.319  -0.285 -1.6036  1.0273 -5.4898
  4414G12c C01M82013  12.953  11.650  -0.401 -1.9298 -0.5613  1.3167
  4414G12c C02082014  12.597  11.960  -0.541 -0.1452  1.6249  0.6633
  4414G12c C02182015  12.534  11.901  -0.422  1.3353 -0.5510 -1.0189
  4414G12c C01L82016  12.906  11.728  -0.504  2.5363 -0.7080  1.3227
  4414G12c O00782017  12.908  11.673  -0.271 -0.7027 -0.7445 -0.1235
  4414G12c C02282018  12.621  11.869  -0.329  0.0018 -0.3425  1.1210
  4414G12c C02382019  12.463  11.984  -0.345  0.2676  0.6618 -2.7892
  4414G12c C00G82020  12.405  12.168  -0.167 -0.1528  0.5733 -1.1957
  4414G12c C00E82021  12.341  12.228   0.052 -0.5855 -0.3391 -0.2127
  4414G12c O00A82022  12.333  12.327   0.142 -0.1933  0.1688  0.9309
  4414G12c C02482023  12.459  12.367   0.196  0.2070 -0.0500  1.1675
  4414G12c H00V82024  12.440  12.414   0.293 -8.2389 -1.8650  0.7844
  4414G12c H00U82025  12.499  12.439   0.124 -2.0599 -1.0322 -1.1387
  4414G12c H00T82026  12.523  12.279   0.201 -3.7529 -3.1798 -1.0024
  4424G12c C00D82027   9.760   8.934   5.847 -1.7471  0.2091  0.7883
  4424G12c O00B82028   9.900   8.928   5.858 -0.9916  0.1223  0.7366
  4424G12c C02582029   9.974   8.821   5.820  0.3958  1.0097 -0.1416
  4424G12c C02682030  10.018   8.842   5.669 -0.6846 -1.2609  0.7962
  4424G12c H00Y82031  10.119   8.804   5.653 -1.3054 -4.4542  3.8252
  4424G12c H00X82032   9.996   8.948   5.668  0.7297 -0.9324  2.0641
  4424G12c O00C82033   9.909   8.783   5.597  0.2808  0.3533 -0.0276
  4424G12c H00W82034   9.862   8.709   5.633  0.6689 -0.2915 -0.8142
  4424G12c C02782035  10.001   8.719   5.908 -0.8157  0.5574  0.3693
  4424G12c O00D82036   9.958   8.755   6.034  0.6512 -0.0886 -0.8119
  4424G12c H00Z82037   9.887   8.818   6.039  1.1788  0.4690  7.9249
  4424G12c C02882038  10.046   8.581   5.874 -0.3886 -0.2352 -0.6284
  4424G12c C02982039  10.158   8.543   5.804 -2.4673 -0.6966 -0.5165
  4424G12c H01082040  10.186   8.620   5.734 -0.0275 -1.4431 -0.4269
  4424G12c C02T82041  10.238   8.419   5.818 -1.1007  2.4981 -0.5928
  4424G12c H01O82042  10.333   8.414   5.767  0.4596  5.6315  1.8641
  4424G12c C02S82043  10.178   8.325   5.918 -0.3206  0.4064 -1.4636
  4424G12c O00J82044  10.229   8.194   5.918 -1.1966  0.2340 -0.4843
  4424G12c H01P82045  10.230   8.124   5.856 -1.9836  1.3065 -1.7227
  4424G12c C02R82046  10.072   8.373   6.002  0.5405 -0.0940 -2.8305
  4424G12c O00I82047  10.030   8.326   6.125  0.8980 -0.6385  0.2332
  4424G12c C02Q82048  10.135   8.281   6.212 -0.0711 -0.1692 -0.5611
  4424G12c H01N82049  10.093   8.232   6.300  0.6477 -1.7148 -1.0658
  4424G12c H01R82050  10.210   8.317   6.284 -2.1513  1.0746  1.0501
  4424G12c H01Q82051  10.204   8.220   6.154  1.4149  1.0030 -0.0829
  4424G12c C02A82052   9.988   8.479   5.949  0.0058  0.7902 -0.0828
  4424G12c H01182053   9.899   8.520   5.994  0.0583  1.7497 -0.8379
  4424G12c C00C82054   9.712   9.060   5.848 -1.7875 -1.1371  0.8842
  4424G12c H01282055   9.787   9.138   5.849 -7.2245  4.4705  1.4002
  4424G12c C00B82056   9.573   9.095   5.835 -0.5486  2.7620  0.8593
  4424G12c C00A82057   9.515   9.227   5.840  1.7447  0.2419 -0.0650
  4424G12c C00982058   9.541   9.342   5.940 -0.6229 -0.0283 -1.2632
  4424G12c C00882059   9.654   9.361   6.021  0.7054 -0.2833 -0.3305
  4424G12c H01382060   9.757   9.330   6.010  0.2776 -0.6442 -3.8180
  4424G12c C00782061   9.648   9.443   6.133 -0.1529 -1.8535 -1.0069
  4424G12c H01482062   9.733   9.478   6.191  1.6404 -2.3986 -3.2409
  4424G12c C00682063   9.518   9.480   6.181 -0.4717 -0.4128  1.4418
  4424G12c C00582064   9.408   9.438   6.105  1.1473 -0.9316 -1.1514
  4424G12c C00482065   9.280   9.465   6.153  0.7836 -0.3091 -0.2871
  4424G12c C00382066   9.175   9.417   6.067  1.1642  1.3253  0.6162
  4424G12c C00282067   9.040   9.449   6.118  0.4362 -0.1825 -0.5750
  4424G12c C00182068   8.907   9.393   6.073 -0.2592  0.0728  1.5010
  4424G12c C00M82069   8.886   9.251   6.051  1.2051 -2.4250  1.2789
  4424G12c C00L82070   8.952   9.188   5.953  0.1647  1.6384 -0.6812
  4424G12c C00R82071   8.941   9.046   5.928 -0.4245 -1.5925 -0.3103
  4424G12c C00Q82072   8.852   8.939   5.992 -0.2231  0.6721  0.9262
  4424G12c C00V82073   8.899   8.811   5.959  0.2892  0.1275  1.0504
  4424G12c C00U82074   9.038   8.798   5.945 -0.0305 -1.4619 -0.1672
  4424G12c C00T82075   9.130   8.889   5.891  0.4979  0.8463 -1.5320
  4424G12c C01682076   9.265   8.889   5.891  1.5877  0.4703  0.8505
  4424G12c C01582077   9.324   8.767   5.931  1.5122 -0.5262  0.1154
  4424G12c C01082078   9.226   8.664   5.961  0.3093 -1.1680  0.3047
  4424G12c C01182079   9.290   8.537   6.018  3.1212 -0.1667  0.3157
  4424G12c H00582080   9.236   8.456   6.066 -3.0604  2.5485 -1.5882
  4424G12c C01282081   9.420   8.541   6.070 -0.7343 -0.3907  0.1707
  4424G12c C01782082   9.482   8.484   6.183 -2.8250 -0.0154  0.1087
  4424G12c O00282083   9.544   8.356   6.165 -0.5295 -0.9137  0.4896
  4424G12c H00482084   9.537   8.319   6.078  2.7146  5.6445 -2.9502
  4424G12c C01882085   9.471   8.524   6.307  0.4207  0.6351  0.6921
  4424G12c O00182086   9.495   8.440   6.412 -1.3497  0.7288  0.8152
  4424G12c H00382087   9.544   8.359   6.404  2.3994  2.6112  3.0387
  4424G12c C01982088   9.410   8.661   6.379  1.3060  0.0606 -0.2643
  4424G12c H00282089   9.307   8.625   6.387  2.9007 -4.3474  2.7826
  4424G12c H00182090   9.455   8.671   6.478  1.2722 -2.8595  0.0937
  4424G12c O00082091   9.442   8.773   6.293 -0.0243  0.4459 -0.9560
  4424G12c C01A82092   9.549   8.847   6.327 -0.5453  1.9129 -1.5675
  4424G12c C02K82093   9.566   8.983   6.285 -0.9035  0.8299 -0.7597
  4424G12c O00G82094   9.498   9.028   6.185  2.8441 -1.7698 -1.1237
  4424G12c C02M82095   9.365   9.063   6.214  0.4944  1.0319 -0.5021
  4424G12c H01G82096   9.325   8.968   6.178 -1.7405  1.2483  1.3481
  4424G12c H01F82097   9.311   9.158   6.211  1.7778  1.8819  1.9628
  4424G12c H01E82098   9.355   9.041   6.320 -7.0500  0.0373 -1.1269
  4424G12c C02J82099   9.675   9.062   6.327  0.3899  1.7845  0.3687
  4424G12c H01H82100   9.706   9.159   6.293  5.8104 -0.4581 -1.5890
  4424G12c C02I82101   9.786   9.003   6.395  0.1588 -0.1754  0.7230
  4424G12c C02N82102   9.924   9.050   6.365  1.5062 -0.4090 -0.0869
  4424G12c H01M82103   9.976   9.121   6.427  1.6478 -1.1295  0.6257
  4424G12c C02O82104   9.980   8.983   6.264  1.3181 -0.4366 -0.6206
  4424G12c H01L82105   9.908   8.928   6.205  4.3304  0.0791 -5.0060
  4424G12c C02P82106  10.118   9.000   6.229  0.4897 -0.1784 -0.5131
  4424G12c H01K82107  10.149   8.900   6.199  3.7767  0.7208 -0.3208
  4424G12c H01J82108  10.153   9.065   6.149 -2.0529 -2.7239 -3.8275
  4424G12c O00H82109  10.224   9.036   6.329  0.3053  0.6455  0.0617
  4424G12c H01I82110  10.270   9.114   6.302  0.3644  0.3633 -0.6657
  4424G12c C02H82111   9.763   8.878   6.441  0.3564  0.8430  1.2841
  4424G12c H01C82112   9.842   8.813   6.476 -1.0406 -2.6518 -1.7413
  4424G12c C02L82113   9.658   8.788   6.407 -1.2203  0.2458  1.2214
  4424G12c H01D82114   9.682   8.695   6.456 -4.7342 -0.7439  1.2528
  4424G12c C01382115   9.512   8.638   6.008  1.8882  0.6886 -0.0555
  4424G12c H00082116   9.615   8.625   6.037  1.0640 -0.8216  2.4045
  4424G12c C01482117   9.455   8.752   5.933 -2.4730 -1.2079  0.2879
  4424G12c C00F82118   9.544   8.859   5.882  0.6708 -0.6678 -1.1576
  4424G12c C00H82119   9.350   9.002   5.852 -0.4718  2.1795  0.2534
  4424G12c C00I82120   9.288   9.130   5.823 -0.0281  0.4748  1.3526
  4424G12c C00J82121   9.142   9.124   5.834  2.4099 -1.4884 -0.5808
  4424G12c C00Z82122   9.092   8.674   5.963 -2.1393  0.9482  0.0556
  4424G12c C00Y82123   9.012   8.565   5.994 -1.2864 -0.9140 -1.5179
  4424G12c H00682124   9.052   8.468   6.019  2.3978  1.2352  1.5697
  4424G12c C00X82125   8.878   8.581   6.009  0.7104 -0.1671 -1.4783
  4424G12c O00382126   8.803   8.487   6.088  1.2145  0.0876  0.5121
  4424G12c C01B82127   8.859   8.516   6.224  0.2347  0.1015  0.3886
  4424G12c H00982128   8.889   8.620   6.213  2.0597 -0.7058 -2.8963
  4424G12c H00882129   8.942   8.478   6.283  0.2378 -7.0129 -3.6801
  4424G12c H00782130   8.762   8.502   6.272 -0.0937  0.4166 -0.1760
  4424G12c C00W82131   8.808   8.700   5.997 -0.1691  0.6110  0.7149
  4424G12c O00482132   8.683   8.706   6.060  1.3334  0.9930  0.0251
  4424G12c C01C82133   8.669   8.828   6.116 -0.0788  1.3968 -0.2825
  4424G12c H00A82134   8.586   8.863   6.056  0.9899  0.6770 -2.2395
  4424G12c C00P82135   8.755   8.937   6.095 -1.5123 -0.1378 -0.4204
  4424G12c C00O82136   8.746   9.049   6.180  1.3840  1.5721  0.7313
  4424G12c C01D82137   8.668   9.025   6.297 -0.2305  2.1266 -0.7442
  4424G12c H00S82138   8.620   8.930   6.314  1.1172  2.0940  3.5035
  4424G12c C01E82139   8.673   9.124   6.394 -0.4719  0.5593  1.3032
  4424G12c O00882140   8.643   9.056   6.513  1.0994 -1.0824  0.1336
  4424G12c C01V82141   8.669   9.124   6.622  1.1109 -0.9027  2.3707
  4424G12c C01Z82142   8.798   9.101   6.694  0.2001 -1.3563  0.3903
  4424G12c H00R82143   8.816   8.993   6.688  1.7392 -0.9761 -7.0804
  4424G12c H00Q82144   8.897   9.114   6.652  0.0149  0.7413  0.5527
  4424G12c O00982145   8.830   9.171   6.808  0.2306  0.7695  1.0380
  4424G12c H00P82146   8.915   9.180   6.848  1.0345  2.1771 -0.8949
  4424G12c C01W82147   8.556   9.190   6.666  0.5895 -0.2441  0.7911
  4424G12c H00O82148   8.470   9.217   6.607  0.6380 -2.8130 -0.5568
  4424G12c C01X82149   8.500   9.189   6.806 -0.7298 -0.1299 -0.5187
  4424G12c H00N82150   8.418   9.123   6.774 -0.1084 -3.1205  3.6791
  4424G12c H00M82151   8.578   9.158   6.875  1.4007  1.6956 -2.0385
  4424G12c C01Y82152   8.430   9.303   6.887 -0.0434  0.0352 -0.3396
  4424G12c C02D82153   8.447   9.434   6.856 -0.0969  0.0597 -1.0692
  4424G12c H01982154   8.536   9.454   6.800 -4.3268  0.9582 -8.0770
  4424G12c C02C82155   8.356   9.521   6.903  0.4457  0.4823  0.0068
  4424G12c H01A82156   8.337   9.605   6.837  2.9247 -0.2414 -1.6854
  4424G12c C02B82157   8.246   9.476   6.987  0.1386 -0.6654 -0.4614
  4424G12c O00E82158   8.147   9.570   7.019 -0.1197 -1.1493 -0.1422
  4424G12c H01B82159   8.066   9.522   7.007 -0.7448 -0.3805  0.9257
  4424G12c C02F82160   8.245   9.356   7.057  0.3907  1.5424 -0.1303
  4424G12c O00F82161   8.161   9.343   7.164 -0.1648 -1.3419  0.3726
  4424G12c C02G82162   8.197   9.210   7.218  1.4698 -0.2380  1.0284
  4424G12c H01782163   8.142   9.116   7.206  1.6831  0.2431 -5.0813
  4424G12c H01682164   8.160   9.223   7.320 -3.7797  4.8235 -1.2286
  4424G12c H01582165   8.296   9.166   7.228  2.8549  3.0357  2.1164
  4424G12c C02E82166   8.316   9.266   6.983  0.7498  1.7545  1.2495
  4424G12c H01882167   8.341   9.162   6.998  3.1861  2.0131 -0.6398
  4424G12c C01F82168   8.731   9.255   6.363  1.7638 -1.4015 -1.5503
  4424G12c C01G82169   8.773   9.366   6.453  1.0936 -0.6534  0.2004
  4424G12c H00L82170   8.756   9.342   6.556  1.3356  1.0632  0.6518
  4424G12c C01H82171   8.845   9.475   6.424  0.7098  0.9438 -1.0927
  4424G12c H00B82172   8.913   9.504   6.502 -1.5273  3.3995  0.0428
  4424G12c C01I82173   8.883   9.483   6.288 -0.8070  0.5182  0.9559
  4424G12c C01U82174   8.756   9.285   6.222 -0.4147  0.1878 -1.3781
  4424G12c C00S82175   9.056   9.016   5.852  0.1125 -1.0948 -0.8101
  4424G12c C00K82176   9.085   9.243   5.907 -0.9539  0.3589 -1.2119
  4424G12c C00N82177   8.809   9.173   6.162 -1.0923 -0.2203  1.7913
  4424G12c C00082178   8.814   9.412   6.180 -0.5243 -0.7661  0.4370
  4424G12c C01J82179   9.007   9.526   6.234  0.4399 -0.1803  0.2959
  4424G12c C01K82180   9.121   9.595   6.297 -1.8800  1.0202 -0.5788
  4424G12c C01P82181   9.125   9.678   6.400  0.4055 -0.7928  1.5750
  4424G12c C01Q82182   9.012   9.761   6.428 -0.7731 -0.6129  1.0223
  4424G12c H00G82183   9.019   9.784   6.533 -4.7484 -5.8955  2.7042
  4424G12c C01R82184   8.900   9.774   6.340 -0.4197 -0.3025  0.7596
  4424G12c H00F82185   8.935   9.747   6.241  2.6972  3.9239  0.5290
  4424G12c C01S82186   8.771   9.858   6.365 -1.0045  1.7165 -0.1293
  4424G12c H00E82187   8.754   9.926   6.449 -3.3263 -2.2209  2.7872
  4424G12c H00D82188   8.801   9.915   6.277  6.5898 -8.0130 -4.8344
  4424G12c O00582189   8.665   9.803   6.307 -0.9795 -0.5608 -1.0113
  4424G12c H00C82190   8.675   9.709   6.310 -1.0385 -0.7189 -4.0714
  4424G12c C01O82191   9.241   9.723   6.453 -0.5013 -1.2437 -1.2318
  4424G12c H00H82192   9.217   9.808   6.515  4.2058 -3.7664  4.6046
  4424G12c C01N82193   9.371   9.689   6.412  1.1243 -0.2576 -1.2629
  4424G12c O00682194   9.484   9.749   6.494  1.1520  0.6494 -0.2135
  4424G12c C01T82195   9.519   9.888   6.451  1.0692  1.3720  0.3491
  4424G12c H00K82196   9.575   9.910   6.542  4.5485 -2.5217 -0.6960
  4424G12c H00J82197   9.576   9.884   6.359  3.9692  2.4426  2.0222
  4424G12c H00I82198   9.451   9.966   6.416  0.4410 -0.9753 -3.9091
  4424G12c C01M82199   9.377   9.594   6.306  0.1987 -0.0680  0.7511
  4424G12c C02082200   9.179   9.333   5.955 -1.2479  0.1651  0.0111
  4424G12c C02182201   9.318   9.333   5.904  0.8722 -2.5417 -1.5287
  4424G12c C01L82202   9.252   9.572   6.239 -1.0086  3.1807  0.6607
  4424G12c O00782203   9.496   9.541   6.299 -0.6151  0.6413  0.3638
  4424G12c C02282204   9.417   9.383   5.983  0.7160 -0.0027  1.2050
  4424G12c C02382205   9.366   9.232   5.838 -0.4716  1.6090  1.8410
  4424G12c C00G82206   9.490   8.985   5.845  2.1722  0.1976 -1.0618
  4424G12c C00E82207   9.683   8.838   5.840  1.5282  0.3395  0.7583
  4424G12c O00A82208   9.711   8.724   5.783 -1.4933 -0.4335  1.0319
  4424G12c C02482209   9.616   8.698   5.657  0.3909 -1.7737 -0.7629
  4424G12c H00V82210   9.599   8.796   5.613 -1.9495 -2.6242 -1.8350
  4424G12c H00U82211   9.663   8.617   5.601  2.0078 -0.5487 -1.2181
  4424G12c H00T82212   9.511   8.677   5.678  1.6417 -7.0175  1.0570
  4434G12c C00D82213   0.651  12.502  10.780 -0.2951 -0.4305  0.6367
  4434G12c O00B82214   0.530  12.548  10.825  0.1864 -0.7007 -1.5243
  4434G12c C02582215   0.490  12.501  10.944 -0.1832 -0.9613  0.3399
  4434G12c C02682216   0.503  12.357  10.971  0.1734 -0.7552 -0.4655
  4434G12c H00Y82217   0.503  12.286  10.888  2.7395 -1.0938 -0.2148
  4434G12c H00X82218   0.591  12.333  11.031 -2.3581 -0.4087  3.6125
  4434G12c O00C82219   0.371  12.308  11.018 -0.2886  0.6119  0.6600
  4434G12c H00W82220   0.292  12.311  10.966  2.5331 -2.3750 -4.1797
  4434G12c C02782221   0.442  12.591  11.040  0.5352 -0.5757 -0.7292
  4434G12c O00D82222   0.392  12.550  11.157  0.7733 -0.2340 -0.4072
  4434G12c H00Z82223   0.311  12.597  11.174  1.0154  0.3711 -0.9153
  4434G12c C02882224   0.426  12.731  11.022  0.3095 -0.2692  0.6558
  4434G12c C02982225   0.300  12.800  11.008 -1.0626 -0.8433  0.4400
  4434G12c H01082226   0.224  12.727  10.984 -1.8412  1.8059 -6.2129
  4434G12c C02T82227   0.295  12.935  11.004  0.1495 -0.7933  0.3441
  4434G12c H01O82228   0.193  12.960  10.980  0.4532  1.7670  1.5952
  4434G12c C02S82229   0.394  13.015  11.053 -0.6005  1.2047  0.9325
  4434G12c O00J82230   0.369  13.133  11.046 -0.5228 -1.0134  0.3774
  4434G12c H01P82231   0.282  13.133  11.010 -1.1573  2.0666  1.7827
  4434G12c C02R82232   0.521  12.956  11.057 -0.3784 -1.6492  1.4451
  4434G12c O00I82233   0.612  13.059  11.062  1.1436 -0.2540 -0.2137
  4434G12c C02Q82234   0.677  13.078  11.185 -0.9124 -0.1670 -0.5357
  4434G12c H01N82235   0.722  12.980  11.197 -7.8649 -3.7028 -0.8581
  4434G12c H01R82236   0.592  13.061  11.251  0.2915-10.0608 -0.7870
  4434G12c H01Q82237   0.723  13.177  11.180 -4.0370  1.3819  0.1496
  4434G12c C02A82238   0.535  12.803  11.061 -1.0394 -0.0650  0.2972
  4434G12c H01182239   0.632  12.758  11.075 -0.2355  1.6596  0.4717
  4434G12c C00C82240   0.754  12.522  10.882  0.2542 -1.1596  1.6367
  4434G12c H01282241   0.720  12.580  10.967 -3.1528  8.9292 -5.6169
  4434G12c C00B82242   0.897  12.486  10.854 -0.1929 -0.8304  1.0574
  4434G12c C00A82243   1.016  12.486  10.938  1.0316 -1.5558 -0.4651
  4434G12c C00982244   1.034  12.564  11.068 -0.4903  0.8338  0.8289
  4434G12c C00882245   0.971  12.673  11.123  1.0274 -0.0930 -1.1990
  4434G12c H01382246   0.870  12.636  11.119 -0.8096  4.4937 -0.7552
  4434G12c C00782247   1.032  12.783  11.171 -0.1894 -0.2098 -0.2513
  4434G12c H01482248   0.999  12.864  11.234  6.1368  0.5542  2.4310
  4434G12c C00682249   1.170  12.793  11.155 -0.2253  1.5314  0.7488
  4434G12c C00582250   1.244  12.683  11.103  0.2485  0.1275  0.6087
  4434G12c C00482251   1.381  12.702  11.043  0.3528  0.6871 -1.6048
  4434G12c C00382252   1.445  12.604  10.980 -1.6220  0.7577  0.8196
  4434G12c C00282253   1.583  12.607  10.949 -0.3279 -2.1727 -0.7913
  4434G12c C00182254   1.670  12.522  10.869  1.4320 -0.3932 -1.3137
  4434G12c C00M82255   1.643  12.457  10.751  0.8380  1.9148 -0.7029
  4434G12c C00L82256   1.519  12.404  10.721  0.1884  1.2972  0.0102
  4434G12c C00R82257   1.459  12.376  10.595 -1.3316  1.1374  0.8825
  4434G12c C00Q82258   1.507  12.385  10.455 -0.9045 -1.1057  0.4168
  4434G12c C00V82259   1.407  12.372  10.362  0.2075  1.7812  0.4357
  4434G12c C00U82260   1.279  12.359  10.387  0.2517  0.1505 -0.3910
  4434G12c C00T82261   1.229  12.362  10.520 -0.6110 -0.7717 -0.1258
  4434G12c C01682262   1.096  12.390  10.552  0.4329  0.8882  1.0566
  4434G12c C01582263   0.995  12.398  10.456  1.3448  0.5088  1.5648
  4434G12c C01082264   1.044  12.397  10.329 -1.2540  0.4490 -1.4174
  4434G12c C01182265   0.968  12.460  10.230 -0.6898 -1.2167 -0.5554
  4434G12c H00582266   1.023  12.508  10.150  2.4154 -4.7520 -0.6776
  4434G12c C01282267   0.836  12.511  10.248 -0.2383  0.0702 -0.9902
  4434G12c C01782268   0.761  12.565  10.128  0.6449 -0.6013 -0.3407
  4434G12c O00282269   0.746  12.504  10.000 -1.0370  1.0955  0.3962
  4434G12c H00482270   0.654  12.524   9.992 -1.4834 -1.9071 -3.1279
  4434G12c C01882271   0.733  12.696  10.134  1.1599  0.3710 -0.6383
  4434G12c O00182272   0.747  12.778  10.245 -1.8769 -0.1206 -0.9924
  4434G12c H00382273   0.661  12.819  10.242  0.1269  4.3656 -1.8960
  4434G12c C01982274   0.689  12.773  10.016  1.5821  0.7470 -0.2375
  4434G12c H00282275   0.749  12.855   9.978 -0.1977 -0.3401 -5.8412
  4434G12c H00182276   0.707  12.717   9.924 -2.4789  1.4366 -1.5815
  4434G12c O00082277   0.568  12.825  10.060 -0.7633  0.3352  1.3417
  4434G12c C01A82278   0.531  12.942  10.023  0.6387  0.5998  1.0731
  4434G12c C02K82279   0.473  13.017  10.122 -0.8199 -0.4698 -0.1774
  4434G12c O00G82280   0.477  12.945  10.245  0.5098 -1.1043  0.3030
  4434G12c C02M82281   0.452  13.012  10.356 -2.1906  0.4403 -1.5337
  4434G12c H01G82282   0.486  13.111  10.387  1.3049 -1.7412  2.1852
  4434G12c H01F82283   0.457  12.947  10.444  4.2775  0.4379 -1.6755
  4434G12c H01E82284   0.349  13.047  10.346 -1.2797  4.5780  1.7458
  4434G12c C02J82285   0.433  13.144  10.102  0.5962 -1.7898  1.9354
  4434G12c H01H82286   0.378  13.218  10.159  2.0208  1.9152 -1.2311
  4434G12c C02I82287   0.498  13.208  10.000 -0.2311 -1.2019  0.2350
  4434G12c C02N82288   0.491  13.346   9.965 -1.5508  0.4300 -0.0520
  4434G12c H01M82289   0.466  13.374   9.864  2.9422 -2.3443 -2.0276
  4434G12c C02O82290   0.475  13.423  10.075  0.8919 -0.6686 -0.8085
  4434G12c H01L82291   0.487  13.386  10.176  9.6782  6.3068  1.3357
  4434G12c C02P82292   0.484  13.573  10.049 -0.3123  0.8064 -0.0224
  4434G12c H01K82293   0.553  13.632  10.109  0.5664 -0.7167  0.4864
  4434G12c H01J82294   0.498  13.621   9.952 -3.4560  2.9684  0.5177
  4434G12c O00H82295   0.392  13.641  10.127  0.1779  1.2887 -1.3345
  4434G12c H01I82296   0.319  13.679  10.081  1.8174  2.3791 -3.1208
  4434G12c C02H82297   0.549  13.140   9.898  0.3881 -0.9003  1.0290
  4434G12c H01C82298   0.557  13.199   9.808 -2.9702 -2.2163 -0.1945
  4434G12c C02L82299   0.571  13.007   9.912 -1.5634  0.5569  0.6765
  4434G12c H01D82300   0.632  12.974   9.830 -7.7141  1.2266 -4.6226
  4434G12c C01382301   0.789  12.475  10.379  0.8982 -0.9847  0.4995
  4434G12c H00082302   0.685  12.495  10.400  2.4345  1.9029  6.3483
  4434G12c C01482303   0.867  12.427  10.485 -0.5143  1.1963 -0.8761
  4434G12c C00F82304   0.819  12.436  10.620  0.0659  0.1958  1.0133
  4434G12c C00H82305   1.064  12.409  10.679  0.4857  0.6868  1.0262
  4434G12c C00I82306   1.165  12.395  10.779 -0.4852  1.2749 -0.3186
  4434G12c C00J82307   1.298  12.371  10.745  0.2696 -0.3934 -0.6022
  4434G12c C00Z82308   1.180  12.366  10.289 -1.2589  0.4320 -1.3950
  4434G12c C00Y82309   1.228  12.324  10.161 -1.1426 -0.0631  0.4013
  4434G12c H00682310   1.169  12.316  10.071  4.4762 -1.6815 -3.3932
  4434G12c C00X82311   1.362  12.310  10.135  0.2117  0.8017 -1.4894
  4434G12c O00382312   1.376  12.241  10.009 -2.1016  0.4269  0.0754
  4434G12c C01B82313   1.506  12.259   9.946 -2.3280 -0.2406  0.2628
  4434G12c H00982314   1.583  12.206  10.002 -0.9147  0.8870 -0.5619
  4434G12c H00882315   1.522  12.360   9.910  2.5287  0.2821  3.4570
  4434G12c H00782316   1.503  12.204   9.852  6.6659 -5.6440  2.5358
  4434G12c C00W82317   1.455  12.344  10.228  0.3133 -1.3259 -1.7664
  4434G12c O00482318   1.576  12.389  10.176  0.8930 -0.0286 -0.6054
  4434G12c C01C82319   1.675  12.387  10.271  1.5104  0.2696 -0.6177
  4434G12c H00A82320   1.743  12.306  10.248 -0.5715 -1.5545 -0.5415
  4434G12c C00P82321   1.643  12.415  10.420  2.2079  0.5384  0.2836
  4434G12c C00O82322   1.732  12.490  10.503  0.9036 -1.3415 -2.2859
  4434G12c C01D82323   1.822  12.571  10.438 -0.6210  1.6568 -0.5923
  4434G12c H00S82324   1.817  12.568  10.330 -3.7351  0.3133 -0.4717
  4434G12c C01E82325   1.900  12.668  10.493 -0.0825 -1.5301  1.6889
  4434G12c O00882326   1.957  12.768  10.409 -0.5693  2.8263 -0.9156
  4434G12c C01V82327   1.897  12.857  10.331  0.7359 -0.1548  0.2637
  4434G12c C01Z82328   1.790  12.976  10.367 -1.1179 -0.0154 -2.1316
  4434G12c H00R82329   1.692  12.974  10.320 -2.1735 -1.2346  0.0131
  4434G12c H00Q82330   1.754  12.940  10.464  2.8169  5.9015  1.8188
  4434G12c O00982331   1.855  13.094  10.409 -0.2597 -0.1777  0.7432
  4434G12c H00P82332   1.805  13.156  10.460 -5.3011 -3.1818 -0.2035
  4434G12c C01W82333   1.918  12.840  10.196  0.5847  0.7173 -0.6557
  4434G12c H00O82334   1.982  12.760  10.163  1.1846  1.8700 -2.3634
  4434G12c C01X82335   1.854  12.923  10.074  1.2722  0.7816 -1.5954
  4434G12c H00N82336   1.851  12.864   9.983  0.0254  0.2730 -1.2235
  4434G12c H00M82337   1.765  12.976  10.109  1.1944 -1.3668  1.6869
  4434G12c C01Y82338   1.971  13.012  10.030 -1.1537  0.0006  0.4123
  4434G12c C02D82339   2.083  12.957   9.983 -0.6358  0.1364 -1.9259
  4434G12c H01982340   2.098  12.853   9.957  2.6450  0.0605  0.0264
  4434G12c C02C82341   2.184  13.014   9.920  0.1746 -0.2306 -0.5969
  4434G12c H01A82342   2.260  12.961   9.864  1.2780  1.7752 -1.0501
  4434G12c C02B82343   2.196  13.155   9.942 -0.6506 -0.8597 -0.7093
  4434G12c O00E82344   2.319  13.209   9.918  1.1477 -0.0365  0.3557
  4434G12c H01B82345   2.366  13.285   9.950  0.2387 -0.1093  1.9081
  4434G12c C02F82346   2.103  13.216  10.026 -0.7188  0.9620  0.5569
  4434G12c O00F82347   2.159  13.315  10.094  0.5999 -1.2322  1.1687
  4434G12c C02G82348   2.124  13.427  10.041 -0.7394 -0.2767  0.3006
  4434G12c H01782349   2.104  13.492  10.127  2.8507  4.6271 -2.3743
  4434G12c H01682350   2.046  13.463   9.974 -0.3018 -3.7616 -2.1816
  4434G12c H01582351   2.219  13.464  10.004 -1.0853  1.4378  1.0648
  4434G12c C02E82352   1.988  13.157  10.060  1.5615 -0.2021  0.7123
  4434G12c H01882353   1.920  13.210  10.124  4.0885  2.4028  1.3262
  4434G12c C01F82354   1.878  12.690  10.623 -0.9783  0.0066  0.4646
  4434G12c C01G82355   1.880  12.811  10.694 -0.2739  0.8293  0.4257
  4434G12c H00L82356   1.915  12.904  10.652 -0.5192  0.1933 -1.2404
  4434G12c C01H82357   1.809  12.830  10.823  0.1034  0.6020 -0.2615
  4434G12c H00B82358   1.788  12.932  10.853  2.3464  0.9326  0.3278
  4434G12c C01I82359   1.759  12.725  10.897 -1.0348  0.6293  2.1327
  4434G12c C01U82360   1.829  12.576  10.712  0.1517 -0.9027  0.7937
  4434G12c C00S82361   1.324  12.355  10.614 -2.2418  1.7434  0.8120
  4434G12c C00K82362   1.414  12.417  10.816  0.9609 -0.9521  0.5652
  4434G12c C00N82363   1.739  12.489  10.644  2.0887  1.1310 -1.9627
  4434G12c C00082364   1.776  12.592  10.852  0.3341  0.0396 -0.1141
  4434G12c C01J82365   1.650  12.731  10.982 -0.6925 -2.7438  0.4276
  4434G12c C01K82366   1.580  12.856  11.022 -0.6171  0.1376 -1.1255
  4434G12c C01P82367   1.643  12.974  11.085 -0.0207 -0.6101  0.4693
  4434G12c C01Q82368   1.780  12.994  11.110 -0.0233 -0.3991  0.0504
  4434G12c H00G82369   1.839  12.923  11.166 -1.1497  2.0791  4.6521
  4434G12c C01R82370   1.848  13.105  11.046 -1.0003 -0.4360 -0.4904
  4434G12c H00F82371   1.770  13.177  11.025 -0.1138 -0.3250 -3.5876
  4434G12c C01S82372   1.997  13.155  11.038 -0.9830 -0.8468 -0.0523
  4434G12c H00E82373   2.032  13.142  11.140 -3.3905  0.7988  1.0357
  4434G12c H00D82374   2.064  13.152  10.953 -2.3248 -3.9785 -1.0927
  4434G12c O00582375   1.986  13.302  11.011 -1.2697 -0.0788  0.0341
  4434G12c H00C82376   1.984  13.310  10.917  0.5679 -2.3635 -0.2690
  4434G12c C01O82377   1.563  13.063  11.173 -0.7488  0.0553  1.0473
  4434G12c H00H82378   1.616  13.147  11.214  1.9270  0.4567 -2.9691
  4434G12c C01N82379   1.429  13.042  11.193 -2.1493  1.0587  0.0901
  4434G12c O00682380   1.370  13.155  11.247 -0.2410  0.2110  0.0316
  4434G12c C01T82381   1.430  13.253  11.335  0.2463 -0.1436  0.0722
  4434G12c H00K82382   1.469  13.192  11.416  1.3859  0.5840  0.0862
  4434G12c H00J82383   1.480  13.324  11.270 -2.8595  2.6245  0.5537
  4434G12c H00I82384   1.332  13.299  11.346  1.3458  3.5575 -3.9466
  4434G12c C01M82385   1.377  12.925  11.138 -1.5271 -0.0100 -0.8971
  4434G12c C02082386   1.366  12.489  10.932  0.2646 -0.7303  0.7819
  4434G12c C02182387   1.232  12.481  10.983 -0.4470 -1.2796  0.9426
  4434G12c C01L82388   1.449  12.824  11.057  0.8009 -1.2442 -0.3222
  4434G12c O00782389   1.251  12.899  11.192  0.2162  0.0719  0.2855
  4434G12c C02282390   1.186  12.565  11.087 -0.2983 -0.2648 -0.2645
  4434G12c C02382391   1.137  12.434  10.908 -0.1712 -0.4004  0.0645
  4434G12c C00G82392   0.924  12.450  10.719 -0.6397 -0.3852  0.0911
  4434G12c C00E82393   0.678  12.441  10.667  1.5095  1.6513  0.9453
  4434G12c O00A82394   0.589  12.370  10.595 -1.5522  0.4000 -1.3504
  4434G12c C02482395   0.611  12.236  10.613 -0.6550  1.2456  0.9862
  4434G12c H00V82396   0.697  12.202  10.556  1.8022  3.8160  3.0721
  4434G12c H00U82397   0.523  12.190  10.567 -1.2561  3.6194 -0.3114
  4434G12c H00T82398   0.616  12.210  10.719 -2.3501  1.9193  1.2539
  4444G12c C00D82399   0.520   6.261   6.925 -0.2611  1.1795 -0.4329
  4444G12c O00B82400   0.614   6.210   6.838  0.4448 -2.9109 -0.4925
  4444G12c C02582401   0.682   6.103   6.877 -0.3680 -1.0169  0.0238
  4444G12c C02682402   0.612   6.006   6.780 -1.5211  0.6261 -1.3356
  4444G12c H00Y82403   0.510   6.043   6.788 -3.0260 -3.7944  1.7763
  4444G12c H00X82404   0.594   5.915   6.838  3.4250  1.2324  1.4796
  4444G12c O00C82405   0.668   5.983   6.643 -0.2919  1.2701 -0.1523
  4444G12c H00W82406   0.670   5.889   6.635  1.6117  1.5191 -3.5538
  4444G12c C02782407   0.763   6.099   6.985  0.3500 -0.4489 -0.9836
  4444G12c O00D82408   0.781   6.207   7.067  0.2343 -0.5025 -0.2641
  4444G12c H00Z82409   0.804   6.276   7.007 -3.8400  0.7058 -0.6174
  4444G12c C02882410   0.796   5.978   7.049  0.1425  2.4949 -2.0115
  4444G12c C02982411   0.829   5.862   6.974  1.1309  0.8452  2.8013
  4444G12c H01082412   0.833   5.874   6.867 -6.1583 -0.5892  2.1391
  4444G12c C02T82413   0.807   5.721   6.993  0.3009  0.4752 -0.5427
  4444G12c H01O82414   0.847   5.665   6.909  0.9018  0.7846 -0.4692
  4444G12c C02S82415   0.745   5.689   7.106 -0.8454  0.7624  0.5959
  4444G12c O00J82416   0.724   5.562   7.150  0.7980  1.6634 -1.7391
  4444G12c H01P82417   0.731   5.559   7.245  0.9410  5.3563 -1.5573
  4444G12c C02R82418   0.708   5.799   7.191 -0.8937 -0.4063  0.4458
  4444G12c O00I82419   0.640   5.761   7.311 -0.0817 -1.6172  0.9372
  4444G12c C02Q82420   0.509   5.798   7.317  1.0989 -0.7005 -0.3154
  4444G12c H01N82421   0.473   5.824   7.218 -1.1308 -0.3339  0.5613
  4444G12c H01R82422   0.507   5.888   7.379 -1.4157  0.1192 -1.5385
  4444G12c H01Q82423   0.437   5.738   7.374  0.5289 -0.8680 -1.2157
  4444G12c C02A82424   0.747   5.935   7.172  1.1081  1.1685  0.1101
  4444G12c H01182425   0.707   6.007   7.242  0.1268  0.5276  0.2304
  4444G12c C00C82426   0.418   6.178   7.001 -0.5184 -1.8479 -0.2753
  4444G12c H01282427   0.414   6.070   7.008 -1.3137 -1.9456 -1.9345
  4444G12c C00B82428   0.325   6.228   7.107  0.8140 -0.7032 -1.5062
  4444G12c C00A82429   0.240   6.149   7.185  0.7378 -0.2413  0.1362
  4444G12c C00982430   0.147   6.051   7.126  0.5015  0.9920 -0.6071
  4444G12c C00882431   0.116   6.029   6.995 -0.8651 -0.5271  0.4278
  4444G12c H01382432   0.190   6.057   6.922 -0.0784 -3.4120  0.0284
  4444G12c C00782433  -0.006   5.964   6.971 -0.3779 -0.7206 -0.9305
  4444G12c H01482434  -0.057   5.968   6.876 -2.7506 -2.2667  0.2091
  4444G12c C00682435  -0.112   5.966   7.062  1.8725  0.5405  0.2882
  4444G12c C00582436  -0.080   6.015   7.185  1.0607  0.5748 -0.1096
  4444G12c C00482437  -0.178   6.023   7.279 -0.1322  0.5433 -0.1087
  4444G12c C00382438  -0.148   6.125   7.388 -0.7827  0.4154 -1.5746
  4444G12c C00282439  -0.268   6.165   7.455  0.5192 -2.1092 -1.7595
  4444G12c C00182440  -0.285   6.268   7.560  1.1603  1.2073 -2.3330
  4444G12c C00M82441  -0.232   6.405   7.542 -1.9012  0.3508  1.3783
  4444G12c C00L82442  -0.121   6.422   7.482  0.3065 -1.4562  0.2105
  4444G12c C00R82443  -0.071   6.559   7.457 -0.1988  0.2602  0.4079
  4444G12c C00Q82444  -0.113   6.684   7.452  0.4385  0.4564  0.0312
  4444G12c C00V82445  -0.034   6.780   7.379 -0.1043 -0.9807  0.5055
  4444G12c C00U82446   0.080   6.738   7.314  1.8752 -0.6514 -0.7198
  4444G12c C00T82447   0.133   6.617   7.317  0.3036 -0.2917  1.4012
  4444G12c C01682448   0.252   6.562   7.262  1.1086  0.9644  1.3251
  4444G12c C01582449   0.317   6.648   7.175  0.7715  0.7804  0.3676
  4444G12c C01082450   0.304   6.777   7.199 -0.6657 -0.3692 -1.2459
  4444G12c C01182451   0.384   6.877   7.136 -0.0277  2.4768 -1.6025
  4444G12c H00582452   0.357   6.978   7.164  1.3127  1.4038  4.2417
  4444G12c C01282453   0.480   6.836   7.045  0.5448  0.2930  0.1681
  4444G12c C01782454   0.552   6.942   6.990 -0.5044  0.0853 -0.2189
  4444G12c O00282455   0.586   7.044   7.073 -2.0371  0.8070  1.7746
  4444G12c H00482456   0.545   7.010   7.151  2.2822 -6.1884  1.3236
  4444G12c C01882457   0.613   6.921   6.863 -0.7698  0.9640 -0.7327
  4444G12c O00182458   0.622   6.820   6.766 -0.5589  1.6720 -0.7696
  4444G12c H00382459   0.692   6.847   6.710  0.6212  1.1488  0.4247
  4444G12c C01982460   0.682   7.044   6.796 -1.0649 -0.0378  0.4343
  4444G12c H00282461   0.652   7.139   6.839 -3.0758 -0.8389  0.8727
  4444G12c H00182462   0.783   7.023   6.834  0.7673  0.0423 -4.0402
  4444G12c O00082463   0.673   7.045   6.665 -0.3468 -1.4132  0.5462
  4444G12c C01A82464   0.767   7.121   6.613 -0.8867 -0.8314 -0.3787
  4444G12c C02K82465   0.902   7.091   6.619  1.7054 -0.4081  0.5565
  4444G12c O00G82466   0.957   6.974   6.674 -0.6596 -0.0050 -2.0356
  4444G12c C02M82467   1.047   7.001   6.791  0.5019 -1.5640  1.5661
  4444G12c H01G82468   1.150   6.967   6.781  1.5836  0.9850  3.3625
  4444G12c H01F82469   1.059   7.106   6.819  0.7135 -0.3050 -2.8821
  4444G12c H01E82470   1.016   6.944   6.879  2.0107 -8.5515 -2.0873
  4444G12c C02J82471   0.997   7.186   6.573  0.7673  0.4900 -0.8266
  4444G12c H01H82472   1.103   7.166   6.580  1.2422  1.7952 -3.8063
  4444G12c C02I82473   0.967   7.317   6.538 -0.9040  0.3466 -1.6320
  4444G12c C02N82474   1.074   7.418   6.516  1.1517  0.6465 -0.0738
  4444G12c H01M82475   1.167   7.405   6.461  1.9247  5.3240 -0.0908
  4444G12c C02O82476   1.070   7.542   6.563 -1.3201  0.5435 -0.0302
  4444G12c H01L82477   0.995   7.556   6.640 -5.7530  0.8305 -4.1178
  4444G12c C02P82478   1.180   7.631   6.565  0.6703  0.1170 -1.2697
  4444G12c H01K82479   1.172   7.737   6.589 -1.4692 -1.0910  4.1048
  4444G12c H01J82480   1.267   7.592   6.618 -1.9717 -1.3273  2.2478
  4444G12c O00H82481   1.198   7.626   6.425  2.0629 -0.1884  0.4187
  4444G12c H01I82482   1.115   7.613   6.380  1.7496 -2.6080  1.5965
  4444G12c C02H82483   0.831   7.351   6.525  0.2954  0.0137  0.1564
  4444G12c H01C82484   0.795   7.450   6.499  2.6500  0.9698  0.3808
  4444G12c C02L82485   0.731   7.253   6.558 -1.7753  0.5420 -1.5515
  4444G12c H01D82486   0.627   7.277   6.540 -2.8155 -1.2758  1.5023
  4444G12c C01382487   0.471   6.708   7.004 -0.3374  1.2681 -1.2828
  4444G12c H00082488   0.520   6.672   6.914  0.7312 -1.0532  0.2019
  4444G12c C01482489   0.395   6.599   7.070 -0.6838 -1.1371 -0.8481
  4444G12c C00F82490   0.411   6.453   7.050 -0.0354  0.5365 -0.4839
  4444G12c C00H82491   0.270   6.417   7.242  0.5483  0.0016  0.6929
  4444G12c C00I82492   0.183   6.336   7.311  0.4028  1.5076  0.4170
  4444G12c C00J82493   0.081   6.395   7.391  0.1773  0.4503  0.0868
  4444G12c C00Z82494   0.164   6.821   7.245  0.0365 -0.3429  2.0658
  4444G12c C00Y82495   0.120   6.959   7.226  0.2178 -0.1018  1.0277
  4444G12c H00682496   0.168   7.021   7.152 -2.2156 -1.6310 -1.9430
  4444G12c C00X82497   0.010   7.008   7.302  0.9836  2.2520 -0.5847
  4444G12c O00382498  -0.004   7.142   7.321  0.6068  1.2929  0.1345
  4444G12c C01B82499   0.102   7.231   7.262  0.0572  0.8817  1.3228
  4444G12c H00982500   0.100   7.215   7.154  4.5431 -6.8638  2.0561
  4444G12c H00882501   0.211   7.226   7.270  0.9425  3.6273 -5.2452
  4444G12c H00782502   0.084   7.333   7.296  7.7000  3.6068 -1.6007
  4444G12c C00W82503  -0.063   6.914   7.379 -0.4709  0.9551  0.3560
  4444G12c O00482504  -0.181   6.975   7.444  1.7841 -0.9168 -0.2005
  4444G12c C01C82505  -0.265   6.880   7.509 -0.0605 -2.4323 -1.2266
  4444G12c H00A82506  -0.305   6.913   7.603 -0.7075 -1.6017 -1.7950
  4444G12c C00P82507  -0.244   6.734   7.499 -0.1283 -0.1570 -0.2969
  4444G12c C00O82508  -0.351   6.640   7.487 -0.4156  1.3859 -0.4167
  4444G12c C01D82509  -0.481   6.685   7.460 -2.0313  1.0600  1.1428
  4444G12c H00S82510  -0.474   6.787   7.425 -4.9292  1.7651  2.5055
  4444G12c C01E82511  -0.592   6.598   7.462  0.2883 -1.5036  0.7386
  4444G12c O00882512  -0.712   6.649   7.428 -0.1678  1.1163  1.0921
  4444G12c C01V82513  -0.774   6.611   7.309 -0.1951  0.7102  1.7967
  4444G12c C01Z82514  -0.683   6.643   7.183 -1.4938 -0.4353 -2.0264
  4444G12c H00R82515  -0.715   6.739   7.144 -1.1505  1.1294  1.3303
  4444G12c H00Q82516  -0.576   6.662   7.188 -1.4132 -1.1215 -0.9003
  4444G12c O00982517  -0.681   6.502   7.122  1.1222 -0.0311  0.3806
  4444G12c H00P82518  -0.639   6.450   7.189  1.6203  0.6377  0.5881
  4444G12c C01W82519  -0.904   6.569   7.290 -1.3951 -0.3677  0.7415
  4444G12c H00O82520  -0.927   6.540   7.391  1.5051  1.4085  1.9778
  4444G12c C01X82521  -0.978   6.567   7.143  0.4059 -1.2984  2.6272
  4444G12c H00N82522  -0.933   6.650   7.089 -7.3704  0.7253 -1.4848
  4444G12c H00M82523  -0.990   6.485   7.072  3.1498 -1.5261  2.3752
  4444G12c C01Y82524  -1.121   6.628   7.181  0.6439 -0.8167 -0.8810
  4444G12c C02D82525  -1.195   6.606   7.306 -0.1587  1.3524  0.7117
  4444G12c H01982526  -1.152   6.518   7.351  1.6373  1.0704 -1.4581
  4444G12c C02C82527  -1.299   6.699   7.357  0.5601 -0.2260 -0.0490
  4444G12c H01A82528  -1.359   6.657   7.437 -2.4309 -0.0158 -2.0719
  4444G12c C02B82529  -1.348   6.790   7.259 -0.0484  0.3940  0.1738
  4444G12c O00E82530  -1.451   6.873   7.306  1.2577 -0.4722  0.8091
  4444G12c H01B82531  -1.477   6.829   7.385 -3.6162  3.7317  1.8315
  4444G12c C02F82532  -1.259   6.832   7.152 -1.8962 -1.3036  0.3607
  4444G12c O00F82533  -1.294   6.938   7.087 -1.0690 -0.2649  0.0015
  4444G12c C02G82534  -1.192   7.025   7.043 -1.4735  1.0875 -0.4437
  4444G12c H01782535  -1.089   6.996   7.062  0.4559  6.8660 -1.3447
  4444G12c H01682536  -1.222   7.126   7.072 -1.2533  0.4717  2.1103
  4444G12c H01582537  -1.174   7.061   6.942 -1.8579  9.2079  2.0876
  4444G12c C02E82538  -1.173   6.731   7.101 -0.1113 -0.0941 -1.0207
  4444G12c H01882539  -1.123   6.741   7.006 -0.3783  4.0537 -0.7972
  4444G12c C01F82540  -0.590   6.461   7.504 -0.2570 -0.9631  0.4237
  4444G12c C01G82541  -0.674   6.362   7.430  0.9306 -0.6965  0.5990
  4444G12c H00L82542  -0.775   6.381   7.395  0.9623  0.6912  1.2011
  4444G12c C01H82543  -0.624   6.226   7.433  0.5144 -1.0936  1.4050
  4444G12c H00B82544  -0.675   6.162   7.363  1.0665  1.1727 -1.1411
  4444G12c C01I82545  -0.502   6.178   7.499 -0.8454 -0.1797 -0.2007
  4444G12c C01U82546  -0.467   6.406   7.555 -0.2956  0.3438  1.5025
  4444G12c C00S82547   0.051   6.529   7.390 -0.4547 -1.0914 -0.6165
  4444G12c C00K82548  -0.023   6.315   7.445 -0.3754  0.6974 -0.6338
  4444G12c C00N82549  -0.349   6.491   7.528 -0.6845 -0.4412 -1.2966
  4444G12c C00082550  -0.424   6.273   7.582  0.9767 -1.0654  0.2671
  4444G12c C01J82551  -0.398   6.089   7.445  3.5988 -1.0465 -1.1304
  4444G12c C01K82552  -0.415   5.984   7.335  0.5343  2.3926 -0.2721
  4444G12c C01P82553  -0.535   5.907   7.322  0.2586  0.1578 -0.0963
  4444G12c C01Q82554  -0.622   5.880   7.426  0.2017  0.3787 -0.8525
  4444G12c H00G82555  -0.725   5.904   7.403  0.7773  4.3961  0.4337
  4444G12c C01R82556  -0.579   5.844   7.552  0.9400 -1.8049  0.2765
  4444G12c H00F82557  -0.476   5.835   7.583  2.2322 -6.0314 -4.6278
  4444G12c C01S82558  -0.663   5.828   7.680 -0.6624 -0.2808  0.0625
  4444G12c H00E82559  -0.703   5.727   7.669  1.0742 -0.8289 -1.3539
  4444G12c H00D82560  -0.594   5.845   7.763 -3.2041  3.2270  1.5805
  4444G12c O00582561  -0.721   5.952   7.700 -1.0286  1.4717  1.4252
  4444G12c H00C82562  -0.646   6.009   7.697 -2.2950  3.1837  1.0558
  4444G12c C01O82563  -0.545   5.818   7.200 -0.2031 -0.8759 -1.0016
  4444G12c H00H82564  -0.642   5.773   7.182  2.9332 -6.7400 -5.0119
  4444G12c C01N82565  -0.440   5.836   7.099 -0.0624  0.3687  0.9800
  4444G12c O00682566  -0.469   5.754   7.000 -0.2356 -0.2608  0.1392
  4444G12c C01T82567  -0.576   5.795   6.910  0.1145 -0.5444  0.9616
  4444G12c H00K82568  -0.669   5.840   6.946  1.3514  0.6422  2.7396
  4444G12c H00J82569  -0.546   5.844   6.817 -3.1223 -5.1256 -2.7144
  4444G12c H00I82570  -0.586   5.693   6.874 -2.9164  0.5170 -1.5285
  4444G12c C01M82571  -0.311   5.879   7.146 -0.3635  0.7384  0.4922
  4444G12c C02082572  -0.027   6.186   7.413  0.4534 -0.3550  2.0070
  4444G12c C02182573   0.086   6.119   7.347 -1.3528  0.6718  0.5541
  4444G12c C01L82574  -0.305   5.971   7.248  1.4078  0.8362 -0.9949
  4444G12c O00782575  -0.210   5.886   7.046 -0.3950  2.6967  0.1378
  4444G12c C02282576   0.041   6.049   7.223  0.2077 -2.6723 -0.2391
  4444G12c C02382577   0.193   6.201   7.309 -1.5272 -0.1791  0.7546
  4444G12c C00G82578   0.341   6.364   7.137  0.5042  0.3915 -0.3745
  4444G12c C00E82579   0.502   6.390   6.963 -1.7009 -1.1665 -0.3185
  4444G12c O00A82580   0.564   6.471   6.877 -0.4772  0.6195  0.4379
  4444G12c C02482581   0.564   6.416   6.734  0.3906  0.4499  0.3240
  4444G12c H00V82582   0.469   6.372   6.705  0.0482  0.4665  1.4290
  4444G12c H00U82583   0.542   6.511   6.684 -9.5772  0.1569  3.1774
  4444G12c H00T82584   0.658   6.378   6.693  0.9947  1.1813  0.9931
  4454G12c C00D82585   4.491   2.653   0.095 -0.8831  0.2147  1.3884
  4454G12c O00B82586   4.363   2.668   0.055 -0.7382  0.7850  0.3315
  4454G12c C02582587   4.377   2.728  -0.077  0.1621 -0.1759 -0.9850
  4454G12c C02682588   4.317   2.867  -0.064 -1.9797 -1.0595  0.1404
  4454G12c H00Y82589   4.397   2.927  -0.020  1.4453 -3.3905 -2.5997
  4454G12c H00X82590   4.252   2.894   0.019  0.1342 -1.8786  2.1111
  4454G12c O00C82591   4.251   2.923  -0.184  1.1637  0.5585  0.0673
  4454G12c H00W82592   4.208   2.862  -0.242  1.8038  0.9188 -0.8019
  4454G12c C02782593   4.440   2.648  -0.158 -0.4471 -1.2978  0.6460
  4454G12c O00D82594   4.461   2.512  -0.158 -0.9555  0.3604  0.3032
  4454G12c H00Z82595   4.480   2.487  -0.068  0.6093 -9.8195 -2.2502
  4454G12c C02882596   4.461   2.698  -0.287 -1.5263  0.0265 -0.9076
  4454G12c C02982597   4.378   2.650  -0.391  0.0937  1.4559  1.0987
  4454G12c H01082598   4.316   2.562  -0.387 -1.9005  2.8625  2.5681
  4454G12c C02T82599   4.397   2.722  -0.517 -2.1044  2.1414  0.1821
  4454G12c H01O82600   4.337   2.694  -0.603 -5.0302  2.0501  2.2111
  4454G12c C02S82601   4.490   2.834  -0.535  1.3316 -0.6891  0.9468
  4454G12c O00J82602   4.500   2.894  -0.648 -0.1966  0.6097 -0.5462
  4454G12c H01P82603   4.464   2.981  -0.660  4.9481  2.9723 -0.1946
  4454G12c C02R82604   4.586   2.843  -0.435 -0.1573 -3.6579 -0.5755
  4454G12c O00I82605   4.683   2.948  -0.444  1.1779 -0.5619 -1.2820
  4454G12c C02Q82606   4.802   2.906  -0.523 -1.0600 -1.1444  1.1647
  4454G12c H01N82607   4.889   2.868  -0.470  2.2618  6.0066  1.4017
  4454G12c H01R82608   4.865   2.990  -0.554 -1.3880  0.8926  5.6336
  4454G12c H01Q82609   4.775   2.849  -0.612  0.4655  0.8022 -0.5999
  4454G12c C02A82610   4.554   2.805  -0.311 -0.8415  2.7963 -1.0574
  4454G12c H01182611   4.597   2.858  -0.227  0.3227 -3.0481  2.3263
  4454G12c C00C82612   4.591   2.759   0.103  1.2508 -0.2949 -1.4289
  4454G12c H01282613   4.576   2.864   0.118  3.2147  0.0135 -1.5162
  4454G12c C00B82614   4.723   2.715   0.117 -0.7457 -1.3877  1.2797
  4454G12c C00A82615   4.836   2.797   0.107  0.3388 -1.4892  0.4646
  4454G12c C00982616   4.850   2.924   0.044 -0.8717 -1.4442  0.2726
  4454G12c C00882617   4.770   3.000  -0.041 -0.9658 -1.6033  0.3892
  4454G12c H01382618   4.663   3.011  -0.049 -1.1754 -4.1151 -0.5633
  4454G12c C00782619   4.824   3.065  -0.162 -0.8972  0.2639  0.9518
  4454G12c H01482620   4.768   3.071  -0.254  1.3269 -0.9030 -0.5343
  4454G12c C00682621   4.967   3.088  -0.162  1.7183  2.2440 -0.6263
  4454G12c C00582622   5.041   3.028  -0.059 -0.0652  0.1205 -0.6161
  4454G12c C00482623   5.184   3.013  -0.070 -1.1217 -0.4611  0.5651
  4454G12c C00382624   5.253   2.909  -0.013 -1.3678  1.5334 -0.1136
  4454G12c C00282625   5.400   2.912  -0.038 -0.5568 -0.6292 -0.8770
  4454G12c C00182626   5.497   2.811  -0.016 -0.1197 -1.0591 -1.1878
  4454G12c C00M82627   5.472   2.669  -0.028 -1.8536  0.7345  0.1670
  4454G12c C00L82628   5.374   2.606   0.026  1.3839  1.1498 -1.4117
  4454G12c C00R82629   5.323   2.470   0.007 -0.5491 -0.6134  0.1199
  4454G12c C00Q82630   5.368   2.359  -0.071 -0.2347  1.1135 -0.1373
  4454G12c C00V82631   5.259   2.255  -0.089  0.0066 -0.2011  1.9213
  4454G12c C00U82632   5.125   2.268  -0.050 -0.9122 -0.9991  1.4238
  4454G12c C00T82633   5.078   2.381   0.029  1.9442  1.1952 -0.5579
  4454G12c C01682634   4.948   2.405   0.070 -0.7438 -0.8200  2.6494
  4454G12c C01582635   4.853   2.309   0.030  0.3875  0.5106 -0.4065
  4454G12c C01082636   4.899   2.185  -0.032 -1.8776 -0.3253  0.0552
  4454G12c C01182637   4.804   2.091  -0.066  1.3386 -0.6102  0.6960
  4454G12c H00582638   4.832   1.992  -0.099 -3.1650 -0.6527 -3.7236
  4454G12c C01282639   4.669   2.135  -0.042  0.1809 -0.4637 -1.2621
  4454G12c C01782640   4.551   2.065  -0.078  0.7283  1.4521 -1.6893
  4454G12c O00282641   4.526   2.067  -0.203 -0.3412 -1.8732 -0.1686
  4454G12c H00482642   4.603   2.058  -0.257  2.9283  6.2805  2.4171
  4454G12c C01882643   4.429   2.051   0.006 -0.8844  1.5627 -0.2942
  4454G12c O00182644   4.393   2.111   0.121 -1.4069  0.1278 -1.0953
  4454G12c H00382645   4.320   2.159   0.085 -1.9778  3.8723  4.4805
  4454G12c C01982646   4.314   1.978  -0.056  0.3017  0.4325  0.6590
  4454G12c H00282647   4.368   1.925  -0.134  1.0958  2.2994 -0.1074
  4454G12c H00182648   4.283   1.921   0.031 -0.1343 -1.1251 -0.4869
  4454G12c O00082649   4.192   2.079  -0.068 -0.9422 -1.1031 -0.3842
  4454G12c C01A82650   4.093   2.068   0.034 -0.1772 -1.4949 -0.8527
  4454G12c C02K82651   4.028   1.951   0.069  0.8514  0.2895 -0.8897
  4454G12c O00G82652   4.045   1.850  -0.031  0.5064 -0.9764  0.5821
  4454G12c C02M82653   3.931   1.788  -0.101  0.4434  0.9857 -0.5045
  4454G12c H01G82654   3.824   1.811  -0.103  0.9702  3.7381  0.5133
  4454G12c H01F82655   3.900   1.700  -0.044 -4.3992 -1.7293 -6.6566
  4454G12c H01E82656   3.980   1.755  -0.193 -2.1638 -1.0073 -1.2332
  4454G12c C02J82657   3.915   1.957   0.153  0.1807 -0.9071 -0.2641
  4454G12c H01H82658   3.862   1.871   0.191  1.3811 -1.3319  0.4873
  4454G12c C02I82659   3.842   2.082   0.171 -1.0478  0.5296 -0.7606
  4454G12c C02N82660   3.721   2.091   0.250 -0.4647  0.0578 -0.8606
  4454G12c H01M82661   3.635   2.026   0.242  0.3645 -1.8921  4.2955
  4454G12c C02O82662   3.679   2.204   0.324  1.8682  0.1236 -1.1285
  4454G12c H01L82663   3.720   2.298   0.357 -0.7194  1.4589 -1.5950
  4454G12c C02P82664   3.527   2.217   0.391  0.1606  1.6381  0.0694
  4454G12c H01K82665   3.528   2.238   0.498 -2.9339 -0.6160  0.5830
  4454G12c H01J82666   3.468   2.308   0.392 -2.1777  0.1595 -1.0198
  4454G12c O00H82667   3.432   2.084   0.371  1.8230 -0.9530 -1.4204
  4454G12c H01I82668   3.380   2.068   0.449  1.8526 -1.8903 -1.5878
  4454G12c C02H82669   3.919   2.192   0.150  1.3371  0.0643  1.8294
  4454G12c H01C82670   3.874   2.279   0.197  4.0724  2.7606 -0.2964
  4454G12c C02L82671   4.049   2.201   0.086  0.2908 -0.0560 -1.3054
  4454G12c H01D82672   4.117   2.283   0.066 -3.1347  2.4085 -3.3637
  4454G12c C01382673   4.635   2.256   0.012  0.5795  0.5709 -0.0484
  4454G12c H00082674   4.530   2.277   0.006 -0.8605 -5.7664 -0.7879
  4454G12c C01482675   4.724   2.357   0.049  0.7238 -1.9496 -1.3303
  4454G12c C00F82676   4.685   2.477   0.095 -0.1520 -1.3186  1.5181
  4454G12c C00H82677   4.918   2.525   0.115 -0.4682 -1.1870  1.3771
  4454G12c C00I82678   5.017   2.619   0.150 -2.2331  0.3890 -0.9490
  4454G12c C00J82679   5.162   2.585   0.130 -1.7111 -0.5680  1.0768
  4454G12c C00Z82680   5.033   2.167  -0.074 -0.5107 -1.7271  0.4807
  4454G12c C00Y82681   5.067   2.051  -0.150 -0.5379 -0.7872 -0.4871
  4454G12c H00682682   5.017   1.958  -0.172 -5.4044  2.0566 -2.1977
  4454G12c C00X82683   5.211   2.045  -0.204 -0.1604 -0.0545 -0.4890
  4454G12c O00382684   5.277   1.961  -0.288  0.9175 -1.3793 -0.9856
  4454G12c C01B82685   5.213   1.844  -0.337 -0.0140 -0.9856  2.2748
  4454G12c H00982686   5.169   1.782  -0.259 -5.2027  0.2956  0.5092
  4454G12c H00882687   5.158   1.832  -0.430 -1.3134 -1.2948  3.0698
  4454G12c H00782688   5.287   1.765  -0.356 -0.1245  0.7108 -8.4761
  4454G12c C00W82689   5.290   2.147  -0.169 -0.5587  1.3158 -0.8325
  4454G12c O00482690   5.401   2.134  -0.256 -0.3497  1.4247  0.1603
  4454G12c C01C82691   5.507   2.209  -0.211  0.6471  0.5895  0.2975
  4454G12c H00A82692   5.605   2.194  -0.254  0.6933 -0.2588  0.6826
  4454G12c C00P82693   5.491   2.354  -0.156  0.3184 -0.4818  0.9729
  4454G12c C00O82694   5.554   2.476  -0.193 -2.2258 -0.0564 -0.6619
  4454G12c C01D82695   5.624   2.484  -0.316  0.9827 -0.0778  0.0210
  4454G12c H00S82696   5.622   2.382  -0.351 -1.9937 -0.3646  0.8611
  4454G12c C01E82697   5.695   2.605  -0.374  1.6316  0.8930  0.0378
  4454G12c O00882698   5.755   2.603  -0.503  1.1435 -1.2388 -0.5284
  4454G12c C01V82699   5.675   2.528  -0.594  0.7106  0.2583  0.4093
  4454G12c C01Z82700   5.771   2.407  -0.628  0.9234  0.4187  1.0654
  4454G12c H00R82701   5.732   2.341  -0.704  0.2205  2.3368 -0.2735
  4454G12c H00Q82702   5.867   2.441  -0.667  0.4601  0.1609 -0.3265
  4454G12c O00982703   5.781   2.337  -0.511  0.1124 -0.1072 -0.2770
  4454G12c H00P82704   5.862   2.353  -0.464  0.3555 -3.4813  0.5943
  4454G12c C01W82705   5.566   2.576  -0.659  0.5496  0.7031 -1.4400
  4454G12c H00O82706   5.527   2.648  -0.589  1.1816  1.6597 -2.0506
  4454G12c C01X82707   5.493   2.490  -0.753  1.7915 -0.6355  2.5260
  4454G12c H00N82708   5.501   2.383  -0.735  2.8413 -2.1925 -5.6922
  4454G12c H00M82709   5.386   2.499  -0.732  1.2246  0.9180 -0.8301
  4454G12c C01Y82710   5.519   2.531  -0.901  0.2788 -0.5104  1.2842
  4454G12c C02D82711   5.628   2.628  -0.930  0.8487 -0.0913 -0.9263
  4454G12c H01982712   5.711   2.629  -0.861 -1.3561 -5.7552  2.1026
  4454G12c C02C82713   5.641   2.690  -1.056 -1.8278  0.7212  1.4647
  4454G12c H01A82714   5.697   2.779  -1.080 -1.3814  0.5411  1.8205
  4454G12c C02B82715   5.550   2.643  -1.151  0.7953  0.1995  0.9060
  4454G12c O00E82716   5.583   2.653  -1.289  0.6532 -1.5182 -0.5017
  4454G12c H01B82717   5.659   2.706  -1.308  3.1211 -5.0924 -1.0441
  4454G12c C02F82718   5.449   2.559  -1.124  0.5039  1.3714 -0.8754
  4454G12c O00F82719   5.352   2.508  -1.218 -1.0018  0.8876  0.3780
  4454G12c C02G82720   5.381   2.493  -1.352  0.5602  0.1532 -0.1857
  4454G12c H01782721   5.461   2.419  -1.361  5.4321  4.2883  5.0526
  4454G12c H01682722   5.381   2.601  -1.370 -3.7492 -0.0082 -1.8030
  4454G12c H01582723   5.296   2.445  -1.400  0.0863  1.1995 -0.4007
  4454G12c C02E82724   5.415   2.515  -0.992 -0.3924 -0.3387  1.5256
  4454G12c H01882725   5.322   2.469  -0.964  0.2314 -1.2949  2.0369
  4454G12c C01F82726   5.684   2.720  -0.314 -0.8808  0.9844 -0.2285
  4454G12c C01G82727   5.706   2.849  -0.364 -0.6748  0.7526  0.7978
  4454G12c H00L82728   5.785   2.857  -0.438 -1.0553  2.6063  0.5824
  4454G12c C01H82729   5.636   2.962  -0.322 -0.4469 -0.1287 -1.2324
  4454G12c H00B82730   5.642   3.055  -0.378 -1.7080  0.7470  0.0499
  4454G12c C01I82731   5.574   2.948  -0.194  0.3726 -0.6248  1.0673
  4454G12c C01U82732   5.618   2.723  -0.188  0.1315  0.0935 -0.1171
  4454G12c C00S82733   5.191   2.465   0.068 -1.5075  0.4661  0.4157
  4454G12c C00K82734   5.262   2.671   0.092 -0.9130 -0.0819 -0.4669
  4454G12c C00N82735   5.537   2.612  -0.136 -0.0455 -1.9035 -0.5817
  4454G12c C00082736   5.603   2.837  -0.106 -2.8874  0.3361  1.0311
  4454G12c C01J82737   5.452   3.000  -0.125  1.0680  0.1869 -0.2775
  4454G12c C01K82738   5.376   3.100  -0.191  0.8168 -0.4164 -0.1367
  4454G12c C01P82739   5.426   3.220  -0.250 -0.5239 -1.7903  0.6506
  4454G12c C01Q82740   5.547   3.279  -0.208 -1.2220  3.1482 -0.1213
  4454G12c H00G82741   5.597   3.249  -0.117 -1.8846 -1.2425 -1.0804
  4454G12c C01R82742   5.624   3.337  -0.299 -0.2900 -0.8126  0.2100
  4454G12c H00F82743   5.566   3.363  -0.386  1.3103  4.3910  0.5257
  4454G12c C01S82744   5.743   3.421  -0.275  0.4620 -2.2234 -1.4389
  4454G12c H00E82745   5.821   3.374  -0.334  0.7039 -2.8806 -0.6015
  4454G12c H00D82746   5.696   3.514  -0.306 -4.3885 -5.3839 -4.3895
  4454G12c O00582747   5.753   3.430  -0.124  0.4827 -0.4730  0.2620
  4454G12c H00C82748   5.678   3.409  -0.070  1.2906  2.2345  2.5399
  4454G12c C01O82749   5.326   3.301  -0.310  2.2508  0.6569  0.8976
  4454G12c H00H82750   5.345   3.402  -0.343  4.6672  0.0783  0.4482
  4454G12c C01N82751   5.191   3.264  -0.329  0.5767 -1.4332 -0.4622
  4454G12c O00682752   5.095   3.332  -0.388 -0.1227  0.7782  1.6750
  4454G12c C01T82753   5.036   3.446  -0.308  0.0986  0.1255 -0.5191
  4454G12c H00K82754   4.941   3.402  -0.278  0.8953 -2.1852 -1.2279
  4454G12c H00J82755   5.017   3.530  -0.376  0.1024  1.7311  1.4201
  4454G12c H00I82756   5.100   3.515  -0.253  1.2975 -1.7355  0.4817
  4454G12c C01M82757   5.158   3.145  -0.263 -0.6943  2.2147  2.5599
  4454G12c C02082758   5.209   2.810   0.081  1.0278 -0.9485 -2.2520
  4454G12c C02182759   5.069   2.856   0.119 -0.7421  0.4282 -0.8910
  4454G12c C01L82760   5.247   3.069  -0.183  0.1966  2.7310  1.6049
  4454G12c O00782761   5.032   3.094  -0.286 -0.7853 -0.2384  0.0859
  4454G12c C02282762   4.988   2.947   0.047 -0.5557  0.1530  1.2894
  4454G12c C02382763   4.971   2.760   0.157 -1.0712  0.2705 -0.1682
  4454G12c C00G82764   4.773   2.576   0.103 -0.1426 -0.6287 -0.0523
  4454G12c C00E82765   4.541   2.515   0.121  0.0125 -1.2733  0.1157
  4454G12c O00A82766   4.456   2.414   0.134 -0.2653  0.6124 -0.8531
  4454G12c C02482767   4.356   2.424   0.231 -2.1193  0.4801 -0.6589
  4454G12c H00V82768   4.263   2.411   0.176 -2.9675 -4.9335  1.7294
  4454G12c H00U82769   4.406   2.486   0.305  0.0764 -1.5447 -0.3578
  4454G12c H00T82770   4.351   2.347   0.308  0.5931  3.9974  3.1787
  4464G12c C00D82771   2.811   4.247  10.951 -0.3641  0.5569 -0.8271
  4464G12c O00B82772   2.778   4.340  10.857  0.7543 -0.4678 -0.1074
  4464G12c C02582773   2.840   4.319  10.735  0.6200  0.3521 -0.2670
  4464G12c C02682774   2.971   4.399  10.735 -0.0843  0.0805  0.3939
  4464G12c H00Y82775   3.050   4.341  10.784 -0.3353 -3.2121 -2.8634
  4464G12c H00X82776   3.018   4.421  10.639  5.2682  3.5985  3.5487
  4464G12c O00C82777   2.946   4.537  10.792  1.2604 -0.3675 -0.0398
  4464G12c H00W82778   2.906   4.542  10.878  3.4386  1.6748  0.9190
  4464G12c C02782779   2.773   4.251  10.650 -0.0654  0.8858  1.9278
  4464G12c O00D82780   2.658   4.185  10.677 -0.0477  1.3308  1.4607
  4464G12c H00Z82781   2.609   4.239  10.737 -3.3887  0.6668 -0.5633
  4464G12c C02882782   2.817   4.240  10.510 -1.3007  0.7145 -0.4629
  4464G12c C02982783   2.951   4.216  10.474 -1.2545 -2.0602 -0.6471
  4464G12c H01082784   3.026   4.224  10.551 -0.5555  2.1342 -1.6439
  4464G12c C02T82785   3.002   4.221  10.336 -0.1340  0.6171 -0.6207
  4464G12c H01O82786   3.107   4.245  10.325 -0.0112  3.2832  4.7503
  4464G12c C02S82787   2.912   4.227  10.236  0.5508  0.8060  0.6279
  4464G12c O00J82788   2.964   4.243  10.105  0.5696 -0.3237  0.4234
  4464G12c H01P82789   2.893   4.272  10.050  1.5700  0.8537 -0.2641
  4464G12c C02R82790   2.774   4.247  10.268 -0.2859  0.9652 -1.1197
  4464G12c O00I82791   2.699   4.291  10.152 -0.2113 -0.3339  0.8232
  4464G12c C02Q82792   2.656   4.202  10.071  1.7058 -0.2560  1.3812
  4464G12c H01N82793   2.727   4.121  10.054  2.7311 -0.2828  5.2995
  4464G12c H01R82794   2.635   4.274   9.991 -1.3453 -1.6222  0.8773
  4464G12c H01Q82795   2.552   4.176  10.088  0.6133  1.9989 -1.3237
  4464G12c C02A82796   2.718   4.236  10.406 -0.1124 -1.0256  1.3160
  4464G12c H01182797   2.611   4.228  10.420  0.1778 -3.4971  2.4902
  4464G12c C00C82798   2.812   4.109  10.905 -1.2016 -1.2302 -0.6378
  4464G12c H01282799   2.772   4.059  10.818 -2.0660  1.7160 -1.9959
  4464G12c C00B82800   2.890   4.011  10.971 -0.9189  0.1152 -1.1799
  4464G12c C00A82801   2.895   3.868  10.928  0.5802  0.3714  0.1827
  4464G12c C00982802   2.795   3.793  10.843 -1.2801 -0.5241 -0.5909
  4464G12c C00882803   2.677   3.819  10.773  1.4982 -0.8957 -0.2899
  4464G12c H01382804   2.670   3.916  10.726 -5.2721 -1.9765 -2.1121
  4464G12c C00782805   2.548   3.764  10.788  0.9072 -0.9453  0.8404
  4464G12c H01482806   2.468   3.815  10.734  1.6248  0.4645  1.0799
  4464G12c C00682807   2.517   3.649  10.870 -0.5903 -1.0265 -1.2567
  4464G12c C00582808   2.627   3.618  10.952  0.6135 -0.2353 -0.4591
  4464G12c C00482809   2.633   3.512  11.041 -0.7873 -1.2197 -0.0994
  4464G12c C00382810   2.740   3.501  11.137  0.4011 -0.2951  0.7666
  4464G12c C00282811   2.712   3.406  11.228  0.6682 -0.3555 -1.7627
  4464G12c C00182812   2.794   3.355  11.330 -0.7250  1.2931 -0.8436
  4464G12c C00M82813   2.882   3.421  11.423  1.0727  0.7317  1.3828
  4464G12c C00L82814   2.951   3.539  11.382 -1.3321 -0.8254 -3.1851
  4464G12c C00R82815   2.980   3.662  11.456 -2.6429  1.4287 -0.3345
  4464G12c C00Q82816   2.980   3.679  11.606 -1.7805 -0.3968 -1.1719
  4464G12c C00V82817   3.037   3.807  11.658 -1.1082  0.0273  1.1118
  4464G12c C00U82818   3.069   3.905  11.562 -2.3103 -1.5043  0.0727
  4464G12c C00T82819   3.055   3.884  11.427  0.6980  0.6654 -0.2420
  4464G12c C01682820   3.039   3.981  11.322 -0.1014  0.5040  0.8822
  4464G12c C01582821   3.040   4.112  11.354  1.0012  1.2103 -1.5175
  4464G12c C01082822   3.086   4.141  11.484  0.9457 -0.5330  0.7489
  4464G12c C01182823   3.114   4.277  11.513 -1.2149  0.4151 -0.6555
  4464G12c H00582824   3.171   4.296  11.603  1.6175 -2.1946 -1.8211
  4464G12c C01282825   3.094   4.379  11.413 -0.2481 -1.2167 -1.6834
  4464G12c C01782826   3.130   4.503  11.444 -1.5535  0.2917 -1.3825
  4464G12c O00282827   3.254   4.510  11.505  0.3543 -0.4920 -0.4242
  4464G12c H00482828   3.249   4.583  11.565 -0.3452 -2.5434  2.0667
  4464G12c C01882829   3.053   4.608  11.414 -0.8848  0.2474  0.7511
  4464G12c O00182830   2.927   4.584  11.365  0.2630 -0.6114  0.3669
  4464G12c H00382831   2.947   4.491  11.365 -0.3392 -0.7564 -1.8399
  4464G12c C01982832   3.095   4.741  11.437  0.4323 -0.7175 -0.3155
  4464G12c H00282833   3.133   4.806  11.358  1.3667 -0.4689  0.3298
  4464G12c H00182834   2.995   4.785  11.443 -1.1825 -3.9090 -2.5770
  4464G12c O00082835   3.168   4.771  11.562 -0.8702  0.0801  0.4804
  4464G12c C01A82836   3.211   4.899  11.585 -0.0605 -1.7616 -0.3044
  4464G12c C02K82837   3.276   4.901  11.719  0.8944  1.3777  1.4540
  4464G12c O00G82838   3.266   4.802  11.803  1.8738  1.0542 -0.9233
  4464G12c C02M82839   3.387   4.768  11.871 -0.1533 -1.7644  0.3972
  4464G12c H01G82840   3.386   4.846  11.948 -3.6694  2.2931 -3.5204
  4464G12c H01F82841   3.446   4.728  11.789  4.6510 -2.5985  3.9814
  4464G12c H01E82842   3.349   4.675  11.912 -3.7120  1.8538  6.0818
  4464G12c C02J82843   3.335   5.014  11.764  0.9300 -1.1809  0.7834
  4464G12c H01H82844   3.370   5.023  11.866 -1.4516  3.7300  1.2875
  4464G12c C02I82845   3.334   5.134  11.681 -1.5474 -0.1475  0.9772
  4464G12c C02N82846   3.375   5.245  11.750  0.2317 -0.5200  1.3009
  4464G12c H01M82847   3.373   5.261  11.857 -1.4753 -3.3440  1.7437
  4464G12c C02O82848   3.424   5.363  11.682 -1.5049 -0.1000 -0.3486
  4464G12c H01L82849   3.480   5.373  11.591  3.0524  3.5495  2.5799
  4464G12c C02P82850   3.408   5.509  11.737 -0.9450  1.1918 -0.4094
  4464G12c H01K82851   3.383   5.488  11.841  4.1404  1.8707  1.0559
  4464G12c H01J82852   3.496   5.571  11.721  0.5056 -0.7847 -0.2269
  4464G12c O00H82853   3.307   5.535  11.644  1.2314  0.7597 -0.3523
  4464G12c H01I82854   3.305   5.456  11.592 -1.6996  0.2343  0.4756
  4464G12c C02H82855   3.291   5.140  11.545  0.2506 -0.4197  0.3552
  4464G12c H01C82856   3.319   5.211  11.468  2.5948 -0.9929  0.6242
  4464G12c C02L82857   3.238   5.014  11.500  0.0751  0.8621 -0.1571
  4464G12c H01D82858   3.204   5.011  11.398  2.4334 -1.5262 -0.9259
  4464G12c C01382859   3.043   4.347  11.282  0.1071 -0.5494  0.6571
  4464G12c H00082860   3.061   4.433  11.220  2.9206 -1.4897  0.1171
  4464G12c C01482861   3.016   4.202  11.263 -0.5076 -0.1460 -0.3889
  4464G12c C00F82862   2.949   4.174  11.145  0.1100  0.3532 -0.8743
  4464G12c C00H82863   3.011   3.941  11.185  0.3648 -1.1770 -0.1869
  4464G12c C00I82864   2.982   3.806  11.160 -0.4531 -0.2875  0.7724
  4464G12c C00J82865   3.017   3.714  11.254  1.1919 -0.6682 -0.0734
  4464G12c C00Z82866   3.066   4.039  11.594 -0.9105 -0.5394 -0.6157
  4464G12c C00Y82867   3.104   4.076  11.735 -0.8035  0.4732 -1.9734
  4464G12c H00682868   3.124   4.177  11.766 -4.7334  0.5262  0.7315
  4464G12c C00X82869   3.091   3.987  11.834 -0.8525 -0.5763 -0.6123
  4464G12c O00382870   3.089   4.032  11.971 -0.2866 -0.2294  0.7648
  4464G12c C01B82871   3.176   3.974  12.074  0.3324 -2.6658  1.2837
  4464G12c H00982872   3.172   4.054  12.148 -2.5497  7.7061 -8.6367
  4464G12c H00882873   3.281   3.990  12.053  1.1183 -1.9365  5.3641
  4464G12c H00782874   3.122   3.888  12.116 -4.1816  0.1646  1.5686
  4464G12c C00W82875   3.043   3.859  11.795 -0.8228 -0.6617  1.4180
  4464G12c O00482876   3.001   3.771  11.883 -0.3888 -0.7525  0.7760
  4464G12c C01C82877   2.950   3.645  11.851  0.3170 -0.4933  0.5906
  4464G12c H00A82878   2.963   3.569  11.927  1.3958 -0.3349  0.5695
  4464G12c C00P82879   2.938   3.592  11.711 -0.0202  0.5583  0.9255
  4464G12c C00O82880   2.842   3.491  11.673  1.0003 -0.9763 -1.3871
  4464G12c C01D82881   2.732   3.475  11.795 -1.0773 -0.7903 -0.4791
  4464G12c H00S82882   2.738   3.551  11.872 -1.3608 -0.5928 -0.6525
  4464G12c C01E82883   2.621   3.389  11.770 -0.4407 -1.3001  1.6118
  4464G12c O00882884   2.530   3.347  11.841  0.4997  0.0509  1.4692
  4464G12c C01V82885   2.529   3.362  11.979 -0.1133  0.5496  1.0499
  4464G12c C01Z82886   2.433   3.467  12.017 -0.0121  0.4617  0.3484
  4464G12c H00R82887   2.354   3.405  12.058  1.7845 -4.7552 -3.4830
  4464G12c H00Q82888   2.449   3.496  12.121  0.3382  2.4437 -0.2316
  4464G12c O00982889   2.390   3.601  11.987  0.0548  1.5017  0.7211
  4464G12c H00P82890   2.336   3.602  11.910  3.0872 -2.1285 -1.6387
  4464G12c C01W82891   2.637   3.323  12.044 -0.4665  0.9539 -0.3162
  4464G12c H00O82892   2.729   3.291  11.998  2.1802  1.5082  4.3908
  4464G12c C01X82893   2.646   3.331  12.201 -1.3317  0.0703  0.1245
  4464G12c H00N82894   2.741   3.281  12.221 -1.4806 -0.3913 -0.3155
  4464G12c H00M82895   2.675   3.424  12.250  6.4583 -1.3392 -1.1595
  4464G12c C01Y82896   2.552   3.225  12.276 -0.6820 -1.7423 -2.1189
  4464G12c C02D82897   2.603   3.101  12.325 -0.7821 -1.5973  1.7804
  4464G12c H01982898   2.707   3.079  12.308  0.1410  3.2879  0.2365
  4464G12c C02C82899   2.506   3.012  12.387 -1.1736  0.0136 -0.5532
  4464G12c H01A82900   2.542   2.911  12.398  0.4608  0.1660 -3.9981
  4464G12c C02B82901   2.372   3.063  12.406 -0.0693  1.1724  0.2344
  4464G12c O00E82902   2.277   2.948  12.410  0.6393  0.4787 -1.2597
  4464G12c H01B82903   2.294   2.859  12.385 -1.3706 -0.8576  1.7216
  4464G12c C02F82904   2.337   3.191  12.375  0.1020  0.8288 -0.6202
  4464G12c O00F82905   2.212   3.242  12.384 -0.2428 -0.6202  0.1961
  4464G12c C02G82906   2.175   3.356  12.468 -1.4827 -0.6018 -0.8534
  4464G12c H01782907   2.260   3.424  12.475  2.2549 -5.1568  1.1017
  4464G12c H01682908   2.120   3.313  12.552 -2.3914  0.0726 -1.0944
  4464G12c H01582909   2.104   3.396  12.395  0.1732  1.6402 -1.2644
  4464G12c C02E82910   2.428   3.274  12.318 -2.3318 -1.6585 -0.5615
  4464G12c H01882911   2.391   3.374  12.299 -0.8843 -1.6590 -3.6827
  4464G12c C01F82912   2.600   3.342  11.645  0.7826 -0.8532  0.8220
  4464G12c C01G82913   2.468   3.301  11.602 -0.8256  1.9388  1.6018
  4464G12c H00L82914   2.389   3.282  11.673 -1.7910  2.7299  0.7513
  4464G12c C01H82915   2.459   3.277  11.459  0.6678  0.1894  0.9888
  4464G12c H00B82916   2.357   3.262  11.427  1.7485  0.5685 -2.8190
  4464G12c C01I82917   2.575   3.269  11.364 -0.7325 -0.2097 -0.4224
  4464G12c C01U82918   2.707   3.342  11.542 -0.9715  0.5638  0.4948
  4464G12c C00S82919   3.061   3.749  11.382  0.3243  0.1352 -0.8951
  4464G12c C00K82920   2.952   3.584  11.249 -1.7071  0.6500  1.2549
  4464G12c C00N82921   2.822   3.419  11.547 -0.6376 -0.6571 -0.7899
  4464G12c C00082922   2.699   3.286  11.418  1.5295 -2.4276 -1.1262
  4464G12c C01J82923   2.584   3.344  11.250 -0.5944 -1.2401 -0.0034
  4464G12c C01K82924   2.476   3.348  11.142 -0.6630  2.4239  0.4766
  4464G12c C01P82925   2.346   3.272  11.147 -0.8984  0.0273  0.3484
  4464G12c C01Q82926   2.326   3.147  11.197  1.4578  0.2743 -1.0404
  4464G12c H00G82927   2.242   3.111  11.254  3.1393  0.2158  1.5000
  4464G12c C01R82928   2.436   3.064  11.164  0.0125 -2.0627  1.3921
  4464G12c H00F82929   2.523   3.091  11.106  1.4916 -4.9985  2.1425
  4464G12c C01S82930   2.446   2.923  11.208 -1.0286 -0.1609  0.5728
  4464G12c H00E82931   2.517   2.867  11.146 -0.5128  1.0629  0.0353
  4464G12c H00D82932   2.482   2.940  11.309  3.5129  2.5033 -1.3577
  4464G12c O00582933   2.319   2.862  11.204 -1.2345  0.0835  0.2730
  4464G12c H00C82934   2.306   2.819  11.121 -1.3502  2.3515 -0.9158
  4464G12c C01O82935   2.255   3.291  11.040 -0.5257 -0.2266  1.1123
  4464G12c H00H82936   2.162   3.237  11.034  0.4112 -1.6080 -1.9066
  4464G12c C01N82937   2.279   3.385  10.949 -1.0274 -1.3509 -0.1708
  4464G12c O00682938   2.220   3.406  10.827  0.0231 -0.6905  1.2467
  4464G12c C01T82939   2.273   3.339  10.728  0.6178  0.6339  0.1143
  4464G12c H00K82940   2.336   3.250  10.718  0.5057  0.4155  1.3491
  4464G12c H00J82941   2.207   3.274  10.670  3.2740  0.7531 -3.2121
  4464G12c H00I82942   2.333   3.395  10.656 -3.4334  4.3833 -0.5179
  4464G12c C01M82943   2.397   3.465  10.960 -0.1464 -0.1324  1.6728
  4464G12c C02082944   2.871   3.571  11.128  0.6194 -0.0187 -1.0535
  4464G12c C02182945   2.875   3.658  11.014  0.2292 -0.5450  0.3788
  4464G12c C01L82946   2.508   3.437  11.054  0.5757 -0.2117  1.3891
  4464G12c O00782947   2.401   3.567  10.862 -1.4878  0.1979 -0.3891
  4464G12c C02282948   2.768   3.670  10.926  1.0262 -0.7422  0.0716
  4464G12c C02382949   2.938   3.773  11.025 -0.7485  1.3648 -0.2736
  4464G12c C00G82950   2.948   4.039  11.102 -0.2624 -0.4171  0.9476
  4464G12c C00E82951   2.879   4.285  11.079 -0.0851 -0.8398 -0.6538
  4464G12c O00A82952   2.858   4.419  11.123 -1.4301  0.2428  0.1526
  4464G12c C02482953   2.739   4.482  11.077 -3.7640 -0.3142  0.6135
  4464G12c H00V82954   2.778   4.547  10.998  0.7133 -0.6572  2.3954
  4464G12c H00U82955   2.725   4.545  11.165  1.7266 -2.2131  3.0863
  4464G12c H00T82956   2.646   4.437  11.044 -4.1649 -0.6170  2.1444
  4474G12c C00D82957  10.872  12.696  10.017 -0.5268  1.5637 -0.4711
  4474G12c O00B82958  10.889  12.600  10.124 -0.2659 -0.5218 -1.0467
  4474G12c C02582959  10.838  12.649  10.235  1.3386  0.2183 -1.0822
  4474G12c C02682960  10.685  12.622  10.256 -0.1516 -1.3532  0.5163
  4474G12c H00Y82961  10.643  12.565  10.173  1.0723 -4.4703  1.9720
  4474G12c H00X82962  10.650  12.717  10.215  0.4031  0.4557  4.0864
  4474G12c O00C82963  10.644  12.571  10.369 -0.4699 -1.0418  0.4408
  4474G12c H00W82964  10.709  12.595  10.434 -4.7759 -1.4019  5.2070
  4474G12c C02782965  10.944  12.689  10.318  0.9011  0.4079  0.2262
  4474G12c O00D82966  11.069  12.704  10.253 -0.2115  1.3531 -0.7957
  4474G12c H00Z82967  11.084  12.669  10.166  3.6094  3.7977 -1.2363
  4474G12c C02882968  10.911  12.714  10.461  1.0236 -0.7535  0.7972
  4474G12c C02982969  10.986  12.645  10.560 -0.0708  0.6559 -1.0158
  4474G12c H01082970  11.081  12.603  10.530  0.9366 -0.5535  3.4220
  4474G12c C02T82971  10.919  12.629  10.686  0.3429  0.8528 -0.2839
  4474G12c H01O82972  10.990  12.607  10.763  1.8471  3.5790 -0.8256
  4474G12c C02S82973  10.798  12.696  10.729  1.4705  1.1639  1.6985
  4474G12c O00J82974  10.781  12.718  10.859 -0.6806 -0.6272 -0.5823
  4474G12c H01P82975  10.722  12.789  10.876 -4.4489 -1.9577 -6.5442
  4474G12c C02R82976  10.757  12.781  10.625 -0.3019 -2.0966  0.3557
  4474G12c O00I82977  10.717  12.905  10.651 -0.3242  2.1687 -0.0733
  4474G12c C02Q82978  10.595  12.907  10.735 -0.7255 -0.2664 -1.0131
  4474G12c H01N82979  10.500  12.949  10.701  2.6887  6.7538 -2.8277
  4474G12c H01R82980  10.550  12.818  10.779 -5.1993  3.4939  2.6330
  4474G12c H01Q82981  10.601  12.978  10.818 -2.0255  1.2023 -2.1419
  4474G12c C02A82982  10.789  12.772  10.498 -2.4673  0.7322  0.9926
  4474G12c H01182983  10.738  12.848  10.440 -1.0449  2.0224  1.4223
  4474G12c C00C82984  10.912  12.828  10.037  0.2871  1.4947 -0.8376
  4474G12c H01282985  10.969  12.850  10.126  3.6423  0.8898 -2.7511
  4474G12c C00B82986  10.910  12.934   9.949  0.9370 -1.6740 -0.4053
  4474G12c C00A82987  10.945  13.071   9.981 -0.2606 -0.3235  0.3340
  4474G12c C00982988  10.938  13.154  10.099 -1.0514 -1.9663  2.7889
  4474G12c C00882989  10.948  13.126  10.238 -1.0274 -0.0243 -1.4648
  4474G12c H01382990  10.923  13.034  10.289 -0.1980 -1.4552 -3.5879
  4474G12c C00782991  10.950  13.245  10.308 -1.0609  0.3453 -0.6705
  4474G12c H01482992  11.000  13.237  10.403  1.8229 -4.1177 -2.4003
  4474G12c C00682993  10.910  13.376  10.269  0.3550 -0.5892  0.6603
  4474G12c C00582994  10.928  13.391  10.127  0.5424 -1.7446 -0.6118
  4474G12c C00482995  10.899  13.524  10.060 -0.1849 -0.0277 -0.1300
  4474G12c C00382996  10.879  13.516   9.919 -0.6594  1.1773 -1.2024
  4474G12c C00282997  10.830  13.638   9.855  1.6064 -0.3509  0.6098
  4474G12c C00182998  10.817  13.680   9.710  1.0085  1.1513 -1.0123
  4474G12c C00M82999  10.740  13.587   9.632  0.7768  1.7614 -0.9884
  4474G12c C00L83000  10.769  13.455   9.624 -0.5023  0.9060 -0.4130
  4474G12c C00R83001  10.695  13.358   9.546 -0.2946  1.4026 -1.5639
  4474G12c C00Q83002  10.570  13.358   9.478  0.8730  0.1263 -0.6862
  4474G12c C00V83003  10.516  13.238   9.444  1.1593  1.1500  0.8649
  4474G12c C00U83004  10.576  13.116   9.474 -0.1615  0.4375 -1.1045
  4474G12c C00T83005  10.689  13.107   9.557 -0.3576  0.2481  1.4693
  4474G12c C01683006  10.734  13.007   9.633  0.1757  0.0545 -0.3376
  4474G12c C01583007  10.667  12.891   9.612 -0.7597 -0.9054  0.1737
  4474G12c C01083008  10.583  12.880   9.493 -1.7194 -1.5468  2.4547
  4474G12c C01183009  10.550  12.752   9.445 -1.4594  0.1741 -0.6292
  4474G12c H00583010  10.496  12.747   9.351  1.8988 -1.9429 -2.5525
  4474G12c C01283011  10.584  12.644   9.519  1.1199  0.4055  0.3341
  4474G12c C01783012  10.573  12.512   9.474 -0.5061 -0.5092  0.5933
  4474G12c O00283013  10.688  12.455   9.424 -0.4667  1.4089 -1.2808
  4474G12c H00483014  10.731  12.521   9.371  6.6819 -2.8337 -1.4148
  4474G12c C01883015  10.446  12.468   9.461  0.0542  0.7957  0.3059
  4474G12c O00183016  10.341  12.546   9.456 -1.0045 -1.2962  0.9456
  4474G12c H00383017  10.303  12.515   9.537  1.4754 -2.7464  1.6236
  4474G12c C01983018  10.447  12.311   9.443 -0.5877 -0.4730  1.3586
  4474G12c H00283019  10.385  12.310   9.353  1.6905 -2.7181 -0.2548
  4474G12c H00183020  10.543  12.271   9.411 -1.8748 -0.1261 -3.4128
  4474G12c O00083021  10.422  12.255   9.583 -0.4732 -0.8829  1.1697
  4474G12c C01A83022  10.375  12.123   9.582 -0.9769  0.1393  1.5606
  4474G12c C02K83023  10.453  12.018   9.640 -0.3794  0.5215 -1.2777
  4474G12c O00G83024  10.535  12.018   9.757 -0.5733  0.6035  1.6673
  4474G12c C02M83025  10.604  12.129   9.833  0.0198  0.9415 -1.0901
  4474G12c H01G83026  10.564  12.230   9.831 -2.0016  0.1966 -6.6390
  4474G12c H01F83027  10.702  12.154   9.793  1.0026 -1.0993 -0.0557
  4474G12c H01E83028  10.583  12.104   9.937 -1.9667  4.4181 -0.5664
  4474G12c C02J83029  10.469  11.905   9.544  0.0867 -2.3283  0.7551
  4474G12c H01H83030  10.518  11.814   9.575  2.9329 -0.2852  2.4711
  4474G12c C02I83031  10.407  11.899   9.419  1.3478  1.4277 -0.0142
  4474G12c C02N83032  10.444  11.799   9.335 -0.7404 -1.4570 -1.0107
  4474G12c H01M83033  10.375  11.720   9.306  5.1263 -6.2316 -3.0535
  4474G12c C02O83034  10.572  11.767   9.305 -0.0808 -1.6455 -0.2316
  4474G12c H01L83035  10.564  11.664   9.274 -2.3144 -2.2533  2.2261
  4474G12c C02P83036  10.733  11.819   9.322  2.5610 -0.1152  0.5551
  4474G12c H01K83037  10.823  11.770   9.285 -1.3113 -2.7771 -6.3502
  4474G12c H01J83038  10.716  11.889   9.239 -4.0201 -4.1963 -1.8894
  4474G12c O00H83039  10.739  11.879   9.446  0.0874  0.9817 -0.3203
  4474G12c H01I83040  10.659  11.922   9.472 -4.0167 -5.9368 -0.2674
  4474G12c C02H83041  10.299  11.991   9.399 -0.9559 -0.6411 -2.3866
  4474G12c H01C83042  10.245  11.987   9.306  0.7917 -3.8214 -3.3577
  4474G12c C02L83043  10.282  12.107   9.477 -0.0156 -0.5534  0.5790
  4474G12c H01D83044  10.215  12.190   9.460  1.4851  0.4142 -0.7343
  4474G12c C01383045  10.657  12.658   9.631  0.9915  0.1312  0.9019
  4474G12c H00083046  10.699  12.579   9.692 -2.3505 -4.1510 -2.1109
  4474G12c C01483047  10.707  12.779   9.673 -1.0597  0.1645 -2.2309
  4474G12c C00F83048  10.790  12.782   9.791  1.6689  0.5625  1.2826
  4474G12c C00H83049  10.839  13.012   9.735  0.1983  1.4124 -1.4899
  4474G12c C00I83050  10.883  13.143   9.771  0.7790  1.2854 -0.5438
  4474G12c C00J83051  10.836  13.250   9.685 -0.3620 -0.1894  0.2408
  4474G12c C00Z83052  10.509  12.999   9.454  0.7326  1.3801 -0.6245
  4474G12c C00Y83053  10.384  12.985   9.376 -1.7513 -0.6805 -1.0381
  4474G12c H00683054  10.348  12.884   9.363 -4.6746  0.7708 -5.7164
  4474G12c C00X83055  10.352  13.117   9.320  0.4046 -0.4109 -1.3856
  4474G12c O00383056  10.239  13.130   9.234  0.3991 -1.3435  0.1214
  4474G12c C01B83057  10.287  13.145   9.102 -0.1066 -0.1060 -0.0076
  4474G12c H00983058  10.213  13.222   9.079 -0.8737 -2.5568 -6.8490
  4474G12c H00883059  10.368  13.218   9.096 -1.1786  1.3192  2.2004
  4474G12c H00783060  10.310  13.074   9.023 -1.3722  0.1325 -0.5978
  4474G12c C00W83061  10.401  13.236   9.359  0.7222 -1.7070  2.5126
  4474G12c O00483062  10.340  13.346   9.312 -0.5735  0.3412  0.1208
  4474G12c C01C83063  10.393  13.459   9.343  2.7084  0.7057 -0.9590
  4474G12c H00A83064  10.312  13.527   9.321 -0.0832 -3.6057 -4.9728
  4474G12c C00P83065  10.489  13.470   9.445  0.7456 -0.1233  0.8995
  4474G12c C00O83066  10.491  13.585   9.524 -1.6324 -1.9038 -0.8319
  4474G12c C01D83067  10.380  13.658   9.545  1.1278  1.1042 -0.8847
  4474G12c H00S83068  10.282  13.613   9.539  1.8608 -0.3630 -2.2418
  4474G12c C01E83069  10.379  13.770   9.629 -1.4840 -0.5274  0.2646
  4474G12c O00883070  10.258  13.819   9.666  0.8108  0.5362  0.4001
  4474G12c C01V83071  10.133  13.837   9.600 -1.2819  0.7344 -0.9801
  4474G12c C01Z83072  10.133  13.954   9.492  0.3480  0.1099 -0.3585
  4474G12c H00R83073  10.207  13.930   9.416  3.3022  2.2900  1.7229
  4474G12c H00Q83074  10.049  13.970   9.425 -0.2536  3.9940  1.1955
  4474G12c O00983075  10.151  14.073   9.539 -0.1133 -0.6936  0.2170
  4474G12c H00P83076  10.154  14.126   9.460  0.4193 -1.9133 -0.6006
  4474G12c C01W83077  10.045  13.732   9.603 -0.2144  0.2018 -0.5398
  4474G12c H00O83078  10.054  13.663   9.686 -8.7099 -0.4199  0.2452
  4474G12c C01X83079   9.899  13.717   9.526  3.0943 -1.7843  1.4560
  4474G12c H00N83080   9.818  13.756   9.588  2.0035 -2.3562  0.4259
  4474G12c H00M83081   9.907  13.754   9.424  1.5218 -3.0202  0.8465
  4474G12c C01Y83082   9.862  13.584   9.498  0.2832  0.3501  0.5604
  4474G12c C02D83083   9.961  13.494   9.446  0.5528 -0.1814  0.4127
  4474G12c H01983084  10.058  13.518   9.405 -0.6683  0.2666 -2.3431
  4474G12c C02C83085   9.927  13.355   9.443  0.3740 -0.4306  2.6136
  4474G12c H01A83086  10.013  13.289   9.445  2.1414  1.5201 -1.2273
  4474G12c C02B83087   9.793  13.307   9.457 -0.5665  1.4240  1.2223
  4474G12c O00E83088   9.747  13.183   9.464 -1.1972 -0.9622  0.7076
  4474G12c H01B83089   9.660  13.190   9.501  0.1749  3.9240  3.5370
  4474G12c C02F83090   9.693  13.400   9.495 -0.5972  0.1447 -0.0563
  4474G12c O00F83091   9.565  13.359   9.521  1.2328 -0.0486  0.4312
  4474G12c C02G83092   9.460  13.432   9.458 -1.6137  0.4939  0.1705
  4474G12c H01783093   9.386  13.462   9.533 -1.4520 -1.4673  1.1347
  4474G12c H01683094   9.475  13.522   9.397 -1.8828 -0.0454 -0.6939
  4474G12c H01583095   9.439  13.353   9.387  2.8683  1.6653 -2.6549
  4474G12c C02E83096   9.744  13.536   9.536  1.1736  1.0222  0.5133
  4474G12c H01883097   9.694  13.584   9.619  0.5505  2.4354 -0.6641
  4474G12c C01F83098  10.492  13.806   9.686  0.3820  0.7176 -1.5023
  4474G12c C01G83099  10.475  13.899   9.788 -1.5142  0.3879 -1.8336
  4474G12c H00L83100  10.380  13.916   9.837 -1.7321  1.5304 -2.6054
  4474G12c C01H83101  10.590  13.920   9.870 -1.1485  0.1133 -0.3165
  4474G12c H00B83102  10.572  13.983   9.956 -2.7784  1.9927 -1.9653
  4474G12c C01I83103  10.706  13.848   9.853  0.3231  1.0004 -1.0386
  4474G12c C01U83104  10.626  13.762   9.653  0.8314 -0.8069 -1.0462
  4474G12c C00S83105  10.751  13.233   9.581  0.3441 -1.2670 -0.2456
  4474G12c C00K83106  10.857  13.384   9.719  0.0780 -1.9639  0.2920
  4474G12c C00N83107  10.612  13.632   9.598  0.2219  0.0729 -0.9252
  4474G12c C00083108  10.741  13.818   9.714  0.3121  1.2318 -1.2338
  4474G12c C01J83109  10.779  13.748   9.937 -0.3172 -0.5157 -0.4210
  4474G12c C01K83110  10.797  13.755  10.083 -0.7802  1.3479  0.9017
  4474G12c C01P83111  10.779  13.860  10.179 -0.8691 -0.6385  1.8078
  4474G12c C01Q83112  10.763  13.989  10.127 -1.0889  1.3369 -1.4054
  4474G12c H00G83113  10.796  13.988  10.024  2.3252  0.0414 -0.3638
  4474G12c C01R83114  10.698  14.095  10.191  0.3090  0.9614  0.3777
  4474G12c H00F83115  10.655  14.048  10.279 -2.1354  0.8516 -0.8496
  4474G12c C01S83116  10.692  14.243  10.140 -0.3801 -1.1720  0.0935
  4474G12c H00E83117  10.594  14.281  10.113 -1.4382 -6.0582 -3.5012
  4474G12c H00D83118  10.752  14.268  10.052 -2.9729 -1.3596 -1.7752
  4474G12c O00583119  10.687  14.336  10.224  1.0812 -0.0642 -1.0980
  4474G12c H00C83120  10.739  14.297  10.293 -4.0197  2.2818  4.5797
  4474G12c C01O83121  10.747  13.819  10.315 -0.4937  0.7643  0.5122
  4474G12c H00H83122  10.744  13.905  10.380 -2.4327  3.0777 -2.4938
  4474G12c C01N83123  10.767  13.692  10.372 -1.1485  0.5567  0.6411
  4474G12c O00683124  10.780  13.704  10.508  0.6671 -1.1808  0.9950
  4474G12c C01T83125  10.866  13.607  10.588  0.2077 -0.1030 -1.5748
  4474G12c H00K83126  10.876  13.498  10.580 -4.5897 -0.7614 -0.3016
  4474G12c H00J83127  10.853  13.629  10.694 -1.7198 -6.6410 -0.1898
  4474G12c H00I83128  10.970  13.635  10.571  0.7209 -0.6654  0.4156
  4474G12c C01M83129  10.844  13.609  10.275  0.2814  0.4852 -1.1731
  4474G12c C02083130  10.921  13.407   9.844  0.0889  0.8864 -0.5977
  4474G12c C02183131  10.978  13.290   9.916 -0.5032 -0.0372  1.2436
  4474G12c C01L83132  10.859  13.627  10.134 -1.1293  0.2456 -1.6821
  4474G12c O00783133  10.891  13.494  10.341  0.4917 -0.9062 -0.4818
  4474G12c C02283134  10.972  13.283  10.046  1.0009  1.7678 -1.7771
  4474G12c C02383135  10.986  13.154   9.874  0.0548 -0.4555  0.2142
  4474G12c C00G83136  10.843  12.903   9.828 -1.5082  0.2176  2.0827
  4474G12c C00E83137  10.812  12.682   9.893  1.1496  1.2802 -1.2423
  4474G12c O00A83138  10.738  12.567   9.898 -0.6186 -0.5013  0.6157
  4474G12c C02483139  10.806  12.434   9.880 -0.1404 -0.9358  1.1944
  4474G12c H00V83140  10.907  12.470   9.864 -2.7275  7.0448  0.5210
  4474G12c H00U83141  10.785  12.348   9.944 -2.6923 -5.1536 -4.8067
  4474G12c H00T83142  10.741  12.440   9.792 -1.2758  5.8896  2.2484
  4484G12c C00D83143   0.949  11.453  11.553  0.1035 -0.7360 -0.3773
  4484G12c O00B83144   0.917  11.502  11.686 -0.1829  1.4188  0.7395
  4484G12c C02583145   1.007  11.482  11.775  0.7855 -0.0960  0.2303
  4484G12c C02683146   1.007  11.343  11.832  1.0836 -0.7807  0.0095
  4484G12c H00Y83147   0.944  11.271  11.779 -6.1375  0.3927  6.1973
  4484G12c H00X83148   0.943  11.332  11.919  1.3682 -0.9940  0.1935
  4484G12c O00C83149   1.131  11.289  11.862  0.6240  0.0763 -0.8603
  4484G12c H00W83150   1.160  11.235  11.790  6.6521 -3.5933  3.8734
  4484G12c C02783151   1.058  11.593  11.839 -0.1038  0.4319  1.2472
  4484G12c O00D83152   0.987  11.708  11.812  0.7920  1.3984 -0.4985
  4484G12c H00Z83153   0.956  11.696  11.724 -2.6097 -1.4362  0.9714
  4484G12c C02883154   1.173  11.576  11.924 -1.3746  1.6061 -1.1264
  4484G12c C02983155   1.306  11.582  11.852 -0.2506 -1.2534  1.1490
  4484G12c H01083156   1.320  11.619  11.751  2.0766 -7.6613 -1.1392
  4484G12c C02T83157   1.406  11.494  11.906 -0.5729  0.7473 -0.1905
  4484G12c H01O83158   1.501  11.520  11.862 -1.7022 -1.0375 -3.8979
  4484G12c C02S83159   1.393  11.449  12.024  1.8169  1.5997  0.4482
  4484G12c O00J83160   1.505  11.429  12.102  0.8089 -1.7219  0.5736
  4484G12c H01P83161   1.480  11.408  12.191  2.7367  0.0369  1.5725
  4484G12c C02R83162   1.284  11.447  12.105  0.1892  0.3280  1.0630
  4484G12c O00I83163   1.280  11.411  12.238  0.4274  0.3344  0.1449
  4484G12c C02Q83164   1.143  11.342  12.272  0.0060 -0.0698 -0.0915
  4484G12c H01N83165   1.054  11.405  12.274  0.2397  0.3967 -2.6905
  4484G12c H01R83166   1.125  11.274  12.189  3.8809 -4.7793  2.6306
  4484G12c H01Q83167   1.143  11.269  12.353  2.1616  4.5172  4.3459
  4484G12c C02A83168   1.160  11.503  12.045  0.3811 -0.7279  1.6332
  4484G12c H01183169   1.066  11.505  12.097 -1.1600  0.9211 -1.0753
  4484G12c C00C83170   0.842  11.431  11.456  0.2912  0.2774 -0.6286
  4484G12c H01283171   0.747  11.471  11.487 -0.6344 -2.0486 -0.3884
  4484G12c C00B83172   0.857  11.313  11.368 -0.1119  0.5693 -1.4271
  4484G12c C00A83173   0.747  11.242  11.323 -0.7835  0.2347 -0.7955
  4484G12c C00983174   0.611  11.200  11.370  2.9115  0.2964 -0.6103
  4484G12c C00883175   0.549  11.219  11.491  0.4050 -0.8556 -1.1196
  4484G12c H01383176   0.582  11.273  11.579 -4.3894  6.4752 -3.4128
  4484G12c C00783177   0.421  11.153  11.512  1.2346 -0.5355  2.5945
  4484G12c H01483178   0.363  11.164  11.603 -2.7384  3.9206 -0.2312
  4484G12c C00683179   0.376  11.049  11.419  0.2148  0.7549 -1.5009
  4484G12c C00583180   0.454  11.037  11.307 -0.7475 -0.5898 -2.0121
  4484G12c C00483181   0.445  10.932  11.229  0.8576 -0.6983  1.7711
  4484G12c C00383182   0.542  10.907  11.133  2.3715  0.5378  0.3238
  4484G12c C00283183   0.514  10.789  11.049 -1.7965  1.0777 -0.4015
  4484G12c C00183184   0.591  10.739  10.945 -0.9959  0.5237  0.0167
  4484G12c C00M83185   0.733  10.727  10.972  0.1477  0.1806 -0.3104
  4484G12c C00L83186   0.816  10.821  11.029 -0.2290  1.4891  0.9554
  4484G12c C00R83187   0.947  10.828  11.016 -0.8237  1.1039 -1.5518
  4484G12c C00Q83188   1.040  10.726  11.004  0.8828  0.6938  0.6473
  4484G12c C00V83189   1.173  10.772  11.041 -0.1847  0.7949 -1.3091
  4484G12c C00U83190   1.213  10.901  11.101  2.4288  2.1015  0.7462
  4484G12c C00T83191   1.105  10.990  11.111  0.5456 -1.6017 -0.5367
  4484G12c C01683192   1.094  11.098  11.200 -2.1696 -1.2746 -0.3355
  4484G12c C01583193   1.221  11.122  11.265  1.0136  0.4829 -0.2146
  4484G12c C01083194   1.319  11.029  11.266  1.7753 -0.6314 -0.6338
  4484G12c C01183195   1.426  11.034  11.374  1.5596  1.0314  1.5192
  4484G12c H00583196   1.507  10.963  11.368  0.6530  0.1049 -0.5512
  4484G12c C01283197   1.436  11.137  11.473  0.6333 -1.0091  1.1071
  4484G12c C01783198   1.544  11.179  11.559  0.6203 -2.4029 -0.1978
  4484G12c O00283199   1.502  11.269  11.669 -1.9633  0.6340 -0.9536
  4484G12c H00483200   1.595  11.286  11.670 -2.5263  4.2177  1.2847
  4484G12c C01883201   1.665  11.116  11.536  1.1650 -1.3865  1.8867
  4484G12c O00183202   1.691  11.032  11.428 -0.1651 -1.1935  0.6279
  4484G12c H00383203   1.725  10.958  11.476  0.6645 -1.6859 -0.7126
  4484G12c C01983204   1.783  11.167  11.600 -0.0298 -0.5949 -0.3256
  4484G12c H00283205   1.769  11.118  11.697  0.0901 -2.7591 -1.3609
  4484G12c H00183206   1.889  11.158  11.579  0.5774  2.0626  1.3356
  4484G12c O00083207   1.763  11.310  11.568  1.4768 -0.8879  1.4623
  4484G12c C01A83208   1.839  11.387  11.649 -0.5570 -0.5326  2.5019
  4484G12c C02K83209   1.895  11.364  11.777 -0.0174  0.3039 -0.6550
  4484G12c O00G83210   1.854  11.241  11.856 -0.0589 -2.1121  0.0190
  4484G12c C02M83211   1.807  11.298  11.979 -0.0822 -1.2106  0.0976
  4484G12c H01G83212   1.888  11.354  12.026 -0.6745 -1.5703  1.5788
  4484G12c H01F83213   1.813  11.204  12.035  5.4920  0.4648  2.6633
  4484G12c H01E83214   1.710  11.348  11.982  1.6129  2.2949 -1.5378
  4484G12c C02J83215   1.975  11.479  11.818  1.5555  0.8866 -0.2769
  4484G12c H01H83216   1.997  11.488  11.923  1.1707 -2.3064  0.1197
  4484G12c C02I83217   1.987  11.611  11.741 -0.5226 -0.6037 -1.3370
  4484G12c C02N83218   2.039  11.722  11.794  0.1065  0.3963  1.1329
  4484G12c H01M83219   1.970  11.790  11.841  1.1840 -2.4948  7.3110
  4484G12c C02O83220   2.165  11.754  11.794 -0.0174 -1.6542  0.6525
  4484G12c H01L83221   2.162  11.846  11.851 -6.0464 -0.0819 -1.7724
  4484G12c C02P83222   2.279  11.671  11.714  0.3767  0.9983 -0.1855
  4484G12c H01K83223   2.274  11.652  11.607  2.9134 -3.1318  0.3197
  4484G12c H01J83224   2.347  11.748  11.751  0.1494  0.2354  1.8876
  4484G12c O00H83225   2.286  11.540  11.778 -0.5691 -0.0216 -0.9089
  4484G12c H01I83226   2.209  11.487  11.762 -1.8769  2.4862 -3.4083
  4484G12c C02H83227   1.912  11.625  11.623  0.7757  0.2167  0.9896
  4484G12c H01C83228   1.901  11.721  11.575 -2.0301 -2.6935 -4.7822
  4484G12c C02L83229   1.871  11.504  11.578 -1.9453 -0.0250  1.7063
  4484G12c H01D83230   1.838  11.498  11.475  6.7744 -1.1860 -1.3852
  4484G12c C01383231   1.318  11.211  11.480  0.6285 -0.7888  0.2488
  4484G12c H00083232   1.296  11.279  11.561 11.1847  2.1553  1.4110
  4484G12c C01483233   1.215  11.214  11.379  1.0097 -0.2077  0.3640
  4484G12c C00F83234   1.090  11.290  11.407 -3.2367 -0.4622 -1.3703
  4484G12c C00H83235   0.989  11.174  11.225  1.5310  1.0302  1.4859
  4484G12c C00I83236   0.882  11.138  11.153  0.4325  0.2665 -0.2066
  4484G12c C00J83237   0.886  11.037  11.057  1.9048  0.2767 -0.4129
  4484G12c C00Z83238   1.312  10.916  11.183 -0.8885 -0.4120 -0.4124
  4484G12c C00Y83239   1.389  10.803  11.215 -0.4876  0.2397 -0.1499
  4484G12c H00683240   1.447  10.775  11.302 -3.2898  6.4620  4.1104
  4484G12c C00X83241   1.360  10.683  11.146 -1.8253  0.4212 -0.9507
  4484G12c O00383242   1.437  10.571  11.172  0.7401 -1.4639  2.0166
  4484G12c C01B83243   1.573  10.563  11.194  0.8351  0.4773  2.1513
  4484G12c H00983244   1.593  10.621  11.284  6.9009  2.8005 -0.3871
  4484G12c H00883245   1.616  10.637  11.126  4.2708  1.9041  5.6462
  4484G12c H00783246   1.630  10.470  11.184  2.7830  1.3496  4.5083
  4484G12c C00W83247   1.254  10.663  11.058 -0.1799 -0.1449 -0.1326
  4484G12c O00483248   1.255  10.542  11.012  0.7335  0.4130  0.6111
  4484G12c C01C83249   1.137  10.492  10.976 -0.0230 -0.3733  0.4514
  4484G12c H00A83250   1.114  10.393  10.939  3.4398 -0.8559 -0.5740
  4484G12c C00P83251   1.018  10.582  10.991  0.7402 -0.8370 -0.2194
  4484G12c C00O83252   0.878  10.517  10.981 -0.3440 -0.3362  0.6763
  4484G12c C01D83253   0.869  10.375  10.977 -0.2400 -0.2075 -0.6823
  4484G12c H00S83254   0.952  10.307  10.962 -0.8365 -1.8291  2.7927
  4484G12c C01E83255   0.750  10.310  11.004  0.6482  1.1216 -0.3650
  4484G12c O00883256   0.729  10.218  11.116  0.5829 -0.0303  0.0848
  4484G12c C01V83257   0.802  10.254  11.222  0.6562 -0.0807 -1.3220
  4484G12c C01Z83258   0.938  10.196  11.244  0.0545 -1.7335  0.9410
  4484G12c H00R83259   1.021  10.254  11.203 -0.8118 -0.2842  1.2096
  4484G12c H00Q83260   0.971  10.205  11.348 -1.2431  1.6801  1.1084
  4484G12c O00983261   0.969  10.085  11.143  0.0276  0.8111  0.9365
  4484G12c H00P83262   0.888  10.068  11.097  2.4959  1.4779 -4.0351
  4484G12c C01W83263   0.743  10.346  11.311 -1.4219  0.7493 -0.7208
  4484G12c H00O83264   0.652  10.379  11.264 -1.7981 -1.2384 -1.4144
  4484G12c C01X83265   0.821  10.421  11.440  0.7226 -2.8553 -1.0850
  4484G12c H00N83266   0.738  10.442  11.507  1.0570 -0.5423 -1.3764
  4484G12c H00M83267   0.884  10.338  11.474  0.4192 -2.1484  1.3552
  4484G12c C01Y83268   0.912  10.536  11.386 -0.7904 -1.3724 -1.4498
  4484G12c C02D83269   0.861  10.667  11.355 -1.7835  0.4358 -0.0826
  4484G12c H01983270   0.756  10.676  11.329 -1.5375 -2.2586 -2.2999
  4484G12c C02C83271   0.951  10.791  11.360  0.3109 -1.5005 -2.3718
  4484G12c H01A83272   0.933  10.891  11.322  3.7610 -2.3818 -6.8010
  4484G12c C02B83273   1.083  10.767  11.398  0.8184 -0.5426 -1.2600
  4484G12c O00E83274   1.152  10.882  11.454  0.2208  0.4074 -0.6794
  4484G12c H01B83275   1.128  10.959  11.405  0.1323  0.0398 -1.2171
  4484G12c C02F83276   1.131  10.644  11.434 -0.5663  1.7863 -1.1864
  4484G12c O00F83277   1.268  10.636  11.460  2.2473 -0.2070  0.5320
  4484G12c C02G83278   1.314  10.694  11.578  0.0887 -0.1170 -0.3477
  4484G12c H01783279   1.348  10.612  11.642 -7.5456 -5.7099 -2.6403
  4484G12c H01683280   1.263  10.768  11.640  0.4049 -1.5086  1.6433
  4484G12c H01583281   1.408  10.747  11.560 -1.5315  4.2337  3.0173
  4484G12c C02E83282   1.052  10.521  11.412  0.6024  0.1072 -1.7331
  4484G12c H01883283   1.076  10.417  11.423 -1.5859  0.0120  3.8669
  4484G12c C01F83284   0.635  10.376  10.989  0.3502 -0.5418  1.4282
  4484G12c C01G83285   0.502  10.341  11.043 -0.6989  0.0765  1.1025
  4484G12c H00L83286   0.476  10.241  11.073 -2.5462  0.5528  1.1806
  4484G12c C01H83287   0.423  10.455  11.079 -0.6249  1.1112 -0.4806
  4484G12c H00B83288   0.343  10.428  11.146 -1.2737 -1.8757 -2.3483
  4484G12c C01I83289   0.436  10.587  11.019  0.7764 -0.4162  0.7577
  4484G12c C01U83290   0.635  10.515  10.943  1.1315  1.6478 -1.1806
  4484G12c C00S83291   0.985  10.955  11.036 -0.7175  0.9311 -1.0629
  4484G12c C00K83292   0.774  10.951  11.054 -1.3727  1.6595  0.8356
  4484G12c C00N83293   0.753  10.586  10.966  0.8370 -1.3960  0.1195
  4484G12c C00083294   0.532  10.603  10.916  0.9957 -0.5614 -0.3134
  4484G12c C01J83295   0.397  10.714  11.071  0.7194 -1.0807  0.6672
  4484G12c C01K83296   0.285  10.737  11.161  0.4376 -1.0704  2.6290
  4484G12c C01P83297   0.147  10.688  11.175  0.8427 -0.5498 -0.5440
  4484G12c C01Q83298   0.107  10.600  11.067 -0.5229 -0.4554 -0.0244
  4484G12c H00G83299   0.160  10.593  10.973  0.0387  2.0161  0.0718
  4484G12c C01R83300   0.005  10.518  11.063 -1.1316  0.5467 -1.9437
  4484G12c H00F83301  -0.050  10.524  11.156  7.4460  1.1153  3.7318
  4484G12c C01S83302  -0.017  10.412  10.953 -1.5928  0.2079 -0.4574
  4484G12c H00E83303  -0.086  10.419  10.868  1.2714  1.7278 -2.7520
  4484G12c H00D83304   0.066  10.414  10.882 -0.7726 -4.6623  0.1972
  4484G12c O00583305   0.008  10.278  11.005 -0.7632  0.3889  0.3136
  4484G12c H00C83306   0.038  10.277  11.094  4.8863 -1.8098 -1.3974
  4484G12c C01O83307   0.062  10.722  11.279 -0.6726 -0.2893 -0.7598
  4484G12c H00H83308  -0.038  10.684  11.264 -1.2724  1.6516 -1.7908
  4484G12c C01N83309   0.121  10.798  11.388  0.6360 -0.9634  1.6508
  4484G12c O00683310   0.053  10.832  11.495  1.2482  0.9044 -0.1442
  4484G12c C01T83311  -0.061  10.759  11.512  0.0390  0.6605  0.8832
  4484G12c H00K83312  -0.055  10.650  11.512 -5.9439  0.1451  2.1611
  4484G12c H00J83313  -0.147  10.791  11.453 -0.6729 -2.3907  0.1765
  4484G12c H00I83314  -0.102  10.773  11.612  2.0995  0.3695  1.7917
  4484G12c C01M83315   0.243  10.865  11.368 -0.4676  0.4956  2.1005
  4484G12c C02083316   0.639  11.003  11.093  1.0393 -0.4980 -1.0893
  4484G12c C02183317   0.628  11.131  11.155  0.7349 -1.0649  0.2482
  4484G12c C01L83318   0.323  10.856  11.248 -0.0951 -0.3470 -1.0207
  4484G12c O00783319   0.263  10.981  11.441 -1.1094  0.0608 -0.8439
  4484G12c C02283320   0.540  11.147  11.264  0.8658 -0.5637  1.1109
  4484G12c C02383321   0.757  11.193  11.195 -1.5252 -0.0252  1.7130
  4484G12c C00G83322   0.981  11.260  11.345 -0.0117 -1.0581 -1.4667
  4484G12c C00E83323   1.072  11.392  11.516 -0.0689 -2.1390  2.0294
  4484G12c O00A83324   1.177  11.454  11.569 -1.1440 -1.9251 -0.5393
  4484G12c C02483325   1.197  11.581  11.502  0.2077 -0.6323 -0.6439
  4484G12c H00V83326   1.141  11.570  11.409 -1.8687 -2.1091  0.7343
  4484G12c H00U83327   1.305  11.576  11.485  0.0321  2.4741 -3.4096
  4484G12c H00T83328   1.208  11.679  11.549  0.8541 -0.7214 -0.6121
  4494G12c C00D83329   8.241   6.044   2.978  0.2308  1.0798  0.6656
  4494G12c O00B83330   8.111   6.042   2.901  0.3489  0.3098  0.3552
  4494G12c C02583331   8.074   6.142   2.824  0.9180 -0.5981 -0.1274
  4494G12c C02683332   8.004   6.237   2.913 -1.1304 -0.3025 -0.5251
  4494G12c H00Y83333   8.070   6.247   2.999 -1.6061 -3.2474  0.2528
  4494G12c H00X83334   7.928   6.175   2.962 -3.0981 -0.5778 -3.7728
  4494G12c O00C83335   7.964   6.363   2.860 -0.8034 -0.0807  0.6246
  4494G12c H00W83336   8.028   6.423   2.896  0.5281 -5.7021  9.2711
  4494G12c C02783337   8.117   6.137   2.699  0.3834 -0.2710  0.9913
  4494G12c O00D83338   8.181   6.032   2.617 -0.0912  1.4166 -0.3478
  4494G12c H00Z83339   8.121   5.995   2.553 -1.4511  1.8141  0.6691
  4494G12c C02883340   8.097   6.265   2.623 -0.3679  0.5771  0.5572
  4494G12c C02983341   7.958   6.287   2.565 -0.8625 -0.4655 -0.2747
  4494G12c H01083342   7.870   6.224   2.567 -3.5433  3.0978 -1.0882
  4494G12c C02T83343   7.965   6.397   2.475 -1.1493 -0.1418 -0.6152
  4494G12c H01O83344   7.885   6.427   2.409 -3.1989 -3.1920  0.4168
  4494G12c C02S83345   8.063   6.501   2.457 -0.9025  1.4577 -1.2002
  4494G12c O00J83346   8.060   6.586   2.338 -0.7909  0.4362  0.8224
  4494G12c H01P83347   8.136   6.634   2.308  2.4704 -3.4772  2.3515
  4494G12c C02R83348   8.181   6.481   2.520  0.2266 -0.2765 -1.2976
  4494G12c O00I83349   8.283   6.563   2.498  0.8131  0.1871 -0.0533
  4494G12c C02Q83350   8.422   6.562   2.540  0.6987  3.0563 -0.7941
  4494G12c H01N83351   8.436   6.641   2.613  3.7353  4.0947 -2.4009
  4494G12c H01R83352   8.504   6.555   2.468  0.2790  2.1694 -1.2039
  4494G12c H01Q83353   8.451   6.477   2.601 -1.9370  0.6615 -2.7325
  4494G12c C02A83354   8.204   6.348   2.584 -0.2950 -0.3762 -2.0218
  4494G12c H01183355   8.306   6.327   2.615  0.3876 -2.0101 -5.1921
  4494G12c C00C83356   8.329   6.152   2.964 -0.0285 -0.6699  1.0528
  4494G12c H01283357   8.310   6.248   2.918  2.2313  2.1764  5.7390
  4494G12c C00B83358   8.458   6.151   3.035  0.3024 -0.4634  0.8673
  4494G12c C00A83359   8.570   6.251   3.068  0.5849  0.1762  0.0305
  4494G12c C00983360   8.599   6.371   3.007 -1.2027 -1.8437  0.6445
  4494G12c C00883361   8.554   6.486   2.932  0.4350  0.1735  1.0054
  4494G12c H01383362   8.454   6.481   2.891 -2.0025  6.5499  5.3873
  4494G12c C00783363   8.632   6.605   2.879  1.2317  0.8060  0.6765
  4494G12c H01483364   8.605   6.697   2.829 -2.5975  1.9480  4.5078
  4494G12c C00683365   8.764   6.605   2.934 -3.9151  0.5161  0.6966
  4494G12c C00583366   8.803   6.499   3.024  1.5746 -2.0162  0.6953
  4494G12c C00483367   8.946   6.487   3.057  0.2515  1.1940  0.9111
  4494G12c C00383368   8.994   6.380   3.122  0.6746 -1.1997  0.8964
  4494G12c C00283369   9.141   6.359   3.124 -0.4794  0.3025 -0.9050
  4494G12c C00183370   9.227   6.258   3.193 -1.9890  0.0163  0.9372
  4494G12c C00M83371   9.201   6.111   3.187  2.0289  0.2709  1.0158
  4494G12c C00L83372   9.067   6.055   3.210 -1.4346 -0.1054  0.8847
  4494G12c C00R83373   9.025   5.916   3.195 -1.1017  1.3576  0.0177
  4494G12c C00Q83374   9.098   5.810   3.147  0.6113  1.6867 -1.3410
  4494G12c C00V83375   9.020   5.701   3.133  0.3020 -1.8286  0.1730
  4494G12c C00U83376   8.884   5.713   3.113 -0.2962 -1.9043  0.4778
  4494G12c C00T83377   8.812   5.831   3.146  0.8296 -1.1651 -1.7530
  4494G12c C01683378   8.679   5.859   3.110 -0.8357  1.2254 -1.4389
  4494G12c C01583379   8.604   5.752   3.070 -0.7662  0.1501  0.8542
  4494G12c C01083380   8.661   5.615   3.045  0.7034 -0.1145 -1.3231
  4494G12c C01183381   8.583   5.498   3.060 -0.3492  0.1792 -0.7395
  4494G12c H00583382   8.634   5.403   3.060  3.2218  1.9817 -2.2685
  4494G12c C01283383   8.443   5.525   3.043  0.2481  1.4825 -1.9198
  4494G12c C01783384   8.352   5.407   3.026  0.3352 -1.3539 -0.8300
  4494G12c O00283385   8.218   5.422   3.056 -1.0991 -0.2162 -0.1935
  4494G12c H00483386   8.175   5.345   3.023  0.2648  0.4152 -3.7030
  4494G12c C01883387   8.382   5.296   2.953  0.5433  0.5069  1.2232
  4494G12c O00183388   8.511   5.263   2.907  0.9799 -0.4170  0.6702
  4494G12c H00383389   8.508   5.186   2.852 -2.5873 -0.1759  0.4033
  4494G12c C01983390   8.295   5.184   2.913  0.6698  0.7305 -0.9801
  4494G12c H00283391   8.192   5.218   2.918  0.4334  0.1275 -1.7059
  4494G12c H00183392   8.319   5.099   2.978 -7.2015 -1.8573 -0.9690
  4494G12c O00083393   8.345   5.115   2.813  0.4325 -1.4505 -0.7631
  4494G12c C01A83394   8.287   4.990   2.772 -1.2453  0.0472 -0.1406
  4494G12c C02K83395   8.185   4.978   2.665 -1.1454  0.1354  0.6007
  4494G12c O00G83396   8.122   5.095   2.648 -0.1066  1.3477  0.5541
  4494G12c C02M83397   8.162   5.153   2.524  2.3835  0.8710 -1.1000
  4494G12c H01G83398   8.121   5.095   2.442  3.1774 -1.8669  0.3800
  4494G12c H01F83399   8.133   5.257   2.539 -1.9637 -0.7528  3.1103
  4494G12c H01E83400   8.270   5.144   2.519  2.3561 -0.4244  0.3945
  4494G12c C02J83401   8.128   4.855   2.627  0.7902 -2.5038  1.0021
  4494G12c H01H83402   8.039   4.855   2.566  1.0466 -2.7353  0.6318
  4494G12c C02I83403   8.208   4.733   2.668 -1.4557 -0.2732 -0.3128
  4494G12c C02N83404   8.166   4.595   2.664  1.9052  1.3802 -0.3756
  4494G12c H01M83405   8.242   4.519   2.666  0.5644 -0.2572 -5.4584
  4494G12c C02O83406   8.039   4.556   2.620 -1.0396 -0.6879  0.2470
  4494G12c H01L83407   7.973   4.619   2.678 -2.4649 -1.5692 -0.3934
  4494G12c C02P83408   7.974   4.421   2.633 -1.8963  0.4461  1.1802
  4494G12c H01K83409   8.043   4.344   2.598 -3.3213  0.1383 -1.0911
  4494G12c H01J83410   7.906   4.399   2.715 -4.3580  1.6953 -0.4637
  4494G12c O00H83411   7.879   4.466   2.530 -0.5003 -0.0657  0.0037
  4494G12c H01I83412   7.844   4.539   2.579 -4.3131 -3.5788  2.8723
  4494G12c C02H83413   8.335   4.754   2.736  0.0987 -0.0587 -0.3038
  4494G12c H01C83414   8.418   4.685   2.738  4.1181  4.5285  1.8901
  4494G12c C02L83415   8.363   4.874   2.809  0.1846  0.3823  0.8431
  4494G12c H01D83416   8.438   4.908   2.878  1.7764 -0.5338 -0.3920
  4494G12c C01383417   8.395   5.659   3.052  0.6626  0.1628  1.2818
  4494G12c H00083418   8.299   5.705   3.069  1.8648  1.1844  6.0443
  4494G12c C01483419   8.472   5.777   3.057  1.5540 -0.1375 -0.9254
  4494G12c C00F83420   8.412   5.910   3.048  0.7788  1.4922 -0.8129
  4494G12c C00H83421   8.638   5.993   3.109 -0.4158  0.6307 -0.6706
  4494G12c C00I83422   8.725   6.097   3.157 -0.0579 -0.4680  0.0506
  4494G12c C00J83423   8.845   6.051   3.224  2.0208 -1.3697 -0.9106
  4494G12c C00Z83424   8.811   5.608   3.047  0.0411 -1.1044  1.5284
  4494G12c C00Y83425   8.872   5.488   3.015 -1.3355 -0.0507 -1.0814
  4494G12c H00683426   8.837   5.422   2.937 -2.9863 -2.2895  1.4631
  4494G12c C00X83427   9.019   5.482   3.029 -0.9065  0.1360 -0.4842
  4494G12c O00383428   9.099   5.400   2.962 -0.7815  0.5974  0.4471
  4494G12c C01B83429   9.130   5.413   2.828  0.5539 -0.2910  0.4423
  4494G12c H00983430   9.231   5.442   2.798  1.3966  1.7803  4.9006
  4494G12c H00883431   9.113   5.325   2.766 -3.2203  3.4278 -4.3173
  4494G12c H00783432   9.074   5.493   2.778  2.7498 -0.3592 -2.2745
  4494G12c C00W83433   9.086   5.582   3.106  1.4257 -0.9127 -0.4699
  4494G12c O00483434   9.214   5.557   3.108 -1.5111 -0.7384  0.6952
  4494G12c C01C83435   9.262   5.658   3.047  0.4872  0.5816 -0.8266
  4494G12c H00A83436   9.327   5.637   2.963 -0.4552 -1.9490 -0.9719
  4494G12c C00P83437   9.234   5.789   3.098  1.6282  0.5399  1.2523
  4494G12c C00O83438   9.310   5.909   3.059 -0.6162  1.3544  0.1318
  4494G12c C01D83439   9.407   5.905   2.956  0.6997 -0.2744  0.6170
  4494G12c H00S83440   9.435   5.824   2.890  3.7634  1.6508 -0.5542
  4494G12c C01E83441   9.479   6.016   2.894  0.2390  1.8650  0.1187
  4494G12c O00883442   9.571   6.021   2.779  1.4257  0.6326 -1.4814
  4494G12c C01V83443   9.704   5.968   2.789 -0.4127  0.0113 -0.5535
  4494G12c C01Z83444   9.764   5.945   2.651 -1.0742 -0.7736 -2.1393
  4494G12c H00R83445   9.743   6.033   2.590 -0.8024  3.6516  3.7869
  4494G12c H00Q83446   9.871   5.944   2.634 -0.6824  2.0898 -0.0867
  4494G12c O00983447   9.709   5.817   2.614 -0.9741  1.1473 -0.0724
  4494G12c H00P83448   9.625   5.827   2.657 -0.9070 -3.5916  1.4126
  4494G12c C01W83449   9.792   5.960   2.898  0.7079 -1.9126 -0.0984
  4494G12c H00O83450   9.752   5.971   2.998  2.1307 -2.7334  0.5727
  4494G12c C01X83451   9.947   5.915   2.930 -1.1844  0.9169 -1.9267
  4494G12c H00N83452   9.942   5.817   2.882  4.2469  0.5316 -2.0146
  4494G12c H00M83453  10.012   5.963   2.857  6.2251 -4.2358  0.6843
  4494G12c C01Y83454  10.027   5.915   3.058 -1.1438 -0.6296  0.6673
  4494G12c C02D83455  10.048   6.041   3.139 -1.5096  0.2597 -0.9476
  4494G12c H01983456  10.000   6.132   3.108  0.0649 -0.1226 -4.8478
  4494G12c C02C83457  10.136   6.043   3.258  1.5534 -0.1892  0.4417
  4494G12c H01A83458  10.119   6.119   3.333 -3.2844 -1.7234  1.0631
  4494G12c C02B83459  10.154   5.920   3.318  0.7919  0.1287 -0.0728
  4494G12c O00E83460  10.187   5.926   3.453  0.5667  1.6754 -0.1028
  4494G12c H01B83461  10.125   5.872   3.499  3.6494 -0.5743  1.5654
  4494G12c C02F83462  10.126   5.804   3.248 -1.7489  0.9241 -0.9242
  4494G12c O00F83463  10.152   5.674   3.329 -0.0463  0.1659 -0.0993
  4494G12c C02G83464  10.226   5.674   3.443 -0.2062  0.5981  0.0393
  4494G12c H01783465  10.309   5.742   3.424 -1.1906  0.7526 -4.1091
  4494G12c H01683466  10.182   5.671   3.543 -0.9454  0.8057 -0.2762
  4494G12c H01583467  10.301   5.596   3.457 -2.5715 -2.2311 -2.4227
  4494G12c C02E83468  10.085   5.802   3.110 -0.0622  0.0517  0.2355
  4494G12c H01883469  10.120   5.707   3.074 -2.5921 -2.8236  4.8789
  4494G12c C01F83470   9.467   6.141   2.943  0.3601 -1.0007 -0.0492
  4494G12c C01G83471   9.511   6.263   2.885 -1.1606  0.2342 -0.0997
  4494G12c H00L83472   9.548   6.268   2.784 -6.5117  0.9031 -2.2238
  4494G12c C01H83473   9.440   6.381   2.915 -0.3668  1.1364 -0.4679
  4494G12c H00B83474   9.450   6.454   2.836  1.5020 -0.5715 -1.8302
  4494G12c C01I83475   9.347   6.382   3.025  0.1856  1.8161 -0.6658
  4494G12c C01U83476   9.389   6.154   3.056  0.4802  0.6282  0.6820
  4494G12c C00S83477   8.890   5.927   3.214  1.1666  0.3902 -1.1304
  4494G12c C00K83478   8.954   6.139   3.204 -0.3694 -0.2631  0.2323
  4494G12c C00N83479   9.299   6.038   3.111  1.2642 -0.6813  0.6486
  4494G12c C00083480   9.337   6.273   3.110 -0.1453  0.0863 -1.3975
  4494G12c C01J83481   9.225   6.441   3.036  2.7461 -1.3349 -0.6275
  4494G12c C01K83482   9.182   6.574   2.984 -0.6821 -1.7360 -1.0952
  4494G12c C01P83483   9.254   6.692   2.926 -0.5642 -0.3818 -0.9447
  4494G12c C01Q83484   9.396   6.712   2.929  0.5303 -0.2732 -0.8687
  4494G12c H00G83485   9.447   6.740   2.838 -4.5020  3.4947 -2.7565
  4494G12c C01R83486   9.433   6.699   3.056 -0.6776  1.4508  0.3326
  4494G12c H00F83487   9.351   6.661   3.115 -1.1553 -1.2571 -2.0074
  4494G12c C01S83488   9.577   6.698   3.081 -0.2497  0.6382 -1.3387
  4494G12c H00E83489   9.594   6.648   3.176 -3.0114  0.9631 -0.6404
  4494G12c H00D83490   9.625   6.628   3.012 -2.9637  2.7511 -5.6151
  4494G12c O00583491   9.639   6.821   3.099 -0.0482  0.0927  0.9632
  4494G12c H00C83492   9.648   6.855   3.011  1.6836 -2.1263  0.2376
  4494G12c C01O83493   9.175   6.808   2.887 -1.5104  0.0429  1.2486
  4494G12c H00H83494   9.238   6.895   2.880 -2.7195  1.2959  4.7829
  4494G12c C01N83495   9.039   6.810   2.883 -0.4250  0.9478  0.1056
  4494G12c O00683496   8.964   6.936   2.843 -0.6804  1.0302 -0.2726
  4494G12c C01T83497   8.998   7.049   2.908  0.5599  0.1701  0.7996
  4494G12c H00K83498   9.031   7.128   2.841  1.6686 -0.5916  0.4285
  4494G12c H00J83499   8.912   7.103   2.946  3.3574  6.7422 -1.5354
  4494G12c H00I83500   9.066   7.037   2.993  2.4685  4.6982  0.0540
  4494G12c C01M83501   8.979   6.694   2.925  0.5611 -0.1340  1.5446
  4494G12c C02083502   8.903   6.271   3.154  0.1906 -0.4154 -0.3221
  4494G12c C02183503   8.773   6.308   3.161  0.6381  0.1178 -1.0741
  4494G12c C01L83504   9.030   6.587   2.994  0.3395 -1.0132 -0.5480
  4494G12c O00783505   8.864   6.677   2.877  0.0699 -1.3245 -0.2892
  4494G12c C02283506   8.722   6.405   3.084 -1.4766  0.8180  0.4225
  4494G12c C02383507   8.669   6.227   3.164  0.0364 -0.4112 -0.9301
  4494G12c C00G83508   8.497   6.026   3.066  0.1119  1.1030  0.3394
  4494G12c C00E83509   8.276   5.937   3.052  1.2545 -0.7270  0.2499
  4494G12c O00A83510   8.163   5.866   3.112  0.2003 -0.5826  0.9487
  4494G12c C02483511   8.177   5.889   3.251  0.4714  0.3942 -0.7734
  4494G12c H00V83512   8.271   5.845   3.283 -0.0621  0.4619  0.9272
  4494G12c H00U83513   8.083   5.837   3.271  0.8184  1.8725  6.0152
  4494G12c H00T83514   8.156   5.995   3.267  3.8325  0.5164  3.6087
  4504G12c C00D83515   1.140   5.566   6.372 -0.3547 -0.6749  0.8164
  4504G12c O00B83516   1.191   5.679   6.403  0.3723  0.6297  0.8837
  4504G12c C02583517   1.185   5.790   6.308 -1.2226 -1.6410 -0.9508
  4504G12c C02683518   1.222   5.761   6.159 -1.5588  1.5723  0.5298
  4504G12c H00Y83519   1.290   5.827   6.104 -0.7938  1.4955  1.3644
  4504G12c H00X83520   1.125   5.751   6.112 -0.9988  2.3263 -0.8110
  4504G12c O00C83521   1.336   5.679   6.164 -0.4397 -0.9998 -0.1983
  4504G12c H00W83522   1.405   5.701   6.225 -3.0452  4.1095  1.2222
  4504G12c C02783523   1.123   5.902   6.354 -0.1754 -0.0317  0.7931
  4504G12c O00D83524   1.091   5.920   6.489 -0.0995 -0.0664 -1.4482
  4504G12c H00Z83525   1.145   5.857   6.535  2.3974  0.9965 -2.8182
  4504G12c C02883526   1.055   6.018   6.264  0.8369 -0.4333 -0.0950
  4504G12c C02983527   1.062   6.063   6.123  0.1678  1.2239  0.4351
  4504G12c H01083528   1.139   6.014   6.065 -3.4479 -6.7464  1.5865
  4504G12c C02T83529   0.951   6.131   6.053 -0.2075 -0.0835 -1.1053
  4504G12c H01O83530   0.940   6.163   5.951 -1.7246  6.0758  0.7868
  4504G12c C02S83531   0.850   6.195   6.130 -0.8345 -1.1547  1.4375
  4504G12c O00J83532   0.755   6.260   6.057 -0.7779 -0.5646 -1.3435
  4504G12c H01P83533   0.752   6.326   6.124 -1.4691 -3.8673  2.0419
  4504G12c C02R83534   0.854   6.173   6.268  2.0546  0.9599 -1.0663
  4504G12c O00I83535   0.745   6.241   6.333  0.8764 -0.0161 -0.6273
  4504G12c C02Q83536   0.772   6.321   6.435 -1.2208  0.0230  0.7036
  4504G12c H01N83537   0.795   6.427   6.446  0.2505 -0.5214  3.3575
  4504G12c H01R83538   0.846   6.270   6.498  1.8792 -0.5735 -3.1772
  4504G12c H01Q83539   0.719   6.288   6.523 -4.4025  1.6749 -0.5283
  4504G12c C02A83540   0.933   6.086   6.330  1.4725  0.1457  0.1388
  4504G12c H01183541   0.900   6.067   6.431  3.8253 -1.0200  0.7246
  4504G12c C00C83542   1.157   5.460   6.271  0.1030 -0.2508  0.6246
  4504G12c H01283543   1.230   5.483   6.194  2.1362 -1.3189  2.1941
  4504G12c C00B83544   1.072   5.355   6.253  1.2238  0.7539  0.8488
  4504G12c C00A83545   1.037   5.297   6.126 -0.7279 -0.0635  0.7661
  4504G12c C00983546   0.983   5.380   6.017 -0.4540 -0.2196 -0.1864
  4504G12c C00883547   0.978   5.518   5.978  0.3288  0.0012  1.2622
  4504G12c H01383548   1.027   5.578   6.052 -0.5356 -2.2228  3.7360
  4504G12c C00783549   0.913   5.563   5.864 -0.5007 -0.0327 -3.1538
  4504G12c H01483550   0.927   5.669   5.846  1.8246 -1.1162 -8.7779
  4504G12c C00683551   0.802   5.489   5.827 -1.8816 -0.0334  1.7466
  4504G12c C00583552   0.796   5.350   5.864  0.0440  1.9352 -0.9122
  4504G12c C00483553   0.715   5.261   5.799  0.7647  0.7583  0.9704
  4504G12c C00383554   0.705   5.131   5.872 -1.0013  0.5025  0.0476
  4504G12c C00283555   0.603   5.038   5.837 -0.5617 -0.2900 -1.3783
  4504G12c C00183556   0.563   4.906   5.877  1.4731  0.2709 -0.8319
  4504G12c C00M83557   0.542   4.877   6.020  1.7045  0.6639  0.6798
  4504G12c C00L83558   0.651   4.890   6.109 -0.2524  0.7808  1.4775
  4504G12c C00R83559   0.648   4.901   6.255 -0.1558  0.1695  0.6944
  4504G12c C00Q83560   0.542   4.870   6.344  0.5993  0.0479 -0.3631
  4504G12c C00V83561   0.555   4.914   6.487 -0.8449  0.6189 -1.0575
  4504G12c C00U83562   0.668   5.000   6.534 -0.3001  1.1259  0.4336
  4504G12c C00T83563   0.758   5.035   6.443 -0.1669  0.4798 -0.8523
  4504G12c C01683564   0.855   5.134   6.455  0.6823  0.3854 -1.0839
  4504G12c C01583565   0.852   5.208   6.566 -1.0238  1.1131 -0.8857
  4504G12c C01083566   0.767   5.164   6.676  0.2750 -0.8593  1.9667
  4504G12c C01183567   0.782   5.235   6.796 -1.0197 -0.1535  0.4368
  4504G12c H00583568   0.718   5.213   6.881 -3.5341 -3.6427 -2.2365
  4504G12c C01283569   0.901   5.303   6.819  1.4694 -0.7108 -0.4063
  4504G12c C01783570   0.966   5.353   6.951  0.7599  0.7298  1.1648
  4504G12c O00283571   1.077   5.426   6.926 -0.9438 -0.0885 -0.2570
  4504G12c H00483572   1.113   5.453   7.009  2.1323 -1.4451 -1.1021
  4504G12c C01883573   0.914   5.330   7.065 -0.1413 -0.1857 -0.7061
  4504G12c O00183574   0.803   5.263   7.097 -0.9396 -0.5476  0.8817
  4504G12c H00383575   0.799   5.241   7.005 -6.7598 -1.3982  1.1378
  4504G12c C01983576   0.979   5.364   7.192  0.5056 -1.1641 -0.5067
  4504G12c H00283577   0.901   5.360   7.269  1.0792 -0.2869  0.1268
  4504G12c H00183578   1.029   5.279   7.239  7.7042  2.2409 -1.3861
  4504G12c O00083579   1.083   5.467   7.174 -0.0834 -0.3152  0.4944
  4504G12c C01A83580   1.158   5.473   7.294 -1.3131  1.4349 -0.7424
  4504G12c C02K83581   1.238   5.367   7.351  0.2573 -0.1092 -1.5929
  4504G12c O00G83582   1.246   5.253   7.264 -0.6399  0.1754 -0.4213
  4504G12c C02M83583   1.388   5.229   7.217 -1.2061  0.4312  0.4963
  4504G12c H01G83584   1.463   5.211   7.294 -0.8153  0.5065  0.1320
  4504G12c H01F83585   1.415   5.314   7.155  3.0109  2.6054  4.9753
  4504G12c H01E83586   1.359   5.128   7.190  1.0039  0.4749 -2.2297
  4504G12c C02J83587   1.325   5.365   7.469 -1.2513 -1.4738 -0.0912
  4504G12c H01H83588   1.389   5.295   7.523  2.0306  4.2206  3.9779
  4504G12c C02I83589   1.345   5.498   7.519 -0.2033  0.3683 -2.1090
  4504G12c C02N83590   1.417   5.514   7.644 -0.6859  1.4088 -2.2027
  4504G12c H01M83591   1.428   5.599   7.709  1.4243 -0.0362 -0.5920
  4504G12c C02O83592   1.503   5.425   7.686 -0.4822  2.0042 -2.3026
  4504G12c H01L83593   1.511   5.325   7.647 -2.4601  1.0991 -0.4374
  4504G12c C02P83594   1.618   5.446   7.791  2.6832 -0.6664 -0.4608
  4504G12c H01K83595   1.633   5.543   7.838  3.9714 -1.6502  1.2246
  4504G12c H01J83596   1.708   5.421   7.736  2.4862 -0.2937 -0.9582
  4504G12c O00H83597   1.594   5.354   7.901 -2.3421 -0.1617 -0.3105
  4504G12c H01I83598   1.511   5.359   7.945  0.2555 -0.0039  4.9243
  4504G12c C02H83599   1.277   5.606   7.461  0.7947 -0.6624  0.4438
  4504G12c H01C83600   1.282   5.706   7.501 -0.6552  0.4334 -2.0598
  4504G12c C02L83601   1.201   5.591   7.345  0.6635  0.6423  1.3372
  4504G12c H01D83602   1.164   5.688   7.315 -2.8099  0.3610  4.3164
  4504G12c C01383603   0.956   5.348   6.707  1.5145 -2.0493  1.4630
  4504G12c H00083604   1.038   5.417   6.716 -1.3209  1.4489  1.5214
  4504G12c C01483605   0.925   5.327   6.580  0.6105 -0.0568  0.0778
  4504G12c C00F83606   0.992   5.382   6.469 -2.0887 -0.6619 -1.4048
  4504G12c C00H83607   0.918   5.176   6.345 -1.1857  1.4825  0.0305
  4504G12c C00I83608   0.927   5.097   6.228 -0.9860  0.2238 -0.3008
  4504G12c C00J83609   0.837   4.999   6.199  3.1173 -0.1877 -0.4416
  4504G12c C00Z83610   0.661   5.067   6.651 -2.1067 -1.8898  0.5520
  4504G12c C00Y83611   0.567   5.047   6.745  2.4363  0.2315  0.5855
  4504G12c H00683612   0.588   5.079   6.846  1.9904  0.5342  0.5823
  4504G12c C00X83613   0.474   4.950   6.719  0.0274  0.5880  1.9930
  4504G12c O00383614   0.401   4.935   6.829  0.2389  0.2712 -0.1386
  4504G12c C01B83615   0.256   4.962   6.793 -1.0428 -1.2423 -0.4919
  4504G12c H00983616   0.244   5.019   6.701  5.7827 -3.2260 -2.8905
  4504G12c H00883617   0.222   5.022   6.878  4.6423  4.5354 -1.9009
  4504G12c H00783618   0.213   4.862   6.805 -7.9852  1.4367 -0.6626
  4504G12c C00W83619   0.459   4.884   6.590  0.1621 -0.6931  0.9343
  4504G12c O00483620   0.354   4.795   6.559  0.4166  0.9440  0.8331
  4504G12c C01C83621   0.344   4.753   6.428  0.6923 -0.8525 -1.5374
  4504G12c H00A83622   0.310   4.653   6.404 -1.1347 -0.8695  0.9477
  4504G12c C00P83623   0.406   4.830   6.323  1.2283  0.1801  0.1137
  4504G12c C00O83624   0.341   4.864   6.188 -0.1036  0.7547 -1.6862
  4504G12c C01D83625   0.201   4.864   6.194 -0.5180 -0.5389 -0.3824
  4504G12c H00S83626   0.146   4.870   6.286 -1.3265 -4.2987 -0.5439
  4504G12c C01E83627   0.131   4.943   6.079 -0.3013 -0.6084  0.2591
  4504G12c O00883628   0.007   4.989   6.089  0.9298 -2.2753  1.0848
  4504G12c C01V83629  -0.055   4.987   6.201 -0.4495  0.9529 -1.6690
  4504G12c C01Z83630  -0.118   4.854   6.222 -1.4609  0.2330  1.0472
  4504G12c H00R83631  -0.031   4.795   6.197 -2.4177 -1.0483  0.7073
  4504G12c H00Q83632  -0.105   4.846   6.330 -0.3136 -2.2949  0.7338
  4504G12c O00983633  -0.223   4.800   6.159 -0.4715 -0.6223  1.3342
  4504G12c H00P83634  -0.221   4.846   6.077 -0.9120 -0.4846  1.3944
  4504G12c C01W83635  -0.049   5.088   6.291 -0.3468 -0.7571 -1.4517
  4504G12c H00O83636  -0.095   5.093   6.388  0.2225  0.8761 -1.2604
  4504G12c C01X83637   0.010   5.221   6.251 -0.8069 -0.9545  1.3295
  4504G12c H00N83638  -0.027   5.236   6.150  6.7996 -0.3937 -1.6963
  4504G12c H00M83639  -0.053   5.304   6.281  0.5158  0.5130  0.1580
  4504G12c C01Y83640   0.136   5.225   6.342  0.2120  1.1621 -1.6322
  4504G12c C02D83641   0.130   5.229   6.483 -0.0742 -0.5115 -0.4632
  4504G12c H01983642   0.038   5.217   6.538  0.2656 -0.6571  0.0744
  4504G12c C02C83643   0.229   5.299   6.549  0.0685  0.4586 -0.0202
  4504G12c H01A83644   0.191   5.362   6.628  3.9424  3.7424 -0.6815
  4504G12c C02B83645   0.337   5.349   6.481  0.3182 -0.0962  0.3963
  4504G12c O00E83646   0.451   5.404   6.540  0.6265 -0.3114 -0.2984
  4504G12c H01B83647   0.492   5.414   6.456  5.5659 -7.8034  0.7316
  4504G12c C02F83648   0.354   5.310   6.364  1.1621 -1.0557  1.1934
  4504G12c O00F83649   0.486   5.336   6.319  0.7898 -0.9214 -0.3026
  4504G12c C02G83650   0.531   5.326   6.194 -0.3477 -1.2872 -1.3185
  4504G12c H01783651   0.598   5.241   6.206 -0.9108 -2.1770 -4.0655
  4504G12c H01683652   0.561   5.426   6.160  1.8799 -1.2576  0.6082
  4504G12c H01583653   0.459   5.314   6.112 -0.9811 -0.5337 -0.8824
  4504G12c C02E83654   0.249   5.264   6.285 -1.4776  1.2434 -1.7883
  4504G12c H01883655   0.236   5.244   6.179  1.7691 -0.9115 -1.8442
  4504G12c C01F83656   0.203   4.961   5.948  0.9819 -0.1408 -0.4880
  4504G12c C01G83657   0.160   5.052   5.847  1.0251 -1.1505  1.2403
  4504G12c H00L83658   0.066   5.103   5.863  0.4972 -3.0755  4.9294
  4504G12c C01H83659   0.269   5.107   5.779  0.7346  0.7020 -0.5906
  4504G12c H00B83660   0.258   5.202   5.730 -9.0151 -2.6510 -6.2657
  4504G12c C01I83661   0.392   5.053   5.784  0.3325 -0.0794 -0.1275
  4504G12c C01U83662   0.333   4.907   5.942 -0.4462  0.4408  0.9081
  4504G12c C00S83663   0.756   4.979   6.301  0.7834 -0.4074  0.2547
  4504G12c C00K83664   0.761   4.973   6.078 -0.3016 -1.1480 -0.6075
  4504G12c C00N83665   0.398   4.881   6.063 -1.3963 -0.4044  1.4321
  4504G12c C00083666   0.429   4.919   5.838 -1.0587  0.4606 -0.0736
  4504G12c C01J83667   0.517   5.107   5.746  0.3243  0.3316  0.2336
  4504G12c C01K83668   0.514   5.228   5.675 -0.4987 -0.3748  0.5580
  4504G12c C01P83669   0.432   5.258   5.559 -0.3178 -1.2742 -0.5612
  4504G12c C01Q83670   0.329   5.170   5.497 -1.8546  0.9296 -0.0346
  4504G12c H00G83671   0.223   5.167   5.520 -2.1749  2.2287 -1.2394
  4504G12c C01R83672   0.365   5.053   5.434  1.0345 -0.0634 -1.4235
  4504G12c H00F83673   0.460   5.017   5.400  1.5674 -3.3485  3.0281
  4504G12c C01S83674   0.249   4.954   5.401  0.6786  1.3733  1.3464
  4504G12c H00E83675   0.163   5.012   5.367 -1.0568  1.0969  5.0837
  4504G12c H00D83676   0.269   4.892   5.313 -3.6644  1.5176  0.1387
  4504G12c O00583677   0.138   4.918   5.477 -0.9443  0.4693  0.8356
  4504G12c H00C83678   0.155   4.857   5.548 -2.0922  1.0754  1.6544
  4504G12c C01O83679   0.403   5.407   5.545 -1.8482  1.1329  0.3845
  4504G12c H00H83680   0.382   5.447   5.447  2.3587 -1.3804 -1.7165
  4504G12c C01N83681   0.508   5.493   5.598 -1.3136 -2.2781  1.4757
  4504G12c O00683682   0.510   5.630   5.565  0.2459 -0.9124 -0.5378
  4504G12c C01T83683   0.390   5.733   5.553  0.5902 -0.7214  0.6601
  4504G12c H00K83684   0.302   5.669   5.540 -1.9251  2.0212  3.4129
  4504G12c H00J83685   0.427   5.792   5.470  1.0383 -2.3581 -0.3308
  4504G12c H00I83686   0.382   5.816   5.623 -1.8426  6.0360 -6.8291
  4504G12c C01M83687   0.611   5.441   5.671 -0.4161  0.6896  0.1206
  4504G12c C02083688   0.793   5.079   5.976  0.5380  0.4319 -0.1997
  4504G12c C02183689   0.901   5.172   6.013 -1.2469  0.2628  0.9827
  4504G12c C01L83690   0.628   5.307   5.693  1.0187 -0.2861 -0.5605
  4504G12c O00783691   0.704   5.524   5.728  0.9354 -1.3496  0.4080
  4504G12c C02283692   0.900   5.290   5.949  1.0589 -0.0852  0.3403
  4504G12c C02383693   0.993   5.159   6.120 -1.0754 -0.2148  0.1617
  4504G12c C00G83694   0.994   5.308   6.357 -0.2024 -0.6447  0.6725
  4504G12c C00E83695   1.053   5.517   6.476 -0.8883 -1.5796  2.3204
  4504G12c O00A83696   1.042   5.597   6.583 -0.8744  1.8283 -0.6537
  4504G12c C02483697   0.916   5.673   6.597 -0.6308  0.3362  0.5885
  4504G12c H00V83698   0.881   5.720   6.505 -2.5364  0.6445  1.4525
  4504G12c H00U83699   0.935   5.748   6.675  1.8620 -1.8065  2.1154
  4504G12c H00T83700   0.832   5.608   6.574  3.0771 -6.1711  3.9628
  4514G12c C00D83701  11.650   1.793  12.601  1.4575 -0.5388 -1.3815
  4514G12c O00B83702  11.786   1.780  12.620 -0.5217 -0.7750  0.7678
  4514G12c C02583703  11.842   1.654  12.588  0.1596  0.0368  1.5801
  4514G12c C02683704  11.868   1.542  12.688 -0.8644 -0.4754 -0.4787
  4514G12c H00Y83705  11.884   1.439  12.658 -2.9152 -1.6322  2.2022
  4514G12c H00X83706  11.790   1.552  12.764 -4.8531 -5.9874 -3.4503
  4514G12c O00C83707  11.995   1.529  12.745  1.1378 -0.0619 -0.1300
  4514G12c H00W83708  11.993   1.562  12.833 -3.2670  1.9873 -0.8714
  4514G12c C02783709  11.902   1.626  12.459 -0.7154 -0.1946 -0.5844
  4514G12c O00D83710  11.949   1.728  12.384  0.7678  0.8748  1.8779
  4514G12c H00Z83711  11.894   1.764  12.316  0.5439 -6.5925 -2.3720
  4514G12c C02883712  11.906   1.485  12.410  0.1485 -0.4107 -0.2753
  4514G12c C02983713  12.031   1.436  12.356 -0.7989  0.3461 -1.1901
  4514G12c H01083714  12.124   1.490  12.352  5.8239 -8.8409  5.8210
  4514G12c C02T83715  12.010   1.312  12.288 -0.0510 -1.0523  0.2224
  4514G12c H01O83716  12.085   1.280  12.217 -1.1292  6.9349 -5.2088
  4514G12c C02S83717  11.894   1.229  12.284 -0.9455  0.8979 -1.5905
  4514G12c O00J83718  11.885   1.122  12.205  0.3997 -0.7003 -1.4567
  4514G12c H01P83719  11.977   1.101  12.213  0.6120  0.4290 -0.7456
  4514G12c C02R83720  11.772   1.286  12.328  0.9146  1.3065 -0.5658
  4514G12c O00I83721  11.653   1.235  12.309  0.9751 -0.7853 -0.1844
  4514G12c C02Q83722  11.611   1.111  12.379 -0.4022 -0.0346 -0.7676
  4514G12c H01N83723  11.576   1.026  12.321  3.0856 -4.8535  3.6894
  4514G12c H01R83724  11.691   1.063  12.435  5.5525  1.2559 -7.4629
  4514G12c H01Q83725  11.542   1.138  12.460 -0.1094 -5.3491  1.4368
  4514G12c C02A83726  11.790   1.410  12.391 -1.0965  0.9327 -1.8465
  4514G12c H01183727  11.697   1.453  12.426 -2.0840  0.4551 -3.8008
  4514G12c C00C83728  11.570   1.725  12.515 -0.0261  0.4864  0.2172
  4514G12c H01283729  11.613   1.646  12.454 -0.4496  2.6192 -2.9577
  4514G12c C00B83730  11.431   1.727  12.522 -1.5082 -0.2415 -0.8921
  4514G12c C00A83731  11.338   1.667  12.427  0.1377 -0.8568  1.8817
  4514G12c C00983732  11.362   1.622  12.290  0.0552 -0.1451  0.9094
  4514G12c C00883733  11.476   1.566  12.211 -0.8842  0.1636  0.1735
  4514G12c H01383734  11.567   1.541  12.264  0.8976  3.7635 -1.0452
  4514G12c C00783735  11.453   1.512  12.079  0.2828  0.1139 -1.3683
  4514G12c H01483736  11.535   1.458  12.034 -2.8976 -0.9182 -6.3320
  4514G12c C00683737  11.330   1.522  12.010  0.6491 -0.4232 -0.0398
  4514G12c C00583738  11.236   1.594  12.088  0.7248  0.5365 -0.4656
  4514G12c C00483739  11.124   1.655  12.040 -1.2325  0.5786  0.9673
  4514G12c C00383740  11.033   1.737  12.122  0.5371  0.6797  0.8608
  4514G12c C00283741  10.928   1.791  12.059 -1.0107  0.2102 -0.0312
  4514G12c C00183742  10.810   1.841  12.112 -0.1003 -1.2275 -0.5178
  4514G12c C00M83743  10.806   1.947  12.208 -0.6555  0.4729 -0.8795
  4514G12c C00L83744  10.864   1.910  12.325  0.6222 -0.4643 -0.2140
  4514G12c C00R83745  10.877   2.022  12.427 -0.6371  1.7384  0.5356
  4514G12c C00Q83746  10.848   2.159  12.416  1.2533 -0.9154 -0.3565
  4514G12c C00V83747  10.919   2.221  12.528 -0.3979 -0.5054  0.0096
  4514G12c C00U83748  11.023   2.161  12.610  0.3643  0.9138 -0.0546
  4514G12c C00T83749  11.056   2.028  12.603 -0.8979  0.3611  1.3770
  4514G12c C01683750  11.182   1.984  12.636 -0.3031 -0.4388  0.0234
  4514G12c C01583751  11.271   2.070  12.714  0.6946  1.1930  0.2670
  4514G12c C01083752  11.239   2.196  12.746  0.0672  0.7577 -1.2609
  4514G12c C01183753  11.297   2.264  12.844 -0.7902  0.4750 -0.1796
  4514G12c H00583754  11.255   2.327  12.920 -3.6143 -0.3163 -1.0144
  4514G12c C01283755  11.421   2.222  12.895  0.4761 -0.0663  0.2943
  4514G12c C01783756  11.497   2.295  12.983 -1.4098 -0.5814 -0.2963
  4514G12c O00283757  11.526   2.257  13.106  0.5518  0.0939 -0.1578
  4514G12c H00483758  11.468   2.187  13.132 -0.5804  1.6825  1.8011
  4514G12c C01883759  11.569   2.396  12.943  0.4605 -0.5753 -0.5419
  4514G12c O00183760  11.586   2.428  12.799  0.1428  0.2040  0.2803
  4514G12c H00383761  11.675   2.458  12.784  2.3238 -3.8465  3.7524
  4514G12c C01983762  11.682   2.446  13.035  1.3047 -0.3430 -0.5705
  4514G12c H00283763  11.637   2.541  13.065 -1.3312 -1.7705  0.1745
  4514G12c H00183764  11.695   2.387  13.126  2.4310 -1.2196 -1.2804
  4514G12c O00083765  11.806   2.480  12.974 -1.6423  0.2368  0.4993
  4514G12c C01A83766  11.923   2.512  13.043 -1.4346  1.1377 -0.2902
  4514G12c C02K83767  12.045   2.531  12.956 -0.7707  0.4363  2.3336
  4514G12c O00G83768  12.033   2.458  12.828 -0.5972 -0.0178  0.2272
  4514G12c C02M83769  12.137   2.491  12.730  0.0399 -0.5567  1.1122
  4514G12c H01G83770  12.232   2.460  12.774  0.3051  0.1415  1.0388
  4514G12c H01F83771  12.126   2.456  12.628  0.1713  2.5151 -0.0108
  4514G12c H01E83772  12.162   2.596  12.741  2.0762 -1.0255  1.2108
  4514G12c C02J83773  12.170   2.586  13.003 -0.7410 -0.0598  0.2719
  4514G12c H01H83774  12.268   2.588  12.958 -0.6261 -6.0850 -0.1175
  4514G12c C02I83775  12.167   2.612  13.140  0.1576  0.8830  0.0145
  4514G12c C02N83776  12.300   2.644  13.208 -0.6004 -0.4136 -1.1621
  4514G12c H01M83777  12.365   2.712  13.154  0.0976 -2.1095 -2.5360
  4514G12c C02O83778  12.337   2.612  13.334 -0.5292 -0.1044  0.3918
  4514G12c H01L83779  12.270   2.546  13.389  1.4173 -0.5506  2.3029
  4514G12c C02P83780  12.456   2.682  13.391  0.2988 -0.2219 -0.0011
  4514G12c H01K83781  12.526   2.619  13.445 -1.8849 -3.7177 -1.0908
  4514G12c H01J83782  12.519   2.654  13.307 -0.4789  2.1502 -1.4250
  4514G12c O00H83783  12.447   2.829  13.373  2.3085  0.2368  0.7525
  4514G12c H01I83784  12.416   2.864  13.291 -5.5078 -2.1354  2.3073
  4514G12c C02H83785  12.052   2.597  13.224  1.3393  0.4133  0.0208
  4514G12c H01C83786  12.052   2.627  13.328 -3.9583 -2.7459  1.0925
  4514G12c C02L83787  11.924   2.573  13.167 -0.0226  0.6971 -0.1270
  4514G12c H01D83788  11.823   2.603  13.193 -1.1301  0.7818 -4.2685
  4514G12c C01383789  11.457   2.088  12.841 -1.9261  0.4257 -0.2683
  4514G12c H00083790  11.552   2.050  12.876 -2.8478 -0.2523  1.5405
  4514G12c C01483791  11.390   2.010  12.746 -0.3306 -0.2266 -0.0042
  4514G12c C00F83792  11.453   1.912  12.664 -2.5696  0.0835  1.6379
  4514G12c C00H83793  11.226   1.867  12.590 -0.0376  0.8837 -0.1279
  4514G12c C00I83794  11.145   1.786  12.507  1.2350  0.8387 -0.7768
  4514G12c C00J83795  11.009   1.829  12.482 -0.0237  1.2393  0.4044
  4514G12c C00Z83796  11.114   2.244  12.691  0.6533  0.5669  0.2341
  4514G12c C00Y83797  11.071   2.365  12.751  0.3967  0.7103 -0.2234
  4514G12c H00683798  11.145   2.422  12.805  2.7854 -0.5631 -2.0415
  4514G12c C00X83799  10.944   2.412  12.684 -0.3679 -2.0706 -0.7660
  4514G12c O00383800  10.913   2.552  12.706 -0.9348 -1.1353  1.7841
  4514G12c C01B83801  11.023   2.631  12.684  0.6946  0.4372 -0.6663
  4514G12c H00983802  11.082   2.632  12.593  6.4700 -0.0395  2.8146
  4514G12c H00883803  11.098   2.631  12.764  2.7127  0.7479 -2.5044
  4514G12c H00783804  10.980   2.726  12.654 -1.8035  1.8607  6.3316
  4514G12c C00W83805  10.895   2.353  12.568  0.1455 -0.9000  0.7909
  4514G12c O00483806  10.817   2.428  12.485  0.1256  0.4353 -1.0387
  4514G12c C01C83807  10.742   2.375  12.385  0.8648 -0.3112  1.5191
  4514G12c H00A83808  10.680   2.446  12.332  4.3288  4.6899  3.6698
  4514G12c C00P83809  10.765   2.244  12.338 -0.2094  1.0284 -1.8056
  4514G12c C00O83810  10.722   2.201  12.207 -1.2717  0.5594 -0.7529
  4514G12c C01D83811  10.707   2.309  12.106 -0.8241  0.8732  1.4385
  4514G12c H00S83812  10.711   2.414  12.129  7.3353  1.1651  0.2534
  4514G12c C01E83813  10.739   2.279  11.964  0.5128 -1.7127 -0.2965
  4514G12c O00883814  10.732   2.359  11.849 -1.8001 -0.4156  0.0528
  4514G12c C01V83815  10.797   2.471  11.857 -0.9083  0.8666  1.7279
  4514G12c C01Z83816  10.718   2.607  11.821  1.5610  1.4117 -1.0254
  4514G12c H00R83817  10.611   2.591  11.833  1.1924  4.3239 -0.1748
  4514G12c H00Q83818  10.772   2.678  11.884 -1.4516  3.2761 -0.4265
  4514G12c O00983819  10.717   2.635  11.679 -0.9723 -0.1932 -0.1948
  4514G12c H00P83820  10.639   2.689  11.670 -1.8789 -0.3713  4.8263
  4514G12c C01W83821  10.933   2.465  11.872 -1.2952  0.0646 -2.5209
  4514G12c H00O83822  10.984   2.374  11.898  2.0730  0.6666 -6.4516
  4514G12c C01X83823  11.011   2.586  11.908  2.2778 -0.1490  0.5516
  4514G12c H00N83824  11.096   2.617  11.847 -0.7077  5.3530 -1.1928
  4514G12c H00M83825  10.982   2.688  11.937  0.0512 -0.5285 -0.2577
  4514G12c C01Y83826  11.065   2.575  12.050 -1.0985  0.5432 -0.3459
  4514G12c C02D83827  11.040   2.676  12.150 -0.0564 -0.8990  0.2979
  4514G12c H01983828  10.966   2.750  12.123  2.0352  0.2870 -2.5190
  4514G12c C02C83829  11.103   2.677  12.264  0.5473 -0.1238  0.1956
  4514G12c H01A83830  11.090   2.753  12.339 -1.7549  1.0223 -1.2973
  4514G12c C02B83831  11.204   2.589  12.318 -1.0938  0.0611 -0.7795
  4514G12c O00E83832  11.280   2.614  12.437  0.2843 -0.8449  0.4258
  4514G12c H01B83833  11.374   2.624  12.435  0.4509 -2.1021  1.1626
  4514G12c C02F83834  11.224   2.463  12.222 -0.3691  0.1634  0.8453
  4514G12c O00F83835  11.327   2.384  12.250 -0.0331  1.5230  0.8245
  4514G12c C02G83836  11.255   2.260  12.283 -0.6972  0.4403  1.2761
  4514G12c H01783837  11.294   2.213  12.373  3.2824 -0.8537 -1.0207
  4514G12c H01683838  11.248   2.189  12.201  2.5074  2.7455 -1.0905
  4514G12c H01583839  11.151   2.288  12.304  0.4215  3.1785  3.6459
  4514G12c C02E83840  11.164   2.476  12.079 -0.5126  1.7728  0.9464
  4514G12c H01883841  11.205   2.443  11.984  0.1484  3.2872  0.6719
  4514G12c C01F83842  10.753   2.150  11.931  0.7386 -0.6868  0.6930
  4514G12c C01G83843  10.783   2.104  11.800  0.9409  1.3279  0.2669
  4514G12c H00L83844  10.811   2.152  11.707 -1.7723  0.5842 -0.9976
  4514G12c C01H83845  10.793   1.965  11.772  0.7852 -0.3500 -1.5508
  4514G12c H00B83846  10.839   1.934  11.679  2.9706 -0.7800 -0.3595
  4514G12c C01I83847  10.808   1.858  11.879 -0.4679  0.7597  1.5041
  4514G12c C01U83848  10.739   2.039  12.020  1.2570 -0.5367 -1.3183
  4514G12c C00S83849  10.986   1.964  12.515 -0.6503  0.1212 -1.9806
  4514G12c C00K83850  10.958   1.815  12.350  1.4281 -0.1566  1.1415
  4514G12c C00N83851  10.754   2.075  12.155  1.6453  0.7363  0.1416
  4514G12c C00083852  10.762   1.903  11.997 -1.3428  0.4725  0.1482
  4514G12c C01J83853  10.907   1.779  11.918 -0.3426  0.3766  0.1360
  4514G12c C01K83854  10.985   1.689  11.836 -1.1278  0.0199  1.6483
  4514G12c C01P83855  10.969   1.643  11.696 -0.5667  0.8485 -0.1924
  4514G12c C01Q83856  10.835   1.685  11.620  0.0125 -1.2735 -0.9587
  4514G12c H00G83857  10.836   1.778  11.566  0.6636 -0.0497  1.1169
  4514G12c C01R83858  10.715   1.644  11.665 -1.8682  1.1014  1.7304
  4514G12c H00F83859  10.632   1.671  11.600  3.6652  3.2190 -5.1045
  4514G12c C01S83860  10.715   1.525  11.756 -0.7222  1.7606 -0.2368
  4514G12c H00E83861  10.768   1.532  11.850  5.1888 -0.3462 -3.2010
  4514G12c H00D83862  10.617   1.545  11.800 -0.3830 -2.0956  2.4521
  4514G12c O00583863  10.731   1.414  11.679  0.1240 -1.2747  0.9917
  4514G12c H00C83864  10.719   1.341  11.738 -5.2920 -1.3655 -0.0049
  4514G12c C01O83865  11.080   1.571  11.622  1.4539 -0.2185  0.7437
  4514G12c H00H83866  11.071   1.553  11.516  2.0527 -6.8235  1.6236
  4514G12c C01N83867  11.190   1.539  11.676  0.8869  0.2172  1.5281
  4514G12c O00683868  11.265   1.454  11.598  0.0081  1.3601 -0.3021
  4514G12c C01T83869  11.392   1.486  11.567 -0.7049 -0.8972  0.1431
  4514G12c H00K83870  11.438   1.546  11.646  1.4119  1.6173 -2.9050
  4514G12c H00J83871  11.417   1.552  11.484  1.6292 -0.6638  0.9906
  4514G12c H00I83872  11.478   1.418  11.570  2.3021  2.7809  0.5551
  4514G12c C01M83873  11.194   1.550  11.824  0.1621 -1.7805  0.5710
  4514G12c C02083874  11.028   1.735  12.266  0.1347  0.8529  0.7224
  4514G12c C02183875  11.131   1.651  12.310  1.6049 -0.3478  0.1013
  4514G12c C01L83876  11.102   1.640  11.907  0.5352  0.1246 -0.3700
  4514G12c O00783877  11.315   1.521  11.876 -1.7962  0.4986  0.6111
  4514G12c C02283878  11.231   1.607  12.229 -0.7781  1.7756 -0.0923
  4514G12c C02383879  11.194   1.682  12.438 -0.6934  1.5576 -0.4466
  4514G12c C00G83880  11.362   1.832  12.592 -0.2128 -0.3059  0.7868
  4514G12c C00E83881  11.588   1.886  12.680 -0.2106  0.1361 -0.2338
  4514G12c O00A83882  11.683   1.993  12.682 -0.8329  0.1071 -0.8463
  4514G12c C02483883  11.655   2.102  12.606 -0.4386 -4.0576  1.8162
  4514G12c H00V83884  11.687   2.206  12.606 -4.5756 -2.6427 -1.7496
  4514G12c H00U83885  11.560   2.156  12.609  0.4910 -1.2479 -6.4569
  4514G12c H00T83886  11.659   2.083  12.499  1.6648 -2.1934  1.5297
  4524G12c C00D83887   5.940  12.452   6.622 -0.1444 -0.8832 -0.9539
  4524G12c O00B83888   5.941  12.596   6.655  0.0115 -0.3127 -0.1894
  4524G12c C02583889   5.834  12.658   6.713  0.2390  0.9601  0.7221
  4524G12c C02683890   5.776  12.758   6.614  0.0069  0.8456 -0.5943
  4524G12c H00Y83891   5.749  12.839   6.682 -4.6664  0.0613 -1.3679
  4524G12c H00X83892   5.674  12.721   6.601 -3.0735  6.4736  4.7311
  4524G12c O00C83893   5.866  12.815   6.546 -0.3323  1.2201  0.7553
  4524G12c H00W83894   5.812  12.882   6.507  4.1670  2.1860 -4.4166
  4524G12c C02783895   5.802  12.645   6.853  1.8172  3.7932 -0.3156
  4524G12c O00D83896   5.879  12.566   6.934  1.5296  0.3704 -0.3993
  4524G12c H00Z83897   5.937  12.518   6.876  1.2033 -4.3030  2.9018
  4524G12c C02883898   5.675  12.673   6.907  1.2441 -0.7856  2.4014
  4524G12c C02983899   5.672  12.712   7.043 -0.8180 -1.1409  1.5768
  4524G12c H01083900   5.755  12.736   7.108 -0.6311 -4.9121  2.8483
  4524G12c C02T83901   5.538  12.743   7.084  0.3947  1.2564  0.0918
  4524G12c H01O83902   5.520  12.731   7.190  1.4035 -2.7456 -0.1146
  4524G12c C02S83903   5.418  12.728   6.998  0.4155  0.3356  0.0653
  4524G12c O00J83904   5.294  12.747   7.040 -0.3411 -0.2823 -3.0468
  4524G12c H01P83905   5.218  12.716   6.993 -2.0643 -5.3932  2.5130
  4524G12c C02R83906   5.432  12.697   6.864  0.5704 -1.5410  1.0453
  4524G12c O00I83907   5.309  12.673   6.800  1.3066  1.8510  1.4086
  4524G12c C02Q83908   5.294  12.538   6.778  0.9607  1.3338 -1.4696
  4524G12c H01N83909   5.202  12.530   6.720 -5.0584  3.6099  6.9332
  4524G12c H01R83910   5.364  12.479   6.719 -4.0494 -9.4614  1.9827
  4524G12c H01Q83911   5.242  12.501   6.866  2.4427 -4.1796 -2.6925
  4524G12c C02A83912   5.560  12.657   6.825 -0.6664 -0.5479  0.5977
  4524G12c H01183913   5.556  12.600   6.733  1.7049  0.3452 -0.1085
  4524G12c C00C83914   5.821  12.376   6.584 -0.2323 -0.6334  0.7099
  4524G12c H01283915   5.719  12.412   6.592 -1.3727 -4.1154  3.8063
  4524G12c C00B83916   5.841  12.247   6.557  0.6312  0.3763 -0.7515
  4524G12c C00A83917   5.728  12.163   6.530 -0.0158  0.7069  0.0987
  4524G12c C00983918   5.595  12.123   6.587 -0.1753 -1.0231 -0.7965
  4524G12c C00883919   5.529  12.173   6.714  0.1080  1.3078 -1.9629
  4524G12c H01383920   5.567  12.267   6.751  1.8990 -0.4908  1.0087
  4524G12c C00783921   5.438  12.092   6.784 -1.4305 -0.6416 -1.4671
  4524G12c H01483922   5.398  12.140   6.872  0.4199  2.5334 -2.2801
  4524G12c C00683923   5.442  11.951   6.758 -1.4534 -0.9099  1.1525
  4524G12c C00583924   5.488  11.919   6.623 -0.5354 -0.1377 -1.1142
  4524G12c C00483925   5.493  11.790   6.590  1.2725 -0.4602  1.1830
  4524G12c C00383926   5.583  11.744   6.492 -0.0990 -1.5611  1.3174
  4524G12c C00283927   5.566  11.599   6.464 -0.5859  0.7285 -0.7615
  4524G12c C00183928   5.635  11.519   6.370 -0.5707 -0.9870  1.8999
  4524G12c C00M83929   5.777  11.536   6.377  1.3097  1.8486 -0.1112
  4524G12c C00L83930   5.867  11.643   6.363 -0.7003  1.3935  0.3222
  4524G12c C00R83931   5.992  11.650   6.403  0.1757  0.2935 -1.5531
  4524G12c C00Q83932   6.051  11.567   6.505 -1.6580 -0.3464  0.5330
  4524G12c C00V83933   6.151  11.623   6.578  0.6394  0.4651 -1.8518
  4524G12c C00U83934   6.163  11.760   6.593  1.3774  0.4306  0.4970
  4524G12c C00T83935   6.089  11.846   6.526 -0.0491  2.2157  0.8879
  4524G12c C01683936   6.103  11.981   6.530  1.1256  0.4821 -1.6479
  4524G12c C01583937   6.205  12.040   6.613  0.4546 -0.6990  1.3180
  4524G12c C01083938   6.299  11.945   6.660  0.3253 -0.7493  0.2177
  4524G12c C01183939   6.414  12.001   6.715  0.3039 -1.4133 -0.1184
  4524G12c H00583940   6.501  11.938   6.711  1.9512  0.7025 -8.4105
  4524G12c C01283941   6.422  12.137   6.744  1.9220  0.5106  0.0239
  4524G12c C01783942   6.544  12.196   6.794  0.0450  0.2284 -1.2961
  4524G12c O00283943   6.593  12.290   6.701 -0.1906  0.9476  0.3670
  4524G12c H00483944   6.660  12.296   6.767 -0.5837 -2.4925  1.1638
  4524G12c C01883945   6.587  12.197   6.919  0.7615 -0.0259  1.6201
  4524G12c O00183946   6.691  12.291   6.939 -1.0161  0.2749 -0.6554
  4524G12c H00383947   6.681  12.327   7.026 -8.6817  3.0918 -2.2690
  4524G12c C01983948   6.507  12.140   7.039  0.7892 -0.3657 -0.4648
  4524G12c H00283949   6.401  12.115   7.033  0.7355  0.4926 -5.9084
  4524G12c H00183950   6.574  12.062   7.076 -1.5025 -0.1744  4.4673
  4524G12c O00083951   6.518  12.231   7.149  1.3251 -0.4263  0.0057
  4524G12c C01A83952   6.408  12.270   7.218 -1.7917  1.6065  0.8003
  4524G12c C02K83953   6.402  12.404   7.233  0.5254  0.0341  0.5842
  4524G12c O00G83954   6.508  12.491   7.199  1.0566 -0.4618 -0.1717
  4524G12c C02M83955   6.467  12.620   7.186  0.3230 -1.0770 -0.1577
  4524G12c H01G83956   6.525  12.652   7.100 -0.3339 -0.9156 -0.5343
  4524G12c H01F83957   6.442  12.668   7.281  4.2135 -1.3680  1.1075
  4524G12c H01E83958   6.365  12.614   7.151  0.5400 -2.1075 -0.6483
  4524G12c C02J83959   6.323  12.434   7.344 -0.9626 -0.4260  0.4389
  4524G12c H01H83960   6.345  12.528   7.394 -2.7422  0.1800  0.1003
  4524G12c C02I83961   6.225  12.357   7.393 -0.0825 -0.4241  0.7288
  4524G12c C02N83962   6.129  12.437   7.462 -0.4544 -0.1044 -0.0990
  4524G12c H01M83963   6.029  12.405   7.437  0.2492 -3.6378  1.3041
  4524G12c C02O83964   6.132  12.540   7.547 -0.4626  0.4214 -0.2740
  4524G12c H01L83965   6.220  12.581   7.595  0.2312  1.8420 -2.6647
  4524G12c C02P83966   6.003  12.593   7.614 -1.3633  1.1276  0.3125
  4524G12c H01K83967   6.019  12.700   7.625 -4.8461  1.2884  5.9717
  4524G12c H01J83968   5.919  12.556   7.554 -3.7764  0.1118  4.1462
  4524G12c O00H83969   6.022  12.575   7.762 -0.2229  1.2277  0.9167
  4524G12c H01I83970   5.937  12.597   7.795  0.3226 -1.7341  4.6036
  4524G12c C02H83971   6.241  12.228   7.395 -0.4187  1.5565  0.4805
  4524G12c H01C83972   6.221  12.176   7.487 -4.4441  4.1574  1.1954
  4524G12c C02L83973   6.339  12.172   7.313 -1.3755 -0.7051  0.6773
  4524G12c H01D83974   6.386  12.087   7.359  1.9054  2.5855  3.7080
  4524G12c C01383975   6.306  12.229   6.728 -1.0081 -1.3762  0.6500
  4524G12c H00083976   6.336  12.331   6.750  2.5814 -2.1562 -0.2823
  4524G12c C01483977   6.205  12.175   6.657  1.2652  0.2686  0.7171
  4524G12c C00F83978   6.081  12.248   6.619  0.7367 -1.6727  0.9099
  4524G12c C00H83979   5.989  12.056   6.488 -1.3499  0.2234 -0.1098
  4524G12c C00I83980   5.882  11.988   6.449 -2.3136  1.2816  0.1300
  4524G12c C00J83981   5.909  11.866   6.374 -0.1574  0.4504 -1.3660
  4524G12c C00Z83982   6.276  11.807   6.651 -0.5129  1.2459 -0.6705
  4524G12c C00Y83983   6.372  11.718   6.711 -0.1636 -1.3445 -0.3097
  4524G12c H00683984   6.457  11.752   6.769 -2.1454  0.1458  1.8159
  4524G12c C00X83985   6.361  11.588   6.717 -0.4981  0.6401 -0.8118
  4524G12c O00383986   6.457  11.495   6.759 -0.5911  0.5145 -2.0466
  4524G12c C01B83987   6.537  11.520   6.896  0.2592 -0.9055 -0.2717
  4524G12c H00983988   6.483  11.513   6.990 -1.1341 -1.3767 -1.0964
  4524G12c H00883989   6.590  11.616   6.888  0.3735 -1.1292 -2.6844
  4524G12c H00783990   6.609  11.439   6.895 -2.7436 -3.6473 -0.1986
  4524G12c C00W83991   6.247  11.539   6.665  1.7055  0.4520  0.1408
  4524G12c O00483992   6.202  11.431   6.710  0.3459  0.3558 -0.4076
  4524G12c C01C83993   6.140  11.356   6.611 -1.2458  0.5706 -3.5069
  4524G12c H00A83994   6.193  11.271   6.569 -0.3461  0.4123 -2.0893
  4524G12c C00P83995   6.039  11.431   6.543  0.8648  0.5719 -0.2068
  4524G12c C00O83996   5.914  11.356   6.515  1.9453  0.7847  0.6281
  4524G12c C01D83997   5.905  11.217   6.539  0.0709 -1.4647  1.0610
  4524G12c H00S83998   5.995  11.158   6.552 -0.2383 -1.6572  2.3201
  4524G12c C01E83999   5.785  11.139   6.539 -0.7947 -0.2328  0.4506
  4524G12c O00884000   5.794  11.022   6.601 -0.3916 -0.9848 -1.1248
  4524G12c C01V84001   5.804  11.012   6.736 -0.2656  0.7067  0.4913
  4524G12c C01Z84002   5.839  10.873   6.765 -0.1704 -0.4072 -1.7039
  4524G12c H00R84003   5.793  10.816   6.684 -4.1158 -0.4258  0.4011
  4524G12c H00Q84004   5.945  10.854   6.780  0.0569  1.3983 -0.9051
  4524G12c O00984005   5.780  10.824   6.891  0.0014  0.1538  1.9452
  4524G12c H00P84006   5.688  10.846   6.884 -0.0511 -0.5784  0.1297
  4524G12c C01W84007   5.778  11.127   6.820 -1.3679  1.3967 -0.6712
  4524G12c H00O84008   5.776  11.233   6.799 -0.3849  1.8561  1.4552
  4524G12c C01X84009   5.743  11.129   6.967  2.1275  0.3111  0.5181
  4524G12c H00N84010   5.651  11.182   6.987 -4.6053 -7.7723 -5.2779
  4524G12c H00M84011   5.722  11.038   7.023 -0.2954  4.4551  6.8276
  4524G12c C01Y84012   5.850  11.212   7.022 -0.6943 -2.2662 -0.3939
  4524G12c C02D84013   5.952  11.140   7.088  1.5904 -0.1647 -0.0693
  4524G12c H01984014   5.974  11.034   7.082  1.5806 -0.3265  2.1580
  4524G12c C02C84015   6.030  11.219   7.172 -1.6121 -0.1341  0.0258
  4524G12c H01A84016   6.112  11.171   7.224 -0.2761  1.3645 -0.6313
  4524G12c C02B84017   6.023  11.365   7.189  2.0234  0.6809 -0.6193
  4524G12c O00E84018   6.095  11.437   7.279 -1.4988  0.4083 -1.6900
  4524G12c H01B84019   6.036  11.510   7.282  3.1763  4.5007 -2.6626
  4524G12c C02F84020   5.908  11.430   7.123  1.4114  0.5713 -0.0697
  4524G12c O00F84021   5.869  11.549   7.160 -0.1626 -0.3202  0.4958
  4524G12c C02G84022   5.819  11.633   7.065 -0.7194 -0.0262 -0.5043
  4524G12c H01784023   5.832  11.588   6.967 -0.0412 -1.7019  0.3473
  4524G12c H01684024   5.710  11.632   7.073 -0.4913 -3.0276  3.4104
  4524G12c H01584025   5.824  11.739   7.090 -0.4509  0.6653 -3.3504
  4524G12c C02E84026   5.815  11.337   7.055  1.1751  0.3293 -0.0415
  4524G12c H01884027   5.731  11.387   7.011  0.0756  0.4547  2.1304
  4524G12c C01F84028   5.681  11.202   6.505  1.0627  1.1409  1.0026
  4524G12c C01G84029   5.548  11.163   6.549 -1.1986 -0.3604 -0.8781
  4524G12c H00L84030   5.549  11.064   6.593 -2.8573  1.3016  3.1825
  4524G12c C01H84031   5.439  11.244   6.520  0.3981 -0.7681  0.0687
  4524G12c H00B84032   5.350  11.203   6.563 -1.0640 -3.8307 -5.4226
  4524G12c C01I84033   5.468  11.376   6.466 -0.3415 -0.1349 -0.3380
  4524G12c C01U84034   5.685  11.327   6.433  0.8285  0.8854 -1.5257
  4524G12c C00S84035   6.012  11.794   6.412 -1.7835  0.4117 -0.4468
  4524G12c C00K84036   5.798  11.765   6.362 -1.3645 -0.0038 -0.3662
  4524G12c C00N84037   5.802  11.410   6.446  0.3020  1.4738 -0.2026
  4524G12c C00084038   5.577  11.386   6.375 -0.2531  0.1238 -0.8778
  4524G12c C01J84039   5.463  11.518   6.518  0.0621 -2.2519 -1.3621
  4524G12c C01K84040   5.372  11.566   6.623  0.0494 -0.2449  0.8544
  4524G12c C01P84041   5.254  11.507   6.683  1.1307 -0.8901 -0.4264
  4524G12c C01Q84042   5.216  11.369   6.675 -1.2382 -2.0543  0.1040
  4524G12c H00G84043   5.223  11.297   6.755  2.7701  3.0163  4.6667
  4524G12c C01R84044   5.135  11.325   6.584 -0.3720 -0.7307  0.2881
  4524G12c H00F84045   5.120  11.378   6.490 -7.5964  0.5472  1.8897
  4524G12c C01S84046   5.082  11.183   6.588  0.5944 -0.5745 -1.3323
  4524G12c H00E84047   5.066  11.172   6.480  1.2416 -2.4626 -1.2498
  4524G12c H00D84048   5.141  11.096   6.615 -0.9551 -1.6171 -1.2151
  4524G12c O00584049   4.962  11.150   6.632 -0.5172 -0.8249 -0.2484
  4524G12c H00C84050   4.948  11.191   6.716  6.6968  6.2558 -1.9867
  4524G12c C01O84051   5.182  11.575   6.767 -0.8953 -0.8265 -0.2617
  4524G12c H00H84052   5.083  11.539   6.792 -0.6402 -1.5610 -0.3068
  4524G12c C01N84053   5.233  11.683   6.839 -0.4985  0.1267 -0.7124
  4524G12c O00684054   5.165  11.732   6.944 -0.6105 -0.2300  0.7763
  4524G12c C01T84055   5.024  11.708   6.967  1.2645  1.0359  0.7764
  4524G12c H00K84056   4.996  11.712   7.072 -2.7834 -0.1591 -0.1504
  4524G12c H00J84057   4.986  11.613   6.929 -0.8850  1.0868  2.6785
  4524G12c H00I84058   4.975  11.779   6.900 -2.2431 -0.8112  1.2467
  4524G12c C01M84059   5.347  11.748   6.777  0.5529  0.3671  0.6303
  4524G12c C02084060   5.674  11.826   6.417  1.1998  0.0921 -0.1043
  4524G12c C02184061   5.647  11.960   6.436  1.0695  0.0970  0.9410
  4524G12c C01L84062   5.407  11.697   6.655 -1.3869  0.0416 -1.1278
  4524G12c O00784063   5.366  11.870   6.828  0.4655 -0.3053  0.0589
  4524G12c C02284064   5.553  12.003   6.532  0.2998  2.1456  0.0250
  4524G12c C02384065   5.754  12.056   6.457 -0.4071  1.6406  0.8427
  4524G12c C00G84066   5.964  12.183   6.554 -0.9031 -0.9190 -1.9453
  4524G12c C00E84067   6.070  12.393   6.627  0.9625 -0.8768 -2.2869
  4524G12c O00A84068   6.181  12.462   6.648  1.5416  0.9030  0.7546
  4524G12c C02484069   6.252  12.524   6.543 -0.9654  0.3648 -0.8626
  4524G12c H00V84070   6.322  12.453   6.500 -3.4195 -6.7469  5.7039
  4524G12c H00U84071   6.311  12.610   6.576 -3.2051  0.0397  4.6380
  4524G12c H00T84072   6.199  12.551   6.452 -2.6002  0.0513 -0.0230
  4534G12c C00D84073  11.798   3.654   5.380  0.5641 -1.0369  0.0846
  4534G12c O00B84074  11.860   3.525   5.413 -0.4722 -1.0495  0.4156
  4534G12c C02584075  11.992   3.547   5.434 -0.6274 -0.2611  0.8273
  4534G12c C02684076  12.045   3.631   5.556  1.6590  0.9012 -0.4997
  4534G12c H00Y84077  11.984   3.697   5.617 -5.1148 -5.7661  0.6835
  4534G12c H00X84078  12.118   3.699   5.512 -6.9107  7.2154 -6.6281
  4534G12c O00C84079  12.080   3.546   5.671 -0.3819 -1.0841 -1.0274
  4534G12c H00W84080  12.008   3.566   5.729 -3.9852 -3.4112 -4.4411
  4534G12c C02784081  12.067   3.502   5.339 -1.4939  0.3231  0.2677
  4534G12c O00D84082  12.020   3.437   5.229 -0.1145 -0.0862  0.0054
  4534G12c H00Z84083  11.937   3.423   5.273 -2.8440  3.8158 -3.4558
  4534G12c C02884084  12.223   3.537   5.321  2.2106 -0.9451 -1.6347
  4534G12c C02984085  12.303   3.578   5.447 -0.4746  0.4506  0.1208
  4534G12c H01084086  12.265   3.552   5.544 -0.7469  5.1443  1.3594
  4534G12c C02T84087  12.431   3.594   5.445 -0.2155 -0.7542 -0.1762
  4534G12c H01O84088  12.477   3.589   5.542 -4.4114  1.8126  2.1294
  4534G12c C02S84089  12.497   3.561   5.342  0.2804 -0.8527  1.1236
  4534G12c O00J84090  12.628   3.549   5.375 -0.0204  1.0100  0.9224
  4534G12c H01P84091  12.684   3.551   5.299 -0.9630 -4.4409 -0.1024
  4534G12c C02R84092  12.443   3.528   5.207 -1.0729  0.1175 -1.3639
  4534G12c O00I84093  12.539   3.551   5.105  0.1154 -0.3943 -1.5325
  4534G12c C02Q84094  12.550   3.685   5.050 -0.9894 -0.4992  0.6658
  4534G12c H01N84095  12.470   3.720   4.986  3.5601  7.7067 -1.1480
  4534G12c H01R84096  12.575   3.760   5.124  0.6108  2.4164 -2.6846
  4534G12c H01Q84097  12.625   3.649   4.979 -2.0740  2.1824 -1.9436
  4534G12c C02A84098  12.301   3.511   5.204 -1.0242 -0.8587 -0.8168
  4534G12c H01184099  12.269   3.466   5.111  2.4992 -1.0273 -2.0452
  4534G12c C00C84100  11.852   3.756   5.305  0.7370 -0.9687  0.0367
  4534G12c H01284101  11.953   3.724   5.283  2.4038  5.2995 -2.4739
  4534G12c C00B84102  11.804   3.879   5.273  1.3693  1.4086 -1.1687
  4534G12c C00A84103  11.858   4.002   5.224 -2.0049  0.9787 -1.0417
  4534G12c C00984104  12.000   4.061   5.216 -2.5758 -0.6982  0.2182
  4534G12c C00884105  12.111   4.040   5.310  0.1868 -0.8402 -0.6039
  4534G12c H01384106  12.144   3.940   5.329  4.9438  0.6921 -0.1359
  4534G12c C00784107  12.190   4.150   5.348 -1.3026  0.5890  2.2890
  4534G12c H01484108  12.265   4.094   5.401 -1.1569  0.7842  2.2916
  4534G12c C00684109  12.183   4.269   5.288 -0.4128  0.5836 -1.1932
  4534G12c C00584110  12.067   4.304   5.213 -0.8200  0.7388  0.3647
  4534G12c C00484111  12.037   4.433   5.183  0.1119 -1.3368  0.1112
  4534G12c C00384112  11.904   4.452   5.123 -1.6498 -0.7265 -0.6734
  4534G12c C00284113  11.871   4.592   5.126 -0.5594  0.0805 -0.1622
  4534G12c C00184114  11.749   4.657   5.101  0.6068  0.6894  1.1151
  4534G12c C00M84115  11.633   4.601   5.160 -0.4643 -1.4143 -1.2129
  4534G12c C00L84116  11.573   4.480   5.139  0.6850  0.6547 -0.2937
  4534G12c C00R84117  11.483   4.426   5.233  0.5758 -0.2884  1.7889
  4534G12c C00Q84118  11.380   4.494   5.324 -0.8650  1.2709 -0.2877
  4534G12c C00V84119  11.304   4.391   5.397  0.1331  0.3983 -0.5035
  4534G12c C00U84120  11.340   4.262   5.417  0.6672  1.1707  0.7710
  4534G12c C00T84121  11.448   4.215   5.343  0.8771 -0.4517  1.1895
  4534G12c C01684122  11.508   4.095   5.371 -0.8399  0.7435 -0.4689
  4534G12c C01584123  11.449   4.006   5.467  0.3453  0.1794  0.0223
  4534G12c C01084124  11.327   4.047   5.534  0.9737 -1.9799 -0.1646
  4534G12c C01184125  11.269   3.957   5.618  0.2608 -0.7308  1.3187
  4534G12c H00584126  11.201   4.010   5.682 -3.4488 -3.0763 -0.5061
  4534G12c C01284127  11.291   3.818   5.637 -0.5881  2.1946  0.9405
  4534G12c C01784128  11.215   3.758   5.747  0.2176  1.9976 -0.9789
  4534G12c O00284129  11.132   3.813   5.840  0.0426 -0.8918 -1.5631
  4534G12c H00484130  11.115   3.763   5.918 -0.5085  0.1784 -0.9792
  4534G12c C01884131  11.254   3.636   5.811  0.0346  0.3420  0.8198
  4534G12c O00184132  11.295   3.545   5.713 -1.0942 -0.6956 -0.0486
  4534G12c H00384133  11.296   3.583   5.627  1.5461 -0.2129  0.1813
  4534G12c C01984134  11.188   3.566   5.936 -0.4766  1.5150  0.1356
  4534G12c H00284135  11.120   3.501   5.882  1.8177 -1.6577  0.9201
  4534G12c H00184136  11.274   3.501   5.954 -0.2685  1.5085 -0.8484
  4534G12c O00084137  11.135   3.635   6.053 -0.9798  0.2272  2.1936
  4534G12c C01A84138  11.238   3.644   6.146  0.5950 -0.5835 -0.1728
  4534G12c C02K84139  11.319   3.770   6.141  0.4606 -0.8106  1.4080
  4534G12c O00G84140  11.289   3.887   6.064  0.7812  0.3040  0.2566
  4534G12c C02M84141  11.357   4.001   6.051  0.0036 -1.1229  0.6659
  4534G12c H01G84142  11.341   4.040   5.951 -0.0845 -3.4683 -0.2703
  4534G12c H01F84143  11.462   4.002   6.080  0.3336  8.5809  0.6115
  4534G12c H01E84144  11.313   4.094   6.088  1.0521  2.6502 -6.6483
  4534G12c C02J84145  11.432   3.755   6.211 -1.6291 -1.6758 -0.4388
  4534G12c H01H84146  11.505   3.836   6.209  2.6965 -5.3920 -0.5824
  4534G12c C02I84147  11.446   3.681   6.336 -0.3509 -1.5021 -0.1414
  4534G12c C02N84148  11.570   3.683   6.407 -1.9597  0.2752  0.6162
  4534G12c H01M84149  11.640   3.601   6.416 -0.3092  2.0528  7.2261
  4534G12c C02O84150  11.613   3.787   6.474  0.3635 -0.9642 -0.3655
  4534G12c H01L84151  11.544   3.871   6.476 -0.7860 -1.8585  4.5681
  4534G12c C02P84152  11.751   3.790   6.541  0.7032  1.4588  0.7701
  4534G12c H01K84153  11.795   3.691   6.555 -7.2742 -1.8019  6.0672
  4534G12c H01J84154  11.822   3.852   6.486 -4.6013  8.0796  0.6688
  4534G12c O00H84155  11.779   3.800   6.689 -0.5244 -0.1764 -0.2285
  4534G12c H01I84156  11.818   3.714   6.684 -0.7583 -0.1812 -4.0492
  4534G12c C02H84157  11.361   3.575   6.332  0.4672 -1.6772 -1.2221
  4534G12c H01C84158  11.376   3.493   6.401  2.6554  0.8071  1.3876
  4534G12c C02L84159  11.255   3.556   6.244  1.0596 -1.3772 -0.6014
  4534G12c H01D84160  11.195   3.468   6.258 -1.1665 -0.1191 -1.9516
  4534G12c C01384161  11.420   3.794   5.584 -0.3523  0.2356  0.5706
  4534G12c H00084162  11.498   3.731   5.622  3.1942  0.7442 -5.1694
  4534G12c C01484163  11.491   3.870   5.477  0.1872  0.6484  0.7852
  4534G12c C00F84164  11.595   3.819   5.400 -0.1117 -1.6131 -0.0587
  4534G12c C00H84165  11.614   4.047   5.299 -0.7772  1.3916  1.3753
  4534G12c C00I84166  11.660   4.121   5.189 -1.2533 -3.1745 -0.0003
  4534G12c C00J84167  11.597   4.245   5.156 -1.9195 -0.5662  0.0413
  4534G12c C00Z84168  11.293   4.181   5.507  0.6905  1.6233  0.5946
  4534G12c C00Y84169  11.184   4.230   5.575  0.9122 -0.5756 -0.2174
  4534G12c H00684170  11.124   4.151   5.618 -0.7219  0.1824 -1.0661
  4534G12c C00X84171  11.130   4.357   5.570  0.3487 -2.2155 -0.2633
  4534G12c O00384172  11.013   4.391   5.649 -0.3501  0.6240  0.4138
  4534G12c C01B84173  10.903   4.408   5.562 -0.8487 -0.5994 -0.3262
  4534G12c H00984174  10.910   4.379   5.457 -4.2487  3.1988 -1.7250
  4534G12c H00884175  10.916   4.514   5.541  4.1413 -0.6946  1.5817
  4534G12c H00784176  10.809   4.370   5.602 -0.5869 -5.3854 -3.8504
  4534G12c C00W84177  11.180   4.440   5.468 -2.0143 -0.0422  0.3390
  4534G12c O00484178  11.143   4.573   5.450 -0.8487 -0.7621 -0.9285
  4534G12c C01C84179  11.237   4.665   5.403  0.8756 -1.3000  0.8245
  4534G12c H00A84180  11.216   4.740   5.328  2.9400  0.9174  2.3701
  4534G12c C00P84181  11.364   4.626   5.351  0.3738 -1.1836 -0.5154
  4534G12c C00O84182  11.469   4.718   5.344  0.9808  0.2395  1.0571
  4534G12c C01D84183  11.474   4.829   5.434 -0.8048  0.8697 -0.5141
  4534G12c H00S84184  11.387   4.851   5.494 -0.9134  3.9026 -1.6722
  4534G12c C01E84185  11.599   4.882   5.471  0.4447  1.1884 -0.7094
  4534G12c O00884186  11.609   4.969   5.584 -0.9540  0.7930  0.8499
  4534G12c C01V84187  11.699   4.946   5.684  0.0875 -2.3504  1.0936
  4534G12c C01Z84188  11.740   5.061   5.773 -0.6764 -0.2967  1.5471
  4534G12c H00R84189  11.795   5.149   5.739  0.3064  0.7340  5.5804
  4534G12c H00Q84190  11.760   5.056   5.880 -2.4017 -1.8774  1.8347
  4534G12c O00984191  11.643   5.158   5.749  0.5560  1.4607 -0.0277
  4534G12c H00P84192  11.581   5.125   5.686 -0.6349 -0.5619  2.1204
  4534G12c C01W84193  11.743   4.822   5.696  0.1362  0.0567 -0.9633
  4534G12c H00O84194  11.712   4.731   5.647 -4.2782 -0.8354  3.1464
  4534G12c C01X84195  11.838   4.776   5.804 -1.1113 -0.3949 -1.9574
  4534G12c H00N84196  11.882   4.860   5.858 -3.0156 -3.3626  4.7285
  4534G12c H00M84197  11.772   4.756   5.888  2.2134  1.2946  1.1920
  4534G12c C01Y84198  11.946   4.678   5.786 -0.3362  0.1841  0.3371
  4534G12c C02D84199  11.972   4.641   5.651 -0.1091 -0.6021 -1.1770
  4534G12c H01984200  11.920   4.679   5.564 -2.6312 -0.0558  0.4953
  4534G12c C02C84201  12.074   4.542   5.637 -0.9755 -0.1720 -0.7590
  4534G12c H01A84202  12.079   4.488   5.544  1.0317 -1.2693 -0.0350
  4534G12c C02B84203  12.133   4.480   5.744 -0.5922 -0.9457  1.2326
  4534G12c O00E84204  12.207   4.370   5.737  0.0600  0.4904  0.5639
  4534G12c H01B84205  12.184   4.367   5.828 -8.2717  4.0005 -1.0107
  4534G12c C02F84206  12.085   4.505   5.876 -0.9654 -0.4298  0.8267
  4534G12c O00F84207  12.153   4.434   5.980 -0.3274  1.3372  0.8917
  4534G12c C02G84208  12.153   4.469   6.115 -0.8125  1.1849  0.3904
  4534G12c H01784209  12.225   4.550   6.123  2.7775 -2.0611  2.1591
  4534G12c H01684210  12.233   4.414   6.164 -4.8478 -0.8524  5.0507
  4534G12c H01584211  12.080   4.462   6.195 -0.5292 -1.2310  0.4742
  4534G12c C02E84212  12.010   4.620   5.894  0.4226 -1.1109 -1.3159
  4534G12c H01884213  12.041   4.662   5.988  1.8422 -4.5605 -0.1366
  4534G12c C01F84214  11.703   4.874   5.376 -0.2567  1.5699  0.8427
  4534G12c C01G84215  11.832   4.940   5.388 -0.9666  1.4815 -0.4072
  4534G12c H00L84216  11.855   4.996   5.477 -4.7162-10.0600  9.2315
  4534G12c C01H84217  11.928   4.894   5.302  0.2928  0.3967  1.8596
  4534G12c H00B84218  12.010   4.961   5.324 -1.7762  1.9567  5.2505
  4534G12c C01I84219  11.908   4.815   5.183  0.0520 -1.8250 -0.0953
  4534G12c C01U84220  11.692   4.793   5.259  0.0148  0.5002  1.3761
  4534G12c C00S84221  11.501   4.287   5.244 -0.5802 -0.9785  0.3983
  4534G12c C00K84222  11.654   4.372   5.099 -1.3052 -0.3767  0.6798
  4534G12c C00N84223  11.592   4.697   5.265 -0.3659 -0.1336  0.0152
  4534G12c C00084224  11.771   4.787   5.151  0.6140 -0.3868  0.1865
  4534G12c C01J84225  11.971   4.701   5.137 -1.3710 -0.3464 -0.4919
  4534G12c C01K84226  12.097   4.670   5.191 -0.2224 -1.1392 -1.7257
  4534G12c C01P84227  12.198   4.772   5.206  0.4270 -2.3651  0.9283
  4534G12c C01Q84228  12.188   4.879   5.085 -1.1230  1.1397 -0.0301
  4534G12c H00G84229  12.185   4.856   4.979  3.4742 -3.3726  0.6100
  4534G12c C01R84230  12.187   5.017   5.108 -1.4049 -1.3143 -0.9362
  4534G12c H00F84231  12.160   5.049   5.207 -1.7254 -3.0525 -0.4527
  4534G12c C01S84232  12.152   5.133   5.019 -0.1733  1.0144 -0.2481
  4534G12c H00E84233  12.045   5.151   5.032 -0.0766 -1.2196  4.8064
  4534G12c H00D84234  12.202   5.220   5.061  3.5720 -2.0333  1.9317
  4534G12c O00584235  12.183   5.140   4.885  0.3203 -1.1478 -0.8345
  4534G12c H00C84236  12.121   5.081   4.846  4.4220 -3.9213 -3.5366
  4534G12c C01O84237  12.333   4.721   5.262  1.1727  0.0473  0.1631
  4534G12c H00H84238  12.407   4.798   5.281  1.2520  0.3035 -1.0870
  4534G12c C01N84239  12.338   4.588   5.304  0.0601  0.4224 -0.7666
  4534G12c O00684240  12.460   4.564   5.368 -0.1301  0.2816  2.0323
  4534G12c C01T84241  12.570   4.518   5.305 -0.1900 -1.3776  0.0770
  4534G12c H00K84242  12.547   4.473   5.208 -5.0236  6.0181 -2.7126
  4534G12c H00J84243  12.642   4.600   5.306  0.3175 -1.8406  2.4088
  4534G12c H00I84244  12.621   4.434   5.351 -2.7226 -3.5068 -0.8824
  4534G12c C01M84245  12.227   4.497   5.302  0.2242 -1.6929  0.1861
  4534G12c C02084246  11.796   4.348   5.101  0.4931 -0.6565  0.7522
  4534G12c C02184247  11.854   4.224   5.127 -0.1748  1.4159  1.2998
  4534G12c C01L84248  12.117   4.538   5.225  2.9250 -0.7359  1.4160
  4534G12c O00784249  12.259   4.365   5.323 -1.1150  0.3449 -0.4068
  4534G12c C02284250  11.971   4.206   5.185 -0.1301  1.4237 -0.4191
  4534G12c C02384251  11.780   4.099   5.160  0.6322  0.5757 -0.1091
  4534G12c C00G84252  11.671   3.911   5.317 -0.5126 -0.4153  0.9796
  4534G12c C00E84253  11.670   3.696   5.435 -1.7817  0.4887 -1.8035
  4534G12c O00A84254  11.636   3.622   5.535 -0.5362  0.9687  0.9491
  4534G12c C02484255  11.706   3.665   5.655 -1.1037  0.2678  0.4309
  4534G12c H00V84256  11.775   3.747   5.635  0.7517 -1.7195 -1.6414
  4534G12c H00U84257  11.650   3.707   5.739 -0.8958  3.9985 -1.2060
  4534G12c H00T84258  11.791   3.600   5.678  0.6100  1.7888 -1.4280
  4544G12c C00D84259   2.613   2.420   2.517 -0.7619 -0.4267 -0.8609
  4544G12c O00B84260   2.613   2.337   2.411 -0.1827  0.1665  1.1578
  4544G12c C02584261   2.727   2.298   2.329 -1.0395 -0.5497  1.8414
  4544G12c C02684262   2.766   2.179   2.402  0.4429  0.8743  0.1412
  4544G12c H00Y84263   2.772   2.210   2.506 -3.2101 -0.4104  0.7810
  4544G12c H00X84264   2.854   2.122   2.373 -4.1992 -5.2789 -2.9066
  4544G12c O00C84265   2.659   2.084   2.387 -0.0312 -0.2781  0.4030
  4544G12c H00W84266   2.579   2.123   2.419 -1.0708  2.2349 -4.6827
  4544G12c C02784267   2.771   2.350   2.215 -0.5766 -0.8359  0.1498
  4544G12c O00D84268   2.712   2.478   2.190  0.6673  0.1292 -0.4377
  4544G12c H00Z84269   2.731   2.493   2.281  1.6851 -1.7560 -0.3203
  4544G12c C02884270   2.885   2.297   2.147  0.4560 -0.3316  0.2130
  4544G12c C02984271   2.988   2.392   2.103 -1.8823 -1.8597 -1.3777
  4544G12c H01084272   2.958   2.488   2.142  1.3225  2.7005 -8.9119
  4544G12c C02T84273   3.079   2.351   2.006 -1.6185 -0.7390 -0.4154
  4544G12c H01O84274   3.153   2.413   1.956 -3.4863  1.2502 -0.8050
  4544G12c C02S84275   3.074   2.215   1.968  0.4891 -0.5727  0.5137
  4544G12c O00J84276   3.157   2.182   1.875 -0.0899 -1.0703  1.0239
  4544G12c H01P84277   3.128   2.094   1.858  4.9002 -3.5043  4.1013
  4544G12c C02R84278   2.988   2.115   2.014  1.2843 -0.4234  1.2414
  4544G12c O00I84279   2.960   1.992   1.978 -0.9418  0.5113  0.6530
  4544G12c C02Q84280   2.841   1.971   1.888  0.5724 -0.8808  0.2119
  4544G12c H01N84281   2.839   2.025   1.793 -3.3550  0.5281  1.0043
  4544G12c H01R84282   2.748   1.972   1.944  0.2509 -3.7751 -0.1674
  4544G12c H01Q84283   2.888   1.878   1.856  1.1054  0.1240 -2.0016
  4544G12c C02A84284   2.875   2.172   2.095 -1.3308 -1.3838 -0.1856
  4544G12c H01184285   2.813   2.086   2.115  1.2083 -3.5507 -1.2877
  4544G12c C00C84286   2.555   2.380   2.638 -0.8204 -1.1433 -0.6966
  4544G12c H01284287   2.546   2.275   2.663  0.3535 -2.2001 -4.3618
  4544G12c C00B84288   2.506   2.466   2.739  0.1942  0.5684 -0.8365
  4544G12c C00A84289   2.415   2.451   2.850 -2.4538  1.2260  0.4132
  4544G12c C00984290   2.299   2.365   2.826 -0.1295 -0.4758  0.9789
  4544G12c C00884291   2.259   2.254   2.746 -0.7907  1.9085  0.5046
  4544G12c H01384292   2.335   2.201   2.690 -6.7046 -5.4960 -1.3758
  4544G12c C00784293   2.121   2.201   2.749 -1.1047  0.8521 -0.9925
  4544G12c H01484294   2.111   2.110   2.692  1.6686 -1.4776  2.0440
  4544G12c C00684295   2.032   2.275   2.836  0.7123  0.8951 -0.5569
  4544G12c C00584296   2.079   2.374   2.923  0.0007 -0.9099  0.4245
  4544G12c C00484297   1.995   2.459   2.980 -1.1668 -0.1950  0.4686
  4544G12c C00384298   2.038   2.577   3.034  0.3363 -0.5564 -1.1570
  4544G12c C00284299   1.941   2.679   3.082 -1.0891 -0.5824 -0.0829
  4544G12c C00184300   1.951   2.808   3.145 -1.0058  1.0224 -0.6822
  4544G12c C00M84301   2.042   2.918   3.121 -0.5848 -0.3382  0.4127
  4544G12c C00L84302   2.176   2.886   3.062  0.0291  0.0931  1.4592
  4544G12c C00R84303   2.269   2.969   2.970  0.6026 -0.2062 -0.1424
  4544G12c C00Q84304   2.236   3.100   2.916 -1.9026 -1.0884 -1.0296
  4544G12c C00V84305   2.341   3.154   2.842  0.6629  1.2221 -1.0073
  4544G12c C00U84306   2.427   3.066   2.786 -1.3072  1.4047  0.1010
  4544G12c C00T84307   2.439   2.931   2.822 -1.0281 -0.4737 -0.1528
  4544G12c C01684308   2.522   2.832   2.777  0.1368  1.3058 -0.4050
  4544G12c C01584309   2.626   2.875   2.700  2.0013 -0.0995 -1.5424
  4544G12c C01084310   2.635   3.012   2.663  0.8512 -1.3561 -0.1745
  4544G12c C01184311   2.741   3.037   2.577 -0.3240 -1.1643  0.8858
  4544G12c H00584312   2.763   3.122   2.514  1.4072 -5.8409 -5.2001
  4544G12c C01284313   2.828   2.940   2.525  0.2831  1.0999  0.0796
  4544G12c C01784314   2.929   2.966   2.423 -1.6475 -0.4376 -0.6628
  4544G12c O00284315   2.942   2.890   2.305  1.0717  0.9950 -1.4867
  4544G12c H00484316   3.015   2.929   2.261  1.9194 -2.4745 -3.3686
  4544G12c C01884317   3.010   3.071   2.422 -0.1488 -0.0405 -0.4463
  4544G12c O00184318   3.008   3.155   2.533  0.3082  0.0162 -0.2130
  4544G12c H00384319   2.961   3.098   2.591  3.8807 -1.9913  0.8563
  4544G12c C01984320   3.120   3.105   2.322  1.7116  0.1291  0.2123
  4544G12c H00284321   3.069   3.144   2.234  0.7906 -2.1488 -0.2995
  4544G12c H00184322   3.177   3.187   2.365 -3.6929  0.7690  7.1175
  4544G12c O00084323   3.205   2.994   2.272 -0.1153 -1.4704 -0.3005
  4544G12c C01A84324   3.309   2.986   2.180 -0.5789 -0.3024 -0.6948
  4544G12c C02K84325   3.346   3.091   2.085  0.1409 -0.5098  1.2652
  4544G12c O00G84326   3.271   3.203   2.049  0.1982  0.1630  0.1571
  4544G12c C02M84327   3.313   3.324   2.125 -1.2572  0.3178  0.9795
  4544G12c H01G84328   3.261   3.311   2.220 -1.8297 -0.2258  0.5928
  4544G12c H01F84329   3.304   3.414   2.064 -1.2625 -2.0122 -2.5835
  4544G12c H01E84330   3.411   3.282   2.147 -1.4599 -3.4634 -4.4063
  4544G12c C02J84331   3.457   3.060   1.999  1.1627 -0.3744 -0.1189
  4544G12c H01H84332   3.451   3.142   1.929 -4.5560 -3.4480 -3.5958
  4544G12c C02I84333   3.550   2.948   2.021  3.0164 -1.4284 -0.4066
  4544G12c C02N84334   3.680   2.941   1.951 -1.1301  0.3457  0.0038
  4544G12c H01M84335   3.697   2.985   1.854 -1.3602 -0.2201 -0.2970
  4544G12c C02O84336   3.789   2.880   1.985  3.2176 -0.5789  1.1234
  4544G12c H01L84337   3.767   2.824   2.074  3.6351  0.2220  1.7320
  4544G12c C02P84338   3.931   2.898   1.929  0.0862 -0.9549 -1.3758
  4544G12c H01K84339   3.978   2.837   1.853 -1.2835  4.3561 -6.8584
  4544G12c H01J84340   3.925   2.979   1.856 -2.4074  0.3248  0.1922
  4544G12c O00H84341   3.994   2.959   2.034 -0.4138  0.8163  0.7166
  4544G12c H01I84342   3.947   2.927   2.109 -2.2903  4.9657  1.4751
  4544G12c C02H84343   3.482   2.837   2.100  0.1424  0.5604 -0.3796
  4544G12c H01C84344   3.508   2.735   2.079 -0.1569  1.1463 -4.0644
  4544G12c C02L84345   3.367   2.860   2.178 -0.3333  1.2490  0.5061
  4544G12c H01D84346   3.323   2.775   2.228  0.4271  1.4730  1.5670
  4544G12c C01384347   2.802   2.813   2.549  0.9358 -1.1117  0.2638
  4544G12c H00084348   2.863   2.735   2.507  6.9117  2.0548  2.5252
  4544G12c C01484349   2.689   2.777   2.618  0.3087 -0.4353  1.1634
  4544G12c C00F84350   2.639   2.645   2.633  1.0933  0.9380  0.1697
  4544G12c C00H84351   2.497   2.698   2.821  0.2678  0.1423 -0.1254
  4544G12c C00I84352   2.417   2.660   2.924 -1.0490  0.8872  0.9778
  4544G12c C00J84353   2.339   2.774   2.956 -0.4121 -0.0458 -1.1599
  4544G12c C00Z84354   2.542   3.113   2.718 -0.5888  0.5077  0.4961
  4544G12c C00Y84355   2.552   3.247   2.694  0.6452 -1.4304  0.3183
  4544G12c H00684356   2.654   3.282   2.685  0.8374 -2.8874 -5.4244
  4544G12c C00X84357   2.459   3.336   2.739 -0.9808  0.0713 -0.9072
  4544G12c O00384358   2.466   3.466   2.683  0.5000  0.0844  0.1795
  4544G12c C01B84359   2.494   3.569   2.766 -1.1213 -2.1196  0.6298
  4544G12c H00984360   2.400   3.609   2.802  0.0116  0.1976  1.1633
  4544G12c H00884361   2.531   3.659   2.716 -1.7501 -0.7185  2.6324
  4544G12c H00784362   2.554   3.536   2.851 -8.3002  2.0352  8.0418
  4544G12c C00W84363   2.354   3.286   2.818 -0.7989 -1.4476 -1.0794
  4544G12c O00484364   2.260   3.364   2.856  1.4263 -0.4300 -0.8773
  4544G12c C01C84365   2.143   3.328   2.920  0.2058  0.3908 -0.6952
  4544G12c H00A84366   2.112   3.393   3.001  7.2377  4.5135 -0.8804
  4544G12c C00P84367   2.116   3.185   2.934 -2.3786  0.1293 -1.0812
  4544G12c C00O84368   2.007   3.147   3.019 -0.1486  0.7610 -0.5050
  4544G12c C01D84369   1.898   3.249   2.998  1.3594 -1.1565 -1.6953
  4544G12c H00S84370   1.903   3.333   2.931 -6.1046  0.2739 -0.9126
  4544G12c C01E84371   1.756   3.203   3.015 -0.9451 -0.1511  0.0737
  4544G12c O00884372   1.649   3.275   2.979  0.8918  0.1809 -0.3041
  4544G12c C01V84373   1.637   3.391   3.051 -0.8522 -1.3248 -0.1429
  4544G12c C01Z84374   1.655   3.528   2.965  0.1779  0.2701  0.3848
  4544G12c H00R84375   1.560   3.578   2.951 -1.2028 -1.5160  3.0647
  4544G12c H00Q84376   1.732   3.586   3.016  0.7240 -1.4542  1.5912
  4544G12c O00984377   1.700   3.491   2.828  1.3539 -1.3841  0.3427
  4544G12c H00P84378   1.671   3.566   2.778  3.3104  1.2016  2.8605
  4544G12c C01W84379   1.658   3.384   3.186  0.8076  1.3963  0.7589
  4544G12c H00O84380   1.668   3.279   3.210  2.5202  0.1697 -4.6328
  4544G12c C01X84381   1.652   3.483   3.289 -0.7236 -0.6767  2.0693
  4544G12c H00N84382   1.656   3.584   3.249 -5.2802 -2.0887 -2.4627
  4544G12c H00M84383   1.544   3.486   3.301 -0.5303  2.6369  3.3073
  4544G12c C01Y84384   1.752   3.465   3.413 -1.8648  1.1213  0.6480
  4544G12c C02D84385   1.762   3.568   3.513  0.3093  0.7902 -1.4563
  4544G12c H01984386   1.745   3.673   3.532 -5.2792  0.0159 -1.4037
  4544G12c C02C84387   1.823   3.516   3.633  1.5743 -0.0186 -0.7537
  4544G12c H01A84388   1.817   3.569   3.727 -4.8481  3.1737 -2.7207
  4544G12c C02B84389   1.865   3.381   3.661 -0.8970 -1.6840  0.7286
  4544G12c O00E84390   1.907   3.311   3.779 -0.0487 -0.8563  0.6868
  4544G12c H01B84391   1.977   3.257   3.745  1.1223  0.9966  0.0242
  4544G12c C02F84392   1.789   3.295   3.591 -0.4014  1.3463 -0.4093
  4544G12c O00F84393   1.773   3.160   3.619 -0.9084 -0.5583  0.2456
  4544G12c C02G84394   1.885   3.084   3.614 -0.1936 -0.5108 -2.8233
  4544G12c H01784395   1.970   3.107   3.550  5.0218  2.2791  4.4746
  4544G12c H01684396   1.883   2.984   3.657 -0.1871 -1.0271 -3.9973
  4544G12c H01584397   1.966   3.118   3.678  0.4847  0.6771 -4.2829
  4544G12c C02E84398   1.737   3.330   3.464 -0.9365 -1.2765 -0.1585
  4544G12c H01884399   1.690   3.240   3.425  2.5462 -6.3162  6.3355
  4544G12c C01F84400   1.729   3.071   3.042 -1.3108 -0.9671  0.6311
  4544G12c C01G84401   1.591   3.007   3.034 -1.6707 -1.4055  0.2459
  4544G12c H00L84402   1.491   3.047   3.036 -0.9321  0.4832  0.2222
  4544G12c C01H84403   1.606   2.865   3.038 -0.0291  0.0352  1.0814
  4544G12c H00B84404   1.523   2.796   3.041 -0.3208  0.4422  4.2032
  4544G12c C01I84405   1.732   2.785   3.059  0.7064 -2.2669  0.2809
  4544G12c C01U84406   1.841   2.990   3.084 -0.7622  0.9157  0.0856
  4544G12c C00S84407   2.382   2.905   2.936 -1.2475  1.2824 -0.2093
  4544G12c C00K84408   2.221   2.751   3.037  1.0053 -1.9128  0.9542
  4544G12c C00N84409   1.973   3.039   3.090  0.8120  0.5812  0.0618
  4544G12c C00084410   1.820   2.863   3.142  0.9455  0.3118  0.4351
  4544G12c C01J84411   1.800   2.661   3.027 -0.7350  0.3073 -0.7831
  4544G12c C01K84412   1.761   2.555   2.947  0.9241 -0.1931  0.5973
  4544G12c C01P84413   1.642   2.552   2.867  0.9185  0.8473 -1.0465
  4544G12c C01Q84414   1.592   2.662   2.792 -0.2013 -1.6670  0.3388
  4544G12c H00G84415   1.664   2.706   2.725 -2.1485 -2.2279 -2.1626
  4544G12c C01R84416   1.465   2.680   2.796 -0.4939  1.8151  1.6299
  4544G12c H00F84417   1.406   2.613   2.857  5.0837 -2.1417  3.0942
  4544G12c C01S84418   1.385   2.734   2.679  0.9803  2.8455 -0.6378
  4544G12c H00E84419   1.313   2.653   2.678 -2.8474  5.4718  9.1656
  4544G12c H00D84420   1.339   2.831   2.663  1.2419  3.3779  1.7022
  4544G12c O00584421   1.460   2.748   2.548  0.1937  0.3269 -0.0885
  4544G12c H00C84422   1.454   2.691   2.474  0.2605 -3.6844  2.8506
  4544G12c C01O84423   1.588   2.420   2.840  0.2584  0.3419  0.1913
  4544G12c H00H84424   1.489   2.403   2.800 -0.4894  3.6829  0.4786
  4544G12c C01N84425   1.670   2.302   2.854  0.5304  0.3165  1.5434
  4544G12c O00684426   1.612   2.181   2.863  0.5113  1.2397  0.4273
  4544G12c C01T84427   1.630   2.095   2.739  0.8438  1.0457 -0.8138
  4544G12c H00K84428   1.524   2.089   2.716 -0.7571 -0.5401  5.8398
  4544G12c H00J84429   1.669   1.994   2.756 -0.2756  1.2303  3.5981
  4544G12c H00I84430   1.703   2.152   2.682  2.7685 -0.2451  0.2717
  4544G12c C01M84431   1.802   2.323   2.879  1.4493  0.8070  2.2079
  4544G12c C02084432   2.169   2.615   3.031 -0.3590 -0.4872 -0.2489
  4544G12c C02184433   2.270   2.510   3.003 -0.3830  2.0585 -0.3644
  4544G12c C01L84434   1.858   2.449   2.945 -1.5979 -0.3137  0.4546
  4544G12c O00784435   1.900   2.228   2.841  0.2652  1.7942  0.7213
  4544G12c C02284436   2.219   2.398   2.951 -1.3275 -0.3815  1.5843
  4544G12c C02384437   2.392   2.527   2.956  0.3726  0.0647  0.8174
  4544G12c C00G84438   2.554   2.604   2.739  0.1482 -0.5096  0.1935
  4544G12c C00E84439   2.652   2.559   2.519  0.6305  0.4276 -0.2570
  4544G12c O00A84440   2.649   2.612   2.403 -0.3104 -0.9375  0.2219
  4544G12c C02484441   2.534   2.664   2.348 -1.4101  0.2324  0.8542
  4544G12c H00V84442   2.472   2.647   2.437  1.1054  1.3867  2.9024
  4544G12c H00U84443   2.503   2.596   2.269 -1.9608 -2.4051  3.2365
  4544G12c H00T84444   2.551   2.767   2.318 -1.6043 -0.7074 -2.6464
  4554G12c C00D84445   9.120   5.205   4.093 -0.3653  2.2379 -0.1333
  4554G12c O00B84446   9.105   5.309   4.180 -1.1274 -0.7705  0.8010
  4554G12c C02584447   9.196   5.367   4.261 -1.1129 -1.7678 -1.1612
  4554G12c C02684448   9.252   5.493   4.199  0.2574 -0.8628  0.3702
  4554G12c H00Y84449   9.359   5.510   4.215  1.3151 -2.3690 -4.2643
  4554G12c H00X84450   9.218   5.582   4.251  1.3100 -0.4475  0.3790
  4554G12c O00C84451   9.267   5.464   4.059 -1.0045 -0.4922 -1.9760
  4554G12c H00W84452   9.195   5.412   4.027  1.5928 -5.6992  0.0354
  4554G12c C02784453   9.269   5.311   4.374  0.5946 -1.0516 -0.4187
  4554G12c O00D84454   9.263   5.194   4.434 -0.5291 -0.3661  0.3770
  4554G12c H00Z84455   9.332   5.168   4.494  0.5194  0.0168 -0.6439
  4554G12c C02884456   9.392   5.373   4.429 -0.1881 -3.7249  0.3116
  4554G12c C02984457   9.381   5.487   4.513  0.6949 -2.7911 -0.6533
  4554G12c H01084458   9.291   5.529   4.556 -0.5764 -4.1698 -1.9072
  4554G12c C02T84459   9.505   5.544   4.555  0.4761 -0.2387 -1.5098
  4554G12c H01O84460   9.517   5.615   4.635  2.3245 -1.6154 -0.5290
  4554G12c C02S84461   9.621   5.510   4.492  0.0280 -0.6289  0.4380
  4554G12c O00J84462   9.710   5.608   4.501 -1.0992  0.3365 -0.6379
  4554G12c H01P84463   9.730   5.641   4.587  2.6856 -2.2687 -0.4232
  4554G12c C02R84464   9.644   5.382   4.434  0.9461  0.0905  0.0946
  4554G12c O00I84465   9.773   5.344   4.430  0.5669  0.7338  0.3467
  4554G12c C02Q84466   9.805   5.216   4.401 -0.5679  2.1282 -0.3390
  4554G12c H01N84467   9.716   5.165   4.437  3.3830 -0.7729  6.2595
  4554G12c H01R84468   9.883   5.154   4.445 -2.0063  0.5434  0.0182
  4554G12c H01Q84469   9.807   5.213   4.292  2.0474 -3.2576 -0.2798
  4554G12c C02A84470   9.523   5.323   4.402 -2.1342  1.5431 -1.8765
  4554G12c H01184471   9.540   5.236   4.341 -1.1840 -0.1482  0.7310
  4554G12c C00C84472   9.234   5.108   4.079 -2.3135  0.2745  0.9387
  4554G12c H01284473   9.303   5.126   4.160 -2.0476 -1.1414  1.0428
  4554G12c C00B84474   9.202   4.988   3.992  0.4992 -0.1820  0.0387
  4554G12c C00A84475   9.264   4.850   3.991  0.6579 -0.9080  0.2726
  4554G12c C00984476   9.401   4.833   4.012 -0.5713 -1.9097 -2.9044
  4554G12c C00884477   9.518   4.912   4.029  0.0742 -0.0084  0.5823
  4554G12c H01384478   9.518   5.013   4.069 -1.1575  1.6361 -3.2621
  4554G12c C00784479   9.640   4.877   3.943  0.2224  0.7778 -2.3801
  4554G12c H01484480   9.725   4.944   3.940  1.7970 -1.2310 -3.5954
  4554G12c C00684481   9.648   4.742   3.893 -0.4430 -1.2633  0.1884
  4554G12c C00584482   9.531   4.664   3.897 -1.4723  1.5243 -0.7365
  4554G12c C00484483   9.529   4.551   3.808  0.2601  0.8074 -0.8608
  4554G12c C00384484   9.395   4.492   3.779 -0.3807 -0.3932 -1.9784
  4554G12c C00284485   9.389   4.405   3.669 -0.3256  2.0014  0.9821
  4554G12c C00184486   9.289   4.359   3.585 -1.8236 -0.7262  0.4204
  4554G12c C00M84487   9.180   4.430   3.547 -0.9893 -0.1795  2.8063
  4554G12c C00L84488   9.081   4.477   3.638 -2.2494  0.4422  0.5019
  4554G12c C00R84489   8.976   4.560   3.601  1.7368 -0.6737  0.5201
  4554G12c C00Q84490   8.913   4.587   3.466 -0.4744  0.6641  1.5434
  4554G12c C00V84491   8.803   4.679   3.478 -0.2255  0.1708  0.4086
  4554G12c C00U84492   8.805   4.778   3.570  0.7277 -1.2700  0.1267
  4554G12c C00T84493   8.873   4.765   3.678 -1.0913 -0.0862 -0.4500
  4554G12c C01684494   8.924   4.869   3.753 -0.2554 -1.6962  1.1767
  4554G12c C01584495   8.855   4.989   3.736 -0.3452  0.5987  0.0982
  4554G12c C01084496   8.756   5.000   3.640 -0.8981 -0.6692  0.2112
  4554G12c C01184497   8.706   5.127   3.616  0.0307 -0.1562  1.0337
  4554G12c H00584498   8.640   5.132   3.530 -0.4613  3.6138  1.5510
  4554G12c C01284499   8.731   5.259   3.681  0.4707  0.9802 -0.3995
  4554G12c C01784500   8.690   5.394   3.636  0.0679  1.3544  0.9376
  4554G12c O00284501   8.716   5.503   3.725  0.9353  0.7772  1.6287
  4554G12c H00484502   8.662   5.501   3.803 -0.0100  1.0814  0.9948
  4554G12c C01884503   8.611   5.405   3.524 -0.9704 -1.1303 -0.7125
  4554G12c O00184504   8.622   5.311   3.420  0.2283  0.7017 -1.9224
  4554G12c H00384505   8.557   5.254   3.458  1.4698  0.6569  0.2256
  4554G12c C01984506   8.535   5.541   3.487 -1.4413  0.0761 -0.5907
  4554G12c H00284507   8.561   5.615   3.562 -1.1401 -2.5345  1.9479
  4554G12c H00184508   8.545   5.608   3.402 -3.0998  0.3332 -0.5940
  4554G12c O00084509   8.408   5.494   3.485  0.1763  0.9171 -0.7546
  4554G12c C01A84510   8.354   5.500   3.613  0.9388  1.4969  0.0656
  4554G12c C02K84511   8.321   5.641   3.662  1.3044 -0.1289  0.3034
  4554G12c O00G84512   8.335   5.751   3.575 -1.6961  1.1601  1.7535
  4554G12c C02M84513   8.298   5.888   3.621  0.5042 -0.9664 -0.4606
  4554G12c H01G84514   8.200   5.858   3.658 -0.3886 -2.2322 -3.6498
  4554G12c H01F84515   8.373   5.905   3.698 -0.9367  2.7242  0.2320
  4554G12c H01E84516   8.262   5.969   3.557 -0.0733  4.4260  6.1971
  4554G12c C02J84517   8.284   5.647   3.795 -0.6899  0.2030 -0.9394
  4554G12c H01H84518   8.270   5.751   3.822  3.3204  0.2121  1.6010
  4554G12c C02I84519   8.294   5.546   3.895  2.1063  0.6119  0.3981
  4554G12c C02N84520   8.243   5.560   4.029 -0.5976  1.0057 -3.4417
  4554G12c H01M84521   8.151   5.516   4.063  0.0347 -0.2761 -3.3466
  4554G12c C02O84522   8.281   5.663   4.109  0.0434 -0.5040 -0.4565
  4554G12c H01L84523   8.381   5.702   4.104  0.4340 -1.6115 -1.6133
  4554G12c C02P84524   8.233   5.649   4.246  0.4517 -0.7606 -0.5657
  4554G12c H01K84525   8.223   5.542   4.265  1.0416 -1.2521 -2.8650
  4554G12c H01J84526   8.296   5.670   4.333 -5.2931  1.2504  3.4865
  4554G12c O00H84527   8.117   5.722   4.239 -1.2322  0.0254  0.7019
  4554G12c H01I84528   8.140   5.808   4.270  2.2283 -2.4965  5.8859
  4554G12c C02H84529   8.334   5.418   3.836 -1.3021 -0.3577 -0.9374
  4554G12c H01C84530   8.395   5.363   3.907 -7.3129  0.4498  5.3505
  4554G12c C02L84531   8.365   5.395   3.708  0.6926  0.0382 -0.1202
  4554G12c H01D84532   8.395   5.297   3.673 10.0515  3.3975 -2.7629
  4554G12c C01384533   8.838   5.231   3.770 -1.2295  0.5411 -0.5751
  4554G12c H00084534   8.894   5.315   3.808  4.2970 -3.4684  0.7660
  4554G12c C01484535   8.899   5.104   3.810  0.9999 -1.5129  1.0102
  4554G12c C00F84536   9.006   5.099   3.905 -0.6754 -0.3918  0.5366
  4554G12c C00H84537   9.022   4.858   3.855 -0.3233  2.5507 -1.1371
  4554G12c C00I84538   9.088   4.732   3.874  1.3457 -0.3583  1.2868
  4554G12c C00J84539   9.034   4.626   3.808 -1.2834 -0.1454  0.9431
  4554G12c C00Z84540   8.741   4.901   3.553 -0.7722  0.6526  0.2167
  4554G12c C00Y84541   8.635   4.901   3.455  0.4089  1.8601 -0.2555
  4554G12c H00684542   8.542   4.954   3.465 -1.4196 -0.3863 -4.2081
  4554G12c C00X84543   8.607   4.784   3.362 -0.1963 -1.0252 -2.3353
  4554G12c O00384544   8.484   4.780   3.283 -0.7743  2.1043  1.0238
  4554G12c C01B84545   8.435   4.650   3.209  0.9589 -1.3520 -0.8986
  4554G12c H00984546   8.441   4.568   3.280  2.5666  1.0678  1.8564
  4554G12c H00884547   8.491   4.640   3.116  0.2609  4.0467 -2.0634
  4554G12c H00784548   8.328   4.650   3.189 -0.0365 -2.5489  3.7880
  4554G12c C00W84549   8.697   4.686   3.363 -1.0202 -1.9700 -0.3904
  4554G12c O00484550   8.704   4.590   3.270  1.7544  0.8516  1.1927
  4554G12c C01C84551   8.835   4.556   3.245  0.2053  1.5623 -0.1830
  4554G12c H00A84552   8.855   4.570   3.140 -5.2044 -0.1723 -1.6259
  4554G12c C00P84553   8.933   4.532   3.341  0.5018  0.9420 -0.1054
  4554G12c C00O84554   9.066   4.484   3.310  1.4443 -0.9551  0.2458
  4554G12c C01D84555   9.095   4.470   3.173 -0.2132 -0.2063 -1.6782
  4554G12c H00S84556   9.038   4.509   3.090  0.9243  3.8648 -0.6750
  4554G12c C01E84557   9.233   4.431   3.140 -0.5613 -0.1070  0.5736
  4554G12c O00884558   9.312   4.482   3.028 -0.7777 -0.3214 -1.1808
  4554G12c C01V84559   9.249   4.576   2.966 -1.7353 -1.0039 -0.7241
  4554G12c C01Z84560   9.236   4.719   3.036 -0.4970  0.6904 -1.7603
  4554G12c H00R84561   9.302   4.790   2.985  0.9526  3.4447  3.5622
  4554G12c H00Q84562   9.287   4.707   3.132  3.0548 -0.7549 -3.7307
  4554G12c O00984563   9.112   4.778   3.074  0.6756 -0.2156 -0.2364
  4554G12c H00P84564   9.087   4.865   3.046 -2.2504 -2.1022 -4.0676
  4554G12c C01W84565   9.172   4.547   2.850 -0.1167  1.8834  0.7153
  4554G12c H00O84566   9.146   4.628   2.784 -3.9888 -4.4877 -6.4005
  4554G12c C01X84567   9.147   4.401   2.802 -0.6350 -0.8814  1.1863
  4554G12c H00N84568   9.178   4.389   2.699  1.4083  4.0516  1.0552
  4554G12c H00M84569   9.190   4.323   2.865  0.3865 -0.3400  1.1749
  4554G12c C01Y84570   8.986   4.379   2.804 -1.4308  0.0112  0.7684
  4554G12c C02D84571   8.918   4.271   2.743 -1.6618  0.5394  0.6204
  4554G12c H01984572   8.986   4.216   2.680 -0.5357  5.0917 -2.3989
  4554G12c C02C84573   8.778   4.262   2.751  0.3911 -1.5301 -1.0789
  4554G12c H01A84574   8.738   4.174   2.704  0.3866 -0.1302 -3.7693
  4554G12c C02B84575   8.693   4.362   2.800 -1.0866 -0.4938 -0.4039
  4554G12c O00E84576   8.573   4.343   2.816  1.9443  0.5197 -0.3876
  4554G12c H01B84577   8.535   4.393   2.887 -5.2256 -7.0647  1.9832
  4554G12c C02F84578   8.772   4.482   2.847 -0.4262 -1.3187 -0.4022
  4554G12c O00F84579   8.701   4.575   2.903  0.0832  1.2096 -0.3218
  4554G12c C02G84580   8.746   4.707   2.834  0.8781  0.1098 -0.9602
  4554G12c H01784581   8.855   4.696   2.835  1.1408  0.8038  6.3026
  4554G12c H01684582   8.730   4.801   2.886  1.4653 -1.1499  1.6005
  4554G12c H01584583   8.719   4.728   2.731  0.2261  1.2419 -0.5672
  4554G12c C02E84584   8.917   4.488   2.871  0.1597  1.3095  0.7296
  4554G12c H01884585   8.965   4.577   2.908 -3.3231  3.2281  0.9302
  4554G12c C01F84586   9.315   4.375   3.244 -0.3008 -1.2267  0.1039
  4554G12c C01G84587   9.459   4.338   3.251 -0.8666 -1.9735  1.6514
  4554G12c H00L84588   9.521   4.346   3.163  4.7027 -0.5433  5.4475
  4554G12c C01H84589   9.547   4.312   3.355  0.4306 -0.1210  0.8500
  4554G12c H00B84590   9.654   4.304   3.343  0.5888 -0.8796  2.6907
  4554G12c C01I84591   9.485   4.298   3.488  0.7636 -0.4006 -0.4639
  4554G12c C01U84592   9.267   4.364   3.370 -1.0522 -1.0423 -0.6265
  4554G12c C00S84593   8.929   4.636   3.708  0.3676  0.6625 -0.5312
  4554G12c C00K84594   9.136   4.534   3.756  0.3499 -1.0535 -0.0196
  4554G12c C00N84595   9.158   4.445   3.403 -1.3239  0.7264 -0.1467
  4554G12c C00084596   9.353   4.310   3.474  1.6226 -1.6380  0.3650
  4554G12c C01J84597   9.515   4.353   3.615 -1.3993 -0.2224  1.1514
  4554G12c C01K84598   9.642   4.411   3.649 -0.1990  0.6406  0.0017
  4554G12c C01P84599   9.762   4.360   3.620 -0.2623  0.1548  0.5408
  4554G12c C01Q84600   9.768   4.215   3.578  0.6092 -0.7304 -1.8355
  4554G12c H00G84601   9.686   4.146   3.586 -0.0224  0.4986  4.2260
  4554G12c C01R84602   9.867   4.146   3.518 -0.2005 -1.1959 -1.3500
  4554G12c H00F84603   9.968   4.183   3.516 -0.9611  1.3032  1.2541
  4554G12c C01S84604   9.886   4.020   3.451 -0.8976  0.9220 -0.5451
  4554G12c H00E84605   9.784   4.020   3.413 -1.0746 -6.1357 -0.5868
  4554G12c H00D84606   9.977   4.037   3.394  1.5950 -1.4073  2.5677
  4554G12c O00584607   9.912   3.924   3.555 -0.7338  1.1396 -0.3323
  4554G12c H00C84608   9.977   3.970   3.606 -6.1491  5.8332  2.9187
  4554G12c C01O84609   9.876   4.416   3.686 -0.3760  1.0716 -0.1932
  4554G12c H00H84610   9.958   4.347   3.677 -3.5314 -2.2714 -7.5558
  4554G12c C01N84611   9.884   4.539   3.757 -1.3173  0.4620  0.3047
  4554G12c O00684612   9.992   4.589   3.819 -0.4447  0.7458 -0.7402
  4554G12c C01T84613   9.996   4.575   3.958 -1.2565  0.9338 -0.3675
  4554G12c H00K84614  10.057   4.492   3.992 -1.2345  1.4619  0.9258
  4554G12c H00J84615   9.891   4.577   3.987 -2.0383 -0.2282 -2.9742
  4554G12c H00I84616  10.047   4.658   4.006  1.4691 -0.3756 -0.9344
  4554G12c C01M84617   9.756   4.595   3.776 -1.5007 -0.1985  0.4853
  4554G12c C02084618   9.266   4.556   3.819 -0.9143  0.4605 -1.2640
  4554G12c C02184619   9.289   4.651   3.918 -0.6355  2.4084 -0.8841
  4554G12c C01L84620   9.641   4.524   3.733  1.5392  0.6922 -0.6876
  4554G12c O00784621   9.755   4.720   3.833 -0.3637  0.6026  0.2603
  4554G12c C02284622   9.415   4.705   3.959  0.6165  0.3597  0.8345
  4554G12c C02384623   9.199   4.737   3.962  0.9594 -2.2475 -1.2445
  4554G12c C00G84624   9.082   4.985   3.905 -1.3012 -1.0742 -0.1773
  4554G12c C00E84625   9.020   5.182   4.013  0.2135 -2.7260  0.7009
  4554G12c O00A84626   8.935   5.286   4.026  0.6009  0.6014 -0.2235
  4554G12c C02484627   8.806   5.278   4.041  0.0074  0.2950 -0.4058
  4554G12c H00V84628   8.789   5.380   4.074 -4.4335 -1.1966  2.3611
  4554G12c H00U84629   8.725   5.239   3.980 -2.7765  4.3439  0.5573
  4554G12c H00T84630   8.807   5.222   4.135 -4.5499  2.7069  1.2321
  4564G12c C00D84631   9.214   1.041   6.317 -1.5439 -0.9024  0.8559
  4564G12c O00B84632   9.069   1.027   6.312 -1.7657 -1.0893  1.3832
  4564G12c C02584633   9.013   0.969   6.195  0.4835  0.7008 -1.4073
  4564G12c C02684634   8.918   1.075   6.151 -0.9192 -0.6167  0.6198
  4564G12c H00Y84635   8.976   1.129   6.077 -2.4243  3.5905  2.3819
  4564G12c H00X84636   8.905   1.157   6.222  1.5292  0.3224  0.0405
  4564G12c O00C84637   8.771   1.041   6.104  0.5098  0.0249  0.3158
  4564G12c H00W84638   8.706   1.082   6.158  3.5131  7.1591 -1.0177
  4564G12c C02784639   9.034   0.856   6.115  0.2694  1.6072 -0.8441
  4564G12c O00D84640   9.158   0.799   6.159 -0.0638  2.0474  0.1281
  4564G12c H00Z84641   9.141   0.719   6.206  0.6062  0.9939 -1.3624
  4564G12c C02884642   8.993   0.809   5.979  0.1628  0.2852  0.3517
  4564G12c C02984643   8.962   0.902   5.881 -0.0390  1.7651 -0.0184
  4564G12c H01084644   8.988   0.994   5.932 -2.1711  1.3710  1.8390
  4564G12c C02T84645   8.947   0.880   5.736  0.2094  0.5688 -0.1893
  4564G12c H01O84646   8.931   0.972   5.681 -0.3578 -1.7882 -4.1847
  4564G12c C02S84647   8.936   0.743   5.711  0.2492  0.5948 -0.4630
  4564G12c O00J84648   8.925   0.708   5.583  0.6326  0.2470  1.8866
  4564G12c H01P84649   8.974   0.629   5.601  1.3417  1.2766  4.8976
  4564G12c C02R84650   8.927   0.638   5.817  1.0237  1.0677 -1.7821
  4564G12c O00I84651   8.899   0.519   5.765 -0.1000  0.7819 -0.3695
  4564G12c C02Q84652   8.768   0.508   5.794 -0.2092 -2.3525 -0.6538
  4564G12c H01N84653   8.736   0.551   5.890  0.5998 -2.1044 -0.4871
  4564G12c H01R84654   8.754   0.401   5.784 -3.5047 -2.3640  2.9144
  4564G12c H01Q84655   8.707   0.573   5.732 -1.6608 -2.2681  0.8241
  4564G12c C02A84656   8.965   0.671   5.952  0.0708 -1.3032 -0.9379
  4564G12c H01184657   8.979   0.595   6.028  5.8705  5.8428  5.9569
  4564G12c C00C84658   9.306   1.046   6.214 -1.3378  1.2243 -1.5339
  4564G12c H01284659   9.269   1.011   6.119 -1.3045  3.0550 -2.2323
  4564G12c C00B84660   9.441   1.067   6.218  0.5477 -2.2188 -0.8054
  4564G12c C00A84661   9.548   1.038   6.129  0.0345 -0.6981 -0.8938
  4564G12c C00984662   9.577   0.940   6.015  0.0723 -0.6694 -1.2071
  4564G12c C00884663   9.528   0.823   5.941  1.5811  0.7379  0.4618
  4564G12c H01384664   9.431   0.778   5.959  0.0914  3.4756 -0.4461
  4564G12c C00784665   9.616   0.735   5.872 -0.4381  1.3321 -1.1748
  4564G12c H01484666   9.587   0.637   5.837 -0.6618  1.4778 -1.4011
  4564G12c C00684667   9.740   0.759   5.849 -0.4609  0.0901  0.5106
  4564G12c C00584668   9.801   0.865   5.923 -1.0988  0.0779  0.8041
  4564G12c C00484669   9.941   0.860   5.964  0.0780 -0.6139 -0.9921
  4564G12c C00384670   9.987   0.961   6.048 -0.6424  0.1900  0.4191
  4564G12c C00284671  10.124   0.949   6.089  0.9213  0.1496  0.5843
  4564G12c C00184672  10.200   1.032   6.182 -0.7305 -0.9710 -0.5691
  4564G12c C00M84673  10.164   1.082   6.310  1.1007 -0.1466 -0.9668
  4564G12c C00L84674  10.050   1.161   6.324  0.0746 -0.4491 -0.8886
  4564G12c C00R84675   9.985   1.207   6.442  0.4803  0.4121 -0.8736
  4564G12c C00Q84676  10.056   1.205   6.576 -0.7927  1.1289  0.5637
  4564G12c C00V84677   9.956   1.254   6.681 -1.8900 -2.5476  1.5392
  4564G12c C00U84678   9.816   1.285   6.644 -0.9531 -0.7376  0.2910
  4564G12c C00T84679   9.763   1.274   6.515 -0.6312  1.4548  0.0211
  4564G12c C01684680   9.634   1.247   6.486  0.2504 -1.1168 -0.2389
  4564G12c C01584681   9.544   1.259   6.581 -0.2191 -0.7659 -0.0625
  4564G12c C01084682   9.587   1.301   6.716 -2.1115  0.5474 -1.0279
  4564G12c C01184683   9.493   1.320   6.815  0.2191 -0.4177 -0.4573
  4564G12c H00584684   9.502   1.380   6.904 -4.4027  1.3866 -1.0833
  4564G12c C01284685   9.405   1.209   6.806 -0.8392  1.3381 -0.1117
  4564G12c C01784686   9.306   1.182   6.896  1.9144  0.2869  0.4920
  4564G12c O00284687   9.225   1.281   6.954  0.2637 -1.0043  0.2672
  4564G12c H00484688   9.201   1.273   7.045 -2.2984 -5.3238 -0.6371
  4564G12c C01884689   9.313   1.053   6.934 -1.0173  1.7468 -0.0821
  4564G12c O00184690   9.364   0.929   6.878  1.8723  0.3774 -1.0921
  4564G12c H00384691   9.457   0.931   6.891  1.7499  0.4518 -0.1862
  4564G12c C01984692   9.209   1.011   7.046 -1.3637  0.1791  0.1570
  4564G12c H00284693   9.110   1.004   7.000  0.4190 -2.6974 -3.4460
  4564G12c H00184694   9.237   0.914   7.087  2.4478  2.1295  2.4283
  4564G12c O00084695   9.203   1.106   7.164  0.0694  0.4439 -1.0853
  4564G12c C01A84696   9.281   1.053   7.276  0.1770 -0.4856 -2.0211
  4564G12c C02K84697   9.418   1.035   7.274  0.0349  0.9315 -1.2848
  4564G12c O00G84698   9.498   1.080   7.168  2.0406 -0.6904  0.3236
  4564G12c C02M84699   9.609   0.994   7.155  0.0855 -0.2867 -0.8482
  4564G12c H01G84700   9.650   1.039   7.065 -1.3918  5.6594  1.2447
  4564G12c H01F84701   9.588   0.890   7.128 -1.2957 -0.3092  0.2676
  4564G12c H01E84702   9.687   0.995   7.231  4.0165  2.6155 -4.7051
  4564G12c C02J84703   9.479   1.022   7.395 -1.4280 -0.4274 -0.6563
  4564G12c H01H84704   9.584   1.044   7.396  1.7263-11.8475 -4.2561
  4564G12c C02I84705   9.408   0.984   7.512  0.0392 -0.0085  0.7305
  4564G12c C02N84706   9.498   0.931   7.624 -0.8722 -0.0337  0.1495
  4564G12c H01M84707   9.565   0.978   7.694 -4.5492  0.4576  3.5695
  4564G12c C02O84708   9.473   0.809   7.670 -2.0425 -1.0298 -1.1427
  4564G12c H01L84709   9.413   0.747   7.605 -4.1859  1.4055 -1.5455
  4564G12c C02P84710   9.559   0.733   7.769  0.2895  0.1283 -1.0333
  4564G12c H01K84711   9.591   0.629   7.770  5.4628  1.4332 -5.6660
  4564G12c H01J84712   9.538   0.769   7.870  3.7451  2.4278 -1.0500
  4564G12c O00H84713   9.697   0.759   7.777  0.4345 -0.5445  0.0379
  4564G12c H01I84714   9.739   0.773   7.694  0.8508 -1.3478  0.1119
  4564G12c C02H84715   9.260   0.998   7.506  0.2093  0.7643  0.7674
  4564G12c H01C84716   9.175   0.994   7.573  3.0739 -7.3597  4.4835
  4564G12c C02L84717   9.207   1.044   7.396  1.9394 -1.0397 -2.0683
  4564G12c H01D84718   9.100   1.058   7.399  1.1653 -5.2868 -5.7213
  4564G12c C01384719   9.380   1.138   6.687 -1.5553  0.4121  0.2461
  4564G12c H00084720   9.322   1.047   6.689  6.0276 -4.9486 -0.0342
  4564G12c C01484721   9.431   1.187   6.566  0.4701 -1.1005  0.2955
  4564G12c C00F84722   9.384   1.121   6.456 -0.7458 -0.1368  0.0151
  4564G12c C00H84723   9.607   1.199   6.359 -0.6408  0.1710 -0.9330
  4564G12c C00I84724   9.689   1.183   6.249 -2.2729  0.1514 -0.4860
  4564G12c C00J84725   9.823   1.226   6.280 -2.4360 -0.5996  0.8813
  4564G12c C00Z84726   9.722   1.303   6.738  0.3912 -0.3760 -0.1603
  4564G12c C00Y84727   9.771   1.322   6.875  0.4381 -0.1791  0.3880
  4564G12c H00684728   9.727   1.359   6.966 -2.3028  0.7181 -1.2494
  4564G12c C00X84729   9.909   1.319   6.912 -0.0649  0.2264  0.2183
  4564G12c O00384730   9.933   1.330   7.043 -1.4495  0.0117  0.3813
  4564G12c C01B84731   9.931   1.216   7.135  0.9508  0.9707  1.4255
  4564G12c H00984732   9.835   1.164   7.134  1.7622 -0.7181 -3.5033
  4564G12c H00884733   9.992   1.160   7.064 -5.0166 -1.6735 -1.9966
  4564G12c H00784734   9.958   1.224   7.240 -2.7569 -0.4027  2.5485
  4564G12c C00W84735   9.995   1.250   6.814  0.7612  0.1965  0.2776
  4564G12c O00484736  10.106   1.210   6.860 -0.0596 -0.3289 -0.7672
  4564G12c C01C84737  10.201   1.178   6.766 -0.3828  0.3235 -0.4928
  4564G12c H00A84738  10.302   1.164   6.802 -0.2316  2.3293 -0.0897
  4564G12c C00P84739  10.175   1.148   6.630 -0.7967 -0.3666  1.1106
  4564G12c C00O84740  10.264   1.065   6.557 -0.3166  2.8134  0.1832
  4564G12c C01D84741  10.385   0.990   6.605 -1.7939 -1.1638 -0.3419
  4564G12c H00S84742  10.417   1.000   6.708 -1.2452  0.8143 -0.6952
  4564G12c C01E84743  10.440   0.875   6.528  1.5886 -0.1707 -1.4017
  4564G12c O00884744  10.536   0.789   6.582 -0.5495 -0.8765 -0.3595
  4564G12c C01V84745  10.593   0.791   6.717  0.5728  1.9130  0.4816
  4564G12c C01Z84746  10.506   0.699   6.801  0.7802  0.3738 -0.9062
  4564G12c H00R84747  10.522   0.592   6.787 -0.1311  0.3930 -2.1220
  4564G12c H00Q84748  10.567   0.716   6.891 -0.8402  1.6439 -0.0122
  4564G12c O00984749  10.373   0.740   6.825 -0.4555 -0.5598  0.3114
  4564G12c H00P84750  10.359   0.833   6.814 -1.9214 -0.1758  4.5384
  4564G12c C01W84751  10.673   0.882   6.781 -0.9578 -0.2369 -0.4333
  4564G12c H00O84752  10.706   0.906   6.881  6.4051 -8.7180 -0.1788
  4564G12c C01X84753  10.747   0.979   6.673  0.7147 -0.7227 -0.7284
  4564G12c H00N84754  10.734   0.951   6.568 -3.6673  2.9739 -1.3319
  4564G12c H00M84755  10.694   1.074   6.663  0.3396 -1.2808 -4.5839
  4564G12c C01Y84756  10.886   0.951   6.718  0.4311 -0.7829 -0.5508
  4564G12c C02D84757  10.952   1.066   6.759 -0.6773  1.4635  2.0928
  4564G12c H01984758  10.893   1.155   6.739 -5.3526 -1.8431  0.2074
  4564G12c C02C84759  11.089   1.052   6.796 -0.1955 -2.0058 -0.9542
  4564G12c H01A84760  11.172   1.104   6.842  0.2186  1.3961 -5.2088
  4564G12c C02B84761  11.142   0.926   6.798 -1.5064 -1.4306  0.2557
  4564G12c O00E84762  11.276   0.882   6.832 -0.8805  0.5323 -0.0871
  4564G12c H01B84763  11.320   0.826   6.770  1.1966 -4.5079  5.3870
  4564G12c C02F84764  11.092   0.833   6.715  0.3206  0.3721 -1.7166
  4564G12c O00F84765  11.170   0.734   6.650  0.8647  1.3064 -2.3544
  4564G12c C02G84766  11.216   0.623   6.729  1.1621  0.9094 -0.1069
  4564G12c H01784767  11.159   0.566   6.803  4.0913  3.9243  4.7244
  4564G12c H01684768  11.308   0.656   6.777  3.6016 -4.7600 -0.4832
  4564G12c H01584769  11.257   0.538   6.675  1.6594  0.2879  1.2082
  4564G12c C02E84770  10.955   0.839   6.677  1.0903 -1.5382  1.2009
  4564G12c H01884771  10.951   0.767   6.597  2.9746 -0.3649  0.0209
  4564G12c C01F84772  10.407   0.858   6.400 -0.9631 -0.0257 -0.8671
  4564G12c C01G84773  10.472   0.762   6.312  1.1146  1.2105  1.1194
  4564G12c H00L84774  10.552   0.703   6.353  6.2060  5.7463 -1.6804
  4564G12c C01H84775  10.441   0.769   6.170  0.1358  0.4208  0.8175
  4564G12c H00B84776  10.463   0.669   6.135  0.2079 -0.4359  3.2024
  4564G12c C01I84777  10.347   0.864   6.117 -1.6809  0.5521  0.3717
  4564G12c C01U84778  10.347   0.966   6.345  0.4873 -1.2379 -1.2641
  4564G12c C00S84779   9.857   1.277   6.408  0.2211  0.0687 -0.9772
  4564G12c C00K84780   9.930   1.140   6.240 -0.9148  0.4765 -1.8777
  4564G12c C00N84781  10.256   1.040   6.428 -0.2535 -1.5361 -0.5448
  4564G12c C00084782  10.328   0.976   6.209  0.2458  0.0344  0.0477
  4564G12c C01J84783  10.217   0.853   6.041  0.8222 -0.9448  1.7100
  4564G12c C01K84784  10.158   0.748   5.947 -2.3062  0.2545 -1.6666
  4564G12c C01P84785  10.230   0.629   5.894  1.2300  0.3108 -0.2056
  4564G12c C01Q84786  10.374   0.619   5.891 -0.0724  0.7565 -1.8184
  4564G12c H00G84787  10.448   0.696   5.876  0.8390  1.0159  3.0261
  4564G12c C01R84788  10.422   0.510   5.961  0.0224 -1.0261 -0.0717
  4564G12c H00F84789  10.527   0.506   5.937 -1.0757 -8.5803 -5.2821
  4564G12c C01S84790  10.347   0.392   6.044  0.7232  1.0889 -0.3614
  4564G12c H00E84791  10.238   0.381   6.045  1.1638 -4.5635 -0.1567
  4564G12c H00D84792  10.381   0.291   6.022 -0.7706  0.1634  1.4744
  4564G12c O00584793  10.380   0.431   6.173 -0.1402 -0.0364  0.0742
  4564G12c H00C84794  10.388   0.355   6.229 -2.7949 -2.8303 -3.1561
  4564G12c C01O84795  10.154   0.526   5.837 -1.2107 -0.2046  0.7703
  4564G12c H00H84796  10.201   0.438   5.797  2.3054  0.7628  2.5822
  4564G12c C01N84797  10.013   0.521   5.827  0.0382 -1.0745 -0.8646
  4564G12c O00684798   9.970   0.433   5.743 -0.0308  0.3899 -1.2368
  4564G12c C01T84799   9.910   0.492   5.619 -0.1106  1.4436  0.0944
  4564G12c H00K84800   9.802   0.491   5.603  0.1014 -4.4377 -2.3007
  4564G12c H00J84801   9.951   0.592   5.626  6.2802 -0.5501 -4.5221
  4564G12c H00I84802   9.939   0.432   5.533  3.5692 -3.6851  4.5925
  4564G12c C01M84803   9.959   0.645   5.866 -0.9332  0.3737 -2.1097
  4564G12c C02084804   9.897   1.060   6.126 -0.4072 -1.7795  0.0029
  4564G12c C02184805   9.764   1.073   6.056 -0.3256 -0.3978 -0.0041
  4564G12c C01L84806  10.020   0.754   5.916  0.8030 -0.3212 -1.1133
  4564G12c O00784807   9.833   0.678   5.801 -0.9943  1.8674  0.9210
  4564G12c C02284808   9.719   0.968   5.981  1.4830  0.8532 -0.4125
  4564G12c C02384809   9.651   1.131   6.131 -2.4781 -0.3036 -0.1029
  4564G12c C00G84810   9.476   1.151   6.334  2.4745 -0.1508  0.7710
  4564G12c C00E84811   9.253   1.077   6.447 -1.4707  1.0060 -0.4076
  4564G12c O00A84812   9.176   1.128   6.540  0.3393  0.3411  0.6770
  4564G12c C02484813   9.117   1.254   6.516  0.6725 -1.2990  0.3878
  4564G12c H00V84814   9.062   1.313   6.590  3.4999 -2.2994  3.4097
  4564G12c H00U84815   9.036   1.209   6.459  2.1676 -1.6281 -1.5294
  4564G12c H00T84816   9.207   1.310   6.493  5.2944 -4.4674  8.5959
  4574G12c C00D84817  13.034   2.782  12.739 -0.7693 -0.4116 -0.2002
  4574G12c O00B84818  13.121   2.694  12.774 -0.0688 -1.3807 -1.0624
  4574G12c C02584819  13.202   2.610  12.697  1.2702  1.2138  0.7116
  4574G12c C02684820  13.305   2.534  12.781  1.7846 -1.3784  0.2671
  4574G12c H00Y84821  13.247   2.519  12.871  0.1172  7.0047  0.9674
  4574G12c H00X84822  13.352   2.626  12.746 -3.9339  2.3725  1.7121
  4574G12c O00C84823  13.306   2.409  12.715 -0.8087  0.1402 -0.7071
  4574G12c H00W84824  13.257   2.391  12.636 -0.8957  3.6476 -1.5225
  4574G12c C02784825  13.190   2.626  12.562 -0.0062 -0.8429  1.7634
  4574G12c O00D84826  13.110   2.704  12.482 -0.7038  0.4691  0.4339
  4574G12c H00Z84827  13.159   2.715  12.402 -0.3563  3.5802  1.0247
  4574G12c C02884828  13.291   2.566  12.488 -0.4956 -0.2516  1.2025
  4574G12c C02984829  13.401   2.648  12.450 -0.6086  0.2124  0.2679
  4574G12c H01084830  13.427   2.745  12.490 -1.6989 -0.3599  2.4422
  4574G12c C02T84831  13.482   2.612  12.331  0.0162 -1.0662 -0.6634
  4574G12c H01O84832  13.553   2.687  12.299 -0.5703 -1.5335 -3.1901
  4574G12c C02S84833  13.458   2.481  12.278  0.5917  0.2122 -1.7791
  4574G12c O00J84834  13.532   2.433  12.185  1.3376 -1.0189  0.6062
  4574G12c H01P84835  13.479   2.356  12.171  0.5802 -0.2204 -1.2460
  4574G12c C02R84836  13.349   2.403  12.323 -0.5287  0.2632 -0.0830
  4574G12c O00I84837  13.338   2.280  12.276  0.7833  1.1311  0.4784
  4574G12c C02Q84838  13.277   2.186  12.355 -0.2557  0.3558 -1.1643
  4574G12c H01N84839  13.183   2.206  12.407 -0.4696 -1.1497 -0.9608
  4574G12c H01R84840  13.267   2.093  12.300  1.6926 -0.6808  0.1976
  4574G12c H01Q84841  13.373   2.163  12.400 -1.9372 -0.7301  2.0345
  4574G12c C02A84842  13.261   2.455  12.420  0.2130 -0.3933  2.2622
  4574G12c H01184843  13.159   2.418  12.423  0.7029 -2.0117  0.0425
  4574G12c C00C84844  13.054   2.922  12.731  0.6810  0.7381  0.3988
  4574G12c H01284845  13.137   2.957  12.790  2.2532 -1.7737 -0.2611
  4574G12c C00B84846  12.957   3.009  12.678  0.6355  0.8897  0.4661
  4574G12c C00A84847  12.958   3.152  12.708  0.2415  0.2921  0.8040
  4574G12c C00984848  12.998   3.209  12.832  1.4498  0.2411  0.7066
  4574G12c C00884849  13.063   3.134  12.943  0.3097  1.2198  0.5927
  4574G12c H01384850  13.149   3.069  12.933  0.2277  0.4201  4.6389
  4574G12c C00784851  13.033   3.191  13.082 -2.8555 -1.3021 -0.0318
  4574G12c H01484852  13.106   3.217  13.157 -2.0994  0.2658 -1.2735
  4574G12c C00684853  12.953   3.299  13.111  1.9477  2.8146  1.6208
  4574G12c C00584854  12.882   3.359  12.989  0.7487 -2.0813 -1.0391
  4574G12c C00484855  12.768   3.445  13.002 -0.8754  0.4641  0.8049
  4574G12c C00384856  12.677   3.460  12.898 -1.1038 -0.5793  0.8999
  4574G12c C00284857  12.557   3.543  12.928 -1.2128  0.6335  0.1307
  4574G12c C00184858  12.445   3.576  12.844 -0.7645  1.2794 -0.1349
  4574G12c C00M84859  12.380   3.476  12.766 -0.1456 -0.2491  1.9010
  4574G12c C00L84860  12.437   3.384  12.683 -0.4727  2.1640 -0.5806
  4574G12c C00R84861  12.376   3.261  12.644  1.1505  1.0152  1.6721
  4574G12c C00Q84862  12.237   3.214  12.624 -0.9163  0.2600 -0.9801
  4574G12c C00V84863  12.234   3.068  12.595  0.6452  0.2549  0.6849
  4574G12c C00U84864  12.353   2.983  12.568 -0.6028 -0.8749  0.2135
  4574G12c C00T84865  12.475   3.040  12.598 -1.1745 -0.5609 -1.8165
  4574G12c C01684866  12.599   2.966  12.612  2.7260  0.9568 -0.1875
  4574G12c C01584867  12.594   2.824  12.600  0.4508  0.4708 -0.0436
  4574G12c C01084868  12.466   2.774  12.544  0.1332 -1.3999 -2.0283
  4574G12c C01184869  12.458   2.639  12.513 -0.8285  0.4864  0.0962
  4574G12c H00584870  12.375   2.592  12.461  0.6272 -2.8332  0.6319
  4574G12c C01284871  12.585   2.553  12.517  0.3809 -0.4376  1.2915
  4574G12c C01784872  12.588   2.439  12.429 -0.6035  0.4925  0.7433
  4574G12c O00284873  12.501   2.436  12.326  0.4661  0.6788 -0.8243
  4574G12c H00484874  12.445   2.361  12.334 -2.5026  2.5074 -3.0771
  4574G12c C01884875  12.625   2.321  12.474 -1.1317  1.5670  0.0785
  4574G12c O00184876  12.581   2.198  12.422  0.8108  1.2221 -0.9350
  4574G12c H00384877  12.534   2.179  12.501  4.0426  0.3451  0.8499
  4574G12c C01984878  12.687   2.288  12.614  0.6242  0.0484  0.2357
  4574G12c H00284879  12.784   2.241  12.595 -1.4400 -6.1761  3.8688
  4574G12c H00184880  12.730   2.371  12.671 -4.7376  6.1211 -3.9000
  4574G12c O00084881  12.609   2.202  12.708  0.1599  0.3516  0.3789
  4574G12c C01A84882  12.617   2.241  12.839  1.9116  0.8688  1.0971
  4574G12c C02K84883  12.700   2.152  12.932  0.4256 -1.0713  0.7417
  4574G12c O00G84884  12.768   2.051  12.884 -0.8257  1.0140 -0.0350
  4574G12c C02M84885  12.715   1.915  12.864 -0.8057  1.0971 -2.3646
  4574G12c H01G84886  12.776   1.864  12.789  3.8678 -0.8294  2.3900
  4574G12c H01F84887  12.608   1.900  12.864 -0.2856 -3.5215  0.9626
  4574G12c H01E84888  12.751   1.858  12.950 -2.6807  1.2193 -1.4806
  4574G12c C02J84889  12.732   2.190  13.056 -1.8606  1.0865 -0.6165
  4574G12c H01H84890  12.777   2.126  13.130 -2.8520  4.7415  3.3396
  4574G12c C02I84891  12.698   2.318  13.109  2.1771 -1.5371  1.2224
  4574G12c C02N84892  12.710   2.347  13.242 -0.8313 -2.4381  1.3735
  4574G12c H01M84893  12.759   2.419  13.306 -4.6151 -2.0117  3.9505
  4574G12c C02O84894  12.669   2.271  13.344  0.1265 -0.4779  0.5497
  4574G12c H01L84895  12.683   2.300  13.447 -5.2889 -0.4320  1.4185
  4574G12c C02P84896  12.547   2.172  13.336 -0.1866 -0.5003 -1.2936
  4574G12c H01K84897  12.492   2.230  13.263 -0.3657  5.0429  2.8824
  4574G12c H01J84898  12.581   2.083  13.283  3.5098 -0.1381  0.2519
  4574G12c O00H84899  12.476   2.140  13.443 -1.3259  0.2653 -0.7402
  4574G12c H01I84900  12.543   2.105  13.499 -2.8883 -1.0740  0.3473
  4574G12c C02H84901  12.636   2.419  13.017  1.5119  1.0893  0.3991
  4574G12c H01C84902  12.592   2.512  13.048 -3.7297 -1.3898  0.8926
  4574G12c C02L84903  12.579   2.363  12.891 -2.0104  0.3132  0.8405
  4574G12c H01D84904  12.520   2.422  12.822 -0.3672 -3.1930 -3.8998
  4574G12c C01384905  12.702   2.630  12.531 -0.6987 -0.0921  0.5596
  4574G12c H00084906  12.798   2.580  12.525 -3.4792 -6.0371  2.0880
  4574G12c C01484907  12.705   2.763  12.582  1.3613 -1.3322 -0.2467
  4574G12c C00F84908  12.829   2.814  12.635 -0.8070  1.3870 -1.1813
  4574G12c C00H84909  12.718   3.028  12.629 -0.6130  1.8761  0.7971
  4574G12c C00I84910  12.719   3.156  12.630  2.1728 -0.1237 -0.0686
  4574G12c C00J84911  12.589   3.226  12.620 -0.4723  1.5519  0.8063
  4574G12c C00Z84912  12.354   2.852  12.539  1.0191  0.3008  0.0010
  4574G12c C00Y84913  12.230   2.790  12.539  0.9217  0.6344  1.0174
  4574G12c H00684914  12.196   2.691  12.513  3.6957 -0.6608  2.1342
  4574G12c C00X84915  12.108   2.865  12.547 -0.7055  0.0955  0.7584
  4574G12c O00384916  11.989   2.843  12.486 -2.2966  0.9734  1.0776
  4574G12c C01B84917  11.936   2.712  12.487 -0.4342  0.8190 -0.2385
  4574G12c H00984918  11.887   2.698  12.390  2.4069  0.3735 -1.6504
  4574G12c H00884919  11.891   2.694  12.584  0.3589 -3.4730 -0.5695
  4574G12c H00784920  12.011   2.633  12.485 -3.9376 -2.6767 -0.6039
  4574G12c C00W84921  12.106   3.007  12.573 -0.0970 -0.6000 -0.0311
  4574G12c O00484922  11.982   3.076  12.586  0.8580 -0.4305  0.9602
  4574G12c C01C84923  11.985   3.205  12.640 -0.0976  0.2529 -0.3869
  4574G12c H00A84924  11.925   3.273  12.582 -0.7813 -0.8899 -1.0413
  4574G12c C00P84925  12.112   3.278  12.668  1.6240  0.4867 -1.9499
  4574G12c C00O84926  12.118   3.385  12.765 -1.0838  1.0085  0.8661
  4574G12c C01D84927  12.001   3.430  12.834  0.8604  1.5295 -0.6902
  4574G12c H00S84928  11.913   3.378  12.800  0.1781  0.5347  2.4053
  4574G12c C01E84929  11.998   3.514  12.946 -0.1707 -0.0659 -0.1403
  4574G12c O00884930  11.888   3.540  13.007 -0.6792 -0.1530  0.2927
  4574G12c C01V84931  11.827   3.655  12.982 -0.3515  0.8773  0.2688
  4574G12c C01Z84932  11.842   3.713  12.836 -0.4510 -0.8563  0.6834
  4574G12c H00R84933  11.856   3.647  12.750  4.3400  2.7993 -1.5728
  4574G12c H00Q84934  11.757   3.776  12.806  0.3189 -0.8116 -1.4689
  4574G12c O00984935  11.946   3.793  12.856  0.3911  1.0130 -1.0115
  4574G12c H00P84936  12.030   3.754  12.839  2.5065  4.5897  0.6295
  4574G12c C01W84937  11.831   3.724  13.097  0.3183 -2.1329  1.8964
  4574G12c H00O84938  11.818   3.656  13.180 -7.2472  0.5250  3.3402
  4574G12c C01X84939  11.813   3.870  13.134 -0.9408  2.0366 -0.2904
  4574G12c H00N84940  11.882   3.904  13.211 -6.3262  1.5277  5.1811
  4574G12c H00M84941  11.852   3.900  13.037  1.7538  0.1730  0.1836
  4574G12c C01Y84942  11.669   3.898  13.166  0.0189  0.0631 -0.6673
  4574G12c C02D84943  11.640   3.893  13.308  0.5553 -0.2623  0.9749
  4574G12c H01984944  11.719   3.887  13.382  5.3283  1.9780 -3.6268
  4574G12c C02C84945  11.501   3.908  13.341  0.8236  0.9292  0.2083
  4574G12c H01A84946  11.485   3.890  13.447  2.5701 -0.4791  0.2470
  4574G12c C02B84947  11.411   3.940  13.244 -0.3506 -1.5155  0.0930
  4574G12c O00E84948  11.271   3.918  13.282 -1.8237 -0.6771  1.5979
  4574G12c H01B84949  11.239   3.923  13.370 -4.2535 -1.7298  0.8118
  4574G12c C02F84950  11.449   3.938  13.101 -0.7456  0.3547 -0.3922
  4574G12c O00F84951  11.337   3.919  13.016 -0.7718  1.7460  1.5214
  4574G12c C02G84952  11.373   3.860  12.883 -0.9374  0.3776 -1.2545
  4574G12c H01784953  11.291   3.845  12.812  4.0638 -8.9568 -6.0479
  4574G12c H01684954  11.435   3.928  12.824  0.5500 -0.7132 -0.9565
  4574G12c H01584955  11.427   3.766  12.891  5.0139  3.8856  3.1941
  4574G12c C02E84956  11.577   3.931  13.063  0.9792 -0.1243 -0.3257
  4574G12c H01884957  11.604   3.928  12.958  1.6087 -0.6574 -0.1508
  4574G12c C01F84958  12.127   3.538  13.004 -1.3046 -0.4712 -2.0569
  4574G12c C01G84959  12.135   3.581  13.136 -1.4000  0.8768 -1.6357
  4574G12c H00L84960  12.040   3.573  13.188  0.9089  3.0693  3.1773
  4574G12c C01H84961  12.280   3.598  13.175  0.6420  0.5083 -1.2513
  4574G12c H00B84962  12.288   3.573  13.280 -5.2920  3.7049  0.1652
  4574G12c C01I84963  12.390   3.611  13.086  0.5121  0.3407 -1.7175
  4574G12c C01U84964  12.240   3.551  12.912  0.2927  0.1638 -0.6568
  4574G12c C00S84965  12.471   3.175  12.576 -0.7697  0.5378  1.7728
  4574G12c C00K84966  12.574   3.344  12.695  0.9208  1.2756  0.7786
  4574G12c C00N84967  12.241   3.459  12.798  1.9287 -1.9421  1.8814
  4574G12c C00084968  12.352   3.616  12.954 -0.5813 -0.7140  1.0803
  4574G12c C01J84969  12.521   3.566  13.065  0.3154 -0.2522 -1.2143
  4574G12c C01K84970  12.623   3.563  13.178 -0.2659  0.6079  0.9504
  4574G12c C01P84971  12.634   3.632  13.307  1.4830 -1.4677  1.4753
  4574G12c C01Q84972  12.510   3.701  13.370 -1.5032 -0.6723  0.6810
  4574G12c H00G84973  12.495   3.802  13.336 -2.1296 -2.0469 -3.4424
  4574G12c C01R84974  12.464   3.638  13.486 -0.6553  1.2681  1.7302
  4574G12c H00F84975  12.479   3.531  13.491 -0.1178  0.8407 -4.4316
  4574G12c C01S84976  12.454   3.691  13.612 -0.5504  1.8593  2.1525
  4574G12c H00E84977  12.353   3.660  13.637 -0.0775  1.6412  3.9018
  4574G12c H00D84978  12.501   3.613  13.672  1.7800 -0.2938 -2.2316
  4574G12c O00584979  12.507   3.817  13.604  1.1712  1.1541  0.4614
  4574G12c H00C84980  12.570   3.841  13.538  0.1542 -2.8908 -2.1580
  4574G12c C01O84981  12.747   3.651  13.366 -0.0223  0.7184  0.4089
  4574G12c H00H84982  12.759   3.732  13.436  3.7708  1.3874 -0.8908
  4574G12c C01N84983  12.851   3.571  13.361  1.2279  1.2955  0.0233
  4574G12c O00684984  12.966   3.590  13.451 -0.6629 -0.4747 -0.5655
  4574G12c C01T84985  12.985   3.473  13.516 -1.4021 -0.9271 -0.3861
  4574G12c H00K84986  12.917   3.389  13.513 -0.6841 -1.6820  2.4114
  4574G12c H00J84987  12.998   3.488  13.623  6.3707  1.1399 -1.3146
  4574G12c H00I84988  13.084   3.449  13.476 -1.0884 -1.1639  0.5142
  4574G12c C01M84989  12.845   3.485  13.236 -0.3707 -1.6485 -0.1188
  4574G12c C02084990  12.688   3.371  12.784 -0.5630 -0.3700 -0.2979
  4574G12c C02184991  12.809   3.326  12.763 -1.7352  0.5536  0.8445
  4574G12c C01L84992  12.742   3.497  13.125 -1.2370  0.3138  0.2170
  4574G12c O00784993  12.943   3.375  13.244  0.4223 -0.7517 -0.0302
  4574G12c C02284994  12.914   3.336  12.862 -0.1353 -1.1951 -0.1192
  4574G12c C02384995  12.834   3.220  12.670  0.6106 -1.3966  0.3122
  4574G12c C00G84996  12.840   2.952  12.644  1.1256  1.2550 -0.1370
  4574G12c C00E84997  12.910   2.725  12.723  0.5538  0.1431  1.4665
  4574G12c O00A84998  12.872   2.599  12.760  0.6370 -1.2991 -0.4650
  4574G12c C02484999  12.879   2.561  12.892 -1.8234 -1.1324  1.0317
  4574G12c H00V85000  12.817   2.608  12.968 -1.8919 -6.5503  4.5576
  4574G12c H00U85001  12.843   2.459  12.878 -3.1659 -0.1834 -3.2127
  4574G12c H00T85002  12.985   2.553  12.920 -1.7036  2.4723  1.8497
  4584G12c C00D85003  10.228   5.641   9.973  0.8818  0.0713  1.0158
  4584G12c O00B85004  10.178   5.627   9.839  0.2072 -0.1211  0.1712
  4584G12c C02585005  10.282   5.601   9.736  0.2184 -0.0318  0.6837
  4584G12c C02685006  10.212   5.518   9.625 -0.3423 -0.3976  0.4737
  4584G12c H00Y85007  10.164   5.422   9.638 -4.8502  1.6700 -0.1427
  4584G12c H00X85008  10.299   5.516   9.560 -1.8600  2.3846 -1.7431
  4584G12c O00C85009  10.112   5.606   9.587 -2.0150  0.4464  0.8393
  4584G12c H00W85010  10.049   5.611   9.657  0.8199  4.7906  3.3852
  4584G12c C02785011  10.413   5.653   9.730  0.4665  1.4727 -0.6146
  4584G12c O00D85012  10.469   5.731   9.832 -0.3326 -0.4972 -1.4224
  4584G12c H00Z85013  10.558   5.703   9.850 -1.6995 -1.7900  4.5690
  4584G12c C02885014  10.499   5.617   9.617 -0.9091 -1.2941 -3.2262
  4584G12c C02985015  10.584   5.498   9.609  0.1164  0.5019 -1.0488
  4584G12c H01085016  10.574   5.430   9.693 -0.3543  1.1503 -0.5751
  4584G12c C02T85017  10.642   5.460   9.490  0.5985  1.9369  0.5326
  4584G12c H01O85018  10.678   5.358   9.479 -1.1748  1.1942  1.4054
  4584G12c C02S85019  10.632   5.547   9.381 -0.1306  0.3858  0.6198
  4584G12c O00J85020  10.724   5.519   9.293 -0.8349  1.5792  0.8316
  4584G12c H01P85021  10.749   5.597   9.246 -4.4998  1.2553 -1.9072
  4584G12c C02R85022  10.560   5.669   9.392 -0.9036  0.1615 -1.3633
  4584G12c O00I85023  10.580   5.784   9.300 -1.4381  1.0635  0.7888
  4584G12c C02Q85024  10.572   5.727   9.171  1.3905  1.0241  0.2256
  4584G12c H01N85025  10.670   5.720   9.124  2.4445  2.0533  2.2341
  4584G12c H01R85026  10.506   5.641   9.155  2.4109 -0.1475  2.2260
  4584G12c H01Q85027  10.519   5.782   9.093 -6.5066 -7.5972 -1.4690
  4584G12c C02A85028  10.479   5.695   9.509 -0.8345  0.3604 -0.4519
  4584G12c H01185029  10.406   5.771   9.484 -4.1250 -0.0266  6.7234
  4584G12c C00C85030  10.175   5.749  10.053  0.5361 -2.0416 -0.9837
  4584G12c H01285031  10.108   5.832  10.033  2.8381 -0.0957 -0.8285
  4584G12c C00B85032  10.228   5.756  10.185  0.0331 -0.6561  0.7175
  4584G12c C00A85033  10.176   5.832  10.303  1.5641 -1.4118 -0.5514
  4584G12c C00985034  10.108   5.954  10.300  0.6455  0.6120 -0.9268
  4584G12c C00885035  10.074   6.036  10.188  0.1916 -0.5918  0.2536
  4584G12c H01385036  10.074   5.994  10.089  1.9230 -3.1384  1.2764
  4584G12c C00785037  10.080   6.175  10.192  0.5822 -1.0927 -0.3335
  4584G12c H01485038  10.090   6.225  10.097  4.6701 -0.2473  0.4372
  4584G12c C00685039  10.089   6.237  10.316 -1.1112 -1.6578 -0.9094
  4584G12c C00585040  10.121   6.154  10.432  0.6074  0.1787  1.0660
  4584G12c C00485041  10.216   6.196  10.527 -0.0176 -0.4203 -0.9117
  4584G12c C00385042  10.275   6.106  10.619  1.2341  0.0115  0.7640
  4584G12c C00285043  10.363   6.166  10.711 -1.3860  1.3314 -1.2187
  4584G12c C00185044  10.452   6.124  10.820 -1.4219 -0.8460  0.8890
  4584G12c C00M85045  10.563   6.020  10.810  2.8183 -0.0744 -1.1688
  4584G12c C00L85046  10.513   5.908  10.752 -0.4941  1.0674 -0.8785
  4584G12c C00R85047  10.614   5.815  10.691 -0.0907  0.4333  1.1558
  4584G12c C00Q85048  10.756   5.784  10.717  0.9904 -2.4178 -0.4898
  4584G12c C00V85049  10.811   5.708  10.616 -1.6463  1.8223  1.4898
  4584G12c C00U85050  10.734   5.661  10.498  0.3091 -0.3191 -1.2822
  4584G12c C00T85051  10.601   5.657  10.490 -0.2757 -1.9236 -0.3507
  4584G12c C01685052  10.528   5.647  10.373 -0.0706  0.3884  0.6434
  4584G12c C01585053  10.597   5.573  10.275 -1.0973  0.1853 -0.2715
  4584G12c C01085054  10.734   5.545  10.280 -0.6405 -0.7399 -0.3705
  4584G12c C01185055  10.803   5.465  10.177 -0.4872 -1.3647 -2.5713
  4584G12c H00585056  10.905   5.435  10.192 -0.5609 -0.7115 -0.7068
  4584G12c C01285057  10.728   5.422  10.064  0.7099  1.8796 -0.1028
  4584G12c C01785058  10.802   5.365   9.963 -0.2585 -0.4376 -0.9427
  4584G12c O00285059  10.793   5.232   9.974 -0.6726  1.3729  0.4856
  4584G12c H00485060  10.750   5.192  10.048  1.4565 -6.1521 -1.9256
  4584G12c C01885061  10.857   5.431   9.864 -1.6954 -2.2930  0.2577
  4584G12c O00185062  10.891   5.563   9.881  0.1840  0.1606  0.6636
  4584G12c H00385063  10.984   5.556   9.871  0.9066  4.0524  3.3253
  4584G12c C01985064  10.938   5.345   9.743 -0.8543 -0.2276 -0.4184
  4584G12c H00285065  10.980   5.265   9.804  3.1203 -2.4621 -5.6586
  4584G12c H00185066  10.871   5.285   9.682  0.7898  0.2189 -2.7406
  4584G12c O00085067  11.039   5.441   9.719 -0.3039  0.3420 -0.9200
  4584G12c C01A85068  11.128   5.365   9.660 -0.1708  0.8417  0.0874
  4584G12c C02K85069  11.225   5.309   9.735  0.0009  0.8919  0.1264
  4584G12c O00G85070  11.267   5.366   9.851  0.1891  0.1999  1.6944
  4584G12c C02M85071  11.205   5.318   9.992 -1.0419  0.1913  0.2810
  4584G12c H01G85072  11.100   5.331  10.018 -1.7495 -5.4278  0.7589
  4584G12c H01F85073  11.225   5.377  10.081  0.2735 -1.4982  1.1389
  4584G12c H01E85074  11.226   5.218  10.030 -2.2871  1.2633  3.9079
  4584G12c C02J85075  11.306   5.200   9.685  0.3534 -0.8186  0.0575
  4584G12c H01H85076  11.385   5.147   9.735  5.1986 -1.0236 -7.0696
  4584G12c C02I85077  11.271   5.159   9.546  0.4245 -1.3635 -0.4984
  4584G12c C02N85078  11.333   5.033   9.516 -0.6979 -0.4479 -0.7472
  4584G12c H01M85079  11.322   4.946   9.579  0.7128 -0.4597 -0.4816
  4584G12c C02O85080  11.398   5.019   9.404 -0.0549  0.9650 -0.6851
  4584G12c H01L85081  11.425   4.914   9.395  2.9681  1.5957  0.4397
  4584G12c C02P85082  11.470   5.109   9.313  0.3686 -0.2980  0.7162
  4584G12c H01K85083  11.405   5.092   9.226 -6.3204 -6.9121  6.2336
  4584G12c H01J85084  11.457   5.216   9.327 -0.5541 -0.9074  5.4626
  4584G12c O00H85085  11.577   5.034   9.258  1.1227  0.2160 -0.0687
  4584G12c H01I85086  11.644   5.092   9.225  5.0020 -1.6942  3.9950
  4584G12c C02H85087  11.176   5.225   9.461  1.9773 -0.4549 -1.7475
  4584G12c H01C85088  11.124   5.182   9.377  4.9982 -1.8669 -2.9453
  4584G12c C02L85089  11.112   5.331   9.516  0.1290 -0.3852  1.5026
  4584G12c H01D85090  11.046   5.407   9.476  2.3001  0.5620 -0.4336
  4584G12c C01385091  10.593   5.468  10.029 -1.7864  1.2567  0.3047
  4584G12c H00085092  10.568   5.449   9.926  3.4424 -0.6581 -0.7593
  4584G12c C01485093  10.524   5.536  10.146 -0.3779  0.0883 -1.0655
  4584G12c C00F85094  10.394   5.591  10.142  0.1606  0.9405 -1.7211
  4584G12c C00H85095  10.393   5.677  10.357  0.9950 -1.7822  0.8402
  4584G12c C00I85096  10.335   5.751  10.464 -0.6293 -0.0378  0.6055
  4584G12c C00J85097  10.419   5.780  10.583 -1.3326  0.0816 -1.1882
  4584G12c C00Z85098  10.796   5.578  10.405 -0.3155  0.3254  0.6366
  4584G12c C00Y85099  10.929   5.543  10.415 -1.7465 -0.5345 -1.1510
  4584G12c H00685100  10.986   5.479  10.349  2.0179  1.3236  0.1593
  4584G12c C00X85101  11.007   5.589  10.525  1.5534 -0.1421 -1.3381
  4584G12c O00385102  11.148   5.542  10.524  1.2956  1.0593 -0.3362
  4584G12c C01B85103  11.243   5.644  10.534  0.5652  0.2716 -1.3112
  4584G12c H00985104  11.254   5.725  10.606 -5.3073  4.8090 -5.0459
  4584G12c H00885105  11.268   5.721  10.460  2.0682  2.4791  1.3895
  4584G12c H00785106  11.320   5.581  10.578 -2.4955 -0.4582  3.3312
  4584G12c C00W85107  10.955   5.682  10.617 -0.5799  1.4387  0.2882
  4584G12c O00485108  11.035   5.720  10.709  0.0097  0.6758 -1.9553
  4584G12c C01C85109  10.988   5.824  10.783  0.0255 -0.0837  0.6679
  4584G12c H00A85110  11.074   5.882  10.813  0.1333  0.4428 -0.6186
  4584G12c C00P85111  10.853   5.867  10.784 -0.3193  0.3063 -0.1427
  4584G12c C00O85112  10.825   5.992  10.845 -1.6654  1.9315 -0.6139
  4584G12c C01D85113  10.921   6.090  10.889 -1.4844  0.1535 -0.3299
  4584G12c H00S85114  10.991   6.020  10.930 -7.4009 -4.7186  2.2293
  4584G12c C01E85115  10.906   6.225  10.837  1.6539 -0.4026 -0.7489
  4584G12c O00885116  11.015   6.288  10.777 -0.2057  0.2916  0.2860
  4584G12c C01V85117  11.109   6.334  10.861 -0.3757  1.7313 -0.7493
  4584G12c C01Z85118  11.088   6.381  10.999 -0.3883 -2.1565  0.8153
  4584G12c H00R85119  11.149   6.467  11.030  1.8177 -3.6451  0.7408
  4584G12c H00Q85120  10.987   6.417  11.017 -0.8758 -2.9723 -0.3368
  4584G12c O00985121  11.125   6.282  11.102 -1.4806  0.3813 -1.1469
  4584G12c H00P85122  11.070   6.280  11.178  3.9141 -4.0757  3.0263
  4584G12c C01W85123  11.228   6.279  10.837  1.1694  1.1426 -1.3165
  4584G12c H00O85124  11.230   6.204  10.760  6.1903  0.8033 -1.0686
  4584G12c C01X85125  11.356   6.285  10.924  1.9286  0.7037 -0.2764
  4584G12c H00N85126  11.322   6.331  11.017 -1.4394 -2.4040  0.1482
  4584G12c H00M85127  11.380   6.183  10.954 -3.7796  1.0228  6.9701
  4584G12c C01Y85128  11.465   6.363  10.853 -0.0252 -0.6835  0.5704
  4584G12c C02D85129  11.439   6.457  10.759 -0.2695 -0.1949 -1.1679
  4584G12c H01985130  11.338   6.483  10.731 -0.7010  1.2062  1.4695
  4584G12c C02C85131  11.551   6.520  10.705  0.4887 -1.0430  1.9329
  4584G12c H01A85132  11.502   6.572  10.624 -2.4617 -5.5106  0.7139
  4584G12c C02B85133  11.685   6.512  10.756 -1.3474 -2.3620  0.4298
  4584G12c O00E85134  11.777   6.588  10.695 -0.5303 -2.1854 -0.0207
  4584G12c H01B85135  11.725   6.642  10.637 -7.1419 -2.1130  5.3808
  4584G12c C02F85136  11.700   6.436  10.876 -0.3370 -0.3990  2.0454
  4584G12c O00F85137  11.810   6.435  10.961 -0.3537  0.1184 -0.7134
  4584G12c C02G85138  11.949   6.475  10.929 -0.1084  0.0637  0.2555
  4584G12c H01785139  11.953   6.549  11.009  2.6794 -3.7841  3.9169
  4584G12c H01685140  12.047   6.438  10.960  1.6457 -2.6787 -7.3158
  4584G12c H01585141  11.981   6.527  10.839 -0.1271  3.5454  2.2042
  4584G12c C02E85142  11.581   6.367  10.921 -0.2091  1.1599  0.7868
  4584G12c H01885143  11.613   6.310  11.007 -4.9806  1.1565  2.7286
  4584G12c C01F85144  10.777   6.273  10.836  0.4363  1.5097 -0.0838
  4584G12c C01G85145  10.736   6.411  10.798 -0.1174  0.9132 -0.6057
  4584G12c H00L85146  10.822   6.475  10.787 -1.9697  2.7943 -4.8920
  4584G12c C01H85147  10.598   6.442  10.749  0.9343  1.0258 -0.3679
  4584G12c H00B85148  10.573   6.518  10.677 -0.3004  2.9925  2.0308
  4584G12c C01I85149  10.484   6.362  10.796  0.8791  1.6365  0.0211
  4584G12c C01U85150  10.664   6.194  10.872  0.4220 -0.9324  2.0223
  4584G12c C00S85151  10.547   5.736  10.595  1.0331  1.2525 -2.5833
  4584G12c C00K85152  10.408   5.904  10.658 -0.8831 -1.1633  0.2849
  4584G12c C00N85153  10.697   6.056  10.840 -1.0563 -0.9192  0.8064
  4584G12c C00085154  10.529   6.228  10.862  0.4679  0.3592 -0.6584
  4584G12c C01J85155  10.378   6.317  10.701  1.9433 -1.0882 -0.9340
  4584G12c C01K85156  10.292   6.415  10.637  0.5078  0.1526 -1.4165
  4584G12c C01P85157  10.253   6.561  10.658  1.0561 -0.5085  1.5168
  4584G12c C01Q85158  10.311   6.645  10.759 -0.7479 -0.0534  0.1680
  4584G12c H00G85159  10.403   6.701  10.767  0.1524 -1.8956  3.5504
  4584G12c C01R85160  10.221   6.696  10.844  2.2252  0.9501  0.5197
  4584G12c H00F85161  10.117   6.665  10.842  1.3349  3.8662 -1.0336
  4584G12c C01S85162  10.228   6.803  10.965  0.2946  0.6293 -0.4270
  4584G12c H00E85163  10.336   6.811  10.980  1.2529 -3.2795 -3.9139
  4584G12c H00D85164  10.184   6.902  10.961  1.7998  1.2740 -1.4109
  4584G12c O00585165  10.162   6.749  11.086 -0.6140 -0.2557 -1.1929
  4584G12c H00C85166  10.200   6.697  11.155 -3.2073 -2.3329 -1.2358
  4584G12c C01O85167  10.180   6.619  10.562 -1.2829 -0.6979 -0.4004
  4584G12c H00H85168  10.165   6.720  10.599 -3.7761 -0.8447 -0.9373
  4584G12c C01N85169  10.125   6.547  10.462  0.2423  0.6882  1.0196
  4584G12c O00685170  10.059   6.620  10.361  0.0813  0.6070 -0.3629
  4584G12c C01T85171  10.122   6.746  10.321  0.4597  1.0842  0.8040
  4584G12c H00K85172  10.096   6.828  10.389  1.3671  3.8169 -2.0368
  4584G12c H00J85173  10.086   6.807  10.238  5.5572  2.7924 -0.3498
  4584G12c H00I85174  10.229   6.749  10.305  0.8886 -7.8867 -0.4841
  4584G12c C01M85175  10.149   6.411  10.457 -1.5917 -1.0949 -1.1974
  4584G12c C02085176  10.283   5.974  10.613 -0.3072  1.5674 -1.1184
  4584G12c C02185177  10.200   5.931  10.509  0.4022 -0.2022 -1.3951
  4584G12c C01L85178  10.227   6.333  10.540  0.2715 -0.8391  0.2488
  4584G12c O00785179  10.091   6.368  10.340 -0.4507 -0.1082 -0.8834
  4584G12c C02285180  10.121   6.010  10.435  0.4951  0.5911  0.9489
  4584G12c C02385181  10.214   5.809  10.437 -1.1809 -0.7668  0.3864
  4584G12c C00G85182  10.319   5.667  10.236  0.9851 -2.2570 -0.4272
  4584G12c C00E85183  10.322   5.544  10.034  0.9130  0.3606  1.7778
  4584G12c O00A85184  10.359   5.436   9.967  0.4428  0.8879  0.4275
  4584G12c C02485185  10.278   5.318   9.995 -0.9398  0.1359 -0.4161
  4584G12c H00V85186  10.315   5.217  10.016  8.9266  2.4547 -3.7173
  4584G12c H00U85187  10.201   5.313  10.072  0.9805 -4.8134  1.4008
  4584G12c H00T85188  10.224   5.310   9.902  1.2941  2.8123 -2.0257
  4594G12c C00D85189  13.380   1.292   6.551  0.5732  1.3523 -0.0979
  4594G12c O00B85190  13.301   1.324   6.438 -0.3297 -1.1102  0.4211
  4594G12c C02585191  13.294   1.458   6.398 -1.2044  0.2050  0.0535
  4594G12c C02685192  13.165   1.514   6.459 -1.3661  1.4174  0.3782
  4594G12c H00Y85193  13.173   1.494   6.566  2.5182  3.4833  0.5940
  4594G12c H00X85194  13.066   1.476   6.435  0.3897 -4.5029  1.8595
  4594G12c O00C85195  13.155   1.648   6.432 -1.6199 -0.5107  0.8747
  4594G12c H00W85196  13.130   1.683   6.516 -4.9751  3.4918 -1.6181
  4594G12c C02785197  13.395   1.513   6.328  0.6183  0.7925  1.9505
  4594G12c O00D85198  13.402   1.652   6.320 -1.5717  0.6463 -0.5416
  4594G12c H00Z85199  13.324   1.698   6.293 -1.5661  0.3795 -1.0068
  4594G12c C02885200  13.507   1.439   6.296 -0.0443  0.8012  1.5843
  4594G12c C02985201  13.549   1.326   6.215  2.2461 -1.1390  1.6424
  4594G12c H01085202  13.474   1.252   6.194  2.3435 -1.0080  0.8406
  4594G12c C02T85203  13.673   1.255   6.213  0.5944 -2.1393 -0.2649
  4594G12c H01O85204  13.689   1.178   6.140 -5.4182  0.1677 -4.3790
  4594G12c C02S85205  13.783   1.328   6.275  0.0809 -1.1729  1.3877
  4594G12c O00J85206  13.898   1.261   6.294  0.2639  1.3797  0.4254
  4594G12c H01P85207  13.897   1.173   6.329 -1.3746  0.8463 -0.9273
  4594G12c C02R85208  13.762   1.441   6.343  0.1689 -0.0836 -1.3693
  4594G12c O00I85209  13.856   1.515   6.412 -0.0695  0.4441  0.5667
  4594G12c C02Q85210  13.897   1.461   6.533  1.3689  0.1833 -0.4548
  4594G12c H01N85211  14.006   1.465   6.525  1.3872  0.8990  0.1671
  4594G12c H01R85212  13.878   1.363   6.577  4.7526  3.8056 10.4973
  4594G12c H01Q85213  13.868   1.517   6.621  1.4271 -1.8805  0.9144
  4594G12c C02A85214  13.627   1.494   6.346 -0.2742 -0.7484 -0.9000
  4594G12c H01185215  13.632   1.564   6.427  4.6713  3.4509 -4.5453
  4594G12c C00C85216  13.436   1.390   6.637 -1.0781 -0.6386 -1.2279
  4594G12c H01285217  13.380   1.482   6.630  1.1321  0.6311 -3.2425
  4594G12c C00B85218  13.555   1.381   6.701 -0.5007  0.2244 -0.2733
  4594G12c C00A85219  13.649   1.495   6.756 -0.6257 -1.2370  0.9856
  4594G12c C00985220  13.648   1.640   6.735  0.7879 -0.9001  0.5498
  4594G12c C00885221  13.603   1.739   6.632 -1.2318 -0.4557  0.1340
  4594G12c H01385222  13.503   1.710   6.604 -2.0997 -0.1079  2.6997
  4594G12c C00785223  13.666   1.865   6.620 -0.3916 -0.1980 -1.2326
  4594G12c H01485224  13.613   1.951   6.582 -1.0902  3.8446  7.5384
  4594G12c C00685225  13.776   1.902   6.697  0.3834 -2.2772 -0.3763
  4594G12c C00585226  13.842   1.795   6.757  0.1011  0.2831 -1.4142
  4594G12c C00485227  13.968   1.793   6.819  0.1371  0.5032  0.4164
  4594G12c C00385228  14.009   1.686   6.895  0.4862 -2.4961 -1.7442
  4594G12c C00285229  14.154   1.701   6.943 -0.9334 -1.2897  0.2668
  4594G12c C00185230  14.257   1.605   6.995 -1.2695 -1.3110 -0.3667
  4594G12c C00M85231  14.251   1.453   6.962 -0.4586  0.3446 -0.8522
  4594G12c C00L85232  14.142   1.374   6.963  0.8821 -0.4371  0.7530
  4594G12c C00R85233  14.140   1.252   6.892  0.5524 -1.7040 -0.4346
  4594G12c C00Q85234  14.252   1.170   6.823  0.3174 -0.3272 -0.0026
  4594G12c C00V85235  14.190   1.053   6.748 -0.2514 -0.0187 -0.2654
  4594G12c C00U85236  14.047   1.021   6.743  0.7016 -1.1254  0.4230
  4594G12c C00T85237  13.960   1.112   6.789 -0.2907 -0.0231 -0.7513
  4594G12c C01685238  13.828   1.123   6.758  1.3946  2.2033 -1.8198
  4594G12c C01585239  13.784   1.026   6.669 -0.4372  1.8296 -0.0623
  4594G12c C01085240  13.865   0.917   6.648  1.5322  0.9073 -0.0979
  4594G12c C01185241  13.805   0.802   6.580  1.1188 -1.2807  0.0363
  4594G12c H00585242  13.828   0.701   6.546  0.0786 -3.7195  6.0365
  4594G12c C01285243  13.669   0.802   6.532 -0.7025 -1.1736 -1.9194
  4594G12c C01785244  13.595   0.697   6.475  1.0885 -0.7141 -1.3661
  4594G12c O00285245  13.602   0.690   6.339 -0.7800 -0.7496  0.6371
  4594G12c H00485246  13.615   0.766   6.285 -3.2454 -2.1030 -1.9785
  4594G12c C01885247  13.594   0.579   6.542  1.4576 -0.1626 -0.0472
  4594G12c O00185248  13.518   0.481   6.475  1.2438  1.0456 -0.2484
  4594G12c H00385249  13.488   0.462   6.388 -1.6208 -0.7405  1.0381
  4594G12c C01985250  13.626   0.544   6.682  0.3191 -0.0144  0.3157
  4594G12c H00285251  13.726   0.510   6.655 -0.4855 -2.0474 -0.1821
  4594G12c H00185252  13.635   0.636   6.740  9.3080  2.4035 -4.1029
  4594G12c O00085253  13.540   0.481   6.779  0.3833  0.3700 -0.7382
  4594G12c C01A85254  13.607   0.426   6.885  0.4655  0.7685  0.2446
  4594G12c C02K85255  13.738   0.437   6.930  0.7774  0.9530 -0.0076
  4594G12c O00G85256  13.831   0.521   6.889 -0.1516  0.4215  0.7872
  4594G12c C02M85257  13.967   0.495   6.886 -0.5020 -0.5432  0.0864
  4594G12c H01G85258  14.023   0.453   6.970  5.3874  3.7021 -1.4552
  4594G12c H01F85259  13.988   0.409   6.822  0.8586  3.0735 -4.5727
  4594G12c H01E85260  14.020   0.547   6.807 -2.2296 -1.1697 -1.5207
  4594G12c C02J85261  13.772   0.327   7.020 -0.0287  1.1812  2.3281
  4594G12c H01H85262  13.864   0.320   7.077  0.7068 -0.9600  0.9794
  4594G12c C02I85263  13.671   0.236   7.064 -0.2398 -0.3021  0.6528
  4594G12c C02N85264  13.716   0.152   7.174 -0.5351  0.1251 -1.0200
  4594G12c H01M85265  13.702   0.214   7.262  0.9550 -0.1657 -0.5635
  4594G12c C02O85266  13.809   0.059   7.151 -0.2329  1.9160 -0.4168
  4594G12c H01L85267  13.802   0.009   7.056 -5.1391 -5.3039  3.2856
  4594G12c C02P85268  13.908   0.012   7.261 -0.6640  0.4913  0.0085
  4594G12c H01K85269  13.874  -0.091   7.278 -5.1010  1.3164 -3.0868
  4594G12c H01J85270  13.907   0.079   7.346  5.2134  5.7972 -3.7359
  4594G12c O00H85271  14.011  -0.006   7.184 -0.0940  0.7450  0.3183
  4594G12c H01I85272  14.005  -0.072   7.116  2.5480  4.4125 -3.7692
  4594G12c C02H85273  13.549   0.233   6.994 -1.1664  0.5787 -0.0325
  4594G12c H01C85274  13.471   0.170   7.034 -0.9987 -0.1360 -0.8174
  4594G12c C02L85275  13.509   0.344   6.927  1.7962  0.1081  0.4305
  4594G12c H01D85276  13.414   0.340   6.876  0.4437  7.8927  1.6166
  4594G12c C01385277  13.599   0.920   6.550 -1.2737  0.2625 -0.9077
  4594G12c H00085278  13.495   0.915   6.521 -1.3811  0.7955 -0.6112
  4594G12c C01485279  13.654   1.026   6.613 -0.5452 -0.6290  0.1977
  4594G12c C00F85280  13.578   1.149   6.629  0.8684 -2.0779  0.2811
  4594G12c C00H85281  13.751   1.242   6.777  0.1931  1.9267  0.9976
  4594G12c C00I85282  13.811   1.339   6.849 -1.1856 -0.1046  0.7549
  4594G12c C00J85283  13.939   1.320   6.916 -1.0342 -2.2320  0.5602
  4594G12c C00Z85284  14.002   0.908   6.682 -0.9387  1.3702  1.0715
  4594G12c C00Y85285  14.084   0.808   6.642  1.4685 -1.9855 -0.4504
  4594G12c H00685286  14.049   0.713   6.604 -1.7826  0.2005 -3.2500
  4594G12c C00X85287  14.223   0.837   6.622 -1.4847 -1.0474 -0.3092
  4594G12c O00385288  14.304   0.745   6.562  0.0801 -1.2701  0.4508
  4594G12c C01B85289  14.259   0.674   6.437 -0.3987  0.9166  0.1871
  4594G12c H00985290  14.204   0.748   6.380  3.7926  4.0518 -0.0527
  4594G12c H00885291  14.201   0.586   6.464 -0.7383  0.4058 -2.0937
  4594G12c H00785292  14.357   0.666   6.391  2.5332 -6.7727  6.4674
  4594G12c C00W85293  14.276   0.956   6.686  1.2711  1.0542 -1.1716
  4594G12c O00485294  14.407   0.976   6.662 -0.7649  0.6403  0.8443
  4594G12c C01C85295  14.481   1.089   6.717 -0.5077  1.7185  1.4638
  4594G12c H00A85296  14.588   1.101   6.710 -0.4191 -1.0088 -4.9116
  4594G12c C00P85297  14.394   1.186   6.795 -0.0965 -0.8563 -0.6252
  4594G12c C00O85298  14.432   1.326   6.792 -0.4391  0.3952  1.3258
  4594G12c C01D85299  14.524   1.362   6.709 -0.5932  0.3450  0.3579
  4594G12c H00S85300  14.584   1.285   6.663 -0.4465 -1.2804  3.1094
  4594G12c C01E85301  14.580   1.500   6.700 -0.3889  1.4137 -0.3586
  4594G12c O00885302  14.674   1.512   6.599  0.1543  0.2538 -0.2844
  4594G12c C01V85303  14.654   1.568   6.484  0.1102 -0.5807 -0.1624
  4594G12c C01Z85304  14.768   1.666   6.441  0.9607 -1.0252 -0.7665
  4594G12c H00R85305  14.870   1.666   6.479  0.7149  0.9760 -0.0516
  4594G12c H00Q85306  14.747   1.749   6.509 -6.1497 -4.5485  1.8955
  4594G12c O00985307  14.725   1.729   6.320 -0.2967 -0.2882  0.2100
  4594G12c H00P85308  14.699   1.673   6.249 -0.1609  0.9118 -0.7899
  4594G12c C01W85309  14.525   1.532   6.437  0.0938 -2.8253  0.6037
  4594G12c H00O85310  14.466   1.457   6.488 -0.1373 -4.6360 -2.2181
  4594G12c C01X85311  14.446   1.557   6.299  0.1317 -0.8136  0.4772
  4594G12c H00N85312  14.346   1.571   6.341 -1.1525 -4.4005 -1.1888
  4594G12c H00M85313  14.445   1.648   6.240  5.2603 -2.9364 -3.2096
  4594G12c C01Y85314  14.464   1.443   6.197 -1.6317 -1.1622  0.6670
  4594G12c C02D85315  14.585   1.376   6.169  0.4269  0.1872  1.5106
  4594G12c H01985316  14.675   1.435   6.176 -0.2971  3.0467 -7.1336
  4594G12c C02C85317  14.575   1.237   6.122  0.1193 -0.9130 -1.0554
  4594G12c H01A85318  14.672   1.219   6.079  3.1289  5.3628  2.3670
  4594G12c C02B85319  14.463   1.194   6.046 -0.6215 -0.7598 -1.6196
  4594G12c O00E85320  14.462   1.097   5.959  0.1906 -0.4053  0.4123
  4594G12c H01B85321  14.368   1.110   5.954 -0.1235 -2.6336 -0.2647
  4594G12c C02F85322  14.348   1.284   6.038  1.9581 -2.4848  0.8135
  4594G12c O00F85323  14.250   1.246   5.953  0.0976 -0.0156  0.2481
  4594G12c C02G85324  14.121   1.319   5.978  0.5693  0.0525  2.1174
  4594G12c H01785325  14.038   1.249   5.989  2.7142 -2.0005  7.2506
  4594G12c H01685326  14.099   1.423   5.953 -0.0454 -0.9163 -1.7127
  4594G12c H01585327  14.110   1.305   6.086 -1.8830  0.2880  1.9296
  4594G12c C02E85328  14.350   1.383   6.142 -1.1174  0.2319 -0.3469
  4594G12c H01885329  14.250   1.425   6.145 -2.7389 -3.4887  2.9178
  4594G12c C01F85330  14.526   1.603   6.770  1.6883 -0.4866  0.4368
  4594G12c C01G85331  14.564   1.750   6.738  0.2933 -1.2324 -0.3370
  4594G12c H00L85332  14.636   1.771   6.660  4.3881  0.9505  3.8070
  4594G12c C01H85333  14.482   1.850   6.804 -0.0643  1.9930  1.0380
  4594G12c H00B85334  14.514   1.944   6.762  1.0891  0.9171 -0.5454
  4594G12c C01I85335  14.375   1.800   6.893 -1.8640 -0.1934  0.1627
  4594G12c C01U85336  14.425   1.558   6.853 -1.3728 -1.5987 -0.0401
  4594G12c C00S85337  14.012   1.217   6.872 -0.3625  0.1505 -0.3760
  4594G12c C00K85338  14.008   1.427   6.958  1.5871  0.0161 -0.3968
  4594G12c C00N85339  14.370   1.437   6.864  0.9285  0.3565  0.3387
  4594G12c C00085340  14.380   1.665   6.933  0.9254  1.7229 -0.7713
  4594G12c C01J85341  14.235   1.822   6.896  0.2095  0.4884 -0.1606
  4594G12c C01K85342  14.175   1.937   6.844  0.6520  0.5754  0.4176
  4594G12c C01P85343  14.221   2.083   6.835 -2.1241  0.1148  1.2817
  4594G12c C01Q85344  14.337   2.135   6.891  0.0900  0.2689 -1.0504
  4594G12c H00G85345  14.432   2.174   6.858 -3.0819  3.4386 -7.4619
  4594G12c C01R85346  14.321   2.115   7.016  0.3003  1.5437  1.1234
  4594G12c H00F85347  14.223   2.092   7.056  1.0803 -3.1164  0.6960
  4594G12c C01S85348  14.428   2.165   7.104 -1.5831 -0.5120  1.2436
  4594G12c H00E85349  14.519   2.206   7.060  1.0069 -4.9606  2.1295
  4594G12c H00D85350  14.377   2.231   7.174  4.5955  5.8626  0.1882
  4594G12c O00585351  14.500   2.052   7.156 -0.8460 -0.1023 -0.9039
  4594G12c H00C85352  14.579   2.084   7.199 -3.1523  5.6298 -0.4693
  4594G12c C01O85353  14.158   2.166   6.738 -0.5828  1.1117  0.2130
  4594G12c H00H85354  14.223   2.245   6.703 -6.1156  4.2185 -3.9319
  4594G12c C01N85355  14.051   2.136   6.667 -0.3359 -0.4021 -0.5193
  4594G12c O00685356  14.004   2.225   6.566 -0.3551 -0.8454  0.2304
  4594G12c C01T85357  13.892   2.289   6.597  0.2335 -0.4771 -0.3890
  4594G12c H00K85358  13.856   2.299   6.495 -1.8677  0.9365  0.4542
  4594G12c H00J85359  13.925   2.392   6.610  4.3848 -2.1792  4.5344
  4594G12c H00I85360  13.819   2.272   6.677 -0.9019  2.4029 -0.7384
  4594G12c C01M85361  13.979   2.031   6.718 -0.1894  2.5191 -1.2524
  4594G12c C02085362  13.940   1.567   6.923  0.9402  1.8137  0.4572
  4594G12c C02185363  13.809   1.565   6.890  0.0796 -0.2953 -0.7944
  4594G12c C01L85364  14.037   1.923   6.797  0.3716 -0.7701 -0.3265
  4594G12c O00785365  13.851   2.022   6.682 -0.6897 -0.4550 -0.1953
  4594G12c C02285366  13.760   1.688   6.818  1.2965  1.9099 -0.0476
  4594G12c C02385367  13.730   1.455   6.862 -1.1475  1.7623  0.0896
  4594G12c C00G85368  13.625   1.256   6.695 -1.4159 -1.7708 -0.4927
  4594G12c C00E85369  13.440   1.166   6.574  0.7194 -0.4143 -0.8096
  4594G12c O00A85370  13.352   1.064   6.526 -0.2458  1.2060  0.9038
  4594G12c C02485371  13.207   1.081   6.553 -0.7200 -1.0361  0.5678
  4594G12c H00V85372  13.167   1.082   6.654  0.7643  1.8918  1.1991
  4594G12c H00U85373  13.150   0.989   6.567 -5.6052  2.4177  5.2185
  4594G12c H00T85374  13.143   1.144   6.492  2.0330  2.9655  1.5994
  4604G12c C00D85375   9.108   5.756   8.711 -0.0033 -0.8820 -1.8195
  4604G12c O00B85376   9.043   5.733   8.584  0.7189  1.2561  0.0006
  4604G12c C02585377   9.075   5.812   8.474  1.1542  0.0831 -0.0387
  4604G12c C02685378   9.054   5.956   8.506  1.4738  0.7186  0.1647
  4604G12c H00Y85379   8.959   5.938   8.556  2.4706  2.1436  2.6655
  4604G12c H00X85380   9.021   6.009   8.417  0.7277  1.0956  0.6644
  4604G12c O00C85381   9.171   6.028   8.537  0.9032  0.4687  0.2641
  4604G12c H00W85382   9.253   6.009   8.494  1.0275 -5.8101  2.6583
  4604G12c C02785383   9.120   5.780   8.360 -0.1931 -0.0816  0.9072
  4604G12c O00D85384   9.126   5.649   8.311  0.3589 -0.5098 -0.6629
  4604G12c H00Z85385   9.176   5.661   8.231 -3.5469  0.7424 -3.0793
  4604G12c C02885386   9.181   5.858   8.264  1.7700  0.6232 -1.4754
  4604G12c C02985387   9.290   5.924   8.282 -0.3237 -0.5686  1.1900
  4604G12c H01085388   9.358   5.907   8.364  2.4179  6.8640  0.9262
  4604G12c C02T85389   9.316   6.022   8.190 -1.4202 -2.4663 -1.5401
  4604G12c H01O85390   9.401   6.088   8.197 -1.0995 -2.7764 -2.4311
  4604G12c C02S85391   9.245   6.039   8.062 -0.2228  0.4559 -2.0228
  4604G12c O00J85392   9.294   6.118   7.951  0.2683  1.4944  0.2486
  4604G12c H01P85393   9.305   6.062   7.876 -2.5960 -5.6873  4.7314
  4604G12c C02R85394   9.139   5.933   8.050 -0.8515 -1.8133  2.1752
  4604G12c O00I85395   9.057   5.947   7.932 -0.1838  0.0921 -1.0811
  4604G12c C02Q85396   8.913   5.987   7.961  0.8072  1.3059 -0.2221
  4604G12c H01N85397   8.887   6.033   7.866  1.0660 -4.4697 -3.3405
  4604G12c H01R85398   8.917   6.043   8.054  2.4575  5.2262 -2.5390
  4604G12c H01Q85399   8.853   5.899   7.986 -1.1366  1.7610 -3.0439
  4604G12c C02A85400   9.106   5.854   8.151 -0.2029 -0.9697 -0.2172
  4604G12c H01185401   9.013   5.803   8.131 -0.4260 -0.1168 -1.4140
  4604G12c C00C85402   9.035   5.801   8.819 -0.3723  0.7967 -0.3392
  4604G12c H01285403   8.927   5.805   8.812 -0.3523  0.1232 -1.0957
  4604G12c C00B85404   9.103   5.833   8.934 -1.0366  1.5992 -0.5698
  4604G12c C00A85405   9.043   5.908   9.041  0.1397 -0.7439  1.2588
  4604G12c C00985406   8.929   5.996   9.025 -1.6222  0.0823  0.3364
  4604G12c C00885407   8.877   6.072   8.909 -2.3588  0.2975  0.3787
  4604G12c H01385408   8.882   6.013   8.819  4.3466 -1.2962  1.5595
  4604G12c C00785409   8.871   6.210   8.913 -1.4700 -0.5404  1.6800
  4604G12c H01485410   8.887   6.255   8.816  1.4065 -1.9324  1.4522
  4604G12c C00685411   8.894   6.290   9.021  0.6363 -1.7185  0.1409
  4604G12c C00585412   8.954   6.218   9.125  2.0027 -0.0216  0.5555
  4604G12c C00485413   9.002   6.298   9.226  0.1687  0.4093  0.1907
  4604G12c C00385414   9.085   6.233   9.322  0.1120  0.3208 -0.7129
  4604G12c C00285415   9.137   6.316   9.422  0.5270 -0.2213  0.1552
  4604G12c C00185416   9.238   6.288   9.533  0.1605  0.0665  1.0191
  4604G12c C00M85417   9.363   6.230   9.499 -1.8158  0.5755 -0.3445
  4604G12c C00L85418   9.371   6.118   9.442 -0.0936  0.0840  0.7520
  4604G12c C00R85419   9.480   6.065   9.384 -1.6573  0.1263  0.7169
  4604G12c C00Q85420   9.623   6.095   9.397 -0.0283  0.2591 -0.3308
  4604G12c C00V85421   9.693   6.024   9.294  0.6755 -0.4854 -0.7790
  4604G12c C00U85422   9.648   5.948   9.188  0.9786  0.2718 -0.7083
  4604G12c C00T85423   9.520   5.907   9.183 -1.8880  1.3838  1.2807
  4604G12c C01685424   9.448   5.852   9.077 -0.4190  0.4171  2.6753
  4604G12c C01585425   9.522   5.822   8.968  0.2014 -1.4741 -1.1383
  4604G12c C01085426   9.665   5.828   8.986  0.8615  1.1039  0.1465
  4604G12c C01185427   9.743   5.785   8.882 -1.1827  2.7056  1.1553
  4604G12c H00585428   9.849   5.799   8.875  0.1784 -6.3959 -3.4796
  4604G12c C01285429   9.690   5.709   8.771 -1.0361  0.8922 -0.7486
  4604G12c C01785430   9.773   5.672   8.656  1.9518  1.1615 -0.1622
  4604G12c O00285431   9.904   5.627   8.682  0.0637  0.6058  1.2322
  4604G12c H00485432   9.904   5.624   8.777 -0.1526 -3.3195  1.1629
  4604G12c C01885433   9.734   5.670   8.517 -0.2038 -0.4565  0.4232
  4604G12c O00185434   9.824   5.627   8.412  0.1467 -0.2163  0.9863
  4604G12c H00385435   9.908   5.669   8.422  0.3222 -1.3345  5.1354
  4604G12c C01985436   9.625   5.755   8.461 -0.2093  0.9587  1.1864
  4604G12c H00285437   9.605   5.714   8.361 -4.1982  2.7298  1.1742
  4604G12c H00185438   9.528   5.757   8.510  0.7576 -3.5082  3.6130
  4604G12c O00085439   9.668   5.893   8.440  0.5949  0.8878  0.1191
  4604G12c C01A85440   9.624   6.005   8.524 -0.9391 -0.1947  0.2712
  4604G12c C02K85441   9.701   6.127   8.494  0.7530 -1.0941 -1.2914
  4604G12c O00G85442   9.796   6.137   8.396 -0.3673 -0.7974  0.3529
  4604G12c C02M85443   9.921   6.137   8.439  0.4084 -0.4996  0.9073
  4604G12c H01G85444   9.924   6.115   8.546 -0.0349 -2.4279  0.5440
  4604G12c H01F85445   9.976   6.052   8.398  1.5730 -0.5967  2.5908
  4604G12c H01E85446   9.983   6.226   8.444  0.3540 -0.1549 -3.3221
  4604G12c C02J85447   9.666   6.246   8.575  0.6234  3.1512 -0.8233
  4604G12c H01H85448   9.713   6.343   8.569  2.8661  2.0001 -2.6090
  4604G12c C02I85449   9.558   6.240   8.674  0.3857 -0.1760  0.6862
  4604G12c C02N85450   9.516   6.370   8.730 -0.7985  0.6047  0.6450
  4604G12c H01M85451   9.587   6.448   8.753 -6.4400  7.2185 -2.5723
  4604G12c C02O85452   9.402   6.387   8.790 -1.2168  0.8711  0.7855
  4604G12c H01L85453   9.314   6.326   8.776 -1.1430  1.3397 -2.2752
  4604G12c C02P85454   9.384   6.491   8.902  2.3250 -0.8700  0.8315
  4604G12c H01K85455   9.425   6.583   8.860  2.9682 -0.0612  3.1924
  4604G12c H01J85456   9.275   6.487   8.894  2.0419  2.5551  2.0360
  4604G12c O00H85457   9.464   6.438   9.007  0.9894  1.1464  1.0129
  4604G12c H01I85458   9.422   6.443   9.092 -3.8054 -1.9499 -0.9641
  4604G12c C02H85459   9.498   6.119   8.710  0.9483 -2.7150 -0.3202
  4604G12c H01C85460   9.419   6.103   8.782 -0.6889 -4.1211 -2.3913
  4604G12c C02L85461   9.529   6.008   8.631 -0.1552 -0.3572  2.1793
  4604G12c H01D85462   9.464   5.924   8.652  1.3521 -3.0587 -3.0423
  4604G12c C01385463   9.552   5.697   8.766  2.0834  0.7439 -0.6066
  4604G12c H00085464   9.508   5.631   8.692  4.1137 -0.5572 -0.6757
  4604G12c C01485465   9.457   5.751   8.858 -0.3621  1.0085 -0.8089
  4604G12c C00F85466   9.311   5.747   8.849 -0.5421  1.0221 -1.3192
  4604G12c C00H85467   9.309   5.842   9.071 -0.5137 -0.9718  1.1566
  4604G12c C00I85468   9.238   5.902   9.170  0.4147  0.9832  0.0297
  4604G12c C00J85469   9.314   5.955   9.278  0.8131 -0.5473 -1.1473
  4604G12c C00Z85470   9.732   5.895   9.092 -0.3288  0.1932 -1.2249
  4604G12c C00Y85471   9.873   5.895   9.119 -0.5046 -0.2704  1.1712
  4604G12c H00685472   9.944   5.845   9.055  0.3319 -3.3046  4.3085
  4604G12c C00X85473   9.919   5.957   9.234 -1.0993  1.7001 -0.6681
  4604G12c O00385474  10.057   5.981   9.270  0.6109 -0.5394 -1.1948
  4604G12c C01B85475  10.139   5.884   9.220  1.3275  2.1783  0.4343
  4604G12c H00985476  10.186   5.904   9.124  0.9765 -3.5929 -1.1404
  4604G12c H00885477  10.103   5.785   9.248  2.2568  1.7756  0.2300
  4604G12c H00785478  10.230   5.883   9.281 -0.4011 -0.9810  3.1347
  4604G12c C00W85479   9.828   6.033   9.309  1.0426  0.7285  1.5686
  4604G12c O00485480   9.877   6.084   9.426 -0.5187  0.0481 -0.5373
  4604G12c C01C85481   9.832   6.192   9.486  1.6054 -0.1332  0.7396
  4604G12c H00A85482   9.886   6.284   9.470 -1.9872  1.3877 -3.9752
  4604G12c C00P85483   9.688   6.179   9.490  0.1618 -0.5505  0.2267
  4604G12c C00O85484   9.608   6.276   9.559 -0.5007 -1.4617 -0.4254
  4604G12c C01D85485   9.675   6.387   9.623 -1.1632  0.7384  0.4531
  4604G12c H00S85486   9.780   6.377   9.646 -1.0958  1.3948  0.4185
  4604G12c C01E85487   9.617   6.525   9.636  1.2628 -0.3559 -2.0941
  4604G12c O00885488   9.676   6.645   9.658 -0.6887 -0.4285  2.7025
  4604G12c C01V85489   9.808   6.680   9.663  0.6545 -0.1731  0.4801
  4604G12c C01Z85490   9.844   6.782   9.558  0.0589  0.1277  0.0339
  4604G12c H00R85491   9.948   6.759   9.534  0.1740  2.7564 -2.2494
  4604G12c H00Q85492   9.813   6.792   9.454  3.3136  2.9842 -0.7647
  4604G12c O00985493   9.842   6.922   9.597 -0.0404  1.0326  0.0017
  4604G12c H00P85494   9.757   6.920   9.638 -1.8583 -4.0053 -3.4565
  4604G12c C01W85495   9.873   6.610   9.750 -1.5986 -1.0692 -0.3969
  4604G12c H00O85496   9.810   6.563   9.823 -4.1349  3.4291  0.5374
  4604G12c C01X85497  10.024   6.618   9.761 -0.6512 -1.4983  0.3085
  4604G12c H00N85498  10.022   6.715   9.810 -2.6328 -0.2332 -2.1821
  4604G12c H00M85499  10.020   6.559   9.853 -1.7854  3.1879  3.4416
  4604G12c C01Y85500  10.107   6.576   9.643 -1.0089  1.1460 -0.0152
  4604G12c C02D85501  10.204   6.657   9.585  1.4241  0.5135  0.3042
  4604G12c H01985502  10.233   6.752   9.625  2.2805  1.6763 -2.8994
  4604G12c C02C85503  10.296   6.629   9.483 -0.5311  0.4820 -1.3642
  4604G12c H01A85504  10.375   6.697   9.454 -2.6311  3.2110 -0.8883
  4604G12c C02B85505  10.283   6.501   9.428  1.5925  1.0061  1.0659
  4604G12c O00E85506  10.342   6.471   9.306 -0.5845 -0.8605 -0.0212
  4604G12c H01B85507  10.369   6.381   9.300  5.7397  0.4835  3.3002
  4604G12c C02F85508  10.224   6.405   9.509 -1.8279 -0.1812  0.1838
  4604G12c O00F85509  10.220   6.273   9.472 -0.4725  0.9946 -0.3079
  4604G12c C02G85510  10.329   6.188   9.502  0.2227  1.0384 -1.0018
  4604G12c H01785511  10.314   6.111   9.578  1.2208 -1.8594 -3.6373
  4604G12c H01685512  10.401   6.253   9.552 -0.4947  0.3817  0.9474
  4604G12c H01585513  10.385   6.173   9.410  2.8023  1.8557  0.3931
  4604G12c C02E85514  10.128   6.443   9.614 -2.4132  0.1783 -0.4091
  4604G12c H01885515  10.068   6.375   9.672  3.4745 -1.7833  3.9625
  4604G12c C01F85516   9.473   6.527   9.611 -1.2621  1.6610 -0.8525
  4604G12c C01G85517   9.405   6.648   9.586 -0.0325 -0.0605  1.0459
  4604G12c H00L85518   9.461   6.737   9.565  0.8761 -1.4870 -2.9171
  4604G12c C01H85519   9.266   6.638   9.530  0.8005 -0.4050 -1.6461
  4604G12c H00B85520   9.250   6.715   9.455 -0.2602  2.5847  1.5289
  4604G12c C01I85521   9.187   6.525   9.534  0.9330  2.0157  0.6026
  4604G12c C01U85522   9.402   6.409   9.617  1.4314  0.3395  0.2101
  4604G12c C00S85523   9.454   5.958   9.294 -0.5445  1.6939  0.8703
  4604G12c C00K85524   9.264   6.056   9.356  0.4601 -0.0861  0.9841
  4604G12c C00N85525   9.469   6.298   9.565  0.7852 -0.6779 -0.0905
  4604G12c C00085526   9.256   6.415   9.600  0.7052 -0.5102  0.1270
  4604G12c C01J85527   9.123   6.456   9.425 -0.3657  2.5036  1.3837
  4604G12c C01K85528   9.030   6.525   9.334  1.2523 -1.1906 -1.6917
  4604G12c C01P85529   8.982   6.660   9.348  0.1146  0.4969  0.9962
  4604G12c C01Q85530   8.967   6.724   9.474 -1.2127  0.7234 -0.5357
  4604G12c H00G85531   8.954   6.660   9.560  5.7372  0.0494  0.3004
  4604G12c C01R85532   8.983   6.855   9.493 -0.7518  0.7554 -1.1099
  4604G12c H00F85533   9.031   6.901   9.408 -4.8404  6.2975 -0.7196
  4604G12c C01S85534   8.936   6.952   9.604  0.2249 -0.8782  0.8845
  4604G12c H00E85535   8.992   6.907   9.686 -3.9482  2.3049  5.6808
  4604G12c H00D85536   8.973   7.055   9.606  3.1336 -1.6440 -3.8760
  4604G12c O00585537   8.807   6.950   9.633  0.1678 -0.7299  0.1991
  4604G12c H00C85538   8.805   7.029   9.684  3.3432  2.5267 -4.3052
  4604G12c C01O85539   8.945   6.710   9.215  0.0120  0.8039 -0.2571
  4604G12c H00H85540   8.889   6.796   9.183  2.9085  1.3225 -4.2867
  4604G12c C01N85541   8.931   6.642   9.101  0.4471 -0.0691 -0.3464
  4604G12c O00685542   8.937   6.696   8.966  1.4217  1.1833  1.4255
  4604G12c C01T85543   9.034   6.792   8.950  0.2994  0.6125 -0.0410
  4604G12c H00K85544   8.981   6.885   8.971  1.0043  0.9767  0.1239
  4604G12c H00J85545   9.053   6.802   8.843  2.4062  0.8231  0.3371
  4604G12c H00I85546   9.125   6.789   9.009  1.5619 -1.2563 -2.0031
  4604G12c C01M85547   8.926   6.499   9.117  0.0172  0.0599 -0.8188
  4604G12c C02085548   9.128   6.098   9.308  0.1300  1.1289 -2.4650
  4604G12c C02185549   9.039   6.022   9.237 -0.0360  1.3627 -0.7657
  4604G12c C01L85550   8.967   6.440   9.242 -0.3918  0.1825  0.5998
  4604G12c O00785551   8.914   6.436   9.000  0.3872 -0.3112  1.3311
  4604G12c C02285552   8.952   6.087   9.142  0.5356 -1.0969  0.9800
  4604G12c C02385553   9.095   5.909   9.170 -1.5942  0.6034  1.8516
  4604G12c C00G85554   9.236   5.805   8.952  0.3295 -0.6381 -0.2385
  4604G12c C00E85555   9.238   5.709   8.735  0.2529 -0.3840  0.5233
  4604G12c O00A85556   9.297   5.650   8.634 -0.0336  0.7569  0.5062
  4604G12c C02485557   9.308   5.510   8.666 -1.0842  1.3147 -1.0094
  4604G12c H00V85558   9.266   5.499   8.766 -0.5771  4.7188 -0.3673
  4604G12c H00U85559   9.402   5.456   8.656 -0.4817  2.4054 -1.3735
  4604G12c H00T85560   9.248   5.453   8.595  0.1148  5.3524 -5.5279
  4614G12c C00D85561   7.464   6.907   1.399  0.6652  1.1749  0.3609
  4614G12c O00B85562   7.580   6.867   1.459 -0.3260 -0.9883 -0.0229
  4614G12c C02585563   7.677   6.775   1.412 -2.2460  0.2455  1.6070
  4614G12c C02685564   7.810   6.842   1.340 -0.0454  0.6465  0.7319
  4614G12c H00Y85565   7.767   6.869   1.244 -0.0768  3.4054  1.4845
  4614G12c H00X85566   7.896   6.775   1.343 -3.6664 -4.1576  3.8703
  4614G12c O00C85567   7.864   6.936   1.446 -1.1870 -2.5960  0.7148
  4614G12c H00W85568   7.799   6.985   1.494 -0.4276 -4.6411  4.0092
  4614G12c C02785569   7.701   6.645   1.463  1.6659 -0.6812 -1.5853
  4614G12c O00D85570   7.601   6.584   1.547 -0.6965  0.1067  0.9979
  4614G12c H00Z85571   7.635   6.497   1.559  3.8273  1.1834 -2.5192
  4614G12c C02885572   7.780   6.540   1.416  0.0293 -1.5710  1.9278
  4614G12c C02985573   7.918   6.533   1.447 -2.8834 -0.4652  0.6074
  4614G12c H01085574   7.967   6.583   1.529  0.9456 -4.1241  0.7368
  4614G12c C02T85575   7.997   6.446   1.349 -0.7449 -0.6862 -0.5570
  4614G12c H01O85576   8.103   6.436   1.329 -1.1590  1.2006 -4.3365
  4614G12c C02S85577   7.917   6.342   1.301  1.0066 -0.1712  0.8339
  4614G12c O00J85578   7.951   6.214   1.252 -0.0198 -0.0763  0.0015
  4614G12c H01P85579   7.917   6.132   1.283  2.1133 -1.1336 -0.3111
  4614G12c C02R85580   7.770   6.339   1.297  1.8184 -1.8684  0.3597
  4614G12c O00I85581   7.687   6.226   1.262 -0.4538 -0.4728 -1.4939
  4614G12c C02Q85582   7.670   6.210   1.120 -1.0818 -0.9278 -0.0551
  4614G12c H01N85583   7.732   6.147   1.056 -2.3294  1.3034 -3.5612
  4614G12c H01R85584   7.688   6.302   1.065 -0.4724  2.7235  5.7743
  4614G12c H01Q85585   7.590   6.142   1.092  0.7593 -3.9640  1.7822
  4614G12c C02A85586   7.705   6.454   1.319  0.0961 -0.7579  0.5125
  4614G12c H01185587   7.599   6.464   1.302 -0.6612 -0.0526  5.2170
  4614G12c C00C85588   7.358   6.848   1.437  1.3068  0.4666  0.5924
  4614G12c H01285589   7.364   6.790   1.528 -3.4445 -2.1752 -0.5939
  4614G12c C00B85590   7.222   6.874   1.409 -0.0680 -1.1105  0.9768
  4614G12c C00A85591   7.105   6.862   1.489 -1.3737 -1.2324  0.9092
  4614G12c C00985592   7.065   6.729   1.540  0.5798  0.4156  0.0270
  4614G12c C00885593   7.135   6.611   1.535 -0.2571  0.6458 -1.3516
  4614G12c H01385594   7.241   6.590   1.540 -0.6023 -3.4081 -6.5212
  4614G12c C00785595   7.056   6.487   1.517  1.2468 -0.9177  3.0323
  4614G12c H01485596   7.137   6.419   1.541  2.9567 -0.2635 -0.5649
  4614G12c C00685597   6.924   6.485   1.509  1.2984  0.6116  1.1065
  4614G12c C00585598   6.857   6.611   1.508 -0.7700  0.9013 -0.2795
  4614G12c C00485599   6.716   6.615   1.464 -0.5657 -1.3211  0.9137
  4614G12c C00385600   6.679   6.746   1.412  0.3068  0.8716 -0.4911
  4614G12c C00285601   6.542   6.744   1.361 -1.2445 -0.8934 -0.2590
  4614G12c C00185602   6.454   6.840   1.296  0.0994  0.3375  1.1525
  4614G12c C00M85603   6.505   6.929   1.190 -1.6738  2.1185  0.1133
  4614G12c C00L85604   6.635   6.989   1.209  0.6019 -0.4220 -0.1105
  4614G12c C00R85605   6.710   7.015   1.084 -0.2930  0.7712 -0.5425
  4614G12c C00Q85606   6.687   7.046   0.948  0.5063 -1.3695 -0.6432
  4614G12c C00V85607   6.800   7.107   0.867  0.1430  0.8896  0.9764
  4614G12c C00U85608   6.929   7.109   0.922 -1.2285  1.3509 -0.7052
  4614G12c C00T85609   6.952   7.060   1.053  0.8998  1.5009  1.0493
  4614G12c C01685610   7.073   7.055   1.126 -0.1003  0.3108  1.2094
  4614G12c C01585611   7.178   7.064   1.040 -0.1246  0.3248 -0.6647
  4614G12c C01085612   7.170   7.109   0.905  1.2060  1.0250  0.2356
  4614G12c C01185613   7.294   7.111   0.828  2.1587 -0.1272 -0.4544
  4614G12c H00585614   7.291   7.142   0.724 -0.0179 -0.9381 -0.6506
  4614G12c C01285615   7.409   7.075   0.878  1.6503  0.9045  1.4051
  4614G12c C01785616   7.531   7.071   0.780 -0.2590 -1.3500  1.4932
  4614G12c O00285617   7.615   7.167   0.834  1.3578  0.1557  0.4596
  4614G12c H00485618   7.671   7.213   0.773 -2.6032 -0.9813 -4.3963
  4614G12c C01885619   7.514   7.000   0.668  0.1586 -0.4768  0.1750
  4614G12c O00185620   7.597   7.021   0.568 -0.6738 -1.0419  0.6575
  4614G12c H00385621   7.638   6.940   0.593  2.2690 -0.5189 -2.1785
  4614G12c C01985622   7.412   6.888   0.645  0.7041 -0.0508 -0.9711
  4614G12c H00285623   7.304   6.902   0.636  0.9713  2.7984 -0.1336
  4614G12c H00185624   7.444   6.854   0.546  2.7587 -3.4867  0.7596
  4614G12c O00085625   7.435   6.786   0.742  0.8545  0.6624 -0.9026
  4614G12c C01A85626   7.362   6.671   0.693  1.4425  1.1637 -0.0653
  4614G12c C02K85627   7.418   6.581   0.592  1.7105  0.1699 -1.4101
  4614G12c O00G85628   7.505   6.632   0.501  0.6972 -0.9063 -0.2864
  4614G12c C02M85629   7.624   6.548   0.526 -0.0135  1.4553 -0.3718
  4614G12c H01G85630   7.667   6.554   0.626  1.4672 -4.6204 -0.4459
  4614G12c H01F85631   7.704   6.562   0.452  1.3176 -0.5503  0.6404
  4614G12c H01E85632   7.612   6.442   0.502  0.6885  0.5800  2.9619
  4614G12c C02J85633   7.372   6.445   0.586  0.6365  0.5943  0.5876
  4614G12c H01H85634   7.425   6.378   0.521 -1.4386  1.0648 -1.6673
  4614G12c C02I85635   7.261   6.417   0.666 -0.9151  3.4747  0.9419
  4614G12c C02N85636   7.231   6.272   0.651 -0.4852  0.8193 -1.1974
  4614G12c H01M85637   7.137   6.221   0.633 -3.1662  6.0008 -3.0725
  4614G12c C02O85638   7.308   6.179   0.710  1.5087  1.1509 -0.3591
  4614G12c H01L85639   7.378   6.215   0.783  0.8344  5.5789 -1.7330
  4614G12c C02P85640   7.288   6.029   0.691 -0.0792  1.8554 -0.2781
  4614G12c H01K85641   7.202   5.971   0.659  3.2431 -1.8912 -3.0678
  4614G12c H01J85642   7.305   5.955   0.769 -4.2579 -0.2817 -1.2855
  4614G12c O00H85643   7.417   5.995   0.621 -0.5015  0.4841 -0.3519
  4614G12c H01I85644   7.382   5.968   0.538  3.0373  0.3768 -1.9300
  4614G12c C02H85645   7.228   6.496   0.767  0.3781 -0.0898 -1.1194
  4614G12c H01C85646   7.169   6.444   0.841 -0.9389  1.5729 -0.9479
  4614G12c C02L85647   7.260   6.637   0.775 -0.4231 -0.4144  0.6277
  4614G12c H01D85648   7.264   6.704   0.860 -0.2738 -0.2909  0.5244
  4614G12c C01385649   7.421   7.055   1.010  1.5554  1.1527  0.1930
  4614G12c H00085650   7.517   7.019   1.046  0.9530 -2.6394 -1.7824
  4614G12c C01485651   7.310   7.051   1.105 -1.0721  0.5373 -0.2668
  4614G12c C00F85652   7.328   7.007   1.232  1.0054 -0.7419  1.4481
  4614G12c C00H85653   7.087   7.019   1.257  0.8793 -0.2514 -1.7098
  4614G12c C00I85654   6.969   6.995   1.329  0.9604  2.1311  0.7754
  4614G12c C00J85655   6.848   7.018   1.263  1.5352  0.2865 -1.1635
  4614G12c C00Z85656   7.040   7.145   0.850  0.6482 -1.2725  0.4885
  4614G12c C00Y85657   7.016   7.196   0.717 -1.6284 -0.3137  1.2881
  4614G12c H00685658   7.109   7.209   0.665 -3.0028 -1.1920 -1.4971
  4614G12c C00X85659   6.884   7.193   0.651 -0.7422  0.0288  1.2641
  4614G12c O00385660   6.893   7.235   0.523  0.1542 -1.7934  1.0727
  4614G12c C01B85661   6.765   7.212   0.451  0.4932 -0.8163  0.7773
  4614G12c H00985662   6.664   7.227   0.489 -1.6270 -1.5596 -4.1308
  4614G12c H00885663   6.763   7.103   0.443 -1.9668 -1.6103  8.3109
  4614G12c H00785664   6.749   7.239   0.346  5.7203 -3.5936 -0.8973
  4614G12c C00W85665   6.773   7.160   0.736  0.9576  0.1798 -0.6115
  4614G12c O00485666   6.666   7.118   0.670 -0.8094 -0.0741 -0.2960
  4614G12c C01C85667   6.555   7.075   0.751  1.5877  1.4264  0.1901
  4614G12c H00A85668   6.464   7.113   0.707  0.1767  1.6905  3.1788
  4614G12c C00P85669   6.564   7.029   0.883  0.3838  0.2849 -2.8997
  4614G12c C00O85670   6.457   6.948   0.944 -0.6278 -1.2895 -0.7160
  4614G12c C01D85671   6.371   6.888   0.834 -1.7193  0.2283 -1.0780
  4614G12c H00S85672   6.387   6.914   0.730  0.2001  0.9812 -0.6222
  4614G12c C01E85673   6.297   6.777   0.877  0.5153  0.7024 -0.6295
  4614G12c O00885674   6.211   6.729   0.784  0.4707 -0.7696 -0.0212
  4614G12c C01V85675   6.071   6.761   0.782  1.1990 -1.1030 -0.1298
  4614G12c C01Z85676   6.033   6.891   0.705 -0.4531  1.5664 -0.4871
  4614G12c H00R85677   6.103   6.912   0.625  2.9120 -1.8718  1.4032
  4614G12c H00Q85678   5.927   6.918   0.703 -0.3750  1.7899 -3.0934
  4614G12c O00985679   6.066   6.966   0.821 -0.4994  0.7144  0.2563
  4614G12c H00P85680   5.988   6.972   0.873 -2.2575 -7.6775 -0.7013
  4614G12c C01W85681   5.996   6.672   0.838  0.5785 -1.0663 -0.9389
  4614G12c H00O85682   6.050   6.579   0.829 -0.0784 -1.4329 -1.1221
  4614G12c C01X85683   5.851   6.700   0.851  0.6687  0.0120 -1.0733
  4614G12c H00N85684   5.802   6.611   0.811 -0.8057  1.5583 -2.7737
  4614G12c H00M85685   5.825   6.733   0.751 -0.1924 -1.2096 -1.2681
  4614G12c C01Y85686   5.799   6.768   0.971 -1.0537  0.3549 -0.4484
  4614G12c C02D85687   5.786   6.688   1.088 -2.2552 -0.6823 -0.0117
  4614G12c H01985688   5.831   6.596   1.122 -0.9465 -0.2490 -0.5307
  4614G12c C02C85689   5.705   6.753   1.195 -0.6877  0.1304 -0.3049
  4614G12c H01A85690   5.673   6.662   1.244  5.6746 -0.8909  2.3033
  4614G12c C02B85691   5.635   6.873   1.180  1.1445  0.5215  0.6391
  4614G12c O00E85692   5.537   6.914   1.263 -1.4253 -1.3779  0.6980
  4614G12c H01B85693   5.506   7.002   1.275  4.1860  0.7082  1.2877
  4614G12c C02F85694   5.669   6.956   1.064  0.2026 -0.2624 -1.6755
  4614G12c O00F85695   5.606   7.066   1.057  0.3331 -0.3216 -0.5612
  4614G12c C02G85696   5.517   7.051   0.955  0.6559  0.1151 -1.3244
  4614G12c H01785697   5.507   6.963   0.891 -6.4694  0.1231 -0.6709
  4614G12c H01685698   5.546   7.145   0.907  0.7810  1.5765  1.5112
  4614G12c H01585699   5.423   7.080   1.002 -2.6753 -4.0516 -4.9929
  4614G12c C02E85700   5.757   6.906   0.969  1.3411 -0.1951  0.8400
  4614G12c H01885701   5.781   6.963   0.881  0.0756  2.1782  1.9698
  4614G12c C01F85702   6.299   6.719   1.002  2.0935 -0.0238  1.2651
  4614G12c C01G85703   6.267   6.581   1.033  1.0283  0.1026 -0.8416
  4614G12c H00L85704   6.204   6.522   0.968 -5.4871  1.6733  3.5279
  4614G12c C01H85705   6.305   6.523   1.161 -1.2590 -1.4069 -0.0168
  4614G12c H00B85706   6.325   6.419   1.181  5.7136  0.4193  4.5556
  4614G12c C01I85707   6.346   6.625   1.264  0.7520 -0.3447 -1.6621
  4614G12c C01U85708   6.342   6.801   1.113 -1.2675  1.0157  0.7807
  4614G12c C00S85709   6.833   7.055   1.128 -0.3740 -0.2492 -1.4331
  4614G12c C00K85710   6.732   6.948   1.297  0.7633 -0.8492 -0.7103
  4614G12c C00N85711   6.416   6.921   1.075 -1.6216 -1.0641  0.2752
  4614G12c C00085712   6.340   6.765   1.245  1.9348  0.4420 -1.4835
  4614G12c C01J85713   6.459   6.626   1.354 -0.0088 -3.0792 -0.4893
  4614G12c C01K85714   6.506   6.503   1.407 -0.0961  0.2658 -0.5492
  4614G12c C01P85715   6.437   6.387   1.442 -0.1640  0.9460  1.0063
  4614G12c C01Q85716   6.290   6.366   1.465  0.2521 -0.2965 -2.2484
  4614G12c H00G85717   6.217   6.292   1.436 -2.5241  3.5977 -5.7106
  4614G12c C01R85718   6.238   6.457   1.543 -0.4230 -0.2012  1.3788
  4614G12c H00F85719   6.307   6.537   1.566 -1.5061 -0.0208  4.2754
  4614G12c C01S85720   6.088   6.482   1.579 -0.3538 -1.0971  0.4748
  4614G12c H00E85721   6.042   6.383   1.573 -4.9697  1.0156 -1.9750
  4614G12c H00D85722   6.092   6.553   1.496  0.7595 -0.0409  1.4143
  4614G12c O00585723   6.101   6.553   1.697  0.4823 -0.4246  0.7550
  4614G12c H00C85724   6.112   6.647   1.695  1.3692 -0.4706 -4.7435
  4614G12c C01O85725   6.510   6.257   1.460  1.9856  0.6880  0.0123
  4614G12c H00H85726   6.457   6.167   1.433  0.9163  2.2584 -3.3959
  4614G12c C01N85727   6.646   6.256   1.466  1.3917 -0.1259 -0.1130
  4614G12c O00685728   6.714   6.137   1.480  0.9027 -0.3251 -1.3341
  4614G12c C01T85729   6.712   6.052   1.350  0.2943 -1.1892 -0.9552
  4614G12c H00K85730   6.758   6.103   1.266 -0.1647 -0.1160 -0.5591
  4614G12c H00J85731   6.618   6.003   1.329 -3.0689  4.8569 -1.0704
  4614G12c H00I85732   6.779   5.965   1.357  0.3832 -0.9632  1.5419
  4614G12c C01M85733   6.708   6.380   1.469 -0.6033  0.0501  0.0156
  4614G12c C02085734   6.760   6.851   1.395 -1.4250  0.9797  1.2146
  4614G12c C02185735   6.879   6.846   1.486  0.1121  0.5717 -0.1165
  4614G12c C01L85736   6.641   6.501   1.438  0.7378 -0.0396  1.2958
  4614G12c O00785737   6.849   6.365   1.503  0.1952 -0.4464 -0.8111
  4614G12c C02285738   6.921   6.732   1.541  0.3327  0.0128 -0.4053
  4614G12c C02385739   6.994   6.940   1.462  0.5241 -0.8001  1.5297
  4614G12c C00G85740   7.215   6.975   1.295  1.1172 -0.0680 -0.9918
  4614G12c C00E85741   7.454   6.989   1.293 -0.3047 -1.6263 -1.6202
  4614G12c O00A85742   7.543   7.110   1.307  0.0474  0.1360 -1.3597
  4614G12c C02485743   7.499   7.235   1.369  0.0668 -0.5842 -0.8249
  4614G12c H00V85744   7.571   7.314   1.350 -4.6728  3.4357 -3.0421
  4614G12c H00U85745   7.482   7.232   1.477  3.7648  0.1882 -0.1357
  4614G12c H00T85746   7.414   7.288   1.327 -0.7209  0.7974  2.3752
  4624G12c C00D85747   6.845   4.779  12.040  1.1647  0.4668  0.3312
  4624G12c O00B85748   6.727   4.751  11.963  1.5946  0.0442 -0.7905
  4624G12c C02585749   6.720   4.724  11.829  0.0471 -0.4095 -2.2129
  4624G12c C02685750   6.704   4.863  11.754  0.1530 -0.6857  0.5262
  4624G12c H00Y85751   6.597   4.848  11.736  1.3491 -4.5377 -4.8030
  4624G12c H00X85752   6.721   4.872  11.647 -3.6439 -0.0265 -0.1123
  4624G12c O00C85753   6.669   4.988  11.827 -0.9496 -1.5329  1.0691
  4624G12c H00W85754   6.637   4.968  11.914  1.3155 -4.9116  1.2119
  4624G12c C02785755   6.726   4.593  11.781  1.2615 -0.0211  0.6178
  4624G12c O00D85756   6.702   4.493  11.873 -0.6939 -0.6067  0.8970
  4624G12c H00Z85757   6.739   4.552  11.937 -0.3872  2.5987 -2.0700
  4624G12c C02885758   6.703   4.580  11.639 -0.2189  0.3156 -0.3527
  4624G12c C02985759   6.794   4.619  11.541 -0.7652  0.0778 -0.2235
  4624G12c H01085760   6.868   4.679  11.593  3.7719 -2.0987 -3.8166
  4624G12c C02T85761   6.767   4.590  11.404 -1.0050  2.7050 -1.7705
  4624G12c H01O85762   6.802   4.672  11.342  0.9186  3.5462  0.3514
  4624G12c C02S85763   6.653   4.514  11.374 -0.0957 -2.7198 -0.2613
  4624G12c O00J85764   6.652   4.441  11.268 -0.0125  1.1912 -0.8210
  4624G12c H01P85765   6.639   4.347  11.267 -1.3473  1.3128  2.2195
  4624G12c C02R85766   6.566   4.478  11.474 -1.6798  0.3247 -0.2684
  4624G12c O00I85767   6.438   4.446  11.454  1.9618 -0.3804  0.3352
  4624G12c C02Q85768   6.388   4.430  11.320 -0.1681  1.6569  0.0109
  4624G12c H01N85769   6.386   4.334  11.269  0.9440  5.4585 -7.9076
  4624G12c H01R85770   6.300   4.407  11.380  0.5091  2.2540  1.2411
  4624G12c H01Q85771   6.389   4.497  11.235  1.2563 -3.1943 -4.0461
  4624G12c C02A85772   6.592   4.520  11.604 -0.3112 -1.6232 -0.9051
  4624G12c H01185773   6.522   4.500  11.684 -0.3814  0.8150 -0.3160
  4624G12c C00C85774   6.808   4.849  12.161 -1.1128  1.2167  2.2831
  4624G12c H01285775   6.706   4.867  12.192 -2.2391  0.5909 -0.8404
  4624G12c C00B85776   6.903   4.897  12.239 -2.2632 -0.4711 -0.9357
  4624G12c C00A85777   6.903   4.989  12.341  1.3465  0.3781  0.5868
  4624G12c C00985778   6.801   5.086  12.348  0.0200 -0.7310  0.4059
  4624G12c C00885779   6.684   5.121  12.272  0.0405  1.6343 -0.8867
  4624G12c H01385780   6.635   5.027  12.248  4.6389 -2.2685  3.7590
  4624G12c C00785781   6.653   5.257  12.239 -0.0310  1.8326  1.6534
  4624G12c H01485782   6.597   5.267  12.147 -3.7344  0.1713  3.5899
  4624G12c C00685783   6.747   5.352  12.299  0.2398  0.6199  0.7189
  4624G12c C00585784   6.841   5.319  12.385 -0.9760 -0.3207 -0.0378
  4624G12c C00485785   6.934   5.412  12.437  0.9785 -1.7202  0.3743
  4624G12c C00385786   7.053   5.358  12.484 -1.1770 -0.5916 -0.5887
  4624G12c C00285787   7.140   5.467  12.536 -0.4907  1.3540 -0.2125
  4624G12c C00185788   7.282   5.459  12.581  0.1141  0.4023  2.1094
  4624G12c C00M85789   7.354   5.391  12.483  0.0625 -1.2777 -2.3148
  4624G12c C00L85790   7.361   5.250  12.484 -1.4226 -1.1929  0.7455
  4624G12c C00R85791   7.445   5.168  12.393 -0.7218  0.6820 -0.5622
  4624G12c C00Q85792   7.553   5.198  12.304  1.4419 -0.3380  1.1172
  4624G12c C00V85793   7.599   5.076  12.241 -0.2283  0.0269 -0.4725
  4624G12c C00U85794   7.531   4.954  12.239  1.0543 -0.4487  1.4539
  4624G12c C00T85795   7.396   4.940  12.302 -0.7322 -0.4024 -1.4895
  4624G12c C01685796   7.295   4.858  12.259  1.9162  0.0086 -0.1069
  4624G12c C01585797   7.320   4.784  12.148 -1.4083 -0.6385 -0.6911
  4624G12c C01085798   7.442   4.780  12.098  1.2854  0.7080  0.9553
  4624G12c C01185799   7.454   4.668  11.995  0.4568  0.3997 -1.3568
  4624G12c H00585800   7.542   4.631  11.945  2.1642  2.6870 -0.1283
  4624G12c C01285801   7.346   4.587  11.945  1.4349 -0.5390 -0.3288
  4624G12c C01785802   7.376   4.489  11.841 -0.6811 -1.2930  1.0181
  4624G12c O00285803   7.486   4.431  11.841 -2.0675  0.0832  0.8404
  4624G12c H00485804   7.564   4.434  11.896  1.1586  4.0853 -3.5062
  4624G12c C01885805   7.299   4.496  11.719 -0.9948  1.1403  1.2931
  4624G12c O00185806   7.173   4.568  11.695 -0.9252 -0.2586  0.8842
  4624G12c H00385807   7.140   4.482  11.677 -5.3207  1.7966 -1.5441
  4624G12c C01985808   7.314   4.416  11.598 -1.0619 -0.6141 -0.8854
  4624G12c H00285809   7.290   4.469  11.506  2.2777  1.2520 -0.7372
  4624G12c H00185810   7.401   4.351  11.602  0.8044  1.9306  2.5030
  4624G12c O00085811   7.202   4.332  11.623 -0.6711  0.7994 -0.5386
  4624G12c C01A85812   7.186   4.227  11.535  0.3992 -1.7390  0.4965
  4624G12c C02K85813   7.150   4.254  11.398  1.5835  0.2153  0.3290
  4624G12c O00G85814   7.146   4.373  11.339  0.7399  0.4872 -0.4522
  4624G12c C02M85815   7.250   4.406  11.249 -0.9974 -1.8377  0.7450
  4624G12c H01G85816   7.251   4.399  11.140 -1.3132  0.8218  0.5391
  4624G12c H01F85817   7.345   4.358  11.273  1.1947  3.3242  3.0850
  4624G12c H01E85818   7.269   4.497  11.307 -1.5420  0.9424 -3.2236
  4624G12c C02J85819   7.171   4.156  11.298 -0.6510 -1.5010 -1.2015
  4624G12c H01H85820   7.137   4.183  11.199  5.5598 -0.2519 -3.2071
  4624G12c C02I85821   7.222   4.011  11.329  1.4961 -0.4669  0.8896
  4624G12c C02N85822   7.218   3.893  11.256  0.7086 -2.7666  0.1617
  4624G12c H01M85823   7.163   3.804  11.285  4.2885 -5.2360 -0.2517
  4624G12c C02O85824   7.257   3.919  11.120 -0.1535  0.0384 -0.3632
  4624G12c H01L85825   7.303   4.007  11.078  4.1286 -2.0091 -0.2693
  4624G12c C02P85826   7.272   3.819  11.017 -0.1247  0.1928 -1.0728
  4624G12c H01K85827   7.376   3.841  10.992  1.2765  2.4448  5.6211
  4624G12c H01J85828   7.222   3.723  11.035 -0.2277  0.8926  2.7985
  4624G12c O00H85829   7.197   3.853  10.897  1.3881  1.2340 -0.4449
  4624G12c H01I85830   7.198   3.794  10.823 -7.7847 -2.9427  2.0764
  4624G12c C02H85831   7.262   4.008  11.467 -0.4698  1.7624  0.0969
  4624G12c H01C85832   7.304   3.922  11.516 -5.3662 -2.4631 -2.5395
  4624G12c C02L85833   7.247   4.104  11.555 -0.2059 -0.2706 -0.3231
  4624G12c H01D85834   7.278   4.065  11.651  3.4205  0.8029 -0.9777
  4624G12c C01385835   7.220   4.631  11.991 -0.7035  1.1032 -1.1607
  4624G12c H00085836   7.132   4.605  11.934 -1.7621 -2.2460  1.7991
  4624G12c C01485837   7.209   4.739  12.075 -0.2638 -0.7207 -0.6305
  4624G12c C00F85838   7.085   4.804  12.095 -0.6128 -0.0419  0.5189
  4624G12c C00H85839   7.150   4.900  12.292 -0.7552 -0.0161 -0.3948
  4624G12c C00I85840   7.127   4.978  12.401 -0.1418 -0.0341 -1.0404
  4624G12c C00J85841   7.245   5.055  12.456 -0.6814  0.5857  1.4215
  4624G12c C00Z85842   7.551   4.855  12.140  0.3429  0.7399  0.2655
  4624G12c C00Y85843   7.660   4.860  12.054  0.4196 -0.0314  1.4722
  4624G12c H00685844   7.663   4.789  11.973  0.3595  5.1070 -3.3180
  4624G12c C00X85845   7.753   4.979  12.066  0.3690  0.4173 -0.2386
  4624G12c O00385846   7.862   4.986  11.968  1.1601 -0.8207 -0.2466
  4624G12c C01B85847   7.972   5.072  12.002  0.7791  0.9580 -0.2668
  4624G12c H00985848   7.951   5.113  12.101  0.8264 -4.7146  2.2995
  4624G12c H00885849   8.073   5.070  11.961 -0.8949 -4.4300 -4.7256
  4624G12c H00785850   7.955   5.178  11.979 -1.0477  1.4094  2.8066
  4624G12c C00W85851   7.710   5.092  12.154 -0.9404  0.5866  1.0127
  4624G12c O00485852   7.776   5.226  12.143 -0.1341  0.4937  2.8562
  4624G12c C01C85853   7.737   5.329  12.229 -0.9623 -0.0385  1.2059
  4624G12c H00A85854   7.794   5.415  12.260  0.8538 -1.3875  1.7114
  4624G12c C00P85855   7.612   5.325  12.289  0.6688  0.8068 -0.5483
  4624G12c C00O85856   7.564   5.453  12.327 -0.2887 -0.2445 -0.4518
  4624G12c C01D85857   7.623   5.583  12.280  0.7384  0.8912  1.5450
  4624G12c H00S85858   7.695   5.573  12.200 -0.2229  0.3732  0.7326
  4624G12c C01E85859   7.547   5.711  12.282 -0.4701  0.0529 -1.4115
  4624G12c O00885860   7.582   5.815  12.183  1.4940  0.6789 -0.0687
  4624G12c C01V85861   7.695   5.890  12.203 -1.4057 -2.5615  0.1689
  4624G12c C01Z85862   7.777   5.902  12.081  1.3675  0.1918 -1.1287
  4624G12c H00R85863   7.760   5.803  12.039 -0.3954 -3.2785  6.8241
  4624G12c H00Q85864   7.724   5.979  12.025  0.0486 -0.5415 -0.9088
  4624G12c O00985865   7.921   5.905  12.092  0.3130 -0.8012 -0.2843
  4624G12c H00P85866   7.950   5.817  12.073  3.4639 -0.1549  1.2134
  4624G12c C01W85867   7.721   5.946  12.315  0.7397  0.9706 -0.4383
  4624G12c H00O85868   7.636   5.935  12.381 -0.4344  2.0446 -1.7490
  4624G12c C01X85869   7.821   6.050  12.353  1.5648  0.4027 -1.6338
  4624G12c H00N85870   7.793   6.044  12.458  2.1102  6.0607 -1.0225
  4624G12c H00M85871   7.925   6.036  12.324  2.9685 -4.2597  4.5674
  4624G12c C01Y85872   7.762   6.193  12.308  0.8739  0.2171 -1.4623
  4624G12c C02D85873   7.821   6.220  12.186  0.3776 -0.0520  1.1746
  4624G12c H01985874   7.910   6.170  12.151 -0.9006  0.3913 -2.9553
  4624G12c C02C85875   7.755   6.323  12.121 -0.4233 -0.3901 -1.3163
  4624G12c H01A85876   7.779   6.372  12.028 -1.4325  1.0867 -0.8263
  4624G12c C02B85877   7.635   6.389  12.165  1.0823  1.0691  0.0326
  4624G12c O00E85878   7.591   6.511  12.110  0.3311 -0.4511 -0.1309
  4624G12c H01B85879   7.552   6.572  12.171 -1.3668 -3.8554  2.3704
  4624G12c C02F85880   7.575   6.344  12.286 -1.6472  0.5369  0.8579
  4624G12c O00F85881   7.471   6.399  12.330 -0.3718  0.5347  0.6516
  4624G12c C02G85882   7.442   6.406  12.475  0.2500  0.1963  0.0769
  4624G12c H01785883   7.494   6.357  12.557  0.2395  4.0980  2.5136
  4624G12c H01685884   7.334   6.392  12.478  0.2710 -0.6741 -1.9961
  4624G12c H01585885   7.460   6.512  12.490  3.7404  0.0334 -2.2028
  4624G12c C02E85886   7.634   6.231  12.355  0.1500  1.1072 -0.4719
  4624G12c H01885887   7.620   6.156  12.431  1.0184  1.0463 -0.3678
  4624G12c C01F85888   7.427   5.712  12.366  0.4206 -1.9442 -0.6761
  4624G12c C01G85889   7.338   5.820  12.373 -1.5681 -1.0516  0.0005
  4624G12c H00L85890   7.346   5.897  12.298 -1.4648  3.8976  4.7953
  4624G12c C01H85891   7.232   5.800  12.449  1.2993  1.8522  1.1572
  4624G12c H00B85892   7.148   5.862  12.420 -1.3032 -2.8693 -2.1423
  4624G12c C01I85893   7.225   5.687  12.539 -1.4017 -1.3283  0.2833
  4624G12c C01U85894   7.411   5.606  12.457  0.0858  0.1714  1.9617
  4624G12c C00S85895   7.368   5.044  12.395  0.3465  1.5607 -0.6513
  4624G12c C00K85896   7.225   5.195  12.489 -0.0152  0.2100  0.4791
  4624G12c C00N85897   7.445   5.473  12.411 -1.1242  1.0763 -0.8983
  4624G12c C00085898   7.338   5.593  12.567  0.4463  1.7305 -0.3745
  4624G12c C01J85899   7.102   5.610  12.542  0.6644 -0.7862 -1.3666
  4624G12c C01K85900   6.972   5.652  12.491 -0.6907 -0.1758 -0.4019
  4624G12c C01P85901   6.915   5.787  12.500 -0.0937 -1.5584 -1.0988
  4624G12c C01Q85902   6.955   5.896  12.576  0.6207  0.5911 -0.5139
  4624G12c H00G85903   7.014   5.975  12.532  3.6226 -3.4071 -4.1744
  4624G12c C01R85904   6.944   5.912  12.706  0.8428 -2.1214  1.0965
  4624G12c H00F85905   6.986   6.000  12.754  2.5477 -2.9875  1.2486
  4624G12c C01S85906   6.848   5.830  12.790 -1.5091  0.9264  1.4895
  4624G12c H00E85907   6.917   5.755  12.830 -3.7816 -2.5219 -0.7465
  4624G12c H00D85908   6.772   5.805  12.716 -2.4715 -0.3460  2.8760
  4624G12c O00585909   6.780   5.905  12.894 -0.7692  0.8365 -0.5593
  4624G12c H00C85910   6.848   5.964  12.923  1.5323 -2.0595  0.1552
  4624G12c C01O85911   6.787   5.796  12.450  0.3792  0.1110  0.7715
  4624G12c H00H85912   6.752   5.896  12.469  7.4141  3.9033 -3.6688
  4624G12c C01N85913   6.712   5.714  12.374  0.4526  0.4158  0.8741
  4624G12c O00685914   6.585   5.761  12.321  0.0693  1.3534  0.8361
  4624G12c C01T85915   6.542   5.729  12.185 -0.3473  0.3773 -0.1673
  4624G12c H00K85916   6.536   5.627  12.148 -1.0375  0.2204  0.3598
  4624G12c H00J85917   6.592   5.803  12.123  1.4508  0.5448  1.4236
  4624G12c H00I85918   6.442   5.770  12.171 -0.9463 -0.8899  0.3242
  4624G12c C01M85919   6.762   5.584  12.380  1.1548  0.4346 -0.4867
  4624G12c C02085920   7.086   5.217  12.488  0.3315 -0.6794 -1.7160
  4624G12c C02185921   6.980   5.136  12.496 -0.0593  1.0654  0.2279
  4624G12c C01L85922   6.898   5.550  12.442  0.1188  0.3467 -0.6904
  4624G12c O00785923   6.717   5.484  12.295  1.5890 -0.3077  0.5584
  4624G12c C02285924   6.858   5.184  12.444  1.3480  0.5820  1.5524
  4624G12c C02385925   6.992   5.008  12.444 -0.0876  1.7817  0.6168
  4624G12c C00G85926   7.045   4.872  12.213 -0.4997  0.8435 -0.4209
  4624G12c C00E85927   6.981   4.775  11.996 -0.6420 -0.0944 -0.8963
  4624G12c O00A85928   7.004   4.774  11.870  0.2137  0.0643 -0.7158
  4624G12c C02485929   7.003   4.894  11.782 -0.1223  0.2052 -0.3021
  4624G12c H00V85930   7.109   4.917  11.773  0.1598  0.0618  2.2590
  4624G12c H00U85931   6.985   4.858  11.680  6.4084 -1.7413 -1.0124
  4624G12c H00T85932   6.931   4.971  11.810 -2.7391 -1.2172 -2.7845
  4634G12c C00D85933  10.321   7.418   3.836 -0.4615 -1.0984 -0.1515
  4634G12c O00B85934  10.329   7.510   3.947 -0.4846  0.1857  1.0352
  4634G12c C02585935  10.208   7.541   4.014 -1.3437  1.0167  1.0390
  4634G12c C02685936  10.152   7.429   4.091  0.5943  0.4167 -0.4288
  4634G12c H00Y85937  10.150   7.447   4.198 -0.7688 -0.7735 -0.2470
  4634G12c H00X85938  10.202   7.332   4.092  2.7510  1.5088  0.9271
  4634G12c O00C85939  10.004   7.387   4.070 -1.2517 -0.3007 -0.7202
  4634G12c H00W85940   9.968   7.467   4.104  0.3123  1.7153 -3.6365
  4634G12c C02785941  10.130   7.643   3.981  0.6534 -0.5182 -0.7829
  4634G12c O00D85942  10.187   7.696   3.880 -0.1743 -0.0741  0.6247
  4634G12c H00Z85943  10.255   7.631   3.887 -2.9073 -3.0019  1.2577
  4634G12c C02885944   9.994   7.667   4.026  0.2531  0.7441 -0.2046
  4634G12c C02985945   9.948   7.671   4.162 -1.6380  0.2776 -0.2674
  4634G12c H01085946  10.008   7.620   4.237 -3.2251 -1.3597 -0.0694
  4634G12c C02T85947   9.800   7.665   4.174 -1.1945 -1.8001  1.5774
  4634G12c H01O85948   9.769   7.652   4.277  3.1978 -0.0172  3.2163
  4634G12c C02S85949   9.712   7.710   4.068 -2.5511  0.9593  0.1262
  4634G12c O00J85950   9.586   7.713   4.112 -1.0459 -2.5176 -1.4376
  4634G12c H01P85951   9.596   7.727   4.205 -1.2852  3.9395 -2.1172
  4634G12c C02R85952   9.757   7.691   3.938  0.2371  0.6019 -1.1715
  4634G12c O00I85953   9.681   7.707   3.816 -0.1481 -0.8123 -0.1353
  4634G12c C02Q85954   9.561   7.625   3.815 -1.4837 -1.8194  1.2689
  4634G12c H01N85955   9.535   7.565   3.903 -4.4835 -3.2999 -0.5407
  4634G12c H01R85956   9.560   7.570   3.721 -2.1178  3.7780 -2.1762
  4634G12c H01Q85957   9.485   7.699   3.794  1.8650  1.9825  2.0387
  4634G12c C02A85958   9.894   7.675   3.916 -0.8814 -0.1635 -0.0300
  4634G12c H01185959   9.910   7.655   3.811 -0.9723  5.1329 -1.1704
  4634G12c C00C85960  10.206   7.338   3.801 -1.6835 -0.2610  1.5217
  4634G12c H01285961  10.114   7.341   3.858 -0.8021  1.4622  2.9001
  4634G12c C00B85962  10.211   7.253   3.691 -0.0358  0.5616 -0.3279
  4634G12c C00A85963  10.115   7.148   3.675  1.5927  1.8984  0.0255
  4634G12c C00985964   9.998   7.084   3.748 -0.7191  0.1400 -0.9198
  4634G12c C00885965   9.914   7.123   3.854  0.5106 -1.4708  0.7931
  4634G12c H01385966   9.902   7.216   3.907  1.3908 -2.4541  2.7533
  4634G12c C00785967   9.841   7.026   3.911 -0.3470 -1.6697  0.3549
  4634G12c H01485968   9.792   7.059   4.001  2.5232  2.8478  0.4131
  4634G12c C00685969   9.809   6.905   3.845  0.1112 -0.6964 -0.0222
  4634G12c C00585970   9.900   6.861   3.745  0.8353  0.3429  0.5754
  4634G12c C00485971   9.925   6.737   3.700  0.0200  0.8116 -0.0190
  4634G12c C00385972  10.010   6.716   3.586 -1.1042  1.0212 -0.1460
  4634G12c C00285973  10.013   6.574   3.549 -1.3212 -1.0868 -1.0576
  4634G12c C00185974  10.080   6.515   3.437 -1.5229 -2.3211 -1.6528
  4634G12c C00M85975  10.226   6.544   3.442  1.1637 -0.4953  0.2730
  4634G12c C00L85976  10.268   6.670   3.393 -0.9943  1.5289 -1.7165
  4634G12c C00R85977  10.406   6.714   3.389  0.1931  0.6397 -0.4844
  4634G12c C00Q85978  10.529   6.654   3.406  0.3944  1.3864  0.2189
  4634G12c C00V85979  10.643   6.735   3.430  0.4458 -1.4019  0.3838
  4634G12c C00U85980  10.622   6.867   3.467 -0.8565  1.6998 -0.5156
  4634G12c C00T85981  10.499   6.927   3.490 -0.2259 -0.8656  1.2865
  4634G12c C01685982  10.476   7.063   3.510 -1.4511 -1.1433 -2.1469
  4634G12c C01585983  10.594   7.141   3.544 -0.2978 -1.3891 -1.5084
  4634G12c C01085984  10.722   7.082   3.556  0.1424  0.4448 -0.8592
  4634G12c C01185985  10.835   7.159   3.586 -0.8851 -0.0429 -0.9549
  4634G12c H00585986  10.926   7.101   3.584 -1.9315 -1.7186 -0.5971
  4634G12c C01285987  10.825   7.306   3.610 -0.0988 -0.0640 -0.8957
  4634G12c C01785988  10.955   7.412   3.617  1.3266 -1.6844 -1.0615
  4634G12c O00285989  11.068   7.352   3.653 -0.8504  0.7316 -0.7499
  4634G12c H00485990  11.020   7.288   3.705 -1.8645  3.9848  2.5334
  4634G12c C01885991  10.958   7.536   3.548 -0.9086  0.5488 -0.0224
  4634G12c O00185992  10.866   7.619   3.488  0.6513 -0.7862  0.8127
  4634G12c H00385993  10.905   7.697   3.452  0.3400 -1.7347 -1.6321
  4634G12c C01985994  11.101   7.602   3.563  1.5638 -0.8470 -1.7255
  4634G12c H00285995  11.105   7.629   3.668  0.7270 -3.1180 -1.0766
  4634G12c H00185996  11.191   7.541   3.561  3.7306  2.2435 -3.3123
  4634G12c O00085997  11.099   7.720   3.484 -0.5660 -0.2462 -0.2351
  4634G12c C01A85998  11.123   7.840   3.546 -0.2319 -0.5727  2.4384
  4634G12c C02K85999  11.071   7.872   3.687 -0.2159 -2.1409  0.0690
  4634G12c O00G86000  10.973   7.778   3.753 -0.3780 -0.1626  1.1596
  4634G12c C02M86001  10.844   7.823   3.728  0.8884  0.0805 -0.5070
  4634G12c H01G86002  10.864   7.865   3.629  0.2883  6.0335  1.6664
  4634G12c H01F86003  10.861   7.914   3.785 -7.0482  2.8911 -1.9662
  4634G12c H01E86004  10.757   7.762   3.753  1.4680 -1.0160 -1.1511
  4634G12c C02J86005  11.136   7.975   3.757 -0.0952 -1.3087  1.3515
  4634G12c H01H86006  11.121   8.000   3.861 -6.1923  2.6370 -0.2418
  4634G12c C02I86007  11.246   8.058   3.709 -0.1235 -1.3929  0.5754
  4634G12c C02N86008  11.335   8.147   3.791 -1.9257  1.4156 -0.0797
  4634G12c H01M86009  11.298   8.178   3.888 -0.6115  3.8797 -0.3394
  4634G12c C02O86010  11.450   8.199   3.756  0.5497  0.1762  1.1266
  4634G12c H01L86011  11.471   8.175   3.653 -2.3901  0.6812  0.3513
  4634G12c C02P86012  11.544   8.284   3.823 -1.9079  0.2445  0.4439
  4634G12c H01K86013  11.622   8.264   3.750  3.8082 -0.4402  6.2090
  4634G12c H01J86014  11.535   8.391   3.806  4.0693  1.1365  1.4600
  4634G12c O00H86015  11.571   8.271   3.954 -1.0875  0.3594 -0.2914
  4634G12c H01I86016  11.537   8.342   4.006  0.6846 -0.5696  2.2111
  4634G12c C02H86017  11.272   8.034   3.571  1.5999 -0.7003  0.2061
  4634G12c H01C86018  11.356   8.081   3.523  5.6548 -4.3871  3.2996
  4634G12c C02L86019  11.223   7.924   3.492  2.1641 -0.8207 -0.8612
  4634G12c H01D86020  11.213   7.940   3.386  3.4566  1.2810 -0.6919
  4634G12c C01386021  10.685   7.340   3.610 -0.7237  0.9666  1.0186
  4634G12c H00086022  10.680   7.444   3.641  1.9651  2.7354 -3.9502
  4634G12c C01486023  10.576   7.262   3.604 -1.1945  1.4418 -1.0875
  4634G12c C00F86024  10.447   7.296   3.661  1.4402  0.7309  1.5241
  4634G12c C00H86025  10.347   7.119   3.525 -0.3061  0.4773 -0.3972
  4634G12c C00I86026  10.246   7.029   3.494 -0.6170  0.6124 -0.8623
  4634G12c C00J86027  10.266   6.905   3.427  0.3783 -0.8970 -0.2772
  4634G12c C00Z86028  10.739   6.952   3.502 -1.8500 -1.9150  0.5116
  4634G12c C00Y86029  10.862   6.886   3.483 -0.0365  1.2978  1.0227
  4634G12c H00686030  10.959   6.927   3.507 -0.3794  0.3292  4.3856
  4634G12c C00X86031  10.881   6.759   3.432 -0.5004  1.8130  0.5295
  4634G12c O00386032  11.009   6.693   3.437 -0.9112 -1.4666 -0.5580
  4634G12c C01B86033  11.043   6.565   3.477  1.8971  1.4349  1.8662
  4634G12c H00986034  11.012   6.496   3.399  2.1603  6.0631 -2.5684
  4634G12c H00886035  11.013   6.532   3.576  3.9979 -3.2861  1.0646
  4634G12c H00786036  11.152   6.554   3.473  1.8015  0.8965  0.2505
  4634G12c C00W86037  10.767   6.677   3.399 -2.3582 -1.0823 -1.5392
  4634G12c O00486038  10.792   6.559   3.346 -0.8422  1.1619 -1.2060
  4634G12c C01C86039  10.691   6.472   3.358 -0.3969  0.9056 -1.4003
  4634G12c H00A86040  10.704   6.366   3.340 -1.8191  0.6939 -1.2506
  4634G12c C00P86041  10.552   6.512   3.386 -1.7183  0.1693 -1.4561
  4634G12c C00O86042  10.464   6.433   3.450  1.8472  0.0189  0.0767
  4634G12c C01D86043  10.500   6.298   3.485 -0.5652 -0.8791  2.4141
  4634G12c H00S86044  10.596   6.250   3.473 -0.9001 -1.0764  0.1818
  4634G12c C01E86045  10.404   6.207   3.541 -0.2604 -0.3606 -0.9716
  4634G12c O00886046  10.444   6.108   3.634  1.4896 -0.2011 -0.2697
  4634G12c C01V86047  10.574   6.077   3.693  0.9181  1.8828 -0.6886
  4634G12c C01Z86048  10.611   6.214   3.768 -1.1688  1.3203 -1.3935
  4634G12c H00R86049  10.701   6.255   3.722 -0.5276  1.2263 -0.2201
  4634G12c H00Q86050  10.521   6.269   3.740 -2.3733 -1.3869 -3.1473
  4634G12c O00986051  10.600   6.226   3.905  1.8385  0.2489  2.0564
  4634G12c H00P86052  10.508   6.211   3.922  0.7772  0.9974 -2.3773
  4634G12c C01W86053  10.639   5.959   3.691  0.9151  1.8709 -1.2900
  4634G12c H00O86054  10.587   5.900   3.617  6.9483 -1.9854 -2.8478
  4634G12c C01X86055  10.726   5.905   3.795 -0.7956  1.6962  0.7642
  4634G12c H00N86056  10.722   5.969   3.883 -4.6453  3.9196 -0.9005
  4634G12c H00M86057  10.716   5.799   3.818  0.8717  0.4126 -3.8502
  4634G12c C01Y86058  10.863   5.926   3.748 -0.3302 -0.2296 -1.0182
  4634G12c C02D86059  10.914   5.892   3.620 -0.2010  0.0271  2.0092
  4634G12c H01986060  10.859   5.847   3.539  0.6637  0.9790  0.8708
  4634G12c C02C86061  11.060   5.908   3.597  0.3383 -1.0186 -1.5867
  4634G12c H01A86062  11.096   5.905   3.495 -4.1566  1.5999 -3.4053
  4634G12c C02B86063  11.149   5.939   3.699  1.3618 -0.8769 -1.2177
  4634G12c O00E86064  11.284   5.968   3.682  0.3148  0.2132  0.6919
  4634G12c H01B86065  11.314   6.021   3.754 -2.0628 -1.2717  2.8644
  4634G12c C02F86066  11.093   5.954   3.840  0.1984  0.3779 -1.8629
  4634G12c O00F86067  11.178   6.019   3.937  0.5448  0.8416  0.3863
  4634G12c C02G86068  11.184   5.937   4.056  1.5523 -1.2487  0.1749
  4634G12c H01786069  11.089   5.920   4.106  3.4394  2.2388  5.2935
  4634G12c H01686070  11.225   5.839   4.028  0.2850 -2.7095  3.2219
  4634G12c H01586071  11.250   5.983   4.129 -0.3015  6.1607 -2.4480
  4634G12c C02E86072  10.951   5.942   3.852 -1.1228  0.6773 -0.7708
  4634G12c H01886073  10.917   5.975   3.949 -5.3801  3.1422 -2.9556
  4634G12c C01F86074  10.268   6.243   3.560  1.0506  1.3335  0.6311
  4634G12c C01G86075  10.178   6.191   3.660  1.6176 -1.6009  0.2984
  4634G12c H00L86076  10.246   6.135   3.723  6.9992 -0.3477 -3.9548
  4634G12c C01H86077  10.044   6.241   3.675  0.9548 -0.3194 -0.7772
  4634G12c H00B86078   9.987   6.239   3.766  0.1077  2.1908 -1.2104
  4634G12c C01I86079  10.016   6.351   3.596 -0.1258 -1.0625 -1.3953
  4634G12c C01U86080  10.222   6.329   3.462  0.7780 -0.2119  0.0131
  4634G12c C00S86081  10.393   6.850   3.422 -1.0971 -1.9341  1.4270
  4634G12c C00K86082  10.188   6.783   3.424 -1.8494 -1.4245 -0.1633
  4634G12c C00N86083  10.318   6.439   3.461 -0.6916  0.8810 -0.1506
  4634G12c C00086084  10.090   6.373   3.477  0.5620 -1.8859 -0.3001
  4634G12c C01J86085   9.948   6.475   3.624 -2.5435  1.7404 -0.0217
  4634G12c C01K86086   9.857   6.503   3.725 -0.8495 -2.5523  0.3652
  4634G12c C01P86087   9.786   6.405   3.792  1.2834 -0.8479  1.2237
  4634G12c C01Q86088   9.757   6.273   3.743  0.2369  1.2956 -0.3317
  4634G12c H00G86089   9.737   6.261   3.638 -4.6125  1.5637  0.4386
  4634G12c C01R86090   9.758   6.164   3.818  1.6182 -1.0877  0.8444
  4634G12c H00F86091   9.752   6.069   3.767  1.4567 -1.5658  1.7419
  4634G12c C01S86092   9.779   6.150   3.980 -0.6932  1.0778  0.8951
  4634G12c H00E86093   9.687   6.121   4.030  1.1210  0.2114  3.9186
  4634G12c H00D86094   9.818   6.231   4.043 -0.9423  5.4374 -4.2056
  4634G12c O00586095   9.853   6.048   4.025 -0.5014  1.1068 -1.5098
  4634G12c H00C86096   9.916   6.017   3.961  1.8007 -1.0285  1.6280
  4634G12c C01O86097   9.709   6.438   3.909  0.4947 -1.2393 -0.8954
  4634G12c H00H86098   9.626   6.375   3.936  0.9287 -0.5296  2.2409
  4634G12c C01N86099   9.689   6.569   3.951  1.9275  0.4248  0.2410
  4634G12c O00686100   9.593   6.566   4.065 -1.2623  0.2973 -1.5404
  4634G12c C01T86101   9.520   6.676   4.088  0.8153 -1.0505 -2.0889
  4634G12c H00K86102   9.464   6.721   4.007  1.2701  1.2245 -1.1790
  4634G12c H00J86103   9.554   6.763   4.144  2.3426 -1.3627 -2.5153
  4634G12c H00I86104   9.433   6.664   4.154  3.1395  2.3582  1.8148
  4634G12c C01M86105   9.764   6.675   3.880  2.1434 -0.2538  0.5000
  4634G12c C02086106  10.066   6.816   3.509 -0.6885  0.1160  0.2548
  4634G12c C02186107  10.028   6.959   3.554  0.6006 -0.3061 -1.7987
  4634G12c C01L86108   9.850   6.639   3.764  0.3050 -0.2207 -0.9416
  4634G12c O00786109   9.741   6.813   3.914 -0.7898 -0.0080  1.0820
  4634G12c C02286110   9.985   6.959   3.689  1.1990  1.6043  1.1869
  4634G12c C02386111  10.125   7.064   3.569 -0.5494  0.9903  1.1577
  4634G12c C00G86112  10.326   7.222   3.624 -0.0796  1.3599  0.6421
  4634G12c C00E86113  10.437   7.398   3.765  0.4087  0.4414  0.4581
  4634G12c O00A86114  10.529   7.481   3.779  0.1883 -1.0332  0.4993
  4634G12c C02486115  10.611   7.461   3.894 -0.8355  1.5465 -1.2711
  4634G12c H00V86116  10.716   7.478   3.872 -0.2542 -1.8390 -1.4519
  4634G12c H00U86117  10.606   7.368   3.952 -1.0366  1.0188 -2.1196
  4634G12c H00T86118  10.578   7.531   3.971 -2.9650 -2.5792  1.7765
  4644G12c C00D86119   7.233   5.897   2.530  0.0220 -1.7499  0.1794
  4644G12c O00B86120   7.341   5.826   2.510 -0.2997  0.5133  1.1070
  4644G12c C02586121   7.386   5.739   2.619  0.3883  0.2148  0.3793
  4644G12c C02686122   7.376   5.584   2.583 -0.5233  0.4345  1.0092
  4644G12c H00Y86123   7.301   5.543   2.516  0.8405 -2.9867  1.4811
  4644G12c H00X86124   7.384   5.524   2.674 -2.3627  1.3827  1.8331
  4644G12c O00C86125   7.489   5.580   2.501  1.5637 -1.0091  1.0807
  4644G12c H00W86126   7.579   5.582   2.531  3.0627 -0.4214 -3.1321
  4644G12c C02786127   7.438   5.772   2.739  0.2653  1.7840  0.1120
  4644G12c O00D86128   7.441   5.912   2.768 -0.1413 -0.2717  0.1762
  4644G12c H00Z86129   7.369   5.963   2.732  6.6530  3.5987 -9.9478
  4644G12c C02886130   7.499   5.686   2.838 -2.2295  0.1710  0.7407
  4644G12c C02986131   7.433   5.571   2.904 -0.0257  0.5185  0.2053
  4644G12c H01086132   7.330   5.578   2.871 -1.3687  0.4578  4.1377
  4644G12c C02T86133   7.473   5.511   3.025 -0.8237 -0.2226 -1.7039
  4644G12c H01O86134   7.403   5.464   3.092 -1.0053  1.9008 -0.3797
  4644G12c C02S86135   7.595   5.563   3.082 -0.2902  0.2049  0.1530
  4644G12c O00J86136   7.642   5.546   3.213  0.6536  0.4464  0.1032
  4644G12c H01P86137   7.639   5.634   3.247  0.9900  1.4091 -2.2889
  4644G12c C02R86138   7.670   5.662   3.010 -0.4969 -2.2197  0.1157
  4644G12c O00I86139   7.769   5.729   3.092  0.9534  0.0151  0.7753
  4644G12c C02Q86140   7.896   5.718   3.008  1.1650  0.0335 -1.5441
  4644G12c H01N86141   7.909   5.618   2.966  4.5517 -0.2029 -0.0815
  4644G12c H01R86142   7.867   5.785   2.927  1.6365  1.7617 -0.3034
  4644G12c H01Q86143   7.961   5.773   3.076  3.0184  3.7505 -6.0243
  4644G12c C02A86144   7.636   5.698   2.880 -1.4951 -0.4875  2.2306
  4644G12c H01186145   7.669   5.789   2.832  1.6713 -2.7124  0.0323
  4644G12c C00C86146   7.159   5.910   2.643 -0.5008  0.2088 -1.0594
  4644G12c H01286147   7.194   5.820   2.691 -3.1383 -0.2269  0.0918
  4644G12c C00B86148   7.051   5.985   2.647 -1.4946 -0.7214  0.0505
  4644G12c C00A86149   6.958   5.991   2.758  1.6364 -1.7801  0.3528
  4644G12c C00986150   6.892   5.879   2.818 -1.3873 -2.8729  1.6949
  4644G12c C00886151   6.925   5.741   2.821 -1.3293 -1.3253  0.4418
  4644G12c H01386152   7.031   5.718   2.811 -0.8205  1.9054 -2.5476
  4644G12c C00786153   6.821   5.644   2.815  0.0796 -0.1215  0.3490
  4644G12c H01486154   6.851   5.541   2.809  0.7415 -0.1022  2.9385
  4644G12c C00686155   6.688   5.683   2.817  1.0291  1.5834 -0.4317
  4644G12c C00586156   6.665   5.828   2.839 -1.5025  1.4771  0.5110
  4644G12c C00486157   6.536   5.883   2.821 -0.0281  0.9283 -1.0606
  4644G12c C00386158   6.508   6.020   2.800 -0.7409  1.4316  1.5116
  4644G12c C00286159   6.378   6.063   2.777  0.9325  1.0080 -0.7037
  4644G12c C00186160   6.307   6.175   2.755  1.2950  0.3549 -0.7894
  4644G12c C00M86161   6.347   6.267   2.656 -0.4422 -0.9367  0.5392
  4644G12c C00L86162   6.484   6.296   2.631  0.1815  2.2460  1.2066
  4644G12c C00R86163   6.541   6.350   2.504 -2.3483  1.9016 -0.5935
  4644G12c C00Q86164   6.485   6.417   2.399  0.3668 -0.0802  0.1341
  4644G12c C00V86165   6.566   6.413   2.283  0.4093 -1.2758  1.5218
  4644G12c C00U86166   6.700   6.350   2.277 -0.3128  1.2833  0.2223
  4644G12c C00T86167   6.761   6.302   2.393 -0.2169  0.7279 -0.4760
  4644G12c C01686168   6.852   6.203   2.397 -2.6064 -0.8174 -0.0515
  4644G12c C01586169   6.930   6.183   2.279  0.9043  0.9191  2.5183
  4644G12c C01086170   6.893   6.258   2.166  0.4770  1.6624 -0.4948
  4644G12c C01186171   6.983   6.266   2.053 -0.8677 -0.5506 -0.0054
  4644G12c H00586172   6.959   6.321   1.964  5.6497  2.3312 -0.2394
  4644G12c C01286173   7.089   6.168   2.050 -0.0612 -0.4626  0.2217
  4644G12c C01786174   7.167   6.148   1.925  0.0892 -0.4820 -0.0095
  4644G12c O00286175   7.099   6.093   1.825  0.5756 -0.6044 -0.0800
  4644G12c H00486176   7.008   6.098   1.803  1.1216 -5.2234 -4.1711
  4644G12c C01886177   7.304   6.171   1.931  1.8063  1.8399 -0.4886
  4644G12c O00186178   7.336   6.234   2.040 -0.1903  0.8299  1.2360
  4644G12c H00386179   7.264   6.269   2.090 -0.2712  4.1652 -1.0232
  4644G12c C01986180   7.414   6.119   1.828  1.6031 -0.5052 -2.3549
  4644G12c H00286181   7.425   6.201   1.757  4.0302 -1.3716 -3.0118
  4644G12c H00186182   7.515   6.098   1.864  2.4268 -2.4254 -5.6475
  4644G12c O00086183   7.391   6.008   1.753  0.1936  0.0520 -0.2962
  4644G12c C01A86184   7.502   5.948   1.697 -0.8907  0.3916 -0.8416
  4644G12c C02K86185   7.527   5.812   1.728 -0.0681  0.9578 -1.3892
  4644G12c O00G86186   7.445   5.755   1.813  1.9785  0.2134 -1.2239
  4644G12c C02M86187   7.333   5.667   1.770  0.2355  0.4186 -0.5946
  4644G12c H01G86188   7.321   5.637   1.666 -3.8735 -0.2469 -0.0110
  4644G12c H01F86189   7.302   5.578   1.825 -5.2664  2.2528 -0.4515
  4644G12c H01E86190   7.248   5.734   1.760  1.8015  3.1459  3.2285
  4644G12c C02J86191   7.647   5.751   1.663  0.8030  0.6029 -1.0014
  4644G12c H01H86192   7.668   5.662   1.721 -0.2606 -0.1139 -1.7062
  4644G12c C02I86193   7.710   5.818   1.562 -1.4162  0.0604  0.7300
  4644G12c C02N86194   7.829   5.768   1.492 -0.5234 -1.8908  0.5197
  4644G12c H01M86195   7.824   5.667   1.454  2.5877 -1.0338 -2.4599
  4644G12c C02O86196   7.941   5.850   1.465 -1.1458 -1.0847 -0.9304
  4644G12c H01L86197   7.934   5.950   1.507  0.4957  0.1536 -3.5330
  4644G12c C02P86198   8.036   5.839   1.351 -1.4007  0.5700 -1.5821
  4644G12c H01K86199   8.034   5.736   1.316 -1.1562  0.0721 -0.1979
  4644G12c H01J86200   7.962   5.891   1.291 -1.3405 -2.5435 -4.4781
  4644G12c O00H86201   8.166   5.888   1.396 -0.4307  1.2347 -2.6442
  4644G12c H01I86202   8.218   5.821   1.356 -1.6789 -1.1577 -0.4268
  4644G12c C02H86203   7.676   5.946   1.526 -0.3454 -1.2445 -0.4059
  4644G12c H01C86204   7.749   5.989   1.458  2.5439 -2.7463  1.6427
  4644G12c C02L86205   7.580   6.013   1.614 -0.1650  0.1456  0.3769
  4644G12c H01D86206   7.556   6.118   1.610 -0.9610 -0.0575 -0.4058
  4644G12c C01386207   7.106   6.084   2.161  0.0932 -0.4890 -0.8827
  4644G12c H00086208   7.174   6.001   2.148 -1.1133 -1.5799 -0.3951
  4644G12c C01486209   7.042   6.105   2.284  0.5873 -1.6580  0.1754
  4644G12c C00F86210   7.086   6.058   2.403 -1.0881  0.1685  1.5841
  4644G12c C00H86211   6.890   6.136   2.519 -0.4213 -2.1723 -0.2906
  4644G12c C00I86212   6.830   6.176   2.641  0.5042  0.3423  0.3654
  4644G12c C00J86213   6.708   6.239   2.620 -1.1671  0.3336  0.2940
  4644G12c C00Z86214   6.791   6.360   2.168  0.7620  0.6049  0.0316
  4644G12c C00Y86215   6.755   6.454   2.074 -1.5547 -0.8067 -1.5641
  4644G12c H00686216   6.843   6.489   2.022 -0.6195  3.0845  2.3266
  4644G12c C00X86217   6.627   6.525   2.068  0.3540  0.3786  0.3524
  4644G12c O00386218   6.580   6.606   1.955 -0.7067  1.2927 -0.7134
  4644G12c C01B86219   6.661   6.600   1.820  0.7627 -1.6627 -0.3543
  4644G12c H00986220   6.664   6.492   1.810  0.4544 -1.8093  1.0642
  4644G12c H00886221   6.583   6.622   1.748 -2.4832 -4.1363  2.2601
  4644G12c H00786222   6.760   6.640   1.796 -1.0517 -0.5806 -6.7939
  4644G12c C00W86223   6.533   6.482   2.157 -0.2385 -1.3431 -0.9588
  4644G12c O00486224   6.412   6.550   2.147  1.5075  0.4250  0.0726
  4644G12c C01C86225   6.304   6.516   2.235 -0.1295 -1.7727 -0.7743
  4644G12c H00A86226   6.215   6.547   2.182  1.4353 -1.9759 -3.6589
  4644G12c C00P86227   6.342   6.431   2.354  0.5186 -1.3914  1.5916
  4644G12c C00O86228   6.248   6.345   2.416  0.8749 -2.3951 -1.9188
  4644G12c C01D86229   6.188   6.272   2.310 -1.1694  0.0896  0.6380
  4644G12c H00S86230   6.203   6.263   2.204  2.0073 -0.0610  1.0424
  4644G12c C01E86231   6.077   6.175   2.334 -0.2244 -0.8093  0.9205
  4644G12c O00886232   6.006   6.116   2.235  0.6572  1.0944 -0.1884
  4644G12c C01V86233   5.941   6.196   2.137  0.7023  0.5921  1.5599
  4644G12c C01Z86234   5.878   6.329   2.173  0.5256  0.2688  2.0474
  4644G12c H00R86235   5.941   6.373   2.250 -0.1170 -4.2905  5.4478
  4644G12c H00Q86236   5.912   6.390   2.090  0.7075 -3.0998 -0.4845
  4644G12c O00986237   5.740   6.304   2.170 -0.8483  0.5211 -0.1758
  4644G12c H00P86238   5.698   6.304   2.255 -3.6206  1.6866 -1.4810
  4644G12c C01W86239   5.963   6.163   2.008 -0.2554 -1.5585  0.0374
  4644G12c H00O86240   6.022   6.073   2.012 -0.4804 -1.7780 -1.5937
  4644G12c C01X86241   5.890   6.209   1.890  0.6452  0.7495 -2.2969
  4644G12c H00N86242   5.847   6.308   1.905  4.0826  2.1001 -0.8401
  4644G12c H00M86243   5.974   6.222   1.822 -2.2534 -5.2659 -7.5832
  4644G12c C01Y86244   5.782   6.094   1.843 -1.6231 -0.0431 -0.2439
  4644G12c C02D86245   5.707   6.026   1.939 -1.1045  0.1147  0.2486
  4644G12c H01986246   5.706   6.036   2.047 -0.7196 -2.5938  0.5563
  4644G12c C02C86247   5.617   5.910   1.889 -0.4966 -1.0048  0.1526
  4644G12c H01A86248   5.566   5.843   1.956  2.6744 -5.2312 -1.3980
  4644G12c C02B86249   5.609   5.892   1.751  0.5657 -0.5881 -1.2618
  4644G12c O00E86250   5.535   5.792   1.700 -0.4414  0.8039  0.0014
  4644G12c H01B86251   5.470   5.857   1.678 -0.5647  1.9498  3.4057
  4644G12c C02F86252   5.684   5.979   1.665  0.0611  0.6922  0.6997
  4644G12c O00F86253   5.685   5.947   1.533  1.1161  0.1174 -1.0171
  4644G12c C02G86254   5.603   6.032   1.452  0.8580  0.5812  0.2263
  4644G12c H01786255   5.549   5.951   1.403 -0.6716 -0.3579  3.3434
  4644G12c H01686256   5.648   6.126   1.418  4.9618 -0.5983  2.0604
  4644G12c H01586257   5.507   6.070   1.485 -1.1494 -1.7349 -2.7216
  4644G12c C02E86258   5.758   6.097   1.709 -1.2439 -0.1541 -0.0539
  4644G12c H01886259   5.825   6.155   1.648 -2.2609 -0.8088 -1.8096
  4644G12c C01F86260   6.060   6.128   2.466 -0.2885 -1.2134  1.1881
  4644G12c C01G86261   6.003   6.004   2.498 -2.0869 -0.0083 -0.3464
  4644G12c H00L86262   5.933   5.952   2.435 -2.7758  0.3456  0.1160
  4644G12c C01H86263   6.046   5.936   2.628 -0.6841 -0.5923  0.4556
  4644G12c H00B86264   6.010   5.835   2.631  5.3183 -2.9838 -0.1561
  4644G12c C01I86265   6.156   5.991   2.702 -0.1818 -1.8741 -0.2371
  4644G12c C01U86266   6.151   6.185   2.566 -1.5463  1.4461  1.1894
  4644G12c C00S86267   6.674   6.301   2.506  0.5927  0.9185 -0.6525
  4644G12c C00K86268   6.596   6.234   2.696  0.4358  0.9490  0.9362
  4644G12c C00N86269   6.249   6.286   2.545  0.8854 -0.3473  0.0912
  4644G12c C00086270   6.183   6.126   2.694  0.1607  1.1193 -0.4484
  4644G12c C01J86271   6.287   5.956   2.753 -0.6089  1.0153 -0.7519
  4644G12c C01K86272   6.297   5.825   2.817 -0.7991 -2.0434  0.5318
  4644G12c C01P86273   6.182   5.740   2.856 -0.7779  0.8410  0.0552
  4644G12c C01Q86274   6.051   5.779   2.912  0.3356 -0.0076 -1.5008
  4644G12c H00G86275   5.989   5.701   2.871 -2.2500 -1.8912  5.3179
  4644G12c C01R86276   6.033   5.859   3.018  0.5367 -0.8638  0.9168
  4644G12c H00F86277   5.938   5.873   3.068 -1.1290 -4.3051 -1.0706
  4644G12c C01S86278   6.125   5.941   3.082 -0.6171  0.5034  0.8903
  4644G12c H00E86279   6.115   5.941   3.190 -2.2105 -1.0176  0.7653
  4644G12c H00D86280   6.226   5.919   3.048  1.1269 -0.9481  6.6207
  4644G12c O00586281   6.091   6.078   3.034 -0.4168 -1.5481 -1.7285
  4644G12c H00C86282   5.997   6.081   3.027 -1.9360 -4.1112  8.7401
  4644G12c C01O86283   6.207   5.599   2.829  0.7867 -0.0618 -0.5557
  4644G12c H00H86284   6.139   5.517   2.814 -0.2182 -0.1117  3.6903
  4644G12c C01N86285   6.346   5.550   2.844  0.9677  0.4477  3.1818
  4644G12c O00686286   6.334   5.418   2.833 -1.3185 -0.6918  1.0300
  4644G12c C01T86287   6.439   5.344   2.770 -0.7459  0.7771 -0.2811
  4644G12c H00K86288   6.404   5.240   2.769  2.4456 -0.4661  3.6677
  4644G12c H00J86289   6.521   5.353   2.842 -2.3705 -2.0920  2.0580
  4644G12c H00I86290   6.427   5.369   2.664 -0.2888  0.9561 -0.2926
  4644G12c C01M86291   6.462   5.640   2.830 -0.5719  1.0227 -0.4526
  4644G12c C02086292   6.615   6.122   2.787 -1.1579 -0.7809 -1.9179
  4644G12c C02186293   6.737   6.060   2.822  0.9049 -1.4684 -1.1757
  4644G12c C01L86294   6.433   5.789   2.832  0.6637 -0.6618 -0.2735
  4644G12c O00786295   6.589   5.597   2.810  1.3776 -0.3227 -0.1978
  4644G12c C02286296   6.764   5.929   2.846 -1.2760  0.1890 -0.1410
  4644G12c C02386297   6.856   6.092   2.762  0.3820 -0.6918  0.1109
  4644G12c C00G86298   7.016   6.074   2.526 -0.6751 -0.6716  0.1125
  4644G12c C00E86299   7.209   5.984   2.416 -1.5069 -0.4919  0.9320
  4644G12c O00A86300   7.316   5.984   2.314 -0.0901 -0.2223 -0.2046
  4644G12c C02486301   7.414   6.102   2.324  0.0741 -0.0650 -0.9989
  4644G12c H00V86302   7.459   6.095   2.423  4.3804 -1.1211 -2.9441
  4644G12c H00U86303   7.515   6.069   2.303 -1.5457 -2.4924 -5.7098
  4644G12c H00T86304   7.384   6.206   2.316  1.4146  0.4111  0.0328
  4654G12c C00D86305   7.727   4.034  11.636 -0.6129  0.5588 -2.1680
  4654G12c O00B86306   7.741   3.900  11.681  1.8620  1.3190  1.8451
  4654G12c C02586307   7.807   3.808  11.621 -1.0257  1.8686  0.4102
  4654G12c C02686308   7.931   3.867  11.532  2.3223 -0.3099 -0.2892
  4654G12c H00Y86309   7.967   3.769  11.500 -3.8619 -3.3122  1.2937
  4654G12c H00X86310   7.996   3.938  11.583  2.1784  5.4817 -7.4064
  4654G12c O00C86311   7.916   3.930  11.394  0.2409 -0.1081  0.6664
  4654G12c H00W86312   7.973   4.004  11.378 -2.0904  1.6177  0.0131
  4654G12c C02786313   7.767   3.672  11.641  0.1022 -0.7383  0.1507
  4654G12c O00D86314   7.674   3.640  11.731  0.9141  0.8143 -0.5298
  4654G12c H00Z86315   7.633   3.556  11.740 -2.4579  2.2865 -1.3218
  4654G12c C02886316   7.852   3.571  11.600  2.1646  1.4705 -0.7152
  4654G12c C02986317   7.910   3.487  11.707 -1.2186  0.5320 -0.7375
  4654G12c H01086318   7.898   3.523  11.808  0.7312 -3.8520  1.2179
  4654G12c C02T86319   8.012   3.389  11.675 -1.7150 -1.1675 -1.4235
  4654G12c H01O86320   8.069   3.358  11.761 -0.2617  1.7964 -1.2429
  4654G12c C02S86321   8.036   3.373  11.540  0.3725  1.2004  0.9676
  4654G12c O00J86322   8.122   3.285  11.500  0.6123 -0.5292  0.2218
  4654G12c H01P86323   8.144   3.216  11.561 -3.4418 -4.7777 -2.7948
  4654G12c C02R86324   7.977   3.465  11.448  0.2856 -0.8138  2.7175
  4654G12c O00I86325   8.031   3.458  11.317 -1.5352  0.0950 -0.2454
  4654G12c C02Q86326   8.153   3.544  11.300  0.5249  1.6767  0.4818
  4654G12c H01N86327   8.191   3.566  11.400  1.5679 -0.1980  0.5069
  4654G12c H01R86328   8.122   3.624  11.233 -5.2737 -3.4083 -3.5008
  4654G12c H01Q86329   8.216   3.490  11.229 -4.0045  4.4003 -6.1901
  4654G12c C02A86330   7.869   3.542  11.468 -0.5594  0.3343  1.8694
  4654G12c H01186331   7.828   3.580  11.375 -4.5177 -7.6683 -0.0707
  4654G12c C00C86332   7.677   4.056  11.513  1.6054 -0.8294 -0.1691
  4654G12c H01286333   7.654   3.963  11.463  1.4973  0.4225 -2.5055
  4654G12c C00B86334   7.635   4.189  11.471  0.1992  0.3133  1.6671
  4654G12c C00A86335   7.554   4.232  11.359 -0.7138  1.1289  1.3596
  4654G12c C00986336   7.550   4.138  11.249  0.1372 -1.6354  0.3267
  4654G12c C00886337   7.573   3.995  11.243 -0.7026  0.1470 -0.1819
  4654G12c H01386338   7.513   3.965  11.328 -3.3428  3.3092 -0.8497
  4654G12c C00786339   7.638   3.918  11.149  0.5661 -0.9191  0.7610
  4654G12c H01486340   7.631   3.814  11.119  2.4407 -0.5816 -0.9661
  4654G12c C00686341   7.690   4.010  11.065 -1.1366 -0.5051 -1.4105
  4654G12c C00586342   7.648   4.149  11.044  0.7799  0.7993 -0.7234
  4654G12c C00486343   7.715   4.229  10.958  1.6884  1.0076 -0.5649
  4654G12c C00386344   7.710   4.359  10.975  0.6413  0.4646  0.1108
  4654G12c C00286345   7.793   4.445  10.877  0.5354 -0.1143 -0.0406
  4654G12c C00186346   7.834   4.591  10.883  1.5565 -0.6930  0.0668
  4654G12c C00M86347   7.851   4.685  10.990  1.0801 -2.3088  0.6717
  4654G12c C00L86348   7.792   4.670  11.115  0.3529 -1.5767  1.7900
  4654G12c C00R86349   7.834   4.731  11.246 -1.5989  2.9741 -1.1379
  4654G12c C00Q86350   7.952   4.805  11.277  0.5833 -0.8687 -0.3706
  4654G12c C00V86351   7.974   4.811  11.418  0.6162 -0.5687  0.4167
  4654G12c C00U86352   7.922   4.731  11.504  1.5854 -0.4413 -0.6025
  4654G12c C00T86353   7.825   4.625  11.463 -0.6523 -0.6412 -2.0393
  4654G12c C01686354   7.766   4.525  11.539 -1.7239  1.1017  0.2458
  4654G12c C01586355   7.828   4.510  11.662  1.5384 -0.8971 -1.2223
  4654G12c C01086356   7.933   4.600  11.700  0.0238  0.3172 -0.7508
  4654G12c C01186357   7.985   4.581  11.820  0.4385 -1.8246  1.9792
  4654G12c H00586358   8.053   4.655  11.858  6.7334 -2.5107 -6.4656
  4654G12c C01286359   7.968   4.477  11.900 -0.2157  0.0384 -1.3956
  4654G12c C01786360   8.009   4.454  12.042 -1.4295 -0.1712  0.9120
  4654G12c O00286361   8.097   4.345  12.037 -1.0064 -0.2071  0.8014
  4654G12c H00486362   8.127   4.330  12.126  4.6794 -4.0824 -1.5261
  4654G12c C01886363   7.981   4.526  12.154  0.6417  0.6238  1.1263
  4654G12c O00186364   7.884   4.622  12.141 -0.2446  0.8800 -0.0875
  4654G12c H00386365   7.908   4.712  12.123  4.6747 -0.8913 -3.3553
  4654G12c C01986366   8.056   4.516  12.288 -0.5362 -1.4132 -1.4200
  4654G12c H00286367   8.142   4.582  12.296 -2.3894  1.0406 -1.1612
  4654G12c H00186368   7.986   4.554  12.362 -1.8961  0.3237 -3.5435
  4654G12c O00086369   8.097   4.374  12.305  0.0820 -0.8758 -0.4916
  4654G12c C01A86370   8.149   4.380  12.448  1.1294  0.4458  1.1953
  4654G12c C02K86371   8.290   4.407  12.482  0.6739 -0.6926 -0.3670
  4654G12c O00G86372   8.370   4.423  12.373 -0.0084 -0.0654  0.0624
  4654G12c C02M86373   8.454   4.316  12.339 -0.3104  0.7405  0.0130
  4654G12c H01G86374   8.480   4.285  12.238  2.2236 -6.7257  2.6320
  4654G12c H01F86375   8.423   4.215  12.365 -0.0440  0.9615  1.1998
  4654G12c H01E86376   8.561   4.318  12.358  0.2228 -0.6451 -2.5418
  4654G12c C02J86377   8.315   4.418  12.618  0.4491 -0.2361 -0.1740
  4654G12c H01H86378   8.417   4.452  12.613 -1.2862  6.0598  2.2940
  4654G12c C02I86379   8.235   4.389  12.730 -0.8135  0.6620  0.7769
  4654G12c C02N86380   8.289   4.398  12.859  0.2616 -0.7907 -1.8723
  4654G12c H01M86381   8.394   4.417  12.868  0.2970 -0.7195 -2.4172
  4654G12c C02O86382   8.206   4.386  12.965  0.8725 -1.8048  0.5243
  4654G12c H01L86383   8.099   4.366  12.963  0.4653  0.2726  0.1473
  4654G12c C02P86384   8.245   4.384  13.112 -0.2482  0.1778  1.6125
  4654G12c H01K86385   8.180   4.454  13.164  1.5233  1.3001  2.4025
  4654G12c H01J86386   8.230   4.287  13.160 -0.8274 -0.7206 -0.3442
  4654G12c O00H86387   8.373   4.456  13.116  0.1287 -0.3251 -0.2806
  4654G12c H01I86388   8.369   4.528  13.177 -5.8764  0.6728 -1.5399
  4654G12c C02H86389   8.098   4.381  12.690  0.9302  0.5056 -1.7567
  4654G12c H01C86390   8.014   4.372  12.758  1.9349 -1.7988 -0.7874
  4654G12c C02L86391   8.061   4.337  12.559  0.7295 -0.4081 -0.3496
  4654G12c H01D86392   7.966   4.305  12.520 -1.1116  4.9773 -0.6424
  4654G12c C01386393   7.881   4.377  11.858  0.8605  0.4764  1.2216
  4654G12c H00086394   7.858   4.295  11.923 -1.6418 -0.2355 -0.5014
  4654G12c C01486395   7.802   4.395  11.737  0.8643  0.5693 -1.5158
  4654G12c C00F86396   7.732   4.286  11.673  1.7336 -0.0725  0.7983
  4654G12c C00H86397   7.683   4.432  11.488 -0.6784  1.3963 -0.5940
  4654G12c C00I86398   7.650   4.452  11.359 -0.4392  0.7535 -0.4268
  4654G12c C00J86399   7.691   4.559  11.295  2.3161 -0.7632 -0.1443
  4654G12c C00Z86400   7.953   4.724  11.636 -0.5580 -0.1642  1.3171
  4654G12c C00Y86401   8.041   4.816  11.682 -0.6891 -0.6254 -0.1861
  4654G12c H00686402   8.054   4.848  11.784 -2.3501  1.9110 -0.7075
  4654G12c C00X86403   8.131   4.893  11.598 -0.1489 -0.1491 -0.7207
  4654G12c O00386404   8.220   4.981  11.651 -0.3832  1.0936 -0.1871
  4654G12c C01B86405   8.353   5.009  11.614  0.5506 -1.6126 -0.5347
  4654G12c H00986406   8.386   4.910  11.581 -3.1812 -0.8756 -7.4228
  4654G12c H00886407   8.413   5.017  11.705 -0.7519  4.9414 -0.0675
  4654G12c H00786408   8.364   5.053  11.514 -3.9699 -3.4314 -1.9687
  4654G12c C00W86409   8.092   4.880  11.471 -0.4402 -0.4915 -0.6458
  4654G12c O00486410   8.166   4.957  11.391  0.6093  0.0264 -0.1559
  4654G12c C01C86411   8.110   4.977  11.263  0.2465 -1.4955  1.0222
  4654G12c H00A86412   8.094   5.081  11.239  3.7536 -0.8456  1.2465
  4654G12c C00P86413   8.039   4.874  11.197 -0.4236 -1.0664 -1.0093
  4654G12c C00O86414   8.070   4.830  11.061  0.5146 -1.0950 -1.0630
  4654G12c C01D86415   8.208   4.851  11.018  0.9455  0.2111  0.2059
  4654G12c H00S86416   8.274   4.903  11.086 -4.2280  0.4110  5.5198
  4654G12c C01E86417   8.272   4.761  10.926  1.2022 -0.9641  0.5593
  4654G12c O00886418   8.416   4.746  10.940  0.0691  0.3871  0.4984
  4654G12c C01V86419   8.481   4.626  10.954  0.2373  1.1207 -1.1908
  4654G12c C01Z86420   8.627   4.600  10.911 -0.7014  1.7055  0.2228
  4654G12c H00R86421   8.666   4.508  10.956 -4.0894 -0.5572 -1.2545
  4654G12c H00Q86422   8.646   4.591  10.804 -1.9106 -2.6266  0.2482
  4654G12c O00986423   8.661   4.684  11.015  0.2549 -0.8162 -0.2455
  4654G12c H00P86424   8.584   4.736  11.028  2.4935  2.4040  0.8495
  4654G12c C01W86425   8.400   4.526  11.011 -1.1604  0.1725 -0.2697
  4654G12c H00O86426   8.300   4.560  11.037 -0.0338  5.3393 -2.0678
  4654G12c C01X86427   8.440   4.379  11.032  0.6857 -0.3508 -0.8173
  4654G12c H00N86428   8.538   4.390  11.077 -1.5767  3.1609  3.5634
  4654G12c H00M86429   8.382   4.335  11.113  0.2240 -0.8820 -1.4201
  4654G12c C01Y86430   8.448   4.259  10.944 -0.7936  0.7904 -2.6924
  4654G12c C02D86431   8.575   4.187  10.918 -0.1204 -0.1917  0.2585
  4654G12c H01986432   8.666   4.233  10.955  3.4967 -2.0863 -5.5945
  4654G12c C02C86433   8.574   4.073  10.838  0.0823  0.1481 -0.3118
  4654G12c H01A86434   8.662   4.035  10.789  0.0480 -2.7475  1.7808
  4654G12c C02B86435   8.453   4.026  10.796 -0.5151  0.3050  0.1174
  4654G12c O00E86436   8.450   3.934  10.704  0.5166 -0.6214  0.5316
  4654G12c H01B86437   8.533   3.890  10.695  0.8426  0.5130 -2.9722
  4654G12c C02F86438   8.326   4.078  10.849 -0.4597 -0.3934  1.3707
  4654G12c O00F86439   8.220   3.993  10.825  0.4709 -1.4630 -0.3910
  4654G12c C02G86440   8.207   3.889  10.932  0.0428  0.7318  0.1249
  4654G12c H01786441   8.105   3.852  10.922  1.8642 -5.7232  2.7700
  4654G12c H01686442   8.205   3.958  11.017  2.7728  1.3892 -0.2968
  4654G12c H01586443   8.286   3.832  10.980  1.6949  1.9444 -1.0921
  4654G12c C02E86444   8.322   4.204  10.912 -0.6782  1.5137 -0.1644
  4654G12c H01886445   8.226   4.228  10.954 -0.5913 -2.2643  2.4602
  4654G12c C01F86446   8.178   4.677  10.850  0.2961 -1.0953 -1.2358
  4654G12c C01G86447   8.230   4.561  10.787  0.1119  1.0551  0.6081
  4654G12c H00L86448   8.336   4.575  10.776 -0.1316  0.3121 -3.8072
  4654G12c C01H86449   8.134   4.451  10.759  1.0955 -0.9983  0.7257
  4654G12c H00B86450   8.166   4.348  10.764  5.7552  0.3114  0.9277
  4654G12c C01I86451   7.995   4.470  10.768  0.5361  1.6379 -0.5064
  4654G12c C01U86452   8.029   4.689  10.850  0.1792 -0.2072  0.4493
  4654G12c C00S86453   7.774   4.648  11.340  1.2637 -0.8130  0.0274
  4654G12c C00K86454   7.720   4.547  11.151 -0.4917 -1.2557 -1.2569
  4654G12c C00N86455   7.985   4.744  10.971  1.0512 -0.9663 -0.0167
  4654G12c C00086456   7.940   4.592  10.789  0.9410 -0.5561 -0.7760
  4654G12c C01J86457   7.884   4.380  10.784  0.2263 -0.2908  0.1184
  4654G12c C01K86458   7.882   4.242  10.765  0.7487 -0.5987  0.5931
  4654G12c C01P86459   7.939   4.159  10.664  0.1163 -1.2246 -0.4976
  4654G12c C01Q86460   7.976   4.221  10.538  0.7725  1.3637  0.2605
  4654G12c H00G86461   7.931   4.315  10.509  1.4090  2.3201  2.2891
  4654G12c C01R86462   8.098   4.190  10.507  0.3047 -1.7378  0.9064
  4654G12c H00F86463   8.151   4.120  10.570 -3.2547 -0.4499  5.6461
  4654G12c C01S86464   8.210   4.234  10.396  0.7582  0.4156  1.7732
  4654G12c H00E86465   8.313   4.202  10.409  2.3870  5.1086  1.5345
  4654G12c H00D86466   8.174   4.172  10.314  0.1592  2.3795  0.5107
  4654G12c O00586467   8.205   4.371  10.382  0.6901  0.7661  1.2915
  4654G12c H00C86468   8.115   4.391  10.364 -0.8442 -2.3503  4.6879
  4654G12c C01O86469   7.942   4.024  10.668  1.6732 -0.1938  1.1425
  4654G12c H00H86470   8.003   3.964  10.601  0.1756  3.9650 -4.3120
  4654G12c C01N86471   7.877   3.954  10.772 -0.8519  1.6386  0.6198
  4654G12c O00686472   7.864   3.812  10.765 -0.2569  0.4972 -0.0261
  4654G12c C01T86473   7.838   3.750  10.636  0.7027  0.1375  1.7537
  4654G12c H00K86474   7.753   3.813  10.609  6.0734  5.9463 -3.2416
  4654G12c H00J86475   7.828   3.642  10.650 -2.7509  0.3318  1.2126
  4654G12c H00I86476   7.917   3.777  10.566 -1.5939 -0.6116 -1.2345
  4654G12c C01M86477   7.812   4.025  10.870 -0.7584 -0.1058  1.5859
  4654G12c C02086478   7.667   4.425  11.093 -0.5713  0.7260  0.1579
  4654G12c C02186479   7.567   4.342  11.152  1.3447 -1.3866  0.6418
  4654G12c C01L86480   7.808   4.170  10.876  0.9703 -0.3986 -1.0014
  4654G12c O00786481   7.763   3.941  10.980 -0.3801  1.3549 -2.9301
  4654G12c C02286482   7.568   4.209  11.135  1.3395 -0.5650 -0.4265
  4654G12c C02386483   7.571   4.359  11.299  0.1634  0.5884  0.4022
  4654G12c C00G86484   7.675   4.298  11.543 -0.5361 -0.8701  0.3103
  4654G12c C00E86485   7.743   4.153  11.720  0.5891 -1.2747 -0.8755
  4654G12c O00A86486   7.738   4.118  11.845 -0.5068 -0.0576 -0.3857
  4654G12c C02486487   7.618   4.110  11.914 -0.2545  0.4844 -0.6417
  4654G12c H00V86488   7.570   4.206  11.897  0.1701  2.0631  5.8095
  4654G12c H00U86489   7.632   4.096  12.021 -3.9358  4.1900  0.4188
  4654G12c H00T86490   7.562   4.032  11.863  5.5224 -2.8660 -2.4119
  4664G12c C00D86491  10.738   2.796  12.860 -1.0737 -0.0064 -0.3817
  4664G12c O00B86492  10.728   2.932  12.814 -0.6145 -1.2572  0.0721
  4664G12c C02586493  10.759   3.024  12.901 -1.2386 -1.8131  0.4211
  4664G12c C02686494  10.895   3.097  12.881 -1.8289  1.0595  0.6507
  4664G12c H00Y86495  10.965   3.013  12.881 -3.4714 -0.3975  3.5226
  4664G12c H00X86496  10.939   3.169  12.950  0.7273  0.1835  0.0029
  4664G12c O00C86497  10.925   3.138  12.748  0.4712  0.4438 -0.8085
  4664G12c H00W86498  10.870   3.193  12.693 -1.9614  4.2354  4.9640
  4664G12c C02786499  10.658   3.066  12.984  1.5165 -0.6020  0.6605
  4664G12c O00D86500  10.553   2.992  12.959  1.2680  0.7360  0.0756
  4664G12c H00Z86501  10.591   2.913  12.922  2.8609  1.0029  1.1146
  4664G12c C02886502  10.677   3.172  13.067 -1.5361 -0.0233  0.0563
  4664G12c C02986503  10.636   3.308  13.043  0.9742 -0.2635 -1.3446
  4664G12c H01086504  10.580   3.343  12.958  1.8960 -5.0456 -4.0766
  4664G12c C02T86505  10.659   3.421  13.127  1.2496  1.4693  0.7365
  4664G12c H01O86506  10.624   3.518  13.095 -0.8350  0.0136 -1.5952
  4664G12c C02S86507  10.728   3.399  13.238 -1.4564  0.8987 -1.5975
  4664G12c O00J86508  10.756   3.507  13.303  0.6490  1.5498  0.4268
  4664G12c H01P86509  10.797   3.475  13.382 -0.7505  2.6480  1.6110
  4664G12c C02R86510  10.778   3.274  13.274 -0.9149  0.6490 -1.0938
  4664G12c O00I86511  10.855   3.248  13.383 -0.5313  0.2959  0.5992
  4664G12c C02Q86512  10.801   3.168  13.498  2.4739 -0.4578 -0.8238
  4664G12c H01N86513  10.882   3.196  13.565  0.3532  4.8995 -0.2128
  4664G12c H01R86514  10.805   3.062  13.523  1.5686  0.2330  2.4890
  4664G12c H01Q86515  10.693   3.186  13.495  0.9724 -7.2384  2.0898
  4664G12c C02A86516  10.746   3.167  13.185  0.5883 -1.5370 -0.0915
  4664G12c H01186517  10.787   3.069  13.201 -0.9022 -2.9245 -4.1102
  4664G12c C00C86518  10.810   2.757  12.967 -0.6077  1.1081  0.7557
  4664G12c H01286519  10.872   2.829  13.018 -3.2093  4.2913 -0.4175
  4664G12c C00B86520  10.808   2.628  13.013  0.3238 -1.5419 -0.4112
  4664G12c C00A86521  10.861   2.575  13.136 -0.0091  0.0471 -1.0709
  4664G12c C00986522  10.969   2.620  13.220  0.5127 -0.6287  2.2982
  4664G12c C00886523  11.074   2.710  13.191 -0.1713  0.7651  0.3991
  4664G12c H01386524  11.080   2.799  13.130  3.9154 -4.9855 -8.6541
  4664G12c C00786525  11.213   2.677  13.256 -0.6014 -0.3794  0.1362
  4664G12c H01486526  11.288   2.746  13.221  0.4279 -2.6814 -2.3028
  4664G12c C00686527  11.238   2.548  13.311 -0.6944 -1.2109 -1.5450
  4664G12c C00586528  11.135   2.468  13.330  0.0941 -0.2462  1.8608
  4664G12c C00486529  11.165   2.325  13.341 -0.2673 -0.2833 -0.2209
  4664G12c C00386530  11.069   2.222  13.310  1.2092  0.4965 -0.2337
  4664G12c C00286531  11.132   2.095  13.307 -0.7174 -0.8735  1.6083
  4664G12c C00186532  11.064   1.968  13.303  0.4225  1.2022  0.8168
  4664G12c C00M86533  10.971   1.932  13.195 -0.9256 -1.8501  1.6725
  4664G12c C00L86534  10.884   2.029  13.141  1.6574  0.8401  1.0314
  4664G12c C00R86535  10.809   2.013  13.024 -0.5152 -0.3190 -1.5774
  4664G12c C00Q86536  10.807   1.920  12.922  0.4642  0.1960 -1.5928
  4664G12c C00V86537  10.721   1.964  12.815  0.6338 -0.4475  1.8113
  4664G12c C00U86538  10.648   2.072  12.806  0.1412  2.1179 -0.1656
  4664G12c C00T86539  10.674   2.172  12.893  0.7943 -0.6723  0.9171
  4664G12c C01686540  10.659   2.310  12.883  1.2137  0.4083  2.6273
  4664G12c C01586541  10.596   2.345  12.765  0.7223  0.0899  0.3192
  4664G12c C01086542  10.544   2.254  12.680 -0.8505  0.6665  1.1032
  4664G12c C01186543  10.423   2.293  12.611  0.9992 -0.5290  1.2029
  4664G12c H00586544  10.357   2.219  12.569 -4.1398  4.5246 -0.3884
  4664G12c C01286545  10.390   2.430  12.599 -0.0385  1.1568 -0.7801
  4664G12c C01786546  10.290   2.474  12.513 -0.4416 -0.2295  0.4614
  4664G12c O00286547  10.333   2.562  12.406  0.1581  1.8577 -1.7709
  4664G12c H00486548  10.252   2.606  12.385  0.1397  2.4792 -0.4886
  4664G12c C01886549  10.170   2.419  12.536 -0.0787  0.5103  1.2895
  4664G12c O00186550  10.156   2.330  12.642  1.4826  0.5241 -0.6242
  4664G12c H00386551  10.063   2.338  12.652  1.2053 -1.0751 -1.7586
  4664G12c C01986552  10.046   2.485  12.487  0.0919 -0.2396  1.7138
  4664G12c H00286553  10.075   2.560  12.413  4.6981 -5.3819 -2.0389
  4664G12c H00186554   9.976   2.429  12.426 -4.4812 -2.3539  8.3146
  4664G12c O00086555   9.970   2.543  12.609  0.8393  0.1863  0.0970
  4664G12c C01A86556   9.848   2.620  12.603  0.0976 -0.6558  1.3040
  4664G12c C02K86557   9.848   2.717  12.509  0.4982  0.9059 -0.2245
  4664G12c O00G86558   9.929   2.739  12.407 -0.6326  0.1547 -0.9829
  4664G12c C02M86559   9.848   2.759  12.284 -0.2040  1.0938 -1.3182
  4664G12c H01G86560   9.778   2.680  12.256  7.2547 -5.7434 -2.6518
  4664G12c H01F86561   9.921   2.779  12.205  4.9619  1.5867  3.3455
  4664G12c H01E86562   9.785   2.846  12.265 -1.1025 -0.1229 -4.1854
  4664G12c C02J86563   9.750   2.817  12.529  0.2045 -1.0432 -0.9549
  4664G12c H01H86564   9.756   2.904  12.465  1.3448  2.2607  3.4237
  4664G12c C02I86565   9.647   2.821  12.620 -0.4420  1.3281  0.7080
  4664G12c C02N86566   9.555   2.936  12.650 -0.4369 -0.0002 -1.4507
  4664G12c H01M86567   9.570   3.012  12.725  0.8843  1.3174 -3.0138
  4664G12c C02O86568   9.437   2.944  12.600 -0.9327 -2.3230  0.2133
  4664G12c H01L86569   9.387   3.038  12.618  1.5892 -0.2681 -2.9480
  4664G12c C02P86570   9.351   2.837  12.547 -1.2145  1.6245  1.1179
  4664G12c H01K86571   9.267   2.818  12.613 -0.0704 -4.5370  1.1041
  4664G12c H01J86572   9.279   2.878  12.477 -3.7269 -0.1328  2.6087
  4664G12c O00H86573   9.389   2.707  12.526  0.0675  0.8821  0.1420
  4664G12c H01I86574   9.457   2.677  12.585  1.4325  0.0519 -1.8089
  4664G12c C02H86575   9.656   2.706  12.702  0.1614  0.6137 -2.2555
  4664G12c H01C86576   9.589   2.715  12.786  0.3690  3.2443 -2.3211
  4664G12c C02L86577   9.759   2.607  12.713  1.2653  0.5293 -0.9762
  4664G12c H01D86578   9.760   2.543  12.800 -1.6291  5.3471  2.8065
  4664G12c C01386579  10.486   2.522  12.657  0.1834 -0.1615  0.8240
  4664G12c H00086580  10.469   2.629  12.650 -1.5045 -0.2607  2.7322
  4664G12c C01486581  10.579   2.479  12.749  1.2738 -0.6362  0.4304
  4664G12c C00F86582  10.656   2.574  12.824  0.2375 -0.1686 -0.7016
  4664G12c C00H86583  10.705   2.404  12.982 -0.8442  0.1045  0.0258
  4664G12c C00I86584  10.755   2.355  13.097 -1.5644 -0.6433 -0.0034
  4664G12c C00J86585  10.767   2.216  13.114  0.2349 -0.4254  1.3803
  4664G12c C00Z86586  10.573   2.116  12.686  1.1148  0.9394 -1.9352
  4664G12c C00Y86587  10.512   2.001  12.612 -1.0142 -1.2009  0.6608
  4664G12c H00686588  10.429   2.014  12.545  0.5816  2.0660 -0.8143
  4664G12c C00X86589  10.555   1.868  12.643 -0.0116 -0.8216  0.8974
  4664G12c O00386590  10.515   1.759  12.570 -1.1987 -0.0295 -1.2694
  4664G12c C01B86591  10.393   1.740  12.481 -0.1532 -2.0192 -1.7155
  4664G12c H00986592  10.355   1.805  12.560 -0.4774 -4.4910  0.2259
  4664G12c H00886593  10.410   1.757  12.375 -1.3055  2.2279 -1.3036
  4664G12c H00786594  10.364   1.638  12.508 -4.2091 -0.5967 -0.3571
  4664G12c C00W86595  10.674   1.854  12.737  1.9479 -0.0952 -1.0363
  4664G12c O00486596  10.729   1.731  12.755  0.1632 -0.3150 -1.8439
  4664G12c C01C86597  10.868   1.737  12.785 -0.6004 -1.8767 -0.6857
  4664G12c H00A86598  10.944   1.674  12.740 -1.7580 -2.2025 -2.2162
  4664G12c C00P86599  10.897   1.805  12.900  1.2482  1.4447  0.7568
  4664G12c C00O86600  11.022   1.802  12.972  0.1115 -0.0909  0.3568
  4664G12c C01D86601  11.131   1.739  12.902  0.5651  0.3414 -1.0517
  4664G12c H00S86602  11.128   1.680  12.811  3.0848  2.9175 -2.9019
  4664G12c C01E86603  11.265   1.738  12.963 -0.9358 -0.0216  0.4084
  4664G12c O00886604  11.389   1.696  12.929 -0.2465 -0.5396 -0.7719
  4664G12c C01V86605  11.413   1.563  12.930  0.6790  0.8627 -2.7778
  4664G12c C01Z86606  11.513   1.519  13.027 -0.2509 -0.8910  1.0827
  4664G12c H00R86607  11.547   1.431  12.973  3.6341  0.9621  0.2905
  4664G12c H00Q86608  11.606   1.575  13.017  0.6692 -2.2865  1.6739
  4664G12c O00986609  11.481   1.523  13.154  0.2458 -1.1333  1.7374
  4664G12c H00P86610  11.403   1.473  13.137  0.1222  1.3103 -7.8583
  4664G12c C01W86611  11.341   1.498  12.841 -0.9770 -1.2927 -0.1211
  4664G12c H00O86612  11.332   1.574  12.765 -8.6654  2.4471  4.0191
  4664G12c C01X86613  11.363   1.348  12.812 -0.9494  0.4275 -0.5123
  4664G12c H00N86614  11.343   1.336  12.706  0.2422 -0.3163 -0.6636
  4664G12c H00M86615  11.465   1.310  12.819 -1.4958 -2.6635 -6.3288
  4664G12c C01Y86616  11.259   1.246  12.876 -1.4122  1.2446 -0.6480
  4664G12c C02D86617  11.133   1.276  12.923  0.6690  0.9386 -0.0826
  4664G12c H01986618  11.101   1.375  12.952 -2.3634  0.3247 -1.1666
  4664G12c C02C86619  11.053   1.165  12.962 -0.5103  0.4207 -1.6850
  4664G12c H01A86620  10.953   1.183  12.997  2.1505  6.3195  3.8065
  4664G12c C02B86621  11.092   1.024  12.951 -0.4036  0.5438  1.2312
  4664G12c O00E86622  11.011   0.942  13.023 -2.9327  0.6607  0.2276
  4664G12c H01B86623  10.931   0.963  13.068 -1.7302  0.3047  2.6147
  4664G12c C02F86624  11.223   1.002  12.905 -1.1545 -1.0484 -1.9953
  4664G12c O00F86625  11.275   0.885  12.904 -0.2618 -1.3541  1.4384
  4664G12c C02G86626  11.201   0.802  12.819 -0.0917 -1.3616  1.1550
  4664G12c H01786627  11.168   0.864  12.736 -5.7566 -2.7807  2.1435
  4664G12c H01686628  11.135   0.726  12.861 -3.1684 -0.2524 -1.4601
  4664G12c H01586629  11.281   0.730  12.810 -0.6621 -1.4653 -4.4326
  4664G12c C02E86630  11.305   1.107  12.876 -0.1679  1.0013 -1.9722
  4664G12c H01886631  11.412   1.099  12.862  0.3197  3.9396 -0.3635
  4664G12c C01F86632  11.286   1.799  13.091  1.0568  1.7311  1.6622
  4664G12c C01G86633  11.413   1.826  13.137  0.6827 -0.1159 -0.4669
  4664G12c H00L86634  11.495   1.822  13.067  4.7522 -3.2561  4.1421
  4664G12c C01H86635  11.416   1.903  13.239  2.0497 -1.0584 -0.9034
  4664G12c H00B86636  11.523   1.917  13.252  1.8715 -0.8919  0.4474
  4664G12c C01I86637  11.303   1.946  13.327 -0.0124  1.1644 -2.3046
  4664G12c C01U86638  11.171   1.823  13.167 -0.4947  0.4990 -1.4959
  4664G12c C00S86639  10.730   2.137  13.009  1.0207  0.3049  0.2805
  4664G12c C00K86640  10.863   2.157  13.194 -0.6392  1.3729  0.0734
  4664G12c C00N86641  11.043   1.850  13.101 -0.1500 -0.2760 -0.6929
  4664G12c C00086642  11.177   1.886  13.299 -1.6334 -0.8748 -0.3394
  4664G12c C01J86643  11.260   2.078  13.359 -0.5522  0.9430 -0.8677
  4664G12c C01K86644  11.346   2.177  13.427  1.0964  1.9605 -0.1938
  4664G12c C01P86645  11.489   2.180  13.481 -1.5571  0.8481  2.0974
  4664G12c C01Q86646  11.547   2.062  13.551 -0.6122 -2.3494 -1.6958
  4664G12c H00G86647  11.644   2.032  13.589 -0.7190  0.8975  1.4134
  4664G12c C01R86648  11.475   1.966  13.605  0.0531  1.1460  0.9178
  4664G12c H00F86649  11.367   1.977  13.601 -0.2571 -2.3389 -4.0622
  4664G12c C01S86650  11.512   1.811  13.654  1.5039 -0.1609  1.4763
  4664G12c H00E86651  11.489   1.798  13.760 -2.9499 -0.4444  0.5380
  4664G12c H00D86652  11.470   1.736  13.587  4.4001 -1.7615  1.3524
  4664G12c O00586653  11.662   1.807  13.633 -0.3615 -0.6769  0.2668
  4664G12c H00C86654  11.681   1.869  13.702 -0.0362  2.5686 -2.6616
  4664G12c C01O86655  11.569   2.291  13.480 -0.4688  0.7403  0.0677
  4664G12c H00H86656  11.675   2.280  13.498 -0.8407 -1.0410  1.2562
  4664G12c C01N86657  11.503   2.412  13.482  0.6913  0.0131 -0.6959
  4664G12c O00686658  11.573   2.531  13.503  0.1369  0.4193 -0.1578
  4664G12c C01T86659  11.652   2.568  13.594 -0.2887  0.0345  0.7224
  4664G12c H00K86660  11.616   2.562  13.696  2.3279  6.9067  2.3266
  4664G12c H00J86661  11.629   2.674  13.586 -1.9260 -0.5255 -3.6866
  4664G12c H00I86662  11.743   2.511  13.574  0.0620  1.3277 -1.5079
  4664G12c C01M86663  11.359   2.416  13.453  1.2765 -0.3240  0.1070
  4664G12c C02086664  10.946   2.250  13.260  1.1520 -0.5102  0.8374
  4664G12c C02186665  10.922   2.387  13.255  0.2138 -0.9825 -1.8828
  4664G12c C01L86666  11.293   2.306  13.406  1.9059 -0.2388 -1.0211
  4664G12c O00786667  11.331   2.547  13.412  0.6574 -0.1436 -0.3747
  4664G12c C02286668  10.995   2.499  13.287 -1.1602  0.8486 -0.3179
  4664G12c C02386669  10.805   2.450  13.191  0.0647 -0.2263  0.1239
  4664G12c C00G86670  10.713   2.536  12.943  0.8849 -0.9083  1.0532
  4664G12c C00E86671  10.670   2.709  12.776 -0.9711 -0.0088  1.2306
  4664G12c O00A86672  10.628   2.759  12.643 -0.3574 -0.7191 -0.4378
  4664G12c C02486673  10.734   2.764  12.537 -0.5705 -1.7233 -0.0957
  4664G12c H00V86674  10.745   2.662  12.501  2.5830 -0.5457 -2.7485
  4664G12c H00U86675  10.690   2.839  12.470 -0.4668  0.3525  2.0783
  4664G12c H00T86676  10.818   2.820  12.577  1.2047 -1.9108 -3.3961
  4674G12c C00D86677   3.618   0.955   3.277 -0.0927  1.5003  0.8502
  4674G12c O00B86678   3.627   0.986   3.409  0.6131 -0.9025  0.9766
  4674G12c C02586679   3.677   0.895   3.497 -0.3878 -0.1356  0.3416
  4674G12c C02686680   3.839   0.915   3.513 -1.0311 -0.2261 -1.2387
  4674G12c H00Y86681   3.864   0.968   3.605  1.3258  0.5380 -2.2758
  4674G12c H00X86682   3.886   0.948   3.420  3.3712  1.2877  1.3766
  4674G12c O00C86683   3.902   0.787   3.538  0.9620  1.6671  1.0313
  4674G12c H00W86684   3.834   0.728   3.566  4.9990 -2.7444  2.2367
  4674G12c C02786685   3.597   0.846   3.592 -0.9526 -0.8913 -0.9761
  4674G12c O00D86686   3.641   0.756   3.688 -0.6158 -0.3867  0.9462
  4674G12c H00Z86687   3.587   0.769   3.764 -1.9843 -1.6645  0.2070
  4674G12c C02886688   3.465   0.903   3.598 -0.4470  0.9142  0.6599
  4674G12c C02986689   3.374   0.807   3.650  0.3955 -0.3747 -1.2777
  4674G12c H01086690   3.406   0.704   3.659  2.3158  0.4614  2.2017
  4674G12c C02T86691   3.251   0.843   3.714  0.3488 -1.7671  2.6582
  4674G12c H01O86692   3.195   0.764   3.760  1.1089 -2.0201  3.1556
  4674G12c C02S86693   3.223   0.975   3.713 -0.6619  0.9643  0.4215
  4674G12c O00J86694   3.099   1.016   3.748 -0.0681  0.6043  0.2792
  4674G12c H01P86695   3.083   1.109   3.742 -0.0230  0.3806 -6.1027
  4674G12c C02R86696   3.315   1.073   3.658  2.6747  0.1435 -0.7191
  4674G12c O00I86697   3.295   1.192   3.673  0.3721 -1.1635 -0.4168
  4674G12c C02Q86698   3.361   1.209   3.790  0.0979  0.1584 -1.0209
  4674G12c H01N86699   3.466   1.183   3.804  1.0018  3.3196 -1.4833
  4674G12c H01R86700   3.311   1.182   3.882  2.1771 -7.8144 -1.8410
  4674G12c H01Q86701   3.377   1.317   3.787 -0.8361  0.3175 -0.2702
  4674G12c C02A86702   3.430   1.028   3.578 -0.3507  0.9785 -0.3797
  4674G12c H01186703   3.503   1.099   3.543  1.3475 -2.9425 -5.4505
  4674G12c C00C86704   3.540   0.845   3.237  1.0265  0.8741 -0.7370
  4674G12c H01286705   3.500   0.776   3.310 -0.9992  2.4027 -0.3594
  4674G12c C00B86706   3.491   0.832   3.103 -0.2559  1.6505  1.6439
  4674G12c C00A86707   3.396   0.753   3.029 -1.7619 -0.0755 -0.3052
  4674G12c C00986708   3.333   0.633   3.070  1.1456  0.6480  0.1121
  4674G12c C00886709   3.313   0.566   3.204  0.6508 -1.1267 -0.9713
  4674G12c H01386710   3.298   0.594   3.308  2.9406 -1.4486 -0.5318
  4674G12c C00786711   3.245   0.435   3.203  0.5856 -0.4436  0.7196
  4674G12c H01486712   3.205   0.411   3.300  7.8168  1.8076  4.5609
  4674G12c C00686713   3.218   0.372   3.077 -2.1345 -0.4142 -0.0990
  4674G12c C00586714   3.235   0.445   2.959  1.2211  1.5748  1.0969
  4674G12c C00486715   3.217   0.385   2.842  0.5424  0.9137  0.6562
  4674G12c C00386716   3.256   0.454   2.721  0.1471 -0.5426 -0.1607
  4674G12c C00286717   3.261   0.377   2.611  0.1439  1.0610  2.3378
  4674G12c C00186718   3.322   0.398   2.481  0.4876  1.0378 -1.9793
  4674G12c C00M86719   3.420   0.483   2.435 -1.3815 -1.2984  1.0676
  4674G12c C00L86720   3.445   0.601   2.484 -0.2953  0.2352 -0.7051
  4674G12c C00R86721   3.582   0.658   2.494 -2.0824  0.8785 -1.0685
  4674G12c C00Q86722   3.709   0.632   2.424 -1.4102 -0.4141 -0.5526
  4674G12c C00V86723   3.807   0.733   2.458 -0.3823  0.0341 -1.0618
  4674G12c C00U86724   3.806   0.818   2.571  0.7020 -0.6813 -1.4716
  4674G12c C00T86725   3.702   0.799   2.662  1.4948  0.0240  1.3836
  4674G12c C01686726   3.675   0.878   2.774 -1.5295 -0.6366  0.3476
  4674G12c C01586727   3.759   0.972   2.811  1.5088  0.1028 -0.0658
  4674G12c C01086728   3.880   0.992   2.724 -0.2615  0.8869 -1.4524
  4674G12c C01186729   4.008   1.041   2.787  0.3693 -0.7801  0.2115
  4674G12c H00586730   4.108   1.021   2.752  1.5533  8.4511 -3.0459
  4674G12c C01286731   3.995   1.101   2.904  0.4475  0.6585  0.5167
  4674G12c C01786732   4.116   1.124   2.969 -0.8243 -0.5679  2.1305
  4674G12c O00286733   4.199   1.026   3.030 -0.2055 -0.9268  2.7888
  4674G12c H00486734   4.259   1.053   3.097 -5.0303  1.7046  6.3488
  4674G12c C01886735   4.177   1.243   2.959  0.5771 -1.1543 -0.7323
  4674G12c O00186736   4.317   1.241   2.973 -0.5085  0.4581 -0.8733
  4674G12c H00386737   4.354   1.155   2.985  0.9101  0.7524 -2.9153
  4674G12c C01986738   4.137   1.404   2.920 -1.0228  1.2906  0.1531
  4674G12c H00286739   4.155   1.457   3.014 -2.5121 -2.5147  2.7016
  4674G12c H00186740   4.223   1.420   2.855  1.9175 -1.3250  3.2018
  4674G12c O00086741   4.008   1.440   2.864 -0.8830  0.8710 -0.0530
  4674G12c C01A86742   4.017   1.491   2.727  1.5397  2.0054  1.4303
  4674G12c C02K86743   3.914   1.592   2.688 -0.8892 -1.3249 -0.2230
  4674G12c O00G86744   3.821   1.608   2.788  0.4435 -0.7492 -0.4722
  4674G12c C02M86745   3.724   1.692   2.766  0.4432 -1.2556 -0.7834
  4674G12c H01G86746   3.663   1.619   2.819 -0.8312 -1.8410 -3.0163
  4674G12c H01F86747   3.686   1.689   2.664  3.4437  4.2409 -2.2659
  4674G12c H01E86748   3.727   1.791   2.813  2.4696 -0.3464 -2.7149
  4674G12c C02J86749   3.919   1.660   2.567  0.0248  0.3103 -0.6681
  4674G12c H01H86750   3.846   1.735   2.539  4.8219  3.7236 -4.9699
  4674G12c C02I86751   4.026   1.630   2.486  0.8849 -0.7119  0.1851
  4674G12c C02N86752   4.021   1.705   2.365 -1.8150 -1.1005 -1.4692
  4674G12c H01M86753   3.919   1.709   2.331 -1.7163 -0.2584 -1.6840
  4674G12c C02O86754   4.140   1.754   2.316 -0.6355 -0.7370  0.1797
  4674G12c H01L86755   4.186   1.789   2.408 -2.5948  1.5523  0.3261
  4674G12c C02P86756   4.149   1.794   2.180  0.7863  0.2298  0.6214
  4674G12c H01K86757   4.056   1.773   2.129 -0.5063 -0.4425  3.1378
  4674G12c H01J86758   4.153   1.896   2.143  0.1380  1.6357  4.2026
  4674G12c O00H86759   4.260   1.739   2.133 -0.2932 -0.1619  0.0873
  4674G12c H01I86760   4.312   1.755   2.210  1.1282  0.4789 -0.9928
  4674G12c C02H86761   4.124   1.526   2.524  1.1278  1.2611  0.6625
  4674G12c H01C86762   4.207   1.506   2.458  0.6059  0.6238  0.1940
  4674G12c C02L86763   4.117   1.444   2.633  0.5429 -0.6711  0.1667
  4674G12c H01D86764   4.207   1.387   2.650  3.9063  3.7356 -1.9201
  4674G12c C01386765   3.873   1.138   2.969  0.7791 -1.4587  0.7007
  4674G12c H00086766   3.891   1.194   3.059 -1.8462  5.2938 -2.6172
  4674G12c C01486767   3.764   1.030   2.940  0.6251 -0.3048  0.0011
  4674G12c C00F86768   3.660   1.000   3.039 -0.1466 -0.4515 -0.2226
  4674G12c C00H86769   3.565   0.875   2.856 -1.0283  0.2631  0.5090
  4674G12c C00I86770   3.460   0.818   2.791 -0.0961 -1.0616 -0.0816
  4674G12c C00J86771   3.482   0.748   2.658  1.4116  0.3495  0.9760
  4674G12c C00Z86772   3.894   0.909   2.607  0.2099 -0.8715 -0.0785
  4674G12c C00Y86773   4.018   0.900   2.525 -1.3805  1.2278  1.7570
  4674G12c H00686774   4.113   0.932   2.564 -1.8545  3.0442  1.4616
  4674G12c C00X86775   4.025   0.842   2.406 -0.5334  0.0776 -0.9852
  4674G12c O00386776   4.150   0.861   2.350 -0.1416  1.6859 -0.6398
  4674G12c C01B86777   4.141   0.963   2.265 -1.2617  0.7520 -1.1833
  4674G12c H00986778   4.199   0.975   2.174 -0.0748  4.8349 -0.0098
  4674G12c H00886779   4.162   1.062   2.305 -2.2014  0.4360  0.1467
  4674G12c H00786780   4.043   0.957   2.219 -1.2736  0.4999 -1.1256
  4674G12c C00W86781   3.931   0.728   2.379  0.3524 -0.9972  1.0558
  4674G12c O00486782   3.945   0.670   2.258  0.4423  1.0679  0.0506
  4674G12c C01C86783   3.858   0.570   2.244  0.0655  0.5929 -0.4630
  4674G12c H00A86784   3.830   0.525   2.150  3.6198 -2.3045 -0.2850
  4674G12c C00P86785   3.742   0.539   2.326  0.4135  0.6771 -0.1729
  4674G12c C00O86786   3.656   0.419   2.324  0.1956  0.1107 -0.9660
  4674G12c C01D86787   3.715   0.295   2.259  0.8601 -0.3543  1.0852
  4674G12c H00S86788   3.807   0.279   2.206 -0.1407 -7.6337  1.1021
  4674G12c C01E86789   3.666   0.164   2.276  0.6665  0.1278 -0.4058
  4674G12c O00886790   3.741   0.050   2.255 -0.0895  0.9453  0.1016
  4674G12c C01V86791   3.876   0.031   2.311  0.5380 -0.4932  0.8475
  4674G12c C01Z86792   3.902   0.123   2.433  0.3002 -0.4290 -1.1949
  4674G12c H00R86793   3.992   0.132   2.494  1.6238 -7.0970 -1.7530
  4674G12c H00Q86794   3.915   0.215   2.377 -0.5810 -1.3786 -3.0369
  4674G12c O00986795   3.788   0.097   2.524  0.3394 -0.4055 -1.4297
  4674G12c H00P86796   3.716   0.120   2.468  1.3565  1.0734 -2.1780
  4674G12c C01W86797   3.953  -0.050   2.250  1.4844 -0.8655  0.2400
  4674G12c H00O86798   3.891  -0.099   2.177  1.6885 -2.0375  0.8343
  4674G12c C01X86799   4.105  -0.063   2.261 -0.2854  0.1550 -0.6195
  4674G12c H00N86800   4.150  -0.018   2.350  2.9777 -0.1988 -1.9910
  4674G12c H00M86801   4.127  -0.170   2.265 -2.3320 -0.2225  3.7392
  4674G12c C01Y86802   4.176   0.020   2.161 -0.4520 -0.0172  1.9175
  4674G12c C02D86803   4.123   0.083   2.042  0.7597  0.7696 -0.7774
  4674G12c H01986804   4.021   0.048   2.033  2.3372 -6.4544  4.6844
  4674G12c C02C86805   4.164   0.202   1.976  0.7457 -1.3427 -1.1376
  4674G12c H01A86806   4.094   0.245   1.906 -3.6687 -5.0425  0.7322
  4674G12c C02B86807   4.285   0.248   2.004 -0.9396 -1.1641  0.3469
  4674G12c O00E86808   4.334   0.369   1.958 -0.7516  0.3829 -0.0979
  4674G12c H01B86809   4.400   0.377   2.025  4.9730 -1.1894 -5.0866
  4674G12c C02F86810   4.363   0.178   2.107  0.9758 -2.3435 -1.0392
  4674G12c O00F86811   4.490   0.215   2.143 -0.7214 -0.4500  0.0427
  4674G12c C02G86812   4.593   0.169   2.226 -0.1185  1.9349 -0.7893
  4674G12c H01786813   4.582   0.176   2.335 -7.5559 -2.6761 -0.8484
  4674G12c H01686814   4.678   0.228   2.193 -0.2336  5.1429  4.0300
  4674G12c H01586815   4.617   0.066   2.200 -0.1609  2.0829 -1.4031
  4674G12c C02E86816   4.305   0.084   2.191 -1.5255  1.5648  0.4557
  4674G12c H01886817   4.365   0.041   2.270 -2.3400  0.5506  0.5379
  4674G12c C01F86818   3.540   0.164   2.347 -0.7001  0.0556  0.9991
  4674G12c C01G86819   3.494   0.057   2.423  0.0163 -0.8869  0.3121
  4674G12c H00L86820   3.525  -0.046   2.408 -6.7372 -3.3683  1.4275
  4674G12c C01H86821   3.377   0.041   2.483  2.1448  0.8484 -0.5193
  4674G12c H00B86822   3.349  -0.041   2.547 -0.1348  2.5397  0.7373
  4674G12c C01I86823   3.306   0.164   2.511  0.3777 -0.2498  2.4666
  4674G12c C01U86824   3.468   0.283   2.356 -0.9470 -0.9227 -0.3345
  4674G12c C00S86825   3.591   0.732   2.613  0.8646  0.2053  0.6856
  4674G12c C00K86826   3.390   0.643   2.605 -1.0081 -0.1246  1.7879
  4674G12c C00N86827   3.529   0.407   2.372 -1.1782 -1.9721 -0.9397
  4674G12c C00086828   3.341   0.275   2.412 -0.1167  0.3963  0.4413
  4674G12c C01J86829   3.236   0.229   2.611  0.0232  1.3690 -1.0133
  4674G12c C01K86830   3.171   0.163   2.719  0.6581 -2.5827  0.5382
  4674G12c C01P86831   3.104   0.042   2.731 -1.5092  2.3703 -1.2958
  4674G12c C01Q86832   3.073  -0.048   2.601  0.2881  0.4109  0.1604
  4674G12c H00G86833   3.080  -0.003   2.504-11.2037 -0.9168 -1.9632
  4674G12c C01R86834   3.057  -0.188   2.619  0.3501  0.2093 -0.0794
  4674G12c H00F86835   3.076  -0.240   2.712  5.5494 -1.2690 -1.8116
  4674G12c C01S86836   3.050  -0.275   2.500  0.3096  0.5399 -1.2681
  4674G12c H00E86837   3.132  -0.346   2.518 -1.4052 -0.1840  4.6087
  4674G12c H00D86838   2.962  -0.338   2.487 -0.6701  1.6560 -0.0811
  4674G12c O00586839   3.103  -0.204   2.402  0.0698  0.4041  1.9618
  4674G12c H00C86840   3.197  -0.201   2.396 -0.0562  4.4329  0.8668
  4674G12c C01O86841   3.041  -0.005   2.849  0.8790  0.1445  0.3927
  4674G12c H00H86842   2.974  -0.090   2.841 -4.1309  4.0181 -1.1559
  4674G12c C01N86843   3.059   0.059   2.966 -0.6871  0.1043  0.1062
  4674G12c O00686844   2.974   0.004   3.069 -0.6313 -0.5077 -1.7987
  4674G12c C01T86845   2.920  -0.132   3.073  1.7887 -0.4978  1.0741
  4674G12c H00K86846   2.942  -0.223   3.128 -2.3555 -2.1968  0.0905
  4674G12c H00J86847   2.882  -0.178   2.982  0.1601  4.7387 -1.0730
  4674G12c H00I86848   2.828  -0.131   3.131 -0.3509 -3.9108 -2.0657
  4674G12c C01M86849   3.127   0.188   2.967  0.2175 -0.6617  0.1748
  4674G12c C02086850   3.312   0.585   2.714  0.5498  0.4314 -1.4107
  4674G12c C02186851   3.298   0.649   2.840  0.8182  0.7008  1.0264
  4674G12c C01L86852   3.171   0.253   2.843  1.2571 -0.5949  0.4994
  4674G12c O00786853   3.163   0.251   3.085  1.0006 -1.9630 -0.5297
  4674G12c C02286854   3.277   0.580   2.949  0.9928  0.2013  0.6618
  4674G12c C02386855   3.370   0.764   2.883 -2.6481  0.6051 -1.5511
  4674G12c C00G86856   3.561   0.911   2.996 -0.9877 -0.1762  0.7069
  4674G12c C00E86857   3.671   1.048   3.176  0.1673  0.0698  0.3766
  4674G12c O00A86858   3.731   1.163   3.215  0.1085  0.8266  0.5705
  4674G12c C02486859   3.649   1.258   3.302 -0.8141  0.3503 -0.4632
  4674G12c H00V86860   3.682   1.250   3.405 -3.5678 -1.4539  0.3356
  4674G12c H00U86861   3.639   1.360   3.264  2.5444 -0.3887 -3.6573
  4674G12c H00T86862   3.547   1.220   3.297  1.3458 -6.0507 -0.3983
  4684G12c C00D86863  12.077   5.910   1.430 -1.6337 -0.3137 -0.3753
  4684G12c O00B86864  12.150   5.802   1.396 -1.6821 -0.0600 -1.3008
  4684G12c C02586865  12.250   5.832   1.302 -0.2574 -0.2710 -0.6632
  4684G12c C02686866  12.279   5.973   1.267  0.6518  0.8213 -0.7050
  4684G12c H00Y86867  12.196   6.044   1.271  2.6898  3.2247  0.5053
  4684G12c H00X86868  12.362   6.011   1.207  2.7217 -6.5484 -3.0216
  4684G12c O00C86869  12.334   6.000   1.383  0.4138 -0.1355 -0.4850
  4684G12c H00W86870  12.333   5.922   1.436  0.9912  1.6515  2.2867
  4684G12c C02786871  12.320   5.716   1.278 -1.6888  0.0082  2.0465
  4684G12c O00D86872  12.318   5.622   1.377 -0.3071  0.7185  0.8407
  4684G12c H00Z86873  12.389   5.560   1.365 -4.3774 -3.3239 -5.7886
  4684G12c C02886874  12.449   5.730   1.217  0.1472 -0.3643 -0.1235
  4684G12c C02986875  12.474   5.767   1.080  0.5668 -1.5679  0.0538
  4684G12c H01086876  12.378   5.783   1.033  0.4165  1.0320  1.1587
  4684G12c C02T86877  12.590   5.745   1.012  0.7635 -1.9984  0.4338
  4684G12c H01O86878  12.617   5.760   0.908 -0.5899 -2.3190  0.0342
  4684G12c C02S86879  12.686   5.657   1.061 -0.3543  0.6415 -0.1347
  4684G12c O00J86880  12.793   5.616   0.988  0.6152 -1.2209 -0.3711
  4684G12c H01P86881  12.815   5.527   1.011  0.1962 -0.0242  5.4624
  4684G12c C02R86882  12.688   5.643   1.210  0.8873 -1.7420  0.0049
  4684G12c O00I86883  12.810   5.609   1.262  0.8908  0.2966  0.3630
  4684G12c C02Q86884  12.920   5.690   1.263 -0.3298 -0.3025 -0.0725
  4684G12c H01N86885  12.941   5.689   1.370  3.0757  1.7275 -0.6726
  4684G12c H01R86886  12.991   5.632   1.204 -2.6581 -1.4641 -1.8397
  4684G12c H01Q86887  12.910   5.785   1.211 -2.6551 -1.5209 -1.9807
  4684G12c C02A86888  12.574   5.687   1.280  1.2347  0.7287  0.4426
  4684G12c H01186889  12.547   5.673   1.384  4.2516  0.0356  1.1686
  4684G12c C00C86890  12.100   6.000   1.531 -2.8184 -2.2928 -1.8804
  4684G12c H01286891  12.184   5.976   1.594 -2.5235 -8.6905 -4.3509
  4684G12c C00B86892  12.018   6.114   1.548  0.7994  0.7546 -1.3317
  4684G12c C00A86893  12.018   6.217   1.643  0.8426 -0.8057  0.3046
  4684G12c C00986894  12.094   6.229   1.745  1.9403  0.7650 -2.2305
  4684G12c C00886895  12.146   6.131   1.824 -1.2745 -1.3045 -1.1407
  4684G12c H01386896  12.111   6.035   1.788  0.7224 -2.8170  0.7961
  4684G12c C00786897  12.180   6.184   1.963  0.2786 -0.6433  0.2306
  4684G12c H01486898  12.224   6.112   2.030  0.7966 -2.0267 -1.5461
  4684G12c C00686899  12.118   6.317   2.003 -1.7472  0.5557 -1.3470
  4684G12c C00586900  12.054   6.394   1.912  0.7500  0.6151  1.3786
  4684G12c C00486901  11.988   6.515   1.939 -1.5425  0.1036  0.1995
  4684G12c C00386902  11.926   6.578   1.837  0.3915 -0.0559 -0.4982
  4684G12c C00286903  11.836   6.684   1.895  0.0106  0.9755 -0.2774
  4684G12c C00186904  11.726   6.748   1.840  0.5643 -0.7853 -1.8533
  4684G12c C00M86905  11.632   6.669   1.776 -1.6202 -1.1193  0.2168
  4684G12c C00L86906  11.656   6.598   1.648 -0.5199 -1.6027  1.6729
  4684G12c C00R86907  11.560   6.523   1.588 -0.4388  0.1779 -1.9372
  4684G12c C00Q86908  11.421   6.526   1.573  0.7579  0.3786  2.3977
  4684G12c C00V86909  11.368   6.405   1.506  0.6632  0.0771  0.0351
  4684G12c C00U86910  11.441   6.301   1.459  1.1820 -2.0532 -0.3725
  4684G12c C00T86911  11.582   6.315   1.469 -2.7805 -0.5946 -0.9841
  4684G12c C01686912  11.676   6.217   1.436 -1.4172 -0.1174 -1.8929
  4684G12c C01586913  11.626   6.091   1.413 -1.1680 -1.6126  1.4321
  4684G12c C01086914  11.485   6.082   1.394  0.9257  1.5215 -0.1251
  4684G12c C01186915  11.434   5.947   1.369  0.1945 -0.2463  2.1889
  4684G12c H00586916  11.327   5.945   1.379  0.1482 -1.8984  1.4165
  4684G12c C01286917  11.511   5.828   1.363 -1.7127  0.4194 -0.5559
  4684G12c C01786918  11.464   5.682   1.357 -0.2632 -0.7258  1.5905
  4684G12c O00286919  11.545   5.579   1.384 -2.0131  0.7258 -0.5933
  4684G12c H00486920  11.480   5.512   1.373 -0.9350 -0.8550  2.0411
  4684G12c C01886921  11.351   5.665   1.283  0.7018  0.4069 -2.3811
  4684G12c O00186922  11.303   5.766   1.196  1.0993  0.7819  1.6513
  4684G12c H00386923  11.336   5.847   1.232  7.9389 -1.2976  0.8608
  4684G12c C01986924  11.274   5.526   1.272 -0.0786 -0.2605 -0.0568
  4684G12c H00286925  11.293   5.496   1.168 -2.9968  4.9081 -2.2710
  4684G12c H00186926  11.338   5.472   1.342 -2.5668 -7.1914 -2.6156
  4684G12c O00086927  11.135   5.560   1.294 -1.2057 -0.4481  1.3758
  4684G12c C01A86928  11.030   5.473   1.299  2.9567  1.4741 -0.0616
  4684G12c C02K86929  10.892   5.529   1.325 -0.0740  0.5400  1.9052
  4684G12c O00G86930  10.838   5.659   1.335 -0.3643 -0.1668 -0.3145
  4684G12c C02M86931  10.824   5.711   1.208 -0.8201  1.2423 -0.7054
  4684G12c H01G86932  10.740   5.781   1.208  0.2436  2.5554  1.0915
  4684G12c H01F86933  10.765   5.649   1.140  3.0993 -1.9534 -1.3478
  4684G12c H01E86934  10.919   5.759   1.182 -0.9070  2.2793  0.8589
  4684G12c C02J86935  10.789   5.428   1.318  1.0898 -0.5775  0.5263
  4684G12c H01H86936  10.700   5.474   1.356 -0.3039  2.4850 -5.8082
  4684G12c C02I86937  10.802   5.294   1.296  0.0743  0.5303 -0.4303
  4684G12c C02N86938  10.689   5.211   1.292 -0.5400 -1.6796  1.9807
  4684G12c H01M86939  10.682   5.146   1.206 -6.2502 -3.7377  3.7881
  4684G12c C02O86940  10.574   5.234   1.367 -0.7282  0.0767  0.9409
  4684G12c H01L86941  10.589   5.302   1.449 -4.2992 -3.6489  4.9734
  4684G12c C02P86942  10.429   5.208   1.352 -1.2618  1.1514  1.4548
  4684G12c H01K86943  10.419   5.153   1.259 -5.9618  1.8375  1.4304
  4684G12c H01J86944  10.410   5.142   1.437 -1.5692  0.6468  0.9926
  4684G12c O00H86945  10.357   5.332   1.381  1.0321 -0.4475  0.0412
  4684G12c H01I86946  10.290   5.357   1.320  2.3235  4.9243  0.6361
  4684G12c C02H86947  10.923   5.250   1.259  1.0520 -0.9312 -0.6103
  4684G12c H01C86948  10.949   5.148   1.282 -5.3549 -3.3658 -2.9089
  4684G12c C02L86949  11.039   5.333   1.277 -1.9420  1.6317 -1.2716
  4684G12c H01D86950  11.127   5.271   1.274 -2.0884  1.3031  0.3610
  4684G12c C01386951  11.664   5.857   1.350  0.0772  0.2409  2.1652
  4684G12c H00086952  11.734   5.775   1.338 -4.3798 -4.0487  3.5687
  4684G12c C01486953  11.713   5.995   1.375 -0.1482  2.1206  0.4371
  4684G12c C00F86954  11.851   6.001   1.407  2.1944  0.0141  0.3388
  4684G12c C00H86955  11.810   6.227   1.477 -0.5273  0.3208  0.0747
  4684G12c C00I86956  11.876   6.358   1.502 -0.9563  0.0331  0.2117
  4684G12c C00J86957  11.768   6.448   1.539 -0.4053 -0.9547  0.2237
  4684G12c C00Z86958  11.394   6.191   1.396  0.7544 -0.9827 -1.9574
  4684G12c C00Y86959  11.250   6.188   1.356 -0.6484 -2.0931 -1.2331
  4684G12c H00686960  11.175   6.127   1.307 -2.2908 -4.2281  3.6330
  4684G12c C00X86961  11.174   6.295   1.407 -0.2338  0.2717 -1.5048
  4684G12c O00386962  11.032   6.274   1.410 -2.4175 -1.4172 -1.2076
  4684G12c C01B86963  10.978   6.339   1.285  0.4997  0.8288 -0.1361
  4684G12c H00986964  11.011   6.283   1.198  3.8314  2.1731  0.1775
  4684G12c H00886965  11.020   6.440   1.279  1.0188  0.5857 -0.5609
  4684G12c H00786966  10.871   6.323   1.302 -0.4625  7.6205  1.6638
  4684G12c C00W86967  11.227   6.398   1.482  1.7709 -2.0552 -0.0916
  4684G12c O00486968  11.135   6.495   1.525  1.1847  0.1840  0.2510
  4684G12c C01C86969  11.196   6.584   1.610  0.3074  0.7642  0.1723
  4684G12c H00A86970  11.134   6.670   1.630  1.9748  2.8344 -3.1467
  4684G12c C00P86971  11.327   6.594   1.651 -0.0585 -0.6860 -0.5821
  4684G12c C00O86972  11.370   6.638   1.788 -0.0016  0.8423  0.9598
  4684G12c C01D86973  11.288   6.632   1.905 -0.9605  0.4461  0.5906
  4684G12c H00S86974  11.183   6.615   1.887 -1.2506 -0.6761  3.1771
  4684G12c C01E86975  11.335   6.671   2.033 -2.0068 -0.6905  1.1811
  4684G12c O00886976  11.271   6.643   2.158  0.3630  0.6211 -0.2222
  4684G12c C01V86977  11.129   6.607   2.144 -0.0439  0.2721  2.0039
  4684G12c C01Z86978  11.047   6.735   2.156 -0.7461  1.6064  0.2724
  4684G12c H00R86979  11.036   6.784   2.060  4.4970 -0.5549 -1.5836
  4684G12c H00Q86980  10.944   6.707   2.179 -0.7931  0.2512 -1.4925
  4684G12c O00986981  11.112   6.791   2.268  0.0465 -0.7890 -0.1741
  4684G12c H00P86982  11.167   6.720   2.298 -2.4248  0.0666  7.3776
  4684G12c C01W86983  11.068   6.486   2.115 -0.4956 -0.4105 -1.1148
  4684G12c H00O86984  10.965   6.494   2.083  0.2696  6.3310 -2.5960
  4684G12c C01X86985  11.129   6.345   2.112 -1.0633 -0.5698 -1.1327
  4684G12c H00N86986  11.113   6.308   2.011  0.3130  2.6560 -2.6323
  4684G12c H00M86987  11.238   6.353   2.117 -0.8107 -3.1161 -2.1796
  4684G12c C01Y86988  11.074   6.237   2.204 -0.8954  1.9691  0.6309
  4684G12c C02D86989  10.944   6.267   2.270 -0.7636 -0.0765  0.4411
  4684G12c H01986990  10.896   6.360   2.242 -1.7375  0.4235  3.6067
  4684G12c C02C86991  10.882   6.169   2.346 -0.4741 -0.0410  1.5496
  4684G12c H01A86992  10.783   6.177   2.388 -1.5101 -4.7937  0.2721
  4684G12c C02B86993  10.955   6.056   2.364 -1.1861  1.0402 -1.8176
  4684G12c O00E86994  10.895   5.958   2.434  0.9160  1.0409 -0.4571
  4684G12c H01B86995  10.968   5.914   2.475  4.1657  3.7353 -3.0146
  4684G12c C02F86996  11.096   6.031   2.332  0.4536 -1.3581  1.1768
  4684G12c O00F86997  11.133   5.892   2.340  0.5453  0.2523 -1.0764
  4684G12c C02G86998  11.136   5.832   2.475  0.6148 -0.9577  0.2189
  4684G12c H01786999  11.218   5.760   2.485  4.2143  3.3233  3.2730
  4684G12c H01687000  11.169   5.915   2.537  0.6135  3.3472 -5.1509
  4684G12c H01587001  11.047   5.790   2.522  1.5719 -5.3025 -1.6055
  4684G12c C02E87002  11.148   6.112   2.226  1.6606 -0.1986 -0.7008
  4684G12c H01887003  11.248   6.109   2.186 -0.6726  1.0034 -7.3187
  4684G12c C01F87004  11.462   6.720   2.048  0.7922 -2.4804 -0.7225
  4684G12c C01G87005  11.543   6.688   2.169  0.4900 -1.5437  1.0923
  4684G12c H00L87006  11.515   6.645   2.264 -1.6809 -7.9348 -2.1646
  4684G12c C01H87007  11.677   6.742   2.165 -0.8097  0.8996  0.7466
  4684G12c H00B87008  11.744   6.732   2.249  3.4335  1.4469 -2.4440
  4684G12c C01I87009  11.742   6.807   2.061  1.1917 -0.8784  0.6565
  4684G12c C01U87010  11.534   6.774   1.944  1.1030  1.1663 -0.4657
  4684G12c C00S87011  11.632   6.445   1.498  0.3339  0.7252  1.2398
  4684G12c C00K87012  11.774   6.538   1.642 -0.9021  0.8784 -0.6051
  4684G12c C00N87013  11.494   6.698   1.835 -0.0315  0.1015  1.2671
  4684G12c C00087014  11.659   6.820   1.948  1.4426  0.6174  0.2725
  4684G12c C01J87015  11.861   6.743   2.018  1.2617  0.2054 -0.4603
  4684G12c C01K87016  11.978   6.702   2.110  2.7849  1.0183  1.8555
  4684G12c C01P87017  12.022   6.780   2.219 -0.8258 -0.2759  0.7995
  4684G12c C01Q87018  11.962   6.914   2.251 -0.3823  0.5521  0.6963
  4684G12c H00G87019  11.891   6.963   2.186 -1.4329  0.9864  2.1300
  4684G12c C01R87020  11.962   6.974   2.368  1.6246 -0.9677 -0.9250
  4684G12c H00F87021  12.015   6.929   2.451  1.7034 -3.9637 -2.5263
  4684G12c C01S87022  11.884   7.105   2.379  1.1702  0.8093  1.2546
  4684G12c H00E87023  11.801   7.079   2.313  1.4127  1.4108  0.7075
  4684G12c H00D87024  11.848   7.103   2.482 -2.6586  4.6438  0.1125
  4684G12c O00587025  11.969   7.212   2.322  0.5639 -0.1435  1.0437
  4684G12c H00C87026  11.925   7.271   2.263  3.0039  6.6665  5.4804
  4684G12c C01O87027  12.133   6.711   2.280  0.1110  1.9238  0.7164
  4684G12c H00H87028  12.192   6.723   2.370  4.2150 -0.5468 -1.4801
  4684G12c C01N87029  12.190   6.593   2.242  1.4966 -1.1468  0.4149
  4684G12c O00687030  12.284   6.526   2.326  1.6508  0.0951 -0.1641
  4684G12c C01T87031  12.403   6.525   2.263  0.0383  0.7008  0.9569
  4684G12c H00K87032  12.466   6.613   2.273 -3.3057  2.7077  6.5756
  4684G12c H00J87033  12.370   6.520   2.159 -1.8418  6.9283  1.0540
  4684G12c H00I87034  12.471   6.444   2.290 -7.3911 -7.2287 -1.8078
  4684G12c C01M87035  12.133   6.520   2.137 -0.9064 -0.1898 -0.1916
  4684G12c C02087036  11.901   6.525   1.716 -0.5479 -0.3416 -0.1048
  4684G12c C02187037  11.999   6.424   1.689  1.4846  0.6025  0.4490
  4684G12c C01L87038  12.023   6.575   2.062  1.0806 -0.6063 -2.3413
  4684G12c O00787039  12.142   6.381   2.125  0.2036 -0.2758  0.5580
  4684G12c C02287040  12.073   6.359   1.783  2.0399  0.3658 -0.5045
  4684G12c C02387041  11.996   6.346   1.580  0.8712  2.1796  1.8879
  4684G12c C00G87042  11.906   6.116   1.478 -0.4458  1.1171  1.5703
  4684G12c C00E87043  11.950   5.912   1.376 -0.8657 -0.9036  0.9315
  4684G12c O00A87044  11.931   5.832   1.266 -0.4141  1.8185 -0.2363
  4684G12c C02487045  11.960   5.914   1.150  1.3191 -0.1409 -0.5948
  4684G12c H00V87046  12.051   5.975   1.143 -3.5021  7.3499 -7.7453
  4684G12c H00U87047  11.878   5.983   1.132 -1.0133 -2.2503  1.7128
  4684G12c H00T87048  11.988   5.827   1.090  1.1722  1.6794 -3.4144
  4694G12c C00D87049   6.513   3.171   8.765  1.0287 -0.2033  0.0496
  4694G12c O00B87050   6.405   3.120   8.822  0.6327 -0.1326  0.0305
  4694G12c C02587051   6.411   3.067   8.945  0.4682  1.0161  0.3930
  4694G12c C02687052   6.436   3.187   9.052 -0.2611  2.5801  0.4666
  4694G12c H00Y87053   6.367   3.266   9.020 -0.6737  4.1128  4.8078
  4694G12c H00X87054   6.526   3.244   9.076  2.5145 -1.1497 -0.6352
  4694G12c O00C87055   6.360   3.132   9.137 -0.0728 -0.6442 -0.4779
  4694G12c H00W87056   6.318   3.056   9.101  3.0467  0.2933 -6.7788
  4694G12c C02787057   6.401   2.934   8.969 -0.9311 -0.2127 -0.2062
  4694G12c O00D87058   6.300   2.876   8.892 -0.0456 -1.1885 -0.6985
  4694G12c H00Z87059   6.346   2.848   8.815  5.9169  1.4492  1.6012
  4694G12c C02887060   6.474   2.863   9.068 -0.0859 -0.1838 -0.3294
  4694G12c C02987061   6.406   2.762   9.140 -1.0309 -0.2384 -0.2860
  4694G12c H01087062   6.304   2.767   9.174  0.4265 -3.0748  5.2177
  4694G12c C02T87063   6.487   2.667   9.214 -0.0680  1.7897  0.0258
  4694G12c H01O87064   6.433   2.610   9.288  2.4094  1.3013  1.5152
  4694G12c C02S87065   6.625   2.661   9.195  0.2397  0.9395 -2.3703
  4694G12c O00J87066   6.727   2.574   9.251 -0.6489  2.3392 -0.6540
  4694G12c H01P87067   6.781   2.549   9.177  0.3981 -2.7434  1.6249
  4694G12c C02R87068   6.667   2.757   9.106 -0.1273  0.2197 -0.9216
  4694G12c O00I87069   6.813   2.774   9.117  0.1407  0.2346 -1.1478
  4694G12c C02Q87070   6.877   2.882   9.070 -0.5253 -0.5765  0.0867
  4694G12c H01N87071   6.877   2.946   9.159  5.6038  4.3341 -3.0629
  4694G12c H01R87072   6.978   2.843   9.053  1.0901  2.6795  1.7099
  4694G12c H01Q87073   6.844   2.905   8.969  1.4863 -4.3613 -1.5235
  4694G12c C02A87074   6.611   2.850   9.043  2.0929  0.2238  0.6096
  4694G12c H01187075   6.632   2.908   8.954  2.7289 -5.8137 -3.5020
  4694G12c C00C87076   6.647   3.204   8.802  0.5872  1.2702  1.3012
  4694G12c H01287077   6.683   3.149   8.888 -5.7502 -1.8629  2.2783
  4694G12c C00B87078   6.742   3.213   8.692  1.1032 -1.6242  0.3419
  4694G12c C00A87079   6.886   3.171   8.718  0.3128 -1.1513  0.1243
  4694G12c C00987080   6.972   3.219   8.824  0.7672 -1.2298 -0.8571
  4694G12c C00887081   6.947   3.293   8.935  0.7173  0.2436  0.1888
  4694G12c H01387082   6.852   3.278   8.984  2.4194 -1.7288  3.0322
  4694G12c C00787083   7.053   3.322   9.015 -0.4002 -0.1191 -0.8567
  4694G12c H01487084   7.013   3.358   9.108 -0.2682  2.0301 -1.6245
  4694G12c C00687085   7.193   3.319   8.947  0.1340  0.1202 -0.2125
  4694G12c C00587086   7.198   3.310   8.804 -0.3750 -0.4250  0.8609
  4694G12c C00487087   7.295   3.350   8.723  0.9628 -1.3163  2.5962
  4694G12c C00387088   7.305   3.322   8.588 -0.6270  0.1496  0.8755
  4694G12c C00287089   7.392   3.413   8.523 -0.1538  0.3138  0.9929
  4694G12c C00187090   7.424   3.417   8.392 -0.9621  0.7485  0.1735
  4694G12c C00M87091   7.330   3.447   8.295  0.3108 -0.9802  0.3638
  4694G12c C00L87092   7.206   3.389   8.306 -0.4741 -0.6473  0.7764
  4694G12c C00R87093   7.093   3.411   8.218  0.3802  0.8552 -0.3320
  4694G12c C00Q87094   7.076   3.536   8.128  1.6148 -1.3318  0.4570
  4694G12c C00V87095   6.938   3.549   8.094  0.3691 -0.7271  1.7597
  4694G12c C00U87096   6.830   3.464   8.146  0.1135 -1.6368 -2.4179
  4694G12c C00T87097   6.856   3.369   8.241  0.0993  0.3463 -1.1802
  4694G12c C01687098   6.764   3.324   8.332  0.3941 -1.2273 -0.1164
  4694G12c C01587099   6.631   3.351   8.306 -0.2371 -0.0678 -0.6343
  4694G12c C01087100   6.596   3.423   8.202 -0.9410  0.7201 -1.7726
  4694G12c C01187101   6.460   3.439   8.181  1.3901  1.4877  0.1950
  4694G12c H00587102   6.402   3.489   8.105 -2.8030 -0.9579  1.6139
  4694G12c C01287103   6.364   3.359   8.247 -0.0136  0.2867  0.6887
  4694G12c C01787104   6.236   3.331   8.192  0.5163 -2.0150  0.0707
  4694G12c O00287105   6.219   3.228   8.107 -0.1421 -0.1500  0.3988
  4694G12c H00487106   6.307   3.216   8.076 -0.6391 -2.7915 -0.1106
  4694G12c C01887107   6.143   3.438   8.197 -0.5509  0.9261 -0.3314
  4694G12c O00187108   6.149   3.531   8.300  1.5214 -0.7945 -1.2206
  4694G12c H00387109   6.170   3.602   8.242 -0.7106  2.2529  1.5394
  4694G12c C01987110   6.011   3.436   8.131 -0.5410 -1.3162 -1.7925
  4694G12c H00287111   6.003   3.352   8.062 -0.8576 -5.2030  2.6836
  4694G12c H00187112   5.925   3.414   8.195 -0.2414 -1.3353 -1.3869
  4694G12c O00087113   6.032   3.560   8.066  0.9505 -0.9635  1.1088
  4694G12c C01A87114   5.929   3.589   7.967 -1.8001  1.4903  0.0337
  4694G12c C02K87115   5.835   3.694   7.959  0.9696 -0.2242  0.8078
  4694G12c O00G87116   5.816   3.794   8.041  1.8294 -1.5802  0.8721
  4694G12c C02M87117   5.914   3.860   8.109 -1.5451 -2.2208 -1.2907
  4694G12c H01G87118   5.979   3.784   8.153 -2.1806 -0.0899  3.7414
  4694G12c H01F87119   5.868   3.944   8.161 -1.1067 -1.2559 -2.4366
  4694G12c H01E87120   5.953   3.898   8.015  1.0452  3.0454  1.6315
  4694G12c C02J87121   5.757   3.674   7.845 -0.1141  1.6893  0.0917
  4694G12c H01H87122   5.675   3.743   7.847  0.9840  3.3202 -4.3357
  4694G12c C02I87123   5.766   3.557   7.751  0.9161 -0.5707 -1.3880
  4694G12c C02N87124   5.672   3.522   7.651  0.6276 -2.4259 -1.4089
  4694G12c H01M87125   5.650   3.443   7.581 -0.5666  0.5073 -4.5022
  4694G12c C02O87126   5.561   3.600   7.626 -0.2943 -0.5354 -1.2339
  4694G12c H01L87127   5.557   3.687   7.690 -1.6160 -3.4111  2.7878
  4694G12c C02P87128   5.444   3.595   7.533  0.3177  1.2365 -0.9588
  4694G12c H01K87129   5.386   3.503   7.547 -2.4660  3.5748  4.3885
  4694G12c H01J87130   5.377   3.655   7.595 -1.1864  1.3957 -2.6805
  4694G12c O00H87131   5.472   3.627   7.398  0.7727 -1.4093 -0.9333
  4694G12c H01I87132   5.423   3.687   7.345  5.9100  0.5076 -3.8661
  4694G12c C02H87133   5.872   3.479   7.750  0.2027  0.6338 -1.8727
  4694G12c H01C87134   5.905   3.414   7.670  0.8077  1.5632 -2.3817
  4694G12c C02L87135   5.945   3.490   7.861 -0.0948  0.0360  0.1734
  4694G12c H01D87136   6.041   3.442   7.865 -0.9109 -1.5836  0.6514
  4694G12c C01387137   6.408   3.286   8.359  0.9481 -0.8786  0.2300
  4694G12c H00087138   6.378   3.206   8.426  1.6813 -1.9349 -0.7013
  4694G12c C01487139   6.541   3.309   8.401  2.2653  0.0287  2.1053
  4694G12c C00F87140   6.564   3.261   8.535 -1.7319 -0.7533 -1.4786
  4694G12c C00H87141   6.804   3.251   8.455 -1.5125  0.0324 -0.2808
  4694G12c C00I87142   6.936   3.208   8.465  0.0745 -1.0688  0.3126
  4694G12c C00J87143   7.023   3.250   8.372 -0.8803 -1.0664 -0.1742
  4694G12c C00Z87144   6.697   3.504   8.143  1.0139 -0.9541 -1.3708
  4694G12c C00Y87145   6.663   3.604   8.037  0.2931 -0.4956 -1.1730
  4694G12c H00687146   6.561   3.630   8.014  0.6761  0.1445 -2.1442
  4694G12c C00X87147   6.763   3.661   7.965 -0.7910 -2.2101  1.8542
  4694G12c O00387148   6.724   3.722   7.854 -1.1746 -0.0958  0.1642
  4694G12c C01B87149   6.762   3.858   7.837 -2.0755  0.6184 -0.9085
  4694G12c H00987150   6.807   3.919   7.915 -0.9911 -0.7807 -0.4070
  4694G12c H00887151   6.678   3.897   7.780 -3.4918 -2.0571 -0.7348
  4694G12c H00787152   6.841   3.864   7.762  0.0543  4.9086  1.4769
  4694G12c C00W87153   6.900   3.658   8.012  2.3663  0.7484 -0.4068
  4694G12c O00487154   6.980   3.766   8.000 -0.5843 -0.6761 -0.0372
  4694G12c C01C87155   7.122   3.749   8.014  0.7820  1.0724 -0.9217
  4694G12c H00A87156   7.190   3.752   7.931  3.1222  1.6064  0.9572
  4694G12c C00P87157   7.160   3.642   8.097  1.7801 -1.4339  1.0734
  4694G12c C00O87158   7.287   3.674   8.160  0.0596 -0.3506 -0.9661
  4694G12c C01D87159   7.365   3.793   8.127 -0.8351  1.0999 -0.1185
  4694G12c H00S87160   7.336   3.869   8.056  0.3632  0.1971 -1.6237
  4694G12c C01E87161   7.471   3.827   8.212  0.3927 -1.1678  0.2128
  4694G12c O00887162   7.527   3.956   8.199  0.8704  0.8570 -0.5223
  4694G12c C01V87163   7.547   4.023   8.078  0.3684 -0.7998  1.9569
  4694G12c C01Z87164   7.652   3.982   7.993 -0.2587 -1.5601  0.5951
  4694G12c H00R87165   7.732   4.055   8.006  0.1818 -2.4277  2.9078
  4694G12c H00Q87166   7.647   3.967   7.885 -0.0989 -0.7873  0.4755
  4694G12c O00987167   7.704   3.856   8.040  0.0238  1.6764  0.2497
  4694G12c H00P87168   7.735   3.866   8.128  2.1360 -2.8461  0.1633
  4694G12c C01W87169   7.462   4.123   8.040 -1.1641  0.8779  0.6152
  4694G12c H00O87170   7.472   4.185   7.952 -2.6020 -2.5137 -2.0683
  4694G12c C01X87171   7.340   4.181   8.117 -0.4386 -0.1771 -0.4598
  4694G12c H00N87172   7.249   4.194   8.058  1.5694 -7.6692 -6.0067
  4694G12c H00M87173   7.306   4.098   8.179 -3.3482  0.9774 -0.4334
  4694G12c C01Y87174   7.387   4.319   8.195  0.7844  0.9391 -2.6613
  4694G12c C02D87175   7.431   4.300   8.337  0.2506  0.5032  0.2785
  4694G12c H01987176   7.416   4.206   8.387  0.9183 -3.2933 -6.1324
  4694G12c C02C87177   7.478   4.406   8.411  0.6292 -0.8892  0.0210
  4694G12c H01A87178   7.512   4.416   8.513  1.9633  2.0135 -0.6572
  4694G12c C02B87179   7.503   4.535   8.337  0.2684  0.9448  0.2550
  4694G12c O00E87180   7.573   4.644   8.401  0.2906 -0.1791  0.3984
  4694G12c H01B87181   7.657   4.652   8.445  1.2232 -2.0403 -0.9711
  4694G12c C02F87182   7.473   4.544   8.204 -0.2237 -1.3682 -1.3028
  4694G12c O00F87183   7.462   4.658   8.127 -0.2315 -1.5083 -2.2200
  4694G12c C02G87184   7.512   4.790   8.168  1.3662  1.5077  0.2880
  4694G12c H01787185   7.444   4.847   8.232  1.1306  2.4804 -0.8243
  4694G12c H01687186   7.608   4.807   8.218  2.9795 -0.0267 -2.2012
  4694G12c H01587187   7.506   4.846   8.075 -2.3261 -1.4193 -1.3893
  4694G12c C02E87188   7.438   4.437   8.136  0.2094 -1.3988  0.0405
  4694G12c H01887189   7.442   4.443   8.028 -2.6949 -5.6635 -0.4115
  4694G12c C01F87190   7.520   3.741   8.306  1.4262 -0.6341  0.3857
  4694G12c C01G87191   7.611   3.767   8.414 -0.7789 -0.9939  0.0884
  4694G12c H00L87192   7.650   3.866   8.396  1.0578 -2.1714 -2.8211
  4694G12c C01H87193   7.623   3.679   8.524 -0.9808  0.6096  1.0478
  4694G12c H00B87194   7.663   3.732   8.609 -4.0205 -2.3990  4.5292
  4694G12c C01I87195   7.561   3.556   8.505 -0.8746  0.3257 -0.1177
  4694G12c C01U87196   7.458   3.612   8.316  0.3586 -1.3473 -0.0275
  4694G12c C00S87197   6.988   3.311   8.253 -2.2529 -0.3827  1.1396
  4694G12c C00K87198   7.153   3.316   8.403  0.3308  1.6826 -2.0545
  4694G12c C00N87199   7.358   3.574   8.241  0.6846  0.5476  1.8542
  4694G12c C00087200   7.527   3.507   8.377  1.0978  1.1933 -0.8942
  4694G12c C01J87201   7.481   3.477   8.599 -0.2240  1.0337 -1.7356
  4694G12c C01K87202   7.508   3.471   8.732  0.9834  1.5791  1.2247
  4694G12c C01P87203   7.626   3.495   8.816 -0.2431 -0.6890 -0.0222
  4694G12c C01Q87204   7.764   3.500   8.765 -1.3171  1.3049  0.0950
  4694G12c H00G87205   7.813   3.410   8.731 -3.9674  1.0380 -3.1732
  4694G12c C01R87206   7.862   3.577   8.852 -0.4942 -0.4074 -0.6436
  4694G12c H00F87207   7.830   3.615   8.948  1.2218 -2.5630  0.8315
  4694G12c C01S87208   7.990   3.634   8.816  0.5708  0.9710 -0.3743
  4694G12c H00E87209   8.019   3.616   8.713 -1.2487 -0.5246 -0.6426
  4694G12c H00D87210   7.979   3.743   8.816 -3.4086  0.7017  2.6651
  4694G12c O00587211   8.105   3.582   8.877  0.0794  0.6312 -1.0965
  4694G12c H00C87212   8.168   3.627   8.822  0.5745  1.4466  0.1246
  4694G12c C01O87213   7.644   3.452   8.946 -0.2852 -0.8950 -0.4612
  4694G12c H00H87214   7.732   3.461   9.008 -2.2327  4.8907  1.7744
  4694G12c C01N87215   7.527   3.434   9.013  1.6240 -1.0027  0.2238
  4694G12c O00687216   7.541   3.382   9.135 -0.3725 -2.4673 -0.7424
  4694G12c C01T87217   7.666   3.315   9.177  1.0086  1.1099 -0.4660
  4694G12c H00K87218   7.773   3.339   9.178  0.7984  2.1765 -2.1366
  4694G12c H00J87219   7.650   3.285   9.281 -1.2101 -4.6783 -2.2741
  4694G12c H00I87220   7.664   3.209   9.151  3.6842  0.0685  3.0561
  4694G12c C01M87221   7.409   3.403   8.942  2.2405  2.4688 -0.8280
  4694G12c C02087222   7.186   3.265   8.531  0.8867 -0.5477  0.5234
  4694G12c C02187223   7.106   3.177   8.623  0.6594  1.0735  0.6140
  4694G12c C01L87224   7.400   3.404   8.799 -0.8426 -0.3689  0.8380
  4694G12c O00787225   7.296   3.386   9.012 -0.5024  0.0466 -0.1719
  4694G12c C02287226   7.092   3.225   8.757 -0.7124 -1.2618  1.2752
  4694G12c C02387227   6.970   3.175   8.596 -0.6891  1.0324 -0.1122
  4694G12c C00G87228   6.705   3.238   8.556  0.2303 -0.5724 -1.0760
  4694G12c C00E87229   6.477   3.246   8.654  0.2539  1.4515  1.3932
  4694G12c O00A87230   6.343   3.244   8.618 -1.1184 -0.3342 -1.5158
  4694G12c C02487231   6.297   3.378   8.650  0.1744  1.3215 -0.6439
  4694G12c H00V87232   6.224   3.403   8.573  3.3806  2.9361 -3.3185
  4694G12c H00U87233   6.375   3.446   8.614  3.0829 -3.3457 -3.7894
  4694G12c H00T87234   6.262   3.367   8.752  5.7017 -1.2206  1.2044
  4704G12c C00D87235   0.146   2.786   0.050  0.4680 -0.5361  0.4904
  4704G12c O00B87236   0.161   2.924   0.028  0.1829  1.1759 -0.0608
  4704G12c C02587237   0.261   2.999   0.101  0.0398  1.0459 -0.3362
  4704G12c C02687238   0.316   3.109   0.011 -1.6214 -0.1900 -1.1435
  4704G12c H00Y87239   0.300   3.198   0.073 -4.5949  2.1584 -5.0344
  4704G12c H00X87240   0.276   3.096  -0.089  1.6471  0.5064 -2.5917
  4704G12c O00C87241   0.450   3.118  -0.027  0.2853 -0.3596  0.3483
  4704G12c H00W87242   0.452   3.188  -0.091  1.4977  7.5248  8.0379
  4704G12c C02787243   0.284   2.975   0.225  0.8347  0.4683  0.8065
  4704G12c O00D87244   0.222   2.880   0.296 -0.4291 -0.4231 -1.4111
  4704G12c H00Z87245   0.201   2.810   0.236  0.3646 -1.3099 -0.6731
  4704G12c C02887246   0.405   3.066   0.277 -0.0521  1.0434  0.8495
  4704G12c C02987247   0.542   3.012   0.281  1.9587  0.5091  0.6634
  4704G12c H01087248   0.546   2.910   0.247  0.6222 -0.5736  3.6153
  4704G12c C02T87249   0.647   3.102   0.286  0.2784  1.8977  1.1352
  4704G12c H01O87250   0.741   3.057   0.256 -1.9498 -2.8371  0.8987
  4704G12c C02S87251   0.616   3.239   0.327  0.1233  1.4436 -0.4833
  4704G12c O00J87252   0.726   3.329   0.371 -0.2995  0.3958 -1.5532
  4704G12c H01P87253   0.690   3.408   0.408  0.7329 -2.1398  5.5418
  4704G12c C02R87254   0.490   3.283   0.352  0.4222 -0.6496 -1.2409
  4704G12c O00I87255   0.484   3.368   0.462  0.1510 -1.1529  0.3922
  4704G12c C02Q87256   0.344   3.402   0.531  0.2076  0.2290 -0.1769
  4704G12c H01N87257   0.299   3.479   0.469 -2.1732  3.0917  4.7999
  4704G12c H01R87258   0.362   3.453   0.625 -1.8502 -2.0614  1.5558
  4704G12c H01Q87259   0.256   3.369   0.587  0.0910 -2.3022 -1.7696
  4704G12c C02A87260   0.391   3.194   0.328  1.6661  0.3269  1.5180
  4704G12c H01187261   0.295   3.227   0.366  3.7212  3.0239  4.6610
  4704G12c C00C87262   0.247   2.686   0.028 -0.6521 -0.1138 -0.8413
  4704G12c H01287263   0.348   2.724   0.034  0.6972 -3.6246 -0.5129
  4704G12c C00B87264   0.224   2.548   0.004 -1.2780 -0.5528  0.2592
  4704G12c C00A87265   0.328   2.448  -0.027  1.5952 -2.6778 -1.7843
  4704G12c C00987266   0.473   2.452  -0.083 -0.4964  0.0484 -0.2764
  4704G12c C00887267   0.581   2.529  -0.135 -2.4487  0.4108 -0.4440
  4704G12c H01387268   0.608   2.611  -0.070 -4.6605  2.8600 -2.5033
  4704G12c C00787269   0.647   2.507  -0.248  1.6377  1.1326 -1.0243
  4704G12c H01487270   0.726   2.575  -0.279  0.8312  1.1093 -3.2536
  4704G12c C00687271   0.638   2.380  -0.311 -0.6676  0.3333  0.7774
  4704G12c C00587272   0.565   2.276  -0.240 -0.1830  2.1199 -0.0887
  4704G12c C00487273   0.532   2.156  -0.312 -1.0156  0.6292  0.7890
  4704G12c C00387274   0.443   2.064  -0.256  0.3861  0.0433  0.5906
  4704G12c C00287275   0.442   1.931  -0.298  0.0877  0.4616 -1.0880
  4704G12c C00187276   0.347   1.821  -0.272 -1.3043 -0.8350  0.2857
  4704G12c C00M87277   0.208   1.828  -0.231  3.1147  0.1555 -0.2247
  4704G12c C00L87278   0.151   1.915  -0.148  0.6851 -0.5578 -0.7125
  4704G12c C00R87279   0.018   1.971  -0.145  0.5214 -0.1251  0.0438
  4704G12c C00Q87280  -0.099   1.934  -0.220  0.5827 -0.4332  1.2666
  4704G12c C00V87281  -0.211   2.010  -0.180  1.4505 -0.5217 -0.7268
  4704G12c C00U87282  -0.207   2.126  -0.088  1.0938  0.6636  0.2329
  4704G12c C00T87283  -0.081   2.166  -0.042  0.9143 -1.4075 -1.8020
  4704G12c C01687284  -0.055   2.299  -0.002  0.1205  0.2078  0.1183
  4704G12c C01587285  -0.165   2.384   0.030 -0.0740 -1.0077 -1.4311
  4704G12c C01087286  -0.293   2.330   0.005 -0.1977 -0.3373 -0.5055
  4704G12c C01187287  -0.395   2.403   0.067 -0.8358 -0.6689 -0.8522
  4704G12c H00587288  -0.477   2.335   0.085  0.5361 -2.2965 -0.5824
  4704G12c C01287289  -0.396   2.522   0.128  0.2226 -2.1436  0.1067
  4704G12c C01787290  -0.513   2.595   0.190 -0.5156  1.3255 -0.0320
  4704G12c O00287291  -0.473   2.645   0.312 -1.2512 -0.9152  0.3434
  4704G12c H00487292  -0.507   2.732   0.324  7.2376  3.0927 -0.4128
  4704G12c C01887293  -0.637   2.595   0.133 -0.0473  1.2053  0.0024
  4704G12c O00187294  -0.643   2.548  -0.012 -0.4528  0.3135  0.2580
  4704G12c H00387295  -0.702   2.476  -0.027 -5.4211  3.5516  2.9448
  4704G12c C01987296  -0.756   2.664   0.196 -1.8722 -0.9743  0.8275
  4704G12c H00287297  -0.743   2.771   0.179  0.6928 -0.5223  4.9443
  4704G12c H00187298  -0.831   2.620   0.130  1.5077 -3.1076 -1.7767
  4704G12c O00087299  -0.757   2.611   0.313  0.6654  0.0989  0.6746
  4704G12c C01A87300  -0.825   2.676   0.413  0.0584 -0.5798  0.1988
  4704G12c C02K87301  -0.760   2.767   0.502  0.9160 -0.7405  0.5039
  4704G12c O00G87302  -0.657   2.829   0.432  0.7484 -1.3690 -0.4233
  4704G12c C02M87303  -0.683   2.980   0.418 -1.1693 -0.4220  0.1679
  4704G12c H01G87304  -0.669   3.022   0.518 -0.3230  3.0944 -1.3285
  4704G12c H01F87305  -0.773   3.033   0.386 -0.1653  0.0004 -2.0621
  4704G12c H01E87306  -0.604   3.036   0.367 -0.7219 -1.4121 -0.2285
  4704G12c C02J87307  -0.804   2.793   0.630 -0.3391  0.6572  0.1916
  4704G12c H01H87308  -0.736   2.863   0.676  4.1485 -2.8436 -0.8157
  4704G12c C02I87309  -0.933   2.770   0.658 -0.0805  0.4877 -0.1988
  4704G12c C02N87310  -1.016   2.852   0.751 -0.9283  1.0865  1.0628
  4704G12c H01M87311  -1.124   2.845   0.757 -1.1498 -0.1355 -3.1263
  4704G12c C02O87312  -0.955   2.965   0.811  0.5518 -0.5803  1.3896
  4704G12c H01L87313  -0.860   2.983   0.762 -1.8255  3.6076 -1.9464
  4704G12c C02P87314  -1.019   3.045   0.922  0.2660 -0.5984 -1.0673
  4704G12c H01K87315  -1.117   3.000   0.938  2.2660 -5.1926 -0.9057
  4704G12c H01J87316  -0.964   3.050   1.016  0.9165 -3.9167 -1.2026
  4704G12c O00H87317  -1.044   3.183   0.881  1.8567  0.4341  0.0332
  4704G12c H01I87318  -1.072   3.175   0.791  5.6575 -2.5661 -0.9908
  4704G12c C02H87319  -1.007   2.673   0.587  1.3691 -1.5342  1.1401
  4704G12c H01C87320  -1.110   2.646   0.603  1.4057 -2.7350 -0.5598
  4704G12c C02L87321  -0.947   2.624   0.474 -0.5688 -0.0064  0.6736
  4704G12c H01D87322  -0.992   2.554   0.405 -5.9188 -0.6276  4.4583
  4704G12c C01387323  -0.256   2.582   0.125 -0.8449  1.3741 -2.2493
  4704G12c H00087324  -0.243   2.687   0.144 -5.4001  2.0846 -2.5128
  4704G12c C01487325  -0.148   2.514   0.061 -0.0766  0.1415 -0.2319
  4704G12c C00F87326  -0.015   2.577   0.045 -0.0445 -0.0215 -0.1336
  4704G12c C00H87327   0.067   2.359  -0.012  1.8284 -0.2221 -1.3618
  4704G12c C00I87328   0.168   2.268  -0.046  1.2273 -1.8478  0.6342
  4704G12c C00J87329   0.143   2.131  -0.065 -0.1656  1.5258 -0.1471
  4704G12c C00Z87330  -0.319   2.202  -0.065 -0.6904  0.9001 -0.5743
  4704G12c C00Y87331  -0.441   2.160  -0.115  0.0502  0.5472  1.0502
  4704G12c H00687332  -0.532   2.213  -0.138 -0.7302 -0.2612  2.2340
  4704G12c C00X87333  -0.437   2.066  -0.218 -0.3314 -1.1447  2.2651
  4704G12c O00387334  -0.546   2.052  -0.300  1.0461 -0.6911 -0.4280
  4704G12c C01B87335  -0.631   1.940  -0.290  2.2914  1.0915 -0.7544
  4704G12c H00987336  -0.661   1.964  -0.188 -1.6549  4.4735 -2.5643
  4704G12c H00887337  -0.730   1.953  -0.333  2.1704  3.8203  0.2614
  4704G12c H00787338  -0.598   1.836  -0.288  1.7817  0.9349  1.1083
  4704G12c C00W87339  -0.327   1.990  -0.254 -1.5909  1.2342  0.5139
  4704G12c O00487340  -0.351   1.880  -0.343  0.1790 -0.8192 -1.2400
  4704G12c C01C87341  -0.238   1.789  -0.351  0.6092  0.7449  0.1704
  4704G12c H00A87342  -0.260   1.684  -0.363  0.3876  1.0378 -2.1678
  4704G12c C00P87343  -0.114   1.829  -0.308  0.7253 -1.0020  0.6086
  4704G12c C00O87344  -0.012   1.754  -0.376 -1.0973 -2.2452 -0.6062
  4704G12c C01D87345  -0.039   1.649  -0.478 -0.3320 -1.6468 -0.6130
  4704G12c H00S87346  -0.138   1.617  -0.508 -0.2355 -0.0044 -2.8161
  4704G12c C01E87347   0.064   1.579  -0.539  0.3393  1.0091  0.6545
  4704G12c O00887348   0.035   1.470  -0.613  1.0369 -1.3821  0.0115
  4704G12c C01V87349   0.023   1.506  -0.745  0.7903 -0.2491  0.0989
  4704G12c C01Z87350   0.005   1.389  -0.837  0.8233  0.5720  0.1291
  4704G12c H00R87351   0.095   1.395  -0.899  0.2411 -1.2594 -0.9383
  4704G12c H00Q87352  -0.023   1.292  -0.795 -2.4081 -0.1713 -3.4459
  4704G12c O00987353  -0.123   1.428  -0.913 -0.4254 -0.1628 -0.9927
  4704G12c H00P87354  -0.137   1.501  -0.970  0.6620  3.4242  3.0725
  4704G12c C01W87355   0.058   1.624  -0.803 -0.3384  1.9779  0.3641
  4704G12c H00O87356   0.037   1.718  -0.754 -6.0108  1.6003 -1.0399
  4704G12c C01X87357   0.063   1.682  -0.946 -0.3987 -1.7110  1.8525
  4704G12c H00N87358  -0.024   1.632  -0.988 -1.1592  1.0582 -0.0662
  4704G12c H00M87359   0.044   1.789  -0.937 -8.5639 -3.0091  3.5402
  4704G12c C01Y87360   0.204   1.703  -1.021 -0.8569  0.1601 -0.8543
  4704G12c C02D87361   0.252   1.625  -1.127 -0.5017 -0.5975  1.5161
  4704G12c H01987362   0.199   1.534  -1.154  3.5300 -2.1569 -1.7919
  4704G12c C02C87363   0.369   1.641  -1.206 -0.5569 -1.8790 -1.1136
  4704G12c H01A87364   0.398   1.570  -1.281 -3.2687 -1.5898 -2.5040
  4704G12c C02B87365   0.443   1.750  -1.169 -0.9240  0.7634  0.3477
  4704G12c O00E87366   0.571   1.783  -1.224 -0.1333  1.6586 -0.2024
  4704G12c H01B87367   0.575   1.745  -1.311  3.8636  0.6807  0.2875
  4704G12c C02F87368   0.380   1.861  -1.101 -0.0526  0.9969  0.5742
  4704G12c O00F87369   0.442   1.995  -1.091  1.0439  0.3098 -0.2558
  4704G12c C02G87370   0.448   2.044  -0.946 -0.1258  1.5828 -0.0263
  4704G12c H01787371   0.412   1.988  -0.859  3.9796  5.5608  4.5602
  4704G12c H01687372   0.426   2.146  -0.913  1.2398 -0.6760  9.4481
  4704G12c H01587373   0.549   2.074  -0.916 -0.2559 -0.4868  2.7127
  4704G12c C02E87374   0.259   1.834  -1.029  1.5717 -0.2282 -1.4405
  4704G12c H01887375   0.229   1.911  -0.959  1.4709 -5.4760  4.7096
  4704G12c C01F87376   0.191   1.643  -0.549 -0.8699 -1.3521  1.3835
  4704G12c C01G87377   0.291   1.662  -0.642 -0.9913  0.6491 -1.1531
  4704G12c H00L87378   0.305   1.644  -0.748 -2.2343  2.9808 -1.7372
  4704G12c C01H87379   0.417   1.716  -0.603 -0.4167  1.0161  1.3831
  4704G12c H00B87380   0.478   1.749  -0.685 -1.8261 -5.1496 -2.4477
  4704G12c C01I87381   0.436   1.784  -0.487 -1.1286 -1.0582 -2.0671
  4704G12c C01U87382   0.232   1.696  -0.413 -1.3483 -0.9457  0.7062
  4704G12c C00S87383   0.018   2.091  -0.090  0.3489  0.6363  0.2253
  4704G12c C00K87384   0.231   2.040  -0.119  0.5989  0.0208 -1.7263
  4704G12c C00N87385   0.128   1.766  -0.347  1.5145  1.2895 -1.7485
  4704G12c C00087386   0.369   1.718  -0.379  0.4935  0.1732 -1.8058
  4704G12c C01J87387   0.496   1.909  -0.436  2.2022  0.1997 -0.3012
  4704G12c C01K87388   0.574   2.017  -0.501  0.7979  1.3046  1.8704
  4704G12c C01P87389   0.649   1.997  -0.629 -0.4657  0.0888  0.1222
  4704G12c C01Q87390   0.666   1.877  -0.689 -1.9451 -1.2031  1.5630
  4704G12c H00G87391   0.594   1.867  -0.769  3.1911 -5.8355 -2.9315
  4704G12c C01R87392   0.790   1.822  -0.664 -1.1025  0.4607 -0.0441
  4704G12c H00F87393   0.835   1.763  -0.742 -3.7257 -2.3131  0.4032
  4704G12c C01S87394   0.855   1.817  -0.528 -0.7968 -0.9969 -1.5914
  4704G12c H00E87395   0.789   1.834  -0.442  2.6565  0.2636  0.9072
  4704G12c H00D87396   0.889   1.717  -0.498 -3.9825 -2.1533 -1.6367
  4704G12c O00587397   0.952   1.927  -0.493 -0.0403 -1.0923  0.3521
  4704G12c H00C87398   0.949   1.964  -0.406  1.6670  3.1416 -1.2433
  4704G12c C01O87399   0.724   2.103  -0.676 -0.4560  0.4016  0.1308
  4704G12c H00H87400   0.794   2.098  -0.759 -1.0335  5.2108 -0.7848
  4704G12c C01N87401   0.705   2.228  -0.626  1.3554 -1.8433 -0.2847
  4704G12c O00687402   0.720   2.349  -0.694  0.5602  1.0676 -0.4030
  4704G12c C01T87403   0.707   2.310  -0.831 -0.9798 -0.3211  0.8400
  4704G12c H00K87404   0.717   2.394  -0.900  2.1241  1.8321  3.7597
  4704G12c H00J87405   0.606   2.270  -0.839 -3.6872  5.6029  2.3776
  4704G12c H00I87406   0.799   2.259  -0.859 -1.5647 -0.4099 -0.9287
  4704G12c C01M87407   0.651   2.248  -0.501 -0.5090  0.9301  1.4700
  4704G12c C02087408   0.352   2.111  -0.157  0.1609 -0.9707 -0.5140
  4704G12c C02187409   0.379   2.244  -0.111 -1.0915  1.5802  0.6789
  4704G12c C01L87410   0.588   2.137  -0.434  0.0201  0.8188 -0.4465
  4704G12c O00787411   0.682   2.364  -0.437 -0.5670  0.7575 -0.7112
  4704G12c C02287412   0.493   2.305  -0.107 -1.6461 -0.0306  0.2521
  4704G12c C02387413   0.293   2.316  -0.034  0.1831  0.1721 -0.5018
  4704G12c C00G87414   0.094   2.500   0.007  1.0983 -1.1649  0.7469
  4704G12c C00E87415   0.006   2.725   0.058  0.3028 -0.6282  0.1399
  4704G12c O00A87416  -0.114   2.798   0.046 -0.6069  1.9727  0.3376
  4704G12c C02487417  -0.139   2.866  -0.073  0.3273 -0.0423  1.7081
  4704G12c H00V87418  -0.042   2.904  -0.106 -1.3462  2.0929 -0.9969
  4704G12c H00U87419  -0.219   2.940  -0.071 -1.9686 -2.5035  4.2693
  4704G12c H00T87420  -0.150   2.792  -0.152  3.2756  0.6145  0.6412
  4714G12c C00D87421   0.873   4.927   3.756  0.2336 -0.7862 -0.4988
  4714G12c O00B87422   0.875   5.042   3.817 -0.6370 -0.6728  0.6584
  4714G12c C02587423   0.928   5.161   3.750  1.3596  0.4761 -0.4295
  4714G12c C02687424   1.063   5.184   3.806  0.3645  0.3793  0.9414
  4714G12c H00Y87425   1.121   5.277   3.805  3.7070 -1.6189  1.2101
  4714G12c H00X87426   1.131   5.112   3.762 -2.9514 -3.3943  1.6744
  4714G12c O00C87427   1.075   5.197   3.947  0.8221 -0.5285  0.7199
  4714G12c H00W87428   1.020   5.134   3.989 -0.9088 -1.6722 -3.0476
  4714G12c C02787429   0.860   5.247   3.680  1.5496 -0.5661  1.1726
  4714G12c O00D87430   0.734   5.209   3.633  0.5184 -0.4434  0.5677
  4714G12c H00Z87431   0.737   5.117   3.655 -3.5220 -0.8527 -0.0904
  4714G12c C02887432   0.926   5.355   3.628 -0.1459  0.4404  1.4487
  4714G12c C02987433   0.964   5.449   3.720 -0.2628 -1.0213  1.4700
  4714G12c H01087434   0.946   5.428   3.824 -2.0255  2.0136  1.8461
  4714G12c C02T87435   1.021   5.577   3.686  1.3986  0.2915  0.7125
  4714G12c H01O87436   1.072   5.637   3.760 -1.1407  0.8471  2.0648
  4714G12c C02S87437   1.039   5.599   3.550 -0.6365 -0.2977  0.0481
  4714G12c O00J87438   1.112   5.685   3.491  0.7672 -0.2262  0.4845
  4714G12c H01P87439   1.125   5.641   3.408 -4.9082  0.0027 -0.7134
  4714G12c C02R87440   0.991   5.508   3.444 -0.4643  0.0885  0.1778
  4714G12c O00I87441   0.965   5.550   3.325  0.5417 -0.9649  0.8543
  4714G12c C02Q87442   0.937   5.468   3.215 -1.2771 -0.6870  0.5905
  4714G12c H01N87443   0.900   5.529   3.133 -5.7068 -1.9794  1.4840
  4714G12c H01R87444   0.849   5.406   3.234 -1.1557 -0.6339  1.3781
  4714G12c H01Q87445   1.021   5.405   3.186 -2.0595 -1.6784  0.4288
  4714G12c C02A87446   0.938   5.380   3.491 -0.8798 -0.8404  1.6914
  4714G12c H01187447   0.902   5.302   3.426 -0.4425  1.6274 -1.6533
  4714G12c C00C87448   0.997   4.854   3.748  0.4786  1.4695 -0.0314
  4714G12c H01287449   1.086   4.869   3.808  1.1589 -1.1444 -0.3007
  4714G12c C00B87450   1.028   4.760   3.639  0.5200 -1.5500 -0.9099
  4714G12c C00A87451   1.129   4.648   3.631 -0.4377  0.5621 -0.2809
  4714G12c C00987452   1.274   4.651   3.683  0.5835  0.5068 -1.1325
  4714G12c C00887453   1.343   4.756   3.741 -0.4179  1.1878  0.2574
  4714G12c H01387454   1.291   4.847   3.764 -1.1332  0.8797 -0.1352
  4714G12c C00787455   1.486   4.764   3.750 -0.1226  1.6581 -1.7720
  4714G12c H01487456   1.556   4.825   3.807  3.4815 -1.5861 -2.4619
  4714G12c C00687457   1.561   4.666   3.666 -1.2242 -0.7457 -1.6154
  4714G12c C00587458   1.480   4.573   3.607  0.4364  0.4581 -0.0522
  4714G12c C00487459   1.536   4.499   3.498  0.2936  1.2489  1.1088
  4714G12c C00387460   1.464   4.444   3.394 -0.7772 -1.4296  0.2358
  4714G12c C00287461   1.543   4.408   3.283 -0.4434  0.8124  0.4695
  4714G12c C00187462   1.505   4.392   3.143  1.0365 -0.2231  0.7079
  4714G12c C00M87463   1.400   4.470   3.080  0.6408 -2.0886 -0.4302
  4714G12c C00L87464   1.280   4.506   3.116 -0.0649 -0.0367 -2.9090
  4714G12c C00R87465   1.182   4.598   3.056 -0.5996  1.7347  0.7532
  4714G12c C00Q87466   1.174   4.678   2.941 -0.4217 -0.8607  0.9912
  4714G12c C00V87467   1.061   4.752   2.936  0.9281  0.3088 -1.0200
  4714G12c C00U87468   0.960   4.748   3.032  1.6660 -0.1695 -0.6825
  4714G12c C00T87469   0.978   4.702   3.148 -0.5380  0.3562  0.1737
  4714G12c C01687470   0.912   4.728   3.271  0.2808 -1.0291  0.9730
  4714G12c C01587471   0.810   4.825   3.269  0.3261  0.4055 -0.6503
  4714G12c C01087472   0.783   4.884   3.143 -1.9003  1.5594  1.2408
  4714G12c C01187473   0.682   4.985   3.132  0.0348  0.6007  0.2881
  4714G12c H00587474   0.655   5.043   3.045 -3.5617 -4.1323 -1.9773
  4714G12c C01287475   0.592   4.993   3.247 -0.6788 -0.2555  1.2323
  4714G12c C01787476   0.466   5.056   3.208  1.5639 -0.7293  0.3006
  4714G12c O00287477   0.361   4.984   3.151  1.7699  1.8047  0.2294
  4714G12c H00487478   0.339   4.902   3.193  3.4275 -0.0032 -2.2523
  4714G12c C01887479   0.486   5.195   3.245  0.4546  0.3102  0.7620
  4714G12c O00187480   0.590   5.245   3.317 -0.5534 -0.4359  0.3459
  4714G12c H00387481   0.558   5.330   3.344 -5.7274 -2.9583  3.0466
  4714G12c C01987482   0.393   5.290   3.178  0.8548  0.1379  1.2024
  4714G12c H00287483   0.345   5.267   3.083 -0.6412  4.5257  0.7763
  4714G12c H00187484   0.310   5.324   3.241 -1.4625 -0.1433 -1.6124
  4714G12c O00087485   0.476   5.426   3.165  0.2174 -0.1317  0.1301
  4714G12c C01A87486   0.424   5.552   3.134  0.8152  0.6926  0.1440
  4714G12c C02K87487   0.490   5.673   3.144  2.0876 -1.4677 -0.3465
  4714G12c O00G87488   0.608   5.666   3.209 -0.2671  0.1979  0.2910
  4714G12c C02M87489   0.636   5.749   3.334 -1.9357  0.8706  1.1707
  4714G12c H01G87490   0.671   5.669   3.400 -5.1850 -6.2011 -4.8467
  4714G12c H01F87491   0.701   5.834   3.318 -0.0794 -0.2574  2.4744
  4714G12c H01E87492   0.546   5.792   3.377 -1.5178 -1.1333  4.2254
  4714G12c C02J87493   0.443   5.796   3.118 -0.6638 -1.0743  1.0278
  4714G12c H01H87494   0.508   5.881   3.126  3.1626 -3.4287 -3.0380
  4714G12c C02I87495   0.301   5.805   3.067  1.2622 -0.6751  0.0630
  4714G12c C02N87496   0.240   5.935   3.052  0.4983  1.2997  0.1296
  4714G12c H01M87497   0.147   5.955   3.104 -0.4554 -1.7570 -0.2716
  4714G12c C02O87498   0.311   6.041   3.028 -0.7968  0.0926  0.7906
  4714G12c H01L87499   0.405   6.013   2.984 -3.6629-10.2439 -0.1893
  4714G12c C02P87500   0.309   6.193   3.080  0.3187  0.4068  0.7913
  4714G12c H01K87501   0.208   6.231   3.101 -0.8984  0.3683 -4.4205
  4714G12c H01J87502   0.350   6.180   3.180  0.4654 -6.7933  0.0130
  4714G12c O00H87503   0.341   6.306   2.993  0.8002  1.3477 -1.2940
  4714G12c H01I87504   0.307   6.274   2.911 -3.0133  1.2106  0.2292
  4714G12c C02H87505   0.235   5.684   3.042 -0.8985  0.6059  0.4493
  4714G12c H01C87506   0.138   5.669   2.997 -0.7138 -1.6893  0.7537
  4714G12c C02L87507   0.296   5.564   3.102  2.3410  0.5617 -0.6198
  4714G12c H01D87508   0.274   5.482   3.034  4.5791 -0.5298 -0.0784
  4714G12c C01387509   0.641   4.962   3.374  0.0442  0.3810 -0.0128
  4714G12c H00087510   0.581   5.020   3.442 -1.6071  0.8817 -1.8285
  4714G12c C01487511   0.766   4.876   3.396 -1.1849  0.1512  0.5616
  4714G12c C00F87512   0.839   4.850   3.522  0.7440 -0.6454  0.7671
  4714G12c C00H87513   0.972   4.695   3.390 -1.7253  2.2588  0.3019
  4714G12c C00I87514   1.063   4.588   3.391  0.9276  0.2948  1.0052
  4714G12c C00J87515   1.123   4.545   3.274  1.3047 -0.6784  2.6346
  4714G12c C00Z87516   0.856   4.844   3.025 -0.0971 -0.4039  1.1191
  4714G12c C00Y87517   0.825   4.904   2.892  0.2977  1.2607  0.0408
  4714G12c H00687518   0.738   4.965   2.871 -0.4383 -0.1060 -1.0049
  4714G12c C00X87519   0.920   4.898   2.791 -0.2212 -0.5119  0.9149
  4714G12c O00387520   0.882   4.966   2.675  0.0693 -0.6476 -1.1050
  4714G12c C01B87521   0.790   5.084   2.668  0.6192 -1.0663 -0.5169
  4714G12c H00987522   0.791   5.093   2.559  0.0624  2.1463 -0.3035
  4714G12c H00887523   0.847   5.167   2.710 -0.0294 -2.8615  4.1614
  4714G12c H00787524   0.699   5.063   2.725  0.6863 -1.4295 -0.5427
  4714G12c C00W87525   1.040   4.834   2.830  0.3630  0.4491  0.0209
  4714G12c O00487526   1.145   4.830   2.744 -0.0043  2.3922 -1.0482
  4714G12c C01C87527   1.270   4.799   2.769 -2.3112 -2.8774 -0.6762
  4714G12c H00A87528   1.345   4.857   2.717  0.0923 -0.4915  5.0627
  4714G12c C00P87529   1.281   4.690   2.848  0.2088 -1.0790 -2.6907
  4714G12c C00O87530   1.406   4.617   2.862  0.2504 -0.2440 -1.3664
  4714G12c C01D87531   1.489   4.649   2.772 -0.4084 -0.3621 -0.0703
  4714G12c H00S87532   1.486   4.702   2.678 -1.3214  2.2850  1.4008
  4714G12c C01E87533   1.635   4.638   2.789 -0.6348  1.1460  0.0294
  4714G12c O00887534   1.732   4.713   2.718  0.6170 -0.2685 -0.6145
  4714G12c C01V87535   1.713   4.852   2.710  0.1709  1.9547  0.3936
  4714G12c C01Z87536   1.742   4.934   2.832 -1.9389  2.0435 -1.3950
  4714G12c H00R87537   1.826   4.992   2.796  4.5413 -4.7788  1.3166
  4714G12c H00Q87538   1.658   4.943   2.901 -0.1138 -4.3504  2.0530
  4714G12c O00987539   1.837   4.866   2.921 -0.3760 -0.8226  0.1176
  4714G12c H00P87540   1.801   4.793   2.970 -8.6318  1.7023 -1.3700
  4714G12c C01W87541   1.686   4.906   2.583  0.5818 -0.8454 -0.9436
  4714G12c H00O87542   1.685   4.838   2.499  2.3238 -0.8327 -1.0066
  4714G12c C01X87543   1.666   5.042   2.521  0.7222  0.6460  0.0144
  4714G12c H00N87544   1.644   5.105   2.607 -4.6012  3.6172 -3.2287
  4714G12c H00M87545   1.759   5.097   2.506  0.6508  0.5072 -0.9370
  4714G12c C01Y87546   1.554   5.071   2.430  0.3337  1.0740  0.9341
  4714G12c C02D87547   1.458   4.963   2.402  0.0963  0.8524  0.5706
  4714G12c H01987548   1.453   4.877   2.468  6.2646 -2.9841 -3.4370
  4714G12c C02C87549   1.355   5.010   2.316 -0.0945 -0.2205 -1.3312
  4714G12c H01A87550   1.298   4.919   2.300 -1.5983  0.0928  1.8495
  4714G12c C02B87551   1.351   5.139   2.266 -1.8619 -0.9605  1.6312
  4714G12c O00E87552   1.258   5.164   2.160  0.8346 -0.0479  0.4151
  4714G12c H01B87553   1.229   5.244   2.119  3.2355 -1.7780 -5.1129
  4714G12c C02F87554   1.430   5.246   2.301 -0.4916  0.3215 -1.0611
  4714G12c O00F87555   1.418   5.378   2.270  0.5748  0.4801 -0.7560
  4714G12c C02G87556   1.413   5.488   2.363  0.4065  0.3565  1.4397
  4714G12c H01787557   1.500   5.455   2.419  2.8798  1.0760 -1.8236
  4714G12c H01687558   1.368   5.454   2.456  2.5596 -4.0002  1.0199
  4714G12c H01587559   1.404   5.588   2.321 -1.7364 -0.9866 -1.4977
  4714G12c C02E87560   1.550   5.198   2.372  0.4316 -0.4225 -1.1008
  4714G12c H01887561   1.637   5.260   2.389 -1.8344  2.3863  0.7672
  4714G12c C01F87562   1.671   4.538   2.877  1.2666  0.2088 -1.0656
  4714G12c C01G87563   1.798   4.555   2.950 -0.5699 -1.1884 -0.9498
  4714G12c H00L87564   1.885   4.616   2.930  5.0562 -6.4845  4.9147
  4714G12c C01H87565   1.826   4.488   3.079 -0.2743  0.6717 -0.0946
  4714G12c H00B87566   1.929   4.494   3.112  0.2671 -0.9641 -1.4241
  4714G12c C01I87567   1.726   4.407   3.135  0.1561  0.2543 -0.5291
  4714G12c C01U87568   1.579   4.443   2.921  0.9280  0.2609 -0.2313
  4714G12c C00S87569   1.084   4.614   3.151 -2.1345 -0.0353 -0.1802
  4714G12c C00K87570   1.254   4.495   3.264 -0.1078 -0.3807  0.3041
  4714G12c C00N87571   1.457   4.515   2.954  0.3629 -0.5268 -0.1707
  4714G12c C00087572   1.615   4.370   3.045 -0.0134 -1.4297  0.8202
  4714G12c C01J87573   1.688   4.410   3.275 -0.2133  0.8311 -0.3930
  4714G12c C01K87574   1.765   4.429   3.396 -0.6015  2.2586  0.3970
  4714G12c C01P87575   1.914   4.434   3.395  1.3847  0.9075 -2.0094
  4714G12c C01Q87576   1.990   4.354   3.315 -1.6872 -0.8276  1.0719
  4714G12c H00G87577   1.952   4.287   3.240 -1.2854  0.5064 -0.3519
  4714G12c C01R87578   2.128   4.375   3.300  0.1158  1.2489  1.1159
  4714G12c H00F87579   2.173   4.443   3.371 -1.2474  6.4653 -2.6703
  4714G12c C01S87580   2.205   4.280   3.198  0.4390  0.1685  0.5777
  4714G12c H00E87581   2.304   4.323   3.216  2.6589 -4.5866  0.3541
  4714G12c H00D87582   2.209   4.176   3.228  3.3267 -0.4627 -1.7401
  4714G12c O00587583   2.185   4.284   3.042  0.2011  0.0164 -1.2950
  4714G12c H00C87584   2.136   4.204   3.040 -0.9537  0.6881 -5.5520
  4714G12c C01O87585   1.976   4.506   3.515  0.9702  0.2757 -0.0547
  4714G12c H00H87586   2.075   4.482   3.551  0.3391 -1.1835  0.7566
  4714G12c C01N87587   1.893   4.534   3.614 -0.5372 -0.1158  1.0080
  4714G12c O00687588   1.919   4.586   3.739 -0.6886  0.8519 -0.6659
  4714G12c C01T87589   1.965   4.706   3.710 -2.3178  0.3828 -0.3985
  4714G12c H00K87590   2.060   4.736   3.665 -4.0425 -1.2996 -5.4976
  4714G12c H00J87591   1.987   4.728   3.814  1.5950  4.2866 -1.8946
  4714G12c H00I87592   1.890   4.784   3.696 -4.8305 -1.4174  2.5354
  4714G12c C01M87593   1.759   4.574   3.572  0.5259 -0.3824  1.2688
  4714G12c C02087594   1.319   4.474   3.380  1.4798 -0.6897 -1.1434
  4714G12c C02187595   1.259   4.506   3.501 -1.6551  0.3555 -0.8978
  4714G12c C01L87596   1.687   4.497   3.486  0.4313 -0.9578 -0.4140
  4714G12c O00787597   1.700   4.640   3.670 -0.0357  0.8422 -0.4808
  4714G12c C02287598   1.335   4.564   3.602  1.0975 -2.9384 -1.4645
  4714G12c C02387599   1.122   4.548   3.515 -1.8059 -1.9089 -0.8451
  4714G12c C00G87600   0.958   4.771   3.505  1.1596  1.6761  0.2828
  4714G12c C00E87601   0.791   4.914   3.642  0.9269 -1.4394 -0.8078
  4714G12c O00A87602   0.656   4.971   3.656  0.8415  0.9847  0.6630
  4714G12c C02487603   0.560   4.864   3.644 -1.1060  1.6628 -1.5159
  4714G12c H00V87604   0.561   4.796   3.729  2.0869  2.4094 -0.8672
  4714G12c H00U87605   0.608   4.780   3.594  1.1907 -3.9084  8.6059
  4714G12c H00T87606   0.461   4.885   3.603 -2.7719  1.7938  2.3594
  4724G12c C00D87607   5.474   3.381   3.298  0.5106 -0.1068 -0.5947
  4724G12c O00B87608   5.514   3.256   3.252 -0.7841 -0.3208  0.1001
  4724G12c C02587609   5.505   3.138   3.326 -0.1026 -0.6114  1.8872
  4724G12c C02687610   5.632   3.052   3.314  0.2738  1.0713 -0.4756
  4724G12c H00Y87611   5.725   3.080   3.363  1.4606 -5.3824  1.4599
  4724G12c H00X87612   5.654   3.075   3.210 -2.8521  0.0299 -1.4142
  4724G12c O00C87613   5.614   2.911   3.290  0.2682  1.4237 -0.3360
  4724G12c H00W87614   5.598   2.890   3.199 -1.3897  0.8196  0.0628
  4724G12c C02787615   5.383   3.091   3.363  2.0135 -0.3993 -0.9063
  4724G12c O00D87616   5.271   3.154   3.344  0.0958 -0.5116 -0.6604
  4724G12c H00Z87617   5.273   3.236   3.296 -0.6740  1.3715  2.3667
  4724G12c C02887618   5.326   2.954   3.408  0.4017  0.3049 -2.1350
  4724G12c C02987619   5.307   2.834   3.335  0.8377  0.7286  0.1466
  4724G12c H01087620   5.292   2.847   3.229 -2.8179 -4.9184 -0.2357
  4724G12c C02T87621   5.274   2.719   3.404  0.1645 -0.5490  2.7763
  4724G12c H01O87622   5.257   2.621   3.362 -0.1020 -0.0950  1.8008
  4724G12c C02S87623   5.242   2.705   3.532 -0.3619 -1.9842  0.3005
  4724G12c O00J87624   5.216   2.588   3.594 -0.4324  1.1565 -0.0261
  4724G12c H01P87625   5.239   2.517   3.536  4.5291  2.2023  0.3885
  4724G12c C02R87626   5.247   2.808   3.622 -1.7613 -0.8425  0.6281
  4724G12c O00I87627   5.234   2.794   3.747 -0.9104  1.0420  0.0127
  4724G12c C02Q87628   5.119   2.829   3.793  0.6051 -1.2490  0.6059
  4724G12c H01N87629   5.128   2.935   3.817 -0.6217 -2.1206  5.6304
  4724G12c H01R87630   5.027   2.847   3.738 -2.4933  2.0241  6.3283
  4724G12c H01Q87631   5.105   2.812   3.900  5.0554  2.0168  1.8706
  4724G12c C02A87632   5.290   2.932   3.567  0.3793 -1.8262  1.6560
  4724G12c H01187633   5.305   3.019   3.629 -4.3944 -2.7080  4.3555
  4724G12c C00C87634   5.443   3.478   3.188 -0.5338 -0.8137  0.0344
  4724G12c H01287635   5.475   3.444   3.091 -0.1729  2.2054 -0.9772
  4724G12c C00B87636   5.377   3.600   3.204  1.2195  1.1291  0.9706
  4724G12c C00A87637   5.310   3.690   3.096 -0.4988 -0.3312 -1.8042
  4724G12c C00987638   5.374   3.738   2.971  0.0351  0.5698  0.9325
  4724G12c C00887639   5.514   3.725   2.932 -1.4009 -1.5114  1.2663
  4724G12c H01387640   5.554   3.651   2.999  1.9735 -6.1467 -5.2968
  4724G12c C00787641   5.579   3.798   2.832 -0.6751 -0.2867  0.8701
  4724G12c H01487642   5.683   3.794   2.805  0.4831  3.8057  4.1035
  4724G12c C00687643   5.515   3.920   2.803  0.7732  0.6782 -0.6059
  4724G12c C00587644   5.383   3.948   2.846 -0.0206  0.2742 -1.0796
  4724G12c C00487645   5.342   4.074   2.849  0.5492 -1.7578 -0.1122
  4724G12c C00387646   5.257   4.116   2.961 -0.0753  0.2037 -0.4136
  4724G12c C00287647   5.220   4.252   2.966  0.7652 -1.2756 -1.4436
  4724G12c C00187648   5.157   4.342   3.062 -0.4685 -0.3425  0.3757
  4724G12c C00M87649   5.151   4.317   3.213  0.7054  1.0072  3.6770
  4724G12c C00L87650   5.183   4.186   3.266 -0.5153 -0.5621  1.5327
  4724G12c C00R87651   5.202   4.158   3.411 -2.1360  0.4604 -0.4660
  4724G12c C00Q87652   5.237   4.242   3.522  0.5676  0.0010  1.0084
  4724G12c C00V87653   5.271   4.154   3.629  0.0753 -1.2891 -0.5841
  4724G12c C00U87654   5.305   4.016   3.629 -0.7173 -0.4809  0.5272
  4724G12c C00T87655   5.241   3.946   3.528  0.0362  0.3706 -2.3252
  4724G12c C01687656   5.284   3.817   3.502  0.2799 -0.5997  0.6611
  4724G12c C01587657   5.326   3.742   3.605  0.9036 -0.6686 -0.5825
  4724G12c C01087658   5.347   3.796   3.731  1.3610 -0.8085  0.5396
  4724G12c C01187659   5.379   3.711   3.836 -0.6120  0.4775  2.0828
  4724G12c H00587660   5.454   3.740   3.909  0.9984 -0.1998  0.7239
  4724G12c C01287661   5.382   3.570   3.841 -1.0899  0.5676 -2.6734
  4724G12c C01787662   5.381   3.476   3.956  2.5898  1.9035 -0.9075
  4724G12c O00287663   5.333   3.521   4.083 -1.2163  0.8707  0.9197
  4724G12c H00487664   5.371   3.606   4.103 -2.1720  1.4456  0.3632
  4724G12c C01887665   5.423   3.348   3.940  0.0098 -0.6174  0.8033
  4724G12c O00187666   5.486   3.322   3.826  0.6406  0.4073  1.3468
  4724G12c H00387667   5.527   3.238   3.842  1.3358  0.0720 -1.7911
  4724G12c C01987668   5.429   3.252   4.051  0.9796 -1.5467 -0.6814
  4724G12c H00287669   5.347   3.266   4.122  0.1307 -2.4720 -1.4519
  4724G12c H00187670   5.425   3.154   4.004  0.0710 -1.1833 -1.3736
  4724G12c O00087671   5.559   3.252   4.126 -0.9080 -1.6546 -0.5947
  4724G12c C01A87672   5.584   3.163   4.228  0.4394  0.5726  0.1341
  4724G12c C02K87673   5.592   3.015   4.216  0.5280 -1.8963 -0.5013
  4724G12c O00G87674   5.566   2.948   4.098 -0.3704 -0.5833 -1.5158
  4724G12c C02M87675   5.672   2.993   4.014 -0.7938 -2.2294 -0.4165
  4724G12c H01G87676   5.752   2.921   4.024  1.7576  1.2142  9.1272
  4724G12c H01F87677   5.614   2.935   3.942 -2.2026 -4.1254  2.1496
  4724G12c H01E87678   5.678   3.091   3.966 -0.6136 -0.7746  2.4578
  4724G12c C02J87679   5.676   2.930   4.311  1.8376 -1.1720 -0.2822
  4724G12c H01H87680   5.709   2.832   4.281  1.8084 -0.7308 -1.7700
  4724G12c C02I87681   5.740   2.990   4.423 -0.3094 -0.4430 -0.6292
  4724G12c C02N87682   5.801   2.919   4.533  0.1845 -2.6138 -1.5822
  4724G12c H01M87683   5.871   2.973   4.594 -1.5731 -0.4627 -1.4493
  4724G12c C02O87684   5.758   2.791   4.570  1.5667 -1.4211  0.4035
  4724G12c H01L87685   5.659   2.767   4.532  2.3780 -2.1336 -1.3482
  4724G12c C02P87686   5.819   2.687   4.665 -0.7120  0.4190  0.5483
  4724G12c H01K87687   5.732   2.637   4.708 -5.1442  3.7720 -3.9120
  4724G12c H01J87688   5.889   2.638   4.598  3.9732  5.7568  1.0944
  4724G12c O00H87689   5.894   2.762   4.760  0.4035  1.4451  0.3367
  4724G12c H01I87690   5.830   2.785   4.825 -3.8323  0.6287 -3.2712
  4724G12c C02H87691   5.732   3.131   4.432  0.8429 -1.2436 -0.4402
  4724G12c H01C87692   5.802   3.174   4.503 -4.8660  2.1342  3.6233
  4724G12c C02L87693   5.657   3.209   4.342 -0.2171 -0.6381  1.6763
  4724G12c H01D87694   5.682   3.314   4.337  3.1332 -1.4484 -4.9280
  4724G12c C01387695   5.373   3.528   3.699  1.2106 -0.4102 -1.5428
  4724G12c H00087696   5.351   3.425   3.680 -1.8178  0.5808 -3.7663
  4724G12c C01487697   5.357   3.608   3.577 -1.0516 -1.4450 -0.9187
  4724G12c C00F87698   5.365   3.544   3.453 -0.0449  1.2421  1.0446
  4724G12c C00H87699   5.283   3.751   3.363 -0.4691 -0.8310 -1.2198
  4724G12c C00I87700   5.215   3.832   3.274 -0.7704 -0.1532  1.4163
  4724G12c C00J87701   5.192   3.961   3.305  1.2990 -0.0246  2.1483
  4724G12c C00Z87702   5.342   3.943   3.747 -0.8728  0.8710  0.4749
  4724G12c C00Y87703   5.358   4.016   3.867  0.9120  0.7735 -0.0178
  4724G12c H00687704   5.378   3.963   3.959  1.6872  2.6217  0.9065
  4724G12c C00X87705   5.332   4.157   3.870  0.6631  0.4197  2.3410
  4724G12c O00387706   5.353   4.212   3.982  0.1193 -0.2315  0.6296
  4724G12c C01B87707   5.233   4.218   4.052  0.1185 -0.1199  0.2880
  4724G12c H00987708   5.199   4.136   4.115 -0.0061  3.7775  5.5988
  4724G12c H00887709   5.145   4.246   3.993  1.2957 -0.7298 -1.8037
  4724G12c H00787710   5.225   4.298   4.125  1.6819 -2.7144  3.4038
  4724G12c C00W87711   5.309   4.235   3.755 -0.0922 -1.3142 -1.2638
  4724G12c O00487712   5.284   4.375   3.773 -0.7607  0.0108 -0.6933
  4724G12c C01C87713   5.311   4.437   3.647  0.4691 -0.7014 -2.0812
  4724G12c H00A87714   5.258   4.530   3.658 -1.3352 -1.9666  0.3371
  4724G12c C00P87715   5.253   4.393   3.526 -0.8159 -0.8637  0.7070
  4724G12c C00O87716   5.248   4.486   3.405 -0.3668  2.2679 -1.7855
  4724G12c C01D87717   5.312   4.615   3.429  1.0073  0.5765  0.0452
  4724G12c H00S87718   5.332   4.662   3.524  1.0126 -2.4572  1.6346
  4724G12c C01E87719   5.355   4.696   3.322  1.8521  2.7324 -3.1828
  4724G12c O00887720   5.438   4.791   3.349 -0.2712 -0.3740  0.5285
  4724G12c C01V87721   5.380   4.913   3.393  3.1124  1.5791 -1.2690
  4724G12c C01Z87722   5.248   4.952   3.360  0.0172  0.7983  1.5459
  4724G12c H00R87723   5.197   4.903   3.278 -2.8214  3.8782  1.3569
  4724G12c H00Q87724   5.209   4.920   3.457 -2.3042  4.3304  1.8857
  4724G12c O00987725   5.207   5.084   3.315  0.0925  0.2595  0.6867
  4724G12c H00P87726   5.283   5.138   3.299 -0.2921  0.5446 -0.2013
  4724G12c C01W87727   5.440   5.002   3.468 -0.5185  0.0157 -0.2440
  4724G12c H00O87728   5.383   5.089   3.496  0.3236 -0.3620  2.7427
  4724G12c C01X87729   5.586   4.993   3.504 -0.4882 -0.0304 -0.1964
  4724G12c H00N87730   5.618   5.081   3.559 -0.0090 -0.2697 -0.0856
  4724G12c H00M87731   5.600   4.917   3.581 -5.7238  1.8157  2.7669
  4724G12c C01Y87732   5.672   4.968   3.379  0.4178  0.2562 -0.5786
  4724G12c C02D87733   5.726   4.842   3.358  0.1246  1.1765 -0.5217
  4724G12c H01987734   5.697   4.741   3.386  0.3629 -0.3595 -5.4054
  4724G12c C02C87735   5.818   4.809   3.248 -0.1717 -2.5014  0.7191
  4724G12c H01A87736   5.837   4.707   3.219  2.8228 -2.6964  3.1270
  4724G12c C02B87737   5.845   4.913   3.162 -0.9453  1.7545  2.2440
  4724G12c O00E87738   5.925   4.899   3.046  1.4080  1.6415 -0.8669
  4724G12c H01B87739   5.959   4.964   2.985  2.9890  3.3233  1.7256
  4724G12c C02F87740   5.810   5.044   3.197  1.3942  1.1222  1.4920
  4724G12c O00F87741   5.894   5.136   3.130  0.8920  0.8503  0.8744
  4724G12c C02G87742   5.882   5.275   3.146 -0.5669  1.2460 -0.4505
  4724G12c H01787743   5.937   5.316   3.062  6.2237 -1.7406  2.1369
  4724G12c H01687744   5.917   5.281   3.249 -3.0148 -0.4694  0.5481
  4724G12c H01587745   5.784   5.318   3.168 -1.6266 -3.1613  4.6972
  4724G12c C02E87746   5.729   5.068   3.308 -0.5937  0.7851 -0.1295
  4724G12c H01887747   5.693   5.170   3.310 -0.2309  1.0692 -3.9430
  4724G12c C01F87748   5.344   4.645   3.186 -1.2023  0.2571  0.5865
  4724G12c C01G87749   5.416   4.678   3.072 -0.6550  2.3386  0.9032
  4724G12c H00L87750   5.466   4.773   3.083 -0.4609  2.3317  0.1243
  4724G12c C01H87751   5.378   4.610   2.954 -1.2045 -0.8464  2.2199
  4724G12c H00B87752   5.453   4.626   2.878 -2.0828 -3.5261  0.7169
  4724G12c C01I87753   5.292   4.492   2.955 -0.6372 -0.6381  0.6718
  4724G12c C01U87754   5.241   4.543   3.171 -0.2709 -0.1881 -0.1636
  4724G12c C00S87755   5.182   4.016   3.421 -1.1508 -0.1228 -0.7878
  4724G12c C00K87756   5.187   4.053   3.198 -0.9341 -1.2924  1.3130
  4724G12c C00N87757   5.217   4.438   3.276 -0.4611 -0.1222 -1.1508
  4724G12c C00087758   5.198   4.483   3.057  0.3272 -0.4122 -0.6585
  4724G12c C01J87759   5.293   4.355   2.896 -1.8787 -1.1856  1.1248
  4724G12c C01K87760   5.372   4.309   2.781 -1.1168  0.2792  0.6787
  4724G12c C01P87761   5.405   4.390   2.667 -0.4902 -1.2447 -0.5258
  4724G12c C01Q87762   5.333   4.519   2.657 -0.6354 -0.7197  0.4969
  4724G12c H00G87763   5.228   4.531   2.634 -0.6679  2.4567  2.0762
  4724G12c C01R87764   5.393   4.650   2.631 -0.1786  0.8997  0.3466
  4724G12c H00F87765   5.489   4.673   2.674  0.7070  3.7717 -2.9125
  4724G12c C01S87766   5.321   4.777   2.594 -0.2733  1.1845 -0.8162
  4724G12c H00E87767   5.375   4.870   2.616 -2.3400  4.4337 -7.9857
  4724G12c H00D87768   5.331   4.762   2.486  1.1949 -4.6470 -0.0115
  4724G12c O00587769   5.178   4.784   2.605  1.1962 -0.4961 -0.6698
  4724G12c H00C87770   5.160   4.817   2.691 -0.3642  0.0161 -1.1672
  4724G12c C01O87771   5.512   4.349   2.577  0.7823  0.5394  1.1119
  4724G12c H00H87772   5.532   4.413   2.492 -2.7110  0.0263 -0.1863
  4724G12c C01N87773   5.571   4.218   2.585  0.3913 -0.3401  0.6874
  4724G12c O00687774   5.661   4.182   2.499 -0.7067 -0.3055 -0.5193
  4724G12c C01T87775   5.787   4.209   2.540 -0.1900 -0.5565  2.3188
  4724G12c H00K87776   5.863   4.192   2.463 -0.0234 -2.3151  2.8616
  4724G12c H00J87777   5.799   4.317   2.553  4.7931 -0.8202  0.8282
  4724G12c H00I87778   5.785   4.131   2.616  2.5398 -2.1426  0.8300
  4724G12c C01M87779   5.506   4.135   2.696  0.0856 -1.0489 -0.2633
  4724G12c C02087780   5.221   4.028   3.077  0.8538 -0.7556  0.1581
  4724G12c C02187781   5.210   3.890   3.037 -0.1492 -0.0974  0.1247
  4724G12c C01L87782   5.416   4.171   2.802  2.8392 -0.1400 -1.5199
  4724G12c O00787783   5.580   4.017   2.716 -1.7624 -1.9190 -0.3854
  4724G12c C02287784   5.300   3.849   2.922 -0.0004 -0.3123  0.2406
  4724G12c C02387785   5.222   3.792   3.145  0.8554 -0.7414  1.5987
  4724G12c C00G87786   5.338   3.628   3.344  2.3872  0.6502  0.7777
  4724G12c C00E87787   5.441   3.417   3.434  1.0090 -0.0541 -0.0973
  4724G12c O00A87788   5.478   3.352   3.542  0.2696  1.9637  0.3599
  4724G12c C02487789   5.618   3.377   3.583  1.2135  0.4589 -0.7342
  4724G12c H00V87790   5.624   3.464   3.649 -2.6834  0.8488 -0.7792
  4724G12c H00U87791   5.656   3.404   3.484  4.7906  6.6120  2.0066
  4724G12c H00T87792   5.659   3.285   3.624  5.7840  0.9823 -3.8198
  4734G12c C00D87793   8.098   9.118  10.616  0.2585  1.2477  0.9075
  4734G12c O00B87794   8.049   9.061  10.505  0.4551 -0.1594  0.3042
  4734G12c C02587795   7.965   8.952  10.528  0.0399  0.1808  0.8813
  4734G12c C02687796   8.064   8.832  10.547  0.4798 -0.1299  0.6085
  4734G12c H00Y87797   8.145   8.827  10.619  1.2167 -6.5855 -0.3993
  4734G12c H00X87798   8.120   8.822  10.454  0.9164 -1.8148  1.0548
  4734G12c O00C87799   7.978   8.723  10.576  0.6981  0.9127  2.0676
  4734G12c H00W87800   7.890   8.756  10.561 -3.3899 -7.7180  4.2077
  4734G12c C02787801   7.843   8.958  10.505 -0.7839 -0.8416  0.2449
  4734G12c O00D87802   7.750   8.857  10.506 -0.3333  0.6472  0.6643
  4734G12c H00Z87803   7.660   8.887  10.508 -1.6753 -2.7541 -3.0027
  4734G12c C02887804   7.789   9.066  10.447  2.0482 -2.2755 -0.2838
  4734G12c C02987805   7.807   9.100  10.299 -0.5393  0.5409  0.6592
  4734G12c H01087806   7.881   9.049  10.239  2.8902  5.0433  0.8208
  4734G12c C02T87807   7.761   9.229  10.247  1.3030 -0.8036  1.0357
  4734G12c H01O87808   7.782   9.261  10.146 -4.7607  1.8586  0.3735
  4734G12c C02S87809   7.660   9.294  10.320 -0.0140 -1.3287 -0.3501
  4734G12c O00J87810   7.611   9.415  10.266 -0.8250 -1.9065 -0.3813
  4734G12c H01P87811   7.517   9.408  10.267 -1.2546  2.0927 -1.6471
  4734G12c C02R87812   7.638   9.258  10.451  0.2827  0.5307 -0.5028
  4734G12c O00I87813   7.536   9.344  10.512 -0.7381  0.9151  0.4989
  4734G12c C02Q87814   7.598   9.416  10.619 -0.0467  0.5498  0.1948
  4734G12c H01N87815   7.614   9.523  10.606  3.1950 -0.3889 -4.4622
  4734G12c H01R87816   7.518   9.416  10.694 -6.2926  3.8578 -5.8681
  4734G12c H01Q87817   7.696   9.401  10.665 -0.4678 -0.1286  0.8903
  4734G12c C02A87818   7.695   9.147  10.521  1.2355  1.7665 -0.3041
  4734G12c H01187819   7.674   9.153  10.627 -3.8318  0.5753 -1.1130
  4734G12c C00C87820   8.049   9.126  10.749  1.6261  0.3035 -0.9307
  4734G12c H01287821   7.955   9.075  10.764 -2.2825  6.5859 -2.1763
  4734G12c C00B87822   8.135   9.180  10.842 -0.4193  0.8529 -1.6072
  4734G12c C00A87823   8.101   9.207  10.986 -0.0643 -0.5725 -0.6991
  4734G12c C00987824   7.971   9.262  11.020 -2.1354 -2.0500 -0.5425
  4734G12c C00887825   7.836   9.286  10.959  0.3687 -0.5858  2.0451
  4734G12c H01387826   7.837   9.247  10.858  3.2881 -2.1433  2.6385
  4734G12c C00787827   7.737   9.373  11.004 -1.6833  0.6106 -0.0242
  4734G12c H01487828   7.642   9.371  10.954 -2.2317  2.7076  0.8826
  4734G12c C00687829   7.761   9.450  11.131  0.4918  1.0766 -0.5708
  4734G12c C00587830   7.898   9.442  11.186  1.2663 -0.9529  1.5690
  4734G12c C00487831   7.952   9.535  11.276  0.1851 -0.7890  0.4282
  4734G12c C00387832   8.091   9.549  11.288  2.4058  0.3460 -1.4701
  4734G12c C00287833   8.135   9.656  11.367  0.1847 -0.6865 -0.3945
  4734G12c C00187834   8.265   9.690  11.408 -1.4095  0.7525 -0.8575
  4734G12c C00M87835   8.377   9.689  11.320  0.4786  1.6196 -0.4990
  4734G12c C00L87836   8.426   9.570  11.267 -0.3005  0.8100  0.5314
  4734G12c C00R87837   8.529   9.564  11.162 -1.2553 -0.6830 -0.3414
  4734G12c C00Q87838   8.612   9.664  11.105 -0.3347  0.0636  0.8610
  4734G12c C00V87839   8.690   9.622  10.994  0.3880  0.6548 -0.6531
  4734G12c C00U87840   8.643   9.512  10.917  1.4119  3.2615 -0.1565
  4734G12c C00T87841   8.552   9.416  10.954  1.0863 -0.0647  0.7235
  4734G12c C01687842   8.474   9.337  10.866 -0.6674  1.8707 -2.0143
  4734G12c C01587843   8.508   9.352  10.729  0.1124  0.5581  0.4811
  4734G12c C01087844   8.628   9.404  10.695  0.6142  0.5994  1.3249
  4734G12c C01187845   8.658   9.381  10.561 -0.7350  1.4083 -0.4577
  4734G12c H00587846   8.756   9.414  10.531  1.0704  0.7448  4.3497
  4734G12c C01287847   8.565   9.363  10.455  1.3725  0.2454 -0.7251
  4734G12c C01787848   8.610   9.381  10.321 -0.4385  0.8697 -0.2442
  4734G12c O00287849   8.750   9.372  10.308 -0.4891  0.5815 -0.3471
  4734G12c H00487850   8.796   9.440  10.262 -1.6844 -1.3135 -4.6320
  4734G12c C01887851   8.531   9.428  10.215  1.1424  0.3441  0.9129
  4734G12c O00187852   8.405   9.456  10.246  1.2291 -0.0730  0.7336
  4734G12c H00387853   8.407   9.523  10.312 -1.4848 -1.5563  2.4285
  4734G12c C01987854   8.555   9.471  10.066 -0.2757 -0.4218 -0.5066
  4734G12c H00287855   8.557   9.392   9.991 -4.3942  4.6440 -6.5040
  4734G12c H00187856   8.488   9.546  10.023 -2.4301 -0.1140  3.1845
  4734G12c O00087857   8.691   9.521  10.053 -1.3131 -0.2599 -0.8468
  4734G12c C01A87858   8.708   9.633   9.961 -0.4135 -0.1860  2.2527
  4734G12c C02K87859   8.673   9.616   9.820 -1.1807 -0.7904 -0.4434
  4734G12c O00G87860   8.645   9.483   9.770  1.4947 -0.2182  0.1781
  4734G12c C02M87861   8.665   9.450   9.639 -1.1020 -1.0890  0.2542
  4734G12c H01G87862   8.757   9.488   9.595 -2.5215  4.2644  1.5428
  4734G12c H01F87863   8.679   9.344   9.622 -3.7147 -1.1770 -1.5151
  4734G12c H01E87864   8.588   9.484   9.570 -3.4871 -1.0894  2.7953
  4734G12c C02J87865   8.688   9.731   9.754 -2.6237  1.9294  1.3570
  4734G12c H01H87866   8.696   9.698   9.652  0.2658 -1.0208  2.4450
  4734G12c C02I87867   8.759   9.842   9.789 -1.2543 -0.8177 -0.6342
  4734G12c C02N87868   8.796   9.945   9.693  0.1673  0.1189 -0.2550
  4734G12c H01M87869   8.900   9.939   9.666  0.6246  3.5284  0.4885
  4734G12c C02O87870   8.721  10.049   9.659  3.1162  0.3088  0.4204
  4734G12c H01L87871   8.624  10.052   9.707  3.2301  5.0103  0.5401
  4734G12c C02P87872   8.777  10.158   9.571  1.4328  0.4507 -0.1692
  4734G12c H01K87873   8.884  10.168   9.554  1.5182 -2.4813 -1.7903
  4734G12c H01J87874   8.742  10.121   9.475 -1.8220 -0.0356  1.1449
  4734G12c O00H87875   8.713  10.281   9.612 -0.9078  0.0575 -1.2714
  4734G12c H01I87876   8.751  10.328   9.685  1.6312 -0.9666 -1.8907
  4734G12c C02H87877   8.778   9.872   9.919  1.4023 -0.3699  0.3235
  4734G12c H01C87878   8.840   9.958   9.940 -1.2485  1.7732 -0.3633
  4734G12c C02L87879   8.772   9.747  10.005 -0.3679 -1.1872 -1.0317
  4734G12c H01D87880   8.820   9.763  10.100  6.0001 -3.1781 -3.6636
  4734G12c C01387881   8.441   9.324  10.488 -0.0543  1.2143  0.5630
  4734G12c H00087882   8.386   9.281  10.406 -2.4330 -1.3054  3.3639
  4734G12c C01487883   8.416   9.303  10.626  0.6575  0.1311  1.1205
  4734G12c C00F87884   8.281   9.255  10.668 -0.4226 -0.6792  2.2153
  4734G12c C00H87885   8.350   9.284  10.907 -1.5080 -1.1193 -1.6337
  4734G12c C00I87886   8.309   9.311  11.043 -0.4160 -0.9990  0.4390
  4734G12c C00J87887   8.390   9.390  11.125 -0.5834 -0.6138  1.2401
  4734G12c C00Z87888   8.685   9.510  10.780 -0.9423  1.1557 -1.3575
  4734G12c C00Y87889   8.785   9.603  10.730 -0.6865 -1.7442 -0.2326
  4734G12c H00687890   8.824   9.617  10.630  0.4192  3.4761  0.7924
  4734G12c C00X87891   8.835   9.706  10.817  0.0151  0.8868 -0.0025
  4734G12c O00387892   8.913   9.809  10.779 -0.6673  0.5215 -0.6118
  4734G12c C01B87893   9.023   9.801  10.688  0.7152  0.2468 -0.1550
  4734G12c H00987894   9.102   9.766  10.754 -1.5194  4.1751  4.8774
  4734G12c H00887895   9.071   9.887  10.641 -4.5197  2.9491 -0.9278
  4734G12c H00787896   9.025   9.702  10.642 -0.0774 -0.0200  0.3826
  4734G12c C00W87897   8.781   9.718  10.948 -0.7377  0.5463 -0.7294
  4734G12c O00487898   8.806   9.839  10.997  1.6994  0.1264 -0.0958
  4734G12c C01C87899   8.757   9.836  11.115 -1.5125 -0.9308 -1.5907
  4734G12c H00A87900   8.822   9.841  11.201 -4.5909  2.0501  0.6823
  4734G12c C00P87901   8.630   9.789  11.142  1.0928  0.6512 -1.0428
  4734G12c C00O87902   8.539   9.870  11.225  1.5742 -1.2950  0.7414
  4734G12c C01D87903   8.555  10.013  11.229 -0.9516  1.4394 -1.4353
  4734G12c H00S87904   8.636  10.054  11.171 -1.2203 -2.9787 -5.2341
  4734G12c C01E87905   8.456  10.104  11.292 -2.1930  1.6795  0.0192
  4734G12c O00887906   8.472  10.233  11.244  1.8071 -0.7661 -0.5014
  4734G12c C01V87907   8.413  10.359  11.304 -0.2918  1.1557  0.4722
  4734G12c C01Z87908   8.321  10.442  11.206 -0.0210 -1.2686  1.4479
  4734G12c H00R87909   8.267  10.358  11.162  2.2114 -1.0964 -1.7862
  4734G12c H00Q87910   8.252  10.513  11.252  4.7987  2.4809  3.3525
  4734G12c O00987911   8.418  10.460  11.108  0.0923 -1.1857 -0.1770
  4734G12c H00P87912   8.506  10.474  11.139  0.5379  0.7999 -2.2068
  4734G12c C01W87913   8.452  10.403  11.420  0.3316  0.4296  0.2522
  4734G12c H00O87914   8.507  10.341  11.488  1.1351  2.1948  1.2420
  4734G12c C01X87915   8.394  10.509  11.509  0.3004  0.7123 -0.0904
  4734G12c H00N87916   8.303  10.557  11.474 -0.7983 -1.0829  0.2258
  4734G12c H00M87917   8.359  10.464  11.603  4.6287 -4.1131 -0.5953
  4734G12c C01Y87918   8.509  10.605  11.539  0.8183 -1.0122  0.7488
  4734G12c C02D87919   8.538  10.704  11.450 -1.3779  1.3702  1.2737
  4734G12c H01987920   8.453  10.713  11.385 -2.5300 -2.4119  2.1259
  4734G12c C02C87921   8.684  10.741  11.448  0.3190  0.6798 -1.3476
  4734G12c H01A87922   8.708  10.788  11.354  0.4932  0.5432 -1.3709
  4734G12c C02B87923   8.759  10.724  11.569  0.7334 -1.1745  0.3469
  4734G12c O00E87924   8.879  10.749  11.601  1.9278  0.3211 -0.3967
  4734G12c H01B87925   8.895  10.758  11.693  2.8789  3.1367 -0.7933
  4734G12c C02F87926   8.704  10.634  11.672 -0.1697 -0.6581 -2.7720
  4734G12c O00F87927   8.776  10.660  11.799  1.6276  1.5042 -0.5516
  4734G12c C02G87928   8.812  10.541  11.859 -0.4558 -0.1552 -0.9819
  4734G12c H01787929   8.800  10.451  11.797  9.5101  0.3803 -4.5372
  4734G12c H01687930   8.750  10.573  11.942  1.0813  0.0854  0.0910
  4734G12c H01587931   8.917  10.529  11.885  0.6572  1.1040 -4.4848
  4734G12c C02E87932   8.580  10.594  11.654 -0.8238 -0.7248  1.6293
  4734G12c H01887933   8.542  10.510  11.712 -1.7077 -0.6183  1.2146
  4734G12c C01F87934   8.353  10.049  11.356  1.5038  0.7249 -0.3240
  4734G12c C01G87935   8.226  10.098  11.388  0.9444  0.0618  1.8925
  4734G12c H00L87936   8.208  10.201  11.364  0.7897  0.5854  4.2352
  4734G12c C01H87937   8.123  10.009  11.386 -0.7300  1.0994  0.1218
  4734G12c H00B87938   8.037  10.074  11.376  2.6057  6.1150  1.5983
  4734G12c C01I87939   8.123   9.866  11.431  0.6919  0.6099 -1.8077
  4734G12c C01U87940   8.348   9.898  11.381 -0.5631 -1.4135  0.5145
  4734G12c C00S87941   8.498   9.454  11.075 -1.3659  0.0632  1.3696
  4734G12c C00K87942   8.331   9.483  11.214 -2.5198 -0.2390  0.0365
  4734G12c C00N87943   8.437   9.816  11.310  0.9171  1.4997  0.3011
  4734G12c C00087944   8.244   9.814  11.454  0.2464 -0.6576  0.7544
  4734G12c C01J87945   8.030   9.764  11.392 -0.7317 -0.2844 -0.5218
  4734G12c C01K87946   7.899   9.746  11.393  0.7668  0.5294  2.0496
  4734G12c C01P87947   7.799   9.826  11.440  1.0008 -0.2099  1.2925
  4734G12c C01Q87948   7.822   9.931  11.542  0.0081  0.2737 -0.6700
  4734G12c H00G87949   7.884  10.017  11.522 -0.8819  0.3272 -3.3399
  4734G12c C01R87950   7.776   9.916  11.666 -0.4768  2.0040  0.0661
  4734G12c H00F87951   7.731   9.820  11.688 -3.4070  3.4663  0.6200
  4734G12c C01S87952   7.819   9.992  11.796 -1.7105  0.0451 -1.4258
  4734G12c H00E87953   7.748  10.075  11.784  2.1826  3.5016 -1.8419
  4734G12c H00D87954   7.825   9.926  11.883 -0.4278  2.9621  0.8036
  4734G12c O00587955   7.947  10.042  11.801 -0.5945 -0.4208 -0.0668
  4734G12c H00C87956   7.979   9.998  11.723 -2.9488  1.3715 -2.1136
  4734G12c C01O87957   7.655   9.819  11.413 -0.4854  0.9751  1.2927
  4734G12c H00H87958   7.577   9.887  11.443  1.6437  4.3468 -0.5943
  4734G12c C01N87959   7.610   9.700  11.335  0.9813  0.2593 -1.3315
  4734G12c O00687960   7.483   9.689  11.292  0.8498  0.7046  0.4485
  4734G12c C01T87961   7.424   9.552  11.282  2.0774 -2.2123 -0.9194
  4734G12c H00K87962   7.351   9.527  11.206  2.6441 -1.0942 -1.8386
  4734G12c H00J87963   7.372   9.519  11.372  1.6046 -3.7644 -1.7400
  4734G12c H00I87964   7.511   9.490  11.264  0.2937 -6.4835  3.8640
  4734G12c C01M87965   7.711   9.612  11.280 -0.6076  1.1465  0.3487
  4734G12c C02087966   8.190   9.454  11.223 -0.4742  0.5821 -0.4843
  4734G12c C02187967   8.122   9.335  11.184 -0.7036  1.0422 -1.6631
  4734G12c C01L87968   7.852   9.628  11.318 -0.8362 -2.5491 -2.0909
  4734G12c O00787969   7.686   9.553  11.163 -0.8184 -0.1146 -1.2964
  4734G12c C02287970   7.985   9.335  11.149  1.7688  0.5161 -1.8184
  4734G12c C02387971   8.183   9.262  11.077 -0.7464 -1.8719  0.4079
  4734G12c C00G87972   8.258   9.235  10.803 -1.6034 -0.0007 -0.2630
  4734G12c C00E87973   8.192   9.206  10.570 -0.9618  1.0861  0.6705
  4734G12c O00A87974   8.211   9.214  10.438  0.2128  0.7432  0.0217
  4734G12c C02487975   8.110   9.308  10.375 -0.0996 -0.9338 -1.1729
  4734G12c H00V87976   8.123   9.289  10.268 -0.1749 -0.8459 -1.1973
  4734G12c H00U87977   8.002   9.304  10.389 -0.3219 -1.6386 -2.9014
  4734G12c H00T87978   8.151   9.384  10.308 -0.0513 -2.5061 -2.9626
  4744G12c C00D87979   1.180   3.184   6.871  2.1761  0.6849 -0.3346
  4744G12c O00B87980   1.124   3.173   6.986  1.2613  0.2880 -0.8537
  4744G12c C02587981   1.045   3.055   7.025 -0.2756 -2.7794 -0.1107
  4744G12c C02687982   0.905   3.081   6.960 -0.3809 -0.2619 -1.8992
  4744G12c H00Y87983   0.890   2.981   6.920 -4.0445 -1.8868  3.0551
  4744G12c H00X87984   0.903   3.163   6.887 -2.3017 -1.1899 -2.9352
  4744G12c O00C87985   0.792   3.077   7.053 -1.2724 -0.0972  0.0186
  4744G12c H00W87986   0.719   3.106   7.002 -1.0495  1.4274  0.5378
  4744G12c C02787987   1.089   2.943   7.093 -0.6683  0.9445 -0.6198
  4744G12c O00D87988   1.004   2.834   7.089  1.7210 -0.7703 -0.5175
  4744G12c H00Z87989   0.914   2.859   7.078  3.4983  6.3361 -1.5163
  4744G12c C02887990   1.234   2.906   7.078 -0.0290  0.8932 -0.6976
  4744G12c C02987991   1.277   2.773   7.050  0.0991  0.7399 -1.8047
  4744G12c H01087992   1.202   2.706   7.011  1.8233 -3.3798  1.5851
  4744G12c C02T87993   1.418   2.740   7.045 -2.8214 -1.0800  1.9911
  4744G12c H01O87994   1.443   2.649   6.992  4.9447  4.0320 -4.2911
  4744G12c C02S87995   1.504   2.848   7.044 -1.2951  0.0102  0.0994
  4744G12c O00J87996   1.635   2.816   7.076 -1.6047 -0.5268 -0.4981
  4744G12c H01P87997   1.674   2.849   7.155 -9.5106  3.3286  2.3881
  4744G12c C02R87998   1.475   2.970   7.098 -0.5950  3.7493 -0.5456
  4744G12c O00I87999   1.549   3.086   7.121  1.6020  0.2646 -0.1672
  4744G12c C02Q88000   1.647   3.141   7.047 -2.4411  0.7129  0.7027
  4744G12c H01N88001   1.637   3.080   6.957 -4.1764  1.8010  0.1294
  4744G12c H01R88002   1.746   3.117   7.086 -5.3517 -3.7470  6.2444
  4744G12c H01Q88003   1.626   3.239   7.005  1.3909  1.7556  1.0845
  4744G12c C02A88004   1.336   2.988   7.121 -0.3961  1.3449  0.6562
  4744G12c H01188005   1.307   3.086   7.158 -0.0049  2.5225 -2.0511
  4744G12c C00C88006   1.215   3.071   6.793 -1.4477 -1.3339  1.7611
  4744G12c H01288007   1.256   2.977   6.825  0.7590 -1.9115 -2.4221
  4744G12c C00B88008   1.180   3.084   6.655  0.0244 -1.7993  1.0250
  4744G12c C00A88009   1.177   2.981   6.546  0.7818 -0.8931  1.4319
  4744G12c C00988010   1.267   2.866   6.535  0.5726  2.2448 -0.7786
  4744G12c C00888011   1.389   2.818   6.576  0.3339 -0.1979 -0.3215
  4744G12c H01388012   1.440   2.853   6.664 -0.0567  2.0403 -0.9516
  4744G12c C00788013   1.447   2.710   6.498 -0.1136  0.9906  0.2601
  4744G12c H01488014   1.536   2.670   6.545  1.1692  0.5086 -2.4841
  4744G12c C00688015   1.389   2.670   6.377  1.2776 -0.1988 -0.2884
  4744G12c C00588016   1.272   2.734   6.327 -0.6662  0.4273  0.5381
  4744G12c C00488017   1.250   2.733   6.185  0.1849 -1.1811  0.4894
  4744G12c C00388018   1.183   2.839   6.147 -0.5734 -0.7795  1.3141
  4744G12c C00288019   1.158   2.823   6.003  1.2003 -1.3818 -1.5992
  4744G12c C00188020   1.107   2.912   5.901 -0.7839 -0.8370  1.2765
  4744G12c C00M88021   1.085   3.062   5.913 -0.5833  0.7510  1.6232
  4744G12c C00L88022   1.050   3.120   6.043  0.4320  0.5469  0.9686
  4744G12c C00R88023   1.061   3.242   6.076  0.8865  1.2735  1.2134
  4744G12c C00Q88024   1.095   3.362   5.999 -0.0606  0.9999 -0.6156
  4744G12c C00V88025   1.100   3.481   6.073  1.0735 -1.6239 -0.6754
  4744G12c C00U88026   1.114   3.492   6.216  1.5296  0.3538 -0.0428
  4744G12c C00T88027   1.097   3.377   6.294  0.5877  0.9421  0.5771
  4744G12c C01688028   1.085   3.362   6.427 -0.6994  0.5855 -0.4190
  4744G12c C01588029   1.126   3.471   6.492  0.8199  0.0675 -0.8000
  4744G12c C01088030   1.113   3.590   6.439 -0.7739  0.1226 -0.3104
  4744G12c C01188031   1.105   3.702   6.507 -0.9682  0.3728 -0.1457
  4744G12c H00588032   1.088   3.803   6.473  2.7650  0.7703 -1.0753
  4744G12c C01288033   1.168   3.697   6.628  0.2720  0.6764  0.3983
  4744G12c C01788034   1.199   3.808   6.703 -0.5681 -0.5365  0.2795
  4744G12c O00288035   1.082   3.901   6.729  0.0850  1.6064  0.1840
  4744G12c H00488036   1.133   3.931   6.803  0.5893  5.9076 -1.7332
  4744G12c C01888037   1.311   3.830   6.785  1.1078 -0.3256 -0.7887
  4744G12c O00188038   1.436   3.766   6.784  1.2144  0.2447  1.3571
  4744G12c H00388039   1.429   3.686   6.735 -2.6080 -1.8599  4.9739
  4744G12c C01988040   1.328   3.939   6.899  0.3519 -0.7413  0.3801
  4744G12c H00288041   1.279   3.898   6.987 -2.1306  1.1159 -0.0917
  4744G12c H00188042   1.418   3.937   6.960 -0.1326 -7.7765  1.3378
  4744G12c O00088043   1.253   4.052   6.867  1.3041  0.8137  0.3079
  4744G12c C01A88044   1.301   4.171   6.882 -0.9815  1.3638  0.0786
  4744G12c C02K88045   1.279   4.243   7.000 -0.5162 -1.6364  1.4551
  4744G12c O00G88046   1.150   4.241   7.065 -0.2541 -0.7739  0.5099
  4744G12c C02M88047   1.133   4.303   7.196  1.9942 -0.4601  1.1092
  4744G12c H01G88048   1.030   4.272   7.218  1.4286 -2.4698 -3.6607
  4744G12c H01F88049   1.135   4.411   7.186 -4.9330 -0.0562  1.2022
  4744G12c H01E88050   1.210   4.266   7.264  6.0666  4.1622 -0.6958
  4744G12c C02J88051   1.358   4.354   7.012  0.1488 -0.6063 -0.7029
  4744G12c H01H88052   1.338   4.436   7.081 -2.9343 -3.9466  2.5873
  4744G12c C02I88053   1.476   4.390   6.938  0.3876 -1.5436  1.1742
  4744G12c C02N88054   1.560   4.488   6.998  0.5142  2.4327  0.4542
  4744G12c H01M88055   1.572   4.464   7.102  5.6245 -1.9419 -0.8973
  4744G12c C02O88056   1.604   4.606   6.941  0.6481 -0.7982  0.8011
  4744G12c H01L88057   1.579   4.622   6.837  7.3755  1.1909 -0.7320
  4744G12c C02P88058   1.674   4.707   7.021 -0.7869  2.8299 -0.3427
  4744G12c H01K88059   1.781   4.686   7.014 -0.2975  4.2585  2.2594
  4744G12c H01J88060   1.659   4.682   7.126  0.9658  3.4888  0.0728
  4744G12c O00H88061   1.653   4.844   6.984 -0.0017  0.6607  0.5515
  4744G12c H01I88062   1.710   4.867   6.913  1.4280 -3.3747  0.2338
  4744G12c C02H88063   1.507   4.294   6.831 -0.3599 -0.8460  1.3178
  4744G12c H01C88064   1.572   4.306   6.746 -0.4850  2.4485  1.6164
  4744G12c C02L88065   1.428   4.182   6.811 -0.7782  1.8503 -1.3202
  4744G12c H01D88066   1.458   4.106   6.741  3.3786  0.9890  1.2959
  4744G12c C01388067   1.172   3.577   6.696  0.5266 -0.2491  0.2266
  4744G12c H00088068   1.227   3.570   6.789 -0.5246 -2.0028  0.7509
  4744G12c C01488069   1.136   3.463   6.626 -0.5158  0.8672  0.3201
  4744G12c C00F88070   1.134   3.325   6.688 -0.7166  0.6144 -0.1502
  4744G12c C00H88071   1.086   3.221   6.484 -0.4106  0.9736 -0.7934
  4744G12c C00I88072   1.058   3.108   6.404  0.0404  0.4466 -0.6111
  4744G12c C00J88073   1.031   3.146   6.266  1.2326  1.3801  3.3344
  4744G12c C00Z88074   1.122   3.603   6.302 -1.9422  1.2406  0.1327
  4744G12c C00Y88075   1.144   3.728   6.225  0.3354 -0.9886 -0.3702
  4744G12c H00688076   1.157   3.824   6.273 -3.1306 -0.8835  0.5085
  4744G12c C00X88077   1.143   3.714   6.083  1.1477 -0.2912  0.1280
  4744G12c O00388078   1.217   3.809   6.023  1.0026  1.7480 -0.4210
  4744G12c C01B88079   1.158   3.919   6.000 -0.2604  0.7394  0.7852
  4744G12c H00988080   1.178   3.976   6.091 -0.3038 -0.0315  1.2770
  4744G12c H00888081   1.050   3.934   5.993 -0.0937  1.1422 -1.4505
  4744G12c H00788082   1.213   3.964   5.916 -0.6907 -1.0826 -0.5010
  4744G12c C00W88083   1.123   3.601   6.008 -0.7767 -2.0683  1.1849
  4744G12c O00488084   1.127   3.611   5.873  0.8885  0.9402 -1.0015
  4744G12c C01C88085   1.155   3.505   5.808  0.1780  0.1395  0.0240
  4744G12c H00A88086   1.137   3.519   5.703 -1.7949  3.8627  0.7828
  4744G12c C00P88087   1.138   3.370   5.857 -0.3338  0.5548 -1.5385
  4744G12c C00O88088   1.183   3.260   5.774 -1.6364 -0.0573 -1.8409
  4744G12c C01D88089   1.281   3.292   5.675 -0.7895  1.2206  1.5096
  4744G12c H00S88090   1.316   3.394   5.669  1.7159  0.3099  0.2637
  4744G12c C01E88091   1.329   3.191   5.598 -0.5621 -0.4535 -0.5441
  4744G12c O00888092   1.416   3.232   5.492  0.2219  0.3029 -1.1734
  4744G12c C01V88093   1.331   3.274   5.380  0.0416  0.4810 -1.8924
  4744G12c C01Z88094   1.298   3.422   5.354 -1.5398 -0.7986  1.0982
  4744G12c H00R88095   1.345   3.511   5.395  0.9736 -2.7364  2.5372
  4744G12c H00Q88096   1.308   3.454   5.250 -3.3900 -1.7640  0.5919
  4744G12c O00988097   1.152   3.387   5.358  0.0147 -0.6318 -0.1340
  4744G12c H00P88098   1.117   3.468   5.324  2.5659 -1.8512 -6.2850
  4744G12c C01W88099   1.324   3.186   5.288 -1.1235 -1.2204 -0.3182
  4744G12c H00O88100   1.389   3.106   5.319 -0.2317  0.0055  1.0606
  4744G12c C01X88101   1.285   3.188   5.146  1.0804 -0.7213  1.8936
  4744G12c H00N88102   1.177   3.203   5.150  1.8739  6.1395  4.6526
  4744G12c H00M88103   1.333   3.272   5.095 -6.4094  0.8413 -3.5265
  4744G12c C01Y88104   1.299   3.047   5.081 -0.0331  0.3883 -0.7061
  4744G12c C02D88105   1.368   3.027   4.955  0.4252 -0.9831 -0.2259
  4744G12c H01988106   1.441   3.100   4.924  1.5186 -2.0161 -0.1412
  4744G12c C02C88107   1.324   2.928   4.862  1.0502  0.6096  0.6325
  4744G12c H01A88108   1.340   2.924   4.755 -2.6397  8.7861 -0.6431
  4744G12c C02B88109   1.287   2.811   4.917  0.5507 -0.1916  0.5054
  4744G12c O00E88110   1.331   2.704   4.841 -0.2546  0.2255  0.1790
  4744G12c H01B88111   1.387   2.635   4.872 -1.2907 -1.6451 -1.9133
  4744G12c C02F88112   1.218   2.803   5.037  1.5972  0.8506  1.3459
  4744G12c O00F88113   1.189   2.671   5.070 -1.0913 -0.8254 -0.1708
  4744G12c C02G88114   1.159   2.643   5.210 -0.6924  1.1368  1.3426
  4744G12c H01788115   1.106   2.547   5.208 -1.8111  1.7597 -0.5021
  4744G12c H01688116   1.084   2.714   5.245 -1.5376  1.1216 -0.3546
  4744G12c H01588117   1.251   2.612   5.258 -2.1078 -0.1801  3.2919
  4744G12c C02E88118   1.233   2.915   5.115  0.0867  0.1459  0.4588
  4744G12c H01888119   1.188   2.927   5.213 -0.3965  2.2099  0.0126
  4744G12c C01F88120   1.319   3.056   5.631  1.6665  1.0729 -0.1281
  4744G12c C01G88121   1.392   2.928   5.614  0.8195 -0.0024  0.1665
  4744G12c H00L88122   1.483   2.917   5.558  0.3888 -6.0400  0.3772
  4744G12c C01H88123   1.368   2.803   5.694  0.7752  0.8904 -0.9327
  4744G12c H00B88124   1.456   2.747   5.718 -5.3185 -6.6672  6.6193
  4744G12c C01I88125   1.264   2.802   5.784  0.3938  1.4879 -0.1512
  4744G12c C01U88126   1.209   3.031   5.728 -0.5891  0.0974  0.4263
  4744G12c C00S88127   1.068   3.265   6.216 -1.5697 -0.7503  0.4426
  4744G12c C00K88128   1.035   3.050   6.163  0.4164  0.5086  0.8557
  4744G12c C00N88129   1.161   3.126   5.810 -0.4597 -2.0873  0.1967
  4744G12c C00088130   1.160   2.899   5.778 -0.4396 -0.2988  1.7491
  4744G12c C01J88131   1.265   2.755   5.929 -1.1201  0.1289 -1.3221
  4744G12c C01K88132   1.324   2.630   5.980 -1.0672  0.5525 -1.7122
  4744G12c C01P88133   1.369   2.508   5.909  0.5614 -0.0895  2.6427
  4744G12c C01Q88134   1.307   2.445   5.794  0.6745  1.3505 -0.4911
  4744G12c H00G88135   1.373   2.456   5.709 -0.6942 -2.1687 -2.1155
  4744G12c C01R88136   1.182   2.397   5.797 -0.2927  0.7030  0.1347
  4744G12c H00F88137   1.143   2.384   5.697  2.8407 -0.0818 -1.0460
  4744G12c C01S88138   1.078   2.394   5.922 -0.3906 -0.9989  0.6866
  4744G12c H00E88139   1.106   2.489   5.967  0.5058 -0.8899 -0.1074
  4744G12c H00D88140   0.982   2.416   5.875  0.4135  6.8177  1.9954
  4744G12c O00588141   1.106   2.272   6.002 -0.8715  1.6731 -1.3326
  4744G12c H00C88142   1.024   2.250   6.044 -1.2884  1.8472 -2.0359
  4744G12c C01O88143   1.442   2.432   5.995 -0.7496 -0.0429 -0.1601
  4744G12c H00H88144   1.432   2.324   5.991 -0.7048 -0.1953  3.0850
  4744G12c C01N88145   1.503   2.489   6.111 -0.7274  1.1827 -1.4932
  4744G12c O00688146   1.605   2.422   6.177  1.0703 -1.1102  0.5047
  4744G12c C01T88147   1.671   2.309   6.124 -0.1040 -0.0306 -1.0233
  4744G12c H00K88148   1.723   2.333   6.030  2.2288 -1.2846 -0.0916
  4744G12c H00J88149   1.604   2.226   6.101  0.5204 -0.6343 -0.6773
  4744G12c H00I88150   1.745   2.275   6.196 -2.8404  2.6056  3.2308
  4744G12c C01M88151   1.418   2.570   6.180  1.2747 -2.0234  0.0186
  4744G12c C02088152   1.086   2.927   6.220 -1.2233  1.1765 -0.4589
  4744G12c C02188153   1.093   2.888   6.365  0.3642  1.3950  0.9330
  4744G12c C01L88154   1.323   2.638   6.110  0.5275 -1.3052  0.2321
  4744G12c O00788155   1.457   2.579   6.311 -0.6501 -0.1902  0.5117
  4744G12c C02288156   1.201   2.812   6.415 -1.0312  0.7331 -0.1270
  4744G12c C02388157   1.058   2.981   6.466 -0.1178  0.3412 -0.3086
  4744G12c C00G88158   1.126   3.205   6.615 -1.5955 -0.8173  0.2240
  4744G12c C00E88159   1.175   3.318   6.823 -0.6363  0.8532  2.0194
  4744G12c O00A88160   1.167   3.414   6.916  0.0050  0.2672  0.7794
  4744G12c C02488161   1.285   3.451   6.996 -0.2238 -0.3084  1.3205
  4744G12c H00V88162   1.248   3.394   7.081  0.8352 -1.2640  1.1343
  4744G12c H00U88163   1.262   3.557   7.013  3.5993  0.9823 -0.9650
  4744G12c H00T88164   1.388   3.418   6.992  1.3757  4.5206 -2.3980
  4754G12c C00D88165   8.745   5.741  10.248  0.8611  2.1213 -0.9723
  4754G12c O00B88166   8.739   5.711  10.102  0.6117  0.2511  0.3020
  4754G12c C02588167   8.805   5.595  10.054 -3.6550  0.7423  0.7377
  4754G12c C02688168   8.807   5.597   9.904  0.4041 -0.0423  0.3681
  4754G12c H00Y88169   8.767   5.506   9.861 -0.6632  1.5171 -2.0947
  4754G12c H00X88170   8.866   5.669   9.846  8.1604 -2.9102  4.1152
  4754G12c O00C88171   8.674   5.626   9.862  0.6044 -0.5691 -0.3684
  4754G12c H00W88172   8.627   5.703   9.891  1.2346 -0.3211  0.0240
  4754G12c C02788173   8.876   5.509  10.120 -1.2756  0.6834  1.0037
  4754G12c O00D88174   8.857   5.488  10.252 -0.7615 -0.9514  0.1095
  4754G12c H00Z88175   8.946   5.475  10.282  2.2355  6.3559 -4.2309
  4754G12c C02888176   8.977   5.429  10.057 -0.4460 -0.6968  0.1607
  4754G12c C02988177   9.086   5.491   9.984 -0.5616 -1.0951 -0.1718
  4754G12c H01088178   9.092   5.598   9.971 -0.6047 -0.5114  3.7891
  4754G12c C02T88179   9.196   5.414   9.941 -0.7513  0.4093  0.6664
  4754G12c H01O88180   9.291   5.465   9.944  0.5081 -1.9618  1.8156
  4754G12c C02S88181   9.199   5.274   9.940 -1.7013 -2.0339 -0.4684
  4754G12c O00J88182   9.319   5.216   9.940  0.2609 -0.5746  0.8303
  4754G12c H01P88183   9.281   5.129   9.944 -1.0529 -0.1392 -1.5493
  4754G12c C02R88184   9.091   5.215   9.985  0.6582  0.5827  0.5324
  4754G12c O00I88185   9.090   5.075   9.983  0.5236 -1.0019  0.6225
  4754G12c C02Q88186   8.974   4.987   9.956  0.0578 -0.1410 -0.4911
  4754G12c H01N88187   8.942   4.941  10.049  1.3970 -0.6567 -0.2728
  4754G12c H01R88188   8.975   4.929   9.864  0.4468 -2.3577  0.8719
  4754G12c H01Q88189   8.909   5.069   9.925 -3.0567 -1.3701  2.3831
  4754G12c C02A88190   8.977   5.290  10.039 -0.5994  1.0677  0.1275
  4754G12c H01188191   8.891   5.246  10.087  2.7683 -1.3300  4.2874
  4754G12c C00C88192   8.674   5.656  10.338  0.3676  1.1516  1.0492
  4754G12c H01288193   8.628   5.570  10.290  1.0172  0.8034  1.0506
  4754G12c C00B88194   8.631   5.684  10.461 -0.0831 -1.6364  0.4344
  4754G12c C00A88195   8.565   5.605  10.560  0.6579  1.3466  0.1347
  4754G12c C00988196   8.425   5.569  10.524 -1.5049  1.3306  1.6305
  4754G12c C00888197   8.361   5.552  10.395  0.3298 -0.2563 -1.5882
  4754G12c H01388198   8.417   5.585  10.308  3.8858  1.1716  1.1442
  4754G12c C00788199   8.223   5.558  10.409 -0.0770  0.7146 -0.4521
  4754G12c H01488200   8.164   5.561  10.319 -2.3181 -1.1111  0.9261
  4754G12c C00688201   8.158   5.564  10.535 -0.8648  0.3912 -0.0021
  4754G12c C00588202   8.233   5.583  10.650 -1.0326 -1.0561  1.3327
  4754G12c C00488203   8.178   5.586  10.779  0.2249  0.5133  2.9147
  4754G12c C00388204   8.264   5.602  10.897  1.4237  1.5256  1.4715
  4754G12c C00288205   8.192   5.668  11.018  0.5602 -0.2919  1.1683
  4754G12c C00188206   8.236   5.749  11.132  1.4455  0.5030 -1.4886
  4754G12c C00M88207   8.317   5.864  11.118  0.5772  1.2037  2.7186
  4754G12c C00L88208   8.441   5.851  11.040 -0.5473 -0.2737 -1.4910
  4754G12c C00R88209   8.513   5.970  11.002 -1.5495 -0.8065  0.3087
  4754G12c C00Q88210   8.508   6.110  11.026  1.3833 -0.2793  1.4404
  4754G12c C00V88211   8.622   6.184  10.987  2.0978 -0.8982 -0.9363
  4754G12c C00U88212   8.674   6.140  10.859  0.2629  0.6794 -0.9523
  4754G12c C00T88213   8.653   6.022  10.812  0.9289  0.2556 -0.7831
  4754G12c C01688214   8.707   5.963  10.698  0.7329 -1.2082  0.0193
  4754G12c C01588215   8.791   6.047  10.619  0.0277 -1.2762  2.1270
  4754G12c C01088216   8.830   6.169  10.676 -0.4892 -2.1715  1.0879
  4754G12c C01188217   8.933   6.240  10.614 -1.5961 -0.6117  1.0599
  4754G12c H00588218   8.954   6.345  10.628  1.7497 -0.5994 -3.0349
  4754G12c C01288219   8.997   6.179  10.493 -0.9521  1.0739  0.3770
  4754G12c C01788220   9.111   6.241  10.419  0.9613 -1.2372 -0.1385
  4754G12c O00288221   9.086   6.276  10.285  1.5879 -2.2467 -1.5156
  4754G12c H00488222   8.995   6.248  10.289  0.7369  0.4481  0.0848
  4754G12c C01888223   9.221   6.290  10.485  1.2229 -0.3194 -0.3754
  4754G12c O00188224   9.234   6.245  10.622  0.8062 -1.0976 -0.9562
  4754G12c H00388225   9.143   6.231  10.643 -0.1617  6.9952  1.9292
  4754G12c C01988226   9.327   6.368  10.424 -1.3058  0.1813 -0.7412
  4754G12c H00288227   9.393   6.412  10.498  0.8613  7.9965 -6.6890
  4754G12c H00188228   9.264   6.451  10.391  0.7744  1.4371 -1.5777
  4754G12c O00088229   9.406   6.275  10.350  1.6081 -1.2036  0.2704
  4754G12c C01A88230   9.504   6.192  10.416  0.0058  0.1664  0.4408
  4754G12c C02K88231   9.634   6.235  10.397 -1.2881 -1.9347  0.5846
  4754G12c O00G88232   9.679   6.331  10.300  0.7084 -1.3217 -1.3239
  4754G12c C02M88233   9.721   6.260  10.191 -0.7095  1.3475 -1.8450
  4754G12c H01G88234   9.811   6.199  10.200 -1.1772  1.1174  2.2191
  4754G12c H01F88235   9.721   6.321  10.101 -1.8913  3.2083 -0.6015
  4754G12c H01E88236   9.644   6.186  10.165  0.4540  1.3401 -5.5984
  4754G12c C02J88237   9.719   6.183  10.483 -2.3833  0.3734  0.1441
  4754G12c H01H88238   9.824   6.198  10.466 -0.8747  0.9048  8.1275
  4754G12c C02I88239   9.686   6.089  10.589 -0.2800 -1.5439  1.3262
  4754G12c C02N88240   9.788   5.999  10.642 -0.5693 -0.0958 -1.5755
  4754G12c H01M88241   9.856   6.000  10.726 -0.7290 -2.9158 -1.3413
  4754G12c C02O88242   9.798   5.878  10.573 -0.1933  0.5051 -1.8305
  4754G12c H01L88243   9.726   5.858  10.495  0.7039 -3.6233 -1.7186
  4754G12c C02P88244   9.883   5.761  10.596 -0.9128 -1.3129 -0.6083
  4754G12c H01K88245   9.966   5.797  10.658  0.1585 -3.0412 -0.9998
  4754G12c H01J88246   9.790   5.726  10.641 -1.3256  0.3388 -0.1397
  4754G12c O00H88247   9.930   5.640  10.538 -0.1744 -0.2884 -0.5609
  4754G12c H01I88248  10.013   5.663  10.500  0.6664 -3.8231 -1.0374
  4754G12c C02H88249   9.550   6.033  10.588  0.4143  0.5271  2.3311
  4754G12c H01C88250   9.532   5.944  10.647  0.0401 -1.8389 -1.1540
  4754G12c C02L88251   9.472   6.092  10.496 -0.7419 -0.5612  0.3516
  4754G12c H01D88252   9.382   6.034  10.481 -0.2961 -0.2379 -4.7396
  4754G12c C01388253   8.960   6.055  10.434 -1.4221  1.3788 -0.4120
  4754G12c H00088254   9.016   6.030  10.346 -0.2735 -0.4178  0.7957
  4754G12c C01488255   8.841   5.993  10.498 -1.1210 -1.3499  1.6286
  4754G12c C00F88256   8.787   5.874  10.441 -0.8157  0.2249 -2.4215
  4754G12c C00H88257   8.681   5.834  10.660  0.6827  2.1824 -0.3597
  4754G12c C00I88258   8.619   5.740  10.747 -0.8692 -0.5111 -0.8217
  4754G12c C00J88259   8.572   5.807  10.866  0.3469 -1.7987 -0.8814
  4754G12c C00Z88260   8.787   6.215  10.806  1.0515  1.7479  0.6624
  4754G12c C00Y88261   8.817   6.347  10.853 -0.0379  0.0269  0.3271
  4754G12c H00688262   8.884   6.416  10.803 -2.4981 -1.2570 -5.0171
  4754G12c C00X88263   8.748   6.400  10.970 -0.6938  0.3343  0.2562
  4754G12c O00388264   8.733   6.542  10.963  0.0288  1.0257 -1.0873
  4754G12c C01B88265   8.589   6.584  10.958 -1.4927  0.1090 -0.4319
  4754G12c H00988266   8.533   6.599  11.050 -1.0591  8.3709 -1.1232
  4754G12c H00888267   8.545   6.527  10.877 -0.8173 -6.1458  3.2861
  4754G12c H00788268   8.620   6.681  10.919 -1.9869  0.2636 -0.4468
  4754G12c C00W88269   8.652   6.318  11.036 -2.1756  1.2422 -0.8317
  4754G12c O00488270   8.552   6.373  11.105 -0.5468  0.6869  1.5670
  4754G12c C01C88271   8.427   6.324  11.109 -1.2429 -1.3416  1.3811
  4754G12c H00A88272   8.345   6.382  11.068 -1.0464 -4.3342 -3.6052
  4754G12c C00P88273   8.395   6.184  11.082 -0.3669  1.4059 -0.1272
  4754G12c C00O88274   8.276   6.123  11.132  2.4954 -0.9124 -2.6070
  4754G12c C01D88275   8.163   6.205  11.134 -0.3337  1.5934  1.7183
  4754G12c H00S88276   8.166   6.303  11.087 -2.2967  1.0254  0.3667
  4754G12c C01E88277   8.042   6.162  11.113 -1.7144  1.2002  0.6183
  4754G12c O00888278   7.936   6.242  11.070 -0.4733 -0.0680  1.1991
  4754G12c C01V88279   7.931   6.373  11.081 -0.7443 -0.7043  0.3128
  4754G12c C01Z88280   7.871   6.439  11.199 -1.7522 -0.5580 -0.6481
  4754G12c H00R88281   7.892   6.544  11.218 -1.9251 -1.1020  2.7595
  4754G12c H00Q88282   7.764   6.434  11.177 -1.2627  0.2368 -3.3999
  4754G12c O00988283   7.916   6.367  11.304 -0.2777 -2.0659 -0.4932
  4754G12c H00P88284   7.968   6.299  11.266  1.9990 -2.2810  2.7845
  4754G12c C01W88285   7.921   6.440  10.958  1.0371 -0.8396  0.2336
  4754G12c H00O88286   7.926   6.356  10.890 -2.4884 -1.8977  1.1544
  4754G12c C01X88287   7.902   6.582  10.934 -0.7640  0.3631 -0.9582
  4754G12c H00N88288   7.811   6.605  10.878 -2.5590  8.9829  4.4146
  4754G12c H00M88289   7.856   6.641  11.013 -0.6892  2.9052 -2.7335
  4754G12c C01Y88290   8.027   6.675  10.886  1.7610  0.8058 -0.6255
  4754G12c C02D88291   8.049   6.808  10.923 -1.4058  1.3955  0.2395
  4754G12c H01988292   7.975   6.876  10.964 -1.4462 -1.0095  4.4251
  4754G12c C02C88293   8.149   6.880  10.859 -0.9375 -0.8013  1.2129
  4754G12c H01A88294   8.155   6.982  10.893  2.0069  0.9070 -3.8934
  4754G12c C02B88295   8.256   6.806  10.808 -0.0678  0.4421  0.0057
  4754G12c O00E88296   8.379   6.851  10.758 -0.7940  0.9809  0.3512
  4754G12c H01B88297   8.448   6.789  10.740 -1.6320  0.2244 -0.3066
  4754G12c C02F88298   8.240   6.671  10.794 -0.3361  1.7881 -0.7329
  4754G12c O00F88299   8.329   6.589  10.721  1.2721 -0.5104  0.4249
  4754G12c C02G88300   8.356   6.459  10.748 -1.2811  0.6250  0.3566
  4754G12c H01788301   8.288   6.426  10.826 -3.7729  7.5478  1.4947
  4754G12c H01688302   8.454   6.414  10.733 -2.5634 -0.7791 -4.9279
  4754G12c H01588303   8.266   6.438  10.690 -0.0439  6.7852 -4.4187
  4754G12c C02E88304   8.120   6.615  10.824  0.9760  0.1595  1.5909
  4754G12c H01888305   8.098   6.524  10.769  1.0033  1.0738  0.0558
  4754G12c C01F88306   8.018   6.023  11.119  0.3756  0.9142  0.3767
  4754G12c C01G88307   7.891   5.972  11.094  0.9753  0.6342 -0.0819
  4754G12c H00L88308   7.793   6.012  11.074 -2.2254 -6.9512 -1.4427
  4754G12c C01H88309   7.890   5.829  11.058 -1.0411 -1.1900  0.4924
  4754G12c H00B88310   7.789   5.794  11.075 -2.6545  1.1277 -3.6555
  4754G12c C01I88311   8.008   5.745  11.100  0.2805  0.0063 -0.8104
  4754G12c C01U88312   8.120   5.926  11.148  0.6243 -0.5712 -0.3482
  4754G12c C00S88313   8.587   5.938  10.891 -2.5135 -1.4879  0.8311
  4754G12c C00K88314   8.462   5.753  10.945  0.4804 -0.0820  0.1674
  4754G12c C00N88315   8.252   5.984  11.136  0.3103 -0.2368 -0.5561
  4754G12c C00088316   8.112   5.794  11.178  1.2518 -0.8569  0.8929
  4754G12c C01J88317   8.053   5.644  11.014 -0.9643 -1.5904 -1.0040
  4754G12c C01K88318   7.979   5.586  10.921 -1.9231  1.9667  0.8233
  4754G12c C01P88319   7.837   5.542  10.928  0.2489  2.1831 -1.2119
  4754G12c C01Q88320   7.772   5.520  11.056  0.5448 -0.3172 -0.0998
  4754G12c H00G88321   7.689   5.588  11.068  4.4875  4.7158  0.5321
  4754G12c C01R88322   7.805   5.417  11.144 -0.8058  0.1122 -0.4024
  4754G12c H00F88323   7.886   5.349  11.123 -1.7711  0.5472 -6.2851
  4754G12c C01S88324   7.730   5.398  11.284 -0.4443 -0.1088 -0.0201
  4754G12c H00E88325   7.668   5.310  11.269 -1.9076 -0.8291  8.1287
  4754G12c H00D88326   7.800   5.382  11.366  1.0592 -0.1058 -1.2651
  4754G12c O00588327   7.668   5.500  11.333 -0.0806  0.5558  0.4298
  4754G12c H00C88328   7.598   5.480  11.394 -1.6328  2.1079 -0.8011
  4754G12c C01O88329   7.765   5.500  10.808 -0.3231 -1.9693 -1.3011
  4754G12c H00H88330   7.658   5.486  10.812 -0.4906 -0.4290  0.2740
  4754G12c C01N88331   7.830   5.504  10.669 -1.0260  1.8172 -1.3026
  4754G12c O00688332   7.741   5.457  10.581 -0.7881 -0.1581 -0.0103
  4754G12c C01T88333   7.630   5.529  10.542  0.5592  0.1922 -0.6948
  4754G12c H00K88334   7.534   5.478  10.548  2.8856 -4.2616  1.2512
  4754G12c H00J88335   7.645   5.561  10.439  2.1265  3.5205  0.5118
  4754G12c H00I88336   7.619   5.616  10.606 -3.4331 -1.2413  0.7296
  4754G12c C01M88337   7.967   5.541  10.677 -0.6546  1.6072 -1.6127
  4754G12c C02088338   8.403   5.629  10.869 -0.5223 -1.6215  0.1678
  4754G12c C02188339   8.448   5.570  10.746  0.0027  1.3714 -0.3480
  4754G12c C01L88340   8.047   5.560  10.799 -0.4804 -0.1101 -1.4414
  4754G12c O00788341   8.020   5.577  10.545  0.9698 -0.4096  0.2186
  4754G12c C02288342   8.368   5.563  10.646  0.6605 -0.1218  1.5158
  4754G12c C02388343   8.572   5.623  10.695  0.6392  0.6748 -0.6367
  4754G12c C00G88344   8.698   5.797  10.519  0.7844  1.4547 -0.9764
  4754G12c C00E88345   8.804   5.848  10.300 -0.0594 -1.3432  0.4738
  4754G12c O00A88346   8.872   5.931  10.206  1.1639 -0.1274 -0.0061
  4754G12c C02488347   8.792   6.028  10.158  0.0229 -0.9762  0.7948
  4754G12c H00V88348   8.850   6.068  10.075  5.3927 -2.1277  3.7577
  4754G12c H00U88349   8.751   6.109  10.219 -1.1956 -0.0475 -1.2013
  4754G12c H00T88350   8.707   5.981  10.108 -0.9419  4.9398 -3.6613
  4764G12c C00D88351  11.918   5.360   9.172 -0.4704 -0.0692  1.0626
  4764G12c O00B88352  11.816   5.343   9.068  0.9794 -0.8981  0.7929
  4764G12c C02588353  11.815   5.393   8.941  0.7008 -0.5808  0.6398
  4764G12c C02688354  11.841   5.536   8.975  0.4728 -0.9471 -0.6902
  4764G12c H00Y88355  11.821   5.605   8.893 -0.3098 -2.4741 -1.8357
  4764G12c H00X88356  11.944   5.531   9.009 -0.1633  0.8772  1.6154
  4764G12c O00C88357  11.738   5.594   9.059  0.9347  0.4132  1.0714
  4764G12c H00W88358  11.783   5.662   9.106 -0.2592  0.9049  1.5238
  4764G12c C02788359  11.768   5.337   8.824  1.4563  0.3673  0.7639
  4764G12c O00D88360  11.713   5.212   8.806 -0.2663  1.8622 -0.3223
  4764G12c H00Z88361  11.673   5.184   8.887 -3.6716  0.1731 -2.4726
  4764G12c C02888362  11.812   5.382   8.702  0.2585 -0.3542  1.2504
  4764G12c C02988363  11.912   5.315   8.631 -0.1257 -0.8434 -1.4421
  4764G12c H01088364  11.973   5.246   8.688  2.9547  1.6348 -1.6155
  4764G12c C02T88365  11.944   5.365   8.501  0.4787 -0.7473 -1.4944
  4764G12c H01O88366  12.040   5.342   8.458  0.4319 -0.9428 -1.4982
  4764G12c C02S88367  11.866   5.480   8.451  0.1802 -0.4599  0.8321
  4764G12c O00J88368  11.893   5.531   8.334 -0.3240  0.3487 -0.9029
  4764G12c H01P88369  11.830   5.601   8.323 -9.7151 -5.8396  5.5262
  4764G12c C02R88370  11.737   5.510   8.502  1.9472 -1.9824 -0.2443
  4764G12c O00I88371  11.634   5.566   8.423 -0.3700 -1.2759  1.2484
  4764G12c C02Q88372  11.506   5.536   8.463 -0.1690 -1.7032  1.0681
  4764G12c H01N88373  11.449   5.578   8.380 -4.8441 -7.6217  0.9408
  4764G12c H01R88374  11.498   5.436   8.504  5.0854 -1.0167  4.2534
  4764G12c H01Q88375  11.458   5.618   8.515 -0.9155 -0.9434 -0.7675
  4764G12c C02A88376  11.720   5.449   8.636 -0.0693 -0.7544  1.0833
  4764G12c H01188377  11.623   5.445   8.682  1.4120 -5.6425  4.2600
  4764G12c C00C88378  12.053   5.355   9.130  0.1097  0.0650 -0.8495
  4764G12c H01288379  12.089   5.334   9.030  4.2286  0.3612  0.4878
  4764G12c C00B88380  12.152   5.390   9.228  0.0959  0.8911  0.0771
  4764G12c C00A88381  12.283   5.390   9.195 -2.1514 -0.6191  0.0661
  4764G12c C00988382  12.378   5.316   9.105  1.1657 -0.1697  1.5456
  4764G12c C00888383  12.372   5.194   9.024 -1.9471  0.3296 -2.0941
  4764G12c H01388384  12.278   5.190   8.971 -2.0383 -6.3644 -1.7550
  4764G12c C00788385  12.489   5.126   8.968  0.2004 -1.7694  0.9541
  4764G12c H01488386  12.499   5.034   8.914  4.5916 -1.1862  0.5553
  4764G12c C00688387  12.604   5.170   9.019 -0.7846 -0.7356  0.2187
  4764G12c C00588388  12.616   5.277   9.110  0.0918  0.5017  1.7173
  4764G12c C00488389  12.736   5.289   9.195  0.7147  1.4420 -0.9183
  4764G12c C00388390  12.729   5.362   9.310  0.2758  1.4241 -1.1493
  4764G12c C00288391  12.838   5.366   9.410  0.8063  1.2174  1.4178
  4764G12c C00188392  12.867   5.434   9.533  0.7913  0.8284 -1.0963
  4764G12c C00M88393  12.771   5.424   9.637  0.3500 -1.3695  1.1026
  4764G12c C00L88394  12.648   5.490   9.622  0.3097 -0.9909 -0.8394
  4764G12c C00R88395  12.535   5.474   9.708 -0.2438  1.2394  0.4512
  4764G12c C00Q88396  12.525   5.430   9.833 -1.1039 -0.4469 -0.6708
  4764G12c C00V88397  12.395   5.442   9.885 -0.4708  0.7281  2.4642
  4764G12c C00U88398  12.290   5.472   9.806 -0.3943  0.6031  0.5757
  4764G12c C00T88399  12.295   5.470   9.667 -0.5124 -0.6240  0.1232
  4764G12c C01688400  12.196   5.453   9.580  1.3646  0.2303  0.1568
  4764G12c C01588401  12.063   5.444   9.629  1.5557  1.3231  0.0978
  4764G12c C01088402  12.039   5.460   9.768 -0.6815 -0.7887  0.0120
  4764G12c C01188403  11.933   5.562   9.795  1.7602 -0.1850 -0.1110
  4764G12c H00588404  11.935   5.613   9.890  3.7208  6.8179 -3.6221
  4764G12c C01288405  11.841   5.599   9.695  0.6695  0.2293 -0.3411
  4764G12c C01788406  11.725   5.700   9.713 -0.1182 -0.6138  0.9129
  4764G12c O00288407  11.616   5.625   9.732  1.5539 -0.1673 -0.1702
  4764G12c H00488408  11.543   5.665   9.776  3.5660  1.5028  1.7936
  4764G12c C01888409  11.740   5.837   9.704 -1.6874  1.3595  2.1173
  4764G12c O00188410  11.860   5.887   9.770  0.7887 -0.8764  0.5557
  4764G12c H00388411  11.876   5.833   9.846 -1.1031 -2.3984 -0.0985
  4764G12c C01988412  11.621   5.929   9.680 -0.4490  0.0052  0.5152
  4764G12c H00288413  11.586   5.942   9.783 -4.8408  1.1988 -0.9968
  4764G12c H00188414  11.660   6.008   9.616 -5.2905  4.4282  2.6315
  4764G12c O00088415  11.523   5.835   9.615 -0.2181  0.6974  0.8019
  4764G12c C01A88416  11.410   5.897   9.565 -0.7997  0.6800  1.3396
  4764G12c C02K88417  11.403   6.023   9.488  0.5575 -0.7389 -0.6941
  4764G12c O00G88418  11.492   6.126   9.502 -1.0107  0.3874  1.0577
  4764G12c C02M88419  11.451   6.243   9.527 -0.8293  1.3917  0.9954
  4764G12c H01G88420  11.449   6.216   9.632 -1.8630 -6.2570 -0.7216
  4764G12c H01F88421  11.540   6.305   9.513  0.4091 -1.0264 -2.5858
  4764G12c H01E88422  11.356   6.285   9.493  0.6775 -0.9704 -7.1548
  4764G12c C02J88423  11.268   6.051   9.442  0.0370  0.3180  1.5844
  4764G12c H01H88424  11.264   6.151   9.402  2.8574  0.2279  0.9546
  4764G12c C02I88425  11.161   5.960   9.438 -0.5512  0.6629  0.8210
  4764G12c C02N88426  11.043   5.997   9.371  0.3495 -1.7866 -1.5916
  4764G12c H01M88427  11.024   5.979   9.266  4.7505  6.2028 -4.1299
  4764G12c C02O88428  10.954   6.052   9.432  0.9295 -0.0820  0.7485
  4764G12c H01L88429  10.953   6.057   9.540  9.9697 -0.9783  1.2891
  4764G12c C02P88430  10.834   6.118   9.377 -0.1312 -0.7962 -2.0946
  4764G12c H01K88431  10.771   6.126   9.466  0.6539 -2.6383 -1.3478
  4764G12c H01J88432  10.876   6.201   9.320  1.2957 -0.6516 -0.8642
  4764G12c O00H88433  10.757   6.046   9.293  1.2249  1.1371 -0.4775
  4764G12c H01I88434  10.760   6.112   9.226  0.4712  2.8727  1.1340
  4764G12c C02H88435  11.174   5.843   9.513  0.0520  1.4134 -0.5587
  4764G12c H01C88436  11.087   5.779   9.512  0.3076 -0.1871 11.0731
  4764G12c C02L88437  11.301   5.802   9.553 -0.0519  1.7567 -1.2125
  4764G12c H01D88438  11.326   5.708   9.599 -2.8095  0.4239 -2.3102
  4764G12c C01388439  11.854   5.546   9.569 -1.4932  0.8304  0.4571
  4764G12c H00088440  11.777   5.580   9.501  1.1711  2.5817 -1.8347
  4764G12c C01488441  11.963   5.465   9.536 -1.2831 -0.4062 -1.0959
  4764G12c C00F88442  11.997   5.428   9.403 -1.4234 -0.2282 -0.7729
  4764G12c C00H88443  12.225   5.461   9.441  1.5266  1.6377 -1.9097
  4764G12c C00I88444  12.362   5.494   9.403  0.5082  0.1737  1.0438
  4764G12c C00J88445  12.452   5.532   9.501 -1.7221  0.4612  1.2814
  4764G12c C00Z88446  12.158   5.461   9.858  0.1484 -1.3628  0.3329
  4764G12c C00Y88447  12.160   5.467   9.998  0.0962 -0.4608 -0.3044
  4764G12c H00688448  12.061   5.462  10.040 -1.1961  1.8719 -2.8780
  4764G12c C00X88449  12.266   5.484  10.081 -0.4067  0.2808  0.4006
  4764G12c O00388450  12.245   5.462  10.207  0.3080  1.2294 -0.1657
  4764G12c C01B88451  12.194   5.583  10.259  0.7713  0.2680  0.7554
  4764G12c H00988452  12.267   5.654  10.299  2.5186 -0.7014 -0.6397
  4764G12c H00888453  12.135   5.553  10.346  2.6733  0.6800  2.2453
  4764G12c H00788454  12.134   5.635  10.186 -0.7072  1.8771  3.0571
  4764G12c C00W88455  12.389   5.441  10.023 -0.1232  0.1149 -0.3657
  4764G12c O00488456  12.465   5.376  10.098 -1.9039  0.1652 -1.4309
  4764G12c C01C88457  12.587   5.347  10.049  2.3819  2.5481 -1.9966
  4764G12c H00A88458  12.658   5.342  10.131  1.0719  2.9635 -0.8236
  4764G12c C00P88459  12.626   5.355   9.901 -0.3702 -0.3631  1.1169
  4764G12c C00O88460  12.758   5.318   9.870 -0.5373 -0.2158 -0.3376
  4764G12c C01D88461  12.838   5.212   9.936 -2.0459 -2.5544 -0.6391
  4764G12c H00S88462  12.777   5.159  10.008  0.2933 -3.8440  0.4348
  4764G12c C01E88463  12.950   5.153   9.865  0.9113  0.3842 -0.4278
  4764G12c O00888464  12.981   5.009   9.893  0.1525 -0.8140 -1.3009
  4764G12c C01V88465  13.059   5.010   9.999  0.9949  1.1659  1.2550
  4764G12c C01Z88466  13.169   5.099   9.990  1.4576 -0.4157 -1.8577
  4764G12c H00R88467  13.253   5.034  10.015  5.3548  5.2587  1.1923
  4764G12c H00Q88468  13.185   5.112   9.883  0.8238  3.7057 -1.5401
  4764G12c O00988469  13.166   5.228  10.054 -1.1774  0.9466 -0.4345
  4764G12c H00P88470  13.092   5.225  10.113 -1.4981  0.8801 -0.8349
  4764G12c C01W88471  12.999   4.952  10.101 -0.1577 -1.1427  1.5788
  4764G12c H00O88472  12.894   4.927  10.107 -0.3816  0.0748  3.1874
  4764G12c C01X88473  13.062   4.930  10.246  0.9757  1.1679 -0.2012
  4764G12c H00N88474  13.170   4.922  10.240  1.4989  2.5498  4.8109
  4764G12c H00M88475  13.056   5.029  10.291 -0.8999  1.0455 -0.1220
  4764G12c C01Y88476  13.009   4.793  10.307  1.0550  0.3268 -0.9202
  4764G12c C02D88477  12.909   4.719  10.232 -0.7155 -0.0524 -0.3907
  4764G12c H01988478  12.921   4.735  10.126  3.2314  2.4987  0.3589
  4764G12c C02C88479  12.828   4.608  10.287 -0.8677 -2.0627 -0.9975
  4764G12c H01A88480  12.780   4.526  10.236 -3.3976  1.6829 -5.0339
  4764G12c C02B88481  12.861   4.591  10.432  0.8367  0.4023  0.2939
  4764G12c O00E88482  12.838   4.457  10.482 -0.0918 -1.0312  0.6421
  4764G12c H01B88483  12.867   4.410  10.559  1.3364  0.8152  1.2913
  4764G12c C02F88484  12.946   4.674  10.511 -0.2843  0.4091  2.2522
  4764G12c O00F88485  12.952   4.672  10.649 -0.3848  0.1445  0.0377
  4764G12c C02G88486  12.921   4.802  10.716  0.4609  0.0769  0.8472
  4764G12c H01788487  13.025   4.835  10.710 -0.2888  2.6625  1.5794
  4764G12c H01688488  12.869   4.884  10.668 -3.0349 -2.8860 -0.7144
  4764G12c H01588489  12.883   4.784  10.816 -0.3566 -0.2613  0.4816
  4764G12c C02E88490  13.015   4.781  10.450 -1.0730 -1.5114  0.9689
  4764G12c H01888491  13.073   4.848  10.511 -1.5787  1.7831 -1.9955
  4764G12c C01F88492  13.001   5.188   9.745  0.0470  0.5887 -0.1132
  4764G12c C01G88493  13.073   5.105   9.659  0.4128  0.2300 -0.4051
  4764G12c H00L88494  13.098   5.012   9.708  4.4659  2.7648  2.6509
  4764G12c C01H88495  13.103   5.144   9.519 -0.0822  0.3215 -2.6672
  4764G12c H00B88496  13.122   5.065   9.447  0.7793 -4.7675  2.7687
  4764G12c C01I88497  13.041   5.265   9.482  0.1203 -0.3235  0.8151
  4764G12c C01U88498  12.953   5.317   9.711  0.0217  1.0978  0.4537
  4764G12c C00S88499  12.420   5.503   9.627  1.7154  0.8013  0.1693
  4764G12c C00K88500  12.585   5.495   9.478 -0.3967 -0.5318 -0.2388
  4764G12c C00N88501  12.831   5.368   9.755 -0.0554 -0.4722  1.1766
  4764G12c C00088502  12.977   5.360   9.575  0.2965 -1.0590  1.9341
  4764G12c C01J88503  12.953   5.281   9.369 -0.8209  0.7681  1.6276
  4764G12c C01K88504  12.975   5.211   9.245  0.6247 -0.7347 -1.4276
  4764G12c C01P88505  13.109   5.162   9.197  1.1463 -2.7943  1.5127
  4764G12c C01Q88506  13.243   5.203   9.251  0.4104 -1.2973  1.2078
  4764G12c H00G88507  13.279   5.263   9.334 -7.0252  0.3086  3.6475
  4764G12c C01R88508  13.350   5.165   9.172  0.1152 -0.4980 -2.2622
  4764G12c H00F88509  13.319   5.112   9.083 -0.1740  2.7210 -4.1497
  4764G12c C01S88510  13.500   5.202   9.232  2.5687  1.7922  0.6099
  4764G12c H00E88511  13.562   5.112   9.226 -2.3865 -1.9457  2.4717
  4764G12c H00D88512  13.503   5.241   9.333  3.1266 -0.9986  1.7109
  4764G12c O00588513  13.603   5.291   9.164  0.7768 -1.4859  0.7345
  4764G12c H00C88514  13.607   5.299   9.070 -1.5577 -2.2955  0.5380
  4764G12c C01O88515  13.069   5.085   9.077 -2.0363 -0.5587  1.3124
  4764G12c H00H88516  13.144   5.039   9.015 -4.7801 -0.7153 -2.0645
  4764G12c C01N88517  12.943   5.051   9.038 -0.8150  2.0389  0.9617
  4764G12c O00688518  12.933   4.940   8.937 -0.1014 -0.7559 -0.2032
  4764G12c C01T88519  12.837   4.843   8.951 -1.4807 -1.1670  0.3878
  4764G12c H00K88520  12.886   4.757   8.995  1.4484  2.1085  3.8299
  4764G12c H00J88521  12.820   4.793   8.855 -5.4853  7.4909 -3.9984
  4764G12c H00I88522  12.740   4.892   8.947 -3.5224 -4.8813  1.6707
  4764G12c C01M88523  12.825   5.121   9.072 -1.2868 -0.6642  1.1665
  4764G12c C02088524  12.610   5.434   9.345 -1.1706  0.7531  0.4936
  4764G12c C02188525  12.512   5.432   9.245  0.2095  0.2344 -0.3350
  4764G12c C01L88526  12.847   5.208   9.169 -0.5212 -0.2939 -2.2043
  4764G12c O00788527  12.701   5.081   9.038  0.7879  0.8604 -0.0604
  4764G12c C02288528  12.509   5.354   9.139  1.9281  0.4137 -0.8528
  4764G12c C02388529  12.382   5.464   9.270 -1.6615  3.8279  0.2638
  4764G12c C00G88530  12.129   5.429   9.348  0.7788  1.0427  0.2269
  4764G12c C00E88531  11.899   5.381   9.312  0.5023 -0.2467  0.9445
  4764G12c O00A88532  11.779   5.369   9.360  0.9768 -2.2923 -0.3481
  4764G12c C02488533  11.731   5.249   9.361  0.0633 -2.0788  0.2601
  4764G12c H00V88534  11.643   5.295   9.406  1.6719  0.1009  1.2696
  4764G12c H00U88535  11.718   5.221   9.257 -0.2193  2.0384 -0.9237
  4764G12c H00T88536  11.769   5.174   9.430  0.5000 -3.4851 -1.4806
  4774G12c C00D88537  11.767   7.021   8.322  0.0231 -0.0340  0.4334
  4774G12c O00B88538  11.764   6.895   8.249  0.0945  0.2649 -0.8881
  4774G12c C02588539  11.823   6.795   8.307  0.7957 -0.9395  1.9579
  4774G12c C02688540  11.749   6.651   8.309 -0.7895  2.3797 -0.0335
  4774G12c H00Y88541  11.760   6.600   8.404 -0.8307  4.3528  1.0587
  4774G12c H00X88542  11.760   6.578   8.229  1.0684  1.5960  0.8970
  4774G12c O00C88543  11.612   6.696   8.320 -1.0319 -3.0550  0.3699
  4774G12c H00W88544  11.618   6.772   8.266  4.7681 -2.1426  1.9358
  4774G12c C02788545  11.957   6.809   8.323 -1.8214 -1.0488 -0.1718
  4774G12c O00D88546  12.037   6.924   8.299  0.5094 -0.1513  1.3056
  4774G12c H00Z88547  11.979   6.985   8.256  0.8326 -1.1628 -0.6482
  4774G12c C02888548  12.031   6.670   8.348 -0.1521  1.3617 -0.2029
  4774G12c C02988549  12.132   6.622   8.255 -1.7177 -0.7541 -0.0076
  4774G12c H01088550  12.147   6.667   8.158  0.8802 -2.9533 -0.7057
  4774G12c C02T88551  12.216   6.518   8.292  1.5251 -0.3815  0.2007
  4774G12c H01O88552  12.274   6.463   8.219  2.3227 -0.6249  1.0057
  4774G12c C02S88553  12.204   6.452   8.414 -2.1371 -0.9868 -0.2478
  4774G12c O00J88554  12.288   6.359   8.462 -1.1381  0.8582 -0.5201
  4774G12c H01P88555  12.360   6.314   8.420  1.8110  4.1452  0.7935
  4774G12c C02R88556  12.098   6.490   8.500  0.9706  2.5139  0.6587
  4774G12c O00I88557  12.033   6.417   8.602  0.7622 -1.2019 -0.4988
  4774G12c C02Q88558  12.025   6.279   8.615 -0.6594  0.9189 -0.4272
  4774G12c H01N88559  11.992   6.198   8.550 -1.6414 -1.8213  3.3829
  4774G12c H01R88560  12.093   6.221   8.678 -0.5957  0.2273 -1.1241
  4774G12c H01Q88561  11.933   6.282   8.673  1.5807  6.9013  3.2481
  4774G12c C02A88562  12.029   6.598   8.466 -1.4926  0.1121 -0.3551
  4774G12c H01188563  11.964   6.636   8.544  0.9870 -2.7840  3.3371
  4774G12c C00C88564  11.779   7.123   8.221  0.5424  0.0020 -0.0474
  4774G12c H01288565  11.783   7.090   8.118  3.0849 -3.4747  1.0754
  4774G12c C00B88566  11.768   7.260   8.254 -0.6546  0.5108  0.2201
  4774G12c C00A88567  11.782   7.380   8.162  0.0894 -0.7474 -1.1676
  4774G12c C00988568  11.864   7.390   8.046  1.4896 -0.5075  0.6982
  4774G12c C00888569  11.960   7.305   7.981  0.1239  0.1317 -1.5468
  4774G12c H01388570  11.973   7.205   8.020 -5.3665 -2.0135 -4.6698
  4774G12c C00788571  12.054   7.357   7.891 -0.2229 -0.5461 -0.8761
  4774G12c H01488572  12.142   7.315   7.845 -3.1395 -0.7531 -6.6960
  4774G12c C00688573  12.065   7.488   7.877 -0.0943 -1.3400  0.4127
  4774G12c C00588574  11.981   7.577   7.951  0.4456  1.3358 -0.2899
  4774G12c C00488575  12.010   7.717   7.969 -1.4871 -0.8666 -0.5098
  4774G12c C00388576  11.952   7.777   8.074  1.1361 -0.7724 -1.7978
  4774G12c C00288577  12.019   7.909   8.122  0.6460  2.4265  2.7313
  4774G12c C00188578  11.992   8.016   8.208  0.8834  0.7577 -0.2583
  4774G12c C00M88579  11.968   7.979   8.343 -0.9138 -0.1549  2.7430
  4774G12c C00L88580  11.864   7.890   8.373 -1.4019  0.0401 -0.1875
  4774G12c C00R88581  11.877   7.834   8.508  0.3332 -0.2255 -0.2150
  4774G12c C00Q88582  11.935   7.861   8.628 -1.4686 -0.8213  0.3639
  4774G12c C00V88583  11.914   7.766   8.735  1.1060  0.5577  1.1785
  4774G12c C00U88584  11.840   7.648   8.731  0.4792 -0.8227  1.1171
  4774G12c C00T88585  11.802   7.603   8.598  0.1849  0.6310 -0.6672
  4774G12c C01688586  11.765   7.472   8.548 -1.8288 -0.5868  1.8305
  4774G12c C01588587  11.768   7.381   8.652 -0.4719  0.1352 -0.8194
  4774G12c C01088588  11.783   7.426   8.785  1.1696 -0.5851  1.3285
  4774G12c C01188589  11.741   7.331   8.887  1.0160  0.3811  0.6773
  4774G12c H00588590  11.752   7.353   8.992 -3.2325  2.6751  0.7318
  4774G12c C01288591  11.700   7.202   8.849 -1.5577  0.6131 -0.1367
  4774G12c C01788592  11.640   7.103   8.949 -2.4288 -1.6705 -1.7487
  4774G12c O00288593  11.657   6.974   8.941  0.6904  0.3480  1.4497
  4774G12c H00488594  11.638   6.964   9.033  0.8491 -0.0708  1.4369
  4774G12c C01888595  11.553   7.155   9.049  0.6757 -0.2616  1.2508
  4774G12c O00188596  11.516   7.275   9.039 -0.3521 -1.3997  0.7257
  4774G12c H00388597  11.473   7.242   8.962 -1.3745 -1.3389  1.2585
  4774G12c C01988598  11.448   7.075   9.145  0.6330 -1.0532  0.2687
  4774G12c H00288599  11.411   7.124   9.235 -2.2671  3.5526 -3.1597
  4774G12c H00188600  11.343   7.050   9.125  0.3564  0.5638 -0.3633
  4774G12c O00088601  11.514   6.948   9.172  0.2386 -1.9762  0.7116
  4774G12c C01A88602  11.491   6.923   9.305 -0.4849  0.2977 -0.7902
  4774G12c C02K88603  11.585   6.996   9.380 -1.2181 -1.1129  0.2019
  4774G12c O00G88604  11.720   7.025   9.338  0.1642  0.1623 -0.5154
  4774G12c C02M88605  11.729   7.162   9.350  1.4077 -0.1706  0.5645
  4774G12c H01G88606  11.637   7.216   9.368  4.3242  5.2492  0.2906
  4774G12c H01F88607  11.816   7.153   9.416 -0.4728 -3.0737  2.7779
  4774G12c H01E88608  11.769   7.181   9.250  0.5839 11.6782  1.8300
  4774G12c C02J88609  11.570   6.998   9.514  2.0900  0.9035  0.2883
  4774G12c H01H88610  11.636   7.065   9.567  5.1560  1.0402 -3.4890
  4774G12c C02I88611  11.465   6.925   9.583 -0.7991 -0.7907 -1.0929
  4774G12c C02N88612  11.433   6.927   9.729 -0.6161 -0.2743  1.8303
  4774G12c H01M88613  11.328   6.933   9.753 -1.9147 -4.1759 -2.1018
  4774G12c C02O88614  11.524   6.964   9.811  1.5293 -0.1410  0.3649
  4774G12c H01L88615  11.623   6.951   9.768  1.3759  4.4295 -1.6895
  4774G12c C02P88616  11.503   7.003   9.961 -0.7649  0.2264 -2.1979
  4774G12c H01K88617  11.398   7.031   9.975  0.1297  2.1382  1.3016
  4774G12c H01J88618  11.521   6.907  10.009 -2.1370  0.7092 -0.6426
  4774G12c O00H88619  11.595   7.058  10.041 -0.1358  1.1531  0.4582
  4774G12c H01I88620  11.553   7.066  10.125  1.6049 -2.9889  1.7976
  4774G12c C02H88621  11.387   6.839   9.504  0.1859  0.9052  0.5242
  4774G12c H01C88622  11.344   6.745   9.535  3.7552 -2.2294 -3.5169
  4774G12c C02L88623  11.382   6.858   9.362  0.0720  0.3365 -0.3632
  4774G12c H01D88624  11.312   6.805   9.299 -5.0229  3.5673  2.2834
  4774G12c C01388625  11.693   7.167   8.724  1.5974 -0.1511 -0.7366
  4774G12c H00088626  11.635   7.080   8.697  5.3556 -2.7285 -0.9826
  4774G12c C01488627  11.730   7.253   8.617  0.6203 -1.5017  0.5612
  4774G12c C00F88628  11.735   7.191   8.478 -0.2513 -0.8598 -1.4447
  4774G12c C00H88629  11.754   7.435   8.415  0.3103 -0.5690  0.2079
  4774G12c C00I88630  11.755   7.540   8.335 -0.4378  0.8735  0.1166
  4774G12c C00J88631  11.772   7.680   8.376 -1.9766 -1.0940 -1.8022
  4774G12c C00Z88632  11.852   7.539   8.806 -1.6624  0.4644  0.5432
  4774G12c C00Y88633  11.896   7.574   8.935  0.1535 -0.8140 -1.3224
  4774G12c H00688634  11.881   7.512   9.023  3.2343 -2.7367 -2.0902
  4774G12c C00X88635  11.936   7.693   8.966  1.1104 -1.2220  0.3318
  4774G12c O00388636  11.983   7.727   9.093 -0.4429 -0.6371  0.3966
  4774G12c C01B88637  11.929   7.853   9.135  0.1119 -0.5634 -0.3139
  4774G12c H00988638  12.001   7.934   9.151 -2.7073  2.2408 -1.3212
  4774G12c H00888639  11.896   7.819   9.233  1.1838  0.1111  0.2953
  4774G12c H00788640  11.840   7.892   9.085 -2.0609  2.3394  5.3677
  4774G12c C00W88641  11.957   7.797   8.871  1.0791 -0.7127  0.3899
  4774G12c O00488642  12.027   7.903   8.911  1.3059 -0.2399 -0.4548
  4774G12c C01C88643  12.065   7.979   8.801 -0.8785 -0.0343  1.2583
  4774G12c H00A88644  12.044   8.078   8.839 -1.5062  0.7211 -0.9708
  4774G12c C00P88645  12.033   7.955   8.663 -0.8878 -2.2937 -2.7085
  4774G12c C00O88646  12.102   8.039   8.564  0.3647 -0.6555  0.3059
  4774G12c C01D88647  12.238   8.095   8.598  2.5225  0.7445 -1.2432
  4774G12c H00S88648  12.257   8.086   8.704 -1.5131 -3.7734 -0.7564
  4774G12c C01E88649  12.342   8.132   8.498 -1.5985  0.0438 -1.3726
  4774G12c O00888650  12.477   8.179   8.534  2.0685  0.9494  0.1156
  4774G12c C01V88651  12.484   8.273   8.630 -0.3305  0.0379 -1.0002
  4774G12c C01Z88652  12.422   8.394   8.580  1.5431 -0.4017  0.5364
  4774G12c H00R88653  12.475   8.469   8.639  5.7886 -0.0768 -3.3969
  4774G12c H00Q88654  12.451   8.383   8.476  3.0290 -4.2187  1.2424
  4774G12c O00988655  12.299   8.413   8.621 -0.4688  0.0890  0.7273
  4774G12c H00P88656  12.254   8.426   8.539 -0.6338  4.0317  1.3201
  4774G12c C01W88657  12.510   8.243   8.754  0.0399  1.9515 -0.2502
  4774G12c H00O88658  12.542   8.140   8.747 -8.9908 -1.3600  0.3067
  4774G12c C01X88659  12.504   8.290   8.903  0.5260  1.2176  0.1393
  4774G12c H00N88660  12.411   8.324   8.949  2.3293  0.7917  4.3395
  4774G12c H00M88661  12.463   8.200   8.949  1.6737  0.1118 -0.9418
  4774G12c C01Y88662  12.625   8.323   8.975 -1.5207 -0.7417  0.0062
  4774G12c C02D88663  12.648   8.457   8.989  0.9952  0.5078 -1.9055
  4774G12c H01988664  12.593   8.509   8.912  0.1670 -1.6795 -2.8205
  4774G12c C02C88665  12.751   8.488   9.086  1.5821  1.1972  0.0308
  4774G12c H01A88666  12.766   8.583   9.135  0.1378  0.2922  2.2904
  4774G12c C02B88667  12.813   8.387   9.157  0.5436 -0.8620  0.0639
  4774G12c O00E88668  12.881   8.440   9.268 -1.2514 -0.5872  0.9752
  4774G12c H01B88669  12.838   8.430   9.351  2.7106 -3.6861  2.8601
  4774G12c C02F88670  12.789   8.251   9.151  0.2925  0.1278  0.4132
  4774G12c O00F88671  12.840   8.166   9.241  0.3788 -0.2810  1.4588
  4774G12c C02G88672  12.778   8.035   9.278 -1.2767  0.1399 -1.1296
  4774G12c H01788673  12.671   8.034   9.302 -0.6612  0.5283  1.7948
  4774G12c H01688674  12.820   8.007   9.374  3.9722  1.3277 -2.8951
  4774G12c H01588675  12.803   7.964   9.199  0.3273 -5.3873  3.9644
  4774G12c C02E88676  12.685   8.227   9.066  2.1089  0.0712  0.1862
  4774G12c H01888677  12.622   8.143   9.095 -4.0379  4.9948  2.3251
  4774G12c C01F88678  12.288   8.108   8.365 -1.0322  0.9895  0.1845
  4774G12c C01G88679  12.384   8.095   8.259 -1.2304 -1.0740  0.0585
  4774G12c H00L88680  12.489   8.115   8.276 -0.4885 -5.6016  1.3500
  4774G12c C01H88681  12.344   8.063   8.131 -0.6128 -0.5478  0.0130
  4774G12c H00B88682  12.418   8.027   8.062 -1.7043  0.0131 -1.4963
  4774G12c C01I88683  12.206   8.034   8.124 -0.4855 -2.0074  0.9063
  4774G12c C01U88684  12.155   8.117   8.322  1.0750 -2.0330 -0.1831
  4774G12c C00S88685  11.804   7.717   8.503 -0.4587  0.0075 -0.3955
  4774G12c C00K88686  11.810   7.785   8.289  0.1827 -1.1819 -0.3419
  4774G12c C00N88687  12.072   8.046   8.428  1.6662 -0.7954  1.2970
  4774G12c C00088688  12.103   8.108   8.207 -1.4547 -0.2244  0.8879
  4774G12c C01J88689  12.125   7.946   8.051 -1.1197  0.1532 -0.8630
  4774G12c C01K88690  12.163   7.886   7.925  1.0323 -0.6965 -0.6873
  4774G12c C01P88691  12.263   7.927   7.821  1.3347  0.5616 -0.2928
  4774G12c C01Q88692  12.293   8.069   7.821  2.2998 -0.3496  1.6979
  4774G12c H00G88693  12.332   8.142   7.890  1.3782  0.3957  1.4507
  4774G12c C01R88694  12.264   8.121   7.703 -1.1208  0.4207  1.2151
  4774G12c H00F88695  12.242   8.057   7.620 -6.5555  1.8047  1.4149
  4774G12c C01S88696  12.292   8.274   7.672  1.5142  0.0815 -1.0407
  4774G12c H00E88697  12.298   8.268   7.563 -2.3515  0.6487 -1.3559
  4774G12c H00D88698  12.227   8.352   7.711  1.5631  0.1921 -1.1771
  4774G12c O00588699  12.421   8.292   7.696  0.9071  2.2451  0.9958
  4774G12c H00C88700  12.465   8.348   7.634  1.0721  5.1112  3.5945
  4774G12c C01O88701  12.322   7.847   7.706  0.6256  1.3263  0.7561
  4774G12c H00H88702  12.370   7.883   7.616 -1.1521  3.3213  0.5553
  4774G12c C01N88703  12.264   7.723   7.681  0.7172 -1.3757 -1.3818
  4774G12c O00688704  12.291   7.638   7.581 -0.3739  0.5578 -0.6831
  4774G12c C01T88705  12.216   7.675   7.472 -1.7556  1.5748 -0.6473
  4774G12c H00K88706  12.116   7.632   7.466 -1.0898  0.3584 -5.7192
  4774G12c H00J88707  12.274   7.635   7.389  0.3921  4.6386 -0.6948
  4774G12c H00I88708  12.200   7.779   7.441 -0.6783  3.3074  4.2151
  4774G12c C01M88709  12.165   7.680   7.777  1.0201 -0.1113 -1.5828
  4774G12c C02088710  11.841   7.731   8.148  0.6378 -0.3061 -1.1712
  4774G12c C02188711  11.791   7.610   8.110  1.2851 -0.0736  1.7111
  4774G12c C01L88712  12.126   7.760   7.897  0.4972 -1.6273  0.3887
  4774G12c O00788713  12.122   7.549   7.765 -2.2026  0.2095  0.5940
  4774G12c C02288714  11.863   7.528   8.022  0.3634  0.7054 -0.3416
  4774G12c C02388715  11.740   7.511   8.202 -1.1650 -0.0099 -0.5280
  4774G12c C00G88716  11.763   7.289   8.389  0.1656  0.6231 -1.5550
  4774G12c C00E88717  11.753   7.048   8.460 -0.2601  1.4664 -0.6642
  4774G12c O00A88718  11.783   6.937   8.548  1.1475 -0.4471 -0.1341
  4774G12c C02488719  11.894   6.968   8.632 -1.6133 -0.3039  1.6249
  4774G12c H00V88720  11.976   7.011   8.575  0.6360 -6.8663 -0.6465
  4774G12c H00U88721  11.931   6.866   8.643  2.2525 -0.1187 -6.1304
  4774G12c H00T88722  11.894   7.021   8.727  5.8812  2.3850  0.4605
  4784G12c C00D88723  10.074  11.851   8.341 -0.7990  1.4234  1.0280
  4784G12c O00B88724  10.040  11.712   8.328 -0.4839 -0.3290 -1.0753
  4784G12c C02588725   9.960  11.672   8.426 -0.4363 -0.3114  0.1638
  4784G12c C02688726   9.813  11.701   8.400  0.0962  0.2996 -0.3951
  4784G12c H00Y88727   9.752  11.704   8.490 -2.1697 -0.2771 -1.8530
  4784G12c H00X88728   9.791  11.615   8.336 -4.1776 -0.9408  2.5132
  4784G12c O00C88729   9.761  11.796   8.320  0.9992 -1.2745  0.6266
  4784G12c H00W88730   9.670  11.777   8.306  0.2019  2.8667 -0.4905
  4784G12c C02788731  10.010  11.595   8.517 -0.7158  1.5677 -0.3157
  4784G12c O00D88732  10.142  11.593   8.503 -0.6064 -1.0238 -0.1729
  4784G12c H00Z88733  10.179  11.591   8.416  2.3466 -1.3153  1.0185
  4784G12c C02888734   9.932  11.523   8.619  0.0052 -0.4237 -1.1304
  4784G12c C02988735   9.914  11.386   8.618 -0.3043  0.9671 -1.1933
  4784G12c H01088736   9.961  11.332   8.536 -7.1329  0.4022 -5.1009
  4784G12c C02T88737   9.842  11.331   8.727  0.3513 -0.4470  0.2442
  4784G12c H01O88738   9.813  11.228   8.712 -1.2206  0.0382 -0.1261
  4784G12c C02S88739   9.779  11.402   8.828 -0.7240  1.3607  0.1453
  4784G12c O00J88740   9.694  11.345   8.914 -0.2099 -1.9308 -0.2552
  4784G12c H01P88741   9.638  11.385   8.979 -0.6413 -2.8618 -0.0429
  4784G12c C02R88742   9.808  11.542   8.828 -0.0976 -2.8751 -0.6753
  4784G12c O00I88743   9.752  11.626   8.920  0.0795 -1.0227 -0.3594
  4784G12c C02Q88744   9.657  11.712   8.865  1.9900  0.2104  1.7148
  4784G12c H01N88745   9.695  11.756   8.773  2.2143 -3.4431 -0.0194
  4784G12c H01R88746   9.620  11.754   8.959  4.6768  0.3551  2.7507
  4784G12c H01Q88747   9.604  11.633   8.813  0.4323  3.4602 -1.8639
  4784G12c C02A88748   9.877  11.602   8.724 -0.9881  0.1827 -0.2873
  4784G12c H01188749   9.883  11.709   8.719 -5.5380  0.8743  4.3557
  4784G12c C00C88750  10.105  11.907   8.462 -1.1950  0.4098 -1.3171
  4784G12c H01288751  10.096  11.838   8.545 -6.3554 -0.7530 -2.6499
  4784G12c C00B88752  10.097  12.045   8.485  0.9998  0.3120 -0.3498
  4784G12c C00A88753  10.067  12.119   8.600  0.4373 -1.9403  0.8770
  4784G12c C00988754   9.941  12.126   8.677 -1.8963 -0.8412 -0.1502
  4784G12c C00888755   9.840  12.030   8.697 -0.2909 -0.7754  0.3660
  4784G12c H01388756   9.870  11.943   8.641 -3.0094 -3.6249  3.0960
  4784G12c C00788757   9.729  12.080   8.786  0.6795  0.8715  0.1189
  4784G12c H01488758   9.637  12.028   8.809  0.9083  1.1927  1.8740
  4784G12c C00688759   9.709  12.216   8.831  0.0891  0.6896 -0.4956
  4784G12c C00588760   9.813  12.299   8.805  0.2160 -1.5209  0.5559
  4784G12c C00488761   9.809  12.440   8.814 -0.8130  0.3346 -0.0050
  4784G12c C00388762   9.924  12.518   8.778 -0.0051  0.9093 -0.2416
  4784G12c C00288763   9.915  12.659   8.805  2.1542 -1.4698 -0.5101
  4784G12c C00188764   9.982  12.785   8.740 -0.8860  1.1699  0.7661
  4784G12c C00M88765  10.031  12.796   8.605 -1.7344 -1.8963  0.6952
  4784G12c C00L88766  10.079  12.684   8.553  0.4638  1.6265 -1.3474
  4784G12c C00R88767  10.122  12.681   8.413 -1.5847  0.1679 -0.4714
  4784G12c C00Q88768  10.096  12.783   8.301 -1.0215 -1.4366 -0.2882
  4784G12c C00V88769  10.115  12.730   8.167 -0.9135  1.0082 -0.6020
  4784G12c C00U88770  10.126  12.579   8.156  0.1398 -1.1008  0.4926
  4784G12c C00T88771  10.129  12.494   8.268  0.5949  0.0286 -0.7844
  4784G12c C01688772  10.129  12.350   8.256 -0.9131 -0.2724  0.6053
  4784G12c C01588773  10.120  12.291   8.125  0.5087 -0.6386 -0.4481
  4784G12c C01088774  10.127  12.378   8.008  0.6069 -1.7433 -0.9358
  4784G12c C01188775  10.117  12.329   7.883  0.0140  0.1911  0.4253
  4784G12c H00588776  10.137  12.387   7.794  3.2496  1.3876  1.8386
  4784G12c C01288777  10.096  12.192   7.856 -0.4044  0.3095  2.0324
  4784G12c C01788778  10.092  12.136   7.719  0.9951 -0.8684  0.9854
  4784G12c O00288779  10.152  12.234   7.632  0.8002 -0.3575  0.6645
  4784G12c H00488780  10.216  12.192   7.576 -2.5258 -4.3734 -0.3720
  4784G12c C01888781  10.022  12.024   7.682 -0.4460 -0.8222 -0.2230
  4784G12c O00188782   9.991  11.924   7.771  1.1223  0.3063  1.6954
  4784G12c H00388783   9.941  11.870   7.712  4.1290 -1.5645  0.8118
  4784G12c C01988784   9.984  11.972   7.540 -1.1353 -0.2753  0.5392
  4784G12c H00288785   9.876  11.991   7.543 -1.2845 -1.1443  0.8687
  4784G12c H00188786  10.044  12.026   7.467 -2.6220  0.6730 -0.0265
  4784G12c O00088787  10.026  11.843   7.525 -0.5112 -0.8326  0.2696
  4784G12c C01A88788  10.021  11.799   7.385 -1.2772  1.1524 -0.9478
  4784G12c C02K88789  10.127  11.722   7.347  0.1830 -1.5520 -0.3817
  4784G12c O00G88790  10.217  11.665   7.429 -0.3032  0.3242 -0.2774
  4784G12c C02M88791  10.186  11.539   7.506  0.3322 -0.6170 -0.2454
  4784G12c H01G88792  10.192  11.453   7.440 -3.7009 -1.5087  0.4667
  4784G12c H01F88793  10.090  11.494   7.528  1.6948 -3.8578 -0.7541
  4784G12c H01E88794  10.268  11.508   7.571 -2.9850  2.3456  5.7826
  4784G12c C02J88795  10.158  11.675   7.219 -0.9623  0.6514  1.6411
  4784G12c H01H88796  10.259  11.643   7.199 -1.4686  0.6297 -1.0437
  4784G12c C02I88797  10.049  11.704   7.111  0.7621  0.9607 -0.5199
  4784G12c C02N88798  10.069  11.675   6.972  0.2781  0.8255 -0.1388
  4784G12c H01M88799  10.038  11.572   6.965  4.5508 -0.9791  4.5922
  4784G12c C02O88800  10.071  11.762   6.876 -1.1145 -0.7055  0.0799
  4784G12c H01L88801  10.057  11.749   6.770 -4.5852  1.8235  0.1357
  4784G12c C02P88802  10.086  11.910   6.870  0.1299  0.5107 -1.7356
  4784G12c H01K88803  10.028  11.970   6.799 -2.1330  0.4306 -0.0371
  4784G12c H01J88804  10.077  11.956   6.969  5.1857 -1.6313 -0.1299
  4784G12c O00H88805  10.225  11.945   6.852 -0.1953 -0.7633 -0.5089
  4784G12c H01I88806  10.261  11.879   6.796  2.2696  1.3132 -1.4842
  4784G12c C02H88807   9.931  11.773   7.166 -0.2357 -0.1556 -0.6876
  4784G12c H01C88808   9.850  11.820   7.113  0.0735  0.1720 -0.8721
  4784G12c C02L88809   9.915  11.809   7.301 -0.1248  0.1654  0.3214
  4784G12c H01D88810   9.839  11.885   7.314  0.7423  1.7293 -3.2455
  4784G12c C01388811  10.110  12.101   7.974  0.7560 -1.5116 -0.2147
  4784G12c H00088812  10.141  12.000   7.949 -1.7049 -1.8162 -2.1748
  4784G12c C01488813  10.122  12.149   8.113 -1.1272 -0.1944 -0.1752
  4784G12c C00F88814  10.106  12.072   8.236  0.1072  1.3345  0.0056
  4784G12c C00H88815  10.127  12.269   8.370  1.7396  0.9697  1.3952
  4784G12c C00I88816  10.121  12.337   8.489 -0.2617 -0.7911 -2.2722
  4784G12c C00J88817  10.129  12.474   8.495  0.9388 -0.1119 -0.8491
  4784G12c C00Z88818  10.142  12.525   8.025  2.7677  0.7306 -2.2924
  4784G12c C00Y88819  10.153  12.625   7.926 -0.3112  0.4562  0.0221
  4784G12c H00688820  10.144  12.587   7.826  2.2632  0.3075 -0.1873
  4784G12c C00X88821  10.149  12.761   7.935  0.5914  0.6938 -0.1737
  4784G12c O00388822  10.135  12.836   7.832  0.4813 -0.0693 -0.4284
  4784G12c C01B88823  10.005  12.882   7.798  0.0960  0.3883 -1.4353
  4784G12c H00988824  10.030  12.983   7.765 -7.1555  1.3211 -5.1453
  4784G12c H00888825   9.936  12.886   7.881 -0.0570 -0.6505 -1.4982
  4784G12c H00788826   9.981  12.826   7.707 -5.5082 -3.3178  2.0373
  4784G12c C00W88827  10.128  12.819   8.055  1.0147 -0.2182 -1.2104
  4784G12c O00488828  10.106  12.956   8.062 -0.0972 -0.0144 -0.4849
  4784G12c C01C88829  10.067  13.008   8.184  0.4280  0.0994  0.5002
  4784G12c H00A88830  10.042  13.110   8.209  0.3413 -0.7496  4.1825
  4784G12c C00P88831  10.051  12.923   8.302  0.1930  1.0959  1.0696
  4784G12c C00O88832   9.981  12.976   8.406  1.3212 -0.5299 -0.5926
  4784G12c C01D88833   9.880  13.078   8.384  0.4357  1.1497 -0.3219
  4784G12c H00S88834   9.884  13.131   8.290 -1.3920 -4.8340 -3.9952
  4784G12c C01E88835   9.755  13.069   8.447 -0.3351 -2.4422 -0.4490
  4784G12c O00888836   9.661  13.150   8.394  0.7452  0.3748  0.8185
  4784G12c C01V88837   9.604  13.065   8.293 -1.1282  0.4214 -0.2128
  4784G12c C01Z88838   9.560  13.131   8.171  0.6912  0.5812 -0.5176
  4784G12c H00R88839   9.461  13.100   8.135 -0.9131  0.1597  3.8887
  4784G12c H00Q88840   9.550  13.233   8.208 -2.6958  0.3074 -0.4604
  4784G12c O00988841   9.659  13.162   8.076  0.4641  0.8777  0.0274
  4784G12c H00P88842   9.699  13.085   8.039 -3.9770  0.1631 -3.7302
  4784G12c C01W88843   9.562  12.934   8.308 -1.2457  0.7090 -0.5515
  4784G12c H00O88844   9.583  12.890   8.404  4.2558 -0.1995 -2.0134
  4784G12c C01X88845   9.506  12.826   8.224  1.2389 -1.8473  0.2065
  4784G12c H00N88846   9.413  12.814   8.279  0.7411  4.0268  0.9392
  4784G12c H00M88847   9.489  12.893   8.141  4.7100  0.9605  1.6487
  4784G12c C01Y88848   9.611  12.714   8.220  0.1668  0.9580  1.6013
  4784G12c C02D88849   9.672  12.681   8.101  1.8395  0.4059  1.3332
  4784G12c H01988850   9.658  12.757   8.025 11.4982  3.2995  1.8321
  4784G12c C02C88851   9.741  12.567   8.087 -2.1169 -0.9013  0.5996
  4784G12c H01A88852   9.769  12.518   7.995  5.3994 -0.6787  2.3857
  4784G12c C02B88853   9.748  12.474   8.191  0.7458  0.5229 -0.1274
  4784G12c O00E88854   9.789  12.341   8.173  1.2417  0.8139 -0.1056
  4784G12c H01B88855   9.858  12.301   8.224  0.2108  1.4498  1.8062
  4784G12c C02F88856   9.700  12.502   8.319  0.4169 -0.8616 -1.1805
  4784G12c O00F88857   9.712  12.407   8.414 -1.6659 -2.1870 -1.2395
  4784G12c C02G88858   9.585  12.369   8.478 -0.5916  0.2967 -0.7551
  4784G12c H01788859   9.574  12.290   8.553  0.8471  3.3600  2.8276
  4784G12c H01688860   9.497  12.343   8.419  1.3794 -0.8353 -3.2731
  4784G12c H01588861   9.526  12.455   8.510 -1.7329 -1.2732  1.5581
  4784G12c C02E88862   9.648  12.630   8.341  1.4991  0.6968 -0.1884
  4784G12c H01888863   9.610  12.630   8.442 -1.9868 -8.1114 -0.9868
  4784G12c C01F88864   9.746  13.000   8.563  0.1732 -1.3930 -1.2038
  4784G12c C01G88865   9.637  12.987   8.665 -0.3877  0.3848 -1.4390
  4784G12c H00L88866   9.545  13.043   8.654  0.7740  2.9609  1.3112
  4784G12c C01H88867   9.633  12.893   8.772  0.0623  1.6866  0.9430
  4784G12c H00B88868   9.538  12.885   8.823  1.6991  4.7876  4.7339
  4784G12c C01I88869   9.760  12.845   8.808  0.6732  1.7342  0.3711
  4784G12c C01U88870   9.860  12.925   8.614 -2.2436  0.5990 -0.6056
  4784G12c C00S88871  10.171  12.557   8.386 -0.3378  0.0727 -0.7631
  4784G12c C00K88872  10.074  12.543   8.602 -0.1301 -0.5310  0.6062
  4784G12c C00N88873   9.974  12.903   8.536  0.1509 -0.1817  1.2328
  4784G12c C00088874   9.873  12.883   8.750  0.3315 -0.0644  0.7430
  4784G12c C01J88875   9.795  12.712   8.864  0.3175  0.0651 -2.2024
  4784G12c C01K88876   9.676  12.627   8.903 -0.0472  0.4029 -0.4208
  4784G12c C01P88877   9.566  12.661   8.983  0.3423 -0.6720  0.3023
  4784G12c C01Q88878   9.583  12.777   9.063  0.7296 -0.1404 -1.0220
  4784G12c H00G88879   9.678  12.825   9.082 -0.7345  2.5196 -0.1256
  4784G12c C01R88880   9.468  12.827   9.122 -1.7210  0.4657 -1.3989
  4784G12c H00F88881   9.381  12.783   9.076  0.4165 -1.5538 -3.7075
  4784G12c C01S88882   9.474  12.927   9.249 -1.2457  1.7839 -0.7368
  4784G12c H00E88883   9.409  12.871   9.315  2.6488 -2.5327 -0.2993
  4784G12c H00D88884   9.560  12.898   9.309  0.2073  0.2272 -3.4789
  4784G12c O00588885   9.416  13.058   9.258 -0.2494  0.6258 -0.2181
  4784G12c H00C88886   9.402  13.083   9.348  0.2496 -2.4076  0.7366
  4784G12c C01O88887   9.455  12.577   8.988  1.7034 -0.2985  0.5097
  4784G12c H00H88888   9.369  12.575   9.054 -0.3216 -0.5757 -2.0155
  4784G12c C01N88889   9.481  12.440   8.967  0.8543 -0.2598 -0.6241
  4784G12c O00688890   9.384  12.344   8.973  0.3321  0.9189  0.6531
  4784G12c C01T88891   9.396  12.288   9.103 -0.0885  1.1861  2.1041
  4784G12c H00K88892   9.503  12.277   9.119  1.4327 -3.5742 -7.3733
  4784G12c H00J88893   9.356  12.333   9.193 -0.9089  0.7358  1.9708
  4784G12c H00I88894   9.337  12.198   9.088 -0.6457  1.6716  1.3363
  4784G12c C01M88895   9.593  12.394   8.922 -1.3116  0.7549  0.6021
  4784G12c C02088896  10.035  12.458   8.708 -1.0964 -1.2579 -0.7919
  4784G12c C02188897  10.045  12.319   8.726  0.2857 -0.9867  2.6945
  4784G12c C01L88898   9.697  12.491   8.877  0.4204 -0.8386  1.0824
  4784G12c O00788899   9.599  12.256   8.893  0.9035  0.7346  0.6405
  4784G12c C02288900   9.935  12.245   8.757  1.4192 -0.1790 -0.3192
  4784G12c C02388901  10.099  12.251   8.598 -2.3005 -0.4297  0.9788
  4784G12c C00G88902  10.122  12.126   8.368  0.0763  1.2462 -1.0587
  4784G12c C00E88903  10.099  11.930   8.228  0.0417 -1.2588  1.1314
  4784G12c O00A88904  10.095  11.845   8.121 -1.0109 -0.6924  0.5902
  4784G12c C02488905  10.223  11.819   8.100 -1.1197  1.2881 -0.3776
  4784G12c H00V88906  10.287  11.906   8.118  0.9146 -0.8063  3.0671
  4784G12c H00U88907  10.258  11.783   8.003 -3.4644  1.4211 -1.2843
  4784G12c H00T88908  10.253  11.730   8.156  1.6273 -1.0427 -5.2319
  4794G12c C00D88909   3.441   5.837   5.591  0.2163 -1.0595  2.1732
  4794G12c O00B88910   3.471   5.714   5.580  1.7779 -0.3430  0.2400
  4794G12c C02588911   3.383   5.614   5.547  1.0666 -0.0377 -1.4419
  4794G12c C02688912   3.324   5.551   5.680  2.4124  1.5199  2.0709
  4794G12c H00Y88913   3.258   5.637   5.682 -2.2213 -1.8446  0.8513
  4794G12c H00X88914   3.407   5.584   5.743  3.0258 -0.0387  2.1072
  4794G12c O00C88915   3.293   5.411   5.696 -0.0325  0.7807 -0.4680
  4794G12c H00W88916   3.218   5.386   5.748 -2.1847  8.6272  0.8080
  4794G12c C02788917   3.351   5.563   5.428 -1.0552 -0.5735  1.4373
  4794G12c O00D88918   3.259   5.460   5.419  0.4303 -0.5710 -0.7731
  4794G12c H00Z88919   3.288   5.413   5.495 -1.3954  2.0570  1.6115
  4794G12c C02888920   3.385   5.633   5.296  0.9006  0.9835 -0.6490
  4794G12c C02988921   3.504   5.720   5.281 -0.7611  0.1378  1.1112
  4794G12c H01088922   3.569   5.719   5.367 -1.5642 -9.9200  2.2726
  4794G12c C02T88923   3.519   5.786   5.162  0.9601 -1.0310 -0.7769
  4794G12c H01O88924   3.578   5.876   5.175 -2.6032  1.4528 -1.2102
  4794G12c C02S88925   3.434   5.764   5.061 -1.8669  1.1590  0.6731
  4794G12c O00J88926   3.448   5.848   4.968 -0.0410  0.3921 -0.2090
  4794G12c H01P88927   3.375   5.819   4.916 -2.9030  7.6150 -0.7862
  4794G12c C02R88928   3.331   5.668   5.062  0.8565  0.2401  0.7496
  4794G12c O00I88929   3.247   5.664   4.961 -0.3615 -0.6318  0.0089
  4794G12c C02Q88930   3.299   5.561   4.874  0.7911  0.9782 -2.4627
  4794G12c H01N88931   3.226   5.605   4.805 -1.9526 -3.9662 -2.8871
  4794G12c H01R88932   3.280   5.465   4.920 -6.1861  3.4747  0.5725
  4794G12c H01Q88933   3.403   5.540   4.849  0.8166 -4.5668  1.5494
  4794G12c C02A88934   3.318   5.589   5.180 -1.7415  0.2510 -0.7929
  4794G12c H01188935   3.265   5.497   5.199  1.9744 -2.3271 -2.3895
  4794G12c C00C88936   3.334   5.896   5.524  0.5569  0.8481  2.1467
  4794G12c H01288937   3.295   5.836   5.443  4.0882 -3.0193  3.1104
  4794G12c C00B88938   3.334   6.035   5.501 -0.5709 -1.2576  0.1012
  4794G12c C00A88939   3.240   6.113   5.442 -0.4808 -0.3578  0.3600
  4794G12c C00988940   3.159   6.082   5.334 -1.9923 -1.1233 -0.1979
  4794G12c C00888941   3.138   5.963   5.242  0.6193  0.6890 -0.2645
  4794G12c H01388942   3.197   5.873   5.231 -0.5749  0.1997 -3.1698
  4794G12c C00788943   3.082   5.964   5.118 -0.7786 -1.2707  1.3960
  4794G12c H01488944   3.068   5.877   5.055  1.9635 -2.3473  2.2160
  4794G12c C00688945   3.054   6.100   5.057  0.9447  0.5622  0.4924
  4794G12c C00588946   3.071   6.207   5.147 -0.0224 -0.5871 -1.3770
  4794G12c C00488947   3.094   6.340   5.090  0.8197  0.3146  0.9519
  4794G12c C00388948   3.125   6.449   5.169 -1.2819 -1.9613 -1.4339
  4794G12c C00288949   3.116   6.584   5.110 -0.1153 -1.6155 -0.8628
  4794G12c C00188950   3.165   6.697   5.163  0.1336 -0.5996 -0.5818
  4794G12c C00M88951   3.292   6.700   5.243  1.3699  2.5110  0.5260
  4794G12c C00L88952   3.315   6.646   5.374  0.6007  1.2743 -1.2575
  4794G12c C00R88953   3.439   6.657   5.448 -0.9915  0.7419 -0.5654
  4794G12c C00Q88954   3.558   6.716   5.420 -0.0137 -0.3366 -1.3394
  4794G12c C00V88955   3.666   6.666   5.503 -0.6235  0.4656  0.5580
  4794G12c C00U88956   3.668   6.536   5.557  1.4031  1.2499  0.6726
  4794G12c C00T88957   3.549   6.472   5.557 -0.1956 -0.4373 -1.3929
  4794G12c C01688958   3.555   6.337   5.594  2.7430  0.6838 -0.1261
  4794G12c C01588959   3.666   6.262   5.625 -0.9451 -1.1135  0.0190
  4794G12c C01088960   3.788   6.342   5.644 -0.3941  0.6313 -0.1934
  4794G12c C01188961   3.905   6.277   5.680  0.1080 -1.0231 -0.1044
  4794G12c H00588962   4.006   6.316   5.686  0.2453  1.1383 -9.5124
  4794G12c C01288963   3.911   6.145   5.732 -0.7513  1.3530 -0.1319
  4794G12c C01788964   4.021   6.067   5.760 -0.3086 -0.1302 -0.3935
  4794G12c O00288965   4.151   6.113   5.743  0.3919  0.4719  0.9474
  4794G12c H00488966   4.168   6.176   5.674  6.0447  2.2042  3.6406
  4794G12c C01888967   4.015   5.966   5.844  0.2253 -0.3945 -0.1297
  4794G12c O00188968   3.915   5.933   5.941 -0.5643 -2.4773  1.2083
  4794G12c H00388969   3.961   5.862   5.983 -4.2632 -4.6774  1.7683
  4794G12c C01988970   4.131   5.868   5.860  0.0460 -0.7383  1.0530
  4794G12c H00288971   4.151   5.834   5.759 -0.5662  4.2084 -0.8452
  4794G12c H00188972   4.224   5.912   5.897 -0.7977 -4.3226  8.3384
  4794G12c O00088973   4.084   5.775   5.964  0.7690  0.0073  1.4337
  4794G12c C01A88974   4.110   5.645   5.932 -1.1158 -0.4115  0.1749
  4794G12c C02K88975   4.054   5.578   5.825 -0.8229 -0.4693 -0.1534
  4794G12c O00G88976   3.958   5.654   5.764  0.2562 -0.2376 -0.2932
  4794G12c C02M88977   3.972   5.698   5.630 -0.2241  1.1942  1.9646
  4794G12c H01G88978   3.943   5.802   5.643  0.2005  1.2848  2.1703
  4794G12c H01F88979   3.914   5.663   5.544 -2.6609 -2.0095  4.7604
  4794G12c H01E88980   4.072   5.719   5.591 -0.5835 -2.7622 -1.5334
  4794G12c C02J88981   4.099   5.446   5.791  0.2876 -0.6116 -0.5777
  4794G12c H01H88982   4.077   5.415   5.690 -0.7064  0.5881 -0.7404
  4794G12c C02I88983   4.190   5.377   5.876  0.6642  1.3968 -1.4527
  4794G12c C02N88984   4.265   5.277   5.815  0.4705  0.3121  0.3896
  4794G12c H01M88985   4.255   5.174   5.845 -1.4573 -0.9698 -4.0742
  4794G12c C02O88986   4.317   5.308   5.687 -1.0646 -0.1513 -0.3783
  4794G12c H01L88987   4.304   5.404   5.639 -1.8924  1.0129  2.1304
  4794G12c C02P88988   4.360   5.197   5.585  0.3046 -0.0719  0.2974
  4794G12c H01K88989   4.397   5.106   5.633 -4.1493 -0.4656  3.2281
  4794G12c H01J88990   4.283   5.167   5.515  0.9394  3.6047 -2.1482
  4794G12c O00H88991   4.455   5.252   5.495 -0.5756  0.5413  0.2887
  4794G12c H01I88992   4.529   5.213   5.539 -2.7651 -2.7702  1.2416
  4794G12c C02H88993   4.232   5.451   5.990  0.1502  0.0136  1.7727
  4794G12c H01C88994   4.323   5.420   6.039  0.9925 -1.9981 -0.8921
  4794G12c C02L88995   4.215   5.588   6.011 -0.9048 -0.1363 -0.0784
  4794G12c H01D88996   4.255   5.613   6.108 -3.5910 -2.6795  1.7549
  4794G12c C01388997   3.789   6.083   5.717  1.1977 -0.2553 -0.7991
  4794G12c H00088998   3.800   5.985   5.760 -6.3664  0.0827  2.6133
  4794G12c C01488999   3.664   6.134   5.655 -0.2693 -1.2312 -1.8697
  4794G12c C00F89000   3.559   6.055   5.626  0.2459 -0.4907 -1.0580
  4794G12c C00H89001   3.443   6.267   5.567  0.8698  0.8850  0.0956
  4794G12c C00I89002   3.326   6.334   5.509 -1.4041 -1.1614 -1.0985
  4794G12c C00J89003   3.328   6.476   5.495  1.0063 -0.0987 -0.7512
  4794G12c C00Z89004   3.785   6.477   5.609 -1.3471 -0.5404  0.7913
  4794G12c C00Y89005   3.906   6.560   5.607  0.4705  0.9317  0.2708
  4794G12c H00689006   3.987   6.503   5.652 -5.4656 -4.7461  4.7275
  4794G12c C00X89007   3.911   6.692   5.568 -2.7991  0.6418 -0.6502
  4794G12c O00389008   4.028   6.759   5.584  0.0391  0.2646  1.0139
  4794G12c C01B89009   4.096   6.738   5.701 -1.9677 -2.5189 -1.7528
  4794G12c H00989010   4.139   6.644   5.736 -0.8742 -2.2482 -2.3476
  4794G12c H00889011   4.174   6.806   5.736  1.5570 -5.0166 -4.3763
  4794G12c H00789012   4.005   6.764   5.755  1.2136  2.3561  1.6565
  4794G12c C00W89013   3.800   6.739   5.502 -1.2371 -2.1084  1.6443
  4794G12c O00489014   3.811   6.859   5.434 -0.2939 -0.4321  0.1073
  4794G12c C01C89015   3.745   6.872   5.314  1.1270  2.2120  0.9051
  4794G12c H00A89016   3.809   6.875   5.227  4.3572  1.7317  3.1911
  4794G12c C00P89017   3.598   6.801   5.309 -0.7932 -0.4808 -0.9771
  4794G12c C00O89018   3.511   6.824   5.201 -1.2799  1.4819  1.1736
  4794G12c C01D89019   3.566   6.909   5.099  0.2683 -0.3958  0.7678
  4794G12c H00S89020   3.649   6.975   5.120 -0.4620 -0.9274  5.9686
  4794G12c C01E89021   3.526   6.910   4.971  0.8384 -0.3816  0.9482
  4794G12c O00889022   3.611   6.972   4.872  2.0130 -0.4361 -0.2604
  4794G12c C01V89023   3.701   6.882   4.790  0.4391 -0.3500  0.0225
  4794G12c C01Z89024   3.664   6.912   4.649 -0.5575  0.1161 -0.3161
  4794G12c H00R89025   3.697   6.815   4.611 -0.1366  1.3905 -3.3273
  4794G12c H00Q89026   3.570   6.951   4.611 -1.5575 -1.5414  0.3873
  4794G12c O00989027   3.727   7.042   4.630 -0.0414 -1.1574  0.6405
  4794G12c H00P89028   3.749   7.044   4.722 -3.3379 -4.6886  1.6506
  4794G12c C01W89029   3.786   6.805   4.837 -1.9624  0.4880  0.0533
  4794G12c H00O89030   3.810   6.827   4.940 -3.0136 -0.1824  0.4536
  4794G12c C01X89031   3.868   6.688   4.761 -0.3712 -0.3515 -0.3646
  4794G12c H00N89032   3.862   6.702   4.654 -3.5648 -1.3299 -0.3827
  4794G12c H00M89033   3.974   6.702   4.780 -0.7016  0.7909  0.6876
  4794G12c C01Y89034   3.821   6.550   4.785 -0.5030  0.8469 -0.3250
  4794G12c C02D89035   3.727   6.471   4.691  1.3011 -0.0937  0.0898
  4794G12c H01989036   3.706   6.510   4.592 -2.2428 -0.6400  0.5434
  4794G12c C02C89037   3.684   6.342   4.725  1.1883  0.4615  0.3996
  4794G12c H01A89038   3.631   6.290   4.647  3.4259 -2.3535  0.6838
  4794G12c C02B89039   3.708   6.297   4.846  0.2385  1.4884  0.8139
  4794G12c O00E89040   3.673   6.167   4.882  0.0484 -0.0932 -0.3917
  4794G12c H01B89041   3.600   6.162   4.823 -3.2858  2.2338  3.2354
  4794G12c C02F89042   3.778   6.377   4.940 -0.9971 -0.8518  0.0060
  4794G12c O00F89043   3.804   6.310   5.064  0.4560  0.1192 -1.1949
  4794G12c C02G89044   3.773   6.374   5.202  1.1221 -1.8777  0.8774
  4794G12c H01789045   3.811   6.289   5.258 -0.9715 -2.6037  1.2359
  4794G12c H01689046   3.822   6.468   5.225  6.0527 -4.6169  2.1618
  4794G12c H01589047   3.666   6.392   5.194  1.1034 -3.2611 -3.7371
  4794G12c C02E89048   3.822   6.505   4.930 -0.8968 -0.2648  0.3238
  4794G12c H01889049   3.830   6.547   5.030  1.8222 -4.0722  1.8307
  4794G12c C01F89050   3.394   6.865   4.956  0.1092 -0.5669 -0.3372
  4794G12c C01G89051   3.327   6.857   4.817  0.1789 -0.3697  1.0356
  4794G12c H00L89052   3.378   6.901   4.733 -0.4839  0.6829  1.1790
  4794G12c C01H89053   3.210   6.765   4.802  1.7801 -1.0067  0.5205
  4794G12c H00B89054   3.165   6.747   4.706  3.9475  4.9014 -1.8480
  4794G12c C01I89055   3.149   6.710   4.925  1.8595 -0.0341 -0.2510
  4794G12c C01U89056   3.313   6.822   5.055  0.0070 -1.6042  1.7247
  4794G12c C00S89057   3.442   6.533   5.497  0.5275  1.2774 -0.4218
  4794G12c C00K89058   3.251   6.516   5.389  0.4497  0.8820  0.1061
  4794G12c C00N89059   3.386   6.782   5.169  0.7256 -0.1068  0.0799
  4794G12c C00089060   3.185   6.781   5.048 -0.3224 -1.4011  1.5267
  4794G12c C01J89061   3.109   6.579   4.972  0.7377  1.2434  0.0615
  4794G12c C01K89062   3.045   6.482   4.897  1.7098  0.3993  0.7631
  4794G12c C01P89063   2.989   6.490   4.763 -0.2934  1.2732  1.4378
  4794G12c C01Q89064   2.914   6.594   4.706  1.0662  0.1500 -0.2412
  4794G12c H00G89065   2.963   6.644   4.624  0.7335 -3.2971 -2.6701
  4794G12c C01R89066   2.782   6.614   4.711 -0.4447  0.0744  0.8716
  4794G12c H00F89067   2.721   6.688   4.661  3.6155  3.7179  1.0168
  4794G12c C01S89068   2.701   6.570   4.841  0.7125 -0.2590  0.6731
  4794G12c H00E89069   2.596   6.585   4.818  0.4687  1.6759  2.7866
  4794G12c H00D89070   2.713   6.479   4.899 -2.5453 -0.5019  1.0345
  4794G12c O00589071   2.691   6.656   4.941  0.5381  1.8231 -1.1710
  4794G12c H00C89072   2.761   6.719   4.934  2.7168 -0.5849 -1.6485
  4794G12c C01O89073   2.955   6.366   4.688  0.2750  1.2090 -0.7488
  4794G12c H00H89074   2.908   6.370   4.591 -5.5120 -2.6977  1.5945
  4794G12c C01N89075   2.997   6.252   4.747  0.3221 -0.0468  1.8666
  4794G12c O00689076   2.969   6.140   4.670  0.0272  0.0418  0.6793
  4794G12c C01T89077   3.091   6.070   4.664  0.3504 -0.0053  0.0482
  4794G12c H00K89078   3.076   5.971   4.621  5.7874  1.7980 -6.8718
  4794G12c H00J89079   3.113   6.031   4.764 -2.3982 -0.4189  0.5282
  4794G12c H00I89080   3.171   6.132   4.622  3.9425 -0.1552  6.0783
  4794G12c C01M89081   3.018   6.236   4.886 -0.1556 -1.6391  0.5671
  4794G12c C02089082   3.159   6.425   5.312  1.9705  0.9337  1.5457
  4794G12c C02189083   3.119   6.300   5.371 -1.1472  0.1570  1.2000
  4794G12c C01L89084   3.043   6.361   4.970 -1.0118  0.8128  0.1044
  4794G12c O00789085   2.999   6.124   4.937  1.5586 -0.2990  0.0013
  4794G12c C02289086   3.085   6.203   5.294 -0.3244  0.1753  0.4776
  4794G12c C02389087   3.218   6.252   5.459  0.7663 -0.5253  0.3360
  4794G12c C00G89088   3.439   6.116   5.573  0.3536 -0.7263  1.6744
  4794G12c C00E89089   3.560   5.910   5.629  0.4660 -0.8336 -0.3225
  4794G12c O00A89090   3.647   5.853   5.702 -0.8479 -0.2794  0.3254
  4794G12c C02489091   3.611   5.794   5.828  0.0251 -1.1795 -0.2382
  4794G12c H00V89092   3.505   5.822   5.835  2.1607  8.3988  2.3429
  4794G12c H00U89093   3.700   5.817   5.887  0.8205 -1.7154 -1.2360
  4794G12c H00T89094   3.640   5.695   5.794 -3.4524 -4.4553  5.5555
  4804G12c C00D89095  12.669   2.645   4.990 -0.8836 -0.0487 -0.7012
  4804G12c O00B89096  12.690   2.559   4.890 -1.0221  0.4278 -0.5628
  4804G12c C02589097  12.800   2.472   4.935  1.1376 -1.4030 -0.1566
  4804G12c C02689098  12.760   2.334   4.905 -0.2528 -1.4778 -0.6985
  4804G12c H00Y89099  12.665   2.322   4.852 -2.4389  0.1737  2.6911
  4804G12c H00X89100  12.750   2.312   5.011  2.8988  2.2359  0.5170
  4804G12c O00C89101  12.830   2.261   4.819  0.7849  1.3785  0.9234
  4804G12c H00W89102  12.795   2.174   4.810  0.8633  0.9867  4.0509
  4804G12c C02789103  12.923   2.505   4.994 -0.2894 -0.2125  0.2448
  4804G12c O00D89104  12.952   2.626   5.046  0.9022  1.3276  1.9999
  4804G12c H00Z89105  12.895   2.701   5.055  0.8809  1.6018 -0.1777
  4804G12c C02889106  13.035   2.405   5.018  0.6110 -1.2403  1.6986
  4804G12c C02989107  13.083   2.322   4.913  1.7033  0.9635  0.6889
  4804G12c H01089108  13.043   2.335   4.813  2.7715  4.1134  0.6094
  4804G12c C02T89109  13.185   2.244   4.939  0.4470  0.0951 -0.8301
  4804G12c H01O89110  13.227   2.159   4.888  2.6269  3.0373 -4.1667
  4804G12c C02S89111  13.264   2.242   5.062  1.3542 -0.2232  0.2221
  4804G12c O00J89112  13.363   2.151   5.074  0.4696  0.2147 -0.8048
  4804G12c H01P89113  13.423   2.181   5.140  0.3088  3.7629 -2.1562
  4804G12c C02R89114  13.193   2.288   5.169 -0.0237 -0.0429 -0.0078
  4804G12c O00I89115  13.268   2.262   5.285  1.1905  1.3330  0.5293
  4804G12c C02Q89116  13.354   2.362   5.307 -0.9700 -1.1308 -1.7153
  4804G12c H01N89117  13.397   2.352   5.407 -2.8660  3.1414 -0.3666
  4804G12c H01R89118  13.276   2.438   5.313 -0.9844 -1.1645 -1.4836
  4804G12c H01Q89119  13.408   2.346   5.213  4.4631 -1.3380  1.2348
  4804G12c C02A89120  13.107   2.398   5.137 -1.1045 -1.2758  1.4937
  4804G12c H01189121  13.076   2.482   5.198  0.8474  2.2262 -2.0465
  4804G12c C00C89122  12.659   2.783   4.953 -0.9005  1.2625  1.6473
  4804G12c H01289123  12.654   2.800   4.846 -2.0638 -0.4689  1.4177
  4804G12c C00B89124  12.660   2.904   5.040  0.6463  0.4366 -0.1048
  4804G12c C00A89125  12.701   3.039   5.002 -0.8220 -2.5020 -0.5392
  4804G12c C00989126  12.782   3.092   4.887  1.7267 -0.3530  0.9087
  4804G12c C00889127  12.807   3.022   4.774 -0.8628  0.1483 -0.9359
  4804G12c H01389128  12.780   2.918   4.777  2.5759 -1.0496 -5.3159
  4804G12c C00789129  12.903   3.104   4.675  1.3802 -0.3938 -1.5182
  4804G12c H01489130  12.930   3.081   4.573  3.2840  0.8144 -1.3214
  4804G12c C00689131  12.976   3.228   4.712 -1.2394  1.2239  1.3853
  4804G12c C00589132  12.934   3.270   4.840 -1.5887 -0.1541 -0.8835
  4804G12c C00489133  13.004   3.377   4.912 -0.5533  0.7005  1.0171
  4804G12c C00389134  12.962   3.400   5.040 -0.5105  0.2932 -0.4042
  4804G12c C00289135  13.052   3.486   5.115 -0.6714  1.5179  0.0661
  4804G12c C00189136  13.048   3.531   5.252 -0.5064  0.1938  0.1655
  4804G12c C00M89137  13.016   3.464   5.375 -0.0255 -0.4227  1.4248
  4804G12c C00L89138  12.921   3.358   5.369  0.8547 -0.6896  0.2505
  4804G12c C00R89139  12.894   3.265   5.476  0.1874 -0.6581 -1.1888
  4804G12c C00Q89140  12.944   3.257   5.613 -1.1216  1.1316  1.5574
  4804G12c C00V89141  12.887   3.143   5.687  0.1060 -0.1522 -0.9792
  4804G12c C00U89142  12.807   3.037   5.622  0.2583  0.6028  1.7455
  4804G12c C00T89143  12.774   3.051   5.481 -1.2548  1.1620  0.4234
  4804G12c C01689144  12.727   2.948   5.386  0.2640 -0.7755 -0.0001
  4804G12c C01589145  12.724   2.825   5.444 -1.1573 -0.0499  0.5030
  4804G12c C01089146  12.774   2.804   5.576  1.1883  1.1105  0.8205
  4804G12c C01189147  12.743   2.680   5.640  0.4872 -0.5661  0.7793
  4804G12c H00589148  12.738   2.671   5.748 -0.5862 -3.6951  0.5248
  4804G12c C01289149  12.707   2.577   5.558 -1.5510  0.2974  0.3990
  4804G12c C01789150  12.694   2.450   5.632 -0.2476 -0.1164  1.3903
  4804G12c O00289151  12.570   2.387   5.666 -0.0567 -0.3890  2.6336
  4804G12c H00489152  12.581   2.323   5.735 -1.4910  1.6254  4.8043
  4804G12c C01889153  12.807   2.385   5.673 -0.6642  0.1424  1.3137
  4804G12c O00189154  12.926   2.462   5.675 -0.0200 -0.1820 -1.6791
  4804G12c H00389155  12.906   2.536   5.619  2.4491  2.8416  1.2470
  4804G12c C01989156  12.813   2.251   5.717  0.0767  2.0717  0.3218
  4804G12c H00289157  12.811   2.247   5.826 -0.4791 -2.3935  0.2345
  4804G12c H00189158  12.734   2.206   5.657  2.2866 -1.8134  0.1654
  4804G12c O00089159  12.926   2.161   5.693 -1.9313  0.1724 -1.3655
  4804G12c C01A89160  13.049   2.195   5.753  1.2133  0.9155  0.4102
  4804G12c C02K89161  13.096   2.154   5.892 -0.1089  0.2105  0.9933
  4804G12c O00G89162  13.007   2.080   5.952  1.1333  0.2920 -0.7654
  4804G12c C02M89163  13.063   1.954   5.990 -1.6442  0.5010  0.2498
  4804G12c H01G89164  13.141   1.969   6.064 -5.6951 -3.6355  5.8193
  4804G12c H01F89165  13.093   1.908   5.896 -0.9864  2.0038 -0.2961
  4804G12c H01E89166  12.994   1.888   6.043  0.8110  1.7980  5.3702
  4804G12c C02J89167  13.217   2.180   5.940  0.6556 -0.6649 -2.2380
  4804G12c H01H89168  13.238   2.147   6.041 -3.2111 -1.7414 -1.7130
  4804G12c C02I89169  13.320   2.256   5.871 -0.8334  0.7027 -1.3605
  4804G12c C02N89170  13.439   2.255   5.946  0.9970 -0.3924  2.1261
  4804G12c H01M89171  13.456   2.330   6.022 -3.8973  0.4484  2.5661
  4804G12c C02O89172  13.535   2.155   5.928  1.2117 -2.4111  0.8608
  4804G12c H01L89173  13.526   2.075   5.856 -2.5832 -2.9102  1.8010
  4804G12c C02P89174  13.642   2.140   6.029 -0.9185 -0.2641 -0.8933
  4804G12c H01K89175  13.599   2.062   6.093 -0.8208 -0.2744 -0.8407
  4804G12c H01J89176  13.737   2.106   5.988 -1.8063  0.9255 -4.1109
  4804G12c O00H89177  13.628   2.245   6.143  1.0465 -0.4001 -0.6992
  4804G12c H01I89178  13.683   2.213   6.213 -4.5614  1.4592  5.0522
  4804G12c C02H89179  13.282   2.291   5.727 -0.5421 -0.1356 -0.6706
  4804G12c H01C89180  13.374   2.316   5.678 -1.5250  1.4889 -1.7158
  4804G12c C02L89181  13.153   2.259   5.671 -0.1032 -0.5304 -2.0469
  4804G12c H01D89182  13.126   2.277   5.568 -3.6483  1.5945 -0.8279
  4804G12c C01389183  12.674   2.592   5.423  0.8799  0.9763  0.5416
  4804G12c H00089184  12.656   2.492   5.388-11.2691  1.9478  1.7639
  4804G12c C01489185  12.683   2.720   5.364 -1.0219  0.2045  1.0902
  4804G12c C00F89186  12.641   2.745   5.225 -0.7332  0.3832 -0.8332
  4804G12c C00H89187  12.698   2.976   5.261  1.3040 -1.3449 -0.1725
  4804G12c C00I89188  12.705   3.123   5.223 -1.5876  0.5250  0.1943
  4804G12c C00J89189  12.799   3.185   5.294  1.7976 -0.8583 -0.8002
  4804G12c C00Z89190  12.809   2.905   5.673 -0.1116 -1.0392 -0.4426
  4804G12c C00Y89191  12.819   2.889   5.812  1.2939  1.4975  0.2219
  4804G12c H00689192  12.813   2.802   5.875 -1.9700 -2.7542 -5.5153
  4804G12c C00X89193  12.898   2.979   5.879 -0.6703 -0.1701 -2.9337
  4804G12c O00389194  12.956   2.926   5.997 -1.2725  0.7023 -0.3385
  4804G12c C01B89195  12.925   3.006   6.105 -0.1298 -0.2005 -1.4531
  4804G12c H00989196  12.828   2.978   6.146  1.1202 -2.6985 -0.1349
  4804G12c H00889197  12.920   3.115   6.102 -0.1645 -0.0925  1.6400
  4804G12c H00789198  12.997   2.971   6.178  1.2806  1.6934 -1.8814
  4804G12c C00W89199  12.927   3.112   5.827 -0.1645  0.4122  1.1106
  4804G12c O00489200  13.029   3.182   5.895  0.3512  1.1121 -0.0371
  4804G12c C01C89201  13.087   3.278   5.820 -0.1429 -1.2881 -1.2521
  4804G12c H00A89202  13.176   3.312   5.870  0.0065 -3.1281 -0.2171
  4804G12c C00P89203  13.064   3.309   5.678 -0.8940  0.0941 -1.1040
  4804G12c C00O89204  13.153   3.392   5.597  0.4936 -1.3813  1.4904
  4804G12c C01D89205  13.283   3.419   5.645  0.4227  0.2221 -1.4908
  4804G12c H00S89206  13.305   3.390   5.746 -6.5843  3.9086  1.4408
  4804G12c C01E89207  13.388   3.500   5.585  1.0909 -0.2709 -0.1097
  4804G12c O00889208  13.510   3.484   5.650  1.2561  1.0772 -0.9576
  4804G12c C01V89209  13.617   3.555   5.591  0.9477  0.8199 -1.7572
  4804G12c C01Z89210  13.644   3.707   5.621  2.1007  0.5966 -0.3981
  4804G12c H00R89211  13.641   3.765   5.529 -0.7575  2.5287  0.8528
  4804G12c H00Q89212  13.569   3.738   5.694  2.0124  2.1927 -1.1599
  4804G12c O00989213  13.767   3.750   5.669  0.5911 -0.9986 -0.0691
  4804G12c H00P89214  13.784   3.843   5.667 -0.2384 -0.8362  0.1340
  4804G12c C01W89215  13.700   3.480   5.533 -0.7797  0.4642  0.1544
  4804G12c H00O89216  13.789   3.535   5.506 -0.5488  2.0239  3.8886
  4804G12c C01X89217  13.710   3.343   5.478  1.8547 -1.7596  0.2004
  4804G12c H00N89218  13.606   3.314   5.468  2.0384 -0.8513 -8.1118
  4804G12c H00M89219  13.747   3.338   5.375 -3.0357 -5.0669 -1.5543
  4804G12c C01Y89220  13.787   3.256   5.588  0.1931 -2.4544  0.8297
  4804G12c C02D89221  13.836   3.294   5.711  0.5882  0.6154 -0.3693
  4804G12c H01989222  13.859   3.390   5.756  1.3913  2.3483 -4.2859
  4804G12c C02C89223  13.856   3.179   5.803  1.2897 -0.5977 -1.5892
  4804G12c H01A89224  13.889   3.204   5.903  4.6370 -0.6690 -2.5873
  4804G12c C02B89225  13.829   3.047   5.773 -2.0673 -0.3502  0.0235
  4804G12c O00E89226  13.841   2.956   5.858 -0.1806  0.2102  0.6590
  4804G12c H01B89227  13.931   2.956   5.888 -0.7559 -0.5140  2.4574
  4804G12c C02F89228  13.821   3.008   5.641 -0.3870 -2.3209  1.5388
  4804G12c O00F89229  13.786   2.879   5.613  2.6454  1.2747  0.6324
  4804G12c C02G89230  13.646   2.862   5.640 -0.7280  1.3648 -0.2734
  4804G12c H01789231  13.596   2.957   5.626 -1.8085  1.2503  2.5097
  4804G12c H01689232  13.598   2.806   5.559  2.0321  4.9402 -4.6473
  4804G12c H01589233  13.648   2.809   5.735 -3.4213 -0.9665 -1.4505
  4804G12c C02E89234  13.777   3.113   5.553 -0.9679  0.2665 -0.8346
  4804G12c H01889235  13.721   3.083   5.465 -6.4091  0.5228  2.3018
  4804G12c C01F89236  13.354   3.540   5.450 -0.0354 -1.1403  1.8887
  4804G12c C01G89237  13.449   3.581   5.344 -0.2537  0.5766  1.1494
  4804G12c H00L89238  13.551   3.578   5.379 -1.5956  1.5285  5.5283
  4804G12c C01H89239  13.406   3.578   5.208 -0.5308  0.6379 -0.3498
  4804G12c H00B89240  13.491   3.546   5.149  1.6826 -5.2243  5.4227
  4804G12c C01I89241  13.259   3.567   5.183 -0.8975 -0.8244 -1.5897
  4804G12c C01U89242  13.231   3.519   5.398 -0.5922  0.3721 -0.5427
  4804G12c C00S89243  12.806   3.168   5.434  1.0347  0.6843  1.4470
  4804G12c C00K89244  12.864   3.299   5.250  0.5142 -2.1989  0.7932
  4804G12c C00N89245  13.128   3.457   5.470 -0.3151  0.1596 -0.8302
  4804G12c C00089246  13.175   3.595   5.283 -0.9100  1.1156 -0.3211
  4804G12c C01J89247  13.176   3.540   5.070 -0.8434  0.5531 -1.6877
  4804G12c C01K89248  13.214   3.522   4.931 -1.3592 -0.7553  1.0874
  4804G12c C01P89249  13.320   3.574   4.852  0.3161 -1.0747  0.2488
  4804G12c C01Q89250  13.398   3.696   4.876  1.1260 -0.4378  0.4416
  4804G12c H00G89251  13.362   3.798   4.883  4.1374  0.5415  3.0295
  4804G12c C01R89252  13.536   3.674   4.903  2.0374 -0.1689  1.1356
  4804G12c H00F89253  13.571   3.572   4.912 -2.5332 -1.7740  1.9456
  4804G12c C01S89254  13.641   3.751   4.955  0.2617  0.2644  0.3163
  4804G12c H00E89255  13.678   3.719   5.053  3.6453 -4.4135 -2.3078
  4804G12c H00D89256  13.723   3.744   4.884  0.4626 -0.8605  0.6543
  4804G12c O00589257  13.637   3.877   4.908 -1.1445 -0.7046  0.6609
  4804G12c H00C89258  13.546   3.899   4.920 -1.5875 -2.4557  0.6520
  4804G12c C01O89259  13.340   3.539   4.715 -1.2934  1.2370 -0.1431
  4804G12c H00H89260  13.434   3.576   4.676  0.2250 -2.7699 -0.6095
  4804G12c C01N89261  13.260   3.431   4.660  0.3420  0.3082  0.0904
  4804G12c O00689262  13.267   3.364   4.530  1.5794  0.2632 -0.0347
  4804G12c C01T89263  13.389   3.354   4.455 -0.2639 -1.7143 -0.6784
  4804G12c H00K89264  13.431   3.455   4.454 -2.2988 -0.8372 -0.1071
  4804G12c H00J89265  13.367   3.305   4.360 -4.1670  2.8839 -2.3245
  4804G12c H00I89266  13.453   3.285   4.510  1.0513 -0.1246 -0.1952
  4804G12c C01M89267  13.146   3.397   4.732 -1.0889  0.5193  0.3533
  4804G12c C02089268  12.867   3.324   5.111 -0.3980  0.2610  0.6090
  4804G12c C02189269  12.769   3.257   5.029 -0.6881 -0.4021 -1.0771
  4804G12c C01L89270  13.121   3.448   4.860 -0.8158  0.4917 -0.1829
  4804G12c O00789271  13.080   3.297   4.662 -1.7367  0.8960  0.3567
  4804G12c C02289272  12.824   3.227   4.901 -0.1713 -1.6459 -0.8097
  4804G12c C02389273  12.690   3.152   5.079  1.6194 -1.1015  0.0173
  4804G12c C00G89274  12.654   2.872   5.173 -1.2436  1.3276 -1.2774
  4804G12c C00E89275  12.655   2.631   5.134  2.4458  0.1670 -0.0757
  4804G12c O00A89276  12.626   2.501   5.186 -0.5603 -0.8020  2.7025
  4804G12c C02489277  12.484   2.487   5.211 -0.4237  2.8299  0.0626
  4804G12c H00V89278  12.424   2.568   5.251 -3.4567 -0.5111  2.6000
  4804G12c H00U89279  12.486   2.417   5.295  3.1551  5.6689  2.4922
  4804G12c H00T89280  12.427   2.443   5.130 -6.0600  2.3110  4.0094
  4814G12c C00D89281  10.600   9.309  10.196 -0.8905  0.1628  1.3138
  4814G12c O00B89282  10.549   9.403  10.117  0.6646 -1.1263  1.2368
  4814G12c C02589283  10.620   9.445  10.013  0.3557  0.4218 -0.0312
  4814G12c C02689284  10.655   9.595  10.016 -0.2926 -1.0183  1.1203
  4814G12c H00Y89285  10.598   9.645  10.094 -1.9712 -4.8851  2.5105
  4814G12c H00X89286  10.665   9.639   9.917  5.3378  6.5941  4.6341
  4814G12c O00C89287  10.769   9.645  10.077 -0.5813  0.0208  0.2372
  4814G12c H00W89288  10.836   9.701  10.043 -1.9743  1.8395  0.4513
  4814G12c C02789289  10.661   9.355   9.919 -0.0444  0.6179 -1.8692
  4814G12c O00D89290  10.758   9.377   9.831  0.2398  0.9911  1.1946
  4814G12c H00Z89291  10.687   9.409   9.778 -1.3336  3.3359  4.5578
  4814G12c C02889292  10.622   9.224   9.928 -0.0347  0.6243  0.6316
  4814G12c C02989293  10.715   9.124   9.912  1.2707 -0.1588 -0.3515
  4814G12c H01089294  10.817   9.157   9.919  0.0182  4.0572 -0.5745
  4814G12c C02T89295  10.690   8.988   9.890 -0.0513 -0.0792 -0.9680
  4814G12c H01O89296  10.762   8.911   9.868 -0.9217 -2.0026  2.5451
  4814G12c C02S89297  10.548   8.947   9.890 -0.0713 -0.9297  1.8193
  4814G12c O00J89298  10.501   8.816   9.863  0.1860 -0.7470  1.0025
  4814G12c H01P89299  10.412   8.821   9.834  0.2135 -1.1829  0.8484
  4814G12c C02R89300  10.448   9.040   9.890  1.1272  0.6769 -0.3185
  4814G12c O00I89301  10.331   9.006   9.831 -0.2901  0.2668 -0.8855
  4814G12c C02Q89302  10.225   9.095   9.852  0.5919  1.0108 -1.5185
  4814G12c H01N89303  10.203   9.091   9.958  1.0497  0.1954 -1.4544
  4814G12c H01R89304  10.242   9.197   9.817  0.8531  2.4969  2.6628
  4814G12c H01Q89305  10.129   9.045   9.839  2.6622 -5.2468  4.3760
  4814G12c C02A89306  10.489   9.177   9.926  1.3762 -0.2300  2.0932
  4814G12c H01189307  10.436   9.271   9.929  4.9984  2.4329 -4.9709
  4814G12c C00C89308  10.735   9.305  10.232 -0.4916  0.4315 -0.0904
  4814G12c H01289309  10.806   9.380  10.202  3.4235 -1.8950  2.7187
  4814G12c C00B89310  10.797   9.186  10.280  0.1803  1.2753  0.7608
  4814G12c C00A89311  10.930   9.166  10.333  0.4106  0.1815  0.8238
  4814G12c C00989312  11.042   9.236  10.294  1.2108  0.4899  0.7058
  4814G12c C00889313  11.063   9.337  10.202 -0.4144  0.3565  1.6185
  4814G12c H01389314  10.988   9.413  10.186  2.3039  3.6342  3.5026
  4814G12c C00789315  11.184   9.332  10.139 -0.9177  0.9136 -1.0681
  4814G12c H01489316  11.206   9.421  10.082 -0.4164 -0.0311 -2.3655
  4814G12c C00689317  11.289   9.230  10.164 -0.5750 -0.0971 -0.4782
  4814G12c C00589318  11.267   9.140  10.278  0.3979 -0.6896  0.2236
  4814G12c C00489319  11.342   9.010  10.293  0.7393  0.6076 -0.4235
  4814G12c C00389320  11.290   8.904  10.367 -0.2365  0.8740 -1.4446
  4814G12c C00289321  11.373   8.790  10.366 -1.1174 -0.3266 -0.6551
  4814G12c C00189322  11.340   8.656  10.399  2.4149 -1.5289 -1.7225
  4814G12c C00M89323  11.220   8.590  10.360  1.0234 -0.0471  0.2535
  4814G12c C00L89324  11.095   8.635  10.380 -0.1618 -0.3389 -0.2014
  4814G12c C00R89325  10.968   8.587  10.351  2.7145 -1.6435 -0.5201
  4814G12c C00Q89326  10.941   8.476  10.258  0.0662 -0.1979  0.2590
  4814G12c C00V89327  10.808   8.488  10.205  1.6552  0.2351 -1.8151
  4814G12c C00U89328  10.698   8.572  10.250  0.9357 -0.0808  1.0523
  4814G12c C00T89329  10.746   8.687  10.311  0.3031 -1.1258  0.0389
  4814G12c C01689330  10.680   8.812  10.295  0.5881  1.2336 -1.1356
  4814G12c C01589331  10.550   8.829  10.249 -0.1551  1.0072  0.8860
  4814G12c C01089332  10.492   8.705  10.213  1.4026 -1.4712  0.1756
  4814G12c C01189333  10.356   8.720  10.174  0.3504 -0.5413 -0.5638
  4814G12c H00589334  10.312   8.623  10.156  0.2858 -0.9236  1.5772
  4814G12c C01289335  10.277   8.831  10.200 -0.8952 -0.5873  0.9456
  4814G12c C01789336  10.129   8.851  10.167  0.0188  2.2463  0.3330
  4814G12c O00289337  10.088   8.849  10.044 -1.0605 -0.3074 -0.7117
  4814G12c H00489338  10.173   8.821  10.010 -1.0905 -3.1195  1.3786
  4814G12c C01889339  10.042   8.863  10.272 -0.6004 -0.2966 -0.4771
  4814G12c O00189340  10.080   8.885  10.406  0.4660  0.5210  0.3346
  4814G12c H00389341  10.011   8.838  10.450 -0.3570  2.4605  1.1659
  4814G12c C01989342   9.894   8.830  10.257 -1.6410  1.8293 -0.5696
  4814G12c H00289343   9.841   8.802  10.166 -0.0055 -0.3761 -0.8545
  4814G12c H00189344   9.873   8.748  10.325 -3.7784 -1.9621 -5.5140
  4814G12c O00089345   9.790   8.929  10.298  0.7237 -0.5313 -0.4047
  4814G12c C01A89346   9.813   8.978  10.431  0.4048 -1.8271 -0.9009
  4814G12c C02K89347   9.787   8.927  10.556 -0.3209 -0.8281  0.4362
  4814G12c O00G89348   9.724   8.805  10.569 -0.1341 -0.9773 -0.0786
  4814G12c C02M89349   9.803   8.725  10.658 -0.2452 -0.6092 -1.6137
  4814G12c H01G89350   9.742   8.635  10.664 -4.8434  2.5630  3.3985
  4814G12c H01F89351   9.891   8.684  10.608 -0.9398 -3.0245 -0.9226
  4814G12c H01E89352   9.800   8.768  10.758 -2.1307 -3.2563 -0.4899
  4814G12c C02J89353   9.812   9.014  10.662 -0.4446 -0.4078  0.1411
  4814G12c H01H89354   9.802   8.961  10.755  2.5304  1.6166  1.6771
  4814G12c C02I89355   9.883   9.137  10.643  1.2192 -1.1047  0.1957
  4814G12c C02N89356   9.914   9.215  10.760  0.1524 -0.7992 -0.2038
  4814G12c H01M89357   9.858   9.304  10.784  0.4839  0.8355 -4.9761
  4814G12c C02O89358   9.958   9.161  10.872 -0.2645 -1.2472  0.1497
  4814G12c H01L89359   9.911   9.203  10.960  3.8899  2.4132  0.7921
  4814G12c C02P89360  10.065   9.052  10.878  0.3156 -1.0350 -0.2188
  4814G12c H01K89361  10.039   8.956  10.923  3.0027 -0.8882  1.7335
  4814G12c H01J89362  10.067   9.018  10.774 -1.3704  1.2625 -1.0519
  4814G12c O00H89363  10.173   9.118  10.920 -0.0435  0.2818 -0.1031
  4814G12c H01I89364  10.217   9.144  10.840 -0.8434  4.1630  0.6116
  4814G12c C02H89365   9.920   9.188  10.514 -0.9230  0.1135  0.0168
  4814G12c H01C89366   9.982   9.277  10.514  0.4666 -0.6151 -6.5338
  4814G12c C02L89367   9.872   9.107  10.416 -0.1234 -0.8466  1.3843
  4814G12c H01D89368   9.891   9.136  10.314  1.1637 -2.9382  0.9964
  4814G12c C01389369  10.346   8.951  10.228  2.2755  1.3336 -1.1669
  4814G12c H00089370  10.292   9.040  10.256  0.3257 -0.0631 -0.3415
  4814G12c C01489371  10.484   8.952  10.250  0.4312 -0.1978 -1.6086
  4814G12c C00F89372  10.572   9.082  10.262  0.8508  1.0327 -1.1594
  4814G12c C00H89373  10.753   8.929  10.333 -1.0161  1.3493  0.0977
  4814G12c C00I89374  10.878   8.917  10.393  0.7663  0.5440  0.1038
  4814G12c C00J89375  10.934   8.789  10.429 -1.1586 -0.2849  0.9325
  4814G12c C00Z89376  10.570   8.589  10.197 -0.1169  0.1958  1.9702
  4814G12c C00Y89377  10.528   8.461  10.146  0.7291  0.1967 -1.8500
  4814G12c H00689378  10.420   8.469  10.141  0.3015 -4.5404 -2.7342
  4814G12c C00X89379  10.618   8.369  10.089  0.9116 -0.7199 -0.6321
  4814G12c O00389380  10.575   8.288   9.975 -0.9660 -1.2165 -0.5831
  4814G12c C01B89381  10.562   8.350   9.845 -1.3343 -1.0640  0.2656
  4814G12c H00989382  10.628   8.428   9.805  0.2558 -4.5155 -4.3012
  4814G12c H00889383  10.515   8.293   9.766 -2.4970 -0.7711  0.7409
  4814G12c H00789384  10.475   8.399   9.889 -2.0015  2.9796 -5.0902
  4814G12c C00W89385  10.755   8.382  10.118 -1.6979 -0.6456 -0.1600
  4814G12c O00489386  10.837   8.278  10.082  0.1604 -0.7140 -0.1284
  4814G12c C01C89387  10.972   8.292  10.117 -1.6183 -0.8158  0.8290
  4814G12c H00A89388  11.033   8.212  10.079  2.2933  0.9990  2.9411
  4814G12c C00P89389  11.031   8.382  10.200  0.1540  0.1201  1.2198
  4814G12c C00O89390  11.180   8.398  10.180 -0.3827  0.2409  0.3092
  4814G12c C01D89391  11.256   8.326  10.090  0.5263 -2.2198  0.5948
  4814G12c H00S89392  11.211   8.265  10.013  8.9804 -4.4340 -3.2358
  4814G12c C01E89393  11.400   8.338  10.067  1.2956  1.5763 -1.1677
  4814G12c O00889394  11.471   8.277   9.969  0.1326 -0.5301  2.3406
  4814G12c C01V89395  11.475   8.141   9.959 -0.1674  1.7368 -0.7199
  4814G12c C01Z89396  11.430   8.094   9.825 -0.7551 -0.0278  1.0216
  4814G12c H00R89397  11.511   8.069   9.757 -3.6834  1.8500 -3.3275
  4814G12c H00Q89398  11.394   7.991   9.834  3.3723 -1.7802 -0.6386
  4814G12c O00989399  11.317   8.155   9.775  0.6128 -0.0963 -1.1093
  4814G12c H00P89400  11.319   8.234   9.827  3.8029 -3.5112  4.5810
  4814G12c C01W89401  11.523   8.052  10.054  1.1090 -1.7742  0.8179
  4814G12c H00O89402  11.518   7.946  10.032  0.2042 -2.0183  2.1432
  4814G12c C01X89403  11.579   8.105  10.198 -0.1175 -0.7750 -0.0576
  4814G12c H00N89404  11.679   8.070  10.223 -0.4398  1.4140  4.8057
  4814G12c H00M89405  11.585   8.209  10.230 -1.9891 -1.8550  4.0761
  4814G12c C01Y89406  11.539   8.035  10.336 -0.2954  0.3847 -0.4588
  4814G12c C02D89407  11.510   8.114  10.445 -0.2264  0.6562  0.2823
  4814G12c H01989408  11.493   8.219  10.427 -7.0794  0.3162  3.3770
  4814G12c C02C89409  11.471   8.067  10.577  1.1170 -1.2889  0.0182
  4814G12c H01A89410  11.437   8.113  10.669 -8.1658 -2.0117 -2.5558
  4814G12c C02B89411  11.447   7.927  10.579 -0.6853 -0.9273 -0.2330
  4814G12c O00E89412  11.373   7.882  10.672 -0.9723  0.3166 -1.0624
  4814G12c H01B89413  11.332   7.798  10.656 -2.4484  0.7198  0.4217
  4814G12c C02F89414  11.457   7.850  10.468 -0.3517  3.6123  0.6956
  4814G12c O00F89415  11.415   7.715  10.470  1.1338  0.2275 -0.1122
  4814G12c C02G89416  11.493   7.620  10.399  0.5520 -0.3252 -2.4255
  4814G12c H01789417  11.483   7.656  10.296 -1.1728 -4.8738 -3.9541
  4814G12c H01689418  11.473   7.513  10.396  1.8436 -0.5732 -2.2760
  4814G12c H01589419  11.587   7.604  10.451 -1.2782 -2.8257  0.2115
  4814G12c C02E89420  11.511   7.899  10.349  1.1141  0.0884  0.5979
  4814G12c H01889421  11.518   7.856  10.250 -1.5175  3.3037 -1.0554
  4814G12c C01F89422  11.464   8.425  10.146  0.5841 -0.3154  0.2488
  4814G12c C01G89423  11.605   8.469  10.134  0.1716 -0.4085  0.0945
  4814G12c H00L89424  11.679   8.445  10.059  0.9906 -0.6180  0.9547
  4814G12c C01H89425  11.651   8.587  10.208 -0.5258 -1.1640  1.2361
  4814G12c H00B89426  11.753   8.622  10.211  1.7842 -7.1060 -0.0662
  4814G12c C01I89427  11.540   8.656  10.287 -0.3716 -0.2551  0.2967
  4814G12c C01U89428  11.390   8.498  10.247  0.0470 -1.2955 -0.8932
  4814G12c C00S89429  10.879   8.671  10.380 -0.5520 -0.0900 -0.8390
  4814G12c C00K89430  11.078   8.774  10.425  0.6451  1.2577  1.6979
  4814G12c C00N89431  11.251   8.488  10.270  0.9048 -1.0333  1.9131
  4814G12c C00089432  11.444   8.572  10.355 -1.7490 -0.4563  0.6415
  4814G12c C01J89433  11.509   8.799  10.327  0.1272  0.8593  0.1973
  4814G12c C01K89434  11.559   8.904  10.252  0.7848 -1.3105  1.4707
  4814G12c C01P89435  11.695   8.942  10.197 -1.4279  0.3228 -0.3326
  4814G12c C01Q89436  11.808   8.865  10.250 -0.1259 -0.9800  0.2507
  4814G12c H00G89437  11.796   8.857  10.357 -6.1420 -0.5781 -0.2225
  4814G12c C01R89438  11.919   8.850  10.172  1.5581 -0.4294 -2.0669
  4814G12c H00F89439  11.890   8.878  10.072  2.2180  1.4576 -1.7570
  4814G12c C01S89440  12.029   8.748  10.192  1.9255  0.3218  2.0832
  4814G12c H00E89441  11.989   8.656  10.147 -3.2128  1.1013  4.7081
  4814G12c H00D89442  12.101   8.760  10.111 -0.4033  0.2558 -0.0789
  4814G12c O00589443  12.063   8.696  10.302  0.5756  1.1113 -0.1359
  4814G12c H00C89444  12.006   8.750  10.354 -0.7445  4.4617 -4.6817
  4814G12c C01O89445  11.693   9.038  10.086 -0.1246  0.5940 -1.2457
  4814G12c H00H89446  11.791   9.081  10.071 -0.7184  3.0730  1.5709
  4814G12c C01N89447  11.604   9.133  10.084  0.5578  0.5934 -0.1286
  4814G12c O00689448  11.645   9.241  10.006  0.2531 -0.0720 -0.8484
  4814G12c C01T89449  11.699   9.369  10.070 -0.5237  0.1394  1.2388
  4814G12c H00K89450  11.655   9.464  10.037 -0.8301 -1.8621 -4.7791
  4814G12c H00J89451  11.690   9.368  10.178 -0.4141 -1.0758  1.2458
  4814G12c H00I89452  11.793   9.366  10.014 -1.9571  1.1684 -1.3501
  4814G12c C01M89453  11.488   9.129  10.163 -0.2827 -0.2649  0.5671
  4814G12c C02089454  11.153   8.896  10.405  0.5016 -0.9421 -0.5223
  4814G12c C02189455  11.095   9.026  10.409  1.2711  1.0594  0.3846
  4814G12c C01L89456  11.464   9.007  10.240  0.2936 -1.2287  1.4518
  4814G12c O00789457  11.414   9.237  10.114  0.2140 -0.3407 -1.8296
  4814G12c C02289458  11.147   9.140  10.351 -1.5256  0.4187  1.5574
  4814G12c C02389459  10.954   9.041  10.393 -1.3201  0.3570  0.9474
  4814G12c C00G89460  10.714   9.057  10.287  0.4486 -1.1280  0.1544
  4814G12c C00E89461  10.513   9.211  10.250  1.3894 -2.4687  0.6620
  4814G12c O00A89462  10.376   9.228  10.242 -0.6181  1.0452  0.2453
  4814G12c C02489463  10.335   9.345  10.288  0.8235 -0.0671  0.4136
  4814G12c H00V89464  10.306   9.378  10.188 -0.3664  3.4743  1.8771
  4814G12c H00U89465  10.387   9.421  10.347 -2.2205 -1.5027  5.1864
  4814G12c H00T89466  10.276   9.299  10.367  4.8416 -5.0451  0.8611
  4824G12c C00D89467   7.051   6.916   6.773  1.6925 -0.6453  0.8432
  4824G12c O00B89468   6.987   6.919   6.644  0.3702  0.0696 -1.2362
  4824G12c C02589469   6.968   6.793   6.588 -0.5947 -1.6432 -1.4728
  4824G12c C02689470   7.023   6.753   6.463 -1.0443 -0.6794 -0.4579
  4824G12c H00Y89471   7.093   6.675   6.493 -0.5313 -2.9480 -6.8368
  4824G12c H00X89472   7.094   6.830   6.433 -3.5923  1.4079 -1.3185
  4824G12c O00C89473   6.933   6.721   6.351 -0.6110 -0.0894 -0.9544
  4824G12c H00W89474   6.900   6.806   6.328  8.3317  4.4489  0.5892
  4824G12c C02789475   6.885   6.717   6.668  0.5198 -0.0715 -0.0317
  4824G12c O00D89476   6.875   6.588   6.647 -0.0305 -0.5569  0.5205
  4824G12c H00Z89477   6.791   6.559   6.680 -0.3610  2.7840  2.9451
  4824G12c C02889478   6.776   6.799   6.734  0.6713  0.9394 -0.8295
  4824G12c C02989479   6.767   6.775   6.876  0.3250 -0.2982 -0.0909
  4824G12c H01089480   6.856   6.729   6.915  2.0534  1.6850 -1.6218
  4824G12c C02T89481   6.650   6.804   6.961  2.3800  0.0674  0.0535
  4824G12c H01O89482   6.661   6.789   7.067 -1.0988  0.8446  0.5685
  4824G12c C02S89483   6.550   6.887   6.897  0.5033  0.1535  0.3948
  4824G12c O00J89484   6.444   6.933   6.960 -0.4255  1.6679 -0.2370
  4824G12c H01P89485   6.396   6.943   6.879 -4.0264 -1.7179  1.3428
  4824G12c C02R89486   6.560   6.913   6.753 -0.7732  0.2320  0.5178
  4824G12c O00I89487   6.458   6.992   6.713 -0.3915  0.6171 -1.7452
  4824G12c C02Q89488   6.370   6.940   6.603 -0.7525  0.8026 -0.3351
  4824G12c H01N89489   6.346   6.974   6.502  0.3513 -1.5660 -1.4501
  4824G12c H01R89490   6.415   6.844   6.576 -1.6822 -0.2496  1.7118
  4824G12c H01Q89491   6.282   6.884   6.635 -0.1526  1.4184  2.5395
  4824G12c C02A89492   6.670   6.867   6.678 -0.8598 -0.2033 -0.2695
  4824G12c H01189493   6.673   6.877   6.571  1.6142 -1.8751 -0.4008
  4824G12c C00C89494   7.160   6.826   6.825  0.5243 -0.8862 -0.2813
  4824G12c H01289495   7.193   6.752   6.754  5.1060  0.3185  0.4080
  4824G12c C00B89496   7.230   6.853   6.937 -1.2527 -0.0772 -1.1096
  4824G12c C00A89497   7.352   6.794   6.965 -0.2721  0.9167 -0.7432
  4824G12c C00989498   7.403   6.661   6.954 -0.8146 -1.2785  0.0324
  4824G12c C00889499   7.382   6.548   6.889  0.5031 -0.3831 -1.0234
  4824G12c H01389500   7.281   6.555   6.851 -2.8723 -1.8868  6.7043
  4824G12c C00789501   7.447   6.429   6.903  0.5781 -0.9847  0.9065
  4824G12c H01489502   7.427   6.346   6.838  1.4502  0.5546 -1.4227
  4824G12c C00689503   7.545   6.416   7.008  0.2400  0.8519  1.1117
  4824G12c C00589504   7.563   6.542   7.094  0.4839  0.3722 -0.8772
  4824G12c C00489505   7.642   6.553   7.216 -1.7209  1.5966  0.6051
  4824G12c C00389506   7.643   6.659   7.300 -0.2991  1.1907  0.5752
  4824G12c C00289507   7.736   6.678   7.413 -0.4182 -1.0593 -1.5289
  4824G12c C00189508   7.749   6.775   7.512  1.3081  0.3699 -0.6608
  4824G12c C00M89509   7.660   6.885   7.563  1.5595  2.1163  0.4004
  4824G12c C00L89510   7.566   6.940   7.466  0.9725 -1.1762  0.3725
  4824G12c C00R89511   7.444   7.008   7.498  0.3788 -0.2058  0.0113
  4824G12c C00Q89512   7.398   7.058   7.621 -0.6593  0.3715 -0.5449
  4824G12c C00V89513   7.283   7.132   7.600  0.7030 -2.6071 -0.6233
  4824G12c C00U89514   7.210   7.125   7.481 -0.9772  0.3104 -2.1582
  4824G12c C00T89515   7.254   7.080   7.364 -0.7207 -1.6540  1.1292
  4824G12c C01689516   7.180   7.063   7.241  0.9680 -0.2320  1.1791
  4824G12c C01589517   7.057   7.115   7.225  1.0014 -0.7274 -0.3002
  4824G12c C01089518   7.028   7.194   7.346  1.6280 -0.0235  1.5317
  4824G12c C01189519   6.931   7.303   7.316  0.3044 -0.0876  0.0408
  4824G12c H00589520   6.902   7.369   7.396  1.7768 -0.4172  0.8645
  4824G12c C01289521   6.882   7.321   7.187  0.4357 -0.3465  1.0669
  4824G12c C01789522   6.827   7.448   7.139  2.3329 -0.8820 -1.3723
  4824G12c O00289523   6.687   7.442   7.192 -0.5071 -0.0883  1.1888
  4824G12c H00489524   6.670   7.386   7.265  1.0479  0.0758  1.6922
  4824G12c C01889525   6.876   7.527   7.042 -0.1867  0.9356 -0.0082
  4824G12c O00189526   6.996   7.525   6.971 -0.3204 -0.0668 -0.2867
  4824G12c H00389527   6.973   7.599   6.916  0.1774  3.6795  4.2446
  4824G12c C01989528   6.799   7.657   7.015 -0.0913 -0.5350  0.8306
  4824G12c H00289529   6.704   7.697   7.049  1.7786  3.9012  1.1732
  4824G12c H00189530   6.817   7.680   7.120  0.4357 -3.3742  1.4122
  4824G12c O00089531   6.874   7.726   6.928  1.4822  0.8127  0.9071
  4824G12c C01A89532   6.824   7.752   6.802 -0.8266  1.0835  1.7443
  4824G12c C02K89533   6.921   7.775   6.707 -0.7318  0.6171 -0.4545
  4824G12c O00G89534   7.052   7.773   6.724  0.5673  0.5273 -1.9216
  4824G12c C02M89535   7.131   7.735   6.598  0.1668 -0.9502 -0.8359
  4824G12c H01G89536   7.177   7.639   6.572 -5.5351 -2.3199 -7.1986
  4824G12c H01F89537   7.068   7.732   6.510 -0.7172 -1.6818 -0.1942
  4824G12c H01E89538   7.212   7.808   6.602 -0.5745  0.1815 -4.5277
  4824G12c C02J89539   6.859   7.817   6.582  1.2173 -0.3837  2.2071
  4824G12c H01H89540   6.917   7.851   6.497  0.6771  0.9024  2.3444
  4824G12c C02I89541   6.725   7.798   6.551  1.4189  0.3579  1.1357
  4824G12c C02N89542   6.698   7.795   6.408 -0.5717  0.1636 -1.4756
  4824G12c H01M89543   6.708   7.714   6.337 -1.5804  2.5735 -4.4744
  4824G12c C02O89544   6.649   7.913   6.369 -0.8927 -3.6941  1.5114
  4824G12c H01L89545   6.645   7.960   6.272 -1.7113 -1.2074  2.7142
  4824G12c C02P89546   6.625   8.029   6.459 -0.6973 -0.6147 -0.2548
  4824G12c H01K89547   6.536   8.090   6.450  2.3573  3.7708 -2.2075
  4824G12c H01J89548   6.638   8.013   6.566 -1.5938  0.6526  0.0471
  4824G12c O00H89549   6.733   8.086   6.435 -0.0311  1.7650 -0.2228
  4824G12c H01I89550   6.767   8.039   6.360 -4.0229  3.9276 -3.6527
  4824G12c C02H89551   6.628   7.761   6.650 -0.0932  0.7071 -2.3237
  4824G12c H01C89552   6.528   7.721   6.637 -2.9792  7.4901 -2.9709
  4824G12c C02L89553   6.678   7.782   6.793 -0.3110 -0.0936 -0.6961
  4824G12c H01D89554   6.621   7.740   6.875  1.6477 -3.0384 -0.7864
  4824G12c C01389555   6.891   7.220   7.086 -2.2474 -1.5654 -0.5401
  4824G12c H00089556   6.825   7.238   7.003  3.0810  0.9270 -4.5539
  4824G12c C01489557   6.994   7.114   7.107 -1.0689 -0.0234  0.5600
  4824G12c C00F89558   7.041   7.015   7.009 -0.3456 -1.0770 -0.3467
  4824G12c C00H89559   7.236   6.996   7.135 -0.4423  0.3502  0.2874
  4824G12c C00I89560   7.365   6.940   7.158  2.1209  0.0589 -0.7484
  4824G12c C00J89561   7.444   6.987   7.260 -0.8318  0.8755 -0.1174
  4824G12c C00Z89562   7.080   7.164   7.472 -1.5640  0.4708  0.5547
  4824G12c C00Y89563   7.016   7.215   7.592  0.0672  0.5294 -0.5598
  4824G12c H00689564   6.909   7.218   7.575 -0.9931 -2.5442  4.4453
  4824G12c C00X89565   7.089   7.224   7.717 -0.0996  1.0003  0.7934
  4824G12c O00389566   6.996   7.257   7.827 -0.5595  0.7487  1.2679
  4824G12c C01B89567   6.889   7.167   7.860  0.0014  2.7619 -1.5618
  4824G12c H00989568   6.842   7.151   7.763  0.6877 -5.6462 -0.8745
  4824G12c H00889569   6.796   7.214   7.891  0.2388  0.2995  3.3960
  4824G12c H00789570   6.913   7.072   7.908  3.0613  5.5439  2.7328
  4824G12c C00W89571   7.220   7.184   7.715  0.0128  0.4399 -0.7992
  4824G12c O00489572   7.285   7.179   7.834 -0.2424 -0.7752 -0.0467
  4824G12c C01C89573   7.333   7.056   7.861  1.0294 -0.3632  1.8584
  4824G12c H00A89574   7.250   6.994   7.891  0.3673 -2.2570 -3.4000
  4824G12c C00P89575   7.442   7.023   7.755  0.3877  0.6717  1.0672
  4824G12c C00O89576   7.539   6.930   7.780 -0.5045  0.4501 -0.7207
  4824G12c C01D89577   7.535   6.877   7.912  0.7759 -0.6421  0.6948
  4824G12c H00S89578   7.490   6.936   7.990 -5.0371  3.1514 -4.9743
  4824G12c C01E89579   7.613   6.773   7.967  1.7156  0.1367 -1.3268
  4824G12c O00889580   7.597   6.706   8.087  0.1665 -0.2041 -0.6576
  4824G12c C01V89581   7.476   6.618   8.107 -1.6238  0.2107  1.5629
  4824G12c C01Z89582   7.533   6.473   8.142 -0.7859 -0.3077  0.5930
  4824G12c H00R89583   7.641   6.457   8.146 -0.7827  0.1078  3.2601
  4824G12c H00Q89584   7.537   6.469   8.251  0.9644 -0.7619  0.5313
  4824G12c O00989585   7.504   6.346   8.095 -0.3379 -0.0011  1.3851
  4824G12c H00P89586   7.491   6.291   8.170  4.1547  3.1482  4.7399
  4824G12c C01W89587   7.342   6.657   8.123 -0.9553 -0.0427  0.6041
  4824G12c H00O89588   7.313   6.754   8.085 -9.3599 -2.7465 -1.0565
  4824G12c C01X89589   7.248   6.538   8.135 -0.7643  1.3724 -0.2875
  4824G12c H00N89590   7.296   6.446   8.168 -0.7741 -0.3555 -4.7697
  4824G12c H00M89591   7.172   6.511   8.063 -1.3152 -2.5269  1.6510
  4824G12c C01Y89592   7.146   6.562   8.234 -1.5808 -0.2180 -0.8866
  4824G12c C02D89593   7.076   6.673   8.237  0.6381 -0.2896  2.1045
  4824G12c H01989594   7.089   6.760   8.174  3.0041 -3.0567 -1.4314
  4824G12c C02C89595   7.003   6.680   8.367 -1.2997 -0.2187  0.6764
  4824G12c H01A89596   6.952   6.774   8.384 -0.7801 -0.5833  4.8757
  4824G12c C02B89597   6.976   6.559   8.440  2.1315 -0.5970  0.1296
  4824G12c O00E89598   6.886   6.583   8.534  0.9696 -0.7607 -0.4973
  4824G12c H01B89599   6.899   6.522   8.605 -8.8548 -0.5362  2.2232
  4824G12c C02F89600   7.031   6.433   8.424 -1.2640  0.1311  0.2219
  4824G12c O00F89601   6.985   6.335   8.500 -0.0272 -0.9602 -0.2366
  4824G12c C02G89602   7.034   6.207   8.450 -0.3669 -0.6010 -1.2913
  4824G12c H01789603   7.137   6.234   8.471  0.2328 -4.2149  0.7174
  4824G12c H01689604   7.003   6.181   8.348 -1.5101 -2.7907 -0.4070
  4824G12c H01589605   7.029   6.131   8.527  4.3235  2.5593  2.4035
  4824G12c C02E89606   7.132   6.435   8.320 -0.1272 -0.1411 -0.7177
  4824G12c H01889607   7.204   6.354   8.312  1.3226  1.2194 -1.6686
  4824G12c C01F89608   7.662   6.683   7.857 -1.5336 -0.3968 -1.3258
  4824G12c C01G89609   7.676   6.536   7.835 -0.2978 -0.0287 -0.0472
  4824G12c H00L89610   7.624   6.470   7.902  0.3078  1.0084  1.4758
  4824G12c C01H89611   7.695   6.479   7.695 -0.3138  1.1927  1.6835
  4824G12c H00B89612   7.671   6.377   7.668 -0.3683  1.7577 -0.5064
  4824G12c C01I89613   7.772   6.555   7.599  1.6581 -0.0887  0.3447
  4824G12c C01U89614   7.703   6.746   7.743  0.6270  1.2963  1.0601
  4824G12c C00S89615   7.375   7.027   7.374  0.7669  0.6017 -0.3299
  4824G12c C00K89616   7.546   6.898   7.321  0.1302 -0.3321  1.1257
  4824G12c C00N89617   7.634   6.869   7.700  0.2992 -0.4615 -0.2333
  4824G12c C00089618   7.764   6.695   7.621 -0.4100  0.2287 -0.2823
  4824G12c C01J89619   7.796   6.551   7.456 -1.6405  0.1006  0.0711
  4824G12c C01K89620   7.813   6.420   7.372 -0.1397 -0.3616 -0.4098
  4824G12c C01P89621   7.880   6.292   7.408  1.9664 -0.9658  1.0023
  4824G12c C01Q89622   7.980   6.266   7.511 -0.6172  0.8256 -0.2917
  4824G12c H00G89623   7.942   6.228   7.605  3.8579 -1.6014  0.6715
  4824G12c C01R89624   8.102   6.281   7.471 -1.0194 -0.6184 -0.1975
  4824G12c H00F89625   8.112   6.320   7.371 -4.4803  3.8903  0.9980
  4824G12c C01S89626   8.209   6.258   7.574 -0.7850  0.6311 -0.0740
  4824G12c H00E89627   8.257   6.176   7.521 -3.1313  3.3136 -6.8553
  4824G12c H00D89628   8.260   6.352   7.554 -0.8632 -0.2023 -4.7822
  4824G12c O00589629   8.211   6.196   7.700 -1.4410 -0.4100  0.7066
  4824G12c H00C89630   8.268   6.240   7.761  1.5622  1.3939 -3.1811
  4824G12c C01O89631   7.855   6.200   7.309  0.5488  1.1082 -0.3367
  4824G12c H00H89632   7.878   6.095   7.318 -5.7983 -0.5808 -1.7140
  4824G12c C01N89633   7.797   6.222   7.181 -0.1483  0.1214  1.2673
  4824G12c O00689634   7.794   6.124   7.086 -1.0883  0.9153  0.4445
  4824G12c C01T89635   7.802   5.976   7.121 -0.2593  0.1870 -0.0843
  4824G12c H00K89636   7.799   5.924   7.026 -6.5828 -1.4555  0.7763
  4824G12c H00J89637   7.747   5.908   7.187  4.9635 -2.6041  1.6535
  4824G12c H00I89638   7.894   5.995   7.176  2.3287  2.7102 -5.0333
  4824G12c C01M89639   7.716   6.335   7.160 -0.1944  0.9115  1.8980
  4824G12c C02089640   7.576   6.781   7.242 -0.8227 -0.1938 -0.7938
  4824G12c C02189641   7.506   6.768   7.128 -0.8835  0.5569  0.5918
  4824G12c C01L89642   7.727   6.442   7.251  0.4527  0.7262 -0.4588
  4824G12c O00789643   7.630   6.317   7.038 -0.6062  1.1367 -2.0088
  4824G12c C02289644   7.513   6.657   7.053  1.4156 -1.0439  0.5869
  4824G12c C02389645   7.418   6.854   7.065 -1.0366 -2.2424  2.1280
  4824G12c C00G89646   7.161   6.948   7.024 -1.0036 -0.4453 -1.1025
  4824G12c C00E89647   7.003   7.020   6.866  0.7807 -2.1630 -0.5382
  4824G12c O00A89648   6.911   7.116   6.828 -0.0572  0.1196 -0.1030
  4824G12c C02489649   6.882   7.146   6.703  1.0900  0.8594  1.2108
  4824G12c H00V89650   6.793   7.101   6.660  1.3680  5.5009 -4.9745
  4824G12c H00U89651   6.834   7.242   6.724 -2.0060  0.5979 -3.7446
  4824G12c H00T89652   6.971   7.171   6.646  2.9292 -1.2209  3.0918
  4834G12c C00D89653   2.598  11.839  11.224  0.6263 -0.4362  0.4625
  4834G12c O00B89654   2.689  11.951  11.205 -0.5297 -0.0206  0.9858
  4834G12c C02589655   2.715  11.942  11.067 -1.1065 -1.2700  0.0829
  4834G12c C02689656   2.590  11.983  10.973  1.0053  1.0271  1.1419
  4834G12c H00Y89657   2.501  11.995  11.035 -0.3417  4.9516 -1.3682
  4834G12c H00X89658   2.587  11.910  10.892  0.4876  1.6826  0.5664
  4834G12c O00C89659   2.632  12.113  10.953 -0.0336 -1.5921 -0.3444
  4834G12c H00W89660   2.549  12.139  10.916 -1.0550 -1.4086  1.9838
  4834G12c C02789661   2.837  11.900  11.010 -0.9775  0.2073 -2.2684
  4834G12c O00D89662   2.946  11.851  11.098  0.2661 -0.5330  0.9886
  4834G12c H00Z89663   2.917  11.841  11.187 -2.7467 -4.5494 -0.2560
  4834G12c C02889664   2.876  11.905  10.865 -2.5802  2.1425 -0.1134
  4834G12c C02989665   2.823  11.989  10.764  0.4855  1.8285 -0.0730
  4834G12c H01089666   2.780  12.086  10.786 -0.5839  2.2604 -3.6790
  4834G12c C02T89667   2.885  11.975  10.633 -0.3107  0.0179 -0.1841
  4834G12c H01O89668   2.863  12.047  10.555  5.2696 -0.2478 -2.1725
  4834G12c C02S89669   2.994  11.899  10.596  1.7464 -0.2428 -0.2664
  4834G12c O00J89670   3.028  11.918  10.471  0.0819  0.3351  0.0321
  4834G12c H01P89671   3.092  11.849  10.465  1.0920  1.2652 -0.0180
  4834G12c C02R89672   3.026  11.799  10.693  2.0634 -0.3714  0.3571
  4834G12c O00I89673   3.055  11.680  10.618 -0.1739 -0.3613 -0.4095
  4834G12c C02Q89674   3.126  11.587  10.711 -1.6179  0.6552 -0.3835
  4834G12c H01N89675   3.168  11.512  10.643 -2.7443  0.7749 -1.2159
  4834G12c H01R89676   3.224  11.617  10.750 -1.9415  2.6231 -1.0367
  4834G12c H01Q89677   3.056  11.516  10.754 -2.8471  4.3932  4.1230
  4834G12c C02A89678   2.979  11.808  10.829  0.0837  0.0226  0.3977
  4834G12c H01189679   3.012  11.731  10.897 -2.5836  1.6302  3.6633
  4834G12c C00C89680   2.628  11.712  11.184  0.0569  0.1842  0.4573
  4834G12c H01289681   2.728  11.673  11.170 -0.7552 -0.9706 -2.7549
  4834G12c C00B89682   2.533  11.613  11.180  0.9140  2.2696  0.5543
  4834G12c C00A89683   2.568  11.471  11.169 -0.3562  0.4858 -1.6610
  4834G12c C00989684   2.629  11.405  11.050 -0.8751 -0.3021 -1.4249
  4834G12c C00889685   2.675  11.447  10.937 -0.4721  1.1785 -0.5040
  4834G12c H01389686   2.718  11.542  10.910 -3.0055  0.3503 -8.7102
  4834G12c C00789687   2.706  11.359  10.824  0.9656 -0.4472 -1.3301
  4834G12c H01489688   2.717  11.408  10.728  0.4296 -4.1670 -3.4027
  4834G12c C00689689   2.686  11.221  10.835 -1.5014  1.0260  2.1194
  4834G12c C00589690   2.615  11.193  10.945 -1.7454  0.1433 -0.1690
  4834G12c C00489691   2.553  11.068  10.939  0.2946  0.3550  0.1353
  4834G12c C00389692   2.471  11.040  11.050  1.5485  0.1835 -1.0598
  4834G12c C00289693   2.362  10.940  11.025 -0.0155  0.4533  1.7677
  4834G12c C00189694   2.245  10.889  11.096 -0.0756  1.0340 -1.3495
  4834G12c C00M89695   2.142  10.985  11.130  0.5384 -0.4694 -1.0742
  4834G12c C00L89696   2.162  11.124  11.147  1.3850  0.4095  0.4620
  4834G12c C00R89697   2.061  11.205  11.189 -0.2633 -0.4855  0.4350
  4834G12c C00Q89698   1.921  11.224  11.159 -0.7755  0.2646 -0.0237
  4834G12c C00V89699   1.874  11.356  11.173 -0.8224  0.9917 -0.0406
  4834G12c C00U89700   1.951  11.464  11.210  0.1587 -0.7226  0.9869
  4834G12c C00T89701   2.080  11.450  11.254 -1.4384  1.9484  1.6494
  4834G12c C01689702   2.181  11.552  11.254  1.8365  1.1879 -0.3174
  4834G12c C01589703   2.140  11.680  11.243 -1.8033 -0.7439  0.0254
  4834G12c C01089704   2.002  11.691  11.229 -0.3711 -0.1692 -0.2455
  4834G12c C01189705   1.955  11.818  11.260  0.9287  0.6749  0.8940
  4834G12c H00589706   1.871  11.825  11.328  0.9880 -5.3301  1.8403
  4834G12c C01289707   2.026  11.934  11.236 -0.0137  0.6961  2.4055
  4834G12c C01789708   1.966  12.062  11.214  0.1994  1.1383  0.4674
  4834G12c O00289709   2.045  12.176  11.198 -0.3415  0.6713  1.0711
  4834G12c H00489710   2.126  12.152  11.157 -3.4566 -3.4063 -3.1843
  4834G12c C01889711   1.828  12.076  11.196  1.1977 -0.4736  1.0409
  4834G12c O00189712   1.740  11.974  11.184 -0.2926  0.2071 -1.2468
  4834G12c H00389713   1.670  11.979  11.247 -1.2034 -0.3972 -2.1982
  4834G12c C01989714   1.759  12.205  11.143  0.6159  0.0154  1.3317
  4834G12c H00289715   1.824  12.292  11.132  1.4298 -0.7114  0.3158
  4834G12c H00189716   1.725  12.190  11.041  5.8580 -0.6878 -0.4643
  4834G12c O00089717   1.634  12.228  11.224 -0.1521 -0.5635 -0.4543
  4834G12c C01A89718   1.576  12.315  11.320 -0.3761  1.2637 -1.9061
  4834G12c C02K89719   1.456  12.276  11.384  0.5763 -0.2693  0.0124
  4834G12c O00G89720   1.373  12.176  11.332  1.2824  0.5885  0.1420
  4834G12c C02M89721   1.315  12.061  11.419 -0.8352 -1.2638 -2.3973
  4834G12c H01G89722   1.241  11.998  11.370 -2.8810  2.4979 -4.2546
  4834G12c H01F89723   1.392  12.000  11.468  0.3365  0.2651 -2.2909
  4834G12c H01E89724   1.278  12.096  11.515  3.5617  0.7232 -1.2870
  4834G12c C02J89725   1.402  12.374  11.486 -1.0523  0.3403 -0.3965
  4834G12c H01H89726   1.327  12.323  11.545 -0.1278 -3.1455 -2.1361
  4834G12c C02I89727   1.464  12.489  11.517 -2.2646 -1.2088  0.7175
  4834G12c C02N89728   1.403  12.562  11.627 -0.9758 -1.3465 -0.6547
  4834G12c H01M89729   1.350  12.650  11.596 -1.6447  0.9141  6.0587
  4834G12c C02O89730   1.407  12.502  11.753 -0.6202 -1.0907 -0.1930
  4834G12c H01L89731   1.456  12.414  11.793 -2.6150 -2.5011 -0.7811
  4834G12c C02P89732   1.363  12.577  11.879 -0.0905 -0.5776 -0.3088
  4834G12c H01K89733   1.275  12.641  11.877 -0.3934 -0.9119  1.7691
  4834G12c H01J89734   1.345  12.516  11.967  1.4135 -3.7323 -2.0854
  4834G12c O00H89735   1.465  12.657  11.905  0.4351 -0.2749 -0.3737
  4834G12c H01I89736   1.516  12.652  11.825 -1.1449  1.4390 -1.5228
  4834G12c C02H89737   1.597  12.522  11.468  0.2326  0.0922  0.1802
  4834G12c H01C89738   1.678  12.590  11.490  1.0053  0.6845 -3.9899
  4834G12c C02L89739   1.653  12.421  11.378 -0.5339 -0.8172  1.5549
  4834G12c H01D89740   1.756  12.428  11.348 -0.5053 -2.8349  1.0765
  4834G12c C01389741   2.163  11.914  11.237 -0.0015  0.7496 -0.2189
  4834G12c H00089742   2.212  12.008  11.257  1.3767 -0.5190  2.6900
  4834G12c C01489743   2.222  11.784  11.249  0.8324 -0.1500 -0.4335
  4834G12c C00F89744   2.355  11.764  11.253  0.1805  0.6875  0.3196
  4834G12c C00H89745   2.313  11.521  11.250  0.3533  0.9568  0.4572
  4834G12c C00I89746   2.345  11.383  11.257 -0.7779  0.2151 -1.1212
  4834G12c C00J89747   2.254  11.273  11.258 -0.1979 -0.7230 -0.3436
  4834G12c C00Z89748   1.915  11.598  11.210 -0.0563 -1.2383  0.3225
  4834G12c C00Y89749   1.777  11.617  11.210  1.2655 -0.4338  2.2629
  4834G12c H00689750   1.747  11.721  11.209  7.5057  1.5745  0.7801
  4834G12c C00X89751   1.684  11.513  11.187  0.3606 -0.6964  1.4452
  4834G12c O00389752   1.567  11.541  11.246 -0.0380  0.4122  0.4877
  4834G12c C01B89753   1.533  11.425  11.351  0.1555  0.7461  2.0347
  4834G12c H00989754   1.436  11.451  11.393  0.1296  3.0778  0.6101
  4834G12c H00889755   1.610  11.420  11.429 -0.9497  0.1864  3.1118
  4834G12c H00789756   1.523  11.325  11.309  1.4839  0.7713  1.6342
  4834G12c C00W89757   1.735  11.391  11.162 -0.0813  1.2970  0.7321
  4834G12c O00489758   1.646  11.294  11.114  0.5947  0.8178  1.1359
  4834G12c C01C89759   1.689  11.159  11.112 -0.7591  1.2826 -1.0649
  4834G12c H00A89760   1.616  11.081  11.125 -1.1031  1.6723 -0.6438
  4834G12c C00P89761   1.835  11.122  11.128 -0.7998  2.2690 -0.0795
  4834G12c C00O89762   1.876  10.996  11.080 -0.8378  0.0957  0.3890
  4834G12c C01D89763   1.781  10.918  10.994 -0.4069  0.1091 -0.0341
  4834G12c H00S89764   1.676  10.937  11.007  0.6240  4.4533  3.2921
  4834G12c C01E89765   1.827  10.814  10.894  0.7720  0.0203 -0.0068
  4834G12c O00889766   1.743  10.771  10.780 -0.0616  0.7444 -0.3893
  4834G12c C01V89767   1.690  10.634  10.779 -1.8794 -0.7521  0.0580
  4834G12c C01Z89768   1.766  10.530  10.858  0.7477  0.0932 -0.4897
  4834G12c H00R89769   1.861  10.570  10.892 -1.0248  2.3599  2.0286
  4834G12c H00Q89770   1.722  10.487  10.948 -5.0053  4.1727 -1.0526
  4834G12c O00989771   1.746  10.393  10.801 -0.6995  1.3406  0.4592
  4834G12c H00P89772   1.816  10.390  10.737 -2.0564 -3.5687 -0.9608
  4834G12c C01W89773   1.562  10.614  10.740 -0.5785 -0.2599 -1.2029
  4834G12c H00O89774   1.507  10.537  10.792  2.0957 -0.0999  1.9763
  4834G12c C01X89775   1.479  10.714  10.659  1.0046  0.9465  0.8790
  4834G12c H00N89776   1.486  10.815  10.701  5.3793 -0.4438  3.8624
  4834G12c H00M89777   1.540  10.735  10.571  0.7116 -1.7079  0.0011
  4834G12c C01Y89778   1.354  10.652  10.616  0.2043 -0.4534  0.7181
  4834G12c C02D89779   1.241  10.636  10.697  0.3232  0.7623  0.7088
  4834G12c H01989780   1.234  10.696  10.786 -4.3597 -1.2012  1.8147
  4834G12c C02C89781   1.134  10.545  10.629 -0.8958 -1.0511  0.4455
  4834G12c H01A89782   1.045  10.532  10.689 -0.5094  3.7276  2.2237
  4834G12c C02B89783   1.117  10.501  10.491 -1.7389  1.8722  1.5417
  4834G12c O00E89784   1.028  10.415  10.451 -0.9686  0.1803 -1.1550
  4834G12c H01B89785   0.974  10.456  10.385 -1.1271 -1.7003 -2.2392
  4834G12c C02F89786   1.246  10.527  10.425 -0.2494  1.2207 -0.7117
  4834G12c O00F89787   1.244  10.488  10.288  0.0093  1.3628 -1.0409
  4834G12c C02G89788   1.336  10.515  10.195 -2.0532  0.1004 -0.4970
  4834G12c H01789789   1.442  10.489  10.203 -0.6959  5.3468  0.4554
  4834G12c H01689790   1.342  10.623  10.213 -0.9119  0.7154 -4.2241
  4834G12c H01589791   1.267  10.506  10.111  0.7022 -0.6301 -2.7649
  4834G12c C02E89792   1.350  10.597  10.489  0.8268 -0.3859  1.3125
  4834G12c H01889793   1.421  10.634  10.417  1.3019 -2.2590  0.8061
  4834G12c C01F89794   1.969  10.788  10.890  2.2520  0.3656  0.3635
  4834G12c C01G89795   2.044  10.736  10.771  0.0665  0.1210 -0.5848
  4834G12c H00L89796   1.993  10.732  10.676  2.3272 -1.9868 -1.7804
  4834G12c C01H89797   2.189  10.762  10.771  0.7633 -0.7848  0.0123
  4834G12c H00B89798   2.237  10.752  10.675  0.1322  1.3108 -0.5341
  4834G12c C01I89799   2.262  10.790  10.892 -0.8884  0.8815  0.1545
  4834G12c C01U89800   2.040  10.814  11.006 -0.7159 -0.3343 -0.0914
  4834G12c C00S89801   2.121  11.312  11.251 -0.7180  2.5026  0.0580
  4834G12c C00K89802   2.288  11.173  11.174  1.5915 -1.2047  0.0421
  4834G12c C00N89803   2.012  10.930  11.079 -2.0634  1.5935 -0.0509
  4834G12c C00089804   2.178  10.798  11.012  0.2192  1.1574  0.7768
  4834G12c C01J89805   2.401  10.845  10.928 -0.0568  0.7049 -0.9033
  4834G12c C01K89806   2.511  10.841  10.826 -1.1178 -0.4177 -0.4336
  4834G12c C01P89807   2.541  10.747  10.717 -1.2115  1.3022  1.1792
  4834G12c C01Q89808   2.474  10.613  10.706 -0.5038  0.4282  0.2641
  4834G12c H00G89809   2.402  10.581  10.779 -0.6674 -2.0088 -0.9160
  4834G12c C01R89810   2.501  10.518  10.618  1.4707 -2.7119  1.3383
  4834G12c H00F89811   2.581  10.520  10.545 -2.3721 -5.0345 -3.1921
  4834G12c C01S89812   2.439  10.385  10.604 -0.0963  0.6906 -0.1662
  4834G12c H00E89813   2.368  10.357  10.682 -0.1890 -4.3008 -1.8878
  4834G12c H00D89814   2.379  10.377  10.514 -4.7627 -4.3666  3.0791
  4834G12c O00589815   2.540  10.286  10.630 -0.7900 -0.5323  0.5071
  4834G12c H00C89816   2.623  10.298  10.588  0.2944  6.8398  4.0057
  4834G12c C01O89817   2.648  10.794  10.627 -0.5800 -0.5324 -0.2889
  4834G12c H00H89818   2.679  10.750  10.533 -0.8201 -2.1011  0.3515
  4834G12c C01N89819   2.704  10.918  10.644 -1.8456 -1.1312 -0.5800
  4834G12c O00689820   2.794  10.971  10.555 -0.0264 -0.3226 -1.0394
  4834G12c C01T89821   2.728  11.008  10.435 -1.0646 -0.2658 -1.2971
  4834G12c H00K89822   2.663  10.926  10.405 -0.1103  0.0287 -4.3761
  4834G12c H00J89823   2.664  11.096  10.430  1.8565  1.8836 -1.8207
  4834G12c H00I89824   2.791  11.003  10.347  1.9006 -2.4478  0.8501
  4834G12c C01M89825   2.659  11.010  10.743 -0.1638  0.3181 -1.2723
  4834G12c C02089826   2.429  11.157  11.141  0.0856 -0.5615 -0.0397
  4834G12c C02189827   2.536  11.236  11.188  0.6349 -1.2288 -0.4794
  4834G12c C01L89828   2.572  10.970  10.842  1.3984  0.6637 -0.3483
  4834G12c O00789829   2.710  11.127  10.725 -1.0877  0.6701 -0.6020
  4834G12c C02289830   2.625  11.266  11.073  1.9810  0.8216 -0.3138
  4834G12c C02389831   2.485  11.368  11.225 -1.2058 -2.0897 -0.2728
  4834G12c C00G89832   2.408  11.633  11.228 -1.7286  0.6769 -0.1370
  4834G12c C00E89833   2.459  11.867  11.253  0.2392  0.4358 -1.3262
  4834G12c O00A89834   2.420  12.003  11.291 -0.2362 -0.8214 -1.7483
  4834G12c C02489835   2.448  12.074  11.398 -0.6378 -0.2288 -0.7405
  4834G12c H00V89836   2.423  12.023  11.491  0.0379 -1.5522 -1.2838
  4834G12c H00U89837   2.555  12.095  11.397 -0.2289 -2.0590  1.5956
  4834G12c H00T89838   2.374  12.154  11.385 -1.0966 -1.4941 -8.0601
  4844G12c C00D89839  10.609  12.460   0.193 -0.3674  0.6011  0.9422
  4844G12c O00B89840  10.694  12.552   0.130  0.7660 -0.1945 -0.5650
  4844G12c C02589841  10.664  12.614   0.007 -0.6218  0.4765 -1.6369
  4844G12c C02689842  10.661  12.517  -0.128 -2.7739  1.6857  0.1526
  4844G12c H00Y89843  10.582  12.553  -0.193  1.7886  2.8331 -5.1123
  4844G12c H00X89844  10.649  12.411  -0.103 -2.1952  2.1770  2.6208
  4844G12c O00C89845  10.782  12.539  -0.199  0.7699 -0.0237 -0.7202
  4844G12c H00W89846  10.777  12.469  -0.264 -1.7367 -0.0582 -0.5237
  4844G12c C02789847  10.622  12.746   0.030 -2.2996  1.0376 -0.1773
  4844G12c O00D89848  10.607  12.777   0.168  0.0910  0.8393 -0.9359
  4844G12c H00Z89849  10.684  12.743   0.211 -2.3003 -1.3873  1.7441
  4844G12c C02889850  10.580  12.851  -0.067  0.3010 -0.2259 -0.8014
  4844G12c C02989851  10.694  12.862  -0.156 -0.5929 -0.8380  0.4026
  4844G12c H01089852  10.798  12.834  -0.145 -0.7253 -0.9956  1.2820
  4844G12c C02T89853  10.667  12.909  -0.293 -0.1461 -1.1822 -0.4153
  4844G12c H01O89854  10.755  12.926  -0.353  0.7642  0.1542  1.2374
  4844G12c C02S89855  10.553  12.974  -0.319  1.2813  0.8026  0.1341
  4844G12c O00J89856  10.565  13.056  -0.435  0.3167 -0.0337  0.6188
  4844G12c H01P89857  10.558  13.014  -0.519 -1.6396 -1.5610  1.4743
  4844G12c C02R89858  10.447  12.968  -0.236  1.5787  0.4381  0.5959
  4844G12c O00I89859  10.333  13.019  -0.258 -1.5564  0.5878 -1.4125
  4844G12c C02Q89860  10.334  13.162  -0.310 -1.2722  1.2439 -0.4499
  4844G12c H01N89861  10.429  13.215  -0.313 -1.9900  2.5749 -0.2012
  4844G12c H01R89862  10.301  13.176  -0.208  2.1580  3.4674  0.4399
  4844G12c H01Q89863  10.307  13.130  -0.411  2.2306  2.3908 -1.8327
  4844G12c C02A89864  10.458  12.902  -0.112  0.7553  0.3625  0.2869
  4844G12c H01189865  10.381  12.888  -0.037 -3.1793  4.1143 -2.7178
  4844G12c C00C89866  10.477  12.489   0.202 -0.1152 -0.3473  0.3322
  4844G12c H01289867  10.459  12.580   0.146  5.0487 -0.3686 -1.6006
  4844G12c C00B89868  10.390  12.376   0.227 -0.5920 -0.1921 -2.1127
  4844G12c C00A89869  10.243  12.385   0.224 -0.6514  1.3540 -0.2396
  4844G12c C00989870  10.155  12.490   0.272  1.1811 -0.6028 -0.9263
  4844G12c C00889871  10.175  12.587   0.377  1.0818 -0.6622  0.5087
  4844G12c H01389872  10.277  12.614   0.403  1.3416  3.9176 -4.4383
  4844G12c C00789873  10.065  12.602   0.471  1.8253  2.4517 -0.6450
  4844G12c H01489874  10.078  12.652   0.566  5.6364 -1.0320  0.8276
  4844G12c C00689875   9.938  12.528   0.461 -1.0378 -1.3447  0.4794
  4844G12c C00589876   9.936  12.420   0.368 -0.9150  0.5057 -0.2242
  4844G12c C00489877   9.832  12.325   0.369  1.1004  0.4920  0.1891
  4844G12c C00389878   9.862  12.187   0.325 -0.4056 -0.6894  1.9669
  4844G12c C00289879   9.758  12.105   0.336  0.2336 -0.3588 -0.7668
  4844G12c C00189880   9.766  11.954   0.306  1.4205 -0.7767  0.1626
  4844G12c C00M89881   9.881  11.864   0.325 -0.6285 -0.5508 -0.0285
  4844G12c C00L89882  10.000  11.882   0.270 -0.3983  0.4508 -1.1590
  4844G12c C00R89883  10.128  11.823   0.304  0.3311  1.3348 -0.6389
  4844G12c C00Q89884  10.157  11.702   0.395  1.5123 -1.4079  0.7607
  4844G12c C00V89885  10.297  11.687   0.428 -1.6460  0.3918  0.1445
  4844G12c C00U89886  10.386  11.787   0.389  1.6154 -1.2666  0.3231
  4844G12c C00T89887  10.351  11.900   0.305 -1.3290  1.2623 -2.1137
  4844G12c C01689888  10.419  12.022   0.294  1.1630 -0.7288 -0.4499
  4844G12c C01589889  10.550  12.020   0.335  0.5443 -2.5927  0.9501
  4844G12c C01089890  10.605  11.892   0.339  1.8714 -1.0006  0.0113
  4844G12c C01189891  10.735  11.866   0.313  1.2406 -1.0564  0.3978
  4844G12c H00589892  10.751  11.763   0.281  5.6116 -0.1724 -0.5963
  4844G12c C01289893  10.826  11.968   0.297  0.5317  0.9677  1.1567
  4844G12c C01789894  10.964  11.932   0.247  0.8472  0.5972  0.2898
  4844G12c O00289895  10.979  11.931   0.110 -0.3947  0.1734 -1.3945
  4844G12c H00489896  10.910  11.978   0.067 -4.5142 -0.8718  3.5053
  4844G12c C01889897  11.073  11.938   0.315 -1.1060  0.3620 -1.1018
  4844G12c O00189898  11.081  11.961   0.461  1.3704  0.7063 -0.2864
  4844G12c H00389899  10.996  11.992   0.489  1.1637 -3.3313  4.2743
  4844G12c C01989900  11.186  11.868   0.261  0.6995 -1.2032 -0.2750
  4844G12c H00289901  11.135  11.773   0.248  0.2835 -0.7334 -2.2156
  4844G12c H00189902  11.230  11.888   0.164  1.0533  2.2126  0.5198
  4844G12c O00089903  11.310  11.855   0.339  1.8052  0.1764 -0.7702
  4844G12c C01A89904  11.331  11.727   0.393 -0.6256 -0.9801  1.2887
  4844G12c C02K89905  11.415  11.633   0.327 -0.3341  0.4420  0.3970
  4844G12c O00G89906  11.464  11.671   0.208 -1.2490 -1.8709  0.1328
  4844G12c C02M89907  11.594  11.666   0.143  0.3751  1.1033  0.5586
  4844G12c H01G89908  11.573  11.559   0.141 -3.0239  1.5619  4.3341
  4844G12c H01F89909  11.673  11.706   0.206  1.6310  0.3763 -0.5214
  4844G12c H01E89910  11.593  11.720   0.048 -6.6874  3.5253  1.6920
  4844G12c C02J89911  11.465  11.516   0.376  1.0076  2.6539 -1.1465
  4844G12c H01H89912  11.546  11.452   0.343 -1.4113 -0.3249 -1.5328
  4844G12c C02I89913  11.410  11.482   0.500  1.3151  0.8953  1.4710
  4844G12c C02N89914  11.462  11.360   0.556  0.2964 -0.4130  1.3025
  4844G12c H01M89915  11.569  11.370   0.569  0.9692 -1.3945 -2.8143
  4844G12c C02O89916  11.397  11.227   0.562  0.5188 -0.5742  0.4985
  4844G12c H01L89917  11.455  11.143   0.595  1.1985 -1.4428 -2.7107
  4844G12c C02P89918  11.247  11.218   0.511  0.0320  0.3926  0.4602
  4844G12c H01K89919  11.212  11.298   0.445 -5.1283 -0.9812  1.3253
  4844G12c H01J89920  11.233  11.113   0.485  4.4949 -0.3037  0.4363
  4844G12c O00H89921  11.153  11.236   0.618  1.4654 -1.0499 -0.8104
  4844G12c H01I89922  11.168  11.327   0.637  2.3731 -1.2402 -0.5978
  4844G12c C02H89923  11.336  11.565   0.565  1.3125  0.9671  0.2501
  4844G12c H01C89924  11.315  11.559   0.670  1.2689 -4.1086  0.0490
  4844G12c C02L89925  11.281  11.686   0.510  0.3146 -0.0751  0.4834
  4844G12c H01D89926  11.203  11.743   0.558 -4.8412 -0.5586 -6.4682
  4844G12c C01389927  10.777  12.095   0.313  0.8232 -0.0929  1.3077
  4844G12c H00089928  10.845  12.178   0.303 -1.5627  1.5579 -2.3697
  4844G12c C01489929  10.633  12.119   0.322  0.0777 -0.3239  0.7057
  4844G12c C00F89930  10.580  12.238   0.292  0.4353  0.2503  0.6761
  4844G12c C00H89931  10.372  12.140   0.261  0.2240  1.5152 -0.8764
  4844G12c C00I89932  10.240  12.143   0.212  0.2791  0.2881 -0.6183
  4844G12c C00J89933  10.180  12.008   0.205 -0.1755  1.4338  0.5717
  4844G12c C00Z89934  10.525  11.772   0.376 -2.2376  1.7647  1.4866
  4844G12c C00Y89935  10.579  11.652   0.412 -0.4924 -0.7718  0.0763
  4844G12c H00689936  10.684  11.633   0.430  0.2815 -2.2974 -5.3764
  4844G12c C00X89937  10.490  11.550   0.443 -1.4088  0.8820  1.0850
  4844G12c O00389938  10.516  11.404   0.487 -0.2908 -0.8788 -0.5109
  4844G12c C01B89939  10.649  11.334   0.486  1.1287  0.0500  0.8106
  4844G12c H00989940  10.642  11.235   0.533  0.0180  2.5573  6.2981
  4844G12c H00889941  10.696  11.346   0.388  0.6887 -2.2793  0.2603
  4844G12c H00789942  10.719  11.386   0.552 -3.0204  2.7593  3.2471
  4844G12c C00W89943  10.348  11.562   0.442  0.0923  0.2085  0.3448
  4844G12c O00489944  10.255  11.478   0.488 -0.1094  0.7974  0.0184
  4844G12c C01C89945  10.126  11.524   0.547  0.5175  0.6671  1.4866
  4844G12c H00A89946  10.056  11.442   0.558 -0.9122  1.5225 -0.7473
  4844G12c C00P89947  10.068  11.623   0.471 -0.9351 -1.1439  0.0194
  4844G12c C00O89948   9.923  11.655   0.485 -0.5652  0.1417  0.3029
  4844G12c C01D89949   9.842  11.589   0.604  0.6847  0.6332 -1.2446
  4844G12c H00S89950   9.881  11.533   0.687  0.8138 -1.0348 -2.4056
  4844G12c C01E89951   9.716  11.641   0.644  0.1288  0.6694  0.8780
  4844G12c O00889952   9.643  11.588   0.730 -0.1503  0.1978  0.8303
  4844G12c C01V89953   9.615  11.466   0.700  0.5546 -1.8668  2.1165
  4844G12c C01Z89954   9.585  11.383   0.825 -0.0721  0.3165 -0.6729
  4844G12c H00R89955   9.528  11.295   0.797  1.4191 -0.0234 -2.7948
  4844G12c H00Q89956   9.517  11.446   0.883 -0.3557 -2.8087  2.5860
  4844G12c O00989957   9.678  11.377   0.936  0.1180 -0.8761  1.8196
  4844G12c H00P89958   9.719  11.292   0.938  2.6253  0.2977  5.0084
  4844G12c C01W89959   9.535  11.426   0.595  1.2182  1.4177 -2.0250
  4844G12c H00O89960   9.559  11.486   0.508  2.9076 -0.0026 -2.5548
  4844G12c C01X89961   9.463  11.301   0.538  0.7277  0.4500  0.8236
  4844G12c H00N89962   9.514  11.272   0.446  2.0857  1.8936  1.1051
  4844G12c H00M89963   9.463  11.207   0.593 -2.6690 -1.7624 -2.6983
  4844G12c C01Y89964   9.315  11.316   0.500 -1.2299  0.1507  1.8540
  4844G12c C02D89965   9.252  11.251   0.382 -1.3169  0.3814 -0.0480
  4844G12c H01989966   9.321  11.218   0.306 -2.8989  5.3912 -3.9269
  4844G12c C02C89967   9.122  11.231   0.376  0.3280  0.7424  0.8016
  4844G12c H01A89968   9.049  11.209   0.299 -3.7145  2.8036  3.7946
  4844G12c C02B89969   9.042  11.307   0.451  0.6506 -1.9351 -1.5320
  4844G12c O00E89970   8.909  11.284   0.434  0.2118 -0.6258  2.1314
  4844G12c H01B89971   8.844  11.344   0.468  1.1302  0.4674  1.9490
  4844G12c C02F89972   9.090  11.400   0.554 -0.8274 -1.3132 -0.5610
  4844G12c O00F89973   8.991  11.474   0.623 -1.3979 -0.2052 -0.6500
  4844G12c C02G89974   8.914  11.415   0.743 -1.3469  0.0265 -1.3105
  4844G12c H01789975   8.944  11.454   0.841  4.7158 -1.9969 -2.1106
  4844G12c H01689976   8.978  11.327   0.747 -2.4476 -0.7355 -0.1203
  4844G12c H01589977   8.813  11.412   0.783  0.9602  6.7062  6.4953
  4844G12c C02E89978   9.235  11.398   0.585  0.4340 -0.1368 -1.4893
  4844G12c H01889979   9.270  11.449   0.673 -4.0744 -1.7073  1.3649
  4844G12c C01F89980   9.664  11.748   0.583  0.4544 -2.0751  0.6586
  4844G12c C01G89981   9.569  11.833   0.637 -1.7648  0.2183 -1.4691
  4844G12c H00L89982   9.509  11.787   0.713 -7.9291 -0.2613 -6.1816
  4844G12c C01H89983   9.553  11.963   0.595  1.6968 -0.7219 -1.1085
  4844G12c H00B89984   9.473  12.013   0.647 -0.9781 -3.1155 -2.8536
  4844G12c C01I89985   9.614  12.008   0.476  1.0709 -1.0511  0.9030
  4844G12c C01U89986   9.733  11.792   0.466  0.1231 -0.1298 -0.0822
  4844G12c C00S89987  10.233  11.897   0.256 -0.2347  0.2877 -0.4872
  4844G12c C00K89988  10.034  12.016   0.226  0.9572  1.2974  0.6742
  4844G12c C00N89989   9.860  11.765   0.424  0.0744  1.0785  0.6611
  4844G12c C00089990   9.668  11.899   0.396  0.3470 -0.3204  0.0354
  4844G12c C01J89991   9.637  12.138   0.410 -0.2797 -0.6315  0.8551
  4844G12c C01K89992   9.616  12.275   0.467  2.0586 -0.5316 -0.6965
  4844G12c C01P89993   9.496  12.331   0.540  0.3646 -0.9827 -0.2357
  4844G12c C01Q89994   9.378  12.254   0.557 -0.8623 -0.5358  0.4274
  4844G12c H00G89995   9.403  12.197   0.644 -2.7705  6.8912  6.4258
  4844G12c C01R89996   9.274  12.263   0.474  0.5137  0.0408 -1.0254
  4844G12c H00F89997   9.249  12.352   0.419  3.3985  1.6437  0.1134
  4844G12c C01S89998   9.155  12.163   0.470  0.8241 -1.4510  0.7981
  4844G12c H00E89999   9.067  12.214   0.508  0.4779  0.6007 -2.5237
  4844G12c H00D90000   9.158  12.101   0.381 -3.6931 -0.5021 -0.1175
  4844G12c O00590001   9.191  12.058   0.561  1.7756 -0.7166 -1.1080
  4844G12c H00C90002   9.137  11.987   0.528  1.2412  0.3123 -2.4801
  4844G12c C01O90003   9.491  12.461   0.611  0.4448 -1.0857  0.4573
  4844G12c H00H90004   9.406  12.469   0.678  2.3835  3.5665  2.5429
  4844G12c C01N90005   9.624  12.526   0.602 -0.5118 -2.6278 -0.8328
  4844G12c O00690006   9.626  12.646   0.690  1.5044 -0.8561 -0.5126
  4844G12c C01T90007   9.614  12.760   0.602  1.0494  0.7276 -0.0959
  4844G12c H00K90008   9.710  12.792   0.561  0.3156  0.4986 -2.0635
  4844G12c H00J90009   9.575  12.770   0.500 -3.4125  5.4881  1.8595
  4844G12c H00I90010   9.581  12.859   0.635  0.6448  0.5200  0.1182
  4844G12c C01M90011   9.725  12.479   0.517 -0.6286  0.6276 -0.8667
  4844G12c C02090012   9.983  12.146   0.257  0.7380  0.6399 -0.0911
  4844G12c C02190013  10.038  12.270   0.210 -0.4904  0.1444  0.4935
  4844G12c C01L90014   9.718  12.359   0.439 -1.0268  0.4318 -0.8533
  4844G12c O00790015   9.842  12.534   0.556  0.1492 -0.1745  0.2379
  4844G12c C02290016  10.029  12.403   0.269 -2.6663  0.8451  0.4332
  4844G12c C02390017  10.177  12.260   0.209 -0.7993  0.1380  1.0347
  4844G12c C00G90018  10.454  12.250   0.260  1.2274  0.9843  0.5286
  4844G12c C00E90019  10.669  12.341   0.248 -0.1973 -1.7133 -0.3013
  4844G12c O00A90020  10.785  12.377   0.312  0.3111  1.9617  0.4967
  4844G12c C02490021  10.824  12.500   0.363  0.3454 -0.3174 -0.9017
  4844G12c H00V90022  10.790  12.531   0.462  2.5960 -3.4051  0.9097
  4844G12c H00U90023  10.931  12.508   0.343  1.6392  0.4881  5.2119
  4844G12c H00T90024  10.793  12.604   0.349  5.5717  2.2186  4.1321
  4854G12c C00D90025   9.004   1.525  10.423  0.6630 -0.3236 -0.0670
  4854G12c O00B90026   9.015   1.574  10.554 -0.0577 -1.2006  1.2839
  4854G12c C02590027   8.916   1.642  10.619 -0.0118 -0.5285 -2.8429
  4854G12c C02690028   8.785   1.569  10.639 -1.8748  0.3901  1.1209
  4854G12c H00Y90029   8.710   1.603  10.710 -5.2434  0.5815 -2.3748
  4854G12c H00X90030   8.814   1.472  10.679  2.9368  1.5776  0.7932
  4854G12c O00C90031   8.721   1.592  10.514 -0.3813  1.4879 -0.3008
  4854G12c H00W90032   8.628   1.576  10.505 -0.4161  2.4977 -1.8480
  4854G12c C02790033   8.931   1.769  10.647 -0.2533  0.1357 -0.0373
  4854G12c O00D90034   9.029   1.841  10.605  0.1893 -0.0716 -0.8002
  4854G12c H00Z90035   9.074   1.792  10.538 -1.6866  0.2576 -2.3392
  4854G12c C02890036   8.826   1.834  10.729 -0.6988  0.4336 -0.1349
  4854G12c C02990037   8.742   1.937  10.667  0.2139  0.4555 -0.2870
  4854G12c H01090038   8.760   1.973  10.567 -3.7289  4.2273  0.2187
  4854G12c C02T90039   8.633   2.001  10.735  0.0285 -1.0749 -0.5983
  4854G12c H01O90040   8.586   2.083  10.683 -4.3403 -4.7875 -2.8709
  4854G12c C02S90041   8.618   1.977  10.881 -1.2092 -0.4089  0.3246
  4854G12c O00J90042   8.490   2.005  10.926 -0.1763 -0.0215  0.3091
  4854G12c H01P90043   8.497   2.011  11.020 -3.0715 -1.5534  0.6855
  4854G12c C02R90044   8.702   1.890  10.952 -1.5166 -0.1125 -1.4971
  4854G12c O00I90045   8.676   1.865  11.083  0.5973  1.6575 -0.4611
  4854G12c C02Q90046   8.750   1.772  11.160 -0.8604  3.2422  0.2357
  4854G12c H01N90047   8.689   1.686  11.188 -0.5562  3.6403  2.2332
  4854G12c H01R90048   8.730   1.816  11.258 -3.2104 -0.0664  1.3609
  4854G12c H01Q90049   8.846   1.737  11.122 -2.4642  0.2038 -1.1805
  4854G12c C02A90050   8.795   1.825  10.869 -0.9051 -0.7182 -1.9983
  4854G12c H01190051   8.872   1.759  10.908 -2.1733 -1.9037 -1.4377
  4854G12c C00C90052   8.975   1.587  10.314  0.7020 -1.3988 -1.9297
  4854G12c H01290053   8.957   1.693  10.328  3.2948 -1.5369  4.0625
  4854G12c C00B90054   8.990   1.533  10.189 -0.1531  0.2285 -0.4478
  4854G12c C00A90055   9.005   1.613  10.061  0.1428  0.5658 -0.8208
  4854G12c C00990056   8.942   1.737  10.021 -0.2400  0.0692 -1.6042
  4854G12c C00890057   8.889   1.855  10.092  1.4501 -1.3553 -0.0011
  4854G12c H01390058   8.909   1.866  10.197  5.7959  0.7243 -0.9391
  4854G12c C00790059   8.859   1.964   9.998  0.9457  0.9433 -0.5068
  4854G12c H01490060   8.845   2.059  10.048  0.1188 -1.4842  4.1438
  4854G12c C00690061   8.823   1.948   9.864 -2.1355  2.1283  0.8101
  4854G12c C00590062   8.856   1.813   9.813  1.7502  0.8433 -0.8109
  4854G12c C00490063   8.834   1.772   9.682  0.0903  2.5219 -1.3415
  4854G12c C00390064   8.872   1.640   9.627 -0.3965  0.5536 -0.9146
  4854G12c C00290065   8.831   1.618   9.489 -0.4732 -1.0505  1.2444
  4854G12c C00190066   8.817   1.492   9.404  0.0521 -0.8346  0.5882
  4854G12c C00M90067   8.801   1.362   9.469  0.5768  0.8013  0.2660
  4854G12c C00L90068   8.877   1.317   9.587  0.3455  0.6181 -0.7314
  4854G12c C00R90069   8.854   1.204   9.665 -1.3596  0.6910  0.1563
  4854G12c C00Q90070   8.747   1.105   9.654  0.3665 -0.0846 -2.2053
  4854G12c C00V90071   8.757   1.012   9.770  0.2005  0.2847  0.2730
  4854G12c C00U90072   8.829   1.033   9.897  1.6256  0.4234 -1.0889
  4854G12c C00T90073   8.916   1.138   9.903 -0.7841  1.1810  0.0051
  4854G12c C01690074   8.944   1.200  10.029  1.7956 -1.0821 -1.7619
  4854G12c C01590075   8.929   1.120  10.139  1.7801  0.4228 -1.2253
  4854G12c C01090076   8.866   0.985  10.122 -1.4681 -1.7135  0.6644
  4854G12c C01190077   8.864   0.895  10.232 -0.8328 -0.0311  0.9589
  4854G12c H00590078   8.828   0.795  10.215 -3.3882  1.6670 -4.8032
  4854G12c C01290079   8.897   0.950  10.352  0.4476 -1.4462 -0.7679
  4854G12c C01790080   8.879   0.876  10.473 -1.6797 -1.1256 -0.0972
  4854G12c O00290081   8.776   0.923  10.553 -1.3471 -0.6117 -0.0653
  4854G12c H00490082   8.754   1.014  10.566 -3.0128 -0.4369 -3.4938
  4854G12c C01890083   8.933   0.758  10.479  0.6600  1.7622  1.4712
  4854G12c O00190084   8.892   0.659  10.564  1.0941  0.0790  1.8051
  4854G12c H00390085   8.846   0.635  10.485 -2.2471 -1.2064  4.0101
  4854G12c C01990086   9.038   0.702  10.384  1.9076  0.2018  0.9918
  4854G12c H00290087   9.084   0.770  10.313 -0.3748 -4.2843 -5.1895
  4854G12c H00190088   9.126   0.691  10.447  3.9644 -0.1343 -1.8871
  4854G12c O00090089   9.001   0.605  10.288 -1.2769 -0.3342  1.5872
  4854G12c C01A90090   9.063   0.492  10.308 -0.5612 -0.3373  0.2638
  4854G12c C02K90091   9.197   0.459  10.286  0.6860 -0.1191  0.4650
  4854G12c O00G90092   9.292   0.558  10.292  1.4266 -0.5027  0.3326
  4854G12c C02M90093   9.325   0.605  10.158  0.8347 -0.6568 -1.4053
  4854G12c H01G90094   9.342   0.514  10.100 -3.2964 -1.3422 -1.7313
  4854G12c H01F90095   9.431   0.627  10.169  0.8228 -0.3870 -1.8363
  4854G12c H01E90096   9.250   0.669  10.110  1.7613 -2.4307 -5.4196
  4854G12c C02J90097   9.232   0.317  10.284 -1.6513  2.5307 -1.7823
  4854G12c H01H90098   9.337   0.295  10.297 -2.0131  1.4619 -0.5625
  4854G12c C02I90099   9.132   0.221  10.280  0.5342  0.1986  0.8079
  4854G12c C02N90100   9.163   0.078  10.284  1.5986 -0.8919  0.2741
  4854G12c H01M90101   9.143   0.032  10.380  3.7425  2.0845  2.2387
  4854G12c C02O90102   9.248   0.027  10.198 -1.0777 -2.8715 -1.1962
  4854G12c H01L90103   9.292   0.052  10.102  3.5422 -0.7105  1.3204
  4854G12c C02P90104   9.297  -0.101  10.256  1.8956  0.9024 -0.1352
  4854G12c H01K90105   9.232  -0.158  10.323 -2.8916 -0.1654 -5.3582
  4854G12c H01J90106   9.267  -0.174  10.181  2.6874  3.3821 -2.9246
  4854G12c O00H90107   9.431  -0.102  10.292 -0.1793  1.4397 -0.5217
  4854G12c H01I90108   9.458  -0.011  10.289 -0.8187  1.9546  4.6629
  4854G12c C02H90109   9.007   0.262  10.258  1.2462  0.7719  0.4615
  4854G12c H01C90110   8.933   0.191  10.226 -2.0336  4.0399  0.4191
  4854G12c C02L90111   8.960   0.391  10.289 -0.7880  0.4806  0.4483
  4854G12c H01D90112   8.854   0.412  10.299 -0.7219  5.0538 -5.2324
  4854G12c C01390113   8.970   1.081  10.366  1.5135 -0.4499  0.4923
  4854G12c H00090114   9.004   1.104  10.466 -2.1091  0.8943  1.4918
  4854G12c C01490115   8.973   1.173  10.267  0.4689 -1.0339  1.8904
  4854G12c C00F90116   8.998   1.315  10.278 -0.1595  0.4298  0.5932
  4854G12c C00H90117   8.979   1.335  10.046 -1.5102  0.0467 -3.2159
  4854G12c C00I90118   8.992   1.399   9.930 -2.5984  0.1777  1.2141
  4854G12c C00J90119   8.977   1.329   9.802 -0.3976 -0.3004  0.0705
  4854G12c C00Z90120   8.835   0.935   9.998  0.2706 -0.7978 -0.8589
  4854G12c C00Y90121   8.798   0.801   9.972  0.1806  0.7129  0.7302
  4854G12c H00690122   8.783   0.729  10.051  5.7638 -3.2162 -1.5062
  4854G12c C00X90123   8.717   0.779   9.867 -1.1962 -0.2497  0.9664
  4854G12c O00390124   8.685   0.650   9.819 -0.6443  0.4702 -1.2229
  4854G12c C01B90125   8.807   0.574   9.800 -0.5576  1.4362  0.4392
  4854G12c H00990126   8.884   0.587   9.876  1.7177  0.1322 -1.5815
  4854G12c H00890127   8.829   0.640   9.717 -2.8751  3.8731  1.6795
  4854G12c H00790128   8.759   0.479   9.776 -2.2930  1.2994  4.0280
  4854G12c C00W90129   8.681   0.888   9.772 -0.7593 -1.0329 -0.1389
  4854G12c O00490130   8.611   0.850   9.664 -0.6630  0.7757 -0.4271
  4854G12c C01C90131   8.563   0.965   9.588 -1.5312 -1.1194  0.2556
  4854G12c H00A90132   8.462   0.975   9.624 -4.5604 -0.9215 -7.5090
  4854G12c C00P90133   8.644   1.081   9.554  0.8038 -0.0036 -1.3859
  4854G12c C00O90134   8.613   1.185   9.465  0.3488 -1.9505  1.4250
  4854G12c C01D90135   8.474   1.173   9.398  0.1324  0.3400  0.3974
  4854G12c H00S90136   8.405   1.097   9.430 -3.2475  2.5747 -1.3309
  4854G12c C01E90137   8.400   1.288   9.340  0.1619  1.0278 -0.8268
  4854G12c O00890138   8.259   1.298   9.302  0.9131  1.0648  1.2831
  4854G12c C01V90139   8.159   1.234   9.380  1.2282  1.3035  0.3594
  4854G12c C01Z90140   8.102   1.103   9.325 -0.7673 -0.9440 -1.6418
  4854G12c H00R90141   8.099   1.015   9.390 -1.1696 -3.0135 -4.3387
  4854G12c H00Q90142   7.993   1.111   9.315 -0.8496 -5.5820 -6.8570
  4854G12c O00990143   8.161   1.013   9.220 -0.0353 -1.1562  0.9513
  4854G12c H00P90144   8.087   0.974   9.176 -3.7483  1.8104  4.1588
  4854G12c C01W90145   8.125   1.267   9.504 -0.0614  0.8686 -0.4265
  4854G12c H00O90146   8.176   1.350   9.552 -1.9528  1.6272  0.3339
  4854G12c C01X90147   8.018   1.194   9.594 -0.8851 -1.8619 -0.1289
  4854G12c H00N90148   7.970   1.290   9.607  3.7484  1.0993 -3.4340
  4854G12c H00M90149   7.953   1.131   9.533 -8.8081  0.1222  5.4460
  4854G12c C01Y90150   8.070   1.127   9.719 -0.5763 -0.1437  0.3569
  4854G12c C02D90151   8.180   1.173   9.793  0.1177 -0.5266 -0.8381
  4854G12c H01990152   8.262   1.234   9.757  1.7327 -5.4386 -6.3342
  4854G12c C02C90153   8.189   1.127   9.923  1.6843  0.3391 -0.2012
  4854G12c H01A90154   8.281   1.137   9.979  1.5327 -2.8047  0.6915
  4854G12c C02B90155   8.092   1.042   9.996  0.5454 -0.5189 -0.0423
  4854G12c O00E90156   8.111   0.998  10.125  0.5045 -1.0288 -1.2324
  4854G12c H01B90157   8.028   0.976  10.163  1.8002  4.6392  6.1084
  4854G12c C02F90158   7.999   0.999   9.916  0.9742 -0.3794  0.4343
  4854G12c O00F90159   7.883   0.959   9.982  1.8197  0.2396  0.6447
  4854G12c C02G90160   7.755   1.011   9.932 -1.0101  1.0456 -0.5195
  4854G12c H01790161   7.673   0.939   9.931 -1.3264  1.3901 -4.5885
  4854G12c H01690162   7.742   1.112   9.972 -2.6709  0.0257  1.6520
  4854G12c H01590163   7.762   1.007   9.824 -5.8239  4.5671 -1.0918
  4854G12c C02E90164   8.002   1.011   9.773  0.1825 -0.7021 -0.6734
  4854G12c H01890165   7.929   0.967   9.706  2.1534  1.7135 -4.5604
  4854G12c C01F90166   8.475   1.396   9.340 -0.3690 -0.9971 -0.1838
  4854G12c C01G90167   8.416   1.527   9.340 -1.5195  1.1601 -0.7353
  4854G12c H00L90168   8.309   1.542   9.344 -2.3958 -3.1147 -4.4181
  4854G12c C01H90169   8.511   1.645   9.355  0.0299 -1.8999 -0.2072
  4854G12c H00B90170   8.447   1.731   9.339  0.1145  0.0196  7.5590
  4854G12c C01I90171   8.654   1.643   9.335 -2.7033 -1.1995  1.8195
  4854G12c C01U90172   8.615   1.395   9.342 -1.0548  0.1914 -0.5749
  4854G12c C00S90173   8.910   1.219   9.789  0.8110 -0.0322 -0.2125
  4854G12c C00K90174   8.939   1.408   9.682  0.1955  0.3071  1.1640
  4854G12c C00N90175   8.682   1.300   9.422  0.6847 -0.1097 -1.4538
  4854G12c C00090176   8.709   1.516   9.319 -0.4873 -2.4779 -0.5501
  4854G12c C01J90177   8.751   1.711   9.421  0.8426  0.7076  0.9825
  4854G12c C01K90178   8.703   1.846   9.469 -1.4381 -0.0940  0.0145
  4854G12c C01P90179   8.644   1.953   9.396  1.0296 -0.4712 -0.0220
  4854G12c C01Q90180   8.613   1.962   9.259  0.5244 -0.9917 -2.2357
  4854G12c H00G90181   8.527   1.904   9.229 -0.0895 -0.0937 -2.2291
  4854G12c C01R90182   8.670   2.063   9.184  1.7375 -1.2385  0.7438
  4854G12c H00F90183   8.733   2.128   9.243 -0.7580  2.9519 -1.0294
  4854G12c C01S90184   8.629   2.098   9.034  1.1065  0.9067 -0.7076
  4854G12c H00E90185   8.537   2.059   8.991  2.2133 -2.7689  0.0964
  4854G12c H00D90186   8.591   2.195   9.002 -5.4622 -1.2640 -0.2266
  4854G12c O00590187   8.745   2.085   8.967 -0.5783  0.6702  2.8985
  4854G12c H00C90188   8.767   2.167   8.925  6.4472 -0.5477  3.5984
  4854G12c C01O90189   8.604   2.071   9.470 -0.4199  0.1875  2.5320
  4854G12c H00H90190   8.523   2.133   9.433  4.2016  2.7360 -4.4754
  4854G12c C01N90191   8.658   2.113   9.587 -0.1957  1.7841  0.3026
  4854G12c O00690192   8.647   2.240   9.646 -0.3744  2.0681  0.6999
  4854G12c C01T90193   8.573   2.359   9.580 -2.0499  0.9782 -1.1454
  4854G12c H00K90194   8.635   2.409   9.506 -0.2436 -4.6838 -3.7643
  4854G12c H00J90195   8.598   2.431   9.658  4.6595 -0.1794 -1.9508
  4854G12c H00I90196   8.473   2.347   9.539 -3.6939 -1.0915  3.0454
  4854G12c C01M90197   8.730   2.008   9.653 -1.5624 -2.0231 -0.2623
  4854G12c C02090198   8.925   1.549   9.708 -1.8405  1.9704  0.1087
  4854G12c C02190199   8.994   1.610   9.834  0.8858  1.5848  1.0081
  4854G12c C01L90200   8.757   1.876   9.606 -0.8120  0.1935  1.6173
  4854G12c O00790201   8.770   2.042   9.785 -0.4480  0.5004  0.0889
  4854G12c C02290202   8.925   1.721   9.885 -0.3234  0.1876 -0.4181
  4854G12c C02390203   9.007   1.534   9.944  0.3779 -0.2361  0.4422
  4854G12c C00G90204   8.997   1.395  10.163 -0.0607 -1.2205 -1.6801
  4854G12c C00E90205   9.037   1.382  10.403  1.1648 -0.2873 -2.6358
  4854G12c O00A90206   9.086   1.292  10.511  1.2773 -1.5610 -0.2379
  4854G12c C02490207   9.206   1.324  10.599  1.1752 -1.2873  0.3362
  4854G12c H00V90208   9.220   1.427  10.631  5.8910 -1.8702  0.5051
  4854G12c H00U90209   9.258   1.261  10.671  1.6188 -2.1031 -0.6838
  4854G12c H00T90210   9.282   1.330  10.520  1.4872  1.0747  0.7574
  4864G12c C00D90211   1.410   8.771  11.829  0.2517 -0.8183 -0.4494
  4864G12c O00B90212   1.423   8.880  11.924 -1.2314 -0.7138 -0.8847
  4864G12c C02590213   1.356   8.867  12.055 -1.3240 -0.8482 -1.3527
  4864G12c C02690214   1.303   9.002  12.100 -0.3375 -0.4982  0.5714
  4864G12c H00Y90215   1.254   8.997  12.197 -1.9872 -2.7233 -0.3334
  4864G12c H00X90216   1.224   9.031  12.030  0.2881  0.3101  0.1939
  4864G12c O00C90217   1.399   9.111  12.124 -0.2047 -0.9613 -0.1829
  4864G12c H00W90218   1.454   9.145  12.054  0.0837  3.3688  1.9882
  4864G12c C02790219   1.359   8.749  12.129 -2.1329 -0.1042 -0.2773
  4864G12c O00D90220   1.272   8.731  12.235  0.0226  1.0300 -0.3450
  4864G12c H00Z90221   1.218   8.798  12.274 -5.6550  0.6261 -6.7126
  4864G12c C02890222   1.460   8.666  12.107 -0.0559  0.9815 -0.4438
  4864G12c C02990223   1.589   8.687  12.065 -0.4425 -0.5914 -0.4250
  4864G12c H01090224   1.630   8.782  12.035  2.9723 -2.4081 -1.7616
  4864G12c C02T90225   1.688   8.579  12.067  0.5283 -0.6729 -1.0319
  4864G12c H01O90226   1.771   8.602  12.002  0.5087 -2.6267 -1.8011
  4864G12c C02S90227   1.673   8.479  12.159 -0.2267  0.5219 -0.7467
  4864G12c O00J90228   1.790   8.403  12.199  1.1123 -0.0330  0.1188
  4864G12c H01P90229   1.756   8.320  12.228 -4.2443  1.4410 -1.3605
  4864G12c C02R90230   1.551   8.450  12.215  1.9117  1.3347 -1.0462
  4864G12c O00I90231   1.533   8.370  12.323 -0.5279  1.0020 -0.5288
  4864G12c C02Q90232   1.478   8.243  12.284 -0.8491 -0.8066 -1.3729
  4864G12c H01N90233   1.572   8.211  12.242  0.2958  4.1934 -3.0240
  4864G12c H01R90234   1.422   8.202  12.368  1.8332 -4.3694 -1.2565
  4864G12c H01Q90235   1.416   8.249  12.194 -4.1009  0.6945  0.8251
  4864G12c C02A90236   1.443   8.532  12.166  0.0400 -1.1698  1.2703
  4864G12c H01190237   1.344   8.515  12.207 -2.3173  0.8670 -3.1451
  4864G12c C00C90238   1.289   8.693  11.828  0.2957 -0.3327 -1.6601
  4864G12c H01290239   1.225   8.712  11.913  0.3399  0.4231 -1.7908
  4864G12c C00B90240   1.266   8.615  11.721 -0.4324 -0.8347  1.2976
  4864G12c C00A90241   1.149   8.528  11.698  0.3312  0.4050  0.9896
  4864G12c C00990242   1.036   8.521  11.775 -1.2213  1.2728 -0.7305
  4864G12c C00890243   1.011   8.545  11.903  0.3404 -0.5297  0.5299
  4864G12c H01390244   1.065   8.616  11.964  3.2359 -3.6605  1.8116
  4864G12c C00790245   0.908   8.459  11.980 -0.3145 -0.3694  1.8408
  4864G12c H01490246   0.906   8.477  12.086  0.2605  7.9647  0.8014
  4864G12c C00690247   0.840   8.363  11.900  2.5482  2.1495 -1.6232
  4864G12c C00590248   0.869   8.351  11.777  0.8963 -1.2600 -2.2439
  4864G12c C00490249   0.806   8.244  11.707  1.7854  0.7316 -0.5520
  4864G12c C00390250   0.870   8.210  11.584  0.1103 -1.0906  0.7693
  4864G12c C00290251   0.830   8.092  11.514  1.0975  0.5434  0.6394
  4864G12c C00190252   0.893   8.019  11.421  1.0260  2.0294 -0.1437
  4864G12c C00M90253   1.038   7.999  11.401  1.2068 -0.0191  2.4052
  4864G12c C00L90254   1.134   8.107  11.388 -0.4018  0.9599  0.3235
  4864G12c C00R90255   1.274   8.110  11.376  0.0062  1.3687 -1.6793
  4864G12c C00Q90256   1.360   8.000  11.367 -0.6449 -0.5476  0.3904
  4864G12c C00V90257   1.499   8.046  11.377 -0.7772 -0.4608  0.4335
  4864G12c C00U90258   1.534   8.171  11.428 -0.3995 -0.9467 -0.7299
  4864G12c C00T90259   1.441   8.271  11.443 -0.0094  0.0631 -1.0233
  4864G12c C01690260   1.460   8.393  11.508 -0.6373 -0.5427 -0.8849
  4864G12c C01590261   1.593   8.430  11.543  1.0451  0.5117  0.3385
  4864G12c C01090262   1.703   8.337  11.507  0.2729 -0.1942  0.5529
  4864G12c C01190263   1.822   8.356  11.571  0.2315 -0.5268  1.2883
  4864G12c H00590264   1.903   8.296  11.532 -1.5394  0.0490 -3.6910
  4864G12c C01290265   1.840   8.474  11.642 -1.7250 -0.5458 -0.3953
  4864G12c C01790266   1.967   8.505  11.692  1.5464  2.0109 -1.6619
  4864G12c O00290267   2.045   8.412  11.727 -1.1002 -1.3377 -0.8582
  4864G12c H00490268   2.099   8.464  11.785 -5.5575 -3.2209  5.6763
  4864G12c C01890269   2.012   8.641  11.708 -1.0987 -0.0730  0.3786
  4864G12c O00190270   1.940   8.764  11.690  1.5127 -0.7737 -0.5197
  4864G12c H00390271   1.977   8.809  11.616 -3.2811  9.4989  2.4040
  4864G12c C01990272   2.162   8.677  11.708  1.1781  0.3310 -1.7606
  4864G12c H00290273   2.168   8.773  11.761 -0.1454  1.0751 -2.9146
  4864G12c H00190274   2.204   8.620  11.790  1.0656  0.5468 -1.5509
  4864G12c O00090275   2.188   8.657  11.570  0.7479  0.2337  1.0068
  4864G12c C01A90276   2.272   8.756  11.525 -0.1496  1.6841 -1.1323
  4864G12c C02K90277   2.194   8.871  11.478 -0.2466 -0.5308 -1.9713
  4864G12c O00G90278   2.060   8.889  11.510  0.0472 -0.2571  0.7925
  4864G12c C02M90279   1.986   9.018  11.492  0.3003  0.3495 -0.8660
  4864G12c H01G90280   1.955   9.031  11.389  3.0981  1.7988 -1.5717
  4864G12c H01F90281   2.060   9.093  11.521 -3.7191  3.9729  0.5807
  4864G12c H01E90282   1.901   9.041  11.556  0.4744 -1.7518  0.1785
  4864G12c C02J90283   2.269   8.955  11.387 -1.4176  0.5682  1.4189
  4864G12c H01H90284   2.213   9.041  11.354  2.9977  2.1988 -2.4083
  4864G12c C02I90285   2.389   8.914  11.332 -1.3095 -0.5721  0.2931
  4864G12c C02N90286   2.478   9.000  11.232  0.8164 -0.8311  0.8426
  4864G12c H01M90287   2.586   9.010  11.235  0.8946 -1.5959  7.7355
  4864G12c C02O90288   2.411   9.099  11.157 -0.0025 -0.9768 -1.2114
  4864G12c H01L90289   2.304   9.098  11.164  0.1130 -2.7359  0.9108
  4864G12c C02P90290   2.446   9.242  11.097  0.3610  1.3167  0.7006
  4864G12c H01K90291   2.456   9.249  10.989 -5.0310 -1.5264 -0.1706
  4864G12c H01J90292   2.358   9.305  11.111 -1.0686  1.9778 -8.4177
  4864G12c O00H90293   2.582   9.276  11.136 -0.8589  0.0350  0.1434
  4864G12c H01I90294   2.598   9.254  11.226 -1.0484 -0.6064  0.0257
  4864G12c C02H90295   2.452   8.792  11.400 -0.3850 -0.7924 -0.1079
  4864G12c H01C90296   2.550   8.775  11.358 -0.5370  3.7812 -2.6541
  4864G12c C02L90297   2.403   8.730  11.515  1.0453  1.7161 -0.6484
  4864G12c H01D90298   2.470   8.660  11.563 -3.0998 -0.9456  1.6438
  4864G12c C01390299   1.735   8.558  11.681 -0.7658  1.4440 -1.1118
  4864G12c H00090300   1.752   8.613  11.772  1.5690  1.5732 -1.5973
  4864G12c C01490301   1.602   8.537  11.634  0.0424  0.7402 -1.4061
  4864G12c C00F90302   1.499   8.611  11.671  0.1614  0.5434 -0.0860
  4864G12c C00H90303   1.354   8.467  11.556 -0.0808 -0.1868  1.0696
  4864G12c C00I90304   1.212   8.424  11.510  0.0461  1.6455  0.2401
  4864G12c C00J90305   1.204   8.323  11.410  0.8793  1.4502  1.0378
  4864G12c C00Z90306   1.668   8.207  11.458  2.3224 -0.1831 -0.0389
  4864G12c C00Y90307   1.764   8.113  11.443  1.7794  0.3734 -0.0251
  4864G12c H00690308   1.854   8.141  11.496  1.2186 -2.2880  2.4849
  4864G12c C00X90309   1.735   7.983  11.405 -0.5280  0.4748  0.6273
  4864G12c O00390310   1.835   7.882  11.429 -1.3701 -0.8788 -0.1137
  4864G12c C01B90311   1.952   7.897  11.349  0.9237 -0.8281  0.2976
  4864G12c H00990312   1.921   7.975  11.279  2.6312 -2.9300 -2.9183
  4864G12c H00890313   1.934   7.821  11.272  0.3044 -3.9098  3.3392
  4864G12c H00790314   2.045   7.933  11.392 -2.1799  3.8652  3.4894
  4864G12c C00W90315   1.598   7.950  11.367 -0.3423  1.8481 -0.3690
  4864G12c O00490316   1.573   7.821  11.321 -0.7656  0.0333 -0.6888
  4864G12c C01C90317   1.442   7.784  11.309 -1.5009  0.8328 -0.9037
  4864G12c H00A90318   1.424   7.689  11.359 -0.0160  2.6104  3.2121
  4864G12c C00P90319   1.328   7.860  11.367 -0.2432 -0.4405  0.6619
  4864G12c C00O90320   1.206   7.788  11.410  0.2964  0.7299  0.2269
  4864G12c C01D90321   1.208   7.653  11.455  2.7470  1.3738 -1.1735
  4864G12c H00S90322   1.289   7.586  11.433  3.3793  3.4953 -5.8578
  4864G12c C01E90323   1.080   7.600  11.493 -0.2037  0.4972  0.9921
  4864G12c O00890324   1.063   7.472  11.520  0.1407 -1.4694  1.9954
  4864G12c C01V90325   1.111   7.451  11.644 -0.7446 -0.0702 -0.2517
  4864G12c C01Z90326   1.087   7.539  11.784  1.2916 -0.8817 -1.2386
  4864G12c H00R90327   1.096   7.644  11.758  0.7317  0.2685  2.9320
  4864G12c H00Q90328   0.992   7.514  11.831 -0.3288  4.6632 -1.2190
  4864G12c O00990329   1.171   7.516  11.868 -1.2123 -0.1689  1.8557
  4864G12c H00P90330   1.258   7.512  11.831 -1.9913 -4.3811  0.1519
  4864G12c C01W90331   1.183   7.334  11.672 -0.7377 -1.9386 -0.2840
  4864G12c H00O90332   1.199   7.310  11.776  0.2768  4.3381  1.1717
  4864G12c C01X90333   1.202   7.246  11.552  0.0035  1.1803  0.2883
  4864G12c H00N90334   1.208   7.158  11.616  1.1758 -1.9255 -3.8888
  4864G12c H00M90335   1.102   7.215  11.519  0.9327 -0.3887 -1.1287
  4864G12c C01Y90336   1.299   7.258  11.442  1.3142  1.7506 -0.7581
  4864G12c C02D90337   1.258   7.256  11.312 -0.4792 -0.2595  0.6741
  4864G12c H01990338   1.159   7.274  11.273  0.6388 -1.1513 -2.7841
  4864G12c C02C90339   1.357   7.279  11.204 -0.5577 -0.1581  0.5622
  4864G12c H01A90340   1.338   7.286  11.098 -3.6552  2.8350  1.2441
  4864G12c C02B90341   1.490   7.330  11.233 -0.9795  2.0058  0.0810
  4864G12c O00E90342   1.576   7.317  11.122  0.6652  0.3400 -1.3551
  4864G12c H01B90343   1.585   7.364  11.041  2.8390 -5.8891 -5.0597
  4864G12c C02F90344   1.522   7.314  11.367  0.3293 -0.5653 -1.2275
  4864G12c O00F90345   1.635   7.284  11.423  0.0629 -0.5955  1.4297
  4864G12c C02G90346   1.751   7.320  11.353 -1.1210  0.5891  1.3063
  4864G12c H01790347   1.754   7.409  11.290 -0.0080 -1.9277 -2.3118
  4864G12c H01690348   1.789   7.249  11.280 -5.4263  2.3254 -2.8325
  4864G12c H01590349   1.835   7.304  11.421  2.1866 -3.2521 -3.3641
  4864G12c C02E90350   1.426   7.281  11.472 -2.3035 -0.5407  1.9593
  4864G12c H01890351   1.467   7.225  11.556 -1.1992 -4.5367 -1.0725
  4864G12c C01F90352   0.961   7.671  11.499 -2.4921  0.1519 -0.4248
  4864G12c C01G90353   0.854   7.646  11.595 -0.4044 -0.6343  1.3197
  4864G12c H00L90354   0.856   7.555  11.653 -1.6616 -3.0437 -2.2434
  4864G12c C01H90355   0.745   7.736  11.623 -0.2786  0.4303 -0.3304
  4864G12c H00B90356   0.669   7.713  11.696  3.7037 -0.6581  3.6947
  4864G12c C01I90357   0.762   7.864  11.555  1.6400  0.1048 -0.6752
  4864G12c C01U90358   0.962   7.793  11.437  0.2417 -0.0790 -0.0460
  4864G12c C00S90359   1.311   8.244  11.405  0.0542  0.2483 -1.1418
  4864G12c C00K90360   1.081   8.241  11.427  0.4524 -0.0984  1.5320
  4864G12c C00N90361   1.081   7.861  11.416  1.0637  1.1566 -0.7466
  4864G12c C00090362   0.847   7.882  11.454 -0.1036  1.0533  0.7152
  4864G12c C01J90363   0.729   8.009  11.585 -0.2231  0.3471  0.3331
  4864G12c C01K90364   0.641   8.060  11.699  1.5857 -0.3556 -0.3640
  4864G12c C01P90365   0.530   8.000  11.758 -0.2343  1.2568  1.6733
  4864G12c C01Q90366   0.468   7.894  11.681 -0.4643 -2.5518 -1.9294
  4864G12c H00G90367   0.500   7.864  11.582  2.3407 -1.1342 -1.4790
  4864G12c C01R90368   0.369   7.823  11.741 -1.3593  0.2466 -2.3279
  4864G12c H00F90369   0.319   7.843  11.835 -0.7433 -2.6637 -1.3179
  4864G12c C01S90370   0.318   7.681  11.700  0.1416  0.6712 -0.3984
  4864G12c H00E90371   0.369   7.622  11.776  2.0692  1.4760 -1.0437
  4864G12c H00D90372   0.215   7.688  11.734  1.6300  4.5209  3.9372
  4864G12c O00590373   0.366   7.632  11.567 -0.7076  0.0928 -0.8946
  4864G12c H00C90374   0.390   7.543  11.589 -3.1841  0.7301  5.4680
  4864G12c C01O90375   0.489   8.048  11.882 -0.4694  0.8470  0.8248
  4864G12c H00H90376   0.402   8.020  11.940 -0.1494 -3.2553 -0.5535
  4864G12c C01N90377   0.548   8.154  11.952 -2.0590 -0.5707  0.5973
  4864G12c O00690378   0.500   8.216  12.072  0.9013 -0.2845 -0.6021
  4864G12c C01T90379   0.361   8.222  12.078  0.2230  0.6234 -1.7034
  4864G12c H00K90380   0.335   8.116  12.073  3.5912 -0.1602 -4.7162
  4864G12c H00J90381   0.311   8.263  11.991  4.8496  0.8587 -4.4375
  4864G12c H00I90382   0.302   8.233  12.169  1.5050 -0.9513 -0.6533
  4864G12c C01M90383   0.664   8.212  11.885  0.6822  0.3477  0.5304
  4864G12c C02090384   0.973   8.303  11.519 -0.6444  0.2101 -1.9198
  4864G12c C02190385   0.986   8.436  11.570  0.1635 -1.3571 -0.9331
  4864G12c C01L90386   0.706   8.176  11.757 -0.1871  0.9787 -1.0555
  4864G12c O00790387   0.762   8.275  11.956  0.2262  0.8549  0.2924
  4864G12c C02290388   0.943   8.444  11.702 -0.6432 -0.8549  1.4555
  4864G12c C02390389   1.110   8.498  11.566  1.9346  0.2394  0.4470
  4864G12c C00G90390   1.366   8.578  11.642 -1.0566 -0.4529 -1.1895
  4864G12c C00E90391   1.506   8.746  11.738  0.2670  2.1165 -1.8228
  4864G12c O00A90392   1.631   8.813  11.728  0.7452  0.9471 -0.3881
  4864G12c C02490393   1.682   8.946  11.742 -0.8269 -0.1172  1.0693
  4864G12c H00V90394   1.706   8.976  11.844  6.4890  4.3509 -1.5463
  4864G12c H00U90395   1.581   8.987  11.745  0.6704  3.8510  0.6621
  4864G12c H00T90396   1.730   9.004  11.663 -1.3148 -0.7558  0.2948
  4874G12c C00D90397   8.966  10.826  13.359 -0.1064  0.9318 -0.0518
  4874G12c O00B90398   8.987  10.697  13.313  0.7500  0.9066 -0.4022
  4874G12c C02590399   8.914  10.623  13.224 -1.1976  1.1589 -0.7908
  4874G12c C02690400   8.807  10.515  13.271 -0.2874 -0.9183  0.8597
  4874G12c H00Y90401   8.753  10.447  13.205  0.7514 -7.7105  6.3337
  4874G12c H00X90402   8.740  10.544  13.352  1.3125  1.9899  1.1940
  4874G12c O00C90403   8.894  10.427  13.353  0.3244 -1.4627 -0.1295
  4874G12c H00W90404   8.880  10.463  13.439  3.6626 -0.7343  0.1761
  4874G12c C02790405   8.927  10.658  13.096  0.3050  1.5395  0.7361
  4874G12c O00D90406   9.028  10.735  13.042 -0.2219  0.8380 -0.8547
  4874G12c H00Z90407   9.076  10.668  13.089 -1.7438 -0.7736 -1.5048
  4874G12c C02890408   8.854  10.575  12.998  0.6453 -0.1423 -1.0047
  4874G12c C02990409   8.855  10.447  12.978 -1.4311  2.5521  1.2625
  4874G12c H01090410   8.911  10.395  13.054 -2.8440  7.5419  6.0480
  4874G12c C02T90411   8.786  10.380  12.864  1.7886  0.5743 -0.2605
  4874G12c H01O90412   8.804  10.273  12.868  6.9527  1.3718  4.5156
  4874G12c C02S90413   8.706  10.459  12.782  0.5978 -1.2284  1.0132
  4874G12c O00J90414   8.638  10.416  12.682 -1.5046 -0.1620 -0.4171
  4874G12c H01P90415   8.650  10.483  12.617  0.2702 -1.2982 -1.3076
  4874G12c C02R90416   8.672  10.604  12.821 -0.2328 -0.3275  0.9507
  4874G12c O00I90417   8.592  10.683  12.748 -0.7594  0.7172 -0.3054
  4874G12c C02Q90418   8.449  10.675  12.771 -0.3722 -0.0755 -2.8860
  4874G12c H01N90419   8.438  10.578  12.724  1.3840 -1.2566 -0.9206
  4874G12c H01R90420   8.387  10.725  12.697 -4.0699 -2.1124 -1.3004
  4874G12c H01Q90421   8.420  10.718  12.867 -2.2753 -3.2699 -1.9840
  4874G12c C02A90422   8.757  10.644  12.925  2.0014  1.4163 -1.2768
  4874G12c H01190423   8.766  10.750  12.945 -4.7184  2.2730 -1.8089
  4874G12c C00C90424   8.860  10.902  13.341 -0.2209 -1.5645 -0.2388
  4874G12c H01290425   8.773  10.877  13.282  0.8050 -0.0249 -2.4913
  4874G12c C00B90426   8.845  11.047  13.374  1.1567  1.2071 -1.0527
  4874G12c C00A90427   8.766  11.158  13.316  0.4606 -1.4225  1.7523
  4874G12c C00990428   8.737  11.158  13.186  0.3600  0.4256 -0.0700
  4874G12c C00890429   8.792  11.084  13.078 -0.7803  1.4120  0.8358
  4874G12c H01390430   8.840  10.989  13.096  1.8213  3.1418  3.3099
  4874G12c C00790431   8.804  11.136  12.937 -0.7680 -1.4973 -0.3188
  4874G12c H01490432   8.834  11.072  12.856 -1.5389 -8.3140  4.4004
  4874G12c C00690433   8.781  11.279  12.925  0.7248  0.5326  0.8924
  4874G12c C00590434   8.752  11.344  13.031 -1.1457  0.0058  0.7993
  4874G12c C00490435   8.769  11.482  13.026 -0.5300  0.4222  0.6815
  4874G12c C00390436   8.764  11.572  13.144  1.1775  1.0928 -0.7788
  4874G12c C00290437   8.773  11.712  13.136  1.3454  1.1026  0.6419
  4874G12c C00190438   8.767  11.817  13.231  0.0852  0.0553 -0.4917
  4874G12c C00M90439   8.869  11.800  13.333 -0.4929  0.4030  0.3006
  4874G12c C00L90440   8.874  11.697  13.437 -0.7903  0.6575  0.9218
  4874G12c C00R90441   8.994  11.651  13.504 -2.1095  0.7916  0.4090
  4874G12c C00Q90442   9.118  11.719  13.513  1.2608 -0.6730  1.1256
  4874G12c C00V90443   9.213  11.631  13.588  2.0756 -1.3968  0.3963
  4874G12c C00U90444   9.194  11.497  13.605 -1.6064 -0.4962  0.3407
  4874G12c C00T90445   9.085  11.437  13.559  1.2179 -0.2755  0.4890
  4874G12c C01690446   9.061  11.300  13.548  0.5869  1.4840 -0.0982
  4874G12c C01590447   9.160  11.212  13.598 -0.2693  0.5761 -0.5740
  4874G12c C01090448   9.272  11.274  13.650  0.3034 -0.2946  3.1986
  4874G12c C01190449   9.384  11.186  13.686  0.3038 -0.2877  1.4027
  4874G12c H00590450   9.485  11.215  13.710  3.5047 -7.8258 -1.3124
  4874G12c C01290451   9.363  11.046  13.665  0.5313 -1.8720  0.9202
  4874G12c C01790452   9.466  10.962  13.701 -0.9747  0.2377 -1.0190
  4874G12c O00290453   9.524  10.891  13.604 -0.3269  0.5815 -1.3030
  4874G12c H00490454   9.556  10.805  13.627  1.6130  0.6404 -3.5736
  4874G12c C01890455   9.476  10.921  13.831 -2.6931  1.0411  0.3755
  4874G12c O00190456   9.382  10.963  13.928  0.2065  0.9978 -0.2705
  4874G12c H00390457   9.374  11.056  13.912 -0.3456  1.3376  1.8022
  4874G12c C01990458   9.569  10.808  13.886 -1.3153 -0.0542  0.9956
  4874G12c H00290459   9.670  10.807  13.846 -4.4465  5.1189 -8.7351
  4874G12c H00190460   9.612  10.861  13.970  3.6348  3.8362 -3.6157
  4874G12c O00090461   9.515  10.700  13.900 -0.6658  0.0935 -0.3385
  4874G12c C01A90462   9.598  10.596  13.955 -1.9695 -0.8602  1.6932
  4874G12c C02K90463   9.704  10.497  13.914 -0.0781  0.8607 -0.9417
  4874G12c O00G90464   9.795  10.518  13.823  0.5033  0.1596  1.5421
  4874G12c C02M90465   9.717  10.540  13.695  0.4510  1.2443  2.8715
  4874G12c H01G90466   9.808  10.548  13.636 -2.2517  3.0849 -1.3180
  4874G12c H01F90467   9.644  10.466  13.664  0.0193  3.6298 -2.4644
  4874G12c H01E90468   9.690  10.643  13.671  3.1352  1.3657  0.0164
  4874G12c C02J90469   9.685  10.367  13.975 -0.4209  0.4373 -2.0164
  4874G12c H01H90470   9.772  10.303  13.973 -5.0221 -6.4619 -0.6902
  4874G12c C02I90471   9.582  10.326  14.064 -0.8404  0.6207 -3.1208
  4874G12c C02N90472   9.504  10.202  14.046 -2.2963  0.5314  0.0676
  4874G12c H01M90473   9.498  10.131  14.128 -1.5948  1.9550  1.3681
  4874G12c C02O90474   9.413  10.197  13.946 -0.1431  0.6977 -1.4808
  4874G12c H01L90475   9.361  10.103  13.935  2.5264 -1.3265  1.9162
  4874G12c C02P90476   9.396  10.293  13.826 -0.7787 -1.2337 -0.2134
  4874G12c H01K90477   9.498  10.332  13.813 -0.9730  0.4381  2.7494
  4874G12c H01J90478   9.374  10.220  13.749  0.3782 -2.1213  0.2939
  4874G12c O00H90479   9.284  10.370  13.862 -1.0857 -0.2332  0.8619
  4874G12c H01I90480   9.323  10.456  13.869 -3.2968  1.6206 -6.2968
  4874G12c C02H90481   9.519  10.436  14.125  0.7503  2.2369 -2.0469
  4874G12c H01C90482   9.443  10.415  14.199  4.0368 -3.9842 -0.0743
  4874G12c C02L90483   9.532  10.565  14.078 -0.8611 -0.7185 -0.9863
  4874G12c H01D90484   9.461  10.646  14.092  4.5045  3.6906  2.6025
  4874G12c C01390485   9.247  10.997  13.619 -1.2421 -1.9928  0.2717
  4874G12c H00090486   9.246  10.889  13.609 -1.7226 -2.0977  1.3130
  4874G12c C01490487   9.145  11.077  13.577 -0.4756  0.0290 -0.6710
  4874G12c C00F90488   9.042  11.027  13.499 -0.0664  1.4433 -0.0364
  4874G12c C00H90489   8.942  11.248  13.482  0.3033  0.3265  2.3777
  4874G12c C00I90490   8.840  11.344  13.454  0.2811  0.7725 -0.0240
  4874G12c C00J90491   8.857  11.472  13.475 -0.1188 -0.4654 -0.6134
  4874G12c C00Z90492   9.289  11.414  13.659 -0.3548  0.2031  3.0729
  4874G12c C00Y90493   9.397  11.471  13.726 -2.3503 -0.7792  0.7406
  4874G12c H00690494   9.488  11.434  13.771 -2.1204  0.2773  1.1621
  4874G12c C00X90495   9.425  11.605  13.708 -0.1457 -1.0721  1.2601
  4874G12c O00390496   9.542  11.644  13.779  0.0721  0.6258 -1.1980
  4874G12c C01B90497   9.620  11.743  13.694 -0.3825  1.1008  1.0746
  4874G12c H00990498   9.613  11.714  13.589 -0.5790  1.2440  1.0477
  4874G12c H00890499   9.723  11.716  13.716 -1.6910 -0.4631  6.0674
  4874G12c H00790500   9.585  11.843  13.719  0.6534  1.6007  0.5348
  4874G12c C00W90501   9.339  11.683  13.625  0.4019  1.0398  2.3967
  4874G12c O00490502   9.373  11.819  13.613  0.4872  0.0319 -2.0240
  4874G12c C01C90503   9.302  11.868  13.503  1.6016  1.3102 -0.6155
  4874G12c H00A90504   9.341  11.955  13.453 -1.0457  1.9647 -1.6115
  4874G12c C00P90505   9.165  11.844  13.467 -0.8458  0.0568  0.1589
  4874G12c C00O90506   9.080  11.929  13.382 -1.7448  1.1072 -0.8523
  4874G12c C01D90507   9.146  12.037  13.320  1.3815  0.9140 -0.8610
  4874G12c H00S90508   9.239  12.070  13.364  0.8456 -4.1696  4.5979
  4874G12c C01E90509   9.101  12.124  13.214  0.8064  0.4076 -0.1488
  4874G12c O00890510   9.207  12.200  13.148 -0.4283  0.8034 -0.2118
  4874G12c C01V90511   9.180  12.337  13.135 -0.0513  0.8752  0.0129
  4874G12c C01Z90512   9.152  12.385  13.003  0.6542 -1.0691 -0.2312
  4874G12c H00R90513   9.224  12.375  12.922 -1.7784 -4.6949 -2.0698
  4874G12c H00Q90514   9.080  12.312  12.968  0.9651 -1.1681 -0.6688
  4874G12c O00990515   9.094  12.513  12.998  1.1886  0.2317  0.4571
  4874G12c H00P90516   9.124  12.542  13.083 -0.3903 -1.1886  1.5393
  4874G12c C01W90517   9.186  12.437  13.237  0.1338 -1.5852 -0.7829
  4874G12c H00O90518   9.143  12.531  13.207  2.6327  0.8954  2.9631
  4874G12c C01X90519   9.232  12.453  13.383  0.4342  0.7611  1.4884
  4874G12c H00N90520   9.328  12.410  13.411  2.5723  1.1512 -4.4376
  4874G12c H00M90521   9.244  12.559  13.403  5.6336  0.3500  1.3209
  4874G12c C01Y90522   9.109  12.421  13.466  0.9510  0.0493  1.9786
  4874G12c C02D90523   9.127  12.450  13.610 -0.7865 -0.3182 -1.1190
  4874G12c H01990524   9.225  12.464  13.653 -0.0195  1.4521 -3.3756
  4874G12c C02C90525   9.020  12.460  13.700 -0.1147  0.7712  0.1552
  4874G12c H01A90526   9.042  12.482  13.804  2.7041 -0.7403 -0.0567
  4874G12c C02B90527   8.888  12.442  13.647  0.5363 -0.0803  0.1929
  4874G12c O00E90528   8.793  12.469  13.744 -0.7170  1.5650 -0.7470
  4874G12c H01B90529   8.707  12.430  13.740 -1.1358  2.1127  2.0785
  4874G12c C02F90530   8.857  12.402  13.509 -0.6024  0.3910 -1.3599
  4874G12c O00F90531   8.745  12.432  13.451  0.9922 -0.6941 -0.7766
  4874G12c C02G90532   8.697  12.582  13.474  1.0452 -0.6009  1.4355
  4874G12c H01790533   8.635  12.584  13.384 -0.4167 -0.3409  2.4201
  4874G12c H01690534   8.786  12.639  13.449  0.2795 -1.5953 -4.3627
  4874G12c H01590535   8.650  12.603  13.570 -5.6553  2.6928 -2.1563
  4874G12c C02E90536   8.974  12.395  13.422 -0.7290  1.3588 -0.1656
  4874G12c H01890537   8.957  12.373  13.318  3.9341  1.7480 -1.1084
  4874G12c C01F90538   9.002  12.045  13.135 -0.4341  0.8733  0.5680
  4874G12c C01G90539   8.996  12.029  12.997  0.5684  0.7232 -0.2074
  4874G12c H00L90540   9.067  12.076  12.930  0.9373 -2.9955 -2.6057
  4874G12c C01H90541   8.917  11.949  12.934 -0.4682 -1.1862  1.3967
  4874G12c H00B90542   8.888  11.947  12.830 -3.4014  2.1759  2.0522
  4874G12c C01I90543   8.814  11.890  12.999  0.3559 -0.5056 -0.4762
  4874G12c C01U90544   8.907  11.971  13.205  0.8988 -0.2532  1.9701
  4874G12c C00S90545   8.987  11.519  13.505  0.2854  0.3870  2.2910
  4874G12c C00K90546   8.804  11.577  13.387 -0.2187 -0.8299 -0.3349
  4874G12c C00N90547   8.958  11.915  13.326 -0.9405 -0.2572  1.6643
  4874G12c C00090548   8.788  11.931  13.147  0.8724  1.0669  1.8878
  4874G12c C01J90549   8.791  11.751  13.006  0.9219 -0.9458 -0.2295
  4874G12c C01K90550   8.787  11.680  12.885 -0.0498  0.1960 -1.4847
  4874G12c C01P90551   8.758  11.726  12.759 -1.1680 -1.0010 -0.1916
  4874G12c C01Q90552   8.681  11.842  12.707 -0.7707  1.8203  0.4106
  4874G12c H00G90553   8.677  11.910  12.624  0.3503  6.1151  3.6732
  4874G12c C01R90554   8.553  11.834  12.742 -0.6005  1.5209 -1.1212
  4874G12c H00F90555   8.487  11.909  12.701 -3.3504  1.6795  3.2757
  4874G12c C01S90556   8.492  11.715  12.818  0.0953 -1.1251  0.6056
  4874G12c H00E90557   8.384  11.735  12.819  0.1102 -0.6178 -2.6648
  4874G12c H00D90558   8.507  11.699  12.924  6.9358 -3.5054 -0.5096
  4874G12c O00590559   8.500  11.601  12.742  0.0562  1.0463  0.1948
  4874G12c H00C90560   8.411  11.616  12.715 -0.2606 -4.1635 -2.1568
  4874G12c C01O90561   8.770  11.645  12.645  0.8634 -0.9741 -1.0739
  4874G12c H00H90562   8.800  11.685  12.550  7.3167  0.6924  1.4447
  4874G12c C01N90563   8.788  11.510  12.657  0.5178 -0.1436 -0.3283
  4874G12c O00690564   8.819  11.419  12.556 -0.8246  0.6716  0.2797
  4874G12c C01T90565   8.732  11.410  12.434  0.9488 -2.5413  0.6874
  4874G12c H00K90566   8.658  11.490  12.423  2.9073 -1.1773 -3.7185
  4874G12c H00J90567   8.656  11.340  12.469  2.0978 -4.1414  0.0408
  4874G12c H00I90568   8.789  11.379  12.347  0.1229 -1.2511 -0.3254
  4874G12c C01M90569   8.799  11.460  12.793 -0.6380 -1.1734  0.4589
  4874G12c C02090570   8.743  11.515  13.269  0.7441  1.2045 -0.5369
  4874G12c C02190571   8.692  11.379  13.272  0.8838  0.2513 -0.2623
  4874G12c C01L90572   8.792  11.544  12.897 -0.8184  0.4935 -1.5190
  4874G12c O00790573   8.865  11.333  12.817  2.3740 -1.0959  0.0019
  4874G12c C02290574   8.715  11.298  13.160  0.2605  0.8982 -1.1957
  4874G12c C02390575   8.741  11.291  13.364  0.3537  0.7578 -0.4563
  4874G12c C00G90576   8.938  11.103  13.460 -0.1171  0.9644 -1.1377
  4874G12c C00E90577   9.048  10.877  13.458 -0.3985  1.1961  0.0755
  4874G12c O00A90578   9.123  10.764  13.511  1.3040 -1.2728  1.7164
  4874G12c C02490579   9.221  10.690  13.444 -0.1969 -1.2160 -2.7749
  4874G12c H00V90580   9.265  10.778  13.397  1.5917 -1.3065 -1.3346
  4874G12c H00U90581   9.202  10.632  13.353  2.0611  0.6663 -4.5011
  4874G12c H00T90582   9.273  10.657  13.534 -6.1349  3.5651  2.9229
  4884G12c C00D90583  10.739   9.368   4.179 -0.6553 -0.1720 -1.7510
  4884G12c O00B90584  10.784   9.302   4.288  0.0667  0.9038  1.2846
  4884G12c C02590585  10.720   9.209   4.371  1.4151 -0.2520 -1.1571
  4884G12c C02690586  10.733   9.068   4.329 -0.9720  0.8042  0.2566
  4884G12c H00Y90587  10.717   9.069   4.221 -3.0739 -1.2639  0.5109
  4884G12c H00X90588  10.674   8.995   4.384  0.8645  2.6767  4.9508
  4884G12c O00C90589  10.861   9.032   4.325  1.3614 -0.1714 -1.7983
  4884G12c H00W90590  10.905   9.115   4.320 -4.9114  3.3433 -5.1956
  4884G12c C02790591  10.671   9.236   4.489  1.5980 -0.5474  1.6655
  4884G12c O00D90592  10.630   9.140   4.574 -0.3996  3.0137 -0.2582
  4884G12c H00Z90593  10.709   9.097   4.602 -0.2956  1.0647 -3.3574
  4884G12c C02890594  10.670   9.362   4.565 -0.4797 -0.0936  0.1285
  4884G12c C02990595  10.574   9.415   4.652 -0.5016 -0.5392  1.4193
  4884G12c H01090596  10.474   9.374   4.651 -2.7231  4.4796  2.3532
  4884G12c C02T90597  10.591   9.526   4.740  0.5432  0.6757  1.0191
  4884G12c H01O90598  10.507   9.574   4.789  1.2102 -3.1852  6.4292
  4884G12c C02S90599  10.718   9.588   4.732  0.4622 -0.5397 -0.6754
  4884G12c O00J90600  10.730   9.678   4.834 -1.6466  0.3749  0.7373
  4884G12c H01P90601  10.750   9.743   4.768  2.2845 -2.4366 -1.0267
  4884G12c C02R90602  10.823   9.547   4.652  0.6346  0.7264 -0.0100
  4884G12c O00I90603  10.945   9.622   4.651 -0.9193 -0.1286  0.8742
  4884G12c C02Q90604  11.070   9.557   4.623 -0.1994  0.5052  0.5237
  4884G12c H01N90605  11.110   9.608   4.536  0.8300  0.6817  1.0935
  4884G12c H01R90606  11.087   9.449   4.624 -1.3308  0.3201  1.1164
  4884G12c H01Q90607  11.143   9.595   4.694  0.4130 -5.7334  3.6690
  4884G12c C02A90608  10.790   9.450   4.568 -0.8151 -1.2228  0.6833
  4884G12c H01190609  10.844   9.418   4.480  0.5241  2.4205  0.0951
  4884G12c C00C90610  10.632   9.302   4.107 -2.4218  2.5334  2.1089
  4884G12c H01290611  10.569   9.222   4.144 -0.3538 -0.0785  0.1932
  4884G12c C00B90612  10.592   9.342   3.981  1.2346  0.0317 -0.5974
  4884G12c C00A90613  10.514   9.283   3.887  0.5852  0.1270  1.3107
  4884G12c C00990614  10.498   9.133   3.879  0.1502 -2.3495 -0.9036
  4884G12c C00890615  10.514   9.023   3.974 -2.1800  0.1612  0.4187
  4884G12c H01390616  10.502   9.034   4.081  1.2580  6.1763  0.3849
  4884G12c C00790617  10.523   8.887   3.909  1.2537 -1.2250 -1.2457
  4884G12c H01490618  10.580   8.810   3.957 -4.5359 -4.1734  1.3696
  4884G12c C00690619  10.468   8.874   3.780  0.1989 -1.3936  0.7689
  4884G12c C00590620  10.423   8.996   3.710  0.0333  1.2407 -0.1838
  4884G12c C00490621  10.390   9.000   3.571 -0.0551  0.9054  0.1116
  4884G12c C00390622  10.399   9.128   3.496  1.8097  0.8486  0.2978
  4884G12c C00290623  10.397   9.113   3.354  1.0798 -0.2121 -0.7034
  4884G12c C00190624  10.381   9.204   3.243  0.4335  0.1920  1.7913
  4884G12c C00M90625  10.482   9.321   3.232  0.8687 -0.1725  0.3242
  4884G12c C00L90626  10.512   9.403   3.351 -0.3040 -0.4463 -0.4080
  4884G12c C00R90627  10.614   9.498   3.366  0.2562 -0.0781  0.0104
  4884G12c C00Q90628  10.724   9.559   3.287  0.7403 -1.7113 -1.3057
  4884G12c C00V90629  10.817   9.635   3.363 -1.1366 -0.6354 -2.1429
  4884G12c C00U90630  10.826   9.632   3.499  1.8697  0.2734 -0.2942
  4884G12c C00T90631  10.723   9.582   3.570  0.4355  0.9239  1.6472
  4884G12c C01690632  10.732   9.558   3.702  1.1473  0.4373  0.6134
  4884G12c C01590633  10.842   9.617   3.772  1.0614 -0.2380  0.2027
  4884G12c C01090634  10.944   9.671   3.699 -0.7886 -0.9256 -0.2259
  4884G12c C01190635  11.068   9.699   3.765  0.7634  0.0785 -0.4599
  4884G12c H00590636  11.149   9.731   3.702  4.4867  0.1723  4.1167
  4884G12c C01290637  11.071   9.731   3.902  0.4203 -0.9778  0.1884
  4884G12c C01790638  11.202   9.772   3.944  1.4779 -1.1640 -0.9598
  4884G12c O00290639  11.277   9.685   3.994 -1.5416  0.5239 -0.2996
  4884G12c H00490640  11.354   9.740   3.998 -2.4536  2.3695 -4.7434
  4884G12c C01890641  11.241   9.901   3.942  1.4716 -1.3232  0.1045
  4884G12c O00190642  11.168   9.987   3.859 -1.2270  0.1935  0.7003
  4884G12c H00390643  11.091  10.020   3.902 -3.2837 -3.1509 -0.1825
  4884G12c C01990644  11.372   9.954   3.997 -0.1767  0.8755  0.7183
  4884G12c H00290645  11.442   9.985   3.920 -5.4750 -0.5032 -4.9754
  4884G12c H00190646  11.337  10.057   4.004 -5.2769 -0.7373  0.4576
  4884G12c O00090647  11.438   9.903   4.107  0.6813 -0.7257 -0.9796
  4884G12c C01A90648  11.415   9.959   4.229  0.4201  0.4842 -0.4258
  4884G12c C02K90649  11.277   9.956   4.284  0.8513  0.5726  0.2196
  4884G12c O00G90650  11.181   9.869   4.239 -0.2779  1.4463  0.6211
  4884G12c C02M90651  11.065   9.859   4.318  1.8953 -0.8127 -0.8871
  4884G12c H01G90652  11.119   9.793   4.387 -1.2956  2.4029  5.1031
  4884G12c H01F90653  11.015   9.954   4.337  0.5059 -2.1598  2.6972
  4884G12c H01E90654  10.994   9.793   4.268 -2.2129  5.2544 -3.6565
  4884G12c C02J90655  11.261  10.025   4.406  0.2633 -0.2747 -0.6468
  4884G12c H01H90656  11.169  10.021   4.462  1.0242  1.9997  0.8090
  4884G12c C02I90657  11.371  10.095   4.478  0.2850 -0.3935  0.3696
  4884G12c C02N90658  11.352  10.137   4.616 -1.0093  0.6668  0.0571
  4884G12c H01M90659  11.323  10.068   4.694 -0.2125 -0.7335 -0.8677
  4884G12c C02O90660  11.373  10.271   4.650  0.7416  2.3859 -0.4319
  4884G12c H01L90661  11.395  10.300   4.548  0.0695 -3.7152 -2.5526
  4884G12c C02P90662  11.358  10.339   4.784 -0.8642  2.1601  1.7163
  4884G12c H01K90663  11.285  10.285   4.845 -3.4237 -0.6525 -3.4508
  4884G12c H01J90664  11.453  10.313   4.830 -1.8833 -4.2888  0.6216
  4884G12c O00H90665  11.391  10.474   4.798 -0.0332 -0.0483  0.0847
  4884G12c H01I90666  11.462  10.507   4.745 -2.6749  1.0450 -3.0059
  4884G12c C02H90667  11.479  10.107   4.412  1.9835 -2.0702 -1.0752
  4884G12c H01C90668  11.567  10.125   4.472  0.1453 -2.9872  2.0546
  4884G12c C02L90669  11.506  10.048   4.292 -0.7322  0.4208  0.5085
  4884G12c H01D90670  11.591  10.084   4.236  0.2648  0.6488  2.1239
  4884G12c C01390671  10.969   9.662   3.971  1.2854 -0.2783  1.4800
  4884G12c H00090672  10.963   9.671   4.078  5.4458  3.8139  1.5383
  4884G12c C01490673  10.857   9.595   3.907  0.7806 -0.1778 -0.0983
  4884G12c C00F90674  10.773   9.511   3.976  0.7064 -1.1446 -1.0410
  4884G12c C00H90675  10.632   9.493   3.783 -0.5722  0.3357 -1.7151
  4884G12c C00I90676  10.523   9.441   3.713  0.5441 -0.0005 -0.5051
  4884G12c C00J90677  10.511   9.471   3.572 -0.6161  0.6728  1.2399
  4884G12c C00Z90678  10.935   9.673   3.570 -0.1607  0.5038  1.7956
  4884G12c C00Y90679  11.023   9.759   3.487 -0.8198  0.0625  1.9801
  4884G12c H00690680  11.093   9.835   3.520 -2.0897  1.4101  1.6366
  4884G12c C00X90681  11.032   9.737   3.356  1.4694 -0.9520  0.2062
  4884G12c O00390682  11.131   9.803   3.284  0.9299  0.3349  1.1512
  4884G12c C01B90683  11.210   9.731   3.191  0.6606 -0.0867  2.1748
  4884G12c H00990684  11.274   9.817   3.168 -2.3415  1.5123 -0.6600
  4884G12c H00890685  11.152   9.723   3.099 -0.6365 -0.2370  3.0033
  4884G12c H00790686  11.272   9.643   3.206 -0.5306 -2.1585 -3.9028
  4884G12c C00W90687  10.928   9.687   3.296 -0.3184 -0.6342  0.7510
  4884G12c O00490688  10.957   9.670   3.165 -0.1973  1.5103 -1.8947
  4884G12c C01C90689  10.859   9.596   3.095 -0.5466 -1.3270 -0.7430
  4884G12c H00A90690  10.880   9.587   2.989  0.6310  5.3324 -1.2949
  4884G12c C00P90691  10.744   9.528   3.151 -0.9078 -0.1525 -1.1733
  4884G12c C00O90692  10.693   9.400   3.093 -1.4149 -1.0824 -1.2961
  4884G12c C01D90693  10.739   9.354   2.972 -0.1631  0.9774  0.9968
  4884G12c H00S90694  10.811   9.401   2.906  1.9373 -2.1718  0.9611
  4884G12c C01E90695  10.737   9.222   2.926 -1.4343 -1.0375  1.5338
  4884G12c O00890696  10.785   9.182   2.801 -0.3447  0.4810 -1.0682
  4884G12c C01V90697  10.887   9.092   2.804  0.1124  0.1992  2.2588
  4884G12c C01Z90698  11.024   9.144   2.847  0.5164 -0.2675 -0.7592
  4884G12c H00R90699  11.112   9.079   2.839  1.2896  1.2017 -5.6187
  4884G12c H00Q90700  11.038   9.245   2.811  3.0944 -0.0330  0.7135
  4884G12c O00990701  11.000   9.143   2.991 -1.9107 -0.3070  1.0948
  4884G12c H00P90702  10.958   9.059   3.001  3.5960 -3.0389  3.4833
  4884G12c C01W90703  10.869   8.974   2.756 -0.2847 -0.1676  0.7202
  4884G12c H00O90704  10.774   8.955   2.708 -1.5263  3.5758  1.5163
  4884G12c C01X90705  10.969   8.858   2.764 -0.6699 -1.2032  0.8654
  4884G12c H00N90706  10.945   8.827   2.662  2.4453  2.5634 -1.1618
  4884G12c H00M90707  11.076   8.873   2.744 -0.3052  0.6372  3.9714
  4884G12c C01Y90708  10.908   8.785   2.886  1.4555 -0.1584  0.6582
  4884G12c C02D90709  10.975   8.791   3.008  0.1090 -0.5082 -0.7190
  4884G12c H01990710  11.048   8.871   3.009  2.0046 -2.2020  2.0005
  4884G12c C02C90711  10.927   8.730   3.125 -0.4099  1.5935 -0.2447
  4884G12c H01A90712  10.943   8.777   3.221  3.3608  0.1844 -0.1148
  4884G12c C02B90713  10.816   8.641   3.112 -0.8802 -0.2467  0.1245
  4884G12c O00E90714  10.770   8.567   3.226 -1.0530  0.2990  0.9843
  4884G12c H01B90715  10.691   8.517   3.210 -4.6243  5.4950  0.8899
  4884G12c C02F90716  10.773   8.590   2.989  1.5111 -1.2652 -1.1918
  4884G12c O00F90717  10.662   8.522   2.968  0.6534  0.5266 -2.6104
  4884G12c C02G90718  10.663   8.460   2.846 -0.5630  0.6944 -0.7893
  4884G12c H01790719  10.749   8.393   2.855  3.3002  4.3635 -6.4945
  4884G12c H01690720  10.626   8.531   2.772 -0.1660  5.0412  2.9752
  4884G12c H01590721  10.562   8.420   2.856 -1.9944  4.1503 -0.8546
  4884G12c C02E90722  10.823   8.668   2.869  0.2259  0.2937  1.1749
  4884G12c H01890723  10.794   8.659   2.765  1.2790  1.7927  0.7342
  4884G12c C01F90724  10.651   9.130   2.991 -1.2963  0.0810  1.3278
  4884G12c C01G90725  10.638   8.983   2.977  1.2123  0.5639 -0.9863
  4884G12c H00L90726  10.723   8.928   2.939 -0.9346 -3.1982 -0.5712
  4884G12c C01H90727  10.556   8.920   3.080 -0.6057  0.0002  0.3332
  4884G12c H00B90728  10.545   8.824   3.129 -0.7266  1.7668  3.9816
  4884G12c C01I90729  10.468   9.002   3.158  0.3290 -0.0909 -0.3240
  4884G12c C01U90730  10.550   9.183   3.077  0.3458 -0.1821  1.8508
  4884G12c C00S90731  10.616   9.525   3.504  0.6687  2.0964  1.0111
  4884G12c C00K90732  10.459   9.366   3.486 -1.2961 -1.0944  0.4590
  4884G12c C00N90733  10.582   9.310   3.133 -0.5332 -1.0601  0.6598
  4884G12c C00090734  10.419   9.126   3.119 -0.7083 -0.8923 -1.3388
  4884G12c C01J90735  10.419   8.976   3.285 -0.1391 -0.5999 -0.1252
  4884G12c C01K90736  10.409   8.850   3.358  0.3629 -1.4744  0.4550
  4884G12c C01P90737  10.422   8.716   3.314  0.0920 -0.5879  1.4662
  4884G12c C01Q90738  10.350   8.654   3.198  0.5796  0.3839 -0.0020
  4884G12c H00G90739  10.341   8.740   3.134  0.5497  3.0860  3.5011
  4884G12c C01R90740  10.332   8.533   3.159 -0.5027 -0.1190  0.0973
  4884G12c H00F90741  10.377   8.460   3.224  1.2772  1.2722  0.4767
  4884G12c C01S90742  10.264   8.499   3.024  0.9598 -1.0359  0.1314
  4884G12c H00E90743  10.184   8.564   2.989  2.2175  1.2442  1.3597
  4884G12c H00D90744  10.352   8.525   2.965  3.8485  3.7820  6.0180
  4884G12c O00590745  10.234   8.363   2.996  0.0424  0.5049  0.2730
  4884G12c H00C90746  10.168   8.337   2.933  1.8710 -2.0761 -0.6197
  4884G12c C01O90747  10.484   8.627   3.397 -0.1540  0.4829 -0.1914
  4884G12c H00H90748  10.525   8.533   3.364  3.6871  0.4736  4.0244
  4884G12c C01N90749  10.515   8.659   3.525  0.3012  0.0438  0.7482
  4884G12c O00690750  10.604   8.560   3.581 -0.1655 -0.3996 -0.3060
  4884G12c C01T90751  10.586   8.476   3.694  0.8858 -0.2333  0.7996
  4884G12c H00K90752  10.487   8.476   3.740  1.4614 -1.0927  2.0738
  4884G12c H00J90753  10.659   8.520   3.761  1.8602 -5.1055  3.1970
  4884G12c H00I90754  10.628   8.400   3.627  3.7073  1.4520  0.5881
  4884G12c C01M90755  10.446   8.768   3.575  0.0603  0.7915 -2.3562
  4884G12c C02090756  10.413   9.254   3.562  1.4987 -2.3886 -0.3028
  4884G12c C02190757  10.395   9.246   3.706 -0.3315  1.6098 -0.1782
  4884G12c C01L90758  10.400   8.874   3.499  0.1273 -2.0083 -0.6826
  4884G12c O00790759  10.450   8.757   3.716 -0.3497 -0.4837 -1.3282
  4884G12c C02290760  10.426   9.121   3.759 -0.6707  0.6917 -0.0772
  4884G12c C02390761  10.448   9.345   3.781  0.6320  0.4968 -0.5314
  4884G12c C00G90762  10.662   9.448   3.921  0.3931  0.9739  0.3412
  4884G12c C00E90763  10.814   9.468   4.099 -1.6622  0.1929 -0.8910
  4884G12c O00A90764  10.931   9.481   4.175  1.5312  1.0065 -0.0534
  4884G12c C02490765  11.038   9.387   4.117 -0.9866 -0.0880 -1.5101
  4884G12c H00V90766  11.117   9.358   4.187  2.0609  5.4443 -2.3174
  4884G12c H00U90767  11.061   9.462   4.041 -3.7929 -2.5857 -4.9954
  4884G12c H00T90768  11.006   9.304   4.054 -1.7949 -0.4697 -0.6172
  4894G12c C00D90769   0.050  12.408   6.620  1.0110 -0.0951 -0.6155
  4894G12c O00B90770  -0.072  12.467   6.631  0.4006  1.0277  0.0865
  4894G12c C02590771  -0.080  12.551   6.740  0.1597 -0.1107  0.8502
  4894G12c C02690772   0.031  12.668   6.715  0.7445 -0.0367 -0.2820
  4894G12c H00Y90773   0.022  12.703   6.818 -4.8535  0.4594 -0.7744
  4894G12c H00X90774   0.001  12.739   6.638 -3.2287 -0.4245  0.8079
  4894G12c O00C90775   0.181  12.623   6.732  1.1171 -0.0280 -0.5425
  4894G12c H00W90776   0.189  12.567   6.656 -1.9759  0.2956 -1.1504
  4894G12c C02790777  -0.204  12.585   6.757 -0.4961  0.5022 -0.5879
  4894G12c O00D90778  -0.324  12.511   6.699  0.3813 -0.1037 -0.4697
  4894G12c H00Z90779  -0.364  12.509   6.785  2.3613  3.9503  0.6866
  4894G12c C02890780  -0.240  12.681   6.844  0.6447  2.1464 -0.9426
  4894G12c C02990781  -0.269  12.806   6.807 -1.0665 -0.5506  1.3979
  4894G12c H01090782  -0.261  12.835   6.703  1.3713 -1.1388  1.3775
  4894G12c C02T90783  -0.296  12.889   6.905 -0.7226 -0.7171  0.4011
  4894G12c H01O90784  -0.342  12.977   6.863  2.3067  0.3787 -0.7080
  4894G12c C02S90785  -0.324  12.860   7.042  0.3099  1.1135  0.1893
  4894G12c O00J90786  -0.386  12.955   7.115  0.7716  0.3664  0.3939
  4894G12c H01P90787  -0.468  12.937   7.159  2.7310  1.1107  4.6161
  4894G12c C02R90788  -0.268  12.735   7.078 -1.0055  2.2115 -1.4337
  4894G12c O00I90789  -0.287  12.699   7.208 -0.9799 -0.3793  0.4631
  4894G12c C02Q90790  -0.414  12.652   7.240 -0.0586 -0.4981 -0.7401
  4894G12c H01N90791  -0.393  12.546   7.253  2.4507 -0.2176 -2.1459
  4894G12c H01R90792  -0.403  12.661   7.348  9.7769 -1.3499 -1.2683
  4894G12c H01Q90793  -0.513  12.682   7.204  0.3558  0.3878 -1.1638
  4894G12c C02A90794  -0.227  12.648   6.983  0.1594  0.1142  0.9096
  4894G12c H01190795  -0.226  12.546   7.018  6.4203 -0.1542  0.4564
  4894G12c C00C90796   0.099  12.413   6.490  0.3596  0.6052  1.9022
  4894G12c H01290797   0.050  12.484   6.424 -1.7640 -3.4217 -1.1365
  4894G12c C00B90798   0.222  12.351   6.467  2.4637 -0.4194  0.6129
  4894G12c C00A90799   0.298  12.337   6.348  1.2728 -0.6693 -0.8867
  4894G12c C00990800   0.253  12.314   6.227 -0.2269  1.1980  1.8284
  4894G12c C00890801   0.130  12.272   6.187 -1.1815  0.0563  0.4058
  4894G12c H01390802   0.046  12.281   6.255  3.5418 -3.6981  7.3896
  4894G12c C00790803   0.120  12.217   6.059 -0.1071  0.3454  1.1958
  4894G12c H01490804   0.030  12.196   6.003  3.3356 -4.5742 -3.0582
  4894G12c C00690805   0.237  12.159   5.990  0.0930 -0.3817  0.5356
  4894G12c C00590806   0.350  12.203   6.052  2.0033 -2.0037 -0.7922
  4894G12c C00490807   0.464  12.138   6.032 -0.8727 -1.0524  0.8307
  4894G12c C00390808   0.586  12.173   6.106 -0.1353 -0.1494  1.7501
  4894G12c C00290809   0.703  12.090   6.059 -0.2488  0.1560 -0.4438
  4894G12c C00190810   0.849  12.071   6.113  0.9823 -0.4236 -0.5554
  4894G12c C00M90811   0.875  12.058   6.249  0.5278  0.1753 -0.7163
  4894G12c C00L90812   0.798  12.117   6.352  1.6431 -0.8874  0.4296
  4894G12c C00R90813   0.789  12.060   6.480 -1.0836  1.2979 -1.2343
  4894G12c C00Q90814   0.842  11.959   6.553 -0.4662 -0.4166  0.0907
  4894G12c C00V90815   0.780  11.936   6.689  0.3047  1.7173 -0.5382
  4894G12c C00U90816   0.670  12.008   6.727  1.3640  1.9306  0.4777
  4894G12c C00T90817   0.604  12.094   6.648 -0.8507  0.3937 -1.2298
  4894G12c C01690818   0.485  12.158   6.672 -0.1307 -0.6942 -0.6588
  4894G12c C01590819   0.421  12.147   6.788 -0.0170 -0.0072 -0.7809
  4894G12c C01090820   0.489  12.072   6.885 -0.3904  0.2704  0.4660
  4894G12c C01190821   0.423  12.067   7.022 -1.2130 -1.3501  0.0414
  4894G12c H00590822   0.474  12.017   7.103  1.6273 -0.3555 -1.1027
  4894G12c C01290823   0.312  12.144   7.046 -0.6381  1.7437  0.3540
  4894G12c C01790824   0.244  12.146   7.178 -0.4648 -0.4507 -1.1139
  4894G12c O00290825   0.190  12.033   7.229 -0.6635 -1.6262  0.8479
  4894G12c H00490826   0.096  12.042   7.218 -0.3820  1.5336  0.5975
  4894G12c C01890827   0.207  12.255   7.248  1.3414 -0.3049 -0.0194
  4894G12c O00190828   0.180  12.379   7.184 -0.2019 -1.5809 -1.3601
  4894G12c H00390829   0.099  12.397   7.140 -3.6541 -7.1401  2.2106
  4894G12c C01990830   0.187  12.255   7.399 -0.1603 -0.0716 -0.3386
  4894G12c H00290831   0.164  12.158   7.445 -3.4076 -0.4408 -2.5140
  4894G12c H00190832   0.283  12.265   7.450 -2.9937 -0.0702  5.4559
  4894G12c O00090833   0.090  12.373   7.408  1.4686  0.5332  0.2132
  4894G12c C01A90834   0.004  12.367   7.515  0.3623 -1.5624 -0.6036
  4894G12c C02K90835  -0.132  12.301   7.533 -0.2119 -0.1226 -1.1887
  4894G12c O00G90836  -0.166  12.214   7.429 -0.2476  0.0211 -1.8012
  4894G12c C02M90837  -0.252  12.123   7.442 -0.7210  0.6926  0.5182
  4894G12c H01G90838  -0.249  12.047   7.364  4.0327 -1.6855  2.8044
  4894G12c H01F90839  -0.323  12.106   7.524  2.7879  0.5267  3.6543
  4894G12c H01E90840  -0.322  12.200   7.410 -1.8703  0.1310  1.6019
  4894G12c C02J90841  -0.229  12.334   7.623  0.5992 -1.3323  0.6660
  4894G12c H01H90842  -0.335  12.329   7.604 -0.6220 -1.3880  6.5484
  4894G12c C02I90843  -0.200  12.418   7.730 -0.8024  0.6430  0.1921
  4894G12c C02N90844  -0.277  12.489   7.828 -1.5759  0.3435 -0.4132
  4894G12c H01M90845  -0.216  12.550   7.892  3.7296 -0.7572 -4.1174
  4894G12c C02O90846  -0.379  12.430   7.867  1.4167  2.0329  0.0370
  4894G12c H01L90847  -0.425  12.351   7.809 -0.1422 -0.2204  4.0635
  4894G12c C02P90848  -0.445  12.480   7.998 -1.7271  0.2739  0.7177
  4894G12c H01K90849  -0.405  12.437   8.090  0.4982 -1.7079 -1.1175
  4894G12c H01J90850  -0.427  12.583   8.028  1.7015 -0.6267  1.9780
  4894G12c O00H90851  -0.591  12.435   8.011  0.4066  0.4275  0.3896
  4894G12c H01I90852  -0.609  12.421   8.103 -1.1878  0.6316  0.1110
  4894G12c C02H90853  -0.062  12.468   7.731  0.6006 -0.2344  0.4642
  4894G12c H01C90854  -0.053  12.563   7.781 -2.5603  1.9869 -2.8983
  4894G12c C02L90855   0.029  12.458   7.625 -0.8338 -1.4526  0.3529
  4894G12c H01D90856   0.126  12.503   7.610 -1.7366  1.8938  3.9128
  4894G12c C01390857   0.253  12.207   6.932  1.7079  1.0857  0.0076
  4894G12c H00090858   0.161  12.244   6.974  2.5516  1.6729  1.3546
  4894G12c C01490859   0.296  12.210   6.804 -2.7956  0.6009 -0.2672
  4894G12c C00F90860   0.229  12.256   6.694  0.3169  0.9406  0.4842
  4894G12c C00H90861   0.428  12.230   6.564  1.3479 -0.9470  1.2352
  4894G12c C00I90862   0.499  12.280   6.460  0.5585  0.4579  0.4622
  4894G12c C00J90863   0.632  12.222   6.452 -0.5231  1.0549  0.9100
  4894G12c C00Z90864   0.612  11.992   6.854 -0.1652  1.2505  2.5286
  4894G12c C00Y90865   0.667  11.890   6.930  1.2947 -1.4969  0.6350
  4894G12c H00690866   0.608  11.884   7.021 -6.3044  3.2388 -3.4556
  4894G12c C00X90867   0.781  11.810   6.892 -1.3754  2.5037 -0.8160
  4894G12c O00390868   0.822  11.692   6.960 -1.4927 -0.8115 -0.4138
  4894G12c C01B90869   0.744  11.656   7.067  1.3341 -0.6190  1.1707
  4894G12c H00990870   0.643  11.621   7.045  1.8779 -2.7885  1.9982
  4894G12c H00890871   0.729  11.737   7.138  2.4388 -1.1915  2.0603
  4894G12c H00790872   0.803  11.586   7.126  3.1414 -0.9370 -0.9702
  4894G12c C00W90873   0.842  11.818   6.766  0.0935 -0.9505 -0.8356
  4894G12c O00490874   0.970  11.780   6.747  1.1464 -0.2241 -0.7776
  4894G12c C01C90875   0.992  11.775   6.613 -0.4298 -0.1882  1.1689
  4894G12c H00A90876   1.093  11.738   6.607  0.5652  2.6555 -1.0080
  4894G12c C00P90877   0.954  11.879   6.526  0.1420 -0.9356 -0.0238
  4894G12c C00O90878   0.985  11.852   6.390  0.4108  0.3140  0.8096
  4894G12c C01D90879   1.038  11.713   6.350  0.5981  1.3369 -0.8470
  4894G12c H00S90880   1.079  11.637   6.415 -3.0565 -2.8231 -3.1179
  4894G12c C01E90881   1.049  11.668   6.219  1.4529  0.3884  0.0759
  4894G12c O00890882   1.055  11.537   6.185 -0.9481 -0.8469  1.2482
  4894G12c C01V90883   1.077  11.420   6.253  0.0846  1.3828 -0.8172
  4894G12c C01Z90884   1.201  11.413   6.334  1.4955  1.8129 -0.9372
  4894G12c H00R90885   1.262  11.329   6.299  1.6069  2.4740 -2.3786
  4894G12c H00Q90886   1.231  11.517   6.345  1.6518  1.7400 -0.6711
  4894G12c O00990887   1.180  11.361   6.471 -0.4471 -0.4384  1.4521
  4894G12c H00P90888   1.207  11.433   6.526  2.4134  0.3485 -0.8766
  4894G12c C01W90889   0.989  11.320   6.238 -0.4473  0.6717  0.2031
  4894G12c H00O90890   0.912  11.343   6.167  2.3687  1.4344 -2.7308
  4894G12c C01X90891   0.982  11.183   6.305 -0.2557  0.2179 -0.3595
  4894G12c H00N90892   0.987  11.102   6.232  4.3366  3.1365 -3.5938
  4894G12c H00M90893   1.069  11.143   6.357 -5.6050  0.3230  9.9517
  4894G12c C01Y90894   0.881  11.120   6.412 -0.2547 -0.4211  0.0648
  4894G12c C02D90895   0.743  11.169   6.422 -1.2296 -0.0884  0.6580
  4894G12c H01990896   0.707  11.227   6.339 -0.6597 -3.3837 -2.0126
  4894G12c C02C90897   0.650  11.091   6.500  0.7385  1.3521  0.3354
  4894G12c H01A90898   0.548  11.126   6.509  0.6458  1.7372 -2.1096
  4894G12c C02B90899   0.697  10.986   6.589  0.6803 -0.9465 -0.4934
  4894G12c O00E90900   0.607  10.946   6.690  0.2507 -0.1501 -2.2047
  4894G12c H01B90901   0.636  10.971   6.777  6.4904 -2.5665 -3.3060
  4894G12c C02F90902   0.844  10.959   6.601  1.0558 -0.0793 -0.5220
  4894G12c O00F90903   0.884  10.848   6.682  0.3497  0.4448  0.0506
  4894G12c C02G90904   1.014  10.786   6.679 -0.7564  0.2484 -0.4894
  4894G12c H01790905   1.094  10.859   6.667 -1.4891  0.7494 -2.7445
  4894G12c H01690906   1.052  10.701   6.621  3.1847 -0.3551  2.7669
  4894G12c H01590907   1.030  10.745   6.778 -5.0445 -4.0055 -1.3683
  4894G12c C02E90908   0.933  11.013   6.504 -0.0054 -1.1513 -0.5323
  4894G12c H01890909   1.034  10.977   6.491  0.4112  1.7235 -7.1557
  4894G12c C01F90910   0.992  11.743   6.118 -0.7560 -0.3518  0.2631
  4894G12c C01G90911   0.921  11.695   6.003  0.8226  0.4340  1.2167
  4894G12c H00L90912   0.883  11.595   5.994 -0.0537  1.0824 -4.0679
  4894G12c C01H90913   0.820  11.777   5.936  0.7069 -0.6616 -1.0727
  4894G12c H00B90914   0.738  11.749   5.871  1.0743 -1.3436 -1.2534
  4894G12c C01I90915   0.797  11.909   5.954 -0.9132 -2.9598  0.4291
  4894G12c C01U90916   0.970  11.881   6.134 -0.7539  0.1504 -0.8776
  4894G12c C00S90917   0.677  12.126   6.528 -0.1789  0.0237 -0.4799
  4894G12c C00K90918   0.691  12.216   6.327 -1.5614  0.6415  1.2511
  4894G12c C00N90919   0.946  11.932   6.271 -2.5001  1.0292  0.9551
  4894G12c C00090920   0.908  11.965   6.035  0.0118  0.9415 -0.9416
  4894G12c C01J90921   0.678  12.000   5.948  0.6310  0.3026  0.0151
  4894G12c C01K90922   0.585  12.021   5.841 -1.0787  1.1964 -0.6309
  4894G12c C01P90923   0.578  11.940   5.730  1.3553 -0.4216 -0.9250
  4894G12c C01Q90924   0.706  11.897   5.664  0.9306 -1.2023 -2.6875
  4894G12c H00G90925   0.791  11.962   5.657  1.5644 -1.3265  2.5147
  4894G12c C01R90926   0.710  11.783   5.599  0.5019  1.0139  1.9132
  4894G12c H00F90927   0.616  11.733   5.581  0.3273  1.5075  1.4406
  4894G12c C01S90928   0.830  11.691   5.553  0.1572  0.4136 -0.0843
  4894G12c H00E90929   0.838  11.716   5.447 -2.4602  6.5471  0.9658
  4894G12c H00D90930   0.908  11.751   5.601  2.3889 -3.1373  0.8970
  4894G12c O00590931   0.836  11.565   5.626 -0.0979 -1.5918  0.3160
  4894G12c H00C90932   0.763  11.517   5.588  0.7273 -2.2328 -0.4686
  4894G12c C01O90933   0.452  11.921   5.672  0.9919  1.5411 -0.8852
  4894G12c H00H90934   0.435  11.894   5.569  0.9576  2.2477 -1.0728
  4894G12c C01N90935   0.344  11.933   5.752  0.9100  0.0860 -1.9791
  4894G12c O00690936   0.221  11.870   5.722 -0.0562 -0.5101 -1.7533
  4894G12c C01T90937   0.241  11.727   5.683  2.4808  0.7000 -0.4826
  4894G12c H00K90938   0.144  11.677   5.678  1.4390  2.6537 -0.2808
  4894G12c H00J90939   0.321  11.677   5.738 -1.5961  0.9381  6.1876
  4894G12c H00I90940   0.276  11.739   5.581 -0.3274 -0.4026 -1.6109
  4894G12c C01M90941   0.342  12.009   5.866 -2.0832  1.0031  0.5651
  4894G12c C02090942   0.600  12.243   6.218 -0.0028  0.9313  0.5100
  4894G12c C02190943   0.479  12.321   6.233  1.1693  0.8938 -1.1246
  4894G12c C01L90944   0.466  12.065   5.907  1.2562 -0.2166 -0.7987
  4894G12c O00790945   0.224  12.040   5.927 -0.4931 -0.5603  1.1068
  4894G12c C02290946   0.368  12.298   6.154 -0.4198  1.1490  0.0561
  4894G12c C02390947   0.435  12.353   6.361  0.7571  1.1386 -2.3855
  4894G12c C00G90948   0.289  12.281   6.570 -2.0878  0.2983  1.3302
  4894G12c C00E90949   0.102  12.327   6.724  0.6094  1.9869  1.5048
  4894G12c O00A90950   0.028  12.329   6.831  1.1209  0.2392  0.5113
  4894G12c C02490951  -0.066  12.219   6.840 -2.7048  0.7372  1.6397
  4894G12c H00V90952  -0.140  12.199   6.763 -3.7194 -0.8881  3.0070
  4894G12c H00U90953  -0.124  12.284   6.906  0.1409  5.2261 -0.0043
  4894G12c H00T90954  -0.038  12.118   6.870  0.8937  1.5219  1.1864
  4904G12c C00D90955   3.433   6.412   2.058  2.2028 -0.8699 -0.2615
  4904G12c O00B90956   3.462   6.528   1.995 -0.1991 -0.2117  0.3022
  4904G12c C02590957   3.471   6.652   2.069  0.5329 -0.7900  0.7886
  4904G12c C02690958   3.566   6.676   2.200 -0.3962 -2.0440 -0.2133
  4904G12c H00Y90959   3.630   6.763   2.213  2.8668 -3.8420 -3.1916
  4904G12c H00X90960   3.654   6.621   2.167  4.0207  4.9345 -1.0934
  4904G12c O00C90961   3.503   6.616   2.298 -1.2490 -1.1973  0.8989
  4904G12c H00W90962   3.558   6.658   2.363 -1.8825  3.9065 -1.6229
  4904G12c C02790963   3.420   6.755   2.005  0.0305  1.0275 -1.3354
  4904G12c O00D90964   3.357   6.746   1.875 -0.0522 -0.1566  0.1905
  4904G12c H00Z90965   3.265   6.740   1.893 -0.2599  3.9404  0.8530
  4904G12c C02890966   3.383   6.883   2.079 -0.0902  0.8311 -0.2847
  4904G12c C02990967   3.304   6.885   2.192 -0.7848 -0.2523 -0.9369
  4904G12c H01090968   3.251   6.803   2.238  4.8959 -2.5097  2.0504
  4904G12c C02T90969   3.259   7.015   2.244  0.6911  0.6624 -0.8008
  4904G12c H01O90970   3.191   7.010   2.328  2.9593 -1.4850  0.9582
  4904G12c C02S90971   3.298   7.134   2.193  0.9181 -2.6937 -1.1782
  4904G12c O00J90972   3.226   7.249   2.236  0.6177  0.1692 -1.2636
  4904G12c H01P90973   3.263   7.334   2.217  0.7272  0.3793 -0.1466
  4904G12c C02R90974   3.352   7.125   2.058  1.6188  1.3359  0.5512
  4904G12c O00I90975   3.392   7.238   1.991  0.1327 -0.1151 -1.3838
  4904G12c C02Q90976   3.288   7.293   1.896  0.6255  0.4778 -1.4046
  4904G12c H01N90977   3.209   7.327   1.963 -1.9502 -0.2767 -3.9688
  4904G12c H01R90978   3.338   7.373   1.842  2.5048  1.1378  1.1930
  4904G12c H01Q90979   3.266   7.207   1.832  0.0782 -0.8125  0.4716
  4904G12c C02A90980   3.396   7.001   2.001 -0.5315  0.4161 -0.9320
  4904G12c H01190981   3.427   6.993   1.898 -4.8260  2.9517 -2.5596
  4904G12c C00C90982   3.546   6.368   2.126 -0.0477 -0.8989  0.0969
  4904G12c H01290983   3.613   6.453   2.130  0.5821 -1.2625 -2.1070
  4904G12c C00B90984   3.565   6.248   2.181 -1.0377 -0.5961 -1.4923
  4904G12c C00A90985   3.686   6.200   2.248  1.1140  0.2679  0.1842
  4904G12c C00990986   3.816   6.253   2.243 -2.9340  1.0975  2.1005
  4904G12c C00890987   3.860   6.350   2.174 -1.5417 -1.1982  0.2077
  4904G12c H01390988   3.797   6.428   2.135  2.7447  0.1124 -4.6549
  4904G12c C00790989   3.992   6.331   2.116  0.9670  0.8093 -0.5660
  4904G12c H01490990   4.056   6.367   2.037  5.5387  1.0242  2.9972
  4904G12c C00690991   4.071   6.215   2.140 -1.7514 -0.3803 -0.3632
  4904G12c C00590992   4.017   6.115   2.222 -1.5079  0.4527 -0.1668
  4904G12c C00490993   4.070   5.987   2.230  1.1290 -1.2217  0.5127
  4904G12c C00390994   3.986   5.892   2.288 -0.0888  0.7523  0.0571
  4904G12c C00290995   4.036   5.749   2.277 -0.7661  2.0162 -0.4114
  4904G12c C00190996   4.010   5.606   2.312  1.7731 -0.9833 -0.8905
  4904G12c C00M90997   3.873   5.555   2.291  0.0196 -3.1444 -0.2646
  4904G12c C00L90998   3.752   5.652   2.291  1.1784  1.6655  0.3427
  4904G12c C00R90999   3.633   5.637   2.228  0.4333 -1.9607 -0.5120
  4904G12c C00Q91000   3.548   5.524   2.164 -0.6363  0.6842  0.7890
  4904G12c C00V91001   3.424   5.548   2.103 -0.8146  1.1991  0.3729
  4904G12c C00U91002   3.380   5.689   2.095 -0.6096 -0.2643  0.6551
  4904G12c C00T91003   3.444   5.784   2.171  1.8659  0.1569 -0.6683
  4904G12c C01691004   3.392   5.921   2.173 -1.1919 -1.1133 -0.0199
  4904G12c C01591005   3.284   5.952   2.096 -1.0717  0.6831 -0.0317
  4904G12c C01091006   3.209   5.850   2.042  0.6888 -0.3486 -2.1796
  4904G12c C01191007   3.073   5.884   2.006 -0.1543  0.5880 -0.5902
  4904G12c H00591008   3.003   5.804   2.024  0.6032 -1.3187 -5.3477
  4904G12c C01291009   3.023   6.024   1.991  0.4572  0.8861 -2.4768
  4904G12c C01791010   2.881   6.041   1.970  0.2565  0.8622  0.9402
  4904G12c O00291011   2.817   6.059   2.089  0.7170 -0.7341 -0.7620
  4904G12c H00491012   2.903   6.047   2.126 -0.8413 -4.0599  2.0133
  4904G12c C01891013   2.811   5.971   1.878  0.1476  1.0376  0.9317
  4904G12c O00191014   2.687   5.939   1.911 -0.3140 -0.6381  0.7107
  4904G12c H00391015   2.674   5.992   1.988 -3.8587  5.3871 -3.5584
  4904G12c C01991016   2.827   5.908   1.741 -1.6429  0.4975 -0.0755
  4904G12c H00291017   2.776   5.812   1.729  0.3079 -0.6748  0.6670
  4904G12c H00191018   2.828   5.967   1.649  1.7869  2.5863  1.2261
  4904G12c O00091019   2.963   5.846   1.756  1.0098 -0.0887 -1.5588
  4904G12c C01A91020   3.022   5.758   1.655 -0.3978 -1.6404 -0.8967
  4904G12c C02K91021   2.957   5.640   1.642 -0.3396  0.1137 -1.7007
  4904G12c O00G91022   2.857   5.601   1.730  1.7830 -0.8713 -0.7644
  4904G12c C02M91023   2.806   5.475   1.741 -0.9896  1.0311 -1.2801
  4904G12c H01G91024   2.814   5.437   1.843  3.7862  0.6639 -1.6756
  4904G12c H01F91025   2.895   5.427   1.699  0.1326  1.6101  0.4155
  4904G12c H01E91026   2.704   5.464   1.703 -2.6260 -2.7969  3.7143
  4904G12c C02J91027   2.990   5.566   1.530 -0.5417 -1.9521  0.3389
  4904G12c H01H91028   2.926   5.499   1.473 -0.8062  0.0364 -1.7768
  4904G12c C02I91029   3.116   5.598   1.458 -0.3949 -1.3257  1.3037
  4904G12c C02N91030   3.149   5.505   1.345 -0.9465 -1.0102 -0.2420
  4904G12c H01M91031   3.114   5.488   1.244 -1.5654 -5.5378  0.6289
  4904G12c C02O91032   3.249   5.424   1.366  0.4219  0.4234  0.1575
  4904G12c H01L91033   3.308   5.424   1.457  2.3866 -0.4640 -1.1022
  4904G12c C02P91034   3.313   5.325   1.271 -0.0801 -0.2088  0.0067
  4904G12c H01K91035   3.305   5.227   1.318 -2.6552 -0.4814 -0.9458
  4904G12c H01J91036   3.262   5.324   1.175 -0.5736 -4.4505  0.2388
  4904G12c O00H91037   3.434   5.369   1.224  1.3074  0.6702  1.2177
  4904G12c H01I91038   3.441   5.459   1.194  5.1461  0.0803  0.1067
  4904G12c C02H91039   3.172   5.731   1.466  1.0376  1.3580  1.1007
  4904G12c H01C91040   3.254   5.771   1.409  0.7957 -1.9489 -1.7006
  4904G12c C02L91041   3.139   5.791   1.592 -0.3648 -0.6398  1.0814
  4904G12c H01D91042   3.197   5.873   1.632 -1.8374  1.6630 -1.3539
  4904G12c C01391043   3.127   6.111   2.024  1.0304 -0.1644 -0.3299
  4904G12c H00091044   3.075   6.205   2.029  1.5194 -0.0242  3.4274
  4904G12c C01491045   3.252   6.087   2.069 -0.9127  1.3019  1.1428
  4904G12c C00F91046   3.336   6.194   2.100  1.1207 -0.2625 -1.8730
  4904G12c C00H91047   3.471   6.017   2.228 -0.2424 -0.7403 -0.8050
  4904G12c C00I91048   3.592   5.979   2.292  1.3289 -0.2522  0.0508
  4904G12c C00J91049   3.619   5.839   2.305  2.3170  0.8719 -2.3622
  4904G12c C00Z91050   3.249   5.719   2.044 -0.9044  0.2606 -0.1894
  4904G12c C00Y91051   3.161   5.615   1.995  0.6953  1.0431 -0.6654
  4904G12c H00691052   3.066   5.629   1.946  0.9987  1.8977 -1.0330
  4904G12c C00X91053   3.230   5.499   1.969 -0.4906 -1.3020 -0.5180
  4904G12c O00391054   3.167   5.392   1.914 -0.1578  0.6919  0.6197
  4904G12c C01B91055   3.199   5.374   1.779  2.0994 -1.5841 -0.2370
  4904G12c H00991056   3.107   5.324   1.749 -3.0766  5.1981  2.8688
  4904G12c H00891057   3.233   5.474   1.754 -3.1779  0.3906 -0.2756
  4904G12c H00791058   3.290   5.316   1.767  1.9980 -1.4426 -1.7103
  4904G12c C00W91059   3.342   5.460   2.031 -0.0339 -0.3973 -0.6748
  4904G12c O00491060   3.365   5.331   2.066 -1.0226  1.0015  0.4762
  4904G12c C01C91061   3.503   5.293   2.077  1.4937 -1.2061 -2.5987
  4904G12c H00A91062   3.525   5.191   2.105 -1.0593 -0.3782  3.1951
  4904G12c C00P91063   3.604   5.391   2.133 -0.2863  3.3044 -1.0999
  4904G12c C00O91064   3.750   5.385   2.125 -0.3715  0.1861 -1.2839
  4904G12c C01D91065   3.803   5.297   2.023  0.1964 -0.9927  1.4210
  4904G12c H00S91066   3.748   5.229   1.960  3.5531 -4.0367  1.5705
  4904G12c C01E91067   3.935   5.313   1.969 -1.1058  1.1041  0.7930
  4904G12c O00891068   3.951   5.287   1.829  0.1149  0.5678  0.5824
  4904G12c C01V91069   3.864   5.200   1.758 -0.4047 -0.2211 -0.2826
  4904G12c C01Z91070   3.732   5.269   1.726  1.3668  0.0452  0.2813
  4904G12c H00R91071   3.727   5.373   1.758  3.6860  1.6299 -4.1516
  4904G12c H00Q91072   3.723   5.283   1.618  2.1851 -0.9341  0.0804
  4904G12c O00991073   3.616   5.206   1.764  1.1859  0.7171  0.1454
  4904G12c H00P91074   3.630   5.145   1.836  4.1912 -2.7057 -3.1156
  4904G12c C01W91075   3.909   5.070   1.730  0.6979 -0.4384  2.0319
  4904G12c H00O91076   4.014   5.054   1.708 -0.7925 -5.3135 -2.8590
  4904G12c C01X91077   3.827   4.972   1.638 -0.0357  0.4169  0.5269
  4904G12c H00N91078   3.893   4.888   1.618 -0.4248  1.1444 -4.4206
  4904G12c H00M91079   3.738   4.946   1.695  0.7371 -1.6961  0.8104
  4904G12c C01Y91080   3.803   5.038   1.510 -0.0351 -0.6633  0.4826
  4904G12c C02D91081   3.674   5.036   1.458  0.1289 -2.1728  1.0736
  4904G12c H01991082   3.582   5.017   1.511 -2.9820 -3.1932 -4.3506
  4904G12c C02C91083   3.672   5.103   1.328 -0.2682  2.0150 -0.6351
  4904G12c H01A91084   3.582   5.136   1.277 -1.5228  1.2941  1.0566
  4904G12c C02B91085   3.781   5.130   1.238 -0.1491 -0.1793  1.6030
  4904G12c O00E91086   3.759   5.168   1.104  0.9721  1.1500  0.2310
  4904G12c H01B91087   3.818   5.111   1.057  4.3575  6.0009 -1.7609
  4904G12c C02F91088   3.910   5.127   1.284 -0.3252 -0.4491  2.0631
  4904G12c O00F91089   4.004   5.136   1.190  0.1119  0.5458 -0.5305
  4904G12c C02G91090   4.115   5.065   1.253  0.1688 -0.0559  0.2672
  4904G12c H01791091   4.084   4.971   1.298 -3.7128 -0.7891 -3.5578
  4904G12c H01691092   4.193   5.022   1.191  1.0624  0.0714  1.2793
  4904G12c H01591093   4.164   5.096   1.345 -3.0016 -2.6583  2.9659
  4904G12c C02E91094   3.912   5.106   1.427  0.1367  1.5901 -0.0272
  4904G12c H01891095   4.001   5.132   1.481 -0.8208 -0.0911  2.4334
  4904G12c C01F91096   4.029   5.400   2.023 -0.6193 -1.3639  1.3479
  4904G12c C01G91097   4.151   5.437   1.959  0.7819  0.0357 -1.4107
  4904G12c H00L91098   4.151   5.414   1.853 -0.2453 -9.6503  0.2782
  4904G12c C01H91099   4.218   5.550   2.031  0.3784  0.5284  1.0473
  4904G12c H00B91100   4.262   5.642   1.996 -0.0948  0.4161  0.1407
  4904G12c C01I91101   4.172   5.599   2.158  0.3057  1.0639 -0.9736
  4904G12c C01U91102   4.004   5.451   2.154  0.7800  0.4322  1.5468
  4904G12c C00S91103   3.553   5.749   2.237 -0.3629 -0.7813 -0.3857
  4904G12c C00K91104   3.749   5.792   2.317 -1.4904  0.5644  1.5662
  4904G12c C00N91105   3.867   5.454   2.193 -0.5336 -0.2804 -0.3000
  4904G12c C00091106   4.088   5.516   2.231 -0.6555  1.9678 -0.3276
  4904G12c C01J91107   4.157   5.740   2.199 -0.1840 -0.4700 -0.4059
  4904G12c C01K91108   4.258   5.836   2.178 -0.4978 -1.5964 -1.2896
  4904G12c C01P91109   4.395   5.834   2.185 -0.5656  0.2495  0.8331
  4904G12c C01Q91110   4.454   5.707   2.211  0.5581  0.7453  0.8109
  4904G12c H00G91111   4.433   5.612   2.257 -3.6639 -1.4202 -5.0095
  4904G12c C01R91112   4.573   5.666   2.139 -0.1689 -0.0276 -1.3261
  4904G12c H00F91113   4.635   5.735   2.082  4.6568 -2.7011  0.4724
  4904G12c C01S91114   4.621   5.521   2.143 -1.2381 -0.0818 -0.5021
  4904G12c H00E91115   4.543   5.449   2.170 -3.3292  0.4603 -4.7125
  4904G12c H00D91116   4.671   5.466   2.064 -1.7300 -6.6186  3.3538
  4904G12c O00591117   4.712   5.539   2.250 -0.3870  0.7522 -0.3857
  4904G12c H00C91118   4.794   5.500   2.223  0.9598 -0.0899  4.5389
  4904G12c C01O91119   4.463   5.951   2.153 -0.1672  0.1645  0.1770
  4904G12c H00H91120   4.571   5.956   2.153 -0.1609  0.1366 -1.0421
  4904G12c C01N91121   4.413   6.066   2.095  0.7855 -1.1542 -0.8613
  4904G12c O00691122   4.475   6.167   2.013  1.0952  0.7582  0.6752
  4904G12c C01T91123   4.554   6.134   1.919 -1.3808 -0.8472 -0.3235
  4904G12c H00K91124   4.653   6.100   1.951  2.3836  8.7272 -0.3348
  4904G12c H00J91125   4.572   6.236   1.886  1.0045 -1.1482 -0.0449
  4904G12c H00I91126   4.502   6.088   1.834  3.9591 -4.4992 -1.8931
  4904G12c C01M91127   4.268   6.074   2.118  1.4281 -0.4639 -0.0163
  4904G12c C02091128   3.846   5.911   2.322 -0.4387  0.8545 -1.7789
  4904G12c C02191129   3.817   6.048   2.344  1.7762 -1.1790 -1.2123
  4904G12c C01L91130   4.197   5.960   2.171  0.5702 -1.4397 -0.7580
  4904G12c O00791131   4.198   6.210   2.094  0.4980 -1.0486 -0.8809
  4904G12c C02291132   3.893   6.150   2.284  1.6249 -0.2683  0.1770
  4904G12c C02391133   3.683   6.079   2.317 -0.4125  0.1207  0.4409
  4904G12c C00G91134   3.465   6.152   2.182  0.0059 -0.1836 -1.9109
  4904G12c C00E91135   3.325   6.326   2.048  1.9222  1.2455 -0.5709
  4904G12c O00A91136   3.211   6.359   1.981 -0.3057 -1.1486  0.7909
  4904G12c C02491137   3.240   6.354   1.835 -0.6103  0.3399 -1.2422
  4904G12c H00V91138   3.134   6.355   1.807 -1.1446 -4.8690  0.1148
  4904G12c H00U91139   3.288   6.265   1.793  0.2250  2.4103 -4.9446
  4904G12c H00T91140   3.326   6.414   1.804  3.6215 -4.8511 -0.2636
  4914G12c C00D91141   1.484   0.724   6.304 -0.8995  1.2168  0.9242
  4914G12c O00B91142   1.495   0.865   6.316 -1.8912  0.8022 -0.6611
  4914G12c C02591143   1.537   0.932   6.430  0.4009 -0.4140  0.3804
  4914G12c C02691144   1.696   0.921   6.438  0.1554  0.7446 -0.3776
  4914G12c H00Y91145   1.698   1.030   6.445  3.1225  1.0353 -3.9880
  4914G12c H00X91146   1.748   0.872   6.520  2.2195 -0.4902 -2.3585
  4914G12c O00C91147   1.758   0.915   6.318 -0.5377 -0.3021  0.0715
  4914G12c H00W91148   1.767   1.001   6.281  4.3164 -0.3206  0.8694
  4914G12c C02791149   1.438   1.011   6.490 -0.5766  1.5777 -0.9734
  4914G12c O00D91150   1.311   1.003   6.474  0.2763 -0.1425  0.0730
  4914G12c H00Z91151   1.313   0.910   6.459  6.1082 -0.6162  2.2715
  4914G12c C02891152   1.456   1.039   6.625  0.3243 -1.9662 -0.3218
  4914G12c C02991153   1.463   1.176   6.657 -0.9159  0.5309 -0.3799
  4914G12c H01091154   1.472   1.262   6.591 -0.4102  2.6798  2.4254
  4914G12c C02T91155   1.466   1.231   6.795 -1.5066 -1.1308  0.9501
  4914G12c H01O91156   1.455   1.338   6.784 -6.1855 -1.9328 -3.9575
  4914G12c C02S91157   1.431   1.128   6.890  1.7115 -0.1278  0.6770
  4914G12c O00J91158   1.419   1.157   7.025  0.5973  0.3724  1.1233
  4914G12c H01P91159   1.420   1.069   7.062  2.6240  1.6778  4.4025
  4914G12c C02R91160   1.436   0.996   6.865  1.2413 -0.0282  1.0601
  4914G12c O00I91161   1.380   0.914   6.949  0.0491  0.7137 -0.4162
  4914G12c C02Q91162   1.386   0.764   6.941 -1.1527 -1.5095  0.9648
  4914G12c H01N91163   1.395   0.709   7.034  0.5058 -2.6131  0.1810
  4914G12c H01R91164   1.473   0.719   6.894  0.3685 -2.8523  4.9109
  4914G12c H01Q91165   1.288   0.732   6.907 -3.7091  1.2981  5.1423
  4914G12c C02A91166   1.450   0.954   6.731 -1.8680 -0.0276  1.1427
  4914G12c H01191167   1.441   0.853   6.693  0.1981  0.2128 -0.0477
  4914G12c C00C91168   1.526   0.671   6.177  2.0456 -0.1283  0.3760
  4914G12c H01291169   1.593   0.727   6.113  1.4461  2.9043  2.3040
  4914G12c C00B91170   1.533   0.533   6.177 -1.4831  0.3598 -1.0700
  4914G12c C00A91171   1.597   0.454   6.075  2.1106  1.5319  1.4366
  4914G12c C00991172   1.637   0.518   5.945  0.0013 -1.2047  0.8930
  4914G12c C00891173   1.681   0.644   5.891  0.3854 -0.8805 -0.7182
  4914G12c H01391174   1.716   0.728   5.949 -6.9089  5.1709 -4.1494
  4914G12c C00791175   1.699   0.660   5.747 -0.0542  1.3417 -1.1706
  4914G12c H01491176   1.738   0.750   5.702  3.5970  3.0238  4.6839
  4914G12c C00691177   1.662   0.566   5.654 -1.0580  2.3432 -0.4765
  4914G12c C00591178   1.622   0.444   5.723  0.6265  1.1275 -0.6509
  4914G12c C00491179   1.542   0.347   5.650  1.2944 -0.6170 -0.7434
  4914G12c C00391180   1.494   0.229   5.719  0.6595 -0.3203 -0.5731
  4914G12c C00291181   1.403   0.139   5.635 -0.3813  0.5648  0.4506
  4914G12c C00191182   1.339   0.005   5.657  0.4693 -0.9210 -1.3131
  4914G12c C00M91183   1.263  -0.033   5.776  1.5166 -0.0843  2.1731
  4914G12c C00L91184   1.316  -0.002   5.904 -0.5095 -0.8998  0.7544
  4914G12c C00R91185   1.223   0.007   6.029  1.1995  0.1001 -0.9730
  4914G12c C00Q91186   1.081  -0.001   6.042  0.5483 -1.3416  0.5741
  4914G12c C00V91187   1.022   0.056   6.151 -0.7777  0.2079 -1.1230
  4914G12c C00U91188   1.097   0.131   6.240  0.0921 -0.1147  1.2477
  4914G12c C00T91189   1.235   0.152   6.227 -1.3330  1.2447 -0.2297
  4914G12c C01691190   1.310   0.255   6.284 -0.5007 -0.0258 -0.2292
  4914G12c C01591191   1.245   0.321   6.393 -1.4507  0.7115  1.1436
  4914G12c C01091192   1.108   0.302   6.425  0.5637 -0.5067 -0.3539
  4914G12c C01191193   1.072   0.338   6.561 -3.0262 -0.9338  1.4855
  4914G12c H00591194   0.976   0.298   6.588 -3.7416  0.8067  1.5577
  4914G12c C01291195   1.137   0.440   6.625  0.9721 -0.4452 -0.4940
  4914G12c C01791196   1.082   0.491   6.741  0.0370  0.7227  1.9907
  4914G12c O00291197   1.006   0.615   6.738  0.2473 -0.6851  0.4781
  4914G12c H00491198   1.001   0.681   6.671 -1.7604 -0.3294  0.9451
  4914G12c C01891199   1.098   0.441   6.850 -0.5112  0.2301 -0.5197
  4914G12c O00191200   1.169   0.325   6.852 -1.7328 -0.4714  1.8012
  4914G12c H00391201   1.165   0.253   6.792 -2.0705 -4.6777  6.5052
  4914G12c C01991202   1.043   0.490   6.976  0.1296  0.1190 -0.2853
  4914G12c H00291203   1.049   0.599   6.980 -5.3222  0.6232 -0.7974
  4914G12c H00191204   0.938   0.475   6.950  0.3100 -1.7084  0.0421
  4914G12c O00091205   1.085   0.428   7.099  0.4844  0.5317  0.3348
  4914G12c C01A91206   1.190   0.477   7.162 -2.2093  0.3080  0.2871
  4914G12c C02K91207   1.318   0.400   7.170  0.4125 -0.3064 -1.2059
  4914G12c O00G91208   1.313   0.279   7.118  0.2530  1.4761  1.1496
  4914G12c C02M91209   1.211   0.178   7.150  0.0115  1.6058 -1.7857
  4914G12c H01G91210   1.211   0.172   7.259  0.2558  4.7451 -1.5557
  4914G12c H01F91211   1.116   0.215   7.111  0.3660  0.5472 -3.7208
  4914G12c H01E91212   1.239   0.089   7.095 -3.5439 -1.1054  0.5885
  4914G12c C02J91213   1.427   0.449   7.241 -1.5236 -0.2954  0.4661
  4914G12c H01H91214   1.502   0.373   7.260 -1.1645  0.2054  1.1065
  4914G12c C02I91215   1.433   0.570   7.313 -0.4539 -0.9499  1.8289
  4914G12c C02N91216   1.554   0.608   7.368  1.3863 -1.6456 -0.6996
  4914G12c H01M91217   1.572   0.705   7.413  1.0333 -2.5525  1.4303
  4914G12c C02O91218   1.664   0.540   7.394 -1.0265 -0.7688  0.2769
  4914G12c H01L91219   1.680   0.442   7.351  0.4538 -1.3768  2.1651
  4914G12c C02P91220   1.794   0.609   7.438 -2.4548  0.1279  1.6751
  4914G12c H01K91221   1.753   0.710   7.435  0.5315  1.3571 -3.5355
  4914G12c H01J91222   1.825   0.575   7.536 -0.8770  2.8709  2.1565
  4914G12c O00H91223   1.911   0.580   7.355  0.4786 -1.5510  1.5997
  4914G12c H01I91224   1.948   0.493   7.367 -2.8587 -2.6364  5.5153
  4914G12c C02H91225   1.321   0.645   7.293 -0.6614 -2.3284 -1.0959
  4914G12c H01C91226   1.308   0.745   7.333 -4.4428 -3.4387  0.6502
  4914G12c C02L91227   1.199   0.602   7.234 -0.3514  0.6191 -0.3010
  4914G12c H01D91228   1.136   0.652   7.306  3.4461  5.2180  0.1120
  4914G12c C01391229   1.233   0.509   6.543  1.3839 -0.0095 -0.8528
  4914G12c H00091230   1.245   0.613   6.569  0.8868  1.1432 -4.8802
  4914G12c C01491231   1.305   0.433   6.447 -0.1650 -1.9207 -0.5955
  4914G12c C00F91232   1.391   0.499   6.362 -1.9223 -0.3913 -1.3012
  4914G12c C00H91233   1.421   0.315   6.220  0.4732 -0.7060 -1.1631
  4914G12c C00I91234   1.479   0.243   6.118  0.9957  1.6738  0.3064
  4914G12c C00J91235   1.409   0.126   6.068 -0.4448 -0.0545 -0.2175
  4914G12c C00Z91236   1.038   0.216   6.335 -1.4769  0.5368 -1.8397
  4914G12c C00Y91237   0.897   0.225   6.357  0.0656 -0.6858 -0.2078
  4914G12c H00691238   0.835   0.279   6.427 -0.0948 -0.9365 -0.1508
  4914G12c C00X91239   0.835   0.137   6.280  1.0762 -0.9174  1.2803
  4914G12c O00391240   0.711   0.088   6.304  0.9876 -0.7765 -0.4957
  4914G12c C01B91241   0.668   0.107   6.447  0.3351 -0.9492 -1.0759
  4914G12c H00991242   0.745   0.080   6.520 -5.8835 -2.5454  5.5491
  4914G12c H00891243   0.573   0.056   6.467 -1.6413  3.7862  2.7611
  4914G12c H00791244   0.620   0.197   6.487  0.0291 -1.3429 -0.5362
  4914G12c C00W91245   0.882   0.065   6.164  0.5892  0.3331  0.3798
  4914G12c O00491246   0.785   0.018   6.071 -0.8832  0.8246 -0.0595
  4914G12c C01C91247   0.836  -0.093   6.001 -0.4669 -0.3893 -1.8490
  4914G12c H00A91248   0.786  -0.188   6.016 -3.3108 -0.2097 -8.4479
  4914G12c C00P91249   0.981  -0.079   5.960  0.6385  0.4567  0.1595
  4914G12c C00O91250   0.996  -0.067   5.814 -1.4213 -1.3746  0.5679
  4914G12c C01D91251   0.880  -0.057   5.738 -0.0612 -2.0176  0.9953
  4914G12c H00S91252   0.788  -0.107   5.764  1.6170 -1.2621  9.9909
  4914G12c C01E91253   0.881   0.003   5.613 -1.1780 -0.6737 -0.4272
  4914G12c O00891254   0.761   0.021   5.548 -0.2553 -0.0511 -0.1627
  4914G12c C01V91255   0.666  -0.081   5.544  0.7803 -0.8686 -1.0359
  4914G12c C01Z91256   0.715  -0.178   5.430  1.5014 -0.6672 -0.0328
  4914G12c H00R91257   0.810  -0.142   5.390  1.6624 -1.7504 -0.6419
  4914G12c H00Q91258   0.699  -0.285   5.417 -1.3074 -0.4219  1.0591
  4914G12c O00991259   0.651  -0.105   5.327  1.0892 -0.6161 -0.2203
  4914G12c H00P91260   0.573  -0.077   5.373 -1.1940 -5.9494 -0.3763
  4914G12c C01W91261   0.564  -0.082   5.640  0.2920 -0.8007 -0.7510
  4914G12c H00O91262   0.549  -0.003   5.712 -2.2407  0.4171 -2.5432
  4914G12c C01X91263   0.472  -0.199   5.692  0.7342 -0.6397 -0.7639
  4914G12c H00N91264   0.449  -0.257   5.603  3.4259 -1.1213 -1.1839
  4914G12c H00M91265   0.493  -0.302   5.723  3.3058  1.3432  4.7789
  4914G12c C01Y91266   0.343  -0.146   5.762 -0.4767 -1.7371 -1.4385
  4914G12c C02D91267   0.347  -0.074   5.890  0.8053  1.1754  0.0328
  4914G12c H01991268   0.442  -0.027   5.913  3.9657 -2.3717 -4.5968
  4914G12c C02C91269   0.245  -0.025   5.951  2.3185  0.1574 -0.8124
  4914G12c H01A91270   0.262   0.027   6.044 -9.3344 -4.3350  4.8234
  4914G12c C02B91271   0.111  -0.040   5.886 -1.0071 -0.6723  0.4542
  4914G12c O00E91272  -0.004   0.030   5.948  0.9763  0.5506 -1.4072
  4914G12c H01B91273   0.024   0.089   6.016  0.0592  3.8045 -3.7080
  4914G12c C02F91274   0.103  -0.117   5.767  1.1535 -0.5770 -0.4703
  4914G12c O00F91275  -0.007  -0.166   5.722  1.0812 -0.5535 -0.0547
  4914G12c C02G91276  -0.052  -0.126   5.601 -0.4779 -0.6859  1.8833
  4914G12c H01791277  -0.053  -0.207   5.528  2.1852 -1.7142  2.9342
  4914G12c H01691278  -0.023  -0.026   5.568 -0.0712 -1.5039 -0.2815
  4914G12c H01591279  -0.156  -0.096   5.588 -1.1021 -3.6577 -0.4897
  4914G12c C02E91280   0.221  -0.153   5.706  0.3269  0.8138 -1.8168
  4914G12c H01891281   0.227  -0.201   5.609 -0.8584  2.9688 -2.9919
  4914G12c C01F91282   1.003   0.036   5.548  0.1760 -1.0348  0.9617
  4914G12c C01G91283   1.019   0.119   5.425  1.1712 -0.5019 -1.1297
  4914G12c H00L91284   0.948   0.160   5.355 -1.1883 -2.8567 -0.1816
  4914G12c C01H91285   1.148   0.156   5.389  0.8319  0.9560  0.2434
  4914G12c H00B91286   1.162   0.254   5.344 -2.6668  1.1524 -0.5788
  4914G12c C01I91287   1.250   0.125   5.470  0.6552  1.0292 -0.5845
  4914G12c C01U91288   1.116  -0.013   5.595  1.2400  0.2139 -0.8135
  4914G12c C00S91289   1.292   0.082   6.126 -1.0007  1.8127 -1.8038
  4914G12c C00K91290   1.421   0.096   5.924 -0.4885  0.9782  0.2482
  4914G12c C00N91291   1.119  -0.052   5.741 -0.4792 -1.6018  0.6039
  4914G12c C00091292   1.242   0.019   5.553  0.3389  0.0499 -0.1076
  4914G12c C01J91293   1.374   0.195   5.496  0.4720  1.1576 -1.4843
  4914G12c C01K91294   1.442   0.294   5.440  0.7899  0.5205  1.4469
  4914G12c C01P91295   1.458   0.298   5.295  0.2018 -1.9293  0.8411
  4914G12c C01Q91296   1.428   0.196   5.190  0.4861  1.1599  0.8598
  4914G12c H00G91297   1.461   0.095   5.209  3.2346  1.2890 -2.7823
  4914G12c C01R91298   1.349   0.205   5.086 -1.4193  0.2050  0.4028
  4914G12c H00F91299   1.310   0.305   5.093  0.2112  0.8966 -0.0955
  4914G12c C01S91300   1.339   0.086   4.989 -1.8594 -0.1937  0.2033
  4914G12c H00E91301   1.311  -0.014   5.023  2.6607 -2.1837 -1.5253
  4914G12c H00D91302   1.251   0.121   4.935  0.8348  4.6794 -1.3027
  4914G12c O00591303   1.474   0.079   4.923 -0.2541 -0.2736  0.5090
  4914G12c H00C91304   1.551   0.057   4.973  0.4585 -6.2693 -2.7448
  4914G12c C01O91305   1.517   0.428   5.243 -1.6507  0.0360 -1.6997
  4914G12c H00H91306   1.529   0.412   5.137 -1.0665  3.8417 -2.3060
  4914G12c C01N91307   1.563   0.528   5.319 -0.6394  1.6464  0.2955
  4914G12c O00691308   1.643   0.633   5.259  0.2856 -0.4498  0.2879
  4914G12c C01T91309   1.559   0.731   5.205 -0.8518 -0.7158  0.2464
  4914G12c H00K91310   1.478   0.760   5.271 -2.0658 -0.7647 -1.2032
  4914G12c H00J91311   1.540   0.690   5.105 -5.9251 -1.9630  1.5899
  4914G12c H00I91312   1.614   0.824   5.188 -2.1519  0.0626  0.2071
  4914G12c C01M91313   1.575   0.499   5.468 -0.4302 -0.7453  1.0080
  4914G12c C02091314   1.499   0.200   5.853  0.1164 -0.4572 -0.6400
  4914G12c C02191315   1.577   0.303   5.909 -0.7959 -0.5716 -0.5083
  4914G12c C01L91316   1.511   0.382   5.523  0.7648 -0.3511  0.9123
  4914G12c O00791317   1.620   0.608   5.534  0.2801  1.0668  0.9340
  4914G12c C02291318   1.648   0.410   5.852  0.4207  0.9181  0.5091
  4914G12c C02391319   1.571   0.312   6.053  0.4188  1.8391  0.6071
  4914G12c C00G91320   1.445   0.451   6.253 -0.9939  0.8055 -0.2466
  4914G12c C00E91321   1.456   0.624   6.405 -0.1890 -0.2353  1.7059
  4914G12c O00A91322   1.471   0.650   6.529  0.9616  0.7993 -1.5967
  4914G12c C02491323   1.531   0.534   6.595 -0.1303 -0.8084  1.8479
  4914G12c H00V91324   1.502   0.482   6.687  1.8709 -2.8251  1.3746
  4914G12c H00U91325   1.589   0.594   6.666  6.0739  0.8930 -4.1466
  4914G12c H00T91326   1.615   0.491   6.541  0.1424 -1.4552  2.7730
  4924G12c C00D91327   3.752  10.635   4.089  0.0720  1.0088 -0.2054
  4924G12c O00B91328   3.784  10.507   4.031 -0.7176  0.6039 -0.1073
  4924G12c C02591329   3.902  10.472   3.972  0.5135  1.5583 -1.5056
  4924G12c C02691330   3.866  10.310   3.951 -1.4909  0.2203  0.0056
  4924G12c H00Y91331   3.851  10.268   3.851  7.2668 -0.8191 -1.2086
  4924G12c H00X91332   3.764  10.288   3.983 -2.2220  1.6698 -1.2774
  4924G12c O00C91333   3.977  10.259   4.017 -0.5227  0.7700  0.3576
  4924G12c H00W91334   3.970  10.233   4.108 -5.6502  0.2011 -0.0905
  4924G12c C02791335   4.010  10.553   3.943 -1.0147 -1.0021 -1.1513
  4924G12c O00D91336   4.002  10.698   3.970  0.5283  0.0615  0.6405
  4924G12c H00Z91337   4.092  10.727   3.961  0.4243  1.3623  3.4202
  4924G12c C02891338   4.123  10.514   3.858  2.2000 -1.0670 -0.0251
  4924G12c C02991339   4.157  10.569   3.733  0.9018  0.4468 -0.9499
  4924G12c H01091340   4.093  10.645   3.692  1.5385  3.0295  2.5796
  4924G12c C02T91341   4.251  10.510   3.647 -0.7683  0.7670  0.4755
  4924G12c H01O91342   4.290  10.540   3.551  8.7166  1.0878  3.8448
  4924G12c C02S91343   4.330  10.408   3.693  0.0301  0.8055 -0.3433
  4924G12c O00J91344   4.419  10.362   3.607 -0.1752 -0.5272 -0.0666
  4924G12c H01P91345   4.488  10.317   3.653  0.5909  0.1577 -0.5417
  4924G12c C02R91346   4.319  10.361   3.816  1.2199  1.7310 -0.6402
  4924G12c O00I91347   4.408  10.274   3.873  2.3411 -0.3735 -1.0504
  4924G12c C02Q91348   4.383  10.136   3.820  0.0769  0.8890  1.0107
  4924G12c H01N91349   4.462  10.063   3.838  4.2328  3.8156 -3.8519
  4924G12c H01R91350   4.352  10.142   3.716 -0.0789 -3.0792  0.7659
  4924G12c H01Q91351   4.296  10.096   3.872  1.4736  3.6665  5.8790
  4924G12c C02A91352   4.221  10.418   3.894 -0.2499  0.2698 -0.6068
  4924G12c H01191353   4.201  10.364   3.985 -0.1119  5.6736  2.8549
  4924G12c C00C91354   3.718  10.741   4.010  0.9940  0.6337 -0.6648
  4924G12c H01291355   3.701  10.734   3.903  1.2494 -1.0348 -0.6080
  4924G12c C00B91356   3.704  10.870   4.069 -2.2902 -0.5894  0.6603
  4924G12c C00A91357   3.682  10.987   4.004  1.3661  0.6046  0.7176
  4924G12c C00991358   3.703  11.009   3.864 -1.3879 -0.6623 -0.8059
  4924G12c C00891359   3.731  10.930   3.747 -0.9624  0.7429 -0.6885
  4924G12c H01391360   3.683  10.837   3.720  2.4008 -0.8828 -1.4221
  4924G12c C00791361   3.812  10.981   3.635  1.2110 -0.5853  0.8675
  4924G12c H01491362   3.841  10.929   3.545 -0.6058  0.9419 -0.6153
  4924G12c C00691363   3.900  11.092   3.650 -2.3034  2.1990  0.0588
  4924G12c C00591364   3.878  11.178   3.758  1.8368 -0.2951 -2.3739
  4924G12c C00491365   3.952  11.287   3.788 -0.2060  1.0261  0.4722
  4924G12c C00391366   3.949  11.335   3.920  0.4489  0.2143  0.4687
  4924G12c C00291367   4.043  11.446   3.926  0.5216 -1.9210  1.1299
  4924G12c C00191368   4.079  11.523   4.035  0.5129 -0.3791 -1.2978
  4924G12c C00M91369   4.100  11.457   4.158 -0.5243  0.7985  0.5516
  4924G12c C00L91370   4.041  11.340   4.199 -0.4519  0.7604 -0.8711
  4924G12c C00R91371   4.056  11.289   4.325 -2.2546 -0.0406  1.3497
  4924G12c C00Q91372   4.182  11.274   4.409 -1.5465 -1.9772 -1.0671
  4924G12c C00V91373   4.154  11.181   4.512 -0.4549 -1.2004 -0.0346
  4924G12c C00U91374   4.046  11.094   4.513 -0.8132  1.1121  0.7560
  4924G12c C00T91375   3.957  11.102   4.410 -0.7644  0.9094  1.4708
  4924G12c C01691376   3.857  11.001   4.384  0.1883 -1.0296  0.1856
  4924G12c C01591377   3.848  10.895   4.467  1.1443 -0.5860 -0.0421
  4924G12c C01091378   3.916  10.908   4.586  0.4628 -0.3532  0.8707
  4924G12c C01191379   3.895  10.816   4.699  1.4380  0.3719  1.8832
  4924G12c H00591380   3.935  10.809   4.799  0.5563 -1.5341  2.1397
  4924G12c C01291381   3.828  10.705   4.647 -1.0441 -0.5891 -0.8159
  4924G12c C01791382   3.798  10.593   4.746  0.8878  0.0979 -1.4535
  4924G12c O00291383   3.684  10.627   4.822 -0.8320  0.7793  0.0542
  4924G12c H00491384   3.686  10.573   4.899  0.1848 -5.2302 -3.9242
  4924G12c C01891385   3.876  10.473   4.775  0.2911  0.2626 -0.3563
  4924G12c O00191386   3.990  10.440   4.710  1.4560 -0.0697  0.2457
  4924G12c H00391387   3.989  10.515   4.653 -1.6288 -1.2416 -1.3287
  4924G12c C01991388   3.809  10.378   4.887  1.1796 -0.8985  0.8707
  4924G12c H00291389   3.863  10.287   4.862 -0.1847 -1.1113 -1.4998
  4924G12c H00191390   3.829  10.416   4.987 -0.5634  7.1178 -1.4044
  4924G12c O00091391   3.672  10.335   4.848 -1.0924  0.4542 -0.0478
  4924G12c C01A91392   3.627  10.275   4.729 -2.0618 -0.2085  0.4151
  4924G12c C02K91393   3.673  10.149   4.666 -1.9288 -0.7888 -0.3421
  4924G12c O00G91394   3.758  10.064   4.735 -1.4632  0.0186  0.9412
  4924G12c C02M91395   3.703   9.972   4.812 -0.0293 -0.1558  0.1508
  4924G12c H01G91396   3.619   9.929   4.759  0.5040  1.2749 -1.9207
  4924G12c H01F91397   3.675  10.003   4.912 -0.4665  2.0483 -0.6306
  4924G12c H01E91398   3.768   9.888   4.837  0.4084  1.6376  5.8603
  4924G12c C02J91399   3.607  10.095   4.556 -0.8367  0.8325  1.5412
  4924G12c H01H91400   3.639  10.004   4.508  4.4192  2.8999  0.7895
  4924G12c C02I91401   3.499  10.151   4.493 -0.3094  0.2195 -0.0027
  4924G12c C02N91402   3.434  10.126   4.365  0.6180  0.8676  0.5129
  4924G12c H01M91403   3.446  10.019   4.354 -5.3074  0.3476 -3.4110
  4924G12c C02O91404   3.379  10.191   4.263  1.4260  0.9035 -0.0067
  4924G12c H01L91405   3.390  10.299   4.261 -0.0950  1.2245  3.6299
  4924G12c C02P91406   3.368  10.128   4.125  1.4941 -0.3815  0.8870
  4924G12c H01K91407   3.284  10.143   4.058 -3.4322  0.3325  6.7323
  4924G12c H01J91408   3.392  10.023   4.141  0.6746  0.3867  9.2955
  4924G12c O00H91409   3.470  10.191   4.050 -1.9917  0.8328 -1.1221
  4924G12c H01I91410   3.521  10.125   4.006  4.9577  5.9409 -1.4297
  4924G12c C02H91411   3.452  10.264   4.568 -1.4169  1.1659 -0.8243
  4924G12c H01C91412   3.385  10.330   4.515  1.8562  1.2339 -5.2098
  4924G12c C02L91413   3.513  10.324   4.685  0.9896 -0.1867  0.8318
  4924G12c H01D91414   3.449  10.405   4.718 -4.3482 -5.7387  5.3467
  4924G12c C01391415   3.767  10.687   4.522  0.4874  0.2803  0.8233
  4924G12c H00091416   3.723  10.595   4.485 -2.3920  3.9871 -5.9001
  4924G12c C01491417   3.765  10.787   4.425  0.3469  0.3193  1.1071
  4924G12c C00F91418   3.747  10.771   4.290 -0.3798  0.5343  0.1458
  4924G12c C00H91419   3.799  10.998   4.261 -0.7374 -1.2452  0.8230
  4924G12c C00I91420   3.784  11.122   4.205  0.2201 -0.0204 -0.0120
  4924G12c C00J91421   3.844  11.233   4.262 -1.0464  1.4675  1.3057
  4924G12c C00Z91422   4.034  10.987   4.598 -1.0474 -1.5445 -0.4515
  4924G12c C00Y91423   4.127  10.975   4.691 -0.1265  1.8926 -0.1471
  4924G12c H00691424   4.126  10.890   4.757  2.8657  2.6549  0.9787
  4924G12c C00X91425   4.246  11.054   4.703 -1.3613  0.5624 -1.0486
  4924G12c O00391426   4.298  11.061   4.839 -0.7215 -0.3068  1.3599
  4924G12c C01B91427   4.215  11.099   4.940  0.0844 -0.8030 -1.4404
  4924G12c H00991428   4.108  11.097   4.915 -2.4472 -0.4562  7.6708
  4924G12c H00891429   4.224  11.190   4.999  1.7675 -1.8362 -0.0435
  4924G12c H00791430   4.212  11.019   5.015 -0.6216 -1.7056 -2.4037
  4924G12c C00W91431   4.258  11.156   4.606 -2.4523 -0.5511  0.7004
  4924G12c O00491432   4.366  11.246   4.607  1.3283  1.1458 -0.5378
  4924G12c C01C91433   4.415  11.272   4.480 -2.1883 -0.1443  1.6035
  4924G12c H00A91434   4.498  11.222   4.432  0.3265  1.7688  3.8272
  4924G12c C00P91435   4.307  11.316   4.398 -1.3476  0.7009 -1.5433
  4924G12c C00O91436   4.339  11.403   4.296 -0.0373  0.1750 -0.1522
  4924G12c C01D91437   4.472  11.441   4.282  0.2121 -0.6414  0.2718
  4924G12c H00S91438   4.544  11.435   4.362  1.2370 -2.4030 -0.7456
  4924G12c C01E91439   4.511  11.499   4.156  0.9782  0.4898  0.4058
  4924G12c O00891440   4.647  11.489   4.110 -0.5154 -1.4803 -0.6341
  4924G12c C01V91441   4.759  11.555   4.185  1.5282  0.4450  1.8806
  4924G12c C01Z91442   4.860  11.448   4.236  0.2128 -0.4422  2.1712
  4924G12c H00R91443   4.939  11.419   4.166 -4.3827  0.4088 -3.7982
  4924G12c H00Q91444   4.888  11.510   4.321  9.9854  3.2145 -2.8926
  4924G12c O00991445   4.775  11.348   4.278 -0.1343  2.0148 -0.6876
  4924G12c H00P91446   4.709  11.311   4.222  2.2419 -1.2574 -1.5182
  4924G12c C01W91447   4.764  11.685   4.205 -0.1453  1.0332 -0.9189
  4924G12c H00O91448   4.684  11.730   4.149  0.5724  3.6634  0.1027
  4924G12c C01X91449   4.847  11.786   4.286 -0.1453  0.7272 -0.9906
  4924G12c H00N91450   4.950  11.753   4.274  0.7769  2.5859  1.4583
  4924G12c H00M91451   4.852  11.884   4.238  6.0062  1.8348  1.4957
  4924G12c C01Y91452   4.826  11.833   4.432 -0.3047 -0.9393  0.5924
  4924G12c C02D91453   4.938  11.859   4.495 -3.1324 -1.0060  0.4432
  4924G12c H01991454   5.036  11.850   4.448 -3.1889 -1.2456  0.3669
  4924G12c C02C91455   4.925  11.897   4.634 -0.6032 -0.8413 -0.6689
  4924G12c H01A91456   5.017  11.949   4.659 -2.4868  3.4820 -2.2220
  4924G12c C02B91457   4.817  11.895   4.707 -0.0546 -1.0996  1.0212
  4924G12c O00E91458   4.832  11.899   4.842 -1.1502  0.8939 -0.6621
  4924G12c H01B91459   4.749  11.941   4.855 -2.9582  0.8954 -9.3012
  4924G12c C02F91460   4.702  11.836   4.645 -0.6599 -0.1070 -1.2195
  4924G12c O00F91461   4.605  11.841   4.742 -0.5660 -0.6523 -0.5355
  4924G12c C02G91462   4.520  11.758   4.698 -1.8906 -0.7579  1.6034
  4924G12c H01791463   4.558  11.658   4.721  1.1419 -0.3481 -1.3584
  4924G12c H01691464   4.483  11.766   4.596  0.2692 -3.1022  0.5935
  4924G12c H01591465   4.433  11.783   4.759 -1.2966  3.6076  0.8386
  4924G12c C02E91466   4.703  11.806   4.514  0.0594 -0.5740  1.1247
  4924G12c H01891467   4.617  11.777   4.456  1.1314 -0.9483 -0.2745
  4924G12c C01F91468   4.430  11.552   4.048  0.8191  0.4681  2.1186
  4924G12c C01G91469   4.458  11.553   3.904 -0.4030 -0.7697  0.8916
  4924G12c H00L91470   4.557  11.563   3.861 -2.2385  6.6536 -2.4445
  4924G12c C01H91471   4.342  11.565   3.818 -1.1475 -0.3269  0.0292
  4924G12c H00B91472   4.327  11.557   3.711  2.6269  4.5398 -1.0879
  4924G12c C01I91473   4.217  11.571   3.867 -1.1435 -0.4870 -1.0118
  4924G12c C01U91474   4.300  11.562   4.091 -0.0467 -1.2878  0.6972
  4924G12c C00S91475   3.936  11.228   4.370 -0.8935  1.1833  1.0167
  4924G12c C00K91476   3.921  11.283   4.155 -0.6642 -0.0584  1.2345
  4924G12c C00N91477   4.244  11.468   4.196  1.1132 -0.8992 -0.1903
  4924G12c C00091478   4.198  11.606   3.997  1.8417  0.1540  0.5638
  4924G12c C01J91479   4.096  11.513   3.812 -1.4885 -0.7345 -1.3810
  4924G12c C01K91480   4.080  11.471   3.673 -1.4745 -1.1114  1.6133
  4924G12c C01P91481   4.130  11.523   3.546 -0.8539 -0.8865 -0.4649
  4924G12c C01Q91482   4.178  11.661   3.527  0.4136  0.3014 -0.3452
  4924G12c H00G91483   4.148  11.743   3.591  1.3555  3.5023 -3.8211
  4924G12c C01R91484   4.292  11.675   3.457 -0.0161  1.1461 -0.0534
  4924G12c H00F91485   4.328  11.600   3.388 -3.9703  1.9778 -3.1947
  4924G12c C01S91486   4.389  11.794   3.450  0.0408 -1.7183  1.8746
  4924G12c H00E91487   4.471  11.792   3.378  1.0606 -3.3154  3.0758
  4924G12c H00D91488   4.329  11.880   3.419  0.4422 -3.3233 -4.0442
  4924G12c O00591489   4.393  11.834   3.594  1.6124  1.4882 -0.0555
  4924G12c H00C91490   4.375  11.925   3.607  0.6277  1.5028 -1.3571
  4924G12c C01O91491   4.092  11.455   3.435  1.6797  0.4590  0.2502
  4924G12c H00H91492   4.110  11.508   3.343 -0.1296  2.2435  0.8883
  4924G12c C01N91493   4.043  11.323   3.435 -0.0695 -1.6034 -0.7541
  4924G12c O00691494   4.016  11.273   3.320  0.4322 -0.5068  0.0833
  4924G12c C01T91495   3.890  11.322   3.272  0.7821 -0.3970  0.7736
  4924G12c H00K91496   3.801  11.299   3.330 -1.3232 -0.3472 -2.3459
  4924G12c H00J91497   3.869  11.288   3.171 -0.1405 -1.5606  1.3379
  4924G12c H00I91498   3.908  11.427   3.249  1.1295 -0.2098  1.8737
  4924G12c C01M91499   4.033  11.256   3.549  0.1869  0.5962 -0.8373
  4924G12c C02091500   3.871  11.279   4.021  1.1664 -0.2022 -0.1383
  4924G12c C02191501   3.767  11.208   3.981  1.3144 -0.4413 -0.9485
  4924G12c C01L91502   4.025  11.339   3.678 -0.3635 -2.6695  1.4924
  4924G12c O00791503   4.000  11.114   3.561  0.2062  0.9361  0.0040
  4924G12c C02291504   3.786  11.135   3.873  0.9219 -0.9494  2.1134
  4924G12c C02391505   3.717  11.105   4.072  0.5580  0.3072  0.5533
  4924G12c C00G91506   3.739  10.882   4.208 -1.5631  0.1983 -0.5457
  4924G12c C00E91507   3.775  10.641   4.226 -2.0792  0.4790  1.5515
  4924G12c O00A91508   3.843  10.551   4.300  0.5236 -1.2704  0.0529
  4924G12c C02491509   3.991  10.536   4.284 -1.1186 -0.3081 -0.3762
  4924G12c H00V91510   4.025  10.639   4.276  1.1366 -1.2686 -4.2299
  4924G12c H00U91511   4.008  10.500   4.182 -0.2266 -1.3508  0.1298
  4924G12c H00T91512   3.993  10.479   4.377 -2.0001  5.0983  3.1570
  4934G12c C00D91513  10.085   0.940  12.994 -0.8603  0.5314  0.1160
  4934G12c O00B91514  10.176   0.938  12.883  0.0941 -1.8529  0.7854
  4934G12c C02591515  10.153   0.841  12.781 -1.8101  0.8668  0.6369
  4934G12c C02691516  10.249   0.745  12.753 -1.3067 -0.8859 -0.6075
  4934G12c H00Y91517  10.316   0.817  12.705  2.3213 -2.4237  1.8791
  4934G12c H00X91518  10.233   0.677  12.670  1.0410 -2.6659  0.3383
  4934G12c O00C91519  10.286   0.673  12.858  1.0306  1.2183  1.1515
  4934G12c H00W91520  10.299   0.741  12.922 -1.8662  2.8432  0.0871
  4934G12c C02791521  10.031   0.851  12.719 -2.6801  0.7079  2.8864
  4934G12c O00D91522   9.941   0.957  12.729 -0.0225  0.4366  0.2060
  4934G12c H00Z91523   9.969   1.021  12.793 -0.1428 -0.1946  0.8892
  4934G12c C02891524   9.996   0.774  12.608 -2.2483  0.6686 -1.0794
  4934G12c C02991525   9.996   0.622  12.605 -0.0140 -0.5072  0.9924
  4934G12c H01091526  10.029   0.580  12.699  4.5220 -2.1928 -1.1957
  4934G12c C02T91527   9.963   0.552  12.485 -0.4192  0.0011 -0.3113
  4934G12c H01O91528   9.986   0.451  12.514  1.3568  0.4275 -0.1288
  4934G12c C02S91529   9.916   0.612  12.368 -0.4645  1.4803 -2.1425
  4934G12c O00J91530   9.875   0.532  12.262  0.4442 -0.1896  0.0706
  4934G12c H01P91531   9.857   0.586  12.187 -1.5171  0.7491  1.1747
  4934G12c C02R91532   9.890   0.750  12.369 -1.6687 -0.0801  1.1369
  4934G12c O00I91533   9.780   0.794  12.296 -0.6115  1.6398  0.4744
  4934G12c C02Q91534   9.810   0.892  12.210  1.5931  0.5553 -1.1664
  4934G12c H01N91535   9.875   0.863  12.127 -1.8072 -1.8722 -3.0804
  4934G12c H01R91536   9.715   0.931  12.173  1.7734  3.3444  1.1185
  4934G12c H01Q91537   9.866   0.960  12.275  3.9386 -4.2855  2.2389
  4934G12c C02A91538   9.936   0.824  12.480 -0.1980 -1.2988 -0.0540
  4934G12c H01191539   9.920   0.930  12.493 -0.8558 -0.7338 -4.6412
  4934G12c C00C91540  10.066   0.843  13.092 -0.3348 -0.9320 -0.0468
  4934G12c H01291541  10.143   0.767  13.097  0.4750 -0.3014 -2.6143
  4934G12c C00B91542   9.966   0.869  13.196 -0.5118 -0.2031 -0.5159
  4934G12c C00A91543   9.935   0.807  13.332 -1.7135 -0.4780 -0.2660
  4934G12c C00991544   9.957   0.662  13.377  0.8149  0.4084  0.5677
  4934G12c C00891545  10.014   0.548  13.336 -0.7140 -0.8732  1.2495
  4934G12c H01391546  10.076   0.542  13.248  0.8414  0.0745  2.2567
  4934G12c C00791547   9.986   0.421  13.400 -0.8291  0.9544 -0.4316
  4934G12c H01491548  10.030   0.325  13.379 -1.1123  0.6907  0.1622
  4934G12c C00691549   9.894   0.420  13.499  0.8918  0.8998 -0.9034
  4934G12c C00591550   9.858   0.543  13.555  1.2558  1.5105  0.6858
  4934G12c C00491551   9.737   0.536  13.629  0.7747 -0.3221  2.1232
  4934G12c C00391552   9.675   0.662  13.652 -0.4450 -0.4246  0.9360
  4934G12c C00291553   9.535   0.643  13.717 -0.0286 -1.5174  1.1187
  4934G12c C00191554   9.444   0.734  13.752 -0.7684  0.6153 -0.2695
  4934G12c C00M91555   9.392   0.839  13.664  1.6833 -0.4260  0.8938
  4934G12c C00L91556   9.477   0.938  13.608 -0.7128 -0.0781  0.3664
  4934G12c C00R91557   9.441   1.029  13.499  1.3063  0.3730  1.3711
  4934G12c C00Q91558   9.310   1.070  13.456  0.3249  0.3723 -0.3201
  4934G12c C00V91559   9.314   1.148  13.337  0.2184  0.0764 -0.7021
  4934G12c C00U91560   9.431   1.155  13.257 -0.1901 -1.7089 -0.7203
  4934G12c C00T91561   9.539   1.088  13.297 -1.5703  0.3803  1.0352
  4934G12c C01691562   9.660   1.085  13.225  0.3761  0.3847 -1.2674
  4934G12c C01591563   9.669   1.162  13.111 -0.3354  0.5464  1.3444
  4934G12c C01091564   9.547   1.217  13.054 -0.2263  1.7171 -0.1254
  4934G12c C01191565   9.547   1.253  12.924  0.4470 -1.6086 -0.1801
  4934G12c H00591566   9.463   1.280  12.862 -0.9117 -1.2935  1.7530
  4934G12c C01291567   9.672   1.257  12.851  1.3144  1.4661  0.1062
  4934G12c C01791568   9.662   1.327  12.720  1.0362  0.0933 -0.5715
  4934G12c O00291569   9.563   1.280  12.642 -0.3102 -0.4883  1.4216
  4934G12c H00491570   9.480   1.324  12.644 -1.5764 -2.4944 -2.0175
  4934G12c C01891571   9.752   1.414  12.680 -1.2560 -0.9223  0.5937
  4934G12c O00191572   9.722   1.450  12.551  0.4075  0.2099 -0.0686
  4934G12c H00391573   9.650   1.413  12.503  0.7292 -1.1414  0.4783
  4934G12c C01991574   9.871   1.489  12.752 -1.0785  0.1451  0.3837
  4934G12c H00291575   9.934   1.428  12.817  2.1530  1.0728 -1.7665
  4934G12c H00191576   9.945   1.514  12.676 -3.6225  2.0828 -1.5177
  4934G12c O00091577   9.846   1.607  12.812 -0.5073 -1.2139 -0.0693
  4934G12c C01A91578   9.947   1.671  12.901  1.2518 -0.4355 -0.4617
  4934G12c C02K91579   9.928   1.693  13.035  0.4602 -0.5000  0.4320
  4934G12c O00G91580   9.819   1.672  13.131  1.3284 -0.7446 -1.0591
  4934G12c C02M91581   9.760   1.541  13.108 -0.8481  0.4685  0.0311
  4934G12c H01G91582   9.807   1.472  13.038 -0.5330  1.6616 -0.9270
  4934G12c H01F91583   9.675   1.576  13.050 -0.6468 -2.1016 -1.9214
  4934G12c H01E91584   9.731   1.469  13.185 -0.5723  3.1751  2.7678
  4934G12c C02J91585  10.024   1.775  13.102  0.0294 -0.2603 -0.8277
  4934G12c H01H91586  10.009   1.813  13.202  4.1107 -2.9597  0.9397
  4934G12c C02I91587  10.132   1.830  13.040 -0.7953  0.3413 -0.1091
  4934G12c C02N91588  10.232   1.883  13.117  0.8926  0.1197  0.4127
  4934G12c H01M91589  10.292   1.818  13.179  0.5059 -4.0815 -3.3213
  4934G12c C02O91590  10.312   1.989  13.091  0.5695 -0.6268  0.0876
  4934G12c H01L91591  10.257   2.062  13.033  3.9346  0.9562 -1.2500
  4934G12c C02P91592  10.448   2.049  13.138 -0.1948 -0.3562  1.3044
  4934G12c H01K91593  10.517   1.977  13.095  2.5630  4.3620 -2.6762
  4934G12c H01J91594  10.495   2.113  13.063 -0.4029 -4.2026 -2.2811
  4934G12c O00H91595  10.450   2.121  13.244 -1.3662 -0.5969 -0.3869
  4934G12c H01I91596  10.466   2.209  13.214  0.5127  0.2955  3.0132
  4934G12c C02H91597  10.160   1.773  12.913  1.5047 -0.6102 -2.0187
  4934G12c H01C91598  10.254   1.813  12.877  0.6590  2.4741 -1.0114
  4934G12c C02L91599  10.059   1.710  12.835  1.1462 -0.0710  0.8263
  4934G12c H01D91600  10.062   1.709  12.727 -2.4745  3.5333  0.5813
  4934G12c C01391601   9.797   1.214  12.912  0.1040 -1.0275  0.8994
  4934G12c H00091602   9.884   1.215  12.848 -0.3595 -4.7156  0.1007
  4934G12c C01491603   9.784   1.148  13.033 -0.7535  1.1025  0.0046
  4934G12c C00F91604   9.890   1.069  13.077  0.0686  1.5043 -1.2340
  4934G12c C00H91605   9.770   0.999  13.278  1.8944 -0.9844  3.0438
  4934G12c C00I91606   9.755   0.952  13.397 -0.5390 -0.1179  0.3470
  4934G12c C00J91607   9.649   0.979  13.471 -1.4591 -0.9828 -1.1787
  4934G12c C00Z91608   9.436   1.211  13.125  1.2275 -0.5675  0.6502
  4934G12c C00Y91609   9.315   1.294  13.094 -0.7061 -0.5404  1.2981
  4934G12c H00691610   9.307   1.343  12.999 -0.4017  1.1317  2.1127
  4934G12c C00X91611   9.203   1.295  13.186  1.2232  0.6065  0.4410
  4934G12c O00391612   9.100   1.386  13.179 -0.9762 -0.5236  1.4322
  4934G12c C01B91613   9.128   1.529  13.181 -0.6496 -0.1137 -1.9481
  4934G12c H00991614   9.115   1.562  13.283 -0.3384  0.6142 -2.1468
  4934G12c H00891615   9.068   1.581  13.106  0.6642  4.6175  0.1242
  4934G12c H00791616   9.230   1.537  13.217 -2.1716  3.3786  1.9373
  4934G12c C00W91617   9.191   1.221  13.310  0.5015 -0.0138  0.7533
  4934G12c O00491618   9.080   1.218  13.389  1.0071  0.2369 -0.5305
  4934G12c C01C91619   9.072   1.115  13.481  0.2726  1.2971 -0.3935
  4934G12c H00A91620   8.980   1.097  13.534  2.2793 -0.5181  2.7127
  4934G12c C00P91621   9.184   1.034  13.508 -0.1849  1.0525  0.6135
  4934G12c C00O91622   9.147   0.920  13.582 -0.7123  0.3619  0.9748
  4934G12c C01D91623   9.034   0.855  13.573 -0.1782 -0.0843  1.4567
  4934G12c H00S91624   8.945   0.904  13.537 -4.2067 -2.4248  7.4326
  4934G12c C01E91625   9.022   0.717  13.575 -0.2255  1.3917 -0.1654
  4934G12c O00891626   8.924   0.651  13.488 -0.8358  1.0716 -1.3477
  4934G12c C01V91627   8.879   0.721  13.375 -1.0943 -0.0174 -0.5766
  4934G12c C01Z91628   8.975   0.765  13.253 -0.9807  1.7568  1.7456
  4934G12c H00R91629   9.076   0.774  13.292 -1.0298  0.2362  2.2506
  4934G12c H00Q91630   8.966   0.674  13.193 -4.5181  4.9225 -2.9354
  4934G12c O00991631   8.964   0.909  13.221  0.0115  1.0889  0.0223
  4934G12c H00P91632   9.010   0.931  13.141  1.5833  2.0292  1.1609
  4934G12c C01W91633   8.751   0.734  13.376  0.1827  1.7072  0.3260
  4934G12c H00O91634   8.708   0.693  13.466  0.3030  6.8428  2.8629
  4934G12c C01X91635   8.667   0.753  13.249  1.2619 -0.6264 -0.1180
  4934G12c H00N91636   8.717   0.806  13.168  0.7691 -3.3726 -2.2897
  4934G12c H00M91637   8.634   0.653  13.220  2.3961 -2.1253  3.4631
  4934G12c C01Y91638   8.550   0.851  13.281  0.2624 -0.1209 -0.6740
  4934G12c C02D91639   8.553   0.978  13.334  0.0185  0.2268 -0.3106
  4934G12c H01991640   8.652   0.997  13.372  0.2148  0.9249 -1.1511
  4934G12c C02C91641   8.429   1.036  13.377  1.0837 -0.6422  0.9380
  4934G12c H01A91642   8.431   1.126  13.436  0.8446 -0.1146  0.1613
  4934G12c C02B91643   8.309   1.003  13.329  0.5363 -0.3591 -0.3658
  4934G12c O00E91644   8.190   1.050  13.380 -1.2312  0.8974  0.0166
  4934G12c H01B91645   8.110   1.005  13.358  1.4904 -2.8874 -2.7168
  4934G12c C02F91646   8.297   0.888  13.260  1.0748  1.7453  0.6604
  4934G12c O00F91647   8.181   0.821  13.264 -0.5524 -1.3179  0.3492
  4934G12c C02G91648   8.159   0.754  13.376  1.6471 -0.3437 -0.4343
  4934G12c H01791649   8.085   0.673  13.375 -0.8328  1.8851 -1.6245
  4934G12c H01691650   8.116   0.822  13.449 -0.9865 -5.4684  3.1606
  4934G12c H01591651   8.247   0.722  13.432  2.6125  1.8010 -0.7017
  4934G12c C02E91652   8.415   0.808  13.244 -1.0290 -3.4597 -0.3187
  4934G12c H01891653   8.388   0.709  13.209 -4.4250 -0.9902 -5.2661
  4934G12c C01F91654   9.125   0.650  13.634  0.5331  0.5275 -0.2475
  4934G12c C01G91655   9.130   0.509  13.675  0.5874  1.3303  1.6872
  4934G12c H00L91656   9.045   0.474  13.619  3.7518 -1.8296 -1.3979
  4934G12c C01H91657   9.246   0.440  13.744  1.1274  0.5635 -0.7029
  4934G12c H00B91658   9.250   0.333  13.760  0.6889  1.3233  6.0199
  4934G12c C01I91659   9.351   0.530  13.787  2.8990 -0.1804  0.1227
  4934G12c C01U91660   9.234   0.714  13.687 -0.6319 -1.1384 -0.5648
  4934G12c C00S91661   9.557   1.071  13.430 -1.0915  0.4839  0.3127
  4934G12c C00K91662   9.611   0.889  13.579  0.9371 -1.2222 -1.7578
  4934G12c C00N91663   9.253   0.840  13.647 -0.1237  1.2240  1.2862
  4934G12c C00091664   9.335   0.660  13.781  0.7558  0.1007  2.0531
  4934G12c C01J91665   9.489   0.520  13.765 -0.9966  0.5249  0.3101
  4934G12c C01K91666   9.569   0.403  13.761 -0.3955 -1.5898 -0.0300
  4934G12c C01P91667   9.536   0.263  13.806 -1.4258  0.1220  0.6592
  4934G12c C01Q91668   9.428   0.239  13.898 -0.3929  0.4221  0.7944
  4934G12c H00G91669   9.390   0.331  13.938  5.4144  0.7177  6.4322
  4934G12c C01R91670   9.358   0.124  13.904 -0.9833 -0.5105  0.2629
  4934G12c H00F91671   9.394   0.049  13.836 -4.5129 -1.1726 -0.9814
  4934G12c C01S91672   9.280   0.090  14.025  0.1806  0.7397  0.4020
  4934G12c H00E91673   9.348   0.047  14.099  1.3200 -0.9564 -1.5562
  4934G12c H00D91674   9.242   0.185  14.061  2.8598  0.5362  4.0945
  4934G12c O00591675   9.198  -0.017  13.988  0.1229  0.8168 -0.9816
  4934G12c H00C91676   9.223  -0.106  14.010 -3.3790  0.9066  4.1168
  4934G12c C01O91677   9.626   0.148  13.776 -0.1805  0.4968 -1.0756
  4934G12c H00H91678   9.605   0.047  13.810 -3.4425  0.6610 -2.3675
  4934G12c C01N91679   9.715   0.176  13.671 -1.9479  1.1028  1.4314
  4934G12c O00691680   9.809   0.064  13.643  0.8903 -0.3207  0.4635
  4934G12c C01T91681   9.896   0.050  13.753 -0.4990 -0.7870  0.1788
  4934G12c H00K91682   9.951  -0.043  13.734 -2.8416 -1.2699 -5.0265
  4934G12c H00J91683   9.979   0.118  13.774 -2.1142  2.7629 -4.0743
  4934G12c H00I91684   9.843  -0.014  13.822 -1.2357 -2.0866 -1.5400
  4934G12c C01M91685   9.754   0.304  13.632 -1.2242  0.4986  2.2044
  4934G12c C02091686   9.703   0.789  13.598  1.3248  1.4161 -0.5976
  4934G12c C02191687   9.840   0.794  13.554 -1.7959  1.5596  0.4481
  4934G12c C01L91688   9.685   0.420  13.672 -0.5619  0.6734 -0.1889
  4934G12c O00791689   9.850   0.311  13.555 -0.8872  1.1918 -0.2297
  4934G12c C02291690   9.915   0.669  13.515 -0.9057 -0.3048 -0.2834
  4934G12c C02391691   9.872   0.882  13.441 -0.2399 -0.9252  0.5025
  4934G12c C00G91692   9.889   0.983  13.192  1.4490 -1.6557 -0.2062
  4934G12c C00E91693  10.010   1.057  13.001 -0.3822  1.4607 -0.1098
  4934G12c O00A91694  10.076   1.172  12.970  0.5429 -0.0284 -0.3234
  4934G12c C02491695  10.173   1.208  13.065 -0.2348 -1.3111  0.1564
  4934G12c H00V91696  10.164   1.142  13.151  0.9886 -1.9360 -0.1760
  4934G12c H00U91697  10.142   1.291  13.128  2.5749  2.2703 -2.9218
  4934G12c H00T91698  10.274   1.222  13.027 -0.3327 -5.2635 -1.8495
  4944G12c C00D91699   9.904  10.888  13.013 -0.5851  0.7941 -0.0505
  4944G12c O00B91700   9.854  10.786  13.086  2.3319 -0.6475  0.0714
  4944G12c C02591701   9.732  10.806  13.149  0.6893 -1.3258 -0.2930
  4944G12c C02691702   9.742  10.798  13.294  2.1270  0.3024  1.8713
  4944G12c H00Y91703   9.655  10.750  13.338  2.7692 -4.3644 -1.6005
  4944G12c H00X91704   9.802  10.867  13.353 -0.7768  3.6924  1.0232
  4944G12c O00C91705   9.826  10.688  13.301  0.9628 -0.4102 -1.3464
  4944G12c H00W91706   9.807  10.676  13.209 -0.7090  0.8793 -1.1911
  4944G12c C02791707   9.626  10.833  13.079 -0.1477 -0.6721  0.4826
  4944G12c O00D91708   9.621  10.808  12.931  1.2080  0.2527  1.0348
  4944G12c H00Z91709   9.694  10.750  12.917  2.3750  1.5996  1.5361
  4944G12c C02891710   9.515  10.897  13.154  1.7362  1.5187 -0.1663
  4944G12c C02991711   9.516  10.988  13.259  0.3447  0.6430 -0.1162
  4944G12c H01091712   9.595  10.974  13.331  0.5831  2.6049  0.0304
  4944G12c C02T91713   9.412  11.079  13.295  0.7967 -1.1095  1.6207
  4944G12c H01O91714   9.429  11.121  13.393  3.3162 -2.1338  1.6785
  4944G12c C02S91715   9.298  11.070  13.221 -0.0366 -1.2481 -0.8641
  4944G12c O00J91716   9.207  11.177  13.259 -0.5355  0.0806 -0.4120
  4944G12c H01P91717   9.278  11.239  13.261  0.2976 -0.7822  5.5045
  4944G12c C02R91718   9.287  10.989  13.110 -0.0197 -0.4723 -0.1707
  4944G12c O00I91719   9.180  11.000  13.029 -0.1946 -1.1129 -0.1312
  4944G12c C02Q91720   9.191  11.083  12.919  1.4342 -0.2476  0.6404
  4944G12c H01N91721   9.250  11.017  12.856  0.4452 -2.8754  2.3550
  4944G12c H01R91722   9.190  11.189  12.946 -5.9680 -0.5394  2.6557
  4944G12c H01Q91723   9.097  11.076  12.865  0.7763  0.4342  1.6739
  4944G12c C02A91724   9.391  10.904  13.092  1.4507 -0.7855  0.6897
  4944G12c H01191725   9.393  10.846  13.002 -2.6704 -2.5801  1.6674
  4944G12c C00C91726   9.913  11.025  13.042  1.4631  2.6886  0.8114
  4944G12c H01291727   9.873  11.068  13.132  0.6969 -5.7668  5.0632
  4944G12c C00B91728   9.964  11.111  12.949 -0.5272  1.3619  0.4978
  4944G12c C00A91729   9.972  11.256  12.947  0.9769  1.0190 -1.3670
  4944G12c C00991730   9.896  11.349  13.030 -0.9677 -0.1519  0.6242
  4944G12c C00891731   9.819  11.334  13.150  0.8977  0.3346  0.4963
  4944G12c H01391732   9.795  11.241  13.199 -2.8947 -1.2331 -3.9381
  4944G12c C00791733   9.722  11.436  13.168 -2.0740  0.3055 -2.1353
  4944G12c H01491734   9.642  11.433  13.241 -1.9746  2.2994 -1.9063
  4944G12c C00691735   9.686  11.528  13.067  0.5369  0.2998  1.0433
  4944G12c C00591736   9.770  11.536  12.955  0.0591  1.3511  0.0368
  4944G12c C00491737   9.727  11.594  12.833 -0.1663  0.1494  0.2272
  4944G12c C00391738   9.802  11.570  12.711  0.3134  2.1252  0.4566
  4944G12c C00291739   9.733  11.612  12.587  0.3925  0.4134  0.3500
  4944G12c C00191740   9.787  11.621  12.446 -0.8549 -0.8041  1.1007
  4944G12c C00M91741   9.848  11.513  12.374  0.3881  0.9782 -0.8736
  4944G12c C00L91742   9.950  11.451  12.427  0.6119  1.6181 -1.3390
  4944G12c C00R91743  10.012  11.322  12.364  0.2255  0.2749  1.1012
  4944G12c C00Q91744   9.999  11.256  12.235 -0.0594  1.9064  1.6811
  4944G12c C00V91745  10.063  11.123  12.237  0.3903 -0.9453 -0.2782
  4944G12c C00U91746  10.125  11.063  12.356 -1.2334  0.1267 -1.2187
  4944G12c C00T91747  10.119  11.125  12.479  0.4045 -1.2015 -0.6276
  4944G12c C01691748  10.106  11.047  12.599  1.0051 -1.6759  0.8901
  4944G12c C01591749  10.146  10.919  12.596  0.6849  1.7338 -0.3723
  4944G12c C01091750  10.172  10.857  12.475 -0.5481 -0.1075  2.2689
  4944G12c C01191751  10.237  10.730  12.490 -0.5214  1.5259 -1.1609
  4944G12c H00591752  10.276  10.691  12.397  0.0519  3.4829 -1.7675
  4944G12c C01291753  10.271  10.676  12.616 -1.0237  0.9317 -0.2842
  4944G12c C01791754  10.395  10.591  12.619 -0.4011  0.2669  0.1178
  4944G12c O00291755  10.508  10.641  12.569  0.2321  0.2413  0.2811
  4944G12c H00491756  10.486  10.714  12.513  8.0246  0.7947 -2.7232
  4944G12c C01891757  10.379  10.459  12.641  0.1599 -0.4100  0.1798
  4944G12c O00191758  10.259  10.400  12.632  0.2516 -0.5203 -1.4746
  4944G12c H00391759  10.269  10.310  12.606  3.1665  0.8683 -5.5256
  4944G12c C01991760  10.490  10.358  12.617  0.6119  1.5073 -1.0398
  4944G12c H00291761  10.570  10.401  12.557  0.6867  4.5851  1.1516
  4944G12c H00191762  10.551  10.331  12.703 -7.3364 -6.9186  2.9184
  4944G12c O00091763  10.453  10.232  12.553 -0.0221  0.4369  0.1298
  4944G12c C01A91764  10.435  10.225  12.416  0.6749  0.7688  1.1421
  4944G12c C02K91765  10.515  10.123  12.355  0.1021  0.0972  0.7508
  4944G12c O00G91766  10.583  10.054  12.439  0.7879  1.6691 -0.8358
  4944G12c C02M91767  10.518   9.933  12.498 -0.3815  0.0578 -0.4838
  4944G12c H01G91768  10.460   9.986  12.573  0.7342  0.5433  0.0568
  4944G12c H01F91769  10.604   9.884  12.543 -0.6689  4.3809  5.3710
  4944G12c H01E91770  10.517   9.867  12.411  1.7079 -1.6454  0.7443
  4944G12c C02J91771  10.498  10.105  12.204  1.2252  0.0425 -1.0884
  4944G12c H01H91772  10.583  10.067  12.150 -1.2104 -1.7959 -3.7467
  4944G12c C02I91773  10.423  10.199  12.139  1.6712  0.8788 -0.2677
  4944G12c C02N91774  10.449  10.218  11.989 -0.6370  0.6891 -1.0167
  4944G12c H01M91775  10.367  10.258  11.931  1.1107  2.2820 -2.4305
  4944G12c C02O91776  10.553  10.195  11.926  0.9663  2.6015  0.5989
  4944G12c H01L91777  10.631  10.127  11.957  1.8463  4.2649  2.1432
  4944G12c C02P91778  10.560  10.225  11.776  0.9492 -0.9151  0.8724
  4944G12c H01K91779  10.478  10.204  11.708  0.3414 -5.5829  2.8642
  4944G12c H01J91780  10.625  10.306  11.742 -3.6584  2.8229  0.5797
  4944G12c O00H91781  10.648  10.115  11.721  0.5430 -2.4270 -0.0517
  4944G12c H01I91782  10.728  10.148  11.682 -1.3336  2.6949  0.0095
  4944G12c C02H91783  10.344  10.294  12.197  0.7262 -0.5526 -2.5143
  4944G12c H01C91784  10.285  10.377  12.163 -4.2064 -0.1130  5.7228
  4944G12c C02L91785  10.345  10.299  12.343  1.0690 -1.3169 -0.5657
  4944G12c H01D91786  10.281  10.364  12.401 -3.0235 -2.5021 -3.4355
  4944G12c C01391787  10.204  10.734  12.730 -0.5213 -0.8606  0.8391
  4944G12c H00091788  10.224  10.665  12.811 -3.9003 -1.9272  0.8622
  4944G12c C01491789  10.131  10.851  12.713 -0.8896 -0.1862  1.7787
  4944G12c C00F91790  10.063  10.912  12.821  0.8990 -1.4922  0.2864
  4944G12c C00H91791  10.077  11.127  12.715  0.2710 -0.0788  2.9501
  4944G12c C00I91792  10.048  11.258  12.711  0.6370  0.2470 -0.1105
  4944G12c C00J91793  10.036  11.318  12.587 -1.0140  0.0302 -0.9484
  4944G12c C00Z91794  10.165  10.935  12.364 -0.6622  0.4570  0.2936
  4944G12c C00Y91795  10.151  10.863  12.237  0.7658  1.6376 -0.0013
  4944G12c H00691796  10.193  10.764  12.220  0.5570  0.9132  3.3796
  4944G12c C00X91797  10.081  10.916  12.121  0.0361 -0.3319  1.7632
  4944G12c O00391798  10.076  10.855  11.994 -0.3443  0.6539  0.1364
  4944G12c C01B91799  10.000  10.734  11.988  1.0669 -0.3451 -1.2329
  4944G12c H00991800   9.891  10.733  11.991  1.0504 -3.8167 -1.8053
  4944G12c H00891801  10.057  10.656  12.038  4.7093 -7.0709-13.7606
  4944G12c H00791802  10.018  10.711  11.884  3.7956 -3.9232 -0.0635
  4944G12c C00W91803  10.030  11.035  12.131 -0.3313  0.8297 -0.3308
  4944G12c O00491804   9.976  11.086  12.012  0.3404 -0.3380  1.3574
  4944G12c C01C91805   9.902  11.205  12.024 -0.6902  1.9832 -0.2866
  4944G12c H00A91806   9.914  11.247  11.926  4.9836  3.2469  0.7721
  4944G12c C00P91807   9.892  11.278  12.143 -0.5932  1.2516  0.3287
  4944G12c C00O91808   9.802  11.401  12.143 -1.1084  1.9767  0.1148
  4944G12c C01D91809   9.695  11.395  12.057  0.6610 -1.7932  0.6916
  4944G12c H00S91810   9.687  11.315  11.985 -7.3836 -2.5300  1.8855
  4944G12c C01E91811   9.562  11.455  12.079  0.3580 -0.2557 -0.6481
  4944G12c O00891812   9.452  11.425  12.008  0.6517  1.2141 -0.7679
  4944G12c C01V91813   9.468  11.442  11.873  2.6406 -1.3593  0.7968
  4944G12c C01Z91814   9.459  11.590  11.824  0.6913  0.2742 -0.2424
  4944G12c H00R91815   9.482  11.592  11.717  3.6270 -6.2791 -0.0023
  4944G12c H00Q91816   9.352  11.609  11.825  0.3071 -1.5287 -2.3737
  4944G12c O00991817   9.531  11.686  11.881 -0.8212  1.7057  0.4258
  4944G12c H00P91818   9.498  11.665  11.968 -1.2836  1.6891  0.2464
  4944G12c C01W91819   9.453  11.342  11.784 -0.5158 -0.8192 -1.0990
  4944G12c H00O91820   9.458  11.371  11.680  1.1645  3.1002 -0.0242
  4944G12c C01X91821   9.408  11.212  11.804 -0.7371  0.1425 -0.3353
  4944G12c H00N91822   9.418  11.159  11.899  0.3974  1.1892  0.1379
  4944G12c H00M91823   9.492  11.163  11.756  0.8039  6.7679 -5.0956
  4944G12c C01Y91824   9.264  11.168  11.791 -0.6247 -0.9623  1.1620
  4944G12c C02D91825   9.169  11.223  11.882  0.1562 -0.0779 -0.8819
  4944G12c H01991826   9.194  11.256  11.982  1.9044 -1.8396 -0.7167
  4944G12c C02C91827   9.037  11.208  11.880  2.6249  1.4819  0.8270
  4944G12c H01A91828   8.970  11.203  11.964 -1.7920 -8.8490 -2.4259
  4944G12c C02B91829   8.985  11.161  11.758 -2.2543 -1.7025 -0.3345
  4944G12c O00E91830   8.859  11.184  11.737 -0.0665  1.3792 -0.3269
  4944G12c H01B91831   8.808  11.126  11.682  2.0661 -0.2132 -0.7126
  4944G12c C02F91832   9.074  11.126  11.659  0.0597  0.2864  1.4029
  4944G12c O00F91833   9.042  11.113  11.527  0.8028 -1.0149 -0.4687
  4944G12c C02G91834   8.932  11.054  11.468  1.7726  0.0364  0.1679
  4944G12c H01791835   8.897  11.141  11.413  4.8290  1.8088  0.9445
  4944G12c H01691836   8.844  11.030  11.528 -0.2747 -0.8722 -3.0628
  4944G12c H01591837   8.937  10.968  11.401 -1.1822 -0.3528  0.3426
  4944G12c C02E91838   9.209  11.103  11.692  0.6440 -1.0974  0.6105
  4944G12c H01891839   9.276  11.074  11.613  0.3097 -1.8508  0.6015
  4944G12c C01F91840   9.552  11.554  12.182  0.1792 -1.7813  0.8844
  4944G12c C01G91841   9.433  11.593  12.234  0.7815 -0.2070  0.0273
  4944G12c H00L91842   9.333  11.562  12.205 -2.5350  5.6509  4.0436
  4944G12c C01H91843   9.432  11.649  12.366 -0.4570  0.1119 -0.5681
  4944G12c H00B91844   9.334  11.635  12.411 -2.2057 -0.8442 -4.4601
  4944G12c C01I91845   9.546  11.652  12.446  0.6149 -1.7830  1.4151
  4944G12c C01U91846   9.670  11.577  12.258  1.0708  0.0649  1.8108
  4944G12c C00S91847  10.068  11.252  12.468  1.0796  0.3515 -2.5835
  4944G12c C00K91848   9.955  11.427  12.568 -0.2913  0.2264 -0.7967
  4944G12c C00N91849   9.784  11.499  12.249 -2.0747  0.0734  0.3201
  4944G12c C00091850   9.671  11.643  12.374 -0.0528  0.5793 -0.0711
  4944G12c C01J91851   9.594  11.656  12.586  1.0036 -0.2956  1.0013
  4944G12c C01K91852   9.539  11.700  12.702 -0.8456 -0.9221  0.2168
  4944G12c C01P91853   9.409  11.761  12.715  1.3168  0.3646  0.1144
  4944G12c C01Q91854   9.347  11.841  12.606 -0.5277 -0.4317  0.8196
  4944G12c H00G91855   9.390  11.908  12.534 -0.8792  3.0393  3.6807
  4944G12c C01R91856   9.210  11.846  12.590 -1.2414 -0.0802 -1.1812
  4944G12c H00F91857   9.156  11.903  12.516 -5.8144  0.6942  2.5343
  4944G12c C01S91858   9.115  11.765  12.646 -0.8250 -0.0166 -1.0786
  4944G12c H00E91859   9.147  11.704  12.731  1.1174 -2.9223 -3.8010
  4944G12c H00D91860   9.026  11.822  12.674  2.4660  3.8853  2.0897
  4944G12c O00591861   9.114  11.684  12.527 -0.1430  0.4977 -0.4863
  4944G12c H00C91862   9.036  11.631  12.515  2.5141 -5.6916  5.7391
  4944G12c C01O91863   9.365  11.794  12.846 -0.6210  0.6415 -0.9805
  4944G12c H00H91864   9.293  11.871  12.867 -2.3692 -2.4139  5.4053
  4944G12c C01N91865   9.424  11.744  12.961 -0.0348  0.0587 -0.4829
  4944G12c O00691866   9.368  11.784  13.084 -0.1055  1.2578  0.5789
  4944G12c C01T91867   9.255  11.702  13.097 -1.2426 -0.6410  1.0725
  4944G12c H00K91868   9.287  11.599  13.084 -3.5738 -1.3905  0.9978
  4944G12c H00J91869   9.166  11.727  13.039  1.3695 -1.4947 -3.4935
  4944G12c H00I91870   9.234  11.693  13.204  9.5804  1.7912  4.0239
  4944G12c C01M91871   9.543  11.672  12.943  0.2756 -1.2052 -0.2956
  4944G12c C02091872   9.908  11.485  12.698 -0.5425  0.3993  0.9130
  4944G12c C02191873   9.952  11.433  12.826  0.7418 -0.1185 -1.3403
  4944G12c C01L91874   9.608  11.654  12.820  1.9827 -0.8055  0.6656
  4944G12c O00791875   9.579  11.604  13.066  0.5357  0.3074  1.2767
  4944G12c C02291876   9.884  11.444  12.939 -0.9868  0.6325  1.4098
  4944G12c C02391877  10.021  11.321  12.830 -1.4171  1.7349  0.5448
  4944G12c C00G91878  10.040  11.057  12.833 -0.8298  0.3963 -0.1574
  4944G12c C00E91879   9.994  10.831  12.915 -1.6244  0.0188  1.3057
  4944G12c O00A91880   9.998  10.683  12.920 -0.9455 -0.1139  0.5521
  4944G12c C02491881   9.954  10.611  12.825  0.8842  1.5298  1.1422
  4944G12c H00V91882  10.029  10.562  12.763 -3.0163 -0.5797 -2.2010
  4944G12c H00U91883   9.897  10.519  12.837  0.7789  0.5719 -4.9040
  4944G12c H00T91884   9.878  10.655  12.760  6.2072  0.5528 -6.4662
  4954G12c C00D91885   4.523   4.625   7.281  0.2495  1.9689 -1.1375
  4954G12c O00B91886   4.541   4.542   7.172  0.0355 -0.8094 -1.0711
  4954G12c C02591887   4.568   4.600   7.049 -0.1723  0.2359 -1.1624
  4954G12c C02691888   4.435   4.598   6.981 -0.0149  1.6136  0.2355
  4954G12c H00Y91889   4.373   4.509   6.997  0.9995 -0.1504 -4.4934
  4954G12c H00X91890   4.445   4.597   6.872  2.4134  2.4315  0.4280
  4954G12c O00C91891   4.363   4.712   7.021  1.2959  0.0582 -0.2418
  4954G12c H00W91892   4.354   4.696   7.114 -0.7586  2.2176 -0.0023
  4954G12c C02791893   4.675   4.620   6.985 -1.0918  0.3025 -0.7591
  4954G12c O00D91894   4.802   4.607   7.045  0.3754  0.2473 -0.4593
  4954G12c H00Z91895   4.795   4.557   7.124  0.4704 -3.4248 -2.6657
  4954G12c C02891896   4.674   4.684   6.862 -0.1731 -0.7273  1.0319
  4954G12c C02991897   4.636   4.824   6.861 -1.3995  1.8862 -1.2104
  4954G12c H01091898   4.608   4.877   6.951  3.1365  0.6481  1.1095
  4954G12c C02T91899   4.631   4.885   6.726 -1.2959  0.8913 -0.9433
  4954G12c H01O91900   4.613   4.991   6.715  3.0994  1.7572 -0.4431
  4954G12c C02S91901   4.662   4.832   6.601 -0.6099  2.5596  0.2808
  4954G12c O00J91902   4.647   4.905   6.492  1.1433  0.2736 -0.0329
  4954G12c H01P91903   4.648   4.858   6.411 -0.5702  0.9472 -0.4865
  4954G12c C02R91904   4.701   4.686   6.603  0.1995 -0.5475  0.5198
  4954G12c O00I91905   4.787   4.660   6.498  0.0579 -0.3042 -1.3305
  4954G12c C02Q91906   4.875   4.562   6.527 -0.1897 -0.7623 -0.0950
  4954G12c H01N91907   4.937   4.567   6.437  5.4238 -3.1036  3.4156
  4954G12c H01R91908   4.945   4.573   6.609 -0.8708  1.6720  0.1904
  4954G12c H01Q91909   4.819   4.469   6.517  2.3680 -2.1929 -1.8252
  4954G12c C02A91910   4.687   4.615   6.739 -0.7705 -0.1642 -0.9513
  4954G12c H01191911   4.709   4.511   6.721 -0.0361 -0.7972  3.1871
  4954G12c C00C91912   4.391   4.673   7.303 -0.6451  0.2005 -0.7036
  4954G12c H01291913   4.324   4.634   7.227 -0.0859  2.2510 -2.2815
  4954G12c C00B91914   4.362   4.781   7.381  0.5376  0.2643  1.1488
  4954G12c C00A91915   4.241   4.819   7.428 -2.2552 -0.3535 -2.4671
  4954G12c C00991916   4.115   4.777   7.385  0.5739 -1.1717 -0.5457
  4954G12c C00891917   4.074   4.665   7.309  0.8975 -1.2652 -0.5679
  4954G12c H01391918   4.113   4.565   7.315  1.8666 -0.9824 -1.9016
  4954G12c C00791919   3.948   4.686   7.246 -0.0221  0.4444 -0.2820
  4954G12c H01491920   3.889   4.608   7.200 -1.0740 -1.2114  3.6507
  4954G12c C00691921   3.887   4.819   7.237 -0.5545 -1.0756  0.4610
  4954G12c C00591922   3.940   4.925   7.319 -1.2277  0.7188 -0.2166
  4954G12c C00491923   3.900   5.063   7.315 -0.4756 -1.2641 -0.1272
  4954G12c C00391924   3.974   5.161   7.378  1.0896  1.2820 -1.3213
  4954G12c C00291925   3.950   5.300   7.341 -0.8087 -0.3712 -0.0496
  4954G12c C00191926   3.999   5.432   7.385 -0.9399 -0.1330  0.0902
  4954G12c C00M91927   4.142   5.476   7.403 -1.1067 -1.5964  0.9783
  4954G12c C00L91928   4.219   5.368   7.427  0.3296  1.8646  1.4444
  4954G12c C00R91929   4.363   5.377   7.458 -0.6805  0.6843 -0.2365
  4954G12c C00Q91930   4.461   5.462   7.387  1.0724 -0.9227  0.3608
  4954G12c C00V91931   4.599   5.442   7.413  0.1897 -1.0129  0.5338
  4954G12c C00U91932   4.633   5.313   7.457  0.5018 -0.8141 -1.2073
  4954G12c C00T91933   4.547   5.210   7.481 -0.0835  0.7475 -0.1266
  4954G12c C01691934   4.562   5.081   7.464 -0.6550  0.5170 -0.7231
  4954G12c C01591935   4.695   5.037   7.451  0.4403 -0.4607 -0.3417
  4954G12c C01091936   4.797   5.129   7.463 -0.5101  0.3362 -0.6281
  4954G12c C01191937   4.935   5.072   7.437  0.0820 -0.8015  2.0333
  4954G12c H00591938   4.987   5.137   7.367  1.9269 -7.8670 -3.8834
  4954G12c C01291939   4.965   4.935   7.423  1.9472 -0.0727  0.5404
  4954G12c C01791940   5.093   4.882   7.413 -3.0201  0.7070 -0.0772
  4954G12c O00291941   5.176   4.867   7.532 -1.4377 -0.5496 -1.3189
  4954G12c H00491942   5.124   4.822   7.596  2.3746  3.0817  4.8047
  4954G12c C01891943   5.142   4.841   7.285 -0.1818 -0.1180  0.4116
  4954G12c O00191944   5.064   4.857   7.182 -0.7062  2.1559 -1.1486
  4954G12c H00391945   4.987   4.877   7.233  1.2936  3.2448  1.5606
  4954G12c C01991946   5.276   4.781   7.289 -0.4849  0.5190  0.1906
  4954G12c H00291947   5.343   4.864   7.310  0.1713  0.3986 -1.3419
  4954G12c H00191948   5.280   4.695   7.356  1.1766  3.9265  4.6667
  4954G12c O00091949   5.310   4.747   7.160 -1.5644  0.0205  0.1728
  4954G12c C01A91950   5.255   4.618   7.125 -1.8661  0.1649  0.5872
  4954G12c C02K91951   5.342   4.530   7.047 -0.8719 -1.7838  1.2635
  4954G12c O00G91952   5.463   4.574   7.010 -0.4111  1.1619 -1.4547
  4954G12c C02M91953   5.558   4.607   7.114  1.6302 -0.7360 -0.7412
  4954G12c H01G91954   5.537   4.708   7.150 -6.3486 -2.7668  1.1569
  4954G12c H01F91955   5.659   4.640   7.090  1.5918 -0.6388 -0.7728
  4954G12c H01E91956   5.583   4.552   7.205  6.1208  3.5236  0.8579
  4954G12c C02J91957   5.320   4.400   7.031 -0.7374 -1.1198 -0.5428
  4954G12c H01H91958   5.400   4.343   6.986 -1.2993 -0.2668 -2.6818
  4954G12c C02I91959   5.204   4.336   7.065  1.3620  0.6870  0.7733
  4954G12c C02N91960   5.170   4.205   7.042 -1.6265  0.4700  0.9912
  4954G12c H01M91961   5.062   4.198   7.040 -2.1469  4.2106  6.1630
  4954G12c C02O91962   5.271   4.115   7.069 -0.3968 -0.1632  0.7100
  4954G12c H01L91963   5.371   4.143   7.096 -1.2378  1.6964  1.9678
  4954G12c C02P91964   5.259   3.958   7.050  1.1017 -0.5790 -1.9457
  4954G12c H01K91965   5.164   3.927   7.093  2.5006  4.5274  5.8908
  4954G12c H01J91966   5.225   3.938   6.949 -1.0230  1.9029 -1.7656
  4954G12c O00H91967   5.364   3.873   7.100 -0.4998  0.6630 -0.3951
  4954G12c H01I91968   5.411   3.906   7.175  2.3091  1.8436 -2.5807
  4954G12c C02H91969   5.115   4.407   7.159  0.6329 -0.4278  0.4399
  4954G12c H01C91970   5.043   4.342   7.206  1.0286 -0.0698  1.5544
  4954G12c C02L91971   5.150   4.544   7.193  0.0400  1.6360 -0.7233
  4954G12c H01D91972   5.068   4.611   7.217 -0.7887  0.9534 -1.6283
  4954G12c C01391973   4.855   4.850   7.467 -0.3233  0.8920 -0.4952
  4954G12c H00091974   4.891   4.749   7.480  1.8158  2.3630  7.6449
  4954G12c C01491975   4.721   4.894   7.452  1.3969  0.1755 -2.0718
  4954G12c C00F91976   4.610   4.805   7.421  0.8885 -1.2055 -0.4878
  4954G12c C00H91977   4.459   4.987   7.471  0.9604 -0.9647 -0.2408
  4954G12c C00I91978   4.329   5.017   7.507 -0.6630  0.6240 -1.0343
  4954G12c C00J91979   4.309   5.154   7.506 -1.0693 -1.1594  0.5707
  4954G12c C00Z91980   4.764   5.268   7.457  0.1939  1.0431  1.9110
  4954G12c C00Y91981   4.866   5.364   7.417  0.9606 -1.2162 -0.6718
  4954G12c H00691982   4.959   5.311   7.402  2.5962  1.5679 -0.7440
  4954G12c C00X91983   4.822   5.502   7.382  0.6736  0.1926 -0.2499
  4954G12c O00391984   4.928   5.578   7.375 -0.0948 -1.7747  0.5556
  4954G12c C01B91985   4.951   5.681   7.470  0.3940 -1.9457  1.1019
  4954G12c H00991986   4.938   5.646   7.572 -4.5487  4.6044  3.0248
  4954G12c H00891987   4.879   5.756   7.437  4.1348 -0.1877 -3.6634
  4954G12c H00791988   5.037   5.747   7.458 -0.5964 -1.1308 -1.9849
  4954G12c C00W91989   4.684   5.537   7.372 -0.2513 -0.5900  0.1202
  4954G12c O00491990   4.650   5.643   7.290 -0.0465 -0.7350  2.5282
  4954G12c C01C91991   4.513   5.675   7.259 -0.1954 -0.1666 -0.2050
  4954G12c H00A91992   4.492   5.752   7.186 -0.2141  2.8110  2.8071
  4954G12c C00P91993   4.430   5.562   7.282  0.8750 -2.2940  0.1405
  4954G12c C00O91994   4.303   5.564   7.222  0.2568 -0.0898  0.0138
  4954G12c C01D91995   4.314   5.591   7.085  1.6650  2.1007 -0.3416
  4954G12c H00S91996   4.413   5.616   7.050 -1.5308 10.1875 -4.8994
  4954G12c C01E91997   4.204   5.567   7.004  0.2369  0.6862  0.7970
  4954G12c O00891998   4.234   5.587   6.872  1.2382 -0.2616 -1.0119
  4954G12c C01V91999   4.239   5.479   6.805 -0.1702  0.9456 -1.3029
  4954G12c C01Z92000   4.138   5.478   6.681  2.2334  0.8247  1.4190
  4954G12c H00R92001   4.076   5.566   6.695  1.1172  0.4828 -1.0843
  4954G12c H00Q92002   4.174   5.491   6.579 -3.5805 -5.8225 -1.9050
  4954G12c O00992003   4.043   5.364   6.716  0.1788  1.0922 -0.0366
  4954G12c H00P92004   4.011   5.396   6.799 -2.9196  1.8878 -1.4463
  4954G12c C01W92005   4.314   5.378   6.807  0.5385 -0.6417 -1.1276
  4954G12c H00O92006   4.376   5.386   6.895 -2.9541  4.4220  1.0976
  4954G12c C01X92007   4.320   5.241   6.735  1.5520  1.5582  0.2829
  4954G12c H00N92008   4.316   5.268   6.630 -1.2986 -6.5751 -2.0860
  4954G12c H00M92009   4.426   5.220   6.727  0.6323 -4.5337  1.4093
  4954G12c C01Y92010   4.247   5.122   6.798 -0.6551 -0.8015  0.7404
  4954G12c C02D92011   4.277   5.091   6.929 -0.3364 -0.0180 -0.0295
  4954G12c H01992012   4.310   5.156   7.009  2.8859 -0.4163 -0.9791
  4954G12c C02C92013   4.205   4.980   6.989 -2.5441  0.4132  0.2070
  4954G12c H01A92014   4.223   4.973   7.095 -0.9378 -2.1816 -0.1915
  4954G12c C02B92015   4.121   4.895   6.914 -0.4805 -0.1766 -0.8179
  4954G12c O00E92016   4.063   4.785   6.977  0.4244 -0.7773  1.1162
  4954G12c H01B92017   4.050   4.723   6.907  1.3035  2.6946 -2.2472
  4954G12c C02F92018   4.093   4.914   6.783  0.6995 -0.6980 -1.8073
  4954G12c O00F92019   4.015   4.818   6.695  0.3864 -0.8699 -0.9632
  4954G12c C02G92020   4.052   4.689   6.706  0.0652 -0.8099 -0.7436
  4954G12c H01792021   4.034   4.646   6.608  2.7580 -1.6266 -0.9137
  4954G12c H01692022   3.999   4.633   6.784 -1.3140  4.5324  2.4026
  4954G12c H01592023   4.156   4.674   6.735  0.2167  5.7950  3.2495
  4954G12c C02E92024   4.156   5.030   6.721 -0.6266  0.5508 -0.5360
  4954G12c H01892025   4.112   5.078   6.635 -4.1151 -1.5493 -0.0099
  4954G12c C01F92026   4.064   5.562   7.067  0.6463  0.5129  0.7985
  4954G12c C01G92027   3.942   5.535   6.997  0.9580 -0.7449 -0.2624
  4954G12c H00L92028   3.954   5.561   6.894  3.0128 -1.0642 -0.1186
  4954G12c C01H92029   3.837   5.481   7.073 -1.1185 -1.5991  1.7917
  4954G12c H00B92030   3.764   5.454   6.997 -1.6502  0.9477  1.3363
  4954G12c C01I92031   3.845   5.458   7.208 -0.6473 -1.3926 -0.0246
  4954G12c C01U92032   4.054   5.589   7.213 -0.6028 -1.2770 -0.3303
  4954G12c C00S92033   4.420   5.262   7.518  1.0490 -0.2835  0.0881
  4954G12c C00K92034   4.195   5.222   7.462  2.1739  1.0556 -0.7349
  4954G12c C00N92035   4.174   5.564   7.287  1.1125 -0.6223  0.3305
  4954G12c C00092036   3.944   5.530   7.292 -0.1094  0.3614 -1.2349
  4954G12c C01J92037   3.831   5.329   7.265  0.6445 -0.4658  1.5937
  4954G12c C01K92038   3.749   5.227   7.204 -0.0663 -1.1452 -0.2328
  4954G12c C01P92039   3.623   5.235   7.153  0.2079  0.5003 -1.2813
  4954G12c C01Q92040   3.538   5.355   7.160 -0.1994 -0.7612 -1.3465
  4954G12c H00G92041   3.540   5.438   7.091 -3.3846 -0.7675 -1.5184
  4954G12c C01R92042   3.451   5.391   7.263  1.7500  0.0423  0.8688
  4954G12c H00F92043   3.404   5.482   7.230  1.9302 -1.3385 -3.6467
  4954G12c C01S92044   3.423   5.306   7.380 -0.6721  0.2033  0.7235
  4954G12c H00E92045   3.326   5.260   7.399  1.5935 -8.1865 -4.9650
  4954G12c H00D92046   3.466   5.214   7.340 -2.7169  0.8063 -3.0897
  4954G12c O00592047   3.480   5.363   7.493 -0.1441 -0.0609 -1.2332
  4954G12c H00C92048   3.572   5.363   7.470  0.7492  0.8584  2.0381
  4954G12c C01O92049   3.556   5.116   7.098  0.1549 -0.8150  0.7267
  4954G12c H00H92050   3.453   5.142   7.080  1.5065  3.9507 -0.7000
  4954G12c C01N92051   3.602   4.979   7.095 -0.2706  0.5473 -0.9986
  4954G12c O00692052   3.509   4.871   7.070  0.3976  0.5339  0.0010
  4954G12c C01T92053   3.505   4.870   6.930 -0.3808 -0.7078 -1.6605
  4954G12c H00K92054   3.423   4.799   6.918 -1.7727  1.0908 -3.2196
  4954G12c H00J92055   3.609   4.850   6.906  1.1813  6.4731 -2.0752
  4954G12c H00I92056   3.472   4.957   6.873  4.0791  2.7113  0.6738
  4954G12c C01M92057   3.724   4.982   7.165 -1.3428 -0.3014  1.4491
  4954G12c C02092058   4.082   5.126   7.458 -1.1281 -0.1474 -0.5122
  4954G12c C02192059   4.093   4.980   7.502  1.4419 -1.9788 -0.2004
  4954G12c C01L92060   3.785   5.097   7.227  0.4045 -0.0217  0.1924
  4954G12c O00792061   3.756   4.853   7.187 -0.7488  0.8410 -0.2754
  4954G12c C02292062   4.029   4.882   7.424  1.3220 -2.8019  0.7424
  4954G12c C02392063   4.228   4.916   7.520 -0.4312  2.2084 -2.1608
  4954G12c C00G92064   4.478   4.851   7.416 -1.0058 -0.7313 -0.7846
  4954G12c C00E92065   4.627   4.677   7.367 -1.8765  0.0392 -2.1380
  4954G12c O00A92066   4.755   4.620   7.340  1.9999 -0.0641 -0.7825
  4954G12c C02492067   4.763   4.484   7.391  0.4060  0.2481  0.4715
  4954G12c H00V92068   4.842   4.461   7.462 -0.1685 -1.2833  0.6400
  4954G12c H00U92069   4.756   4.435   7.294 -5.2247 -2.8274  2.2258
  4954G12c H00T92070   4.670   4.449   7.435 -0.7244  2.5438 -0.0020
  4964G12c C00D92071   2.029  10.470   9.855  1.2351 -0.2399 -0.3138
  4964G12c O00B92072   2.029  10.363   9.771  0.7608 -1.6153 -0.2419
  4964G12c C02592073   1.934  10.303   9.695  0.5561  0.2256  1.4361
  4964G12c C02692074   1.884  10.374   9.569  0.1260 -1.0566 -0.2857
  4964G12c H00Y92075   1.786  10.337   9.537 -1.3926  4.0184 -2.0082
  4964G12c H00X92076   1.931  10.345   9.475 -1.7367 -1.9239 -0.9710
  4964G12c O00C92077   1.882  10.510   9.558  1.0406 -0.2465  0.0341
  4964G12c H00W92078   1.934  10.572   9.509 -0.1215  1.4960  0.9355
  4964G12c C02792079   1.888  10.184   9.751  0.0322 -0.2626 -1.1126
  4964G12c O00D92080   1.955  10.139   9.876  0.2236  0.1703  0.6576
  4964G12c H00Z92081   2.022  10.193   9.914 -0.5711  2.4215 -1.0049
  4964G12c C02892082   1.779  10.113   9.696 -0.1451  0.1177  2.2834
  4964G12c C02992083   1.783  10.061   9.569  1.0043 -2.8220  1.1219
  4964G12c H01092084   1.876  10.066   9.515  1.0918  6.3340  1.2062
  4964G12c C02T92085   1.679  10.008   9.494 -0.7270  0.4433 -0.7074
  4964G12c H01O92086   1.701   9.939   9.415  0.3336 -0.1533  0.0856
  4964G12c C02S92087   1.560  10.021   9.573  1.1254 -0.7153 -0.5527
  4964G12c O00J92088   1.460   9.953   9.532  0.5250  0.0835 -0.3197
  4964G12c H01P92089   1.413   9.949   9.614  6.2772  5.1627  3.7391
  4964G12c C02R92090   1.548  10.046   9.725  0.1398 -0.1723 -0.8340
  4964G12c O00I92091   1.432  10.032   9.798 -0.0840 -0.0855 -0.3836
  4964G12c C02Q92092   1.410  10.062   9.939  0.3316 -0.6170  0.4729
  4964G12c H01N92093   1.506  10.067   9.991  2.2019 -4.1163 -2.4943
  4964G12c H01R92094   1.340   9.996   9.990  1.4646 -3.2501 -1.3221
  4964G12c H01Q92095   1.379  10.164   9.962  3.4092  0.3887  0.4060
  4964G12c C02A92096   1.665  10.088   9.774 -0.4485  1.8726 -0.9116
  4964G12c H01192097   1.678  10.107   9.879  5.0614  1.8980 -1.4400
  4964G12c C00C92098   1.903  10.509   9.898 -0.7604  0.5951  0.1843
  4964G12c H01292099   1.808  10.468   9.867 -0.9802  3.9589 -4.0780
  4964G12c C00B92100   1.908  10.583  10.021 -0.3182 -1.1330 -2.7245
  4964G12c C00A92101   1.802  10.622  10.104  0.2984  0.9729 -1.8727
  4964G12c C00992102   1.668  10.654  10.051  0.6637  0.4046 -1.4122
  4964G12c C00892103   1.625  10.683   9.933 -0.0806  0.6650  0.6894
  4964G12c H01392104   1.676  10.650   9.843  0.3166  4.4810 -0.5523
  4964G12c C00792105   1.499  10.754   9.947  0.3509  0.0879  1.0597
  4964G12c H01492106   1.439  10.778   9.861 -0.2331 -2.7687  0.6291
  4964G12c C00692107   1.437  10.838  10.055 -0.1421  1.2100 -0.2015
  4964G12c C00592108   1.503  10.822  10.173  0.0687  0.2880  1.7398
  4964G12c C00492109   1.467  10.890  10.282  0.3570  0.8488  0.0115
  4964G12c C00392110   1.566  10.895  10.378  1.8189 -1.9825 -0.2586
  4964G12c C00292111   1.540  10.993  10.489  0.3425 -0.4653 -0.8997
  4964G12c C00192112   1.631  11.059  10.588  0.2599 -0.7923  1.3402
  4964G12c C00M92113   1.765  11.099  10.539  0.8052 -0.6424 -0.1813
  4964G12c C00L92114   1.856  11.003  10.485 -0.8878  1.0749  0.0178
  4964G12c C00R92115   1.997  11.027  10.451  0.2358 -0.0126  0.4133
  4964G12c C00Q92116   2.060  11.157  10.437 -0.0322 -0.6512  1.3819
  4964G12c C00V92117   2.171  11.143  10.347 -1.4164  0.4771  0.1694
  4964G12c C00U92118   2.213  11.024  10.287 -0.8362  0.6736  1.6141
  4964G12c C00T92119   2.143  10.912  10.292  0.7551 -0.6238  1.3989
  4964G12c C01692120   2.141  10.795  10.205 -0.3876  0.2265  0.2993
  4964G12c C01592121   2.251  10.799  10.123  1.5382  0.8737  1.0588
  4964G12c C01092122   2.343  10.909  10.134 -0.6033  0.5735  0.0197
  4964G12c C01192123   2.470  10.885  10.060  1.7772  0.4443 -0.7792
  4964G12c H00592124   2.555  10.947  10.036  2.1769 -0.4925 -1.7954
  4964G12c C01292125   2.495  10.774   9.976 -0.7256  2.3582  0.4155
  4964G12c C01792126   2.620  10.734   9.915 -1.0472  0.9795  0.1861
  4964G12c O00292127   2.654  10.733   9.788  0.2729  0.0801 -0.3174
  4964G12c H00492128   2.747  10.724   9.774  0.5607  1.3144  0.7409
  4964G12c C01892129   2.699  10.669  10.001 -0.0256  0.5816 -0.8644
  4964G12c O00192130   2.698  10.631  10.132 -0.9894 -0.0145 -0.4351
  4964G12c H00392131   2.624  10.679  10.165 -1.7045 -1.9155  0.7433
  4964G12c C01992132   2.832  10.604   9.932  0.3453 -0.2860  0.8030
  4964G12c H00292133   2.897  10.543   9.995 -0.5094 -1.7980  0.2439
  4964G12c H00192134   2.844  10.565   9.831  4.5320  4.2636 -0.6683
  4964G12c O00092135   2.915  10.713   9.939 -0.1067  1.8267  0.8454
  4964G12c C01A92136   3.011  10.731  10.038  0.3098 -0.1026  0.2466
  4964G12c C02K92137   3.018  10.871  10.089 -0.4203 -0.4650  1.0434
  4964G12c O00G92138   2.908  10.959  10.114  2.3783 -0.8383  0.5361
  4964G12c C02M92139   2.835  11.016   9.993  0.6399  1.2396  0.9922
  4964G12c H01G92140   2.768  11.092  10.032 -2.1515 -1.2410  1.2080
  4964G12c H01F92141   2.906  11.086   9.949 -2.1344  3.2988 -0.3460
  4964G12c H01E92142   2.781  10.959   9.918  6.1584  1.7505 -3.7138
  4964G12c C02J92143   3.130  10.934  10.122  1.1936  1.3269  0.7008
  4964G12c H01H92144   3.114  11.039  10.141 -2.0292  1.2205 -1.2136
  4964G12c C02I92145   3.245  10.848  10.151 -1.1772  0.6099  0.7616
  4964G12c C02N92146   3.341  10.872  10.253 -0.2589 -1.2278  0.9589
  4964G12c H01M92147   3.441  10.832  10.253  3.9011  7.9159 -2.4697
  4964G12c C02O92148   3.299  10.924  10.358 -1.6553 -0.1709  0.1656
  4964G12c H01L92149   3.193  10.930  10.374 -2.4364 -1.1072 -4.2178
  4964G12c C02P92150   3.360  10.934  10.489 -0.9560 -1.7352 -0.1573
  4964G12c H01K92151   3.444  10.999  10.465 -2.1701  1.2356  3.1522
  4964G12c H01J92152   3.309  11.017  10.537 -2.4465 -5.8005  5.7753
  4964G12c O00H92153   3.440  10.823  10.530  0.9242 -0.4134 -0.6934
  4964G12c H01I92154   3.449  10.760  10.459  4.1439  2.1527 -2.7079
  4964G12c C02H92155   3.233  10.715  10.112  0.8215  2.7260  0.0490
  4964G12c H01C92156   3.321  10.656  10.135 -3.2982 -3.4345  1.0932
  4964G12c C02L92157   3.115  10.649  10.060  0.8288 -0.1120  1.0828
  4964G12c H01D92158   3.130  10.547  10.028 -1.1732  1.5830 -6.1250
  4964G12c C01392159   2.379  10.692   9.960 -1.5413 -0.5589  0.3795
  4964G12c H00092160   2.430  10.613   9.908 -2.9559 -0.8728 -0.5605
  4964G12c C01492161   2.262  10.699  10.038 -0.6399 -0.4346 -1.3044
  4964G12c C00F92162   2.151  10.624  10.009  0.1252 -1.4985  0.4735
  4964G12c C00H92163   2.041  10.712  10.188 -0.1435  0.9301  1.5553
  4964G12c C00I92164   1.942  10.722  10.280 -1.3367  1.5555  2.2733
  4964G12c C00J92165   1.937  10.828  10.373  0.2766  0.4578  1.1847
  4964G12c C00Z92166   2.327  11.013  10.217 -0.1215 -0.4237  0.7408
  4964G12c C00Y92167   2.425  11.120  10.209  0.0352 -0.5023  0.7354
  4964G12c H00692168   2.525  11.097  10.177 -1.4379 -5.4252 -0.8314
  4964G12c C00X92169   2.396  11.236  10.276  0.4548  0.3309  0.6358
  4964G12c O00392170   2.493  11.324  10.241 -0.7712  0.4484 -1.1903
  4964G12c C01B92171   2.540  11.385  10.375 -0.9932  0.3980  0.7411
  4964G12c H00992172   2.606  11.467  10.347 -3.1957  1.5589 -1.2225
  4964G12c H00892173   2.620  11.323  10.413 -1.8187 -1.5640 -0.6221
  4964G12c H00792174   2.465  11.420  10.446  2.3366 -4.1213  6.9552
  4964G12c C00W92175   2.261  11.256  10.333 -0.4229 -0.2122  1.3749
  4964G12c O00492176   2.241  11.377  10.394 -0.0922 -1.3498 -0.2458
  4964G12c C01C92177   2.125  11.389  10.449  0.6158 -0.1491 -0.7636
  4964G12c H00A92178   2.098  11.491  10.426  3.8270  0.8718 -0.2837
  4964G12c C00P92179   2.026  11.289  10.479  0.0844  0.8054 -0.4909
  4964G12c C00O92180   1.874  11.335  10.496 -1.2153 -0.5025 -0.3185
  4964G12c C01D92181   1.838  11.478  10.494 -0.2716  0.7403  1.3657
  4964G12c H00S92182   1.906  11.559  10.475  1.3348 -0.3755  2.3074
  4964G12c C01E92183   1.705  11.518  10.517 -0.1032  0.5739 -1.4610
  4964G12c O00892184   1.686  11.654  10.527  0.0214 -1.4058 -0.7928
  4964G12c C01V92185   1.734  11.723  10.646 -1.3630  0.1089  0.2217
  4964G12c C01Z92186   1.657  11.709  10.775  0.4017 -0.4554  1.9048
  4964G12c H00R92187   1.555  11.697  10.739 -0.3495  3.8098  2.2906
  4964G12c H00Q92188   1.687  11.606  10.796 -1.0259 -1.8458 -2.4815
  4964G12c O00992189   1.676  11.800  10.875  0.1273 -0.8254 -1.0418
  4964G12c H00P92190   1.616  11.780  10.945  1.6926 -3.8680 -0.5198
  4964G12c C01W92191   1.844  11.783  10.629  0.1433  0.2458 -0.4745
  4964G12c H00O92192   1.872  11.799  10.526  1.6281 -2.9946 -0.6354
  4964G12c C01X92193   1.938  11.856  10.716  0.5366 -0.2320 -0.7230
  4964G12c H00N92194   1.862  11.922  10.759 -0.8001 -4.7333  4.3475
  4964G12c H00M92195   1.978  11.789  10.793  6.3553 -1.3914 -4.4543
  4964G12c C01Y92196   2.038  11.946  10.651 -1.5209  0.4724  0.4865
  4964G12c C02D92197   2.016  12.049  10.567 -0.9152  0.2022 -0.2578
  4964G12c H01992198   1.931  12.075  10.505  0.1601 -3.4275 -3.4166
  4964G12c C02C92199   2.130  12.103  10.508 -0.2762  1.3699  0.9061
  4964G12c H01A92200   2.127  12.195  10.451 -0.4536  1.6988  1.4450
  4964G12c C02B92201   2.266  12.067  10.523 -0.8337  0.2474  1.4447
  4964G12c O00E92202   2.368  12.161  10.485 -0.3925 -0.3404 -0.8245
  4964G12c H01B92203   2.429  12.104  10.530  0.8147 -2.3958 -4.8752
  4964G12c C02F92204   2.295  11.972  10.611 -0.2769 -0.2951  1.6610
  4964G12c O00F92205   2.414  11.914  10.604 -0.1384 -0.4122 -1.0475
  4964G12c C02G92206   2.430  11.774  10.573 -1.4981 -2.0017  0.3780
  4964G12c H01792207   2.518  11.754  10.511  1.4906  3.0728  2.6491
  4964G12c H01692208   2.357  11.728  10.506 -2.5945 -4.7073  3.3388
  4964G12c H01592209   2.470  11.708  10.649  7.0831  0.4214 -1.4503
  4964G12c C02E92210   2.177  11.903  10.660  1.2766 -1.6090 -0.6884
  4964G12c H01892211   2.208  11.815  10.713 -0.1664 -2.1690 -0.7381
  4964G12c C01F92212   1.605  11.406  10.545  0.8323  0.3429 -1.3332
  4964G12c C01G92213   1.469  11.444  10.548 -0.8766 -0.6869 -0.5659
  4964G12c H00L92214   1.430  11.537  10.509  0.0467  2.1606  4.8131
  4964G12c C01H92215   1.390  11.320  10.536  0.1064  0.3327 -0.7771
  4964G12c H00B92216   1.306  11.337  10.470  0.9883 -0.5534 -2.1388
  4964G12c C01I92217   1.435  11.192  10.570  1.0072  1.6846  0.0365
  4964G12c C01U92218   1.649  11.280  10.595 -0.3439 -1.4000  0.6716
  4964G12c C00S92219   2.043  10.920  10.385 -0.5341 -1.1379  1.1383
  4964G12c C00K92220   1.814  10.889  10.414 -1.8763  0.6225 -0.5360
  4964G12c C00N92221   1.775  11.240  10.543 -0.0204 -0.3329  0.9468
  4964G12c C00092222   1.565  11.173  10.642  0.9410  0.5563 -1.0365
  4964G12c C01J92223   1.414  11.068  10.493  0.5865  0.9122  0.0151
  4964G12c C01K92224   1.299  11.059  10.391 -1.6504 -0.0880 -0.6854
  4964G12c C01P92225   1.178  11.138  10.380 -3.3792 -2.3564 -0.8357
  4964G12c C01Q92226   1.071  11.178  10.473 -0.7015 -0.8131  0.1208
  4964G12c H00G92227   1.004  11.120  10.535 -2.3199  1.6707  0.8188
  4964G12c C01R92228   1.025  11.300  10.473 -2.7381 -0.8066 -0.2190
  4964G12c H00F92229   1.037  11.381  10.403 -0.3443 -2.8865 -2.3246
  4964G12c C01S92230   0.940  11.367  10.578 -0.1014  0.3181 -0.7336
  4964G12c H00E92231   0.926  11.471  10.549  1.7226  0.5130 -0.9686
  4964G12c H00D92232   0.837  11.333  10.587 -2.6192  5.7585 -5.3433
  4964G12c O00592233   0.978  11.368  10.722  0.4190  0.6698 -1.1194
  4964G12c H00C92234   0.970  11.278  10.748 -2.5066  0.2642 -3.1460
  4964G12c C01O92235   1.122  11.126  10.247 -1.0681 -1.0290  0.6331
  4964G12c H00H92236   1.017  11.148  10.236 -1.5337 -4.2677 -2.2489
  4964G12c C01N92237   1.178  11.062  10.144 -1.2643  1.5581  0.8955
  4964G12c O00692238   1.121  11.064  10.012 -0.6648 -1.4539 -1.4850
  4964G12c C01T92239   1.025  11.171   9.994  0.2537  2.1909  0.0868
  4964G12c H00K92240   1.056  11.273  10.016  4.7375  1.5020 -2.5051
  4964G12c H00J92241   1.021  11.157   9.886  2.2497  4.1486 -0.2803
  4964G12c H00I92242   0.925  11.164  10.038 -2.1057 -0.0786 -5.2986
  4964G12c C01M92243   1.294  10.986  10.150  0.6246 -1.0468  0.7534
  4964G12c C02092244   1.695  10.820  10.381  0.0049 -0.9377 -0.1150
  4964G12c C02192245   1.691  10.728  10.269 -2.1992  1.5684  1.1947
  4964G12c C01L92246   1.353  10.979  10.282  0.6572  1.1616  0.3147
  4964G12c O00792247   1.319  10.896  10.042  0.9881  0.2537 -0.8247
  4964G12c C02292248   1.590  10.699  10.185  1.1111 -1.5641  0.9903
  4964G12c C02392249   1.819  10.662  10.224  0.2628  2.9813 -0.5280
  4964G12c C00G92250   2.033  10.625  10.069  0.5718 -0.9387 -0.1866
  4964G12c C00E92251   2.140  10.522   9.899 -0.4196 -2.5883 -0.5308
  4964G12c O00A92252   2.261  10.459   9.863 -1.5705 -1.1578 -0.0904
  4964G12c C02492253   2.300  10.335   9.906 -0.2580  0.6183 -0.0578
  4964G12c H00V92254   2.393  10.347   9.961 -0.1936 -5.1260  1.4951
  4964G12c H00U92255   2.326  10.282   9.814 -3.4707 -1.3286  0.0744
  4964G12c H00T92256   2.239  10.276   9.975  2.3530 -2.1841  0.0044
  4974G12c C00D92257   9.123   8.145   7.231 -0.2753  0.0981  0.5388
  4974G12c O00B92258   9.015   8.092   7.301 -0.0809  0.3822  0.3909
  4974G12c C02592259   9.033   8.094   7.438  1.6765  0.9292  1.3394
  4974G12c C02692260   9.005   8.236   7.500 -1.4229 -0.8107 -1.1609
  4974G12c H00Y92261   9.088   8.241   7.571 -1.9018  0.0288 -0.6501
  4974G12c H00X92262   8.901   8.244   7.530 -1.7332 -2.1553 -1.8451
  4974G12c O00C92263   8.988   8.369   7.441  0.7963  0.1381 -0.8992
  4974G12c H00W92264   9.052   8.396   7.377  1.4879 -3.6201 -1.8753
  4974G12c C02792265   9.047   7.985   7.515  0.5717 -0.7739 -1.2018
  4974G12c O00D92266   9.079   7.847   7.474  0.9993 -0.1070  1.4134
  4974G12c H00Z92267   9.069   7.809   7.560  1.6072 -0.0693  1.4988
  4974G12c C02892268   9.065   8.002   7.650  1.7305  0.4028  0.2237
  4974G12c C02992269   8.952   7.985   7.726  1.6630  0.3564  2.0702
  4974G12c H01092270   8.853   7.979   7.682  3.0666 -2.7932 -0.7997
  4974G12c C02T92271   8.975   7.966   7.861  0.5074 -0.3215 -0.3195
  4974G12c H01O92272   8.899   7.957   7.936 -0.7725 -0.9997 -1.6762
  4974G12c C02S92273   9.106   7.970   7.917  1.0885 -0.1544  0.7598
  4974G12c O00J92274   9.115   7.926   8.047  1.4807  0.4126  0.2709
  4974G12c H01P92275   9.163   7.846   8.063 -5.9434 -4.9545 -1.6428
  4974G12c C02R92276   9.216   7.977   7.832 -0.5403 -0.1918  1.4137
  4974G12c O00I92277   9.349   7.996   7.865 -1.0831 -0.6370  0.9948
  4974G12c C02Q92278   9.423   7.884   7.894  0.3496  0.3165 -0.8315
  4974G12c H01N92279   9.501   7.841   7.831 -1.4003  2.8239 -4.8624
  4974G12c H01R92280   9.352   7.811   7.933 -0.1184  2.3597  2.3297
  4974G12c H01Q92281   9.499   7.918   7.965 -1.0966  0.1913  0.8087
  4974G12c C02A92282   9.190   7.989   7.701 -1.7398 -0.7394 -0.4368
  4974G12c H01192283   9.280   7.993   7.641 -1.0042 -5.5569  0.1512
  4974G12c C00C92284   9.236   8.179   7.312  1.3348  1.4059 -1.5210
  4974G12c H01292285   9.246   8.140   7.412 -3.7767  0.3929 -1.2741
  4974G12c C00B92286   9.342   8.258   7.259  0.5212  0.1742  0.4430
  4974G12c C00A92287   9.454   8.311   7.343 -1.0729 -0.3093  0.8172
  4974G12c C00992288   9.476   8.315   7.492 -0.8666 -0.4889 -0.2064
  4974G12c C00892289   9.439   8.253   7.603  0.9962 -0.1703  1.5877
  4974G12c H01392290   9.372   8.168   7.602  0.3578  0.2953  3.3333
  4974G12c C00792291   9.437   8.330   7.719  0.5569  2.0875  1.5448
  4974G12c H01492292   9.399   8.264   7.796 -6.1523  2.2274 -1.3181
  4974G12c C00692293   9.472   8.461   7.735 -0.1048 -1.7767 -1.0394
  4974G12c C00592294   9.526   8.506   7.607 -1.5532  1.5568 -0.9332
  4974G12c C00492295   9.557   8.641   7.606  1.4970  0.2128  0.4267
  4974G12c C00392296   9.576   8.710   7.467  0.2046  0.1427  1.6025
  4974G12c C00292297   9.630   8.853   7.470  0.8576  0.7857 -0.0483
  4974G12c C00192298   9.660   8.942   7.378 -0.2675  0.2029 -0.6707
  4974G12c C00M92299   9.615   8.947   7.237  1.5630 -0.3787 -0.8323
  4974G12c C00L92300   9.556   8.836   7.179  0.4214  0.6874  0.4553
  4974G12c C00R92301   9.488   8.813   7.047 -1.0493  0.2708  2.0969
  4974G12c C00Q92302   9.451   8.907   6.951 -2.2315 -0.9548 -2.0645
  4974G12c C00V92303   9.381   8.824   6.850  0.0964  0.1156 -0.7524
  4974G12c C00U92304   9.339   8.689   6.846  0.5477  1.1839 -2.1909
  4974G12c C00T92305   9.386   8.612   6.945 -0.1088 -1.2581 -0.5169
  4974G12c C01692306   9.355   8.482   6.964 -1.3982 -0.2258 -0.7542
  4974G12c C01592307   9.269   8.429   6.879 -0.5066 -0.4136  0.5390
  4974G12c C01092308   9.233   8.489   6.764  2.0089 -0.9400 -2.7798
  4974G12c C01192309   9.180   8.407   6.659 -1.7568 -0.4591  0.3675
  4974G12c H00592310   9.181   8.461   6.565 -3.1773 -2.4345 -0.8421
  4974G12c C01292311   9.143   8.258   6.661 -0.4114  1.1557  0.5225
  4974G12c C01792312   9.063   8.157   6.566 -0.5465 -0.0722 -0.3696
  4974G12c O00292313   9.069   8.026   6.616  1.7255  0.0649  0.1774
  4974G12c H00492314   9.157   8.002   6.593  2.0010  1.3916 -0.1508
  4974G12c C01892315   9.011   8.184   6.449 -0.4799 -0.8912  0.4803
  4974G12c O00192316   8.964   8.302   6.433 -1.0948 -1.8162  0.3875
  4974G12c H00392317   8.951   8.314   6.526 -3.6620 -1.1100 -0.0332
  4974G12c C01992318   8.934   8.105   6.355  0.7407 -1.1988  1.0623
  4974G12c H00292319   8.830   8.133   6.374  2.5525  2.4566  7.3690
  4974G12c H00192320   8.943   8.164   6.264 -0.1107 -1.9924  0.4536
  4974G12c O00092321   8.955   7.969   6.365 -1.4619 -0.1933 -1.0473
  4974G12c C01A92322   9.044   7.910   6.286 -0.2495 -1.4396  0.6885
  4974G12c C02K92323   9.159   7.972   6.222 -0.5120  0.1011  1.8837
  4974G12c O00G92324   9.211   8.107   6.233 -0.0186  0.7179  0.1537
  4974G12c C02M92325   9.317   8.098   6.315  1.1238 -0.0201 -0.0034
  4974G12c H01G92326   9.418   8.121   6.282  0.0758  2.6594 -1.5438
  4974G12c H01F92327   9.324   8.189   6.376  2.1494  3.4380 -5.0293
  4974G12c H01E92328   9.339   7.998   6.354 -2.6396 -0.6140  0.8517
  4974G12c C02J92329   9.256   7.887   6.161  0.7684 -0.6757 -0.6262
  4974G12c H01H92330   9.343   7.946   6.138  4.9605 -6.0059  0.4717
  4974G12c C02I92331   9.236   7.755   6.139  0.6813 -0.5105 -0.7576
  4974G12c C02N92332   9.338   7.688   6.070  1.9010 -0.2540 -0.3160
  4974G12c H01M92333   9.359   7.695   5.964  0.2822  2.0093 -0.5096
  4974G12c C02O92334   9.440   7.642   6.149 -0.4320 -0.0081  0.5848
  4974G12c H01L92335   9.532   7.603   6.107 -0.2298  3.0433 -1.9683
  4974G12c C02P92336   9.444   7.644   6.301 -1.6701  0.3448 -1.3237
  4974G12c H01K92337   9.337   7.648   6.321 -0.7821  1.3821  3.9097
  4974G12c H01J92338   9.473   7.540   6.319  6.0984  2.6110  0.8497
  4974G12c O00H92339   9.518   7.745   6.382  1.3155 -0.6896  0.1321
  4974G12c H01I92340   9.520   7.821   6.326  3.0705 -1.1167 -0.4378
  4974G12c C02H92341   9.117   7.710   6.183 -0.3758  2.3494  1.0913
  4974G12c H01C92342   9.090   7.606   6.169 -4.1978  3.6371 -1.9019
  4974G12c C02L92343   9.010   7.775   6.239  1.6910  1.3484  0.8406
  4974G12c H01D92344   8.924   7.712   6.248  0.0218  3.1841 -1.5846
  4974G12c C01392345   9.161   8.222   6.809  1.1939 -0.1544  0.1662
  4974G12c H00092346   9.138   8.118   6.826  2.0837 -1.1567 -4.2006
  4974G12c C01492347   9.234   8.294   6.907  0.6577 -0.2051  0.1193
  4974G12c C00F92348   9.245   8.239   7.035  1.3164  0.6371 -0.2881
  4974G12c C00H92349   9.379   8.424   7.081 -1.0908  0.9508 -0.2452
  4974G12c C00I92350   9.465   8.485   7.169  0.8595 -1.5515 -0.5968
  4974G12c C00J92351   9.509   8.612   7.133 -0.1652 -0.0596  0.3832
  4974G12c C00Z92352   9.252   8.628   6.749  0.8477  0.1090  0.4354
  4974G12c C00Y92353   9.206   8.717   6.645 -0.5354  0.2882 -1.3469
  4974G12c H00692354   9.127   8.667   6.591  0.7985 -0.5922 -2.5293
  4974G12c C00X92355   9.247   8.854   6.643 -1.2128 -0.8821 -0.2415
  4974G12c O00392356   9.191   8.943   6.542 -0.8105 -0.4880  0.2419
  4974G12c C01B92357   9.121   8.907   6.413 -0.5039  1.5143  0.3366
  4974G12c H00992358   9.148   8.823   6.349 -1.5976  2.3685 -1.3009
  4974G12c H00892359   9.131   8.983   6.336  6.6051 -0.5713 -1.1598
  4974G12c H00792360   9.020   8.886   6.451 -0.2810  0.3531  0.3113
  4974G12c C00W92361   9.314   8.914   6.756 -0.6078 -0.0538  0.9784
  4974G12c O00492362   9.318   9.047   6.765 -2.6108 -0.1179 -0.9545
  4974G12c C01C92363   9.408   9.117   6.842  0.4043 -0.8178  1.7456
  4974G12c H00A92364   9.467   9.202   6.813 -3.7229  2.0555  1.4040
  4974G12c C00P92365   9.443   9.058   6.963  0.5768  1.2004  0.0208
  4974G12c C00O92366   9.468   9.127   7.104 -1.2933 -0.5078 -0.4968
  4974G12c C01D92367   9.436   9.256   7.120 -0.2738  0.6551  1.1578
  4974G12c H00S92368   9.385   9.309   7.042 -0.1575 -6.5122 -4.3051
  4974G12c C01E92369   9.434   9.331   7.249 -0.5625  1.4786 -0.2508
  4974G12c O00892370   9.379   9.457   7.264  0.8772  0.9178 -0.6428
  4974G12c C01V92371   9.419   9.572   7.195  0.0416 -1.3564 -0.2832
  4974G12c C01Z92372   9.299   9.655   7.143  0.0808 -0.5276 -0.6454
  4974G12c H00R92373   9.299   9.646   7.034 -2.1246  3.1883 -1.0452
  4974G12c H00Q92374   9.205   9.607   7.167 -0.7565  2.0194  1.2990
  4974G12c O00992375   9.324   9.781   7.181 -0.7691 -0.5453  0.6791
  4974G12c H00P92376   9.335   9.769   7.275 -0.7622  1.6304  0.9789
  4974G12c C01W92377   9.558   9.592   7.177 -0.8890 -1.2780 -1.2810
  4974G12c H00O92378   9.623   9.517   7.220  4.4430  3.7997  0.1221
  4974G12c C01X92379   9.617   9.709   7.110  0.4128 -1.3430  0.2901
  4974G12c H00N92380   9.534   9.780   7.109 -1.8103 -3.8156 -2.4907
  4974G12c H00M92381   9.690   9.756   7.176 -3.6140  1.0148  3.3527
  4974G12c C01Y92382   9.654   9.641   6.980  0.0473  0.7931 -0.4693
  4974G12c C02D92383   9.615   9.510   6.930 -1.0714 -1.6220 -0.4678
  4974G12c H01992384   9.549   9.452   6.993 -4.4324 -1.1450 -3.3866
  4974G12c C02C92385   9.641   9.479   6.801 -1.0178 -0.0105  1.0966
  4974G12c H01A92386   9.595   9.381   6.804  1.6798 -1.3102  5.4481
  4974G12c C02B92387   9.707   9.562   6.703 -0.3168 -0.0298 -0.8836
  4974G12c O00E92388   9.742   9.504   6.573 -0.6271  1.2470 -0.7121
  4974G12c H01B92389   9.669   9.481   6.518 -0.8430 -0.3592  0.1922
  4974G12c C02F92390   9.749   9.677   6.753  0.0669  0.3000  1.3490
  4974G12c O00F92391   9.849   9.743   6.675  0.9767  0.6714 -0.4113
  4974G12c C02G92392   9.841   9.885   6.650  0.2428 -0.6705  2.2633
  4974G12c H01792393   9.808   9.918   6.748  1.4894 -1.9220  3.1334
  4974G12c H01692394   9.769   9.909   6.572  2.1750  0.9467  0.9118
  4974G12c H01592395   9.940   9.921   6.622 -0.6195 -0.7289 -1.1090
  4974G12c C02E92396   9.720   9.734   6.875  0.2677 -0.1872  1.1566
  4974G12c H01892397   9.702   9.839   6.892  3.2647  0.3862  1.0644
  4974G12c C01F92398   9.462   9.248   7.352  1.8438 -0.6848  0.4442
  4974G12c C01G92399   9.401   9.269   7.488  0.2015  0.6091  0.9427
  4974G12c H00L92400   9.348   9.359   7.514 -2.3595 -1.7201  4.2742
  4974G12c C01H92401   9.458   9.165   7.581 -0.0938 -1.6361  0.8925
  4974G12c H00B92402   9.421   9.186   7.680  2.9800 -4.3937  2.7201
  4974G12c C01I92403   9.549   9.056   7.542 -0.8572  0.2183 -0.1386
  4974G12c C01U92404   9.550   9.144   7.340 -0.5681  0.4267  0.5866
  4974G12c C00S92405   9.443   8.686   7.037 -0.5349  1.6576  1.1713
  4974G12c C00K92406   9.563   8.694   7.231  0.2560  0.7391 -0.0789
  4974G12c C00N92407   9.535   9.062   7.214 -0.8784 -1.3024 -1.7164
  4974G12c C00092408   9.616   9.073   7.430  0.1893  2.6730 -0.7818
  4974G12c C01J92409   9.580   8.920   7.588 -1.0034  1.2596  0.7836
  4974G12c C01K92410   9.556   8.869   7.717 -0.4895  1.1142  3.2380
  4974G12c C01P92411   9.575   8.944   7.843  0.5006  0.0014  0.2927
  4974G12c C01Q92412   9.582   9.098   7.850 -0.0208  0.1948 -2.2460
  4974G12c H00G92413   9.486   9.135   7.882  0.0750  2.5568 -4.5066
  4974G12c C01R92414   9.684   9.188   7.828  0.0301 -0.9258 -0.5631
  4974G12c H00F92415   9.776   9.147   7.789 -0.0110  3.9719 -6.6004
  4974G12c C01S92416   9.676   9.349   7.836 -1.1782 -0.6598 -0.8276
  4974G12c H00E92417   9.750   9.429   7.828 -0.5453 -1.1764 -0.2634
  4974G12c H00D92418   9.615   9.388   7.755 -0.3274 -1.7435 -2.0076
  4974G12c O00592419   9.561   9.367   7.932 -1.5459 -0.4156 -0.3075
  4974G12c H00C92420   9.594   9.367   8.021  2.9358  1.2571 -1.8031
  4974G12c C01O92421   9.534   8.879   7.956 -0.5527 -0.5321  0.2979
  4974G12c H00H92422   9.541   8.930   8.051  4.4642 -2.7051  1.2864
  4974G12c C01N92423   9.489   8.749   7.955 -0.7514 -0.9454 -0.1413
  4974G12c O00692424   9.439   8.702   8.078  1.1207 -2.3537 -2.7887
  4974G12c C01T92425   9.307   8.761   8.123  1.3288  0.3560 -0.8182
  4974G12c H00K92426   9.242   8.683   8.164  1.8060 -2.7297 -5.5768
  4974G12c H00J92427   9.258   8.825   8.049 -3.2721 -4.8133 -2.5806
  4974G12c H00I92428   9.341   8.811   8.214  4.6711 -0.3826 -1.6245
  4974G12c C01M92429   9.515   8.666   7.848  2.2225 -1.8763  1.0166
  4974G12c C02092430   9.586   8.632   7.351  1.1386 -0.7095  0.2948
  4974G12c C02192431   9.584   8.491   7.365 -1.5650  0.6011 -0.7022
  4974G12c C01L92432   9.563   8.720   7.723 -0.8017  0.2398  2.2230
  4974G12c O00792433   9.468   8.533   7.858 -1.1945  0.3828 -1.2855
  4974G12c C02292434   9.547   8.437   7.491 -0.6351 -0.9344 -1.5957
  4974G12c C02392435   9.511   8.414   7.280  0.4737  0.3833 -0.4515
  4974G12c C00G92436   9.329   8.303   7.122 -1.0398  0.2272 -0.6799
  4974G12c C00E92437   9.154   8.146   7.094 -2.0257  1.9919 -0.3882
  4974G12c O00A92438   9.082   8.044   7.024 -0.1685  1.2079  0.8296
  4974G12c C02492439   9.112   7.916   7.077 -0.5661 -0.4899 -0.6098
  4974G12c H00V92440   9.085   7.837   7.007 -4.3077 -3.2243  3.7049
  4974G12c H00U92441   9.076   7.910   7.179  1.2571 -1.4033  0.0163
  4974G12c H00T92442   9.214   7.904   7.115 -1.1791 -0.5646  1.0653
  4984G12c C00D92443   1.009   9.354   0.134 -0.8079  0.7003  1.8126
  4984G12c O00B92444   0.894   9.290   0.184 -0.5027  0.6191  0.0561
  4984G12c C02592445   0.785   9.262   0.108 -0.3552  0.0051  1.0266
  4984G12c C02692446   0.677   9.220   0.216 -2.2604 -0.6045 -0.4531
  4984G12c H00Y92447   0.644   9.117   0.230 -0.2698 -1.4795 -1.9501
  4984G12c H00X92448   0.589   9.270   0.177 -1.4970  1.4282  0.3872
  4984G12c O00C92449   0.713   9.255   0.345  0.0305  1.1762  0.8240
  4984G12c H00W92450   0.631   9.245   0.391 -1.2712  6.3693 -0.0396
  4984G12c C02792451   0.775   9.248  -0.030  0.8409 -0.1595  0.5305
  4984G12c O00D92452   0.862   9.314  -0.105 -0.7700  0.6212  0.6652
  4984G12c H00Z92453   0.926   9.338  -0.039  7.9158  3.2762 -7.5306
  4984G12c C02892454   0.654   9.212  -0.089 -1.6714  1.7655 -0.5111
  4984G12c C02992455   0.598   9.095  -0.047  0.2813  1.1948  0.1680
  4984G12c H01092456   0.562   9.064   0.050 -3.4451 -4.4390 -2.7344
  4984G12c C02T92457   0.499   9.002  -0.115  0.1922 -1.6637 -1.3442
  4984G12c H01O92458   0.470   8.922  -0.049 -7.9245  6.3352  6.1840
  4984G12c C02S92459   0.485   9.034  -0.253  1.2322  0.6196  1.3024
  4984G12c O00J92460   0.410   8.956  -0.323 -0.4747 -0.6303  0.4604
  4984G12c H01P92461   0.328   8.986  -0.360  0.4369  2.6502  0.9448
  4984G12c C02R92462   0.531   9.167  -0.300  0.0507  0.5271 -0.2257
  4984G12c O00I92463   0.500   9.195  -0.437  1.2988 -0.2938 -0.7202
  4984G12c C02Q92464   0.526   9.341  -0.475  0.5639 -0.9881  1.3313
  4984G12c H01N92465   0.528   9.353  -0.583  0.7768 -3.1324  1.0627
  4984G12c H01R92466   0.453   9.417  -0.449 -1.9084 -2.6835 -0.4321
  4984G12c H01Q92467   0.622   9.381  -0.444  0.4763  1.6547 -1.6172
  4984G12c C02A92468   0.607   9.242  -0.221 -0.0426 -0.7716 -0.5394
  4984G12c H01192469   0.665   9.330  -0.242  0.5174 -0.7769  0.8834
  4984G12c C00C92470   1.008   9.489   0.091  1.0714 -0.3909 -1.6969
  4984G12c H01292471   0.919   9.549   0.075  1.1675  0.3552  0.4501
  4984G12c C00B92472   1.108   9.578   0.116  0.9500 -1.1729 -1.4453
  4984G12c C00A92473   1.101   9.719   0.108  0.7567 -1.5837  1.5577
  4984G12c C00992474   1.008   9.792   0.021 -0.5105  0.4873  0.3237
  4984G12c C00892475   0.886   9.764  -0.061 -0.7628  1.2180 -1.2563
  4984G12c H01392476   0.827   9.674  -0.056  3.0058 -1.2724  0.8474
  4984G12c C00792477   0.852   9.874  -0.142 -0.7660  0.4861 -0.9334
  4984G12c H01492478   0.760   9.863  -0.197 -3.8479 11.7646  0.6840
  4984G12c C00692479   0.936   9.973  -0.189  1.8031  0.6465  0.7315
  4984G12c C00592480   1.063   9.978  -0.140  0.8393  0.5057 -0.7124
  4984G12c C00492481   1.167  10.056  -0.183 -0.7188  0.5498  1.2662
  4984G12c C00392482   1.304  10.055  -0.117 -0.0196  1.4269  0.1881
  4984G12c C00292483   1.407  10.137  -0.177  0.0886  0.3380 -0.0367
  4984G12c C00192484   1.548  10.140  -0.176 -1.9042 -0.0628  0.0789
  4984G12c C00M92485   1.638  10.036  -0.139 -1.4062  0.6963 -0.0337
  4984G12c C00L92486   1.604   9.935  -0.038 -0.2921 -0.5384 -0.2433
  4984G12c C00R92487   1.676   9.816  -0.008 -0.1565 -1.3791  0.9934
  4984G12c C00Q92488   1.763   9.747  -0.092 -1.0381 -0.2235  0.6165
  4984G12c C00V92489   1.793   9.614  -0.041  0.7178 -0.1619  1.9295
  4984G12c C00U92490   1.715   9.550   0.049  1.5021  0.4692  1.4487
  4984G12c C00T92491   1.589   9.605   0.066  1.8879  1.7568  1.6550
  4984G12c C01692492   1.475   9.534   0.100 -1.0940  0.7094 -0.9383
  4984G12c C01592493   1.489   9.396   0.113 -0.1576  1.2030  0.3456
  4984G12c C01092494   1.613   9.339   0.090  0.4124  0.2618  0.5985
  4984G12c C01192495   1.611   9.203   0.070 -0.5526  2.1508  1.5140
  4984G12c H00592496   1.696   9.154   0.027 -1.7920  0.3624  1.0630
  4984G12c C01292497   1.522   9.114   0.134  1.1607  0.5918 -0.7064
  4984G12c C01792498   1.524   8.963   0.152  0.5547  0.6297  0.8793
  4984G12c O00292499   1.605   8.884   0.075  0.9190  1.3055  0.3236
  4984G12c H00492500   1.586   8.797   0.107  1.3618  0.0297 -2.6759
  4984G12c C01892501   1.441   8.909   0.241 -1.4147 -0.1558 -1.8743
  4984G12c O00192502   1.379   8.966   0.348 -0.0344 -1.1970 -0.0013
  4984G12c H00392503   1.403   9.049   0.384 -4.8589  0.8427 -1.0759
  4984G12c C01992504   1.442   8.756   0.241 -0.1071 -1.2422 -0.7049
  4984G12c H00292505   1.417   8.729   0.343 -2.6923 -3.8506 -1.9680
  4984G12c H00192506   1.369   8.719   0.169 -0.3744  1.3698 -1.8602
  4984G12c O00092507   1.568   8.683   0.204 -0.3219  0.9215 -0.4009
  4984G12c C01A92508   1.550   8.568   0.158 -0.3059 -0.2148 -1.3119
  4984G12c C02K92509   1.500   8.543   0.020  0.3333 -0.7843  0.6000
  4984G12c O00G92510   1.430   8.635  -0.054  0.0848  0.6518 -0.2815
  4984G12c C02M92511   1.316   8.602  -0.132 -1.7555 -0.8414 -2.4078
  4984G12c H01G92512   1.343   8.558  -0.228  2.6532  0.1990 -1.7506
  4984G12c H01F92513   1.273   8.701  -0.151  2.5723  0.7943 -4.4077
  4984G12c H01E92514   1.228   8.569  -0.078  0.0218 -0.8950  0.5999
  4984G12c C02J92515   1.552   8.435  -0.046 -0.0688 -0.9137  0.3598
  4984G12c H01H92516   1.507   8.392  -0.135 -2.1529 -0.4453  1.1676
  4984G12c C02I92517   1.648   8.350   0.017 -1.1919  0.3356 -0.2786
  4984G12c C02N92518   1.726   8.257  -0.060 -1.0433  0.4741 -0.3322
  4984G12c H01M92519   1.825   8.230  -0.028  2.7472  5.3802 -6.8306
  4984G12c C02O92520   1.694   8.185  -0.161 -0.4879  1.3113  0.7219
  4984G12c H01L92521   1.605   8.209  -0.217 -2.4019  2.8607  4.2644
  4984G12c C02P92522   1.766   8.047  -0.209  0.6008 -0.5994 -1.8301
  4984G12c H01K92523   1.856   8.106  -0.227  2.5541 -1.5223  4.0513
  4984G12c H01J92524   1.744   8.000  -0.305 -5.0573 -2.9637  0.4080
  4984G12c O00H92525   1.775   7.957  -0.109  0.9448  0.0966  0.0621
  4984G12c H01I92526   1.794   7.876  -0.154  3.3250 -2.0240  4.6222
  4984G12c C02H92527   1.703   8.388   0.143  0.3936  0.9523  0.2402
  4984G12c H01C92528   1.796   8.343   0.175 -0.9939 -3.8567 -1.9886
  4984G12c C02L92529   1.652   8.488   0.217  0.6505  0.5096 -1.0310
  4984G12c H01D92530   1.716   8.529   0.294 -0.9779 -2.3535  1.9801
  4984G12c C01392531   1.398   9.180   0.144  0.5362 -1.2104 -0.9137
  4984G12c H00092532   1.328   9.098   0.155  2.0635 -2.3579  0.5322
  4984G12c C01492533   1.384   9.318   0.131 -0.0311 -0.9641  1.2320
  4984G12c C00F92534   1.251   9.382   0.146  0.1853  0.1763 -1.1920
  4984G12c C00H92535   1.350   9.593   0.129 -1.7404 -1.6086 -1.2732
  4984G12c C00I92536   1.345   9.734   0.131  0.7557 -1.8492  0.3496
  4984G12c C00J92537   1.469   9.807   0.086  1.4376 -2.0413 -1.6114
  4984G12c C00Z92538   1.727   9.412   0.056 -0.2107  0.9191 -2.1128
  4984G12c C00Y92539   1.854   9.345   0.008  0.3122 -0.6566 -0.8583
  4984G12c H00692540   1.874   9.238   0.006  0.7159 -0.5874 -0.4982
  4984G12c C00X92541   1.920   9.396  -0.112  0.2908  0.5216  0.7249
  4984G12c O00392542   2.029   9.329  -0.178  0.4903 -2.8176  0.4663
  4984G12c C01B92543   2.143   9.262  -0.105  0.2651 -0.2424  0.7767
  4984G12c H00992544   2.151   9.295  -0.002 -7.9811  1.8065  1.0606
  4984G12c H00892545   2.112   9.163  -0.071 -2.2092  1.0149  2.3482
  4984G12c H00792546   2.245   9.298  -0.119 -0.7796  1.1654 -4.0959
  4984G12c C00W92547   1.907   9.537  -0.116  0.2791  0.0780  1.4792
  4984G12c O00492548   1.959   9.600  -0.228  0.0466  0.4219  0.2107
  4984G12c C01C92549   1.958   9.726  -0.233 -1.8566 -1.0733  1.2268
  4984G12c H00A92550   2.028   9.769  -0.303 -1.7797 -2.3265  0.5005
  4984G12c C00P92551   1.842   9.802  -0.202  0.3223  0.9428 -0.0444
  4984G12c C00O92552   1.803   9.905  -0.295 -0.2178  0.6986  0.5351
  4984G12c C01D92553   1.869   9.933  -0.428  0.0555  0.4559 -0.8395
  4984G12c H00S92554   1.964   9.891  -0.456 -0.0164 -0.8118  0.7451
  4984G12c C01E92555   1.843  10.041  -0.518 -0.3634 -1.1985  1.0651
  4984G12c O00892556   1.899  10.031  -0.655 -1.0050 -1.9909 -0.4571
  4984G12c C01V92557   1.834   9.996  -0.767 -1.2711  1.1269  2.0131
  4984G12c C01Z92558   1.914  10.039  -0.896  0.2427  0.7869 -0.8272
  4984G12c H00R92559   2.018  10.028  -0.867 -0.7844 -6.5747  1.0856
  4984G12c H00Q92560   1.882   9.973  -0.977  0.1803  1.8682 -1.7023
  4984G12c O00992561   1.890  10.172  -0.902 -0.1236  0.3492 -0.6449
  4984G12c H00P92562   1.954  10.177  -0.832  1.8509 -6.7563 -1.5322
  4984G12c C01W92563   1.720   9.934  -0.770 -0.3789 -0.4081  1.3758
  4984G12c H00O92564   1.703   9.905  -0.668  1.8383  7.7481  4.4644
  4984G12c C01X92565   1.626   9.910  -0.902  0.2537 -0.2059  1.2909
  4984G12c H00N92566   1.680   9.943  -0.990 -0.2468  1.6381  1.6523
  4984G12c H00M92567   1.577   9.815  -0.925  2.9000 -0.9025 -1.8358
  4984G12c C01Y92568   1.509  10.005  -0.912 -0.3314 -0.3700 -0.8432
  4984G12c C02D92569   1.474  10.083  -1.028  0.2654  1.8316  1.4618
  4984G12c H01992570   1.568  10.084  -1.081 -1.8772 -4.4133 -3.0376
  4984G12c C02C92571   1.348  10.149  -1.063 -2.0698  0.7364  1.2101
  4984G12c H01A92572   1.354  10.218  -1.146 -2.1578  0.9477  1.3795
  4984G12c C02B92573   1.233  10.115  -0.982  0.6049 -1.7123  1.5050
  4984G12c O00E92574   1.137  10.211  -0.993 -0.0560 -0.4868  0.7055
  4984G12c H01B92575   1.093  10.236  -0.913 -3.7301  1.1178 -1.6911
  4984G12c C02F92576   1.268  10.060  -0.847 -0.5878 -1.0290  0.6545
  4984G12c O00F92577   1.150  10.022  -0.775  0.7352  0.8494  1.4702
  4984G12c C02G92578   1.162   9.945  -0.660  1.4859 -1.0673 -0.0475
  4984G12c H01792579   1.224  10.010  -0.598  2.4535  0.0681 -2.1489
  4984G12c H01692580   1.173   9.836  -0.664 -1.0004 -1.4088  1.5467
  4984G12c H01592581   1.075   9.934  -0.596 -3.1578  5.3969 -4.7007
  4984G12c C02E92582   1.392   9.988  -0.825  0.1914 -1.3012 -0.6943
  4984G12c H01892583   1.408   9.935  -0.732 -0.9723 -2.8876 -1.3678
  4984G12c C01F92584   1.717  10.113  -0.492 -0.8904 -0.6464 -0.2850
  4984G12c C01G92585   1.640  10.195  -0.579 -0.0409  1.3815 -0.7703
  4984G12c H00L92586   1.666  10.190  -0.683  6.4389  3.2402  0.5205
  4984G12c C01H92587   1.510  10.220  -0.521 -1.7445 -1.7214 -0.9281
  4984G12c H00B92588   1.432  10.220  -0.596 -1.4269 -6.8497 -1.4064
  4984G12c C01I92589   1.482  10.225  -0.383 -0.2389  0.1364 -0.6685
  4984G12c C01U92590   1.677  10.110  -0.347  1.5784 -0.4838 -0.5869
  4984G12c C00S92591   1.584   9.743   0.068 -0.4704 -0.0745  1.1172
  4984G12c C00K92592   1.478   9.927   0.014  0.2475  0.7067  1.3006
  4984G12c C00N92593   1.721  10.007  -0.253 -1.0020 -0.8307 -0.2187
  4984G12c C00092594   1.582  10.198  -0.302  0.3762  2.0490 -0.5745
  4984G12c C01J92595   1.365  10.208  -0.298 -2.1451  0.0589  0.6093
  4984G12c C01K92596   1.231  10.228  -0.348  1.7418  1.1678  0.0428
  4984G12c C01P92597   1.199  10.341  -0.442 -1.2795  0.9924 -2.6454
  4984G12c C01Q92598   1.290  10.449  -0.481  0.6712 -0.8283 -1.0253
  4984G12c H00G92599   1.331  10.501  -0.395  0.2514  2.9574 -2.9979
  4984G12c C01R92600   1.306  10.502  -0.609  1.2922  1.2054  0.3980
  4984G12c H00F92601   1.249  10.464  -0.693  0.0263  3.4443  0.1857
  4984G12c C01S92602   1.394  10.626  -0.634 -2.0180  1.0529 -0.4989
  4984G12c H00E92603   1.500  10.607  -0.616 -1.0694  5.9621 -0.1277
  4984G12c H00D92604   1.364  10.681  -0.723 -1.3585  1.4512 -0.4757
  4984G12c O00592605   1.370  10.710  -0.520  0.1638 -0.5929  0.2948
  4984G12c H00C92606   1.425  10.704  -0.443 -0.8393  0.4624  1.1034
  4984G12c C01O92607   1.077  10.325  -0.504  0.8996  0.3058  1.3845
  4984G12c H00H92608   1.054  10.375  -0.597 -4.4846 -0.9722  1.8592
  4984G12c C01N92609   0.970  10.239  -0.442  0.7098 -0.6800  0.0108
  4984G12c O00692610   0.841  10.278  -0.489 -0.5964  0.8152  1.8403
  4984G12c C01T92611   0.748  10.308  -0.384  0.0706 -0.6051 -1.0415
  4984G12c H00K92612   0.680  10.244  -0.329 -5.2081  3.4717 -2.4870
  4984G12c H00J92613   0.781  10.393  -0.324  2.1822 -2.2287  0.1727
  4984G12c H00I92614   0.674  10.373  -0.429 -2.8217 -2.6499  0.6461
  4984G12c C01M92615   0.990  10.147  -0.333  0.0786 -0.0286  0.0144
  4984G12c C02092616   1.335   9.972  -0.010 -0.1426  0.0105  0.7215
  4984G12c C02192617   1.215   9.903   0.031 -2.0776  0.1285  0.8600
  4984G12c C01L92618   1.132  10.152  -0.284 -0.0193 -1.1152  0.1627
  4984G12c O00792619   0.906  10.053  -0.301  1.7884  1.0799 -0.2238
  4984G12c C02292620   1.095   9.896  -0.024 -0.2451 -1.5071  2.3169
  4984G12c C02392621   1.226   9.794   0.122  0.9316  0.8391 -1.7545
  4984G12c C00G92622   1.236   9.523   0.138  0.6903  1.5433 -0.5989
  4984G12c C00E92623   1.133   9.297   0.165  0.6124 -0.7415  0.4880
  4984G12c O00A92624   1.124   9.161   0.226  0.1071 -0.0450 -0.2939
  4984G12c C02492625   1.136   9.174   0.372  1.8571  1.6499 -1.1151
  4984G12c H00V92626   1.184   9.091   0.423 -0.0577  1.4949  0.4991
  4984G12c H00U92627   1.036   9.141   0.399  2.1365  3.7554  2.8610
  4984G12c H00T92628   1.133   9.262   0.436  0.6346 -1.2768  3.0376
  4994G12c C00D92629   5.540   9.979  12.512 -1.2762 -0.1467 -1.8033
  4994G12c O00B92630   5.626  10.085  12.547  0.5616 -0.1211  0.4936
  4994G12c C02592631   5.600  10.206  12.508  0.2952  0.1270 -0.6467
  4994G12c C02692632   5.689  10.243  12.392  1.4906  0.1457  2.2904
  4994G12c H00Y92633   5.785  10.243  12.445  1.5571  6.2470  2.4963
  4994G12c H00X92634   5.647  10.336  12.355 -1.8722 -1.8072  1.0145
  4994G12c O00C92635   5.670  10.162  12.290  1.1063 -0.2762 -0.7663
  4994G12c H00W92636   5.585  10.187  12.257  2.7473  3.8190 -2.2131
  4994G12c C02792637   5.508  10.275  12.580  2.1006 -0.9861  0.7170
  4994G12c O00D92638   5.465  10.210  12.690  1.2674  0.7998  1.3274
  4994G12c H00Z92639   5.522  10.135  12.693 -1.2839 -1.2558  0.4569
  4994G12c C02892640   5.466  10.421  12.562  1.2289 -0.1364  0.9918
  4994G12c C02992641   5.566  10.523  12.544 -0.4324  0.4510  0.6901
  4994G12c H01092642   5.664  10.501  12.584  2.1177 -4.0043 -7.0004
  4994G12c C02T92643   5.515  10.646  12.492  1.2132 -0.1386  1.2663
  4994G12c H01O92644   5.581  10.730  12.479  2.4256 -1.2900 -0.1967
  4994G12c C02S92645   5.380  10.670  12.475  2.4839  1.2107  0.9160
  4994G12c O00J92646   5.323  10.786  12.432 -0.9267 -0.9078 -1.7047
  4994G12c H01P92647   5.262  10.750  12.370  0.1361 -6.1569  0.0632
  4994G12c C02R92648   5.291  10.573  12.505 -0.1461  0.2819 -0.8014
  4994G12c O00I92649   5.168  10.606  12.471 -0.0567 -0.2561  0.2655
  4994G12c C02Q92650   5.073  10.495  12.431 -0.6015  0.3052  0.1761
  4994G12c H01N92651   5.089  10.397  12.476  2.4057 -1.1594 -3.8336
  4994G12c H01R92652   5.066  10.479  12.324 -4.2668  1.3128  0.2025
  4994G12c H01Q92653   4.978  10.539  12.459  2.4785 10.4716 -3.2741
  4994G12c C02A92654   5.330  10.441  12.535 -0.8814  0.1343  0.1195
  4994G12c H01192655   5.268  10.355  12.555  6.1625 -4.7730  2.8155
  4994G12c C00C92656   5.428   9.992  12.432  0.3118  1.5211  1.1040
  4994G12c H01292657   5.412  10.092  12.397 -0.2276  2.6811  4.4666
  4994G12c C00B92658   5.346   9.870  12.412  0.7853 -0.3092  0.4632
  4994G12c C00A92659   5.271   9.847  12.294 -0.0327  1.1100  1.4418
  4994G12c C00992660   5.191   9.943  12.218  1.7919 -0.5158 -0.0588
  4994G12c C00892661   5.142  10.059  12.273  0.7619 -1.2031 -1.0142
  4994G12c H01392662   5.190  10.089  12.365 -0.4794 -2.9507  0.2517
  4994G12c C00792663   5.016  10.115  12.240  0.2233 -0.3211  0.6041
  4994G12c H01492664   4.963  10.193  12.293  0.2576  0.3046 -0.2806
  4994G12c C00692665   4.939  10.033  12.145 -0.9099 -0.2834 -0.2961
  4994G12c C00592666   4.983   9.902  12.126  2.2812  0.4696  1.4334
  4994G12c C00492667   4.899   9.792  12.088 -1.3892  0.6268 -0.8036
  4994G12c C00392668   4.925   9.652  12.102  1.5364  1.1127  1.0393
  4994G12c C00292669   4.814   9.566  12.094 -0.0626  0.4848  1.6032
  4994G12c C00192670   4.806   9.434  12.131 -0.0188  1.2680 -1.0335
  4994G12c C00M92671   4.856   9.372  12.253  0.6297 -0.1992  1.3295
  4994G12c C00L92672   4.963   9.419  12.322  2.1416  1.0667 -0.7545
  4994G12c C00R92673   5.002   9.382  12.456  1.3427 -0.1737  1.2710
  4994G12c C00Q92674   4.954   9.304  12.553 -0.4500  0.6710  1.0742
  4994G12c C00V92675   5.045   9.285  12.661  0.0515 -0.2969  1.9548
  4994G12c C00U92676   5.164   9.367  12.672 -1.1907 -0.9244  0.3404
  4994G12c C00T92677   5.207   9.439  12.561 -0.1163 -0.3773  0.3067
  4994G12c C01692678   5.305   9.545  12.573  2.0337  0.7367  1.1907
  4994G12c C01592679   5.385   9.544  12.670 -0.3419  0.6570  0.3712
  4994G12c C01092680   5.369   9.439  12.765 -0.7688  0.5431 -0.8338
  4994G12c C01192681   5.439   9.465  12.878  1.9633  1.0736  0.2519
  4994G12c H00592682   5.399   9.421  12.969  3.5283  6.1800  3.6709
  4994G12c C01292683   5.527   9.570  12.902  0.8486 -0.6598 -1.6822
  4994G12c C01792684   5.576   9.607  13.031  0.1315 -0.3733  0.4183
  4994G12c O00292685   5.494   9.666  13.123  0.1035  0.4167  1.1327
  4994G12c H00492686   5.407   9.679  13.088 -0.2232 -6.2547 -1.2011
  4994G12c C01892687   5.713   9.591  13.055 -1.4691  0.4236  0.1781
  4994G12c O00192688   5.807   9.562  12.973 -0.7395  0.7059  1.0125
  4994G12c H00392689   5.860   9.628  13.015 -0.5490  0.1099  1.7239
  4994G12c C01992690   5.795   9.657  13.161  1.0573  1.0417 -1.1950
  4994G12c H00292691   5.726   9.680  13.243 -0.6423 -4.0477 -0.9834
  4994G12c H00192692   5.865   9.579  13.190 -1.5869 -0.7663  0.6384
  4994G12c O00092693   5.849   9.764  13.095 -0.2583  0.6597 -0.8947
  4994G12c C01A92694   5.947   9.835  13.169  0.5700 -0.9188  1.9381
  4994G12c C02K92695   5.912   9.909  13.290 -1.1864 -0.8329  0.7726
  4994G12c O00G92696   5.788   9.926  13.338  0.7371 -0.9295 -0.2850
  4994G12c C02M92697   5.684   9.996  13.281 -0.2067  0.6714  0.7790
  4994G12c H01G92698   5.627  10.073  13.334  4.6773  2.5940  3.5339
  4994G12c H01F92699   5.710  10.093  13.238  1.2143 -0.3246 -0.6583
  4994G12c H01E92700   5.645   9.952  13.189  0.9348  2.1404 -0.4407
  4994G12c C02J92701   6.014   9.986  13.356 -0.5551  1.7889 -1.4275
  4994G12c H01H92702   5.976  10.043  13.439 -7.6297  0.3283 -3.3809
  4994G12c C02I92703   6.140   9.990  13.304  0.6485  0.0055 -0.0600
  4994G12c C02N92704   6.224  10.078  13.387 -1.9577 -0.1392  0.3776
  4994G12c H01M92705   6.190  10.178  13.410  1.8577  2.7336 -5.2034
  4994G12c C02O92706   6.335  10.067  13.462  0.0815  0.4322 -2.0929
  4994G12c H01L92707   6.374  10.159  13.503  2.0649 -0.6276 -1.5542
  4994G12c C02P92708   6.426   9.951  13.456  0.2281 -1.0649 -0.8285
  4994G12c H01K92709   6.390   9.915  13.553 -0.1832 -0.4174 -0.7388
  4994G12c H01J92710   6.427   9.883  13.370 -1.3242  1.5894 -3.0279
  4994G12c O00H92711   6.563   9.993  13.489 -1.2555 -0.6249  0.2628
  4994G12c H01I92712   6.540  10.085  13.495 -0.3394 -0.5098  2.6954
  4994G12c C02H92713   6.179   9.912  13.186  0.4614  0.2091 -0.1977
  4994G12c H01C92714   6.246   9.973  13.128  2.1955 -4.0588 -2.9197
  4994G12c C02L92715   6.079   9.843  13.125  1.0146  0.6535  1.5652
  4994G12c H01D92716   6.073   9.784  13.034 -2.3252 -1.2541  2.9134
  4994G12c C01392717   5.562   9.663  12.801 -0.7123  0.0506 -1.8276
  4994G12c H00092718   5.628   9.749  12.806 -0.6065 -0.2085  2.7130
  4994G12c C01492719   5.480   9.641  12.674 -0.6115 -0.6732 -0.5287
  4994G12c C00F92720   5.480   9.739  12.582  1.9447  0.8837  0.6775
  4994G12c C00H92721   5.318   9.628  12.461 -0.8071  0.8984  0.6562
  4994G12c C00I92722   5.243   9.604  12.345 -0.7499 -0.3382  0.6976
  4994G12c C00J92723   5.160   9.506  12.335  1.4151 -0.4359  2.6115
  4994G12c C00Z92724   5.249   9.365  12.778  0.9625 -0.8344 -0.1485
  4994G12c C00Y92725   5.218   9.284  12.892  0.6456 -0.4818 -1.3583
  4994G12c H00692726   5.284   9.265  12.976  2.6582  4.7197 -1.5922
  4994G12c C00X92727   5.091   9.209  12.906  0.1866 -0.0725  1.2252
  4994G12c O00392728   5.081   9.098  12.998  1.6350  1.0922  0.1021
  4994G12c C01B92729   5.125   9.128  13.136  0.5714 -0.3996 -1.0936
  4994G12c H00992730   5.102   9.073  13.227  3.0484  3.2498  1.9365
  4994G12c H00892731   5.125   9.237  13.144 -4.6998 -0.6454  6.3515
  4994G12c H00792732   5.232   9.117  13.157 -0.3360 -3.7420  2.1305
  4994G12c C00W92733   5.016   9.213  12.776  0.7601 -1.2486  1.0680
  4994G12c O00492734   4.902   9.141  12.784  0.3086  0.3841 -1.0326
  4994G12c C01C92735   4.797   9.192  12.698 -0.0304 -1.6346 -0.3047
  4994G12c H00A92736   4.697   9.159  12.721 -0.0675 -0.9212  0.5927
  4994G12c C00P92737   4.826   9.226  12.557 -0.9570  0.8897 -1.5200
  4994G12c C00O92738   4.725   9.247  12.450  1.4118 -0.7239  1.1863
  4994G12c C01D92739   4.607   9.173  12.461 -0.2022  1.3135 -1.3919
  4994G12c H00S92740   4.558   9.125  12.544 -1.3461 -0.5433 -3.0992
  4994G12c C01E92741   4.497   9.230  12.396  0.1495  0.6443 -0.9906
  4994G12c O00892742   4.384   9.233  12.463  0.0963  0.5809 -1.2788
  4994G12c C01V92743   4.375   9.317  12.568 -0.6100 -0.0293  0.4898
  4994G12c C01Z92744   4.236   9.303  12.630 -0.8607  0.4822 -0.0161
  4994G12c H00R92745   4.245   9.326  12.737  5.8995  5.7316 -1.4107
  4994G12c H00Q92746   4.170   9.384  12.600 -2.5499 -2.8994 -6.3355
  4994G12c O00992747   4.171   9.185  12.617  0.3176 -0.4349 -1.3466
  4994G12c H00P92748   4.242   9.126  12.593  0.8750 -0.5702  0.5434
  4994G12c C01W92749   4.451   9.418  12.604 -0.6230  0.3730  0.1020
  4994G12c H00O92750   4.545   9.430  12.553  1.2295 -3.2730  2.5110
  4994G12c C01X92751   4.407   9.526  12.680  0.2268 -0.3728  0.4439
  4994G12c H00N92752   4.331   9.491  12.749 -1.4048 -1.6287 -1.8926
  4994G12c H00M92753   4.484   9.565  12.746 -0.0081  1.2746 -0.2443
  4994G12c C01Y92754   4.336   9.620  12.577 -1.0500  0.7166  1.5405
  4994G12c C02D92755   4.201   9.642  12.552 -0.0776  0.8980  0.5961
  4994G12c H01992756   4.127   9.570  12.582  1.6803 -1.5892 -0.8257
  4994G12c C02C92757   4.167   9.739  12.454 -0.2186  0.5591  1.4751
  4994G12c H01A92758   4.069   9.779  12.437  1.0355  3.1572  0.1422
  4994G12c C02B92759   4.255   9.835  12.411 -1.0096  1.0928  1.2236
  4994G12c O00E92760   4.231   9.935  12.323  1.3806 -0.0625 -0.9413
  4994G12c H01B92761   4.163   9.902  12.267  1.4266  0.9599 -1.6074
  4994G12c C02F92762   4.390   9.827  12.452 -0.8966 -0.4074  0.5951
  4994G12c O00F92763   4.501   9.919  12.449  1.6302 -1.0704  1.5249
  4994G12c C02G92764   4.512  10.046  12.414  0.5750  0.0752  1.0416
  4994G12c H01792765   4.553  10.032  12.314  5.5575 -1.7939  3.2231
  4994G12c H01692766   4.551  10.136  12.461 -3.9321  2.3428  0.7144
  4994G12c H01592767   4.404  10.049  12.431  0.0493 -1.8309 -1.6255
  4994G12c C02E92768   4.434   9.708  12.508  0.9442  0.6112  0.2744
  4994G12c H01892769   4.531   9.700  12.555  0.7003 -0.8686  0.5554
  4994G12c C01F92770   4.520   9.323  12.287  0.0861  1.1591  1.5559
  4994G12c C01G92771   4.427   9.414  12.243  0.2517  0.7278  2.0117
  4994G12c H00L92772   4.328   9.422  12.285 -0.2139 -1.5210  1.4184
  4994G12c C01H92773   4.468   9.525  12.145 -0.4932 -0.5446 -1.1113
  4994G12c H00B92774   4.403   9.599  12.100  2.2180  4.8347  3.2070
  4994G12c C01I92775   4.602   9.518  12.080 -0.9874  0.2573  1.8083
  4994G12c C01U92776   4.646   9.327  12.224 -1.2604  0.8179 -1.3515
  4994G12c C00S92777   5.134   9.425  12.444 -0.4144  0.0656 -0.7264
  4994G12c C00K92778   5.048   9.508  12.251  0.1875  0.1706  2.0217
  4994G12c C00N92779   4.744   9.310  12.324  0.6303 -1.0263 -0.8348
  4994G12c C00092780   4.674   9.404  12.107 -1.1290 -0.8612  0.6823
  4994G12c C01J92781   4.695   9.619  12.041  2.3710  0.3869 -0.2248
  4994G12c C01K92782   4.661   9.752  12.026 -1.0465 -0.6012  0.1529
  4994G12c C01P92783   4.541   9.795  11.963 -0.8071 -0.5445  1.2538
  4994G12c C01Q92784   4.436   9.701  11.896 -0.9242 -0.3323 -0.3284
  4994G12c H00G92785   4.441   9.615  11.830  8.4440 -1.6983  1.5112
  4994G12c C01R92786   4.311   9.759  11.878  0.1505 -0.4493 -0.3405
  4994G12c H00F92787   4.280   9.829  11.955 -0.3549  0.9710 -1.8083
  4994G12c C01S92788   4.197   9.690  11.827  0.5582  1.0246 -1.7148
  4994G12c H00E92789   4.113   9.694  11.897  6.0796  1.9135  5.4007
  4994G12c H00D92790   4.224   9.585  11.836  1.8450  1.5636  1.1468
  4994G12c O00592791   4.192   9.757  11.701 -1.0665  0.0628 -1.3044
  4994G12c H00C92792   4.231   9.843  11.702  1.7047 -1.1688 -0.9291
  4994G12c C01O92793   4.531   9.936  11.930  1.0307  1.0521 -0.3663
  4994G12c H00H92794   4.449   9.927  11.860  3.5275 -3.2125 -2.9332
  4994G12c C01N92795   4.623  10.017  11.983  1.5329  0.1161  0.1351
  4994G12c O00692796   4.609  10.150  11.970  1.1700 -1.6018  0.1919
  4994G12c C01T92797   4.525  10.212  12.063 -0.6484  1.0196 -0.3383
  4994G12c H00K92798   4.500  10.299  12.003 -1.4491  0.6423 -0.5598
  4994G12c H00J92799   4.471  10.155  12.138 -0.2030 -4.7558 -4.0909
  4994G12c H00I92800   4.593  10.254  12.136 -1.9067  1.4866  0.5815
  4994G12c C01M92801   4.734   9.969  12.046  1.9575 -0.9570 -1.3137
  4994G12c C02092802   5.050   9.608  12.154 -0.3795  0.8049  1.6343
  4994G12c C02192803   5.144   9.723  12.153 -1.3616 -0.7722 -2.2288
  4994G12c C01L92804   4.771   9.837  12.055 -1.5868  0.9923 -1.1052
  4994G12c O00792805   4.806  10.065  12.113  0.9451 -0.9810 -0.5951
  4994G12c C02292806   5.113   9.852  12.139  0.1237 -1.0545  1.3796
  4994G12c C02392807   5.234   9.720  12.262 -1.6479  0.0354  0.8217
  4994G12c C00G92808   5.379   9.749  12.482 -0.5738  1.0387 -1.7481
  4994G12c C00E92809   5.575   9.844  12.562  0.4437 -0.7342 -1.3635
  4994G12c O00A92810   5.709   9.835  12.620  1.0333 -1.0531  0.6943
  4994G12c C02492811   5.768   9.709  12.567  0.6798 -0.4932  0.1784
  4994G12c H00V92812   5.784   9.741  12.465 -1.4116 -0.1324 -0.0467
  4994G12c H00U92813   5.702   9.625  12.546  0.7914 -0.4484 -0.3398
  4994G12c H00T92814   5.865   9.698  12.616  1.1565  2.9142  0.1386
  5004G12c C00D92815  12.295   2.093   4.167  0.5028 -4.0941 -0.0890
  5004G12c O00B92816  12.256   2.224   4.211  0.2663  0.0933  0.6415
  5004G12c C02592817  12.332   2.338   4.168  0.3895 -0.6134 -0.4737
  5004G12c C02692818  12.370   2.349   4.020 -2.2619 -0.0586 -0.7123
  5004G12c H00Y92819  12.304   2.407   3.955 -3.0180  0.0051  0.1031
  5004G12c H00X92820  12.358   2.243   3.999 -1.5990  0.1529 -2.2568
  5004G12c O00C92821  12.513   2.381   4.009 -0.0901  0.3414 -1.4532
  5004G12c H00W92822  12.538   2.359   4.098  1.5128  0.8911 -1.7403
  5004G12c C02792823  12.398   2.419   4.260  0.8243 -0.3864  0.3336
  5004G12c O00D92824  12.368   2.380   4.385  0.5458  0.2881 -1.0006
  5004G12c H00Z92825  12.389   2.287   4.389  1.6564  0.4235 -2.8688
  5004G12c C02892826  12.428   2.555   4.206 -0.0502  0.2032  0.8814
  5004G12c C02992827  12.515   2.632   4.295  0.0206 -0.8738 -0.0749
  5004G12c H01092828  12.560   2.596   4.386  1.3971  0.7227 -0.1115
  5004G12c C02T92829  12.521   2.769   4.245 -0.2009  0.7827  0.2891
  5004G12c H01O92830  12.565   2.849   4.302 -0.9061 -0.1202  2.1815
  5004G12c C02S92831  12.466   2.812   4.121  1.1178  1.0830  0.9173
  5004G12c O00J92832  12.460   2.935   4.085 -0.9068  1.0854  0.4549
  5004G12c H01P92833  12.366   2.927   4.097 -0.7337  1.8630  2.3137
  5004G12c C02R92834  12.411   2.729   4.032 -0.1240 -0.1692  0.2784
  5004G12c O00I92835  12.327   2.773   3.934  1.6217 -0.2772 -0.9548
  5004G12c C02Q92836  12.382   2.793   3.804  0.0940  0.7182 -0.2002
  5004G12c H01N92837  12.474   2.736   3.790 -0.8677 -0.9002 -0.0211
  5004G12c H01R92838  12.345   2.762   3.706 -5.6232  1.7419  1.4418
  5004G12c H01Q92839  12.420   2.888   3.766  0.2613 -1.1261 -5.0136
  5004G12c C02A92840  12.385   2.605   4.077  0.3866  0.0125 -0.0368
  5004G12c H01192841  12.286   2.574   4.049  0.3656 -2.5950  2.6669
  5004G12c C00C92842  12.445   2.062   4.156  0.2154  0.0307 -0.8438
  5004G12c H01292843  12.501   2.127   4.222 -2.5461 -4.0870  6.0572
  5004G12c C00B92844  12.488   1.940   4.092 -1.5955  0.4878  1.0740
  5004G12c C00A92845  12.616   1.904   4.068 -0.9607 -0.6013  1.2874
  5004G12c C00992846  12.723   1.972   3.984 -0.8539  0.8685 -0.8218
  5004G12c C00892847  12.717   2.082   3.910 -0.0684  0.3223  0.0007
  5004G12c H01392848  12.624   2.136   3.909  0.4551  1.2978  1.8735
  5004G12c C00792849  12.843   2.122   3.848 -1.3875 -0.1324  0.3603
  5004G12c H01492850  12.864   2.207   3.785 -1.1329 -1.9693 -2.0943
  5004G12c C00692851  12.951   2.033   3.828  0.2777 -0.9248  0.7451
  5004G12c C00592852  12.940   1.914   3.897  0.1414  1.7478  0.3158
  5004G12c C00492853  13.003   1.810   3.831  0.1030  1.2967  0.0504
  5004G12c C00392854  12.950   1.670   3.870  0.6568 -0.1441  0.0792
  5004G12c C00292855  13.001   1.551   3.789 -0.0028 -1.8825 -0.4248
  5004G12c C00192856  12.968   1.415   3.767 -0.4318 -1.6300  0.7966
  5004G12c C00M92857  12.832   1.387   3.772  1.0691  0.7051  0.1770
  5004G12c C00L92858  12.735   1.417   3.870  1.5362  0.0141 -0.9289
  5004G12c C00R92859  12.592   1.392   3.853 -0.2010  1.8976  0.6095
  5004G12c C00Q92860  12.523   1.311   3.764 -0.8149 -1.3882 -0.2439
  5004G12c C00V92861  12.381   1.313   3.794 -1.1471  0.3211  0.9552
  5004G12c C00U92862  12.325   1.398   3.889  0.2302  0.0432  0.0606
  5004G12c C00T92863  12.402   1.498   3.927  1.6438 -0.1110 -1.2223
  5004G12c C01692864  12.353   1.617   3.985 -0.1908 -0.1948 -0.4277
  5004G12c C01592865  12.229   1.637   4.005 -0.6330  0.7005  0.5414
  5004G12c C01092866  12.144   1.535   3.957 -1.5232 -0.9449 -1.0022
  5004G12c C01192867  12.006   1.554   3.978  1.7309  1.1057 -1.5977
  5004G12c H00592868  11.924   1.492   3.944  1.1093 -0.1495  1.9441
  5004G12c C01292869  11.957   1.677   4.034  0.9727 -0.8793  0.3041
  5004G12c C01792870  11.818   1.687   4.086 -0.1820  0.4698  0.5156
  5004G12c O00292871  11.726   1.717   3.996  0.4122 -0.0594 -0.8578
  5004G12c H00492872  11.769   1.731   3.913  5.7677  6.1536  2.5298
  5004G12c C01892873  11.775   1.656   4.213 -1.2702  1.4397  0.9752
  5004G12c O00192874  11.875   1.612   4.315  0.3921  0.0392  1.2911
  5004G12c H00392875  11.864   1.519   4.328 -1.5500 -0.5578 -3.4148
  5004G12c C01992876  11.618   1.655   4.251 -0.4334 -0.8057 -0.9212
  5004G12c H00292877  11.555   1.714   4.184  2.0484  3.8195  0.5823
  5004G12c H00192878  11.590   1.550   4.258 -4.9237  0.5274  4.4474
  5004G12c O00092879  11.580   1.703   4.378  0.7222 -0.2125  0.3184
  5004G12c C01A92880  11.452   1.695   4.413  0.1925  0.0503 -0.6872
  5004G12c C02K92881  11.347   1.786   4.380  0.1698  1.5171  1.5389
  5004G12c O00G92882  11.386   1.868   4.288 -1.0133 -1.2609  0.0842
  5004G12c C02M92883  11.301   1.982   4.264  1.0959 -1.9451  0.9997
  5004G12c H01G92884  11.363   2.071   4.260  2.8971 -3.1987  0.3578
  5004G12c H01F92885  11.232   2.009   4.344  0.3315  0.0079 -0.2749
  5004G12c H01E92886  11.250   1.976   4.167  2.2582-10.5905  0.5442
  5004G12c C02J92887  11.216   1.757   4.424  0.0738 -0.4084 -0.3317
  5004G12c H01H92888  11.147   1.833   4.388 -2.2624 -2.0946  0.4208
  5004G12c C02I92889  11.191   1.629   4.481  0.3462 -0.0260  2.2466
  5004G12c C02N92890  11.049   1.583   4.520  0.0950 -0.8545 -0.2724
  5004G12c H01M92891  11.008   1.548   4.613 -0.2412 -0.6571 -0.3453
  5004G12c C02O92892  10.938   1.607   4.437  0.3211 -0.3021  1.1230
  5004G12c H01L92893  10.841   1.597   4.484  2.1811  3.8399  6.4309
  5004G12c C02P92894  10.956   1.665   4.303  0.0295  2.1449  0.0313
  5004G12c H01K92895  10.924   1.769   4.293 -5.3384  0.9756  3.5062
  5004G12c H01J92896  11.050   1.670   4.247 -0.3298 -1.6791 -1.0587
  5004G12c O00H92897  10.858   1.618   4.204 -0.1530 -1.6592  0.8157
  5004G12c H01I92898  10.786   1.675   4.179  1.0791  1.4123  3.8916
  5004G12c C02H92899  11.296   1.552   4.534 -0.7096  1.3012 -0.7529
  5004G12c H01C92900  11.278   1.460   4.588  0.8666  3.5350  3.7855
  5004G12c C02L92901  11.422   1.570   4.477  0.1377 -0.9402 -0.8772
  5004G12c H01D92902  11.499   1.497   4.494  5.2880  3.8260 -2.0824
  5004G12c C01392903  12.044   1.782   4.049 -0.1354  0.1917  0.4661
  5004G12c H00092904  11.973   1.860   4.075  0.7928  0.3606  2.6217
  5004G12c C01492905  12.176   1.764   4.043 -0.5217  1.0353 -0.7563
  5004G12c C00F92906  12.264   1.861   4.091  0.2935 -0.8180 -0.3281
  5004G12c C00H92907  12.446   1.697   4.040  0.2009 -0.6770  1.5470
  5004G12c C00I92908  12.584   1.672   4.030  0.4734  0.6422 -0.8736
  5004G12c C00J92909  12.624   1.542   3.998  0.3851 -0.2641 -0.9169
  5004G12c C00Z92910  12.194   1.428   3.888  0.6802 -1.4177 -0.3199
  5004G12c C00Y92911  12.105   1.328   3.836 -0.2582  0.0326  0.1241
  5004G12c H00692912  12.000   1.319   3.858 -0.6686 -5.2928 -3.1348
  5004G12c C00X92913  12.157   1.224   3.760  1.4311  0.3631  0.6261
  5004G12c O00392914  12.082   1.122   3.704 -1.3641  1.4304  0.5212
  5004G12c C01B92915  11.948   1.100   3.752  1.4388 -0.2665 -0.5922
  5004G12c H00992916  11.884   1.178   3.712  3.0297  2.8760  2.6646
  5004G12c H00892917  11.942   1.147   3.851 -7.7837 -3.7078  0.9597
  5004G12c H00792918  11.918   0.997   3.732  3.2925 -0.6505 -1.5279
  5004G12c C00W92919  12.282   1.235   3.724 -0.1138 -0.6445 -1.5228
  5004G12c O00492920  12.320   1.142   3.632  0.8555 -0.3938  0.1741
  5004G12c C01C92921  12.465   1.126   3.610  0.7119  0.9062  0.1394
  5004G12c H00A92922  12.491   1.028   3.571  0.1431  0.0517  1.8491
  5004G12c C00P92923  12.562   1.232   3.648  0.6405  1.0826 -0.0579
  5004G12c C00O92924  12.693   1.225   3.600  0.3494  0.8144 -0.0488
  5004G12c C01D92925  12.702   1.189   3.467  0.0436 -0.9904  0.6888
  5004G12c H00S92926  12.635   1.122   3.414  2.2529 -0.6494 -2.6563
  5004G12c C01E92927  12.802   1.245   3.384  2.2434 -1.0901  0.3682
  5004G12c O00892928  12.793   1.263   3.246  0.3796  1.4183 -0.3615
  5004G12c C01V92929  12.698   1.348   3.182 -2.3433  1.5993  0.2986
  5004G12c C01Z92930  12.702   1.314   3.041 -0.5680 -2.9057  1.1901
  5004G12c H00R92931  12.674   1.209   3.043 -1.1535 -2.7755  0.1092
  5004G12c H00Q92932  12.619   1.352   2.981 -1.1856 -1.0538  3.1540
  5004G12c O00992933  12.820   1.348   2.971 -0.3193  0.1349  0.5016
  5004G12c H00P92934  12.861   1.432   2.980 -2.9820  2.4830 -6.0025
  5004G12c C01W92935  12.668   1.452   3.242 -0.2893 -1.5028 -1.1495
  5004G12c H00O92936  12.679   1.477   3.346 -3.8811 -0.6762 -0.8918
  5004G12c C01X92937  12.638   1.578   3.188 -0.4069 -0.3448  0.8058
  5004G12c H00N92938  12.665   1.592   3.083  1.7002 -2.2259  1.0430
  5004G12c H00M92939  12.534   1.609   3.174 -1.2383 -2.5414  1.8783
  5004G12c C01Y92940  12.707   1.678   3.287 -2.2665  0.6077 -0.1977
  5004G12c C02D92941  12.804   1.765   3.244 -0.4808  2.9036  1.3530
  5004G12c H01992942  12.839   1.731   3.147  0.5845  0.5331  2.5142
  5004G12c C02C92943  12.842   1.895   3.300 -0.7918  0.5081  0.1119
  5004G12c H01A92944  12.919   1.960   3.260 -0.1827 -2.3739 -3.6170
  5004G12c C02B92945  12.782   1.921   3.422  0.4013  0.3804  0.0863
  5004G12c O00E92946  12.813   2.042   3.492  0.3705  0.0381 -0.6244
  5004G12c H01B92947  12.905   2.047   3.513  1.4724  6.3132 -5.4538
  5004G12c C02F92948  12.697   1.834   3.483  1.1564 -1.1584 -0.5361
  5004G12c O00F92949  12.617   1.884   3.582 -0.0372 -1.2127  0.5612
  5004G12c C02G92950  12.595   1.807   3.710 -0.1329 -0.6102  0.7977
  5004G12c H01792951  12.583   1.701   3.691  6.2604 -1.2442 -0.9520
  5004G12c H01692952  12.556   1.839   3.806  0.2065 -1.4544  1.2162
  5004G12c H01592953  12.689   1.753   3.718 -0.2828 -0.8608  0.8310
  5004G12c C02E92954  12.653   1.723   3.410 -0.3778 -1.1976  1.1595
  5004G12c H01892955  12.552   1.696   3.435 -0.7958 -0.7088  0.0331
  5004G12c C01F92956  12.910   1.308   3.440  0.0296  0.2413  1.6859
  5004G12c C01G92957  13.011   1.384   3.375 -0.3685 -0.8178 -0.2610
  5004G12c H00L92958  13.037   1.379   3.270  6.1733 -0.9047  1.1612
  5004G12c C01H92959  13.103   1.472   3.450  1.1247 -0.4764  0.9297
  5004G12c H00B92960  13.141   1.566   3.413 -5.2280  1.2035 -1.9453
  5004G12c C01I92961  13.091   1.460   3.588 -0.8500 -1.6470 -1.4524
  5004G12c C01U92962  12.931   1.297   3.574 -0.1137 -0.3103 -1.0464
  5004G12c C00S92963  12.526   1.458   3.950  0.1775 -0.8457  1.1185
  5004G12c C00K92964  12.754   1.527   3.948 -0.6509 -1.9407  0.2774
  5004G12c C00N92965  12.808   1.293   3.663  0.0544 -0.1893  1.3567
  5004G12c C00092966  13.028   1.363   3.652  0.7124  1.2320  1.0102
  5004G12c C01J92967  13.078   1.586   3.668  1.1602  0.5430 -2.0017
  5004G12c C01K92968  13.162   1.699   3.671 -0.6396 -1.0386  0.5963
  5004G12c C01P92969  13.295   1.727   3.613  0.8540  0.3945  0.4748
  5004G12c C01Q92970  13.375   1.621   3.565 -0.0196 -1.2771 -1.1918
  5004G12c H00G92971  13.377   1.541   3.637 -1.6669  0.1676  0.5441
  5004G12c C01R92972  13.407   1.626   3.438 -0.4627  0.7379 -0.7262
  5004G12c H00F92973  13.373   1.699   3.367  0.6113  3.6056  1.6170
  5004G12c C01S92974  13.475   1.506   3.387 -0.2583 -0.4018 -0.1999
  5004G12c H00E92975  13.433   1.512   3.287  1.5776 -1.1217 -1.0286
  5004G12c H00D92976  13.579   1.539   3.387  0.7808 -2.9710  5.2837
  5004G12c O00592977  13.468   1.371   3.448  0.9810 -0.8991 -0.8368
  5004G12c H00C92978  13.546   1.357   3.500 -2.8114 -3.2934  4.7715
  5004G12c C01O92979  13.342   1.860   3.584  1.1004  0.3303 -2.4315
  5004G12c H00H92980  13.431   1.858   3.523 -0.2786  4.0404 -4.7621
  5004G12c C01N92981  13.253   1.965   3.604  1.2499  1.5724 -0.5104
  5004G12c O00692982  13.276   2.082   3.551  0.5509  0.2180  0.7890
  5004G12c C01T92983  13.191   2.143   3.444  0.4327 -0.6382  0.2588
  5004G12c H00K92984  13.208   2.251   3.442 -7.0932  0.8918  1.3002
  5004G12c H00J92985  13.208   2.111   3.342  3.6164 -0.4982  0.7221
  5004G12c H00I92986  13.095   2.095   3.466  2.2569 -6.0250 -2.6494
  5004G12c C01M92987  13.147   1.926   3.692  0.5804 -0.9159  0.0711
  5004G12c C02092988  12.840   1.643   3.963 -1.3545  1.2287 -0.5031
  5004G12c C02192989  12.800   1.757   4.044 -0.6087 -0.0287 -0.4361
  5004G12c C01L92990  13.098   1.808   3.734  1.9188  1.9485 -0.6367
  5004G12c O00792991  13.060   2.032   3.740  0.9770  0.4123  1.0192
  5004G12c C02292992  12.841   1.879   3.997 -0.0898 -1.0347  0.6931
  5004G12c C02392993  12.662   1.769   4.069  0.8198 -0.2623 -1.7841
  5004G12c C00G92994  12.396   1.831   4.082 -1.1253  1.4007  0.7432
  5004G12c C00E92995  12.207   2.002   4.110 -0.7012  0.7270 -0.9503
  5004G12c O00A92996  12.067   2.046   4.108 -0.4063  0.7701  0.3184
  5004G12c C02492997  12.036   2.163   4.032 -0.6398  0.6196 -0.0176
  5004G12c H00V92998  12.121   2.205   3.980 -1.1905 -0.8353 -2.1481
  5004G12c H00U92999  11.977   2.228   4.097  2.8017  4.3376 -0.3945
  5004G12c H00T93000  11.981   2.127   3.945 -2.5145  0.4731  1.1977
  5014G12c C00D93001   3.331   4.200   3.498 -0.6650  1.7356 -0.5788
  5014G12c O00B93002   3.307   4.339   3.467  0.9747 -0.0952  0.0333
  5014G12c C02593003   3.207   4.360   3.370  0.3334  0.7073  0.8485
  5014G12c C02693004   3.278   4.369   3.225 -1.7169  0.2961 -0.8822
  5014G12c H00Y93005   3.306   4.283   3.165  2.6585  1.0254 -0.0864
  5014G12c H00X93006   3.371   4.402   3.271 -3.3202 -5.8830  8.1548
  5014G12c O00C93007   3.222   4.456   3.148  0.9202 -0.5104 -0.2854
  5014G12c H00W93008   3.195   4.527   3.203  1.2097 -0.9599  0.4523
  5014G12c C02793009   3.067   4.353   3.373 -2.2705  1.0193  1.2137
  5014G12c O00D93010   2.958   4.360   3.275 -1.3057  0.2919  1.0728
  5014G12c H00Z93011   2.952   4.303   3.200 -7.0632 -2.6209  3.3844
  5014G12c C02893012   3.018   4.337   3.513  0.7588  0.4692 -1.3383
  5014G12c C02993013   2.954   4.213   3.565  0.2565 -0.9569  0.1429
  5014G12c H01093014   2.964   4.124   3.504 -2.3867  5.2057-10.4749
  5014G12c C02T93015   2.920   4.205   3.707  1.0838  0.2219  0.6715
  5014G12c H01O93016   2.911   4.118   3.769  0.3620 -1.1594 -1.3273
  5014G12c C02S93017   2.917   4.321   3.782 -0.1463  0.7619 -1.3018
  5014G12c O00J93018   2.864   4.332   3.905 -0.9422  0.0480  1.1139
  5014G12c H01P93019   2.915   4.411   3.905  1.3605 -1.3805  3.0767
  5014G12c C02R93020   2.935   4.441   3.720 -0.8012  2.0687 -0.0424
  5014G12c O00I93021   2.922   4.550   3.796 -0.8764 -0.6387 -1.1403
  5014G12c C02Q93022   2.797   4.598   3.856  0.2637 -1.0052 -1.9439
  5014G12c H01N93023   2.729   4.620   3.773  2.2600  0.2663 -3.2883
  5014G12c H01R93024   2.779   4.701   3.886 -2.1281 -1.3788 -1.9594
  5014G12c H01Q93025   2.754   4.523   3.923  0.4956  0.9772  0.4916
  5014G12c C02A93026   2.997   4.446   3.593  2.4519 -0.9604 -1.2704
  5014G12c H01193027   3.032   4.540   3.552 -3.1677  2.6473  1.4584
  5014G12c C00C93028   3.285   4.108   3.401  0.3853  1.6738  0.6682
  5014G12c H01293029   3.228   4.135   3.313  4.5104 -3.0964 -3.7292
  5014G12c C00B93030   3.334   3.978   3.430 -0.2819 -1.0413 -1.3552
  5014G12c C00A93031   3.341   3.854   3.347 -0.1741 -0.7688  1.7269
  5014G12c C00993032   3.235   3.829   3.260  0.6319 -0.5130  1.3894
  5014G12c C00893033   3.102   3.858   3.246 -0.3887  2.2155  0.6838
  5014G12c H01393034   3.054   3.943   3.290 -0.2649  0.9235  3.4256
  5014G12c C00793035   3.034   3.761   3.159 -0.2900 -0.5581  0.1888
  5014G12c H01493036   2.929   3.761   3.133  1.7351 -3.6742-10.3179
  5014G12c C00693037   3.078   3.627   3.112  1.1214 -1.0022 -0.6873
  5014G12c C00593038   3.216   3.603   3.147 -0.5076 -0.6941 -1.2738
  5014G12c C00493039   3.258   3.468   3.143 -1.4176  1.3352  1.6814
  5014G12c C00393040   3.373   3.436   3.212 -0.4342  2.0946  0.8521
  5014G12c C00293041   3.434   3.306   3.219 -0.4400  2.5468  1.5153
  5014G12c C00193042   3.513   3.230   3.309  0.1038 -1.0950 -0.9136
  5014G12c C00M93043   3.561   3.253   3.437 -1.4091 -0.2042 -1.5816
  5014G12c C00L93044   3.541   3.386   3.478 -1.3467 -0.5023  0.6355
  5014G12c C00R93045   3.582   3.417   3.605 -0.4248 -1.2413  1.7837
  5014G12c C00Q93046   3.569   3.353   3.732  0.6182  0.6030 -0.8940
  5014G12c C00V93047   3.598   3.442   3.839  1.9203 -1.4739 -0.4545
  5014G12c C00U93048   3.582   3.586   3.832  0.0162  3.5355 -1.1956
  5014G12c C00T93049   3.567   3.648   3.710 -0.8507  1.6397  0.6596
  5014G12c C01693050   3.539   3.768   3.689 -0.4183 -2.2488 -1.5266
  5014G12c C01593051   3.523   3.852   3.809 -1.5348  1.3708  0.6716
  5014G12c C01093052   3.565   3.811   3.926  0.2652 -0.1312 -0.9095
  5014G12c C01193053   3.557   3.905   4.030  1.1868 -0.7841 -0.0507
  5014G12c H00593054   3.550   3.869   4.132 -0.8772 -6.3706 -1.9986
  5014G12c C01293055   3.511   4.039   4.027 -0.6367  0.2806 -0.4341
  5014G12c C01793056   3.548   4.125   4.139 -1.9256 -0.4167  0.9124
  5014G12c O00293057   3.639   4.074   4.221 -0.7141  0.8356  0.1332
  5014G12c H00493058   3.723   4.114   4.235 -3.3170  4.5872  9.0126
  5014G12c C01893059   3.518   4.260   4.161 -0.2991  0.0953  1.5008
  5014G12c O00193060   3.454   4.341   4.063  0.1742 -0.7941  1.2663
  5014G12c H00393061   3.438   4.426   4.099 -0.5588  0.2771 -1.4595
  5014G12c C01993062   3.531   4.329   4.293 -1.1404 -0.6953 -0.5184
  5014G12c H00293063   3.465   4.272   4.357  0.2362 -0.3487  1.2367
  5014G12c H00193064   3.639   4.318   4.307 -0.3385  0.8922 -4.6128
  5014G12c O00093065   3.484   4.465   4.278 -2.0069 -1.5588 -0.2068
  5014G12c C01A93066   3.480   4.550   4.392 -1.1155 -0.9884 -1.0729
  5014G12c C02K93067   3.372   4.629   4.407 -1.2586 -0.4469  0.5106
  5014G12c O00G93068   3.265   4.607   4.317 -0.5113  0.6458 -0.3483
  5014G12c C02M93069   3.135   4.605   4.372  0.3633 -0.4929 -0.6430
  5014G12c H01G93070   3.114   4.591   4.478 -2.6311 -0.5165 -1.1895
  5014G12c H01F93071   3.069   4.531   4.327  2.4828 -0.6664 -3.6135
  5014G12c H01E93072   3.075   4.695   4.360 -4.0387 -3.4514 -2.0539
  5014G12c C02J93073   3.370   4.741   4.489  0.9650 -0.7324  0.0239
  5014G12c H01H93074   3.290   4.807   4.519  2.1371 -1.8304  6.2438
  5014G12c C02I93075   3.482   4.750   4.572  0.5042  0.6582  0.8617
  5014G12c C02N93076   3.506   4.845   4.675  0.0525  0.6077 -1.1316
  5014G12c H01M93077   3.602   4.894   4.676 -2.5180  6.0790  1.4455
  5014G12c C02O93078   3.407   4.883   4.760 -0.0315  0.2332  1.3407
  5014G12c H01L93079   3.306   4.844   4.760 -0.0191  0.1632 -0.5624
  5014G12c C02P93080   3.452   4.998   4.869  1.0941 -0.4484  0.0061
  5014G12c H01K93081   3.553   5.022   4.835 -1.0074  8.8998 -1.0861
  5014G12c H01J93082   3.397   5.092   4.880  0.7409 -0.0749 -4.2050
  5014G12c O00H93083   3.446   4.938   4.991 -1.0756 -0.8377 -0.0085
  5014G12c H01I93084   3.358   4.908   4.976 -3.4907  6.2788 -1.9672
  5014G12c C02H93085   3.589   4.652   4.575 -0.4366 -0.8137  0.2719
  5014G12c H01C93086   3.684   4.657   4.627  0.9843 -1.3262 -2.2149
  5014G12c C02L93087   3.582   4.551   4.486 -1.0013  0.5491 -0.1685
  5014G12c H01D93088   3.659   4.479   4.467 -2.4643 -0.7026 -1.5101
  5014G12c C01393089   3.473   4.067   3.908  0.1400  0.8928 -0.8936
  5014G12c H00093090   3.442   4.170   3.913  0.3363  1.0427 -2.3570
  5014G12c C01493091   3.477   3.984   3.785 -0.8339  0.3063 -0.5186
  5014G12c C00F93092   3.428   4.028   3.660  0.4832 -0.3605 -0.0597
  5014G12c C00H93093   3.486   3.815   3.558  0.6650 -0.5029  0.1000
  5014G12c C00I93094   3.514   3.735   3.453 -0.4280 -0.0654  0.4550
  5014G12c C00J93095   3.567   3.604   3.474 -0.3030 -0.8766 -0.7530
  5014G12c C00Z93096   3.595   3.672   3.941  0.0546  0.9685  0.6248
  5014G12c C00Y93097   3.603   3.614   4.073  0.1480 -1.0974  0.3702
  5014G12c H00693098   3.591   3.676   4.160 -3.6182  1.4486 -1.8430
  5014G12c C00X93099   3.613   3.469   4.079 -0.0855 -0.3201  1.1572
  5014G12c O00393100   3.656   3.431   4.202  0.4664  1.3167 -1.1070
  5014G12c C01B93101   3.586   3.320   4.282 -0.9472  1.5794  0.1931
  5014G12c H00993102   3.687   3.281   4.272 -0.8450  1.5559  1.1804
  5014G12c H00893103   3.492   3.291   4.236 -0.2678  0.7644 -0.6981
  5014G12c H00793104   3.589   3.345   4.388 -0.4295  1.6859  0.1535
  5014G12c C00W93105   3.591   3.386   3.969  1.4847  0.8689 -0.3009
  5014G12c O00493106   3.569   3.251   3.999  0.9839 -0.2566 -2.2151
  5014G12c C01C93107   3.481   3.191   3.904  0.7944  0.5994 -2.4519
  5014G12c H00A93108   3.382   3.228   3.883 -0.2800  6.9751  9.4072
  5014G12c C00P93109   3.526   3.216   3.765  0.3889 -0.7811  1.1188
  5014G12c C00O93110   3.497   3.118   3.660  0.5942 -1.3809 -0.1434
  5014G12c C01D93111   3.439   3.007   3.675  0.7278 -0.0283 -0.5808
  5014G12c H00S93112   3.424   2.979   3.778 -0.0220 -4.7563 -1.8481
  5014G12c C01E93113   3.393   2.905   3.585 -0.4867 -0.9607 -0.3968
  5014G12c O00893114   3.369   2.773   3.622  0.8392  2.1070  0.8199
  5014G12c C01V93115   3.392   2.716   3.738 -1.9372 -0.9764  0.3908
  5014G12c C01Z93116   3.524   2.641   3.721  0.7115  1.0580  1.2754
  5014G12c H00R93117   3.592   2.713   3.675 -0.3641  0.4473 -1.3282
  5014G12c H00Q93118   3.571   2.623   3.818  1.8756  0.8111  0.6774
  5014G12c O00993119   3.505   2.499   3.688  1.7619 -0.9558 -0.1905
  5014G12c H00P93120   3.529   2.508   3.598 -2.9394  1.2702 -1.3710
  5014G12c C01W93121   3.330   2.734   3.856 -0.0879  0.8753  0.0920
  5014G12c H00O93122   3.257   2.809   3.882 -0.8323  0.2563 -0.2102
  5014G12c C01X93123   3.375   2.690   4.001  1.0271 -0.0123  1.8817
  5014G12c H00N93124   3.274   2.688   4.042  0.8872  2.5862  1.7000
  5014G12c H00M93125   3.441   2.607   4.026  2.2913 -0.4352 -2.3879
  5014G12c C01Y93126   3.439   2.795   4.099  0.5510  1.1015 -0.8345
  5014G12c C02D93127   3.354   2.861   4.181 -0.3140 -1.1558 -1.0408
  5014G12c H01993128   3.247   2.851   4.187 -0.2490 -0.0097  2.8587
  5014G12c C02C93129   3.417   2.940   4.288 -0.5629  0.0886  0.6189
  5014G12c H01A93130   3.364   2.976   4.376  3.7484  5.0413  1.4024
  5014G12c C02B93131   3.549   2.971   4.274  0.0890 -0.1146 -2.3810
  5014G12c O00E93132   3.621   3.040   4.355 -0.6930  0.3056  1.2475
  5014G12c H01B93133   3.705   3.045   4.311  1.1117  1.4356  4.6391
  5014G12c C02F93134   3.626   2.930   4.172 -1.5204 -2.4155 -0.2924
  5014G12c O00F93135   3.746   2.985   4.140 -0.0526  0.0815 -0.1720
  5014G12c C02G93136   3.808   2.987   4.008 -0.4242 -0.7993  0.6622
  5014G12c H01793137   3.805   2.879   3.993 -6.8582  0.0929 -8.0719
  5014G12c H01693138   3.909   3.028   4.003 -0.0286 -2.0737 -3.0274
  5014G12c H01593139   3.752   3.041   3.933  1.8223 -2.0235 -1.9852
  5014G12c C02E93140   3.559   2.847   4.075 -0.7895 -1.0975  0.6513
  5014G12c H01893141   3.621   2.785   4.012  1.4560 -0.1860  1.8798
  5014G12c C01F93142   3.377   2.947   3.452 -1.1822 -0.1040  0.7376
  5014G12c C01G93143   3.286   2.886   3.355  1.1719  1.1949  1.1269
  5014G12c H00L93144   3.234   2.792   3.367  2.8573 -0.0705 -1.1173
  5014G12c C01H93145   3.259   2.981   3.235  0.0704  0.4371  0.9247
  5014G12c H00B93146   3.170   2.965   3.178  2.7645 -3.0149 -2.6237
  5014G12c C01I93147   3.362   3.078   3.205  0.6073 -1.1482  0.5061
  5014G12c C01U93148   3.470   3.046   3.427  0.2953  0.8270 -0.0866
  5014G12c C00S93149   3.585   3.560   3.606 -0.3476 -0.4094 -0.9269
  5014G12c C00K93150   3.543   3.496   3.386 -0.2570  0.9890  1.0812
  5014G12c C00N93151   3.524   3.144   3.522  1.1609  0.5947  1.5932
  5014G12c C00093152   3.475   3.109   3.297  1.7071 -1.0618  0.2980
  5014G12c C01J93153   3.359   3.212   3.143  1.5803 -1.2575  0.9118
  5014G12c C01K93154   3.234   3.240   3.055  0.3509  0.0686 -2.8140
  5014G12c C01P93155   3.134   3.156   2.993  1.1810 -1.9976 -0.4969
  5014G12c C01Q93156   3.209   3.052   2.934  0.6134  2.6163  1.2682
  5014G12c H00G93157   3.311   3.032   2.908 -1.1905  3.0833 -7.5683
  5014G12c C01R93158   3.129   2.953   2.866 -0.6374 -1.2143 -0.1398
  5014G12c H00F93159   3.021   2.954   2.869 -0.6590 -2.9776  0.0729
  5014G12c C01S93160   3.200   2.868   2.755  2.2456  0.3366 -2.1042
  5014G12c H00E93161   3.124   2.847   2.680  1.1814 -0.1616 -0.9036
  5014G12c H00D93162   3.273   2.932   2.706  0.3209  1.1427 -3.9709
  5014G12c O00593163   3.243   2.733   2.776  0.1721  0.1369  0.5684
  5014G12c H00C93164   3.267   2.662   2.718  1.9474 -4.8590  6.9140
  5014G12c C01O93165   3.001   3.198   2.954  0.8838 -0.1015  0.4334
  5014G12c H00H93166   2.943   3.119   2.909 -0.0257 -0.0395  1.4724
  5014G12c C01N93167   2.945   3.309   3.012 -1.4462 -0.5271 -0.0700
  5014G12c O00693168   2.820   3.306   3.006 -0.3932 -0.5764  0.1741
  5014G12c C01T93169   2.750   3.371   3.124 -0.3518 -0.7803 -1.4603
  5014G12c H00K93170   2.641   3.367   3.123 -0.3440 -2.6018  0.9674
  5014G12c H00J93171   2.792   3.450   3.186 -0.7803 -3.3655  2.3051
  5014G12c H00I93172   2.755   3.293   3.200 -2.1504  3.5548  3.4165
  5014G12c C01M93173   3.041   3.410   3.043 -0.6850  0.2857  0.0573
  5014G12c C02093174   3.456   3.539   3.267  1.0648 -1.5781 -1.0252
  5014G12c C02193175   3.425   3.678   3.234 -0.3119 -1.8066  0.2295
  5014G12c C01L93176   3.182   3.374   3.075  0.8343 -1.3904  0.4718
  5014G12c O00793177   2.993   3.530   3.076  0.6148 -0.3908 -1.2746
  5014G12c C02293178   3.301   3.716   3.187 -0.1989 -0.3578 -0.4537
  5014G12c C02393179   3.457   3.772   3.331  2.5392 -1.2066 -0.3355
  5014G12c C00G93180   3.410   3.942   3.545  1.3066 -1.3885 -0.3261
  5014G12c C00E93181   3.402   4.163   3.625  0.0913 -1.9161  0.8413
  5014G12c O00A93182   3.413   4.269   3.716  0.4740 -0.0262 -0.0707
  5014G12c C02493183   3.527   4.356   3.697 -0.2336  1.0070  0.6365
  5014G12c H00V93184   3.535   4.459   3.731 -1.7496 -0.3972  5.6730
  5014G12c H00U93185   3.530   4.394   3.594  3.2713 -0.4709  0.1093
  5014G12c H00T93186   3.616   4.295   3.713 -1.8460 -1.6990 -0.4819
  5024G12c C00D93187   8.086  12.172  13.715 -1.6522 -2.0682  1.1265
  5024G12c O00B93188   8.183  12.117  13.642 -1.2527 -0.6385  0.9359
  5024G12c C02593189   8.321  12.145  13.671  1.7867  0.5464 -0.0255
  5024G12c C02693190   8.364  12.262  13.610  0.7027  0.9644 -0.1731
  5024G12c H00Y93191   8.408  12.343  13.668  0.5264 -1.1962  3.1572
  5024G12c H00X93192   8.279  12.301  13.554 -0.6843 -0.4874  0.8351
  5024G12c O00C93193   8.469  12.241  13.549 -0.5114  0.4204  1.1644
  5024G12c H00W93194   8.482  12.158  13.506  2.9592  0.1296  2.6088
  5024G12c C02793195   8.390  12.075  13.768  1.1397  0.9269 -0.0931
  5024G12c O00D93196   8.518  12.100  13.820  0.8451  0.8241 -0.5339
  5024G12c H00Z93197   8.509  12.090  13.913 -2.6607 -3.0076 -1.1352
  5024G12c C02893198   8.323  11.956  13.845  0.5676  1.9824  1.5688
  5024G12c C02993199   8.193  11.899  13.826 -0.1817 -2.2356  0.1250
  5024G12c H01093200   8.150  11.912  13.727  0.2599 -0.6659  0.1253
  5024G12c C02T93201   8.150  11.792  13.913 -0.0590 -0.4070  0.1611
  5024G12c H01O93202   8.053  11.750  13.894  0.9738 -1.9644 -1.8522
  5024G12c C02S93203   8.240  11.732  14.010 -0.4152 -1.0568 -0.8924
  5024G12c O00J93204   8.212  11.597  14.056 -1.1791 -1.0416 -0.1788
  5024G12c H01P93205   8.287  11.585  14.113 -3.3046  3.1085  3.8141
  5024G12c C02R93206   8.351  11.807  14.027  1.0172 -1.0596  0.9379
  5024G12c O00I93207   8.421  11.723  14.113 -0.8366 -1.3608 -1.1756
  5024G12c C02Q93208   8.562  11.697  14.121 -0.0611 -0.9211 -0.8927
  5024G12c H01N93209   8.575  11.592  14.096 -4.0432 -2.1735  1.8107
  5024G12c H01R93210   8.593  11.706  14.225 -1.1859  1.4357 -0.7208
  5024G12c H01Q93211   8.632  11.772  14.085  2.9358 -4.4708 -2.8293
  5024G12c C02A93212   8.388  11.906  13.957 -0.2123  1.1330 -0.2192
  5024G12c H01193213   8.480  11.942  14.000 -1.0413  0.6129  2.0632
  5024G12c C00C93214   8.099  12.210  13.850  0.5847  1.6434  0.5651
  5024G12c H01293215   8.190  12.173  13.895 -1.6777  3.1785  6.9596
  5024G12c C00B93216   7.987  12.251  13.923 -0.5993 -1.1290 -0.8447
  5024G12c C00A93217   7.972  12.300  14.055 -1.0883 -1.4350 -1.4522
  5024G12c C00993218   7.986  12.228  14.176  1.8684 -0.2869 -1.0936
  5024G12c C00893219   8.009  12.091  14.196 -2.0509 -1.1700 -1.4952
  5024G12c H01393220   8.050  12.011  14.137  3.5607  0.7094 -0.4331
  5024G12c C00793221   7.960  12.037  14.309 -0.3445  0.2322 -2.0079
  5024G12c H01493222   8.018  11.954  14.346 -0.0364  3.3831  5.5153
  5024G12c C00693223   7.868  12.111  14.394 -1.8939 -0.8734  0.0892
  5024G12c C00593224   7.862  12.244  14.374  0.2730 -0.2794  1.3069
  5024G12c C00493225   7.760  12.313  14.446  2.2765  1.0171  0.4859
  5024G12c C00393226   7.709  12.428  14.395  0.3105  0.6061 -1.4264
  5024G12c C00293227   7.621  12.507  14.493  0.5831 -0.6537  0.4105
  5024G12c C00193228   7.524  12.626  14.460  0.3157  0.4509 -0.6309
  5024G12c C00M93229   7.462  12.652  14.335  0.3781 -0.7555  0.7990
  5024G12c C00L93230   7.527  12.606  14.215  0.0419  0.3364  0.6129
  5024G12c C00R93231   7.469  12.607  14.080  0.2034 -0.9428  1.0405
  5024G12c C00Q93232   7.342  12.615  14.041 -0.4341  0.1103  0.3084
  5024G12c C00V93233   7.320  12.543  13.925 -0.1096 -1.5531  0.9827
  5024G12c C00U93234   7.413  12.482  13.837 -1.6948 -0.7279  2.7530
  5024G12c C00T93235   7.545  12.484  13.875  0.0338  0.7113  0.1856
  5024G12c C01693236   7.649  12.400  13.819  1.8349  0.6215  0.3542
  5024G12c C01593237   7.617  12.316  13.715  0.1266 -0.0115 -0.5187
  5024G12c C01093238   7.471  12.304  13.682 -1.9132 -2.7106 -0.6034
  5024G12c C01193239   7.443  12.218  13.582  0.5412 -1.9363 -0.5861
  5024G12c H00593240   7.342  12.190  13.555 -0.3135 -0.4201  0.9427
  5024G12c C01293241   7.540  12.155  13.505  0.1855  0.8134 -1.0624
  5024G12c C01793242   7.510  12.094  13.372 -2.0374 -0.6127  0.3318
  5024G12c O00293243   7.431  11.994  13.382  0.8042 -1.1312 -0.1832
  5024G12c H00493244   7.424  11.940  13.305  2.3331 -1.7059  0.0677
  5024G12c C01893245   7.543  12.152  13.253  1.2869 -1.6186  0.8811
  5024G12c O00193246   7.597  12.276  13.255 -0.1252 -0.0787  1.5070
  5024G12c H00393247   7.643  12.278  13.338 -3.2986 -8.4096  4.0103
  5024G12c C01993248   7.525  12.088  13.110  1.2137 -1.6069 -0.1715
  5024G12c H00293249   7.456  12.149  13.052 -4.4339 -4.9552  2.5936
  5024G12c H00193250   7.629  12.091  13.077  1.2037 -3.5148 -0.4137
  5024G12c O00093251   7.467  11.961  13.120  0.5335  0.5757  1.3814
  5024G12c C01A93252   7.512  11.869  13.038 -0.4710  0.2919 -0.5910
  5024G12c C02K93253   7.655  11.821  13.010 -0.2730  0.0225 -0.7638
  5024G12c O00G93254   7.761  11.870  13.083  0.6332 -0.2736 -0.4350
  5024G12c C02M93255   7.845  11.761  13.142 -1.4954  0.3948  1.0430
  5024G12c H01G93256   7.806  11.703  13.225  1.3472 -2.7643  0.2509
  5024G12c H01F93257   7.908  11.831  13.198  3.0239 -0.9334 -2.1305
  5024G12c H01E93258   7.914  11.699  13.086 -0.5425 -0.6389  3.2720
  5024G12c C02J93259   7.695  11.741  12.909  0.6607 -1.9926 -0.7364
  5024G12c H01H93260   7.793  11.705  12.879  2.0478  5.1939 -6.2007
  5024G12c C02I93261   7.602  11.686  12.826  1.7041 -1.0755 -2.2876
  5024G12c C02N93262   7.607  11.567  12.745  0.0228 -0.2382 -0.1906
  5024G12c H01M93263   7.538  11.486  12.725  1.1972 -2.8145  5.0644
  5024G12c C02O93264   7.692  11.565  12.634  1.2426  0.9142  0.8197
  5024G12c H01L93265   7.778  11.631  12.637 -0.1636  2.8880 -0.3919
  5024G12c C02P93266   7.684  11.483  12.522  0.0795  1.3772 -0.6285
  5024G12c H01K93267   7.590  11.428  12.514  1.6825 -0.9254 -7.7476
  5024G12c H01J93268   7.730  11.527  12.433  1.3033 -0.4631 -0.9383
  5024G12c O00H93269   7.769  11.382  12.575 -0.1820 -0.1322 -0.3032
  5024G12c H01I93270   7.861  11.394  12.557 -0.3936  0.0390 -1.2714
  5024G12c C02H93271   7.468  11.711  12.869 -0.7375 -0.7079  1.6581
  5024G12c H01C93272   7.393  11.660  12.811 -1.6028  3.2683 -0.8990
  5024G12c C02L93273   7.430  11.809  12.948 -0.2441 -0.4318  0.8069
  5024G12c H01D93274   7.327  11.840  12.960 -1.3754 -1.1724 -5.4553
  5024G12c C01393275   7.672  12.171  13.541  1.6078  0.4356  0.9019
  5024G12c H00093276   7.751  12.117  13.491 -1.4921 -0.7971 -2.9060
  5024G12c C01493277   7.711  12.242  13.656 -0.7279 -2.8844 -1.0783
  5024G12c C00F93278   7.852  12.262  13.713  0.4998 -1.1688  0.7121
  5024G12c C00H93279   7.768  12.390  13.887 -0.4986 -1.4440 -0.5546
  5024G12c C00I93280   7.789  12.450  14.014  0.2320 -2.4265  1.5280
  5024G12c C00J93281   7.679  12.531  14.063  0.7179  0.2929 -0.3428
  5024G12c C00Z93282   7.371  12.397  13.727  1.5340 -0.3344 -0.4587
  5024G12c C00Y93283   7.236  12.395  13.692 -0.2625  0.5955 -2.2380
  5024G12c H00693284   7.195  12.309  13.640 -3.6569 -2.8337  5.2728
  5024G12c C00X93285   7.144  12.494  13.741  1.4173  0.9494 -0.2678
  5024G12c O00393286   7.001  12.522  13.714 -0.3988 -1.1464 -0.8970
  5024G12c C01B93287   6.954  12.469  13.581 -0.8444 -0.5658 -0.1093
  5024G12c H00993288   7.018  12.494  13.496 -1.2126  2.6142  0.4819
  5024G12c H00893289   6.857  12.507  13.550 -3.5625 -4.8934  2.5929
  5024G12c H00793290   6.935  12.362  13.593 -4.0468  0.0682  0.8434
  5024G12c C00W93291   7.197  12.563  13.848  0.5823  0.7099  0.1150
  5024G12c O00493292   7.098  12.639  13.912  0.4396  0.6172 -0.2759
  5024G12c C01C93293   7.091  12.606  14.044  0.1469 -0.6353 -0.0474
  5024G12c H00A93294   7.007  12.563  14.096 -1.9567 -0.3473 -3.0960
  5024G12c C00P93295   7.222  12.630  14.110 -0.5693  3.8604  0.5748
  5024G12c C00O93296   7.203  12.640  14.261 -0.0426  1.1642  0.0852
  5024G12c C01D93297   7.090  12.636  14.341 -0.4668  0.6814  0.6590
  5024G12c H00S93298   7.007  12.649  14.274  1.3141  1.2054 -1.5003
  5024G12c C01E93299   7.079  12.595  14.481 -2.2973 -1.9058  0.4373
  5024G12c O00893300   6.965  12.540  14.528  0.4773  0.5648 -1.0926
  5024G12c C01V93301   6.843  12.564  14.476 -0.8197  1.5087 -0.6061
  5024G12c C01Z93302   6.795  12.429  14.407 -0.2545  0.0729  0.6685
  5024G12c H00R93303   6.879  12.377  14.362 -1.5250  1.6488 -3.8546
  5024G12c H00Q93304   6.738  12.366  14.474  1.3104  0.6536  2.5973
  5024G12c O00993305   6.735  12.455  14.268 -1.0931  1.5463  0.4751
  5024G12c H00P93306   6.759  12.387  14.207 -3.1645 -0.6313  1.9999
  5024G12c C01W93307   6.770  12.691  14.481  1.7075  1.2735  0.6819
  5024G12c H00O93308   6.802  12.787  14.517 -0.5186  1.8131  1.2497
  5024G12c C01X93309   6.654  12.717  14.399  0.6087 -0.2148 -1.4648
  5024G12c H00N93310   6.630  12.817  14.362 -3.1576 -2.1574 -4.6641
  5024G12c H00M93311   6.645  12.658  14.308 -1.0965  0.7811 -1.9602
  5024G12c C01Y93312   6.541  12.685  14.507  0.7374 -1.5210  0.4135
  5024G12c C02D93313   6.422  12.758  14.496  0.8019  0.0452 -0.6669
  5024G12c H01993314   6.413  12.851  14.441 -0.0202  0.7248  0.6039
  5024G12c C02C93315   6.302  12.699  14.559  1.0708 -1.1815  1.5469
  5024G12c H01A93316   6.206  12.750  14.561  1.4481 -0.4824  3.3923
  5024G12c C02B93317   6.316  12.582  14.618  0.9245 -0.6132  0.0726
  5024G12c O00E93318   6.183  12.549  14.657 -0.6720  0.8798  0.6718
  5024G12c H01B93319   6.186  12.502  14.740  2.7173  1.8472  1.1738
  5024G12c C02F93320   6.428  12.515  14.631  0.0926  1.3799 -2.5712
  5024G12c O00F93321   6.410  12.398  14.721 -0.6582  1.6357  0.1639
  5024G12c C02G93322   6.529  12.315  14.737 -2.2907  1.3231  1.1497
  5024G12c H01793323   6.514  12.225  14.798  0.0320 -1.1358 -1.7796
  5024G12c H01693324   6.604  12.392  14.752  2.4445 -2.3833 -1.9419
  5024G12c H01593325   6.532  12.277  14.635  0.8571  3.7894  0.2566
  5024G12c C02E93326   6.548  12.558  14.565  0.0879  1.0399  0.7592
  5024G12c H01893327   6.633  12.492  14.575  0.3333  0.6908 -3.1173
  5024G12c C01F93328   7.198  12.568  14.532 -0.6784 -0.3350  1.4353
  5024G12c C01G93329   7.225  12.460  14.604  2.0540 -0.6715 -0.1933
  5024G12c H00L93330   7.139  12.407  14.641  0.0458  0.3929 -3.1628
  5024G12c C01H93331   7.334  12.438  14.684 -0.4934  1.0019 -0.4892
  5024G12c H00B93332   7.316  12.337  14.718 -5.0924  0.7993 -3.0929
  5024G12c C01I93333   7.456  12.501  14.643 -1.0609 -0.4685 -1.3844
  5024G12c C01U93334   7.314  12.626  14.498  0.5128  0.1469  2.2849
  5024G12c C00S93335   7.566  12.540  13.995 -1.1145 -0.5625  1.2853
  5024G12c C00K93336   7.650  12.545  14.198  1.2045  0.7442  1.4387
  5024G12c C00N93337   7.321  12.667  14.357  1.2817  0.0619 -0.2036
  5024G12c C00093338   7.444  12.623  14.563  0.9936  2.3577 -0.8863
  5024G12c C01J93339   7.580  12.443  14.612 -1.2041  3.0264 -0.4619
  5024G12c C01K93340   7.631  12.308  14.665  0.3058 -0.2274  0.3859
  5024G12c C01P93341   7.587  12.239  14.778 -0.6750  0.5579 -1.0723
  5024G12c C01Q93342   7.527  12.321  14.896 -1.0763 -1.8350  0.6580
  5024G12c H00G93343   7.506  12.427  14.888  5.4218  0.1546  5.2314
  5024G12c C01R93344   7.470  12.256  15.004 -1.2635  0.3633  0.6576
  5024G12c H00F93345   7.494  12.150  15.013  5.4053  1.0501 -4.7063
  5024G12c C01S93346   7.375  12.318  15.098 -1.1036 -0.6880  2.0590
  5024G12c H00E93347   7.295  12.248  15.122 -4.2932  2.3805  0.7906
  5024G12c H00D93348   7.343  12.409  15.048  4.6676  0.9274  0.9130
  5024G12c O00593349   7.444  12.345  15.216  1.6928  0.9297  1.1151
  5024G12c H00C93350   7.522  12.292  15.212 -1.9989 -4.6473 -4.4451
  5024G12c C01O93351   7.611  12.096  14.797  0.5530 -2.3974  1.9465
  5024G12c H00H93352   7.574  12.027  14.871  1.9228 -1.8458  3.1594
  5024G12c C01N93353   7.669  12.028  14.687  1.0547 -0.2182 -0.2472
  5024G12c O00693354   7.675  11.899  14.698  1.2124  0.9701  0.1961
  5024G12c C01T93355   7.793  11.851  14.735 -0.6621 -0.1030  0.0824
  5024G12c H00K93356   7.798  11.884  14.839 -0.6375 -8.0070  2.9353
  5024G12c H00J93357   7.793  11.743  14.749 -1.0416  0.2721  3.4541
  5024G12c H00I93358   7.885  11.876  14.682  1.5314 -1.8920  2.9219
  5024G12c C01M93359   7.730  12.107  14.600  0.1710 -0.0104 -2.0643
  5024G12c C02093360   7.749  12.462  14.270 -0.1758  0.3391  1.1272
  5024G12c C02193361   7.876  12.433  14.228  1.0393  1.0148  1.4188
  5024G12c C01L93362   7.708  12.249  14.567  1.2126 -1.1981 -1.1970
  5024G12c O00793363   7.802  12.053  14.496 -0.1795  0.6275  1.0468
  5024G12c C02293364   7.927  12.316  14.274 -1.6737  0.1814 -1.0542
  5024G12c C02393365   7.895  12.404  14.092 -0.2436 -0.4466 -0.0041
  5024G12c C00G93366   7.869  12.287  13.843  1.5602 -0.3853  0.8339
  5024G12c C00E93367   7.962  12.201  13.638 -0.8653 -1.1752 -2.1779
  5024G12c O00A93368   7.954  12.188  13.499  1.2532  0.5228  0.5148
  5024G12c C02493369   7.946  12.304  13.408  0.0337  0.7656  1.8697
  5024G12c H00V93370   8.035  12.360  13.439 -1.9279  6.0193 -1.2458
  5024G12c H00U93371   7.878  12.374  13.457 -4.0959  2.1690 -5.2158
  5024G12c H00T93372   7.919  12.291  13.303 -2.1268 -3.0576  2.8289
  5034G12c C00D93373   7.757  10.413   2.152  0.5746 -0.7263 -1.8282
  5034G12c O00B93374   7.855  10.466   2.230 -1.9146  0.3565 -1.0200
  5034G12c C02593375   7.842  10.510   2.365  0.0823  1.2527  2.6074
  5034G12c C02693376   7.981  10.467   2.427 -0.5662 -0.2260 -0.1990
  5034G12c H00Y93377   8.048  10.536   2.375  0.1186  2.4396  3.9836
  5034G12c H00X93378   8.027  10.373   2.457  0.3069  0.0024 -0.7816
  5034G12c O00C93379   8.008  10.540   2.541 -0.2134  1.2177 -0.6167
  5034G12c H00W93380   7.930  10.579   2.577 -1.0937  0.1366 -1.3434
  5034G12c C02793381   7.728  10.537   2.423  0.4249  0.2592 -1.1495
  5034G12c O00D93382   7.606  10.566   2.362 -0.1268  0.8030 -0.8857
  5034G12c H00Z93383   7.520  10.543   2.393  0.0320  4.2042  2.5370
  5034G12c C02893384   7.723  10.526   2.565  1.1484  0.4573  0.2109
  5034G12c C02993385   7.682  10.627   2.641 -0.1327 -0.3559 -0.2214
  5034G12c H01093386   7.631  10.718   2.611 -0.4525 -0.0038  1.3271
  5034G12c C02T93387   7.670  10.634   2.781  1.3391 -0.1476 -1.4905
  5034G12c H01O93388   7.620  10.708   2.842 -5.9340 -7.2640  2.2259
  5034G12c C02S93389   7.710  10.509   2.848  1.1448  0.8583 -0.8761
  5034G12c O00J93390   7.683  10.499   2.984  0.5637 -1.2226  1.5338
  5034G12c H01P93391   7.700  10.409   3.007  3.1059 -0.2965  3.6678
  5034G12c C02R93392   7.745  10.395   2.781 -0.8279 -0.5549  0.0633
  5034G12c O00I93393   7.777  10.281   2.851  0.4462 -0.0954 -0.4849
  5034G12c C02Q93394   7.785  10.141   2.806  0.0587  1.4222  0.0851
  5034G12c H01N93395   7.778  10.081   2.897  6.7424 -3.8429 -2.4515
  5034G12c H01R93396   7.863  10.115   2.735  1.9391  0.1680  2.5486
  5034G12c H01Q93397   7.682  10.137   2.770 -1.4047  3.5010  3.7292
  5034G12c C02A93398   7.745  10.411   2.641  1.0793 -0.2875  1.4570
  5034G12c H01193399   7.754  10.324   2.578 -2.9905 -0.1913  0.6076
  5034G12c C00C93400   7.663  10.313   2.195 -0.1483 -0.4006  0.2430
  5034G12c H01293401   7.639  10.336   2.298 -1.7571 -0.3658 -0.1222
  5034G12c C00B93402   7.601  10.205   2.127  0.4107  0.5847  0.1011
  5034G12c C00A93403   7.507  10.108   2.186 -1.1645  1.1157  1.3226
  5034G12c C00993404   7.580  10.029   2.281  0.7467 -0.1824 -0.9620
  5034G12c C00893405   7.703  10.057   2.368 -0.9831 -0.7161  1.2777
  5034G12c H01393406   7.738  10.159   2.381  2.2336 -0.4098 -7.1146
  5034G12c C00793407   7.788   9.951   2.395  0.5541 -0.7608 -0.7813
  5034G12c H01493408   7.870   9.991   2.452  1.7419 -4.0987 -0.0404
  5034G12c C00693409   7.752   9.815   2.367 -0.5667 -0.1159 -0.8932
  5034G12c C00593410   7.636   9.794   2.285 -0.1933  0.1052 -0.1939
  5034G12c C00493411   7.612   9.672   2.221  1.4305  1.3696  0.1616
  5034G12c C00393412   7.529   9.663   2.104 -0.7370  0.1480  0.4041
  5034G12c C00293413   7.532   9.533   2.030 -0.7450 -0.0212  0.7836
  5034G12c C00193414   7.484   9.504   1.900 -0.0386 -0.9086 -1.0117
  5034G12c C00M93415   7.515   9.592   1.808  0.3287  0.3445 -0.5277
  5034G12c C00L93416   7.450   9.715   1.798 -0.0047  1.7703 -1.8202
  5034G12c C00R93417   7.488   9.800   1.693  1.3237 -0.1701 -1.6425
  5034G12c C00Q93418   7.540   9.780   1.560  1.5969  1.1955 -0.6517
  5034G12c C00V93419   7.558   9.899   1.499  0.8118 -0.5084 -1.1513
  5034G12c C00U93420   7.552  10.026   1.559  0.4715 -1.2564 -0.1761
  5034G12c C00T93421   7.517  10.034   1.704 -0.2116  0.3785 -0.0466
  5034G12c C01693422   7.542  10.149   1.788 -0.0935 -1.1524  1.6451
  5034G12c C01593423   7.614  10.240   1.723 -1.7514 -0.3859  1.7866
  5034G12c C01093424   7.616  10.256   1.582 -0.3059 -1.1025  0.4989
  5034G12c C01193425   7.657  10.387   1.513  1.1686 -0.7944  0.2833
  5034G12c H00593426   7.663  10.401   1.406 -3.6308  4.1100  0.4370
  5034G12c C01293427   7.686  10.491   1.597  0.5300  0.4210 -2.1143
  5034G12c C01793428   7.753  10.602   1.540 -0.1162 -1.2200 -0.1923
  5034G12c O00293429   7.847  10.579   1.440 -2.1648 -1.0773 -0.9514
  5034G12c H00493430   7.927  10.628   1.455 -1.1237 -0.3517 -7.2518
  5034G12c C01893431   7.763  10.722   1.601  1.2004 -0.2041  0.3839
  5034G12c O00193432   7.677  10.763   1.701 -0.3507  0.8354 -0.0376
  5034G12c H00393433   7.595  10.723   1.676  0.5724 -1.5437  0.5974
  5034G12c C01993434   7.856  10.835   1.539  1.6632  0.2742 -0.0242
  5034G12c H00293435   7.792  10.901   1.479 -2.9562 -1.7747  2.3387
  5034G12c H00193436   7.861  10.913   1.615  3.9835  0.0017  0.1224
  5034G12c O00093437   7.988  10.784   1.520  0.7493 -1.6715  0.2170
  5034G12c C01A93438   8.083  10.883   1.495  0.4141 -0.4987  0.6665
  5034G12c C02K93439   8.099  10.997   1.559 -0.6637 -0.0883 -0.0788
  5034G12c O00G93440   8.006  11.068   1.625 -0.2795 -0.1508  1.6130
  5034G12c C02M93441   7.952  11.173   1.549  0.6608 -0.4313 -0.0569
  5034G12c H01G93442   8.008  11.265   1.562  7.6673 -3.5504 -5.1029
  5034G12c H01F93443   7.868  11.160   1.617  0.1146  2.0088 -0.2157
  5034G12c H01E93444   7.928  11.150   1.445  3.0858 -9.6098  0.9471
  5034G12c C02J93445   8.202  11.079   1.518  0.0610 -0.4432 -0.3085
  5034G12c H01H93446   8.226  11.183   1.539 -3.6439  0.7291 -1.3257
  5034G12c C02I93447   8.304  11.044   1.429 -0.5741 -0.1390  1.6670
  5034G12c C02N93448   8.440  11.112   1.413 -2.5632  0.1731 -3.3524
  5034G12c H01M93449   8.527  11.047   1.411 -1.1495  1.2753  4.4744
  5034G12c C02O93450   8.451  11.247   1.445 -0.0518 -0.5334  0.0923
  5034G12c H01L93451   8.386  11.304   1.510  2.3775  0.9908  1.2596
  5034G12c C02P93452   8.586  11.316   1.450 -0.0275  1.2531  0.0196
  5034G12c H01K93453   8.648  11.292   1.537  5.9223  2.4809 -3.5913
  5034G12c H01J93454   8.648  11.272   1.372  0.2772  0.8097  0.5085
  5034G12c O00H93455   8.570  11.456   1.453 -0.6206 -0.1890  1.5036
  5034G12c H01I93456   8.658  11.487   1.470  0.8392 -3.5527  0.6461
  5034G12c C02H93457   8.291  10.911   1.375 -0.5122 -1.3969 -0.1871
  5034G12c H01C93458   8.376  10.872   1.320  0.8559  2.7104 -1.1251
  5034G12c C02L93459   8.171  10.841   1.403 -0.6084  0.3145 -1.5029
  5034G12c H01D93460   8.141  10.750   1.353  2.7574 -2.0797  0.6728
  5034G12c C01393461   7.688  10.467   1.740 -0.9665  1.0196 -0.1163
  5034G12c H00093462   7.694  10.536   1.823 -3.6016  2.2377 -0.8689
  5034G12c C01493463   7.660  10.346   1.803  1.0239  0.3682  1.1837
  5034G12c C00F93464   7.674  10.310   1.938  0.9289 -0.3216  0.7633
  5034G12c C00H93465   7.518  10.129   1.923  0.1054 -1.5256 -0.7198
  5034G12c C00I93466   7.437  10.030   1.972 -0.2699 -1.9854 -0.5730
  5034G12c C00J93467   7.409   9.934   1.878  0.8921 -0.2831 -1.8439
  5034G12c C00Z93468   7.587  10.146   1.498  0.9331 -2.3300  0.7974
  5034G12c C00Y93469   7.609  10.135   1.358  0.4214  0.0423  0.3944
  5034G12c H00693470   7.667  10.215   1.314 -1.9209  1.0091 -1.0117
  5034G12c C00X93471   7.597  10.019   1.270 -0.9076 -0.2141 -0.0176
  5034G12c O00393472   7.635  10.003   1.146 -1.1281 -0.2179 -0.9382
  5034G12c C01B93473   7.714  10.106   1.082 -0.6820 -0.9252 -0.5307
  5034G12c H00993474   7.662  10.202   1.077  0.7337  0.7691  8.3161
  5034G12c H00893475   7.777  10.086   0.995 -3.0199 -2.9010 -1.8306
  5034G12c H00793476   7.790  10.129   1.157 -0.2802  3.0570 -2.0057
  5034G12c C00W93477   7.582   9.904   1.356  0.6968 -0.5631 -1.0323
  5034G12c O00493478   7.556   9.783   1.288 -0.3684 -1.7650 -0.3311
  5034G12c C01C93479   7.597   9.673   1.349 -0.4762  0.1286 -0.0998
  5034G12c H00A93480   7.597   9.593   1.276 -1.1322  3.6536 -4.1047
  5034G12c C00P93481   7.600   9.662   1.496 -0.3208  1.3453 -0.6053
  5034G12c C00O93482   7.633   9.546   1.570  1.1251  2.1396  0.2887
  5034G12c C01D93483   7.722   9.452   1.510  0.6334 -1.0499 -0.8288
  5034G12c H00S93484   7.755   9.459   1.408  3.2601 -2.6740 -0.1591
  5034G12c C01E93485   7.813   9.373   1.591 -0.2978 -0.5022  0.4709
  5034G12c O00893486   7.916   9.294   1.552 -0.0666  1.2975  0.7402
  5034G12c C01V93487   7.999   9.344   1.460 -0.1832 -0.2969  3.0485
  5034G12c C01Z93488   7.982   9.296   1.311  2.4607  1.0059 -1.7130
  5034G12c H00R93489   7.895   9.231   1.296 -0.9894  5.4257 -1.9778
  5034G12c H00Q93490   7.932   9.349   1.230  4.6220 -2.3555 -5.3922
  5034G12c O00993491   8.080   9.206   1.296  0.1138  0.1348 -0.7649
  5034G12c H00P93492   8.084   9.163   1.380  3.0323 -0.1229 -1.0150
  5034G12c C01W93493   8.089   9.433   1.494  0.0822  0.9066 -0.4452
  5034G12c H00O93494   8.158   9.478   1.424  1.4932 -0.2091  0.1976
  5034G12c C01X93495   8.083   9.500   1.659  0.1444  0.3488  0.2199
  5034G12c H00N93496   8.172   9.564   1.661  1.6978 -1.4492 -4.7255
  5034G12c H00M93497   8.025   9.592   1.664  0.9237  0.8159  0.8435
  5034G12c C01Y93498   8.116   9.441   1.794  2.5729  0.3420  1.5497
  5034G12c C02D93499   8.072   9.510   1.910  1.3271 -0.5487 -0.8885
  5034G12c H01993500   8.006   9.595   1.901  8.8503  7.8345  9.4080
  5034G12c C02C93501   8.105   9.464   2.031 -0.3046  0.1088  0.0183
  5034G12c H01A93502   8.052   9.530   2.099 -4.4703 -1.9711 -1.0510
  5034G12c C02B93503   8.202   9.369   2.051 -0.4949  0.4567 -0.3939
  5034G12c O00E93504   8.272   9.353   2.180  0.5795 -0.5361 -1.4160
  5034G12c H01B93505   8.324   9.277   2.160 -1.6694 -3.2678  2.3853
  5034G12c C02F93506   8.230   9.284   1.930 -0.3815 -1.1145  0.2822
  5034G12c O00F93507   8.300   9.170   1.952 -0.0723 -0.3093  0.0701
  5034G12c C02G93508   8.423   9.162   1.872 -0.0016  1.9866 -0.5195
  5034G12c H01793509   8.418   9.205   1.772  4.7940  5.1506  0.4571
  5034G12c H01693510   8.504   9.218   1.919  2.4787  0.2797 -2.5551
  5034G12c H01593511   8.450   9.060   1.847 -0.6715  0.0650  5.7689
  5034G12c C02E93512   8.190   9.313   1.802  0.2384 -1.1843 -1.0409
  5034G12c H01893513   8.218   9.243   1.725 -6.7703 -0.4167 -4.7499
  5034G12c C01F93514   7.751   9.347   1.718 -0.3446 -1.3786  1.2213
  5034G12c C01G93515   7.831   9.281   1.813 -0.6786  0.0362 -0.1306
  5034G12c H00L93516   7.931   9.240   1.814 -2.0395 -3.4542  1.6782
  5034G12c C01H93517   7.770   9.271   1.940 -0.2307 -0.1452  1.5708
  5034G12c H00B93518   7.822   9.238   2.029 -0.0357  6.9979  4.4584
  5034G12c C01I93519   7.644   9.330   1.964 -0.8184  0.5711 -0.6096
  5034G12c C01U93520   7.615   9.396   1.760 -0.9420  0.9916 -0.2248
  5034G12c C00S93521   7.447   9.929   1.751 -0.0460  0.3869  0.6295
  5034G12c C00K93522   7.419   9.800   1.914 -1.1414  3.3606 -0.6901
  5034G12c C00N93523   7.580   9.513   1.699 -0.3416 -0.8727 -1.8937
  5034G12c C00093524   7.552   9.377   1.880  0.9701  0.7547  0.6865
  5034G12c C01J93525   7.634   9.432   2.061  0.0365 -0.6257  0.1651
  5034G12c C01K93526   7.710   9.441   2.186 -0.8950 -0.5367 -1.1545
  5034G12c C01P93527   7.789   9.340   2.263 -0.3808  0.2555  1.5432
  5034G12c C01Q93528   7.755   9.207   2.257 -2.2103  0.9724  1.4972
  5034G12c H00G93529   7.660   9.186   2.211  0.1685 -2.4203 -2.2256
  5034G12c C01R93530   7.849   9.112   2.270  0.0799  1.0668 -0.3195
  5034G12c H00F93531   7.824   9.010   2.247  1.9031 -0.3168  3.5060
  5034G12c C01S93532   7.998   9.106   2.288  2.6886 -0.8443  1.6610
  5034G12c H00E93533   8.022   9.212   2.302 -0.0103  0.2992 -1.5119
  5034G12c H00D93534   8.033   9.049   2.374  2.8065 -0.9768  1.5235
  5034G12c O00593535   8.058   9.069   2.165  0.5335  0.3389 -0.4499
  5034G12c H00C93536   8.055   9.125   2.088  1.5430  0.8030 -0.1607
  5034G12c C01O93537   7.886   9.371   2.360  2.1582 -0.6674 -0.3050
  5034G12c H00H93538   7.931   9.299   2.427  1.9317  0.7626  1.4118
  5034G12c C01N93539   7.912   9.512   2.385 -1.0981 -0.5237 -0.1037
  5034G12c O00693540   7.992   9.540   2.499  0.0458 -0.9638 -0.0038
  5034G12c C01T93541   8.053   9.436   2.574 -0.0685 -1.6270 -1.6092
  5034G12c H00K93542   8.127   9.439   2.655  2.0454  2.3622 -3.5612
  5034G12c H00J93543   8.081   9.345   2.521  0.4279 -1.2280 -2.0302
  5034G12c H00I93544   7.970   9.415   2.642 -2.3231  5.7355 -1.6730
  5034G12c C01M93545   7.813   9.602   2.339 -2.0895  0.6026  1.3751
  5034G12c C02093546   7.463   9.776   2.051  1.4442  1.1775 -0.6136
  5034G12c C02193547   7.456   9.883   2.144 -0.0859  1.5805 -0.2803
  5034G12c C01L93548   7.709   9.571   2.246  0.5551 -0.2920  0.9910
  5034G12c O00793549   7.852   9.730   2.386  1.4165 -0.2216 -1.5673
  5034G12c C02293550   7.545   9.896   2.263  1.3615  0.6799  1.0010
  5034G12c C02393551   7.445  10.015   2.102  1.9118 -1.1795 -1.1827
  5034G12c C00G93552   7.589  10.215   1.997  0.3062 -0.0006  1.7119
  5034G12c C00E93553   7.763  10.405   2.010  1.3725  0.2367  0.9380
  5034G12c O00A93554   7.875  10.454   1.959 -0.0200  1.3935 -1.3211
  5034G12c C02493555   7.959  10.343   1.905  0.0720 -2.0170  0.5228
  5034G12c H00V93556   8.004  10.289   1.988  4.3507  1.5544  0.7455
  5034G12c H00U93557   8.056  10.372   1.865  0.0061  6.2500  5.2748
  5034G12c H00T93558   7.912  10.292   1.821 -2.9483  0.7474  0.4137
  5044G12c C00D93559   8.040   0.472  11.274 -0.4777 -0.9384  0.2171
  5044G12c O00B93560   8.105   0.445  11.391  0.8765 -0.8234  0.6897
  5044G12c C02593561   8.042   0.467  11.508 -0.6353 -0.4957 -2.6418
  5044G12c C02693562   7.999   0.340  11.576 -1.0370 -0.2912 -0.5753
  5044G12c H00Y93563   7.918   0.297  11.517 -2.3392 -1.8452  2.2285
  5044G12c H00X93564   7.931   0.356  11.660  5.4645  0.3514  4.9277
  5044G12c O00C93565   8.101   0.237  11.568 -0.0637 -0.9809  0.6496
  5044G12c H00W93566   8.142   0.262  11.486  5.2221 -8.0934  0.5892
  5044G12c C02793567   7.996   0.594  11.527 -1.1181  0.4153  1.4279
  5044G12c O00D93568   8.051   0.705  11.464 -0.7358 -0.4169 -0.5779
  5044G12c H00Z93569   8.130   0.684  11.416 -0.1915  6.5049 -3.2427
  5044G12c C02893570   7.886   0.624  11.597  0.7827 -0.1438 -0.8997
  5044G12c C02993571   7.759   0.599  11.559  0.5960 -0.2041 -0.3168
  5044G12c H01093572   7.762   0.575  11.453 -2.6549 -2.5601  0.0367
  5044G12c C02T93573   7.657   0.602  11.667  1.2581 -0.7725  0.7710
  5044G12c H01O93574   7.554   0.575  11.651  1.1181  1.4219 -2.7949
  5044G12c C02S93575   7.685   0.656  11.794 -0.6295  1.2460 -0.0198
  5044G12c O00J93576   7.604   0.674  11.897  0.4800  0.5310  0.4395
  5044G12c H01P93577   7.565   0.747  11.852  1.6653 -0.0465 -1.6045
  5044G12c C02R93578   7.816   0.685  11.829 -0.4000  1.5226 -0.6986
  5044G12c O00I93579   7.858   0.726  11.948  0.6139  0.6145  0.7551
  5044G12c C02Q93580   7.887   0.620  12.043 -0.0857  1.1157 -0.4451
  5044G12c H01N93581   7.799   0.569  12.081 -1.3782  1.2321 -3.1743
  5044G12c H01R93582   7.947   0.644  12.130 -0.7131  1.9000 -0.2281
  5044G12c H01Q93583   7.954   0.551  11.991  2.5688 -1.6455  6.0971
  5044G12c C02A93584   7.917   0.661  11.733  0.4681  0.3337  0.4989
  5044G12c H01193585   8.021   0.669  11.763 -0.9891  2.8918  5.2765
  5044G12c C00C93586   7.897   0.456  11.268  0.6301 -0.0548  0.5898
  5044G12c H01293587   7.865   0.387  11.345 -3.1335 -2.9505 -3.3069
  5044G12c C00B93588   7.814   0.487  11.155 -0.6719 -0.5118  0.9708
  5044G12c C00A93589   7.660   0.498  11.158 -0.7097 -2.1302 -0.6514
  5044G12c C00993590   7.551   0.408  11.219 -1.1915  0.2603  0.6119
  5044G12c C00893591   7.533   0.305  11.325  0.0334 -1.6931 -1.1363
  5044G12c H01393592   7.614   0.291  11.394  0.8134  2.6434 -1.0181
  5044G12c C00793593   7.429   0.205  11.302  1.3730  0.4913 -1.6071
  5044G12c H01493594   7.433   0.122  11.371  0.4515  5.0741  4.3378
  5044G12c C00693595   7.317   0.231  11.220  1.2843  0.7622  0.6459
  5044G12c C00593596   7.329   0.353  11.141 -1.0704  0.0804 -0.8509
  5044G12c C00493597   7.240   0.363  11.022 -0.4413 -0.6978  1.3010
  5044G12c C00393598   7.266   0.470  10.924  0.7134 -0.1833  0.2062
  5044G12c C00293599   7.185   0.445  10.798 -1.1674 -0.7130 -0.7608
  5044G12c C00193600   7.203   0.493  10.664 -0.1180 -1.4951 -0.7486
  5044G12c C00M93601   7.324   0.515  10.597  1.0286  1.6612  2.7390
  5044G12c C00L93602   7.434   0.586  10.660  0.7644 -0.4065 -1.1044
  5044G12c C00R93603   7.554   0.604  10.589 -0.1705 -0.1828  0.5853
  5044G12c C00Q93604   7.594   0.593  10.448  1.6872 -0.2355 -0.1127
  5044G12c C00V93605   7.735   0.608  10.444 -0.0448  1.7976 -0.6793
  5044G12c C00U93606   7.827   0.598  10.565  0.0535 -0.7024 -0.5732
  5044G12c C00T93607   7.780   0.585  10.691  2.3105  2.0741 -2.0867
  5044G12c C01693608   7.856   0.573  10.809 -0.9681 -0.3612 -0.1480
  5044G12c C01593609   7.993   0.560  10.783 -0.4800 -0.5645  0.6296
  5044G12c C01093610   8.044   0.604  10.654 -1.1604  1.0551  0.4080
  5044G12c C01193611   8.174   0.646  10.657  1.0467 -0.4756  0.8937
  5044G12c H00593612   8.210   0.718  10.585 -6.5029  1.9142 -0.9887
  5044G12c C01293613   8.258   0.635  10.772 -1.4080  0.1975  0.7017
  5044G12c C01793614   8.379   0.719  10.773  1.2964  0.3162  0.8540
  5044G12c O00293615   8.370   0.848  10.750 -0.4997 -0.7140  0.2759
  5044G12c H00493616   8.451   0.889  10.776 -2.4571  3.7367 -0.1621
  5044G12c C01893617   8.501   0.674  10.826 -0.9918 -0.8253 -0.8587
  5044G12c O00193618   8.513   0.547  10.859 -0.7916 -1.2899  0.1607
  5044G12c H00393619   8.585   0.527  10.916 -0.4003  2.6614  1.1623
  5044G12c C01993620   8.639   0.731  10.824  0.6146 -0.5165 -0.0988
  5044G12c H00293621   8.713   0.652  10.814  0.5772 -1.0428  3.2578
  5044G12c H00193622   8.676   0.792  10.741  1.4118  0.5416  1.0032
  5044G12c O00093623   8.703   0.794  10.942 -0.3668  0.0953  0.6061
  5044G12c C01A93624   8.764   0.719  11.039 -0.3933  1.3036  2.0557
  5044G12c C02K93625   8.691   0.677  11.157 -1.2287  1.6695 -1.3743
  5044G12c O00G93626   8.564   0.728  11.194  1.0779 -0.2690 -1.3458
  5044G12c C02M93627   8.573   0.851  11.298  0.8631 -0.6336 -0.3631
  5044G12c H01G93628   8.652   0.900  11.241  3.5338 -3.7762  0.4706
  5044G12c H01F93629   8.619   0.846  11.397  5.4988 -8.0816 -2.4620
  5044G12c H01E93630   8.490   0.920  11.310  3.1033  1.2248  6.2946
  5044G12c C02J93631   8.774   0.606  11.260 -0.2780  0.6432 -0.3948
  5044G12c H01H93632   8.711   0.598  11.347  3.9237  2.1155  2.9264
  5044G12c C02I93633   8.910   0.574  11.236 -0.1953  0.4972 -0.1170
  5044G12c C02N93634   8.992   0.518  11.341 -1.2367  0.9179 -0.6820
  5044G12c H01M93635   9.052   0.561  11.420  0.1815  0.9030 -1.7274
  5044G12c C02O93636   9.016   0.385  11.332  0.2413 -1.6285  0.0766
  5044G12c H01L93637   8.950   0.332  11.265 -1.9851  0.6223  0.4052
  5044G12c C02P93638   9.104   0.301  11.428 -0.8785  0.2809 -0.0314
  5044G12c H01K93639   9.093   0.333  11.531 -5.3622  1.1143 -0.6531
  5044G12c H01J93640   9.063   0.200  11.420  1.6603 -0.4643 -8.7140
  5044G12c O00H93641   9.237   0.322  11.396  1.0773  1.0362  0.3334
  5044G12c H01I93642   9.295   0.249  11.412  7.0943  3.7489 -6.3741
  5044G12c C02H93643   8.976   0.594  11.108 -0.1295 -1.0132  1.7143
  5044G12c H01C93644   9.071   0.568  11.065  1.7151  1.7090  3.9639
  5044G12c C02L93645   8.898   0.663  11.010 -0.0139  0.3882  0.2806
  5044G12c H01D93646   8.948   0.711  10.927 -0.6068 -2.0330 -1.5200
  5044G12c C01393647   8.218   0.558  10.880  1.1741  2.2010  1.8139
  5044G12c H00093648   8.292   0.557  10.959  2.1985  1.3034  0.8450
  5044G12c C01493649   8.077   0.550  10.906 -0.1792 -1.4975 -1.1897
  5044G12c C00F93650   8.018   0.534  11.029  0.5512 -1.8397 -0.6748
  5044G12c C00H93651   7.794   0.572  10.931  1.7792  1.1725  0.0431
  5044G12c C00I93652   7.657   0.601  10.932 -0.0028  1.4720 -0.0913
  5044G12c C00J93653   7.589   0.621  10.818  0.9856 -0.1966 -0.3096
  5044G12c C00Z93654   7.961   0.619  10.553  0.2147  1.2226  0.2157
  5044G12c C00Y93655   8.011   0.639  10.425 -0.2996  0.1521  1.8642
  5044G12c H00693656   8.112   0.624  10.388 -2.3282 -0.6585 -3.8582
  5044G12c C00X93657   7.928   0.625  10.308 -0.7918 -0.7602 -0.1890
  5044G12c O00393658   7.970   0.655  10.180  1.5795 -1.5294 -0.6136
  5044G12c C01B93659   8.086   0.578  10.140  2.2537  0.2130  0.1694
  5044G12c H00993660   8.151   0.527  10.212  3.0483 -2.1181 -2.1174
  5044G12c H00893661   8.126   0.567  10.039  4.0046  2.6402  0.5326
  5044G12c H00793662   8.042   0.481  10.117 -1.8406  2.1692 -0.6340
  5044G12c C00W93663   7.800   0.612  10.322 -0.0018 -0.8493  0.8156
  5044G12c O00493664   7.718   0.612  10.207  1.6509  0.4286  1.5898
  5044G12c C01C93665   7.619   0.515  10.217  1.7076 -1.2355  0.9139
  5044G12c H00A93666   7.638   0.412  10.189  1.2391 -0.9228 -0.5480
  5044G12c C00P93667   7.527   0.537  10.341  1.3830  1.2849  0.3013
  5044G12c C00O93668   7.403   0.461  10.361 -0.0533 -0.6463  0.2116
  5044G12c C01D93669   7.369   0.374  10.259 -0.0746  2.4284 -0.0856
  5044G12c H00S93670   7.441   0.376  10.179 -1.5641 -6.6802 -2.1981
  5044G12c C01E93671   7.242   0.315  10.251 -1.8639  0.7609 -0.1718
  5044G12c O00893672   7.196   0.248  10.146 -1.5487 -0.0672  0.8709
  5044G12c C01V93673   7.094   0.329  10.075  1.0657  1.1836  1.7184
  5044G12c C01Z93674   6.941   0.352  10.131  0.0246  1.0739 -0.0641
  5044G12c H00R93675   6.949   0.407  10.225  3.2032  4.1844 -2.0098
  5044G12c H00Q93676   6.880   0.411  10.063 -2.8058  2.7890  3.8257
  5044G12c O00993677   6.897   0.222  10.152 -0.0318  1.2843  0.2311
  5044G12c H00P93678   6.914   0.226  10.245  8.6572  6.7804 -1.0618
  5044G12c C01W93679   7.130   0.382   9.959  0.2660  0.0806  0.0711
  5044G12c H00O93680   7.232   0.369   9.928  0.6862 -1.6585  2.0646
  5044G12c C01X93681   7.054   0.489   9.878 -0.4588  0.8910  0.5805
  5044G12c H00N93682   7.107   0.476   9.784  2.0704  4.1843  1.4282
  5044G12c H00M93683   6.957   0.444   9.860 -0.1657 -0.3997  2.0332
  5044G12c C01Y93684   7.105   0.616   9.931  0.5442 -0.6448  2.3825
  5044G12c C02D93685   7.031   0.738   9.913 -1.2369 -1.6299 -0.1823
  5044G12c H01993686   6.938   0.760   9.863 -2.8404  4.2187  4.8589
  5044G12c C02C93687   7.097   0.861   9.935 -0.5257 -0.3036 -1.7347
  5044G12c H01A93688   7.018   0.933   9.917  1.1166  1.2485 -2.8095
  5044G12c C02B93689   7.200   0.868  10.008  0.5042  0.9279 -0.0844
  5044G12c O00E93690   7.283   0.972  10.030  0.0460  0.0506  0.0531
  5044G12c H01B93691   7.367   0.942  10.061  1.1680 -1.6825 -4.2824
  5044G12c C02F93692   7.266   0.752  10.052 -0.4977 -0.2694  0.9903
  5044G12c O00F93693   7.394   0.747  10.119  0.2573  0.9462  0.8842
  5044G12c C02G93694   7.426   0.815  10.236  0.2462  0.1594  0.6498
  5044G12c H01793695   7.528   0.787  10.262 -0.1008 -3.0460 -1.2815
  5044G12c H01693696   7.368   0.779  10.322  1.9910 -3.6872  0.3155
  5044G12c H01593697   7.412   0.911  10.188 -1.2818 -1.5959 -2.5508
  5044G12c C02E93698   7.224   0.625  10.012 -1.0171  0.7763 -0.5069
  5044G12c H01893699   7.269   0.537  10.056 -0.4327 -0.9927 -4.4454
  5044G12c C01F93700   7.173   0.299  10.370  0.9819 -0.2672  0.4558
  5044G12c C01G93701   7.114   0.173  10.418  0.0341 -1.0385 -1.7495
  5044G12c H00L93702   7.090   0.084  10.362 -0.8913 -0.8148 -1.7114
  5044G12c C01H93703   7.069   0.182  10.555  0.3410  0.1305 -0.5399
  5044G12c H00B93704   7.054   0.080  10.586  6.3050  0.7219  5.5562
  5044G12c C01I93705   7.080   0.302  10.650  0.5683  0.5931  2.2033
  5044G12c C01U93706   7.174   0.410  10.456 -1.9190  2.1019  0.6411
  5044G12c C00S93707   7.652   0.629  10.691  1.4777 -0.6689 -1.3433
  5044G12c C00K93708   7.454   0.594  10.814  2.2693 -0.1615  1.2987
  5044G12c C00N93709   7.308   0.469  10.461 -0.1799 -0.3267 -0.4897
  5044G12c C00093710   7.112   0.426  10.581  1.9991 -1.0687  0.0308
  5044G12c C01J93711   7.115   0.321  10.789  0.9242 -0.4600  0.1497
  5044G12c C01K93712   7.048   0.248  10.894 -0.5766 -0.3949  0.0528
  5044G12c C01P93713   6.927   0.176  10.911 -0.9271  0.3295  0.0136
  5044G12c C01Q93714   6.810   0.188  10.845  0.1744  1.2554  2.7412
  5044G12c H00G93715   6.782   0.272  10.783  3.1293  2.3587  2.8312
  5044G12c C01R93716   6.712   0.095  10.848  0.2770  0.9286 -0.8219
  5044G12c H00F93717   6.705  -0.003  10.893 -3.4268  3.3047  4.2078
  5044G12c C01S93718   6.632   0.080  10.714  1.2841  0.4277  0.5555
  5044G12c H00E93719   6.591  -0.020  10.734 -3.0045  2.5242  3.0625
  5044G12c H00D93720   6.565   0.165  10.706 -4.6147 -4.0422 -2.0722
  5044G12c O00593721   6.703   0.070  10.592  1.7133  0.3031  0.1680
  5044G12c H00C93722   6.640   0.091  10.524  0.2601 -1.7339  0.8406
  5044G12c C01O93723   6.933   0.089  11.017  0.7267 -1.1133 -0.8165
  5044G12c H00H93724   6.885  -0.007  11.006  1.9349 -1.6581 -1.4718
  5044G12c C01N93725   7.027   0.074  11.102 -0.2759  1.7504 -0.0173
  5044G12c O00693726   7.031  -0.041  11.184 -1.3478 -0.2207 -1.0121
  5044G12c C01T93727   6.974  -0.027  11.316  0.8862  1.0485  0.8836
  5044G12c H00K93728   6.889  -0.085  11.354  1.1123 -0.1222 -0.3631
  5044G12c H00J93729   7.022  -0.086  11.394 -1.7314  0.7295  2.3254
  5044G12c H00I93730   6.964   0.066  11.371 -1.2746 -0.9661  4.1058
  5044G12c C01M93731   7.140   0.158  11.112  0.4398  0.3760 -1.0244
  5044G12c C02093732   7.376   0.559  10.935 -0.6323  0.2210  0.4618
  5044G12c C02193733   7.463   0.542  11.048  0.2441 -0.2156  0.7614
  5044G12c C01L93734   7.142   0.258  10.999  1.0138 -0.7007  0.8236
  5044G12c O00793735   7.194   0.181  11.233 -0.0782 -1.0829  0.7573
  5044G12c C02293736   7.447   0.426  11.126 -0.1108 -0.1897  0.0075
  5044G12c C02393737   7.595   0.574  11.056 -1.2929 -0.5948 -0.9425
  5044G12c C00G93738   7.873   0.547  11.036  0.8115 -0.1648 -1.5553
  5044G12c C00E93739   8.101   0.499  11.146 -1.3007  0.2117 -1.0984
  5044G12c O00A93740   8.236   0.488  11.147 -0.5347  1.7976 -0.0896
  5044G12c C02493741   8.276   0.348  11.134 -1.7145 -0.0729 -0.3190
  5044G12c H00V93742   8.199   0.275  11.109 -0.3155 -2.5411  2.2874
  5044G12c H00U93743   8.312   0.297  11.223 -2.3695 -3.2948 -1.8126
  5044G12c H00T93744   8.372   0.353  11.081 -0.2367 -4.9682  1.6034
  5054G12c C00D93745   4.043   8.510   8.958 -0.5074 -2.0927 -0.7502
  5054G12c O00B93746   4.051   8.376   8.941  0.8478 -1.1991  0.2228
  5054G12c C02593747   3.957   8.326   8.848 -0.6153 -0.6479  0.2555
  5054G12c C02693748   3.977   8.354   8.700 -0.2678 -0.1125  0.4737
  5054G12c H00Y93749   3.999   8.460   8.713 -1.0674  1.1011 -6.3354
  5054G12c H00X93750   3.880   8.389   8.666 -1.5818  1.4435  5.3986
  5054G12c O00C93751   4.057   8.258   8.633  0.1834  0.6668  1.2345
  5054G12c H00W93752   4.114   8.283   8.562  0.4554 -4.4767 -0.5567
  5054G12c C02793753   3.858   8.254   8.899  1.4937  1.5781 -1.2437
  5054G12c O00D93754   3.854   8.235   9.030  1.4792  0.7710 -1.4676
  5054G12c H00Z93755   3.760   8.230   9.039  1.6522  3.4718  5.5563
  5054G12c C02893756   3.763   8.180   8.807 -0.4382  0.7063 -0.4570
  5054G12c C02993757   3.681   8.246   8.704  1.7165  1.8931  0.9481
  5054G12c H01093758   3.694   8.346   8.665 -0.6114  2.8203  2.4191
  5054G12c C02T93759   3.565   8.169   8.643  0.3348  0.9114  0.0656
  5054G12c H01O93760   3.484   8.221   8.593  1.1862  1.9895 -0.2102
  5054G12c C02S93761   3.566   8.034   8.663  1.2131 -1.2416  2.2972
  5054G12c O00J93762   3.473   7.969   8.600 -0.5978 -1.4056 -0.1829
  5054G12c H01P93763   3.517   7.886   8.608  1.2636 -0.2974  1.8097
  5054G12c C02R93764   3.648   7.965   8.758 -1.3538  0.8339  1.0373
  5054G12c O00I93765   3.656   7.833   8.748  1.0558 -0.5551  0.7491
  5054G12c C02Q93766   3.763   7.774   8.671 -0.3489  0.6976  0.5723
  5054G12c H01N93767   3.857   7.733   8.707  1.9146  4.0023 -1.3013
  5054G12c H01R93768   3.803   7.804   8.575 -0.1211  5.0175  1.9327
  5054G12c H01Q93769   3.706   7.689   8.632  5.8159 -5.5888  4.0747
  5054G12c C02A93770   3.750   8.041   8.821 -1.4755  0.4980 -0.6460
  5054G12c H01193771   3.824   7.998   8.886  4.8090  2.6616 -5.8279
  5054G12c C00C93772   4.146   8.553   9.044  1.7471  2.2651 -0.3360
  5054G12c H01293773   4.236   8.498   9.068  0.6175  1.4945  2.3080
  5054G12c C00B93774   4.148   8.679   9.122 -0.4367  0.3011  2.5718
  5054G12c C00A93775   4.213   8.734   9.240  1.7464  0.9748  0.7787
  5054G12c C00993776   4.253   8.653   9.361  0.7251 -0.3240 -2.5868
  5054G12c C00893777   4.229   8.524   9.415  0.8455  0.3902 -0.1761
  5054G12c H01393778   4.181   8.465   9.338  0.4926  4.4169 -3.1786
  5054G12c C00793779   4.208   8.498   9.547 -0.1373 -0.4401 -1.8122
  5054G12c H01493780   4.181   8.403   9.591 -0.0165  1.2435  2.0893
  5054G12c C00693781   4.211   8.614   9.639  1.1157 -0.1883  0.4622
  5054G12c C00593782   4.233   8.741   9.592  0.9715  0.7172 -0.1125
  5054G12c C00493783   4.237   8.862   9.670  0.2836 -1.2177  1.4795
  5054G12c C00393784   4.255   8.981   9.607  1.5705 -1.0126  0.1789
  5054G12c C00293785   4.230   9.089   9.699  0.6742 -2.0522 -0.9138
  5054G12c C00193786   4.190   9.229   9.702 -0.6052 -0.2068 -0.7146
  5054G12c C00M93787   4.075   9.266   9.608 -0.1213 -0.1589 -1.9162
  5054G12c C00L93788   4.070   9.216   9.466 -0.2103 -0.6055  1.0468
  5054G12c C00R93789   3.947   9.219   9.395 -0.6178 -0.5851  0.1727
  5054G12c C00Q93790   3.820   9.272   9.421  0.4690  0.2225 -0.1414
  5054G12c C00V93791   3.727   9.221   9.327  1.9416  0.6013 -0.4295
  5054G12c C00U93792   3.746   9.126   9.239  0.5405 -0.0429  0.0594
  5054G12c C00T93793   3.874   9.075   9.220  1.3057  0.1484  1.2225
  5054G12c C01693794   3.903   8.981   9.130  0.8214 -0.1404 -0.2739
  5054G12c C01593795   3.801   8.920   9.058 -1.5922  0.7534  1.6486
  5054G12c C01093796   3.686   8.986   9.042  0.5401  1.9005  0.4547
  5054G12c C01193797   3.588   8.943   8.931 -1.0158 -0.8789 -0.8692
  5054G12c H00593798   3.495   8.998   8.932  0.8449  2.4185  2.3482
  5054G12c C01293799   3.616   8.849   8.838 -0.2591  0.6422 -0.0086
  5054G12c C01793800   3.580   8.844   8.697  0.3806 -0.3694 -0.6450
  5054G12c O00293801   3.491   8.931   8.648 -1.1076 -0.2116 -0.3469
  5054G12c H00493802   3.455   8.894   8.569  0.2926 -0.9346 -0.6557
  5054G12c C01893803   3.599   8.726   8.616 -0.1503  0.5140  0.0800
  5054G12c O00193804   3.628   8.610   8.678 -1.7797 -0.0357 -1.0881
  5054G12c H00393805   3.605   8.605   8.769 -4.7630 -5.0123 -1.9612
  5054G12c C01993806   3.551   8.719   8.459 -0.1073 -0.6360  0.2171
  5054G12c H00293807   3.648   8.699   8.413  0.7596  0.9011  1.3337
  5054G12c H00193808   3.446   8.692   8.447  0.1049  0.6284 -5.9488
  5054G12c O00093809   3.537   8.856   8.408  1.2627  1.2077 -0.7424
  5054G12c C01A93810   3.525   8.857   8.269 -0.2432  0.9792  1.2243
  5054G12c C02K93811   3.634   8.812   8.191 -0.8254  1.1296  1.4730
  5054G12c O00G93812   3.769   8.809   8.256  2.0605 -0.2876  1.0748
  5054G12c C02M93813   3.832   8.686   8.231 -1.1798 -0.1144  0.1221
  5054G12c H01G93814   3.921   8.726   8.280 -1.1968 -0.3561  0.3547
  5054G12c H01F93815   3.806   8.591   8.278  1.8349 -4.0078 -5.5112
  5054G12c H01E93816   3.860   8.659   8.129 -2.9178 -3.6417  0.4918
  5054G12c C02J93817   3.614   8.759   8.062  0.9337 -0.9716  0.7159
  5054G12c H01H93818   3.700   8.719   8.011 -0.6277 -4.3185  0.5731
  5054G12c C02I93819   3.491   8.762   8.000  1.3318 -0.4973  1.2878
  5054G12c C02N93820   3.466   8.738   7.863  2.5187  1.1947 -1.3094
  5054G12c H01M93821   3.396   8.797   7.806  2.9643 -0.3872 -3.5752
  5054G12c C02O93822   3.501   8.623   7.807  1.5703  0.3753 -2.4919
  5054G12c H01L93823   3.568   8.564   7.868 -3.4648 -1.3792  1.6179
  5054G12c C02P93824   3.419   8.536   7.717 -0.2968  0.5837 -1.3155
  5054G12c H01K93825   3.329   8.521   7.777  2.4322  1.7277  3.3659
  5054G12c H01J93826   3.393   8.591   7.627  5.1756  3.5544 -1.3304
  5054G12c O00H93827   3.478   8.407   7.698  0.6462 -0.7584  0.2639
  5054G12c H01I93828   3.443   8.333   7.746  0.5738  0.3114  1.8946
  5054G12c C02H93829   3.375   8.803   8.079 -0.3749  1.2296 -1.6267
  5054G12c H01C93830   3.275   8.810   8.039 -0.6395 -1.1176 -1.4411
  5054G12c C02L93831   3.406   8.840   8.207  2.2929  0.4764  1.0111
  5054G12c H01D93832   3.305   8.858   8.240  0.6898 -7.5348  1.3954
  5054G12c C01393833   3.749   8.805   8.851 -1.6906  0.6317 -1.5807
  5054G12c H00093834   3.795   8.776   8.758 -1.8692 -2.7728 -0.6775
  5054G12c C01493835   3.826   8.808   8.976  0.2661  0.9994  1.0769
  5054G12c C00F93836   3.935   8.726   8.979  1.2357 -1.0537 -0.3303
  5054G12c C00H93837   4.024   8.894   9.147  0.4412  0.1623  0.9770
  5054G12c C00I93838   4.124   8.945   9.221 -2.2086 -1.5217  1.6574
  5054G12c C00J93839   4.097   9.071   9.286 -1.3330 -2.0113 -0.9086
  5054G12c C00Z93840   3.665   9.090   9.142  0.1695  0.2317  1.1651
  5054G12c C00Y93841   3.552   9.169   9.125 -0.4171 -1.5822  1.0207
  5054G12c H00693842   3.480   9.153   9.046 -5.9118  4.1352  4.3888
  5054G12c C00X93843   3.503   9.259   9.225 -1.9492  0.3741  0.4585
  5054G12c O00393844   3.391   9.333   9.213  1.2629 -1.3426  0.8653
  5054G12c C01B93845   3.270   9.288   9.147 -0.2654 -1.1560  0.8082
  5054G12c H00993846   3.197   9.367   9.164  2.9816  2.2444 -0.2899
  5054G12c H00893847   3.253   9.182   9.161  2.8372 -2.2039 -2.5940
  5054G12c H00793848   3.277   9.284   9.038 -5.4549 -1.0975  0.3325
  5054G12c C00W93849   3.604   9.296   9.325  0.7343  0.1152  0.9451
  5054G12c O00493850   3.555   9.384   9.417 -0.7529  0.7614  0.4761
  5054G12c C01C93851   3.654   9.412   9.512  0.6117  0.2220 -2.1577
  5054G12c H00A93852   3.669   9.515   9.542 -0.0556  1.9096 -7.2036
  5054G12c C00P93853   3.767   9.348   9.531  0.6181  2.0042 -1.6526
  5054G12c C00O93854   3.830   9.368   9.655 -0.5613  0.2312 -1.0260
  5054G12c C01D93855   3.743   9.357   9.770 -0.4704 -0.8347  1.2259
  5054G12c H00S93856   3.636   9.374   9.760  0.0266  0.9204 -1.7125
  5054G12c C01E93857   3.792   9.349   9.918 -0.5878 -0.0153  0.9174
  5054G12c O00893858   3.689   9.323  10.005  0.5290 -0.4657  0.8509
  5054G12c C01V93859   3.574   9.320   9.972  0.3650 -0.2770  1.6368
  5054G12c C01Z93860   3.525   9.190   9.908  0.0627  0.9850  1.1544
  5054G12c H00R93861   3.497   9.191   9.803 -4.9894 -2.3227  2.3084
  5054G12c H00Q93862   3.611   9.123   9.906  1.4402  2.7432 -1.2678
  5054G12c O00993863   3.434   9.120   9.975 -0.4005  0.3782 -0.0816
  5054G12c H00P93864   3.478   9.089  10.053  6.3532 -6.8452 -6.0112
  5054G12c C01W93865   3.496   9.390  10.046 -0.2250  1.1698  0.6355
  5054G12c H00O93866   3.540   9.484  10.075  4.8970 -1.5309  2.2185
  5054G12c C01X93867   3.336   9.403  10.081  0.1224 -0.5004  1.4918
  5054G12c H00N93868   3.283   9.325  10.027 -1.1497 -1.4743  4.0687
  5054G12c H00M93869   3.309   9.359  10.177  2.0382  0.0136  2.2982
  5054G12c C01Y93870   3.246   9.514  10.039  1.8786  0.8684 -1.1613
  5054G12c C02D93871   3.181   9.580  10.134 -1.0197  1.0071 -1.0708
  5054G12c H01993872   3.226   9.581  10.232  0.5691  3.8751 -1.7751
  5054G12c C02C93873   3.065   9.660  10.114  0.5890 -1.4362  0.6143
  5054G12c H01A93874   3.017   9.710  10.197 -1.8532 -3.3907  0.4435
  5054G12c C02B93875   3.005   9.679   9.989 -0.6687 -1.4517 -0.6503
  5054G12c O00E93876   2.897   9.753   9.965  0.4048  1.1849  0.0509
  5054G12c H01B93877   2.899   9.764   9.871  1.6879  5.0870  0.4646
  5054G12c C02F93878   3.085   9.621   9.881 -1.8158  0.6553  0.3686
  5054G12c O00F93879   3.063   9.624   9.745  0.3981 -1.1563  0.7354
  5054G12c C02G93880   3.111   9.743   9.696 -0.4028 -0.9245  0.0096
  5054G12c H01793881   3.046   9.827   9.671  4.6108  3.8397  2.0474
  5054G12c H01693882   3.206   9.782   9.731  1.5201 -6.8300  1.9287
  5054G12c H01593883   3.148   9.723   9.595 -3.0808  0.4769 -1.3200
  5054G12c C02E93884   3.201   9.549   9.902  0.3609 -1.7247 -0.0366
  5054G12c H01893885   3.253   9.513   9.815  0.4042 -3.8372  0.8391
  5054G12c C01F93886   3.933   9.301   9.932 -0.5936 -0.9643  0.1047
  5054G12c C01G93887   3.987   9.238  10.053  0.5050 -1.0991  1.2972
  5054G12c H00L93888   3.912   9.246  10.130  1.8518  1.3018  2.4160
  5054G12c C01H93889   4.130   9.186  10.061 -1.5265 -0.2328 -0.5596
  5054G12c H00B93890   4.162   9.115  10.136  3.2073  1.4521 -0.8187
  5054G12c C01I93891   4.191   9.177   9.922  1.6131  1.2660  1.2055
  5054G12c C01U93892   4.028   9.316   9.810 -0.0625  0.2684  2.5829
  5054G12c C00S93893   3.972   9.126   9.299  0.8413 -0.1362 -0.7993
  5054G12c C00K93894   4.159   9.110   9.411  0.2901  0.7393 -0.7682
  5054G12c C00N93895   3.964   9.334   9.675 -0.2037 -0.1229 -1.0915
  5054G12c C00093896   4.165   9.277   9.824  0.2499  1.6061 -0.5320
  5054G12c C01J93897   4.245   9.075   9.847  1.5389  2.2496  1.9882
  5054G12c C01K93898   4.265   8.948   9.911 -1.0328  0.0999  0.7249
  5054G12c C01P93899   4.307   8.906  10.045  0.5257 -1.7777 -1.4287
  5054G12c C01Q93900   4.396   8.967  10.130 -0.9224 -0.0960  0.3425
  5054G12c H00G93901   4.492   9.010  10.104 -1.1286  0.5413  0.6276
  5054G12c C01R93902   4.380   8.932  10.251 -0.6675  0.5400 -0.7476
  5054G12c H00F93903   4.290   8.896  10.297  2.0128 -1.9777  2.8430
  5054G12c C01S93904   4.462   8.998  10.362  0.5624  1.0737  0.5883
  5054G12c H00E93905   4.468   8.903  10.414  2.2175 -0.9127 -3.0102
  5054G12c H00D93906   4.549   9.045  10.316  0.3972  1.2096  0.4115
  5054G12c O00593907   4.415   9.120  10.426 -0.9798 -0.3029 -0.6630
  5054G12c H00C93908   4.351   9.091  10.489  4.3484 -0.8576  4.9858
  5054G12c C01O93909   4.252   8.773  10.083  0.5319  0.5165 -0.8142
  5054G12c H00H93910   4.275   8.727  10.177 -5.2168 -1.2117 -0.0115
  5054G12c C01N93911   4.183   8.700  10.003  0.2352  0.2165 -0.2135
  5054G12c O00693912   4.162   8.568  10.053  0.6051 -0.3388 -0.0643
  5054G12c C01T93913   4.031   8.518  10.011  1.0811 -0.4133  0.4977
  5054G12c H00K93914   4.054   8.495   9.907 -0.9401  2.3256 -0.6406
  5054G12c H00J93915   4.027   8.411  10.032 -3.0624  0.3156  4.0904
  5054G12c H00I93916   3.952   8.591   9.994 -1.1663 -2.3599  2.2728
  5054G12c C01M93917   4.193   8.715   9.870 -2.4306  1.2098 -0.7422
  5054G12c C02093918   4.254   9.008   9.461 -0.8885 -0.7652  0.4906
  5054G12c C02193919   4.277   8.886   9.387 -1.8015  0.3587 -0.4110
  5054G12c C01L93920   4.242   8.843   9.812  0.2215  0.5006 -0.3248
  5054G12c O00793921   4.210   8.621   9.771  0.6460 -1.1318  0.1942
  5054G12c C02293922   4.272   8.765   9.456  1.0692 -1.1070 -0.1439
  5054G12c C02393923   4.239   8.864   9.258 -0.2103 -1.1586  0.5094
  5054G12c C00G93924   4.031   8.769   9.082 -2.0818  0.5140 -0.8997
  5054G12c C00E93925   3.920   8.595   8.933 -1.6026  0.2251  0.5179
  5054G12c O00A93926   3.800   8.541   8.894  0.2274  0.3736  0.6417
  5054G12c C02493927   3.691   8.533   8.993 -0.8826 -0.4568 -1.6402
  5054G12c H00V93928   3.623   8.617   9.003  2.0923  1.5569  3.3747
  5054G12c H00U93929   3.638   8.443   8.962 -2.2067 -2.4658  5.5783
  5054G12c H00T93930   3.710   8.518   9.099  1.4391  5.8678 -0.9586
  5064G12c C00D93931   3.888   9.661  11.520 -1.8366 -0.1091  0.3662
  5064G12c O00B93932   3.910   9.647  11.378 -0.4806  0.2300  0.5849
  5064G12c C02593933   3.909   9.512  11.323 -0.7914  0.2434  1.3162
  5064G12c C02693934   4.001   9.408  11.396  0.1920 -1.1854  0.2505
  5064G12c H00Y93935   4.059   9.451  11.477  3.1708 -0.0931 -2.3595
  5064G12c H00X93936   4.083   9.400  11.325  3.7231  3.9909  3.4398
  5064G12c O00C93937   3.946   9.295  11.438 -1.0065  0.6826  0.4144
  5064G12c H00W93938   4.022   9.239  11.447  0.5046  2.1493 -2.5498
  5064G12c C02793939   3.830   9.462  11.224  1.3551 -0.5634  0.3028
  5064G12c O00D93940   3.863   9.343  11.166 -1.1281 -0.8861 -0.4318
  5064G12c H00Z93941   3.947   9.333  11.207 -1.0568 -3.8681 -1.2536
  5064G12c C02893942   3.724   9.560  11.174 -1.1743  1.4827  0.8286
  5064G12c C02993943   3.723   9.580  11.035 -1.3368 -0.8811 -0.2602
  5064G12c H01093944   3.784   9.513  10.976 -0.1126 -3.4407  3.7286
  5064G12c C02T93945   3.647   9.681  10.964  0.0911  1.6068 -1.3342
  5064G12c H01O93946   3.655   9.692  10.856  3.6496 -5.4199 -2.0499
  5064G12c C02S93947   3.610   9.766  11.060 -0.1359  0.0488 -0.1804
  5064G12c O00J93948   3.529   9.857  11.001  0.5476 -0.2351 -0.2928
  5064G12c H01P93949   3.484   9.885  11.080 -1.6121 -2.0831 -0.8025
  5064G12c C02R93950   3.571   9.750  11.200 -0.6642  0.7472  1.6893
  5064G12c O00I93951   3.470   9.827  11.242  0.1989  0.0771 -0.1447
  5064G12c C02Q93952   3.408   9.823  11.365  0.8094 -0.0141  0.0781
  5064G12c H01N93953   3.475   9.782  11.441  2.2156 -1.0108 -1.6537
  5064G12c H01R93954   3.308   9.781  11.369 -0.3433  2.6424  0.3147
  5064G12c H01Q93955   3.415   9.931  11.379 -9.0534  1.0613 -0.3285
  5064G12c C02A93956   3.631   9.636  11.251 -0.8889 -0.1136  0.0307
  5064G12c H01193957   3.617   9.596  11.350 -3.4743 -2.8297 -1.3467
  5064G12c C00C93958   3.848   9.554  11.608  0.6627 -0.8947  0.1407
  5064G12c H01293959   3.812   9.461  11.565  4.0039 -2.6748  1.0616
  5064G12c C00B93960   3.861   9.570  11.748 -0.1278 -1.0383 -0.6670
  5064G12c C00A93961   3.832   9.480  11.863 -0.4015 -1.1851 -2.0880
  5064G12c C00993962   3.756   9.356  11.867  1.7360 -1.5031 -1.2964
  5064G12c C00893963   3.658   9.302  11.787 -1.1730  1.2648 -1.4186
  5064G12c H01393964   3.651   9.318  11.681  0.1086  1.7998 -1.4334
  5064G12c C00793965   3.540   9.246  11.850 -0.5439 -0.2840 -1.6858
  5064G12c H01493966   3.452   9.210  11.798 -1.7650 -1.5560  1.1670
  5064G12c C00693967   3.516   9.239  11.984 -1.8544 -0.1628 -0.7119
  5064G12c C00593968   3.632   9.282  12.059 -1.0916 -0.0313  0.8444
  5064G12c C00493969   3.616   9.294  12.196  2.0984 -0.7098 -0.0474
  5064G12c C00393970   3.688   9.382  12.275 -1.2627 -0.3366  0.7852
  5064G12c C00293971   3.629   9.415  12.407  1.3848  0.0880  0.3788
  5064G12c C00193972   3.671   9.525  12.496 -0.3100  2.3050 -1.5156
  5064G12c C00M93973   3.685   9.673  12.470 -0.5050  0.0229 -1.2074
  5064G12c C00L93974   3.753   9.699  12.353 -1.4042  1.9065 -0.6512
  5064G12c C00R93975   3.767   9.826  12.296  1.1528 -1.0112 -0.1220
  5064G12c C00Q93976   3.712   9.943  12.358 -0.6934 -0.1348  0.5042
  5064G12c C00V93977   3.773  10.051  12.282 -0.3213 -1.1640 -0.8419
  5064G12c C00U93978   3.811  10.029  12.147 -0.4657  1.0119 -0.1519
  5064G12c C00T93979   3.816   9.905  12.093  0.8527 -1.7060 -0.8619
  5064G12c C01693980   3.852   9.873  11.966  0.5749  0.6483  0.8451
  5064G12c C01593981   3.875   9.970  11.874  1.2856 -0.1273 -0.8141
  5064G12c C01093982   3.856  10.109  11.916 -0.1301 -0.1609  0.6063
  5064G12c C01193983   3.858  10.207  11.821 -0.3267  2.1716  0.6080
  5064G12c H00593984   3.804  10.300  11.832  3.0449  3.5693  9.1702
  5064G12c C01293985   3.914  10.171  11.699  0.7284  0.4143 -1.6272
  5064G12c C01793986   3.905  10.254  11.580  0.9871 -0.7309 -0.5354
  5064G12c O00293987   3.767  10.292  11.556  0.4661 -0.0596 -0.3983
  5064G12c H00493988   3.702  10.273  11.621 -3.5882  2.2676 -3.5106
  5064G12c C01893989   4.022  10.285  11.510 -0.4927  0.2938  1.6482
  5064G12c O00193990   4.008  10.331  11.379  0.7157 -0.6491  0.6050
  5064G12c H00393991   4.024  10.424  11.368 -3.4340  0.4893  3.0087
  5064G12c C01993992   4.175  10.253  11.562  1.4134  0.5865  1.2641
  5064G12c H00293993   4.141  10.212  11.658  0.4836  2.2995  1.6865
  5064G12c H00193994   4.224  10.162  11.529  3.3590  1.9119  0.4199
  5064G12c O00093995   4.221  10.378  11.537 -0.4384  0.4960 -0.2334
  5064G12c C01A93996   4.250  10.432  11.659 -0.5044  1.9995 -1.1245
  5064G12c C02K93997   4.381  10.460  11.704  0.2156 -2.3220  0.7536
  5064G12c O00G93998   4.498  10.397  11.642  1.0329 -1.9678  0.8406
  5064G12c C02M93999   4.625  10.398  11.696 -1.5738  0.1160 -0.4909
  5064G12c H01G94000   4.632  10.300  11.745 -5.1166 -0.1191 -0.3430
  5064G12c H01F94001   4.656  10.482  11.757  1.4670 -5.4543  6.4372
  5064G12c H01E94002   4.707  10.358  11.635  0.7301  5.4873 -1.1272
  5064G12c C02J94003   4.394  10.512  11.832  0.0670 -1.0486  1.0000
  5064G12c H01H94004   4.492  10.512  11.878 -2.6684 -0.8676  7.4305
  5064G12c C02I94005   4.283  10.554  11.906  0.5495  1.9291 -2.1332
  5064G12c C02N94006   4.291  10.649  12.010  1.4324  0.4346 -1.0908
  5064G12c H01M94007   4.339  10.744  11.990  0.2690  1.6991  1.7816
  5064G12c C02O94008   4.241  10.613  12.131  1.2950  0.7531 -0.7182
  5064G12c H01L94009   4.223  10.507  12.144  3.3446  0.7589  2.7942
  5064G12c C02P94010   4.241  10.698  12.262  0.4833  0.4799  0.0338
  5064G12c H01K94011   4.157  10.701  12.330  0.9638  2.9540  0.5471
  5064G12c H01J94012   4.321  10.705  12.335  3.1391 -0.2196 -2.6854
  5064G12c O00H94013   4.239  10.828  12.213  0.3544 -0.1501  0.4366
  5064G12c H01I94014   4.314  10.813  12.157 -3.4028 -6.4114 -3.4788
  5064G12c C02H94015   4.160  10.551  11.857  2.1111 -0.4649  0.3814
  5064G12c H01C94016   4.069  10.591  11.899  2.5163 -2.0515  2.8750
  5064G12c C02L94017   4.152  10.477  11.730  1.6918  1.1098 -0.2821
  5064G12c H01D94018   4.053  10.461  11.691  0.5407  4.9322  0.8674
  5064G12c C01394019   3.962  10.039  11.671  0.3950  0.2400  0.2448
  5064G12c H00094020   3.998  10.010  11.573  1.7673 -3.7840  1.8523
  5064G12c C01494021   3.904   9.937  11.750  0.8894  1.7982 -1.8561
  5064G12c C00F94022   3.899   9.806  11.711 -0.2684 -0.1801  0.5292
  5064G12c C00H94023   3.878   9.735  11.924 -0.4510  0.0066 -1.3447
  5064G12c C00I94024   3.888   9.633  12.020  0.1187 -0.1452  1.8207
  5064G12c C00J94025   3.877   9.686  12.158 -0.2883  1.6237 -0.3378
  5064G12c C00Z94026   3.831  10.138  12.056  0.1680 -0.9817  0.4191
  5064G12c C00Y94027   3.828  10.271  12.095 -0.5722 -0.2975  1.4336
  5064G12c H00694028   3.832  10.355  12.027  0.1514 -0.2431  1.5434
  5064G12c C00X94029   3.810  10.289  12.236 -0.5524  0.0631 -0.4419
  5064G12c O00394030   3.839  10.413  12.305  1.1746  0.1150 -0.0604
  5064G12c C01B94031   3.846  10.515  12.213 -0.0189  0.3017 -0.7854
  5064G12c H00994032   3.924  10.590  12.229  1.9679 -3.0364  9.3617
  5064G12c H00894033   3.767  10.563  12.270 -3.9734 -4.0861 -2.2122
  5064G12c H00794034   3.783  10.514  12.125  1.6545 -2.8768 -2.0228
  5064G12c C00W94035   3.774  10.190  12.323  0.1272 -0.7595 -2.0558
  5064G12c O00494036   3.721  10.212  12.450 -1.8860 -0.1490  0.6472
  5064G12c C01C94037   3.627  10.126  12.498  0.7319 -0.2016  0.2734
  5064G12c H00A94038   3.595  10.149  12.599  6.2524  1.1326  1.8823
  5064G12c C00P94039   3.636   9.980  12.475  0.8011 -0.2076 -0.7914
  5064G12c C00O94040   3.576   9.880  12.558 -0.3172 -0.1297 -1.4851
  5064G12c C01D94041   3.475   9.928  12.652  2.2060  1.0238  0.2936
  5064G12c H00S94042   3.434  10.027  12.638 -2.2267 -0.6396  0.4851
  5064G12c C01E94043   3.391   9.826  12.713  1.0306  0.0771  0.0322
  5064G12c O00894044   3.266   9.863  12.759 -0.2848 -0.0758 -1.9461
  5064G12c C01V94045   3.197   9.959  12.686  1.5929  0.9214 -0.5654
  5064G12c C01Z94046   3.143   9.906  12.557 -0.2210 -1.7126  1.3928
  5064G12c H00R94047   3.085   9.817  12.581  0.0263 -3.0917 -2.6659
  5064G12c H00Q94048   3.074   9.973  12.506  2.5500  3.3551  3.8999
  5064G12c O00994049   3.227   9.904  12.466 -1.3610  1.1681  1.7936
  5064G12c H00P94050   3.279   9.825  12.457 -1.7552  1.3102 -2.8200
  5064G12c C01W94051   3.166  10.079  12.724 -1.5275  0.3875 -0.6393
  5064G12c H00O94052   3.117  10.146  12.656  1.8611 -0.0329 -3.6476
  5064G12c C01X94053   3.193  10.145  12.863  0.2828  0.3437 -0.1032
  5064G12c H00N94054   3.111  10.216  12.869 -0.7649 -0.3298 -4.7641
  5064G12c H00M94055   3.184  10.054  12.922  2.8411 -0.9810 -1.6515
  5064G12c C01Y94056   3.306  10.247  12.868  1.6072  0.3105  0.8214
  5064G12c C02D94057   3.352  10.276  12.987  0.1794 -1.5355 -0.5040
  5064G12c H01994058   3.297  10.257  13.078  0.5919  0.5880  0.2112
  5064G12c C02C94059   3.470  10.343  12.992  0.7775 -0.5634  0.6895
  5064G12c H01A94060   3.475  10.390  13.088 -0.5984  7.7419 -2.9122
  5064G12c C02B94061   3.541  10.373  12.882  0.8932 -0.3941  0.6622
  5064G12c O00E94062   3.666  10.417  12.907 -0.9045 -0.2247 -1.3190
  5064G12c H01B94063   3.706  10.433  12.823  4.6249  3.3512  1.7273
  5064G12c C02F94064   3.518  10.312  12.757 -1.2657 -0.3141  0.9313
  5064G12c O00F94065   3.584  10.369  12.640 -1.2026  1.1661 -0.9405
  5064G12c C02G94066   3.594  10.506  12.627  0.4290  0.0004 -0.5981
  5064G12c H01794067   3.589  10.535  12.522  6.5909  5.3665  0.2567
  5064G12c H01694068   3.490  10.521  12.656  0.3750 -1.3871 -0.0361
  5064G12c H01594069   3.697  10.534  12.650  0.2299 -1.4046  2.2086
  5064G12c C02E94070   3.381  10.275  12.738  0.1935  0.7346  0.7733
  5064G12c H01894071   3.326  10.279  12.645 -1.0348 -2.5983  1.2961
  5064G12c C01F94072   3.416   9.694  12.689 -0.9279 -0.3243 -0.9060
  5064G12c C01G94073   3.310   9.613  12.673 -1.5038  0.8144 -0.2851
  5064G12c H00L94074   3.208   9.630  12.705 -3.3275 -4.2887 -2.8677
  5064G12c C01H94075   3.314   9.469  12.628 -0.5281  1.6507 -0.8922
  5064G12c H00B94076   3.228   9.410  12.602  0.6613  1.5980 -4.9857
  5064G12c C01I94077   3.446   9.440  12.559  0.2242 -0.3224 -0.4313
  5064G12c C01U94078   3.537   9.646  12.636  1.5348  1.4470  0.5867
  5064G12c C00S94079   3.851   9.820  12.197 -0.6428 -1.1098  0.7725
  5064G12c C00K94080   3.811   9.605  12.264 -1.5611  0.4198 -0.4307
  5064G12c C00N94081   3.593   9.739  12.548  0.5879 -0.6374  1.8454
  5064G12c C00094082   3.564   9.515  12.595 -0.3045  1.8278 -1.5939
  5064G12c C01J94083   3.493   9.368  12.446  0.7049 -0.7698  1.2189
  5064G12c C01K94084   3.464   9.242  12.393  0.1496 -1.0235 -0.4477
  5064G12c C01P94085   3.382   9.136  12.441 -0.9077 -3.3640  0.2552
  5064G12c C01Q94086   3.349   9.134  12.581  0.0453 -0.3872  0.0080
  5064G12c H00G94087   3.424   9.190  12.634  0.8925  2.8551 -4.2970
  5064G12c C01R94088   3.236   9.092  12.641  0.4646 -0.6330  0.0949
  5064G12c H00F94089   3.157   9.049  12.581  1.6240 -4.4379  1.1204
  5064G12c C01S94090   3.186   9.093  12.777 -0.4876 -0.7941  0.4606
  5064G12c H00E94091   3.119   9.175  12.803 -2.7724 -1.2846 -3.4603
  5064G12c H00D94092   3.143   9.003  12.823 -3.9404  0.4582 -0.1393
  5064G12c O00594093   3.311   9.121  12.852 -0.7111 -0.4462 -0.7069
  5064G12c H00C94094   3.309   9.198  12.906  2.2057  0.6602 -2.0653
  5064G12c C01O94095   3.331   9.043  12.360 -1.0416 -0.1820  0.2840
  5064G12c H00H94096   3.285   8.948  12.381 -2.7990 -0.4002 -3.8760
  5064G12c C01N94097   3.326   9.066  12.214  0.2594  0.5579  0.4315
  5064G12c O00694098   3.254   8.992  12.126  0.0330  0.7564 -1.1407
  5064G12c C01T94099   3.249   8.858  12.124 -1.6772  1.6270  1.7830
  5064G12c H00K94100   3.333   8.827  12.061  0.2173  0.9331  4.5649
  5064G12c H00J94101   3.143   8.834  12.115 -3.4591  5.7454  8.6512
  5064G12c H00I94102   3.295   8.836  12.220  5.4001  0.7260 -1.4985
  5064G12c C01M94103   3.414   9.156  12.168 -1.7164 -0.1123 -0.5394
  5064G12c C02094104   3.778   9.474  12.205  0.6602  0.8659  1.4217
  5064G12c C02194105   3.832   9.418  12.089 -0.9140  0.2894 -1.2429
  5064G12c C01L94106   3.503   9.230  12.254 -0.9674  1.3853  0.5833
  5064G12c O00794107   3.404   9.179  12.040 -0.2935  0.4761 -0.1641
  5064G12c C02294108   3.751   9.327  12.010 -0.5646  0.1278  0.3791
  5064G12c C02394109   3.882   9.507  11.994  0.9658  0.9124  1.5707
  5064G12c C00G94110   3.886   9.703  11.794 -1.3706 -0.4756  0.2217
  5064G12c C00E94111   3.891   9.786  11.567  1.3078  0.9913 -0.9778
  5064G12c O00A94112   3.868   9.883  11.474  0.9523  0.3140 -0.5306
  5064G12c C02494113   3.970   9.898  11.364 -1.3151  0.1280 -0.1055
  5064G12c H00V94114   4.060   9.837  11.368  0.0155  1.9232 -1.8035
  5064G12c H00U94115   3.970   9.995  11.314  4.2700 -1.3528 -3.4019
  5064G12c H00T94116   3.910   9.860  11.281  0.3862 -3.8927  0.3958
  5074G12c C00D94117  10.315   8.000  11.318  1.3345  0.0465 -0.0901
  5074G12c O00B94118  10.373   8.096  11.238  0.2864  1.2302 -0.8436
  5074G12c C02594119  10.465   8.184  11.295  1.2945 -0.2881 -2.0033
  5074G12c C02694120  10.387   8.312  11.317  0.9440  1.2850 -0.1799
  5074G12c H00Y94121  10.283   8.305  11.288  0.6312 -0.6795  1.3423
  5074G12c H00X94122  10.437   8.386  11.253 -3.7177  3.3217 -1.6918
  5074G12c O00C94123  10.392   8.343  11.447 -1.0579 -1.7768 -0.1846
  5074G12c H00W94124  10.478   8.357  11.484 -0.2499 -3.8927 -1.1506
  5074G12c C02794125  10.586   8.146  11.346 -0.1077 -0.3854 -0.4766
  5074G12c O00D94126  10.652   8.024  11.384  1.1729  1.2901  0.8308
  5074G12c H00Z94127  10.738   8.016  11.424  1.9703  1.4757 -0.7839
  5074G12c C02894128  10.655   8.253  11.404  0.5714  0.1196 -0.4092
  5074G12c C02994129  10.720   8.347  11.319 -0.0858 -0.2121  0.4595
  5074G12c H01094130  10.713   8.331  11.213  4.1184  4.1537 -0.6596
  5074G12c C02T94131  10.765   8.481  11.361  0.3692 -0.8620  0.3725
  5074G12c H01O94132  10.777   8.569  11.299 -1.2170  2.8472  5.0260
  5074G12c C02S94133  10.776   8.484  11.502 -1.5171 -1.2308  0.1005
  5074G12c O00J94134  10.853   8.581  11.551  1.3769 -0.3596 -0.9228
  5074G12c H01P94135  10.942   8.550  11.545  3.0493  4.0510 -0.8674
  5074G12c C02R94136  10.717   8.395  11.598  1.0261 -0.7538  0.7282
  5074G12c O00I94137  10.733   8.412  11.736  0.4809  0.2899  0.0349
  5074G12c C02Q94138  10.687   8.525  11.797  0.7513 -0.3319  0.7614
  5074G12c H01N94139  10.649   8.588  11.716  5.2105  7.8867  4.3936
  5074G12c H01R94140  10.760   8.583  11.853  3.1093 -2.7846  0.3409
  5074G12c H01Q94141  10.614   8.503  11.875  0.7855 -2.2742  0.2607
  5074G12c C02A94142  10.657   8.277  11.555 -0.1755 -0.5198  0.8287
  5074G12c H01194143  10.611   8.199  11.615  3.9935 -1.2961  3.2036
  5074G12c C00C94144  10.301   8.021  11.447 -0.8864  1.9155  1.5252
  5074G12c H01294145  10.338   8.111  11.493  2.7504  0.5618  1.3698
  5074G12c C00B94146  10.251   7.924  11.528  0.3603 -1.0591 -0.6906
  5074G12c C00A94147  10.272   7.927  11.671  1.7467  0.5451  2.4437
  5074G12c C00994148  10.315   8.025  11.768  0.3168  1.0449  0.5867
  5074G12c C00894149  10.393   8.137  11.774  0.8062 -0.0219 -0.8978
  5074G12c H01394150  10.403   8.216  11.701  0.9395  6.2921  5.3854
  5074G12c C00794151  10.435   8.189  11.909  0.4124  0.6859 -0.0831
  5074G12c H01494152  10.448   8.296  11.918 -0.4899  1.1066 -3.3344
  5074G12c C00694153  10.451   8.102  12.025  1.1480  0.8586  0.5338
  5074G12c C00594154  10.396   7.974  11.991 -1.6662  1.4561 -1.1845
  5074G12c C00494155  10.418   7.857  12.080 -1.1838 -0.2116 -0.6316
  5074G12c C00394156  10.344   7.734  12.061 -0.5723 -0.6382 -0.7412
  5074G12c C00294157  10.403   7.621  12.142  0.2669  0.9399 -1.2799
  5074G12c C00194158  10.346   7.489  12.179 -0.7053 -0.1360 -0.4042
  5074G12c C00M94159  10.298   7.393  12.086  0.3352 -0.5476  0.5844
  5074G12c C00L94160  10.296   7.458  11.952  1.1583  0.0101  1.8038
  5074G12c C00R94161  10.272   7.367  11.840  0.5623  0.3102 -0.1501
  5074G12c C00Q94162  10.327   7.241  11.799 -1.1732 -1.1193  0.1595
  5074G12c C00V94163  10.334   7.217  11.660  1.2199 -1.2227 -0.4119
  5074G12c C00U94164  10.316   7.323  11.558 -1.0535 -1.5822 -0.1562
  5074G12c C00T94165  10.286   7.443  11.605  0.3743 -0.2693  1.0302
  5074G12c C01694166  10.256   7.557  11.512 -0.1134 -1.4323 -1.8834
  5074G12c C01594167  10.279   7.535  11.386 -0.1003 -2.2145  0.8111
  5074G12c C01094168  10.318   7.412  11.336  1.0046  0.4986 -0.3040
  5074G12c C01194169  10.330   7.402  11.191  1.4755 -0.4353 -0.5751
  5074G12c H00594170  10.334   7.300  11.155 -3.5876 -2.2186  3.2430
  5074G12c C01294171  10.308   7.494  11.111 -0.9739 -0.1550  0.7388
  5074G12c C01794172  10.330   7.468  10.971  0.4238 -0.3883 -0.6068
  5074G12c O00294173  10.220   7.487  10.891  0.6926  0.5724  0.5309
  5074G12c H00494174  10.161   7.514  10.959 -5.2817 -1.4617 -3.4069
  5074G12c C01894175  10.432   7.407  10.907  1.8410  0.4796 -0.1298
  5074G12c O00194176  10.547   7.413  10.995  1.2983 -0.6708 -0.7339
  5074G12c H00394177  10.557   7.503  11.021 -2.9207 -0.6092  1.0586
  5074G12c C01994178  10.414   7.349  10.756 -1.6862 -0.9857  0.8222
  5074G12c H00294179  10.320   7.384  10.713  0.2044 -0.6421 -3.2238
  5074G12c H00194180  10.510   7.348  10.705  1.9957  1.3744  7.1210
  5074G12c O00094181  10.372   7.198  10.777 -0.6219 -0.6043  1.0002
  5074G12c C01A94182  10.434   7.130  10.678  0.5404  0.5260 -0.0270
  5074G12c C02K94183  10.376   7.064  10.566 -0.7540 -1.0636 -0.4667
  5074G12c O00G94184  10.247   7.081  10.523  0.5077  1.1054 -0.5160
  5074G12c C02M94185  10.137   7.107  10.620 -0.9372  0.8624  1.1855
  5074G12c H01G94186  10.181   7.176  10.692 -1.3648  0.2734  2.0164
  5074G12c H01F94187  10.088   7.045  10.695  0.9936 -1.2835  0.7162
  5074G12c H01E94188  10.073   7.183  10.575 -3.5911 -1.7632  0.3584
  5074G12c C02J94189  10.448   6.960  10.509  0.2841  0.4636  2.7949
  5074G12c H01H94190  10.435   6.907  10.416  2.9035  2.2609  1.3249
  5074G12c C02I94191  10.565   6.911  10.537 -0.8026 -0.2319 -1.5861
  5074G12c C02N94192  10.596   6.759  10.497  0.9531 -1.8779 -0.0770
  5074G12c H01M94193  10.509   6.710  10.455  3.7548 -2.6412 -5.4289
  5074G12c C02O94194  10.712   6.709  10.542  1.4342  0.1883  0.4860
  5074G12c H01L94195  10.764   6.783  10.602 -1.5587  0.7270  2.5118
  5074G12c C02P94196  10.786   6.611  10.451  0.7986  0.6708  0.3855
  5074G12c H01K94197  10.782   6.630  10.343 -7.1345 -0.4983  0.2151
  5074G12c H01J94198  10.888   6.625  10.487  0.8074 -1.6739  1.3522
  5074G12c O00H94199  10.770   6.469  10.460 -0.4137  1.5082 -1.5127
  5074G12c H01I94200  10.779   6.455  10.367  2.5926  4.1766 -1.7064
  5074G12c C02H94201  10.641   6.982  10.640  1.1651  0.2296 -0.9194
  5074G12c H01C94202  10.736   6.963  10.688 -2.1738  1.9489  7.1707
  5074G12c C02L94203  10.568   7.079  10.717 -1.2047  0.9664 -0.6960
  5074G12c H01D94204  10.604   7.095  10.818 -2.6593 -5.4064  1.0336
  5074G12c C01394205  10.250   7.614  11.147  1.0664 -0.4747 -0.7682
  5074G12c H00094206  10.241   7.682  11.064  4.5454  0.3535 -0.5572
  5074G12c C01494207  10.266   7.637  11.293  0.3630 -0.2994  1.0831
  5074G12c C00F94208  10.276   7.768  11.345  0.4431  0.3988  0.3503
  5074G12c C00H94209  10.217   7.683  11.552 -0.7790 -1.1119 -1.0262
  5074G12c C00I94210  10.181   7.696  11.697 -0.7120 -1.4924 -1.5240
  5074G12c C00J94211  10.203   7.575  11.778  0.2348  0.3058  0.6642
  5074G12c C00Z94212  10.353   7.312  11.428 -0.6229 -0.4498 -0.5787
  5074G12c C00Y94213  10.416   7.191  11.394  1.5393  1.2250  0.8606
  5074G12c H00694214  10.428   7.161  11.291  4.4217 -3.5959  2.4162
  5074G12c C00X94215  10.413   7.084  11.473  0.0094  1.8596  0.2199
  5074G12c O00394216  10.478   6.970  11.416  1.1428 -0.1101  1.2825
  5074G12c C01B94217  10.405   6.851  11.432  1.9934  0.6502 -0.4422
  5074G12c H00994218  10.299   6.857  11.455  1.8244  1.3725 -1.3596
  5074G12c H00894219  10.432   6.806  11.527 -5.9621 -3.4687  0.2873
  5074G12c H00794220  10.417   6.788  11.343  2.9028  2.0222 -1.3157
  5074G12c C00W94221  10.382   7.088  11.600 -0.3250 -0.4978 -1.1508
  5074G12c O00494222  10.425   6.989  11.681  1.2548 -1.3115 -1.2724
  5074G12c C01C94223  10.396   7.011  11.814  0.6651 -0.6048 -0.6848
  5074G12c H00A94224  10.324   6.943  11.858  3.5290 -3.6026 -0.4747
  5074G12c C00P94225  10.382   7.138  11.878 -0.3871  0.1504  0.1484
  5074G12c C00O94226  10.423   7.158  12.018 -0.6163  0.8245 -1.0885
  5074G12c C01D94227  10.528   7.068  12.064 -0.4183  0.1888  1.3111
  5074G12c H00S94228  10.576   7.004  11.991 -1.1727 -1.0932  1.9211
  5074G12c C01E94229  10.621   7.107  12.166 -1.2861 -0.6507 -0.6960
  5074G12c O00894230  10.695   7.018  12.222 -0.2755  0.1694  0.1543
  5074G12c C01V94231  10.659   6.898  12.275  1.0399  1.5827 -0.3406
  5074G12c C01Z94232  10.743   6.787  12.218  0.8647  0.2315 -0.9188
  5074G12c H00R94233  10.681   6.698  12.228  3.3392 -1.2212  2.7619
  5074G12c H00Q94234  10.771   6.803  12.114 -2.9550 -4.6974 -2.9158
  5074G12c O00994235  10.835   6.816  12.326 -0.1905 -0.2505 -0.1581
  5074G12c H00P94236  10.797   6.796  12.410 -1.0793 -4.8044 -1.5142
  5074G12c C01W94237  10.557   6.887  12.379  0.0676  1.5940 -1.1800
  5074G12c H00O94238  10.497   6.975  12.397  0.6583  1.3953  1.9611
  5074G12c C01X94239  10.539   6.762  12.464  2.6707 -0.6698 -1.9858
  5074G12c H00N94240  10.646   6.747  12.482  2.5253  1.1030  0.5170
  5074G12c H00M94241  10.506   6.776  12.567 -5.9007 -2.6318 -4.0724
  5074G12c C01Y94242  10.451   6.634  12.409 -0.1351 -0.7722 -0.3946
  5074G12c C02D94243  10.452   6.505  12.468  0.6231 -2.1168  0.5083
  5074G12c H01994244  10.507   6.488  12.559  5.6014 -2.9020 -2.4337
  5074G12c C02C94245  10.370   6.403  12.415 -0.1485  0.2994  1.3160
  5074G12c H01A94246  10.379   6.301  12.448  0.8090 -1.2174 -3.3058
  5074G12c C02B94247  10.309   6.410  12.285  0.4676 -1.9019 -0.9349
  5074G12c O00E94248  10.242   6.306  12.246 -0.4243 -0.7914 -0.1646
  5074G12c H01B94249  10.241   6.214  12.269  2.4814 -0.8558 -0.1853
  5074G12c C02F94250  10.303   6.545  12.216 -1.0629  0.0266 -0.2556
  5074G12c O00F94251  10.242   6.538  12.104  1.4647  0.8573  0.7863
  5074G12c C02G94252  10.107   6.541  12.136  1.3080 -0.4725  0.5378
  5074G12c H01794253  10.068   6.630  12.088  6.4386  2.0698  0.6474
  5074G12c H01694254  10.083   6.521  12.240 -1.8084 -0.4384 -0.1496
  5074G12c H01594255  10.081   6.436  12.120 -3.2383 -0.6336  7.0845
  5074G12c C02E94256  10.365   6.652  12.284  1.1787 -0.3313  0.1027
  5074G12c H01894257  10.371   6.751  12.242  0.1777 -1.1300 -1.9725
  5074G12c C01F94258  10.599   7.235  12.225  0.4120  0.4051 -0.2611
  5074G12c C01G94259  10.700   7.298  12.297 -0.3486  0.4312 -0.7708
  5074G12c H00L94260  10.793   7.246  12.314 -0.4285 -0.0422 -1.7509
  5074G12c C01H94261  10.698   7.449  12.301 -0.0920 -1.5870  0.5511
  5074G12c H00B94262  10.780   7.516  12.320 -2.9695  0.3495  7.5498
  5074G12c C01I94263  10.566   7.513  12.272 -1.3724 -1.2753 -0.9070
  5074G12c C01U94264  10.482   7.314  12.207  0.9141 -0.6570  1.0173
  5074G12c C00S94265  10.236   7.450  11.727  1.8672 -0.6776 -0.3882
  5074G12c C00K94266  10.224   7.581  11.919 -0.8755  0.5530  1.5359
  5074G12c C00N94267  10.386   7.271  12.093  0.2956  3.0091  0.8109
  5074G12c C00094268  10.460   7.432  12.244 -0.5119 -1.0614  1.1318
  5074G12c C01J94269  10.530   7.632  12.202  0.0153 -2.6984 -0.3959
  5074G12c C01K94270  10.556   7.762  12.263  1.8750 -0.1018  0.1666
  5074G12c C01P94271  10.596   7.807  12.388  1.0369  0.0848 -0.3887
  5074G12c C01Q94272  10.583   7.718  12.500 -0.7353  0.3090  0.4795
  5074G12c H00G94273  10.670   7.687  12.556  2.8253  2.2332 -3.6606
  5074G12c C01R94274  10.459   7.671  12.516  0.7662  1.0487  0.3838
  5074G12c H00F94275  10.372   7.715  12.468  0.0595  0.1043  0.7749
  5074G12c C01S94276  10.400   7.552  12.617 -1.0095  0.2428  0.7787
  5074G12c H00E94277  10.432   7.573  12.719  1.7787 -1.2864  0.2847
  5074G12c H00D94278  10.297   7.528  12.593 -2.5379  4.8476  2.2073
  5074G12c O00594279  10.459   7.439  12.556  1.3575  0.0531 -1.2175
  5074G12c H00C94280  10.457   7.446  12.462  0.3773  3.1273 -1.0291
  5074G12c C01O94281  10.664   7.922  12.401 -0.1045 -1.7336 -1.8967
  5074G12c H00H94282  10.723   7.939  12.490  0.2337 -4.0631 -1.6398
  5074G12c C01N94283  10.620   8.033  12.327 -0.0174 -0.9835  1.3090
  5074G12c O00694284  10.709   8.142  12.339  0.7582 -1.1159  1.4695
  5074G12c C01T94285  10.717   8.248  12.245  0.6578  1.3505 -0.6778
  5074G12c H00K94286  10.612   8.273  12.233  0.2973  0.5815  0.6825
  5074G12c H00J94287  10.760   8.227  12.147 -3.9496  0.7740 -2.7243
  5074G12c H00I94288  10.758   8.333  12.300  3.5755  1.0359 -2.2546
  5074G12c C01M94289  10.545   8.009  12.216  0.1963 -1.1615  1.0394
  5074G12c C02094290  10.253   7.710  11.957  1.0294 -0.6190 -0.7994
  5074G12c C02194291  10.241   7.822  11.867 -0.0079 -0.4707 -0.5906
  5074G12c C01L94292  10.515   7.877  12.181  0.3200  0.6145  0.6456
  5074G12c O00794293  10.515   8.120  12.138  0.5925 -0.8546 -0.8420
  5074G12c C02294294  10.334   7.936  11.871  0.0338 -0.5721  1.0250
  5074G12c C02394295  10.192   7.825  11.742 -0.1776 -1.1869 -1.2144
  5074G12c C00G94296  10.239   7.798  11.474  0.5235  2.2193  0.0444
  5074G12c C00E94297  10.288   7.879  11.254  2.2435  1.7799  1.7483
  5074G12c O00A94298  10.349   7.853  11.126  0.5619 -0.1849  0.0160
  5074G12c C02494299  10.484   7.871  11.127  0.6649 -0.2203  0.1687
  5074G12c H00V94300  10.516   7.836  11.225  9.2927 -2.2338 -2.8906
  5074G12c H00U94301  10.488   7.980  11.133  3.9568 -0.0782 -2.8817
  5074G12c H00T94302  10.542   7.823  11.048 -2.1897  0.5740 -2.5007
  5084G12c C00D94303   3.300   3.971  13.597 -0.6350  0.4976  0.6520
  5084G12c O00B94304   3.381   4.073  13.539 -0.8985  0.7002  0.3149
  5084G12c C02594305   3.328   4.197  13.481  1.4643 -0.3357  0.2065
  5084G12c C02694306   3.374   4.159  13.348 -0.3983 -0.4360 -0.0042
  5084G12c H00Y94307   3.312   4.071  13.329  3.4874 -5.1944  7.0581
  5084G12c H00X94308   3.464   4.097  13.348 -2.2747 -3.4850  4.8954
  5084G12c O00C94309   3.370   4.264  13.262 -0.0269 -1.4398 -0.1303
  5084G12c H00W94310   3.432   4.335  13.263  0.9599 -2.3037  0.9878
  5084G12c C02794311   3.223   4.265  13.541 -0.3646 -0.5174 -0.0964
  5084G12c O00D94312   3.152   4.342  13.466  1.6020  0.2991 -0.1863
  5084G12c H00Z94313   3.193   4.350  13.381  3.2839  1.3826  0.7228
  5084G12c C02894314   3.197   4.270  13.684  0.8223  0.7004 -0.0785
  5084G12c C02994315   3.294   4.231  13.777  1.1710 -0.4360 -0.5311
  5084G12c H01094316   3.395   4.197  13.758  0.0565 -5.5419  1.8380
  5084G12c C02T94317   3.255   4.231  13.919  1.3431  0.2105  0.2895
  5084G12c H01O94318   3.306   4.180  14.000  0.5209  1.1228  1.4051
  5084G12c C02S94319   3.135   4.287  13.964 -0.3411 -1.4529 -0.6413
  5084G12c O00J94320   3.140   4.318  14.109 -0.6686 -0.2032  0.8549
  5084G12c H01P94321   3.207   4.266  14.151  2.9097 -1.5772 -5.8701
  5084G12c C02R94322   3.045   4.343  13.881 -0.3666  0.2000  0.4264
  5084G12c O00I94323   2.932   4.396  13.905  1.5064  0.9571 -0.1391
  5084G12c C02Q94324   2.925   4.538  13.921  0.6028  0.0808  0.9200
  5084G12c H01N94325   2.903   4.592  13.829 -0.6107 -1.1135  0.5003
  5084G12c H01R94326   2.961   4.586  14.012 -7.5905 -3.5127  6.5841
  5084G12c H01Q94327   2.823   4.554  13.956  1.7321  3.8013  2.7386
  5084G12c C02A94328   3.086   4.332  13.749 -0.1984 -0.4458  0.4726
  5084G12c H01194329   3.017   4.380  13.681 -0.5507  5.1919  4.4527
  5084G12c C00C94330   3.173   3.968  13.570  0.2417  0.5041  0.5429
  5084G12c H01294331   3.110   4.008  13.492 -4.9500 -2.7660  2.7609
  5084G12c C00B94332   3.077   3.875  13.631  1.3794  1.0253 -0.0834
  5084G12c C00A94333   2.937   3.855  13.586  0.0199 -0.1370 -1.0511
  5084G12c C00994334   2.846   3.954  13.526  0.0771 -0.4789  0.7491
  5084G12c C00894335   2.859   4.087  13.511  1.4054  0.1907  1.3582
  5084G12c H01394336   2.963   4.102  13.486  1.0486  1.1961  0.4408
  5084G12c C00794337   2.726   4.155  13.467 -2.7696  0.1995 -0.0566
  5084G12c H01494338   2.722   4.262  13.451 -0.3887  0.1175 -1.4211
  5084G12c C00694339   2.607   4.069  13.496 -0.5051 -0.3872  0.2460
  5084G12c C00594340   2.622   3.936  13.514  1.1969  0.4432  0.1621
  5084G12c C00494341   2.511   3.856  13.558 -1.0455 -0.8210 -1.5058
  5084G12c C00394342   2.525   3.729  13.628 -1.9868 -0.4978  0.7024
  5084G12c C00294343   2.418   3.682  13.704 -1.7020  1.7381 -0.5566
  5084G12c C00194344   2.399   3.564  13.781  0.8687 -0.3586 -1.1078
  5084G12c C00M94345   2.495   3.493  13.869 -0.3689  0.2857 -0.5131
  5084G12c C00L94346   2.637   3.462  13.820 -0.4129  0.3695  1.2180
  5084G12c C00R94347   2.730   3.421  13.906 -1.5723  1.1221 -0.7972
  5084G12c C00Q94348   2.733   3.398  14.048  0.1049  0.1007  2.0082
  5084G12c C00V94349   2.865   3.392  14.113  1.0538 -0.1135  0.0991
  5084G12c C00U94350   2.980   3.451  14.048 -1.1383  1.5542 -1.6609
  5084G12c C00T94351   2.972   3.495  13.917  1.9298  1.3473 -0.4423
  5084G12c C01694352   3.060   3.585  13.864  0.3917  1.6314  0.3251
  5084G12c C01594353   3.175   3.598  13.944  1.8576 -0.6834  0.2158
  5084G12c C01094354   3.194   3.512  14.057  1.4192 -0.0018  0.0621
  5084G12c C01194355   3.312   3.530  14.137 -0.4408  0.3377  1.6916
  5084G12c H00594356   3.325   3.500  14.240  4.8082  0.9065  1.2895
  5084G12c C01294357   3.409   3.648  14.113 -0.0462  0.4142  0.5151
  5084G12c C01794358   3.522   3.667  14.186 -0.0632 -1.0735  1.2949
  5084G12c O00294359   3.563   3.542  14.237  0.1250  0.9395 -0.5012
  5084G12c H00494360   3.657   3.533  14.246  0.2740 -0.7189 -3.3326
  5084G12c C01894361   3.585   3.798  14.193 -1.2108 -0.1030 -0.6814
  5084G12c O00194362   3.535   3.903  14.133  1.3771  0.4173 -0.2576
  5084G12c H00394363   3.584   3.961  14.189 -2.5217  2.1098  1.5566
  5084G12c C01994364   3.715   3.816  14.287 -0.9280  1.0188 -0.1095
  5084G12c H00294365   3.726   3.894  14.362 -4.6536  0.4519  1.1300
  5084G12c H00194366   3.714   3.741  14.366  0.7451 -3.1746 -3.8435
  5084G12c O00094367   3.835   3.837  14.219  0.7298 -1.3533 -0.4155
  5084G12c C01A94368   3.809   3.948  14.130  0.1917  1.6047  0.2607
  5084G12c C02K94369   3.824   4.085  14.191  0.7657 -1.3289 -1.9059
  5084G12c O00G94370   3.821   4.137  14.316 -0.6139 -1.7433  0.6525
  5084G12c C02M94371   3.926   4.093  14.400 -0.8782 -0.7957  2.8116
  5084G12c H01G94372   4.023   4.096  14.349 -4.3299  0.3838 -4.3710
  5084G12c H01F94373   3.912   3.992  14.438  0.5971 -1.8248  0.7609
  5084G12c H01E94374   3.957   4.153  14.486 -0.4248 -1.5637  3.1799
  5084G12c C02J94375   3.816   4.206  14.109  0.4336  1.4377 -0.1695
  5084G12c H01H94376   3.820   4.286  14.181 -4.3470  3.0549 -1.5287
  5084G12c C02I94377   3.811   4.204  13.971 -0.0773 -1.0858  1.7972
  5084G12c C02N94378   3.769   4.315  13.878  1.0199 -0.1780 -0.0955
  5084G12c H01M94379   3.666   4.343  13.895  0.6326 -2.1956  0.9665
  5084G12c C02O94380   3.843   4.354  13.779 -1.2226 -0.5382  0.4833
  5084G12c H01L94381   3.818   4.443  13.721  4.1696  0.4727 -0.6040
  5084G12c C02P94382   3.984   4.311  13.754  1.1589  0.9057 -1.3213
  5084G12c H01K94383   4.053   4.395  13.742  4.1677 -0.4045  4.8341
  5084G12c H01J94384   4.046   4.266  13.832 -1.8017 -3.1592 -1.1687
  5084G12c O00H94385   3.978   4.209  13.644 -1.3941  0.7098  1.1751
  5084G12c H01I94386   4.050   4.247  13.595 -0.1538 -4.1820 -1.1139
  5084G12c C02H94387   3.825   4.074  13.921  1.4204  0.0316  0.6273
  5084G12c H01C94388   3.848   4.058  13.817  0.7497 -4.0199  1.0293
  5084G12c C02L94389   3.807   3.950  13.991  0.4666  0.8610 -1.3087
  5084G12c H01D94390   3.774   3.859  13.943 -0.2471 -0.0349  0.8296
  5084G12c C01394391   3.389   3.696  13.983  0.4108  0.4214  1.0395
  5084G12c H00094392   3.472   3.762  13.963 -2.3153  3.1782 -1.7909
  5084G12c C01494393   3.264   3.703  13.896 -0.9804 -0.2050 -2.1328
  5084G12c C00F94394   3.234   3.781  13.776 -0.5221 -1.2862 -1.4506
  5084G12c C00H94395   3.033   3.666  13.760 -1.1684  1.0527 -0.4691
  5084G12c C00I94396   2.918   3.636  13.685  0.7416 -1.9200  0.6727
  5084G12c C00J94397   2.831   3.538  13.744  0.3362  0.6185  1.0535
  5084G12c C00Z94398   3.091   3.425  14.101 -1.3583  2.1239 -0.9449
  5084G12c C00Y94399   3.108   3.342  14.213 -0.8312 -0.3119  1.3643
  5084G12c H00694400   3.205   3.310  14.249 -1.4379 -0.3090  3.0706
  5084G12c C00X94401   3.015   3.268  14.259 -0.7185 -1.0474  0.7002
  5084G12c O00394402   3.039   3.187  14.360 -0.5576  0.2389  0.0149
  5084G12c C01B94403   2.962   3.063  14.388 -0.3573  0.7865  1.9015
  5084G12c H00994404   2.862   3.093  14.420  0.9251  3.6544  3.4272
  5084G12c H00894405   3.005   2.987  14.452 -1.5284 -1.0024  0.6157
  5084G12c H00794406   2.963   3.034  14.283 -4.5200 -2.9800  2.7388
  5084G12c C00W94407   2.881   3.313  14.226  0.9058 -0.8394 -0.4804
  5084G12c O00494408   2.770   3.270  14.297 -0.7498  0.1363  0.3967
  5084G12c C01C94409   2.655   3.332  14.269 -1.3318 -0.2790 -0.8945
  5084G12c H00A94410   2.581   3.271  14.319 -1.1570 -1.6404 -2.2660
  5084G12c C00P94411   2.632   3.404  14.143  0.6256  0.2204  0.2967
  5084G12c C00O94412   2.529   3.497  14.126 -0.2727 -1.2663 -0.3826
  5084G12c C01D94413   2.473   3.564  14.240  0.9567 -1.8316 -1.5607
  5084G12c H00S94414   2.491   3.556  14.346  1.3654  1.5451 -1.3185
  5084G12c C01E94415   2.365   3.666  14.242  1.6290  0.5592  0.8544
  5084G12c O00894416   2.324   3.719  14.358  1.2726 -0.0614  1.2852
  5084G12c C01V94417   2.322   3.858  14.381 -0.0552 -0.5077 -0.1983
  5084G12c C01Z94418   2.189   3.887  14.429 -1.0014 -0.3284 -0.9193
  5084G12c H00R94419   2.152   3.963  14.361 -2.4447 -0.3099 -0.1419
  5084G12c H00Q94420   2.114   3.823  14.383 -4.2484 -0.9413  4.7196
  5084G12c O00994421   2.145   3.816  14.551 -0.3101  1.6127  0.0049
  5084G12c H00P94422   2.195   3.741  14.580 -2.3348  1.0419  2.1909
  5084G12c C01W94423   2.423   3.933  14.327  0.5943 -0.0568  0.0781
  5084G12c H00O94424   2.475   3.883  14.247 -2.3770  0.5744 -2.3265
  5084G12c C01X94425   2.458   4.081  14.336  0.3274  1.6139 -1.2008
  5084G12c H00N94426   2.414   4.124  14.427  4.6425 -2.2183  2.9175
  5084G12c H00M94427   2.565   4.062  14.328 -0.1781 -0.2214 -4.3535
  5084G12c C01Y94428   2.435   4.165  14.212 -1.3201  0.2762 -0.6050
  5084G12c C02D94429   2.445   4.117  14.077 -0.2710  1.0096 -2.2366
  5084G12c H01994430   2.492   4.023  14.051 -0.6609 -0.2727  1.3120
  5084G12c C02C94431   2.431   4.201  13.982 -0.3813 -1.4013 -1.3129
  5084G12c H01A94432   2.410   4.163  13.883 -0.2180  1.3592 -2.4718
  5084G12c C02B94433   2.457   4.337  14.008  2.5061 -0.3720  1.8097
  5084G12c O00E94434   2.484   4.420  13.896  0.4959  1.6726  0.8640
  5084G12c H01B94435   2.520   4.503  13.922  6.1528 -0.8741  1.9570
  5084G12c C02F94436   2.435   4.391  14.137  1.1423 -0.7597 -1.3437
  5084G12c O00F94437   2.430   4.539  14.145  0.3828 -1.5075 -0.9487
  5084G12c C02G94438   2.480   4.612  14.248 -1.4939 -1.1986  0.0922
  5084G12c H01794439   2.401   4.686  14.263 -0.6095 -0.7161  2.5552
  5084G12c H01694440   2.561   4.684  14.250 -1.9686 -0.3373 -4.7449
  5084G12c H01594441   2.449   4.562  14.340 -6.0659  2.4880  0.7765
  5084G12c C02E94442   2.409   4.300  14.240 -0.0470 -1.0678  0.3601
  5084G12c H01894443   2.371   4.330  14.337 -1.3195  0.4317 -0.5847
  5084G12c C01F94444   2.311   3.683  14.109  0.6426  0.6670 -0.9917
  5084G12c C01G94445   2.232   3.793  14.068  0.0283 -1.8910  0.2220
  5084G12c H00L94446   2.205   3.859  14.149 -3.7540 -1.8240 -1.0007
  5084G12c C01H94447   2.180   3.837  13.943 -0.1164  2.0389 -0.2388
  5084G12c H00B94448   2.105   3.913  13.958  3.3168  4.9509  3.0685
  5084G12c C01I94449   2.220   3.732  13.833  0.6067 -0.5142  0.1381
  5084G12c C01U94450   2.324   3.597  14.005  0.0767  0.3623 -1.2233
  5084G12c C00S94451   2.852   3.456  13.851  0.8275  0.0720  0.5090
  5084G12c C00K94452   2.692   3.543  13.712 -0.9332  0.9359  0.5980
  5084G12c C00N94453   2.458   3.527  13.999 -0.3994 -0.6007 -0.3553
  5084G12c C00094454   2.287   3.611  13.872 -1.4314 -0.1767 -0.4689
  5084G12c C01J94455   2.300   3.764  13.714 -0.0651 -0.7136  0.4735
  5084G12c C01K94456   2.262   3.862  13.609 -1.5355  0.5822  0.8228
  5084G12c C01P94457   2.133   3.925  13.573  0.3130  1.1774 -0.5980
  5084G12c C01Q94458   2.013   3.861  13.646 -0.8512 -1.5111  0.0633
  5084G12c H00G94459   2.037   3.760  13.675  7.8641 -1.1567 -4.2774
  5084G12c C01R94460   1.902   3.923  13.691 -1.3746  0.6364 -0.3831
  5084G12c H00F94461   1.903   4.031  13.687  2.0480  0.6158 -1.6307
  5084G12c C01S94462   1.794   3.894  13.771 -0.0166  1.9950 -1.7770
  5084G12c H00E94463   1.838   3.884  13.870  2.9060 -1.7673 -3.2931
  5084G12c H00D94464   1.727   3.979  13.759 -4.8334 -1.5609 -1.3845
  5084G12c O00594465   1.747   3.767  13.740 -0.1423  0.4256  1.7835
  5084G12c H00C94466   1.804   3.699  13.771 -3.3882 -1.7201  3.3136
  5084G12c C01O94467   2.137   4.021  13.478  1.3575  0.6605  0.3055
  5084G12c H00H94468   2.052   4.030  13.413  0.1928  4.3778  2.2514
  5084G12c C01N94469   2.254   4.093  13.437  0.7432 -1.4112 -0.1383
  5084G12c O00694470   2.250   4.190  13.340  1.2672  0.6633 -0.2185
  5084G12c C01T94471   2.287   4.147  13.221 -0.4599 -0.6346  1.8957
  5084G12c H00K94472   2.395   4.151  13.213 -0.7161 -1.1086 -3.2178
  5084G12c H00J94473   2.246   4.054  13.183 -2.7337 -0.4396  3.7080
  5084G12c H00I94474   2.257   4.194  13.127  0.1964  2.2899  3.0846
  5084G12c C01M94475   2.379   4.054  13.498 -0.0234  0.8049  1.0645
  5084G12c C02094476   2.655   3.657  13.627 -0.9705 -0.0600 -0.1157
  5084G12c C02194477   2.759   3.740  13.561  1.1887 -1.0010 -0.5248
  5084G12c C01L94478   2.383   3.909  13.541 -0.2675  0.2785 -1.1216
  5084G12c O00794479   2.484   4.132  13.488  0.0353 -1.2410 -0.6211
  5084G12c C02294480   2.743   3.869  13.515 -1.4111  1.2908 -0.1522
  5084G12c C02394481   2.885   3.731  13.586  1.7367  1.3458 -0.6592
  5084G12c C00G94482   3.113   3.771  13.717 -0.7309 -0.2416  0.1768
  5084G12c C00E94483   3.343   3.862  13.695 -0.2985 -2.0262  0.7557
  5084G12c O00A94484   3.470   3.893  13.752  0.3129 -0.2428 -0.6046
  5084G12c C02494485   3.615   3.920  13.692 -0.1939 -1.0660  1.8394
  5084G12c H00V94486   3.671   3.835  13.729  2.2307 -0.4762 -0.3757
  5084G12c H00U94487   3.669   4.011  13.717 -3.6807 -0.1825  7.0002
  5084G12c H00T94488   3.616   3.930  13.583  1.7213 -2.8388  1.6791
  5094G12c C00D94489   5.693   4.505   5.281  0.1405 -1.9879  0.3384
  5094G12c O00B94490   5.757   4.415   5.208 -0.2126  0.3398  0.4659
  5094G12c C02594491   5.895   4.396   5.211  0.6599  0.2990  0.9829
  5094G12c C02694492   5.981   4.518   5.162  0.0542 -2.2987 -0.6817
  5094G12c H00Y94493   5.926   4.563   5.080 -3.7788 -0.3644  2.7856
  5094G12c H00X94494   6.073   4.500   5.106  0.0686 -6.3472  0.4930
  5094G12c O00C94495   6.042   4.605   5.249  0.2148 -0.1841 -0.1851
  5094G12c H00W94496   6.111   4.548   5.281  3.4681  1.7863 -3.3514
  5094G12c C02794497   5.958   4.294   5.265  1.0359 -2.1082  0.3270
  5094G12c O00D94498   6.087   4.313   5.315 -0.1528 -0.0808 -0.0360
  5094G12c H00Z94499   6.115   4.224   5.329  2.8345  0.6043 -1.3610
  5094G12c C02894500   5.891   4.176   5.325 -0.8088 -0.5311  1.4617
  5094G12c C02994501   5.803   4.198   5.429  0.7450 -1.1906  0.1385
  5094G12c H01094502   5.749   4.288   5.403 -3.5427 -1.1873  7.3904
  5094G12c C02T94503   5.744   4.088   5.491 -1.1339 -0.7776 -0.2789
  5094G12c H01O94504   5.649   4.098   5.542 -2.0474 -1.1829 -1.8826
  5094G12c C02S94505   5.828   3.968   5.515  0.2594 -0.8883  0.7661
  5094G12c O00J94506   5.793   3.848   5.568 -0.7644  1.4414  0.7657
  5094G12c H01P94507   5.817   3.765   5.530 -5.9926  0.0829  0.0710
  5094G12c C02R94508   5.917   3.950   5.402 -0.7495 -0.9560 -1.2660
  5094G12c O00I94509   5.998   3.844   5.400 -0.5465 -1.1737 -0.8169
  5094G12c C02Q94510   6.086   3.828   5.281 -0.0368  0.9610 -0.0044
  5094G12c H01N94511   6.035   3.798   5.189 -2.8352  0.1504  1.7341
  5094G12c H01R94512   6.169   3.758   5.285 -1.8581 -1.3578 -1.0179
  5094G12c H01Q94513   6.157   3.910   5.282 -3.2945  4.0378  6.5603
  5094G12c C02A94514   5.953   4.058   5.312  1.4662 -0.7404  0.9675
  5094G12c H01194515   6.014   4.048   5.223 -1.2015 -7.0371 -0.4397
  5094G12c C00C94516   5.746   4.558   5.409  1.3794  1.7446 -1.0797
  5094G12c H01294517   5.848   4.548   5.442  2.0194 -4.9890 -4.2598
  5094G12c C00B94518   5.692   4.670   5.482  0.6443  1.1272  1.2847
  5094G12c C00A94519   5.757   4.730   5.596 -1.9080  0.6415  0.5231
  5094G12c C00994520   5.813   4.668   5.697 -1.5185  0.3680 -0.6261
  5094G12c C00894521   5.842   4.534   5.733 -1.2118 -0.3073  1.0382
  5094G12c H01394522   5.845   4.450   5.666 -1.4247 -0.3115  1.0346
  5094G12c C00794523   5.902   4.520   5.865  0.4078 -0.8316  2.4582
  5094G12c H01494524   5.957   4.431   5.891 -1.8556 -1.9796  3.4212
  5094G12c C00694525   5.922   4.615   5.972 -1.0347 -0.4837  0.7560
  5094G12c C00594526   5.857   4.732   5.930 -0.0420 -0.5355  1.5958
  5094G12c C00494527   5.816   4.816   6.019 -0.2505 -0.3066 -0.1449
  5094G12c C00394528   5.727   4.920   5.981 -1.4090  0.3854  0.7938
  5094G12c C00294529   5.666   4.989   6.094  1.2007 -1.2739  0.1418
  5094G12c C00194530   5.576   5.111   6.080 -1.0654 -0.0214 -0.3917
  5094G12c C00M94531   5.465   5.154   5.982  0.5983  0.2914  2.1842
  5094G12c C00L94532   5.473   5.129   5.851 -0.0625 -1.7637  1.3413
  5094G12c C00R94533   5.362   5.103   5.764 -0.0478  0.6527  0.5017
  5094G12c C00Q94534   5.220   5.149   5.778  0.2975  0.8374  1.4931
  5094G12c C00V94535   5.155   5.078   5.668 -0.1800  0.2038 -0.9593
  5094G12c C00U94536   5.201   5.006   5.561 -0.6567  0.3174 -1.2469
  5094G12c C00T94537   5.330   4.967   5.572  0.0999 -1.7515  0.2194
  5094G12c C01694538   5.388   4.866   5.499  0.3262 -0.6576 -0.3804
  5094G12c C01594539   5.316   4.804   5.401  1.1586 -1.9482  0.2150
  5094G12c C01094540   5.182   4.855   5.372  0.2834 -0.8204  0.7090
  5094G12c C01194541   5.105   4.815   5.256 -1.5622 -1.0444  0.6830
  5094G12c H00594542   5.001   4.843   5.258 -0.5425  2.9722  1.4815
  5094G12c C01294543   5.169   4.740   5.165  0.0432  1.7873 -0.0419
  5094G12c C01794544   5.095   4.741   5.030  0.9580  1.4328  1.5903
  5094G12c O00294545   5.013   4.847   5.006  0.3701  1.1821  0.9738
  5094G12c H00494546   4.997   4.870   4.916  1.2882  3.2156  1.2926
  5094G12c C01894547   5.101   4.646   4.940 -0.0828 -0.2630  1.0160
  5094G12c O00194548   5.157   4.528   4.977 -0.7982  1.5922 -1.7356
  5094G12c H00394549   5.133   4.549   5.066  0.0561 -4.4340  0.1246
  5094G12c C01994550   5.051   4.653   4.798  0.5399 -0.2210 -1.4717
  5094G12c H00294551   5.151   4.649   4.754 -0.8851  3.8100 -5.4653
  5094G12c H00194552   5.030   4.573   4.728 -5.6375  2.2095 -2.7213
  5094G12c O00094553   4.995   4.785   4.757  2.6582 -0.3512 -0.3659
  5094G12c C01A94554   4.867   4.768   4.704  0.5029 -1.0193 -0.7002
  5094G12c C02K94555   4.840   4.694   4.587  0.1183  0.2190  0.1630
  5094G12c O00G94556   4.951   4.664   4.506  0.6515 -0.7914 -1.8691
  5094G12c C02M94557   4.940   4.721   4.377 -1.6750  0.9442  0.5674
  5094G12c H01G94558   4.880   4.659   4.310  1.1874  0.4457 -1.5987
  5094G12c H01F94559   5.027   4.766   4.330 -2.5639  0.2080 -1.8701
  5094G12c H01E94560   4.864   4.800   4.380 -4.4454 -1.6553  0.6755
  5094G12c C02J94561   4.701   4.663   4.562 -0.4543  0.7445 -0.5815
  5094G12c H01H94562   4.676   4.600   4.478  0.5285 -3.2922  1.9910
  5094G12c C02I94563   4.599   4.688   4.654  2.6637  0.0042 -0.7491
  5094G12c C02N94564   4.489   4.618   4.627  0.1138 -2.0608  0.9883
  5094G12c H01M94565   4.494   4.510   4.635  0.9214 -2.0503  0.7039
  5094G12c C02O94566   4.380   4.666   4.596  0.7159 -0.4728  0.8039
  5094G12c H01L94567   4.308   4.586   4.598  0.7680 -0.5281  0.4241
  5094G12c C02P94568   4.340   4.820   4.584 -0.5001 -0.0118  1.1010
  5094G12c H01K94569   4.424   4.890   4.589 -1.6637  1.4991 -0.0013
  5094G12c H01J94570   4.278   4.812   4.495  2.3592 -1.2557 -0.8467
  5094G12c O00H94571   4.239   4.852   4.680 -0.7115 -0.8152  0.6596
  5094G12c H01I94572   4.200   4.771   4.713 -0.8940 -1.4493 -1.0620
  5094G12c C02H94573   4.617   4.762   4.766  1.5150 -2.7716 -0.3605
  5094G12c H01C94574   4.535   4.781   4.834 -2.1105  0.6113 -5.3017
  5094G12c C02L94575   4.759   4.793   4.796 -0.9745 -0.6042 -0.4781
  5094G12c H01D94576   4.767   4.818   4.901 -0.3391 -7.7583  1.4447
  5094G12c C01394577   5.301   4.694   5.185  0.8879 -0.8950  1.9016
  5094G12c H00094578   5.370   4.656   5.112  2.9006  1.1879  2.6173
  5094G12c C01494579   5.368   4.723   5.303  1.2513 -0.7006  0.6415
  5094G12c C00F94580   5.508   4.671   5.331  0.2240 -0.3040 -0.2374
  5094G12c C00H94581   5.519   4.826   5.527 -0.5655 -0.9057  0.2901
  5094G12c C00I94582   5.604   4.906   5.605  1.4211 -0.4256  0.4277
  5094G12c C00J94583   5.546   5.019   5.664  1.5696  1.3887 -0.1899
  5094G12c C00Z94584   5.129   4.958   5.464  0.7582 -0.0395 -0.0933
  5094G12c C00Y94585   5.003   5.007   5.436  0.6649  1.6998 -0.1233
  5094G12c H00694586   4.947   5.017   5.345  0.8078  1.5475 -0.2269
  5094G12c C00X94587   4.941   5.070   5.540  0.9800 -2.3083 -0.5813
  5094G12c O00394588   4.813   5.122   5.520 -0.1307  0.6584 -0.8706
  5094G12c C01B94589   4.741   5.073   5.628 -0.8728  0.7023 -0.2899
  5094G12c H00994590   4.686   5.162   5.659 -1.2013  0.1997  0.5478
  5094G12c H00894591   4.788   5.013   5.705 -4.4795  1.6300  2.7561
  5094G12c H00794592   4.660   5.034   5.567 -0.8875  2.9067 -1.7795
  5094G12c C00W94593   5.017   5.112   5.659  0.5322 -1.5050  0.7588
  5094G12c O00494594   4.947   5.189   5.757 -0.3474  0.1494  0.7167
  5094G12c C01C94595   4.995   5.178   5.887  1.0234 -0.3177 -0.0521
  5094G12c H00A94596   4.942   5.116   5.958 -0.4557  1.5539  0.5297
  5094G12c C00P94597   5.141   5.174   5.889  0.1096 -0.6428  1.2100
  5094G12c C00O94598   5.199   5.185   6.020 -0.2490  0.2126  0.9874
  5094G12c C01D94599   5.118   5.205   6.127  0.4689  2.1066 -0.5198
  5094G12c H00S94600   5.014   5.231   6.123 -1.3629 -4.3703 -0.4976
  5094G12c C01E94601   5.139   5.122   6.250 -1.8092 -1.7391 -0.1723
  5094G12c O00894602   5.047   5.066   6.313 -0.1814  0.1046  1.3355
  5094G12c C01V94603   4.928   5.027   6.240  1.3762 -0.3845  0.5597
  5094G12c C01Z94604   4.961   4.914   6.130  2.2064  0.1871 -0.2256
  5094G12c H00R94605   5.052   4.956   6.088  0.1004  4.3428 -0.9021
  5094G12c H00Q94606   4.989   4.823   6.183  1.3077  0.9101  1.5413
  5094G12c O00994607   4.887   4.900   6.005 -0.4713 -2.0544  0.1519
  5094G12c H00P94608   4.914   4.811   5.984  3.0738 -0.3130 -3.3537
  5094G12c C01W94609   4.822   5.099   6.251 -1.5772  0.6888 -1.3806
  5094G12c H00O94610   4.835   5.192   6.304  0.2483  0.2451 -1.0146
  5094G12c C01X94611   4.692   5.081   6.183  0.3922  1.2339 -0.0995
  5094G12c H00N94612   4.709   5.027   6.090  1.8648 -3.5658  2.7859
  5094G12c H00M94613   4.627   5.004   6.225  1.2138  0.6570  0.1238
  5094G12c C01Y94614   4.642   5.230   6.154  0.5462 -0.4386 -1.3367
  5094G12c C02D94615   4.659   5.274   6.021  0.8838 -0.0891 -0.5551
  5094G12c H01994616   4.699   5.211   5.943  0.8896 -1.5717  0.6218
  5094G12c C02C94617   4.673   5.431   5.999  0.8376  1.1803  0.0751
  5094G12c H01A94618   4.660   5.479   5.903 -0.5215  1.7189  0.5270
  5094G12c C02B94619   4.632   5.499   6.105 -0.4151  0.1800  0.3301
  5094G12c O00E94620   4.608   5.636   6.075  0.6086  0.0687 -0.6994
  5094G12c H01B94621   4.602   5.649   5.982 -3.2743  7.5014  0.1771
  5094G12c C02F94622   4.573   5.450   6.230 -0.1251  1.1356  0.2588
  5094G12c O00F94623   4.537   5.521   6.335 -0.2310  0.9536  0.3281
  5094G12c C02G94624   4.619   5.604   6.421 -0.4484  0.6937 -0.6090
  5094G12c H01794625   4.678   5.528   6.473 -0.4446  1.1635  0.0872
  5094G12c H01694626   4.585   5.669   6.502 -4.2945  3.7799 -4.4818
  5094G12c H01594627   4.690   5.652   6.356  1.4666  2.7502  2.8618
  5094G12c C02E94628   4.575   5.308   6.253  0.3920 -0.7423  1.5148
  5094G12c H01894629   4.541   5.243   6.331  1.0902 -3.7107 -0.5765
  5094G12c C01F94630   5.265   5.068   6.271 -0.0688  0.0788  0.6074
  5094G12c C01G94631   5.302   4.967   6.364  1.1976  1.4150  0.8001
  5094G12c H00L94632   5.227   4.932   6.433  1.1718  7.1827  3.9963
  5094G12c C01H94633   5.431   4.919   6.361  1.4955 -0.3068  1.3762
  5094G12c H00B94634   5.461   4.820   6.393  7.2798  0.9826  0.4717
  5094G12c C01I94635   5.538   4.988   6.286  0.5711  1.2216 -0.6035
  5094G12c C01U94636   5.366   5.104   6.182 -1.6066  1.2486 -0.8639
  5094G12c C00S94637   5.411   5.046   5.646  0.3681 -1.3522  0.8214
  5094G12c C00K94638   5.587   5.054   5.800 -0.1066  0.8101  0.8309
  5094G12c C00N94639   5.344   5.166   6.059 -0.6408  1.0193  0.8549
  5094G12c C00094640   5.504   5.090   6.204  0.0944  1.1623 -1.5674
  5094G12c C01J94641   5.651   4.927   6.208  0.3247 -0.3613  2.0613
  5094G12c C01K94642   5.748   4.820   6.259  1.2495 -0.8872  1.0053
  5094G12c C01P94643   5.796   4.781   6.392  1.2533 -0.7377  1.2492
  5094G12c C01Q94644   5.759   4.865   6.506 -0.6273 -0.2123  0.4039
  5094G12c H00G94645   5.692   4.828   6.582  0.2752 -3.8919 -0.4542
  5094G12c C01R94646   5.851   4.963   6.525  1.8877 -0.0253 -0.4158
  5094G12c H00F94647   5.903   4.988   6.433 -1.7932  1.2706 -2.2624
  5094G12c C01S94648   5.819   5.050   6.633 -1.1054  0.2290 -0.2683
  5094G12c H00E94649   5.715   5.074   6.613 -0.5209  2.7391 -0.4086
  5094G12c H00D94650   5.894   5.129   6.636 -0.6628 -0.2089  0.8711
  5094G12c O00594651   5.862   4.979   6.754  0.2718  0.4839  0.5628
  5094G12c H00C94652   5.825   5.028   6.825 -0.0861  4.6156 -2.2809
  5094G12c C01O94653   5.899   4.695   6.403 -0.8287 -0.8648 -1.4187
  5094G12c H00H94654   5.957   4.708   6.493 -1.1004 -0.6757 -1.2674
  5094G12c C01N94655   5.966   4.623   6.299 -0.5473  0.6418  0.4792
  5094G12c O00694656   6.090   4.551   6.302  1.9652  0.6230  1.3759
  5094G12c C01T94657   6.142   4.490   6.412  0.0414  1.0683  0.4257
  5094G12c H00K94658   6.062   4.445   6.471  2.0163 -4.8390 -1.0298
  5094G12c H00J94659   6.189   4.575   6.462 -2.0250  1.0857  2.4094
  5094G12c H00I94660   6.239   4.450   6.382  0.1512  1.1310  0.6988
  5094G12c C01M94661   5.919   4.653   6.183 -1.0316 -0.3817  0.3941
  5094G12c C02094662   5.702   4.959   5.846 -0.9052  1.6715 -1.3503
  5094G12c C02194663   5.768   4.891   5.760 -1.3773 -0.4442  0.1706
  5094G12c C01L94664   5.823   4.774   6.149  1.3405  0.1776 -1.1839
  5094G12c O00794665   5.975   4.571   6.087 -0.6177  1.6814 -0.0149
  5094G12c C02294666   5.831   4.780   5.792  0.7163  2.5750 -0.1754
  5094G12c C02394667   5.731   4.860   5.628  0.2481 -1.8380 -0.6131
  5094G12c C00G94668   5.580   4.732   5.446  0.9979 -0.0934 -0.7801
  5094G12c C00E94669   5.566   4.567   5.244  1.5725 -0.1348 -1.2558
  5094G12c O00A94670   5.513   4.521   5.110  0.4296 -2.4035 -1.0909
  5094G12c C02494671   5.483   4.380   5.104 -0.2940 -0.0945  1.1533
  5094G12c H00V94672   5.583   4.337   5.102  0.7951  1.8705  6.1215
  5094G12c H00U94673   5.419   4.379   5.016 -1.0948  2.3901  1.6542
  5094G12c H00T94674   5.453   4.308   5.180  5.8476 -6.5948 -2.0618
  5104G12c C00D94675   9.248  10.466  10.859  0.0652  0.1455  1.1626
  5104G12c O00B94676   9.325  10.362  10.792 -0.6503  0.3973  0.3260
  5104G12c C02594677   9.373  10.256  10.857 -0.5285 -0.6385 -1.4513
  5104G12c C02694678   9.267  10.144  10.871 -0.7905 -0.8051  0.8444
  5104G12c H00Y94679   9.328  10.055  10.888  0.2086 -0.4321 -0.6421
  5104G12c H00X94680   9.199  10.127  10.788 -3.6519 -0.9727  3.1612
  5104G12c O00C94681   9.206  10.176  10.995 -1.5058  0.0732  0.1824
  5104G12c H00W94682   9.113  10.163  10.988 -1.9019  2.1282  1.1769
  5104G12c C02794683   9.514  10.244  10.890  0.2850 -0.2255 -0.5852
  5104G12c O00D94684   9.592  10.356  10.851 -1.4000 -0.3846 -0.2515
  5104G12c H00Z94685   9.579  10.417  10.780 -1.4322  2.8156  2.3777
  5104G12c C02894686   9.566  10.122  10.951  1.2888  1.1595 -0.1986
  5104G12c C02994687   9.632  10.048  10.865 -0.6142  1.4508 -0.1821
  5104G12c H01094688   9.640  10.076  10.761 -2.1879 -2.3542 -1.3945
  5104G12c C02T94689   9.699   9.928  10.915 -0.3036  0.6270  1.3319
  5104G12c H01O94690   9.667   9.858  10.840  4.4822 -1.9123  1.4396
  5104G12c C02S94691   9.736   9.914  11.054 -0.3903 -1.6992  0.8740
  5104G12c O00J94692   9.805   9.798  11.097  1.6031 -0.8250  0.3435
  5104G12c H01P94693   9.723   9.755  11.116  2.8375 -4.6739 -2.5303
  5104G12c C02R94694   9.668  10.010  11.148  0.2376 -0.3915  0.2364
  5104G12c O00I94695   9.683  10.019  11.290  0.3251  0.9720  0.5101
  5104G12c C02Q94696   9.798   9.987  11.343 -0.2014 -0.2349  1.5959
  5104G12c H01N94697   9.877   9.961  11.272 -1.8621 -1.6638  0.2072
  5104G12c H01R94698   9.815   9.904  11.412  6.2740 -1.4617 -1.0857
  5104G12c H01Q94699   9.856  10.075  11.371 -0.0570 -2.2455  8.4149
  5104G12c C02A94700   9.580  10.116  11.094  0.6205  0.5060 -0.1918
  5104G12c H01194701   9.548  10.190  11.166  0.0869  3.0514 -2.9760
  5104G12c C00C94702   9.116  10.475  10.841  0.3496 -0.3843 -0.0604
  5104G12c H01294703   9.073  10.399  10.777  4.5359  0.4063 -4.1355
  5104G12c C00B94704   9.051  10.588  10.868  1.9102 -1.9949  0.4074
  5104G12c C00A94705   8.906  10.615  10.843 -0.1545  0.8793 -1.4713
  5104G12c C00994706   8.871  10.625  10.713 -0.3887 -0.9623  0.3071
  5104G12c C00894707   8.915  10.572  10.595 -0.5146 -1.9678 -0.2391
  5104G12c H01394708   8.980  10.488  10.573  3.4631  2.7689 -9.2908
  5104G12c C00794709   8.872  10.636  10.466  0.8202  0.4049  0.6583
  5104G12c H01494710   8.918  10.618  10.370  1.3600 -0.7598  1.1220
  5104G12c C00694711   8.780  10.740  10.480  1.1978  2.0620  1.5464
  5104G12c C00594712   8.724  10.777  10.601  1.1320  1.2525 -1.0626
  5104G12c C00494713   8.679  10.909  10.623  0.1648 -0.4499  1.3223
  5104G12c C00394714   8.641  10.969  10.746 -0.4507 -0.9561 -0.5210
  5104G12c C00294715   8.593  11.091  10.751  2.6758  1.1443  0.4123
  5104G12c C00194716   8.550  11.177  10.857  0.9414 -2.3637  0.4859
  5104G12c C00M94717   8.652  11.223  10.928  0.4189 -0.8720 -2.4239
  5104G12c C00L94718   8.727  11.138  11.014  0.4238 -0.3807 -0.4270
  5104G12c C00R94719   8.840  11.152  11.083 -0.2584  0.5195  0.9941
  5104G12c C00Q94720   8.917  11.275  11.116  0.6492  0.3320 -0.2940
  5104G12c C00V94721   9.052  11.243  11.163  1.3647 -2.4081  1.2906
  5104G12c C00U94722   9.129  11.131  11.170  1.6823  1.6804  0.5970
  5104G12c C00T94723   9.065  11.019  11.109  0.4464 -0.0062  1.4979
  5104G12c C01694724   9.129  10.896  11.079 -2.0581 -1.1068 -0.2409
  5104G12c C01594725   9.264  10.908  11.086 -0.6683 -0.2443  0.0617
  5104G12c C01094726   9.333  11.010  11.148  0.2228 -0.4075 -1.8311
  5104G12c C01194727   9.477  11.011  11.160  1.4903  0.0863  0.3246
  5104G12c H00594728   9.534  11.082  11.218 -3.1575  2.7802  1.8556
  5104G12c C01294729   9.541  10.905  11.090  2.1373  2.1194  0.7402
  5104G12c C01794730   9.685  10.905  11.058 -0.9324  0.8588 -0.7993
  5104G12c O00294731   9.760  10.831  11.153  0.9456 -0.5233 -0.6116
  5104G12c H00494732   9.828  10.806  11.093 -1.0571 -2.1010 -2.2973
  5104G12c C01894733   9.734  10.947  10.944 -2.0796 -0.4053 -0.6375
  5104G12c O00194734   9.643  10.986  10.844  0.8762 -2.2754 -0.5563
  5104G12c H00394735   9.588  10.915  10.813  8.0066 -8.9476  0.5075
  5104G12c C01994736   9.878  10.924  10.907  1.2462 -0.7600  0.3355
  5104G12c H00294737   9.886  10.840  10.838 -2.9134  1.2948 -2.8556
  5104G12c H00194738   9.879  11.023  10.861 -2.3122  0.2638  2.2884
  5104G12c O00094739   9.986  10.884  10.995  0.4252  1.5197 -1.5809
  5104G12c C01A94740  10.073  10.982  11.031 -0.2907  1.4856  1.5818
  5104G12c C02K94741  10.184  11.018  10.954 -0.5178  0.8774 -0.3106
  5104G12c O00G94742  10.195  10.950  10.834  0.2665 -1.2655 -0.4354
  5104G12c C02M94743  10.309  10.950  10.755  0.6761 -1.4746  0.1240
  5104G12c H01G94744  10.311  10.856  10.700  1.8594 -1.9996  1.0702
  5104G12c H01F94745  10.400  10.905  10.794  3.0751  1.5986 -1.6470
  5104G12c H01E94746  10.334  11.043  10.705  0.3920 -1.6561 -0.3640
  5104G12c C02J94747  10.290  11.093  11.005 -0.3043  0.8810 -0.1495
  5104G12c H01H94748  10.393  11.080  10.975 -0.1251  0.1612  0.7439
  5104G12c C02I94749  10.272  11.152  11.132  1.4021 -0.9101 -0.5034
  5104G12c C02N94750  10.401  11.163  11.201  0.0003  0.3972  0.3839
  5104G12c H01M94751  10.502  11.136  11.173 -0.3790  1.6872 -2.3793
  5104G12c C02O94752  10.416  11.225  11.322  0.3426 -0.7256 -0.2640
  5104G12c H01L94753  10.324  11.246  11.374 -1.4991 -4.6974 -1.7302
  5104G12c C02P94754  10.551  11.268  11.370 -1.5616 -0.3926  2.1384
  5104G12c H01K94755  10.523  11.359  11.422 -1.2547 -0.6166  2.7018
  5104G12c H01J94756  10.591  11.183  11.426  2.4145  2.9120  4.5832
  5104G12c O00H94757  10.605  11.343  11.248  0.1042 -0.2116  1.0067
  5104G12c H01I94758  10.640  11.293  11.176 -4.4972 -0.0301 -1.5628
  5104G12c C02H94759  10.139  11.154  11.181 -0.0849 -1.2742  0.9095
  5104G12c H01C94760  10.126  11.200  11.278 -0.8164 -4.8082  2.5701
  5104G12c C02L94761  10.042  11.051  11.127  0.7570 -0.6083 -0.3484
  5104G12c H01D94762   9.951  11.036  11.183 -1.5657  2.2580 -3.1089
  5104G12c C01394763   9.475  10.790  11.035 -0.1610 -0.8875 -0.5708
  5104G12c H00094764   9.529  10.720  10.973  2.1000 -0.8725  1.2998
  5104G12c C01494765   9.330  10.791  11.046  0.0908  1.3500 -0.5013
  5104G12c C00F94766   9.254  10.686  10.980 -1.5262  0.2918 -0.2506
  5104G12c C00H94767   9.052  10.798  11.011  1.1240 -0.8971  2.6079
  5104G12c C00I94768   8.915  10.824  10.986  0.0335  1.9037 -0.0191
  5104G12c C00J94769   8.857  10.935  11.039 -0.0963  1.3895 -0.7935
  5104G12c C00Z94770   9.263  11.132  11.193  1.6015  1.2434 -2.4357
  5104G12c C00Y94771   9.322  11.241  11.252  1.2126 -0.6574  0.6842
  5104G12c H00694772   9.430  11.242  11.251  1.2091 -0.4827  0.4603
  5104G12c C00X94773   9.266  11.362  11.251  1.6702 -0.1881  0.1286
  5104G12c O00394774   9.334  11.493  11.267 -0.4634  0.3300 -0.9193
  5104G12c C01B94775   9.468  11.508  11.227  0.5719 -0.1120  0.0113
  5104G12c H00994776   9.487  11.424  11.160 -0.3110  1.3541 -2.1503
  5104G12c H00894777   9.516  11.506  11.324 -1.7028  4.8444  1.4165
  5104G12c H00794778   9.485  11.597  11.165  3.5730 -2.8405 -3.3147
  5104G12c C00W94779   9.128  11.366  11.204  0.4404 -0.2271  1.3817
  5104G12c O00494780   9.076  11.489  11.210 -0.0448  0.3787 -0.4976
  5104G12c C01C94781   8.971  11.506  11.142  0.8718  1.6122  0.2793
  5104G12c H00A94782   8.982  11.572  11.057 -1.8542  1.4564 -0.2462
  5104G12c C00P94783   8.886  11.410  11.094  1.8470 -0.0063  0.5413
  5104G12c C00O94784   8.782  11.440  10.995 -0.5141  0.0741  0.3065
  5104G12c C01D94785   8.790  11.578  10.924 -0.2799 -0.2621 -0.1839
  5104G12c H00S94786   8.871  11.646  10.949 -2.5192  2.5092 -0.1916
  5104G12c C01E94787   8.726  11.617  10.809 -2.2149  0.0773  0.3755
  5104G12c O00894788   8.776  11.722  10.738  0.6659  1.1356 -0.6330
  5104G12c C01V94789   8.909  11.765  10.740  1.2048 -1.8353  1.6002
  5104G12c C01Z94790   8.977  11.672  10.638 -0.5949 -0.3941  0.1655
  5104G12c H00R94791   9.082  11.693  10.624  0.5612 -7.4818 -4.6788
  5104G12c H00Q94792   8.966  11.570  10.676 -5.2189 -0.0299  0.1004
  5104G12c O00994793   8.892  11.680  10.512  0.0716  0.5432  0.2765
  5104G12c H00P94794   8.893  11.770  10.484 -3.4641  2.5799  5.7554
  5104G12c C01W94795   8.924  11.886  10.788  0.9714  0.1348  1.2053
  5104G12c H00O94796   8.847  11.934  10.846  2.9709  3.8919  0.8968
  5104G12c C01X94797   9.043  11.981  10.755  0.1713 -0.8316 -0.7802
  5104G12c H00N94798   9.105  11.928  10.684 -4.8400 -1.0083 -5.3469
  5104G12c H00M94799   8.974  12.052  10.710  0.4530 -0.1972 -0.2255
  5104G12c C01Y94800   9.124  12.022  10.859 -0.4416 -0.0753 -0.4533
  5104G12c C02D94801   9.256  12.041  10.843  0.8932  0.4759 -1.2929
  5104G12c H01994802   9.288  12.056  10.741 -3.5893  4.9557 -2.2440
  5104G12c C02C94803   9.354  12.031  10.940  0.8510  0.4260 -1.6719
  5104G12c H01A94804   9.452  12.048  10.899 -0.8843  2.9199 -5.0592
  5104G12c C02B94805   9.314  12.032  11.074  1.4278 -0.3683  0.0011
  5104G12c O00E94806   9.408  12.065  11.172  0.1685  0.4995  1.4129
  5104G12c H01B94807   9.345  12.049  11.241 -2.2397 -5.3770 -1.7342
  5104G12c C02F94808   9.177  12.023  11.104  0.5242 -0.3312 -1.7040
  5104G12c O00F94809   9.135  12.041  11.234 -0.9332 -0.5470 -0.3001
  5104G12c C02G94810   9.123  12.179  11.299 -0.4235  0.2055  1.0675
  5104G12c H01794811   9.192  12.234  11.362 -0.6988  0.0208  1.5298
  5104G12c H01694812   9.058  12.156  11.383  0.4986  2.7705  2.5246
  5104G12c H01594813   9.118  12.269  11.237 -0.1590  0.2968  1.1809
  5104G12c C02E94814   9.080  12.008  10.993  1.6520  0.7948  0.2682
  5104G12c H01894815   8.975  12.008  11.019  2.5525 -3.6579  4.6609
  5104G12c C01F94816   8.654  11.507  10.750  2.9161  1.0719  2.1769
  5104G12c C01G94817   8.620  11.505  10.617  0.9035 -1.8937  0.7632
  5104G12c H00L94818   8.617  11.587  10.547  3.4454 -0.0507  2.7178
  5104G12c C01H94819   8.539  11.397  10.565  0.0662  0.0267  0.6460
  5104G12c H00B94820   8.538  11.388  10.458  0.0075  0.6762  0.5857
  5104G12c C01I94821   8.506  11.282  10.647 -0.7004  1.3891  1.1842
  5104G12c C01U94822   8.592  11.401  10.841 -1.5898 -1.7507 -1.1299
  5104G12c C00S94823   8.916  11.032  11.091 -1.2957  0.0041 -0.2544
  5104G12c C00K94824   8.744  11.002  10.965 -0.9390  1.1837  0.9968
  5104G12c C00N94825   8.681  11.356  10.933  1.5871  0.6772 -1.9599
  5104G12c C00094826   8.513  11.293  10.790  0.5265  0.6987 -1.4704
  5104G12c C01J94827   8.541  11.145  10.632 -1.6316  0.6276  2.1647
  5104G12c C01K94828   8.553  11.089  10.499 -0.6479 -0.4362 -0.0733
  5104G12c C01P94829   8.472  11.103  10.375  1.3747 -1.2994 -0.3866
  5104G12c C01Q94830   8.361  11.178  10.401  1.7306  0.2604  0.2556
  5104G12c H00G94831   8.356  11.269  10.343  0.8166  0.6899  0.9797
  5104G12c C01R94832   8.250  11.131  10.477  0.2700  0.4530 -1.6739
  5104G12c H00F94833   8.301  11.060  10.540  4.9359 -1.2743 -6.9057
  5104G12c C01S94834   8.120  11.203  10.489  0.3795 -0.6092  0.8861
  5104G12c H00E94835   8.046  11.164  10.419 -1.5783  1.1034  1.9643
  5104G12c H00D94836   8.082  11.164  10.583 -3.4169 -2.9145 -1.4852
  5104G12c O00594837   8.144  11.332  10.455  0.6460 -1.7896  0.5184
  5104G12c H00C94838   8.194  11.371  10.525  2.8786 -3.4915 -0.0587
  5104G12c C01O94839   8.499  11.045  10.252  0.8422  1.2308  1.0188
  5104G12c H00H94840   8.465  11.090  10.160  1.2967  1.1049  0.7830
  5104G12c C01N94841   8.605  10.967  10.248 -0.3271 -0.0731 -1.0637
  5104G12c O00694842   8.659  10.933  10.123 -1.6052  0.6293  1.0510
  5104G12c C01T94843   8.584  10.879  10.025 -0.0140  1.6850  0.1276
  5104G12c H00K94844   8.521  10.809  10.081  3.9351 -0.7838  1.7473
  5104G12c H00J94845   8.641  10.852   9.936  3.7671 -5.7277  4.2705
  5104G12c H00I94846   8.523  10.946   9.966 -1.8887  1.2357  1.5065
  5104G12c C01M94847   8.664  10.923  10.371 -0.1225  0.1915  1.4229
  5104G12c C02094848   8.686  10.908  10.865 -1.4750 -0.8532  1.0763
  5104G12c C02194849   8.746  10.778  10.828  0.8547 -1.2357 -0.7719
  5104G12c C01L94850   8.620  10.971  10.507  1.3074  1.1485  0.5458
  5104G12c O00794851   8.766  10.824  10.376  0.1036  0.3490  0.1689
  5104G12c C02294852   8.751  10.710  10.721 -0.2475  0.5103 -0.6805
  5104G12c C02394853   8.849  10.720  10.915 -0.7696 -1.5013  0.2156
  5104G12c C00G94854   9.117  10.682  10.960 -1.0325  0.3261 -1.0837
  5104G12c C00E94855   9.304  10.561  10.949 -1.2389  0.1700  0.2827
  5104G12c O00A94856   9.394  10.508  11.041 -0.7878  0.3315 -0.3633
  5104G12c C02494857   9.338  10.450  11.175  0.0198 -0.6157  0.3826
  5104G12c H00V94858   9.239  10.415  11.147 -1.0820  3.0401 -0.5134
  5104G12c H00U94859   9.296  10.529  11.237 -6.6532 -4.2342  0.8854
  5104G12c H00T94860   9.408  10.385  11.229  2.9133  1.0510 -1.2267
  5114G12c C00D94861   6.801   3.203   2.396 -1.5658 -0.7125  1.4581
  5114G12c O00B94862   6.698   3.269   2.448 -0.3188 -0.1168  0.0256
  5114G12c C02594863   6.690   3.262   2.593  2.5004  0.2993  1.0934
  5114G12c C02694864   6.699   3.390   2.676  0.8890  0.2591  1.4795
  5114G12c H00Y94865   6.765   3.442   2.606 -1.6935 -1.2998 -2.2939
  5114G12c H00X94866   6.750   3.395   2.772 -1.3437  4.6011  2.5497
  5114G12c O00C94867   6.588   3.473   2.704  0.3057 -1.1746  0.1665
  5114G12c H00W94868   6.549   3.412   2.765  3.1843 -6.4494 -2.9194
  5114G12c C02794869   6.652   3.141   2.644 -0.7483  0.7628  0.9609
  5114G12c O00D94870   6.617   3.024   2.569  0.7320  0.9560  0.1265
  5114G12c H00Z94871   6.701   2.986   2.547  1.2176  5.0049 -6.3652
  5114G12c C02894872   6.628   3.113   2.784 -1.1957 -1.2938  0.7766
  5114G12c C02994873   6.507   3.042   2.828 -0.2834  0.1411  0.0967
  5114G12c H01094874   6.431   2.996   2.767  3.5010 -2.5310 -2.8353
  5114G12c C02T94875   6.485   3.036   2.965 -0.3767 -0.2579 -0.2252
  5114G12c H01O94876   6.385   3.032   3.004  1.0591  3.8605  4.3174
  5114G12c C02S94877   6.601   3.044   3.056 -0.5576 -0.6487 -1.8648
  5114G12c O00J94878   6.589   3.045   3.189  0.4813 -1.5132  0.1280
  5114G12c H01P94879   6.515   3.104   3.192  5.2622  5.0217  1.6602
  5114G12c C02R94880   6.724   3.084   2.997 -0.1412 -0.7502  0.7981
  5114G12c O00I94881   6.826   3.103   3.086 -1.9278  0.7753 -1.4841
  5114G12c C02Q94882   6.950   3.176   3.050  0.0891  0.2711 -1.9746
  5114G12c H01N94883   7.031   3.156   3.121  0.6097  1.5402 -2.1937
  5114G12c H01R94884   6.923   3.280   3.032  0.5069  0.2921 -2.4869
  5114G12c H01Q94885   6.991   3.122   2.965 -0.6397 -8.2334  2.5428
  5114G12c C02A94886   6.737   3.131   2.872  1.1250  0.8385 -0.7145
  5114G12c H01194887   6.832   3.169   2.836  0.3151  2.0586 -1.5686
  5114G12c C00C94888   6.942   3.210   2.448  0.8804 -0.3601  1.3918
  5114G12c H01294889   6.948   3.255   2.546  0.6803 -2.2178  2.2736
  5114G12c C00B94890   7.050   3.117   2.399 -2.1944 -0.1689  0.2086
  5114G12c C00A94891   7.190   3.098   2.444 -0.7332 -1.4996  0.6870
  5114G12c C00994892   7.281   3.179   2.510 -0.0891 -1.0557  1.9231
  5114G12c C00894893   7.301   3.312   2.542  0.1372 -0.3111 -1.4903
  5114G12c H01394894   7.215   3.377   2.542 -0.1244 -0.5868  1.5193
  5114G12c C00794895   7.433   3.374   2.542 -0.1741 -0.2346 -0.4017
  5114G12c H01494896   7.457   3.478   2.558  0.8522 -0.8397  2.0955
  5114G12c C00694897   7.541   3.307   2.487 -0.4956 -0.0837  0.6004
  5114G12c C00594898   7.518   3.168   2.468 -0.5541 -1.5809 -0.8609
  5114G12c C00494899   7.623   3.084   2.422  0.2365 -1.7044  0.0068
  5114G12c C00394900   7.603   2.938   2.375  0.2692 -1.0556 -0.2481
  5114G12c C00294901   7.723   2.866   2.322 -0.5215  0.0097  0.0658
  5114G12c C00194902   7.732   2.726   2.267  1.5123 -0.1023  0.2978
  5114G12c C00M94903   7.632   2.682   2.159  0.8006 -0.2372 -0.3310
  5114G12c C00L94904   7.496   2.696   2.188 -1.2298 -0.4345 -0.6301
  5114G12c C00R94905   7.399   2.674   2.087 -1.4997  1.2688 -0.4058
  5114G12c C00Q94906   7.395   2.626   1.950 -0.2495  0.5921  0.2664
  5114G12c C00V94907   7.269   2.622   1.893  1.2511  0.8224  0.9640
  5114G12c C00U94908   7.152   2.701   1.946 -1.2221 -0.2601 -0.6601
  5114G12c C00T94909   7.161   2.757   2.072 -0.6264  0.1847 -0.1358
  5114G12c C01694910   7.063   2.845   2.125 -1.0801  0.4553 -0.0962
  5114G12c C01594911   6.953   2.892   2.040 -0.1574  0.4577 -0.4948
  5114G12c C01094912   6.949   2.839   1.908 -1.1319  0.8914 -0.7270
  5114G12c C01194913   6.849   2.869   1.817  0.8028 -0.7039 -0.6492
  5114G12c H00594914   6.834   2.806   1.731  2.4664 -2.4924  0.3365
  5114G12c C01294915   6.754   2.993   1.841 -0.3831 -0.5694  0.9394
  5114G12c C01794916   6.625   3.040   1.777 -0.9962  0.2915  0.6396
  5114G12c O00294917   6.529   3.076   1.863  1.3361 -0.1745 -0.2398
  5114G12c H00494918   6.491   3.159   1.837  1.1735 -0.3779 -0.6481
  5114G12c C01894919   6.606   3.041   1.636 -1.4148 -2.0659  0.1840
  5114G12c O00194920   6.706   3.024   1.529  0.5074  1.5766 -0.2409
  5114G12c H00394921   6.800   3.030   1.537  0.4501  1.3862  0.6983
  5114G12c C01994922   6.483   3.127   1.582  0.0743  0.1917 -0.5915
  5114G12c H00294923   6.507   3.169   1.484  0.2364  2.3296  0.3449
  5114G12c H00194924   6.405   3.052   1.567 -2.8125  3.2307 -1.5439
  5114G12c O00094925   6.433   3.211   1.678  0.9028  1.1962 -0.5886
  5114G12c C01A94926   6.455   3.336   1.675  0.7271 -1.1320  1.3371
  5114G12c C02K94927   6.351   3.400   1.740  1.1373 -1.7164  1.8018
  5114G12c O00G94928   6.223   3.341   1.787  1.0272 -0.5056 -0.0938
  5114G12c C02M94929   6.179   3.214   1.858  1.5435 -0.9649  1.0590
  5114G12c H01G94930   6.081   3.168   1.868 -0.0330  2.3487  1.6534
  5114G12c H01F94931   6.235   3.226   1.951  4.7839  0.6374 -0.9913
  5114G12c H01E94932   6.236   3.128   1.822 -0.8858 -1.8729 -0.7899
  5114G12c C02J94933   6.381   3.526   1.774  0.1289 -1.6312  0.0794
  5114G12c H01H94934   6.317   3.578   1.844  3.3745  5.7630 -1.8993
  5114G12c C02I94935   6.503   3.578   1.786 -1.5270 -1.5475  0.2964
  5114G12c C02N94936   6.535   3.710   1.842  1.9617  0.5032  2.7452
  5114G12c H01M94937   6.584   3.721   1.938 -1.2279 -3.0982  4.8873
  5114G12c C02O94938   6.452   3.825   1.825 -0.1229  0.7202 -1.4668
  5114G12c H01L94939   6.395   3.827   1.733 -0.3575 -7.2760 -1.8508
  5114G12c C02P94940   6.444   3.944   1.909 -0.4537 -0.0528 -0.4351
  5114G12c H01K94941   6.369   4.022   1.893 -4.8435 -4.7399 -4.3793
  5114G12c H01J94942   6.422   3.914   2.011  2.6015  0.9169  0.5642
  5114G12c O00H94943   6.559   4.008   1.971 -1.0457 -1.7673 -0.5341
  5114G12c H01I94944   6.546   4.096   1.941 -2.1515 -1.8633 -0.3609
  5114G12c C02H94945   6.614   3.511   1.733 -0.1156 -1.8462 -0.1033
  5114G12c H01C94946   6.712   3.556   1.739 -4.0461  7.4544  6.0853
  5114G12c C02L94947   6.584   3.378   1.680 -0.8225  0.9859  2.2348
  5114G12c H01D94948   6.669   3.321   1.646  2.8005  2.8619  7.4770
  5114G12c C01394949   6.795   3.049   1.970 -0.7830  0.4848  0.2924
  5114G12c H00094950   6.755   3.148   1.983 -1.0349  0.9849 -3.7016
  5114G12c C01494951   6.880   2.991   2.084 -0.3598 -0.0325  0.5153
  5114G12c C00F94952   6.897   3.062   2.203  1.0869  3.0522  1.4131
  5114G12c C00H94953   7.103   2.926   2.234  2.1833 -0.3927 -0.7490
  5114G12c C00I94954   7.215   2.895   2.299 -0.2318  0.7525 -0.9776
  5114G12c C00J94955   7.289   2.777   2.256  1.3297 -1.4542  1.3709
  5114G12c C00Z94956   7.048   2.743   1.860 -0.8759 -0.6295  0.0536
  5114G12c C00Y94957   7.045   2.704   1.724  0.2032 -0.1809 -0.6846
  5114G12c H00694958   7.007   2.747   1.632  2.8713  9.0764  2.0056
  5114G12c C00X94959   7.152   2.625   1.676 -0.4754 -0.3723 -0.3072
  5114G12c O00394960   7.153   2.594   1.535 -0.6309 -0.1664 -0.1504
  5114G12c C01B94961   7.102   2.460   1.516 -1.6160  2.2856 -2.8619
  5114G12c H00994962   7.020   2.452   1.444 -1.1493  1.6201 -3.3294
  5114G12c H00894963   7.071   2.412   1.608  4.3234  5.5712  1.1390
  5114G12c H00794964   7.170   2.380   1.487 -0.9270  0.3991  3.2556
  5114G12c C00W94965   7.263   2.578   1.764  1.6453  0.3736  1.3173
  5114G12c O00494966   7.357   2.505   1.692 -0.7194  0.4291 -0.5284
  5114G12c C01C94967   7.489   2.505   1.744 -0.4888 -1.7139  1.1257
  5114G12c H00A94968   7.544   2.418   1.713  2.3556  0.4622 -0.1719
  5114G12c C00P94969   7.507   2.591   1.860 -0.6490  0.5123 -0.2540
  5114G12c C00O94970   7.636   2.630   1.909 -2.0134  1.2714  1.0818
  5114G12c C01D94971   7.722   2.657   1.792 -0.5943 -0.0975 -0.8458
  5114G12c H00S94972   7.710   2.617   1.692  0.4716 -0.7349 -0.7161
  5114G12c C01E94973   7.847   2.717   1.802 -0.2051 -0.5131  0.5090
  5114G12c O00894974   7.907   2.740   1.692 -1.6903  0.3734  1.0062
  5114G12c C01V94975   8.000   2.828   1.671 -0.9951  0.5483  1.3943
  5114G12c C01Z94976   8.140   2.768   1.669 -1.3740  2.5161  0.4829
  5114G12c H00R94977   8.180   2.720   1.580 -7.1166 -3.5867  0.7888
  5114G12c H00Q94978   8.201   2.858   1.679 -3.2965  4.8381 -5.7770
  5114G12c O00994979   8.138   2.685   1.783 -0.5118 -0.2996 -0.1449
  5114G12c H00P94980   8.093   2.718   1.859 -0.5192  1.3196 -0.8276
  5114G12c C01W94981   7.949   2.948   1.640  1.1146 -0.0820 -0.0307
  5114G12c H00O94982   7.999   3.042   1.619  1.8353 -1.4928 -5.0543
  5114G12c C01X94983   7.800   2.979   1.631  0.2740  1.2617 -0.9055
  5114G12c H00N94984   7.744   2.965   1.538 -9.5193 -4.3007  4.8984
  5114G12c H00M94985   7.738   2.896   1.664  2.5586  0.7042  2.1807
  5114G12c C01Y94986   7.773   3.115   1.710 -0.2792 -0.1188  0.1078
  5114G12c C02D94987   7.787   3.233   1.641 -0.9908  0.5633  0.2272
  5114G12c H01994988   7.817   3.245   1.538 -2.6967  4.0422  0.0522
  5114G12c C02C94989   7.779   3.348   1.719  0.9430  0.0329 -0.3057
  5114G12c H01A94990   7.807   3.438   1.668 -0.0174  1.0277  0.8923
  5114G12c C02B94991   7.704   3.345   1.833 -0.7561  0.9364 -0.1279
  5114G12c O00E94992   7.662   3.461   1.894  0.4249 -0.6937 -0.1035
  5114G12c H01B94993   7.583   3.432   1.937 -1.3288  5.6848  1.4623
  5114G12c C02F94994   7.665   3.228   1.906  0.6174 -0.7114 -0.1334
  5114G12c O00F94995   7.611   3.246   2.026  0.5684 -1.0517  0.2255
  5114G12c C02G94996   7.505   3.151   2.055 -2.1679 -2.3232  0.0963
  5114G12c H01794997   7.505   3.149   2.164 -4.6154  0.2052  0.2111
  5114G12c H01694998   7.549   3.053   2.040 -1.4986 -1.5763 -3.1861
  5114G12c H01594999   7.407   3.181   2.015 -1.1268 -0.5504 -1.2197
  5114G12c C02E95000   7.695   3.108   1.835 -0.7666  0.7974  1.7779
  5114G12c H01895001   7.682   3.015   1.889  0.6176 -1.4366 -1.6044
  5114G12c C01F95002   7.876   2.786   1.930 -0.4626  1.7640 -0.1206
  5114G12c C01G95003   7.962   2.906   1.969 -0.2153 -0.4176 -1.4749
  5114G12c H00L95004   7.981   2.974   1.886 -3.5711  2.8912  0.2722
  5114G12c C01H95005   7.979   2.937   2.108  0.6674 -1.8385  0.5993
  5114G12c H00B95006   8.073   2.984   2.133 -1.5097  2.7564  0.6040
  5114G12c C01I95007   7.917   2.871   2.212  0.0881  1.9657  1.1722
  5114G12c C01U95008   7.813   2.729   2.045  0.4130  1.0161 -0.5256
  5114G12c C00S95009   7.274   2.719   2.136  0.8270 -1.3584 -0.9517
  5114G12c C00K95010   7.428   2.790   2.280 -0.5936  0.2637  0.6728
  5114G12c C00N95011   7.677   2.677   2.032 -1.8847  1.3259 -0.5294
  5114G12c C00095012   7.849   2.753   2.187 -1.7806  0.3930 -0.1933
  5114G12c C01J95013   7.841   2.932   2.326  0.5338 -0.3014 -0.9878
  5114G12c C01K95014   7.858   3.054   2.385 -1.7892  0.0462 -0.7805
  5114G12c C01P95015   7.979   3.100   2.420 -1.7003 -0.7359  0.3432
  5114G12c C01Q95016   8.094   3.008   2.399 -0.9857 -0.2421  0.8767
  5114G12c H00G95017   8.159   3.025   2.315  3.7858  2.0520  4.8292
  5114G12c C01R95018   8.121   2.897   2.469 -1.9024 -0.5440 -0.3927
  5114G12c H00F95019   8.055   2.865   2.549  0.3097 -6.6812 -0.7465
  5114G12c C01S95020   8.211   2.789   2.450  0.1340  0.4410  3.0707
  5114G12c H00E95021   8.293   2.804   2.380 -2.7393  1.4273 -0.2365
  5114G12c H00D95022   8.283   2.791   2.531  1.7279  1.5741  1.6413
  5114G12c O00595023   8.161   2.653   2.473 -0.3999  0.7614 -0.0452
  5114G12c H00C95024   8.208   2.616   2.399 -7.6761-10.2837 -0.2124
  5114G12c C01O95025   7.998   3.216   2.503  0.3720  2.2152 -1.5517
  5114G12c H00H95026   8.093   3.258   2.530 -2.1868  4.2434  5.3369
  5114G12c C01N95027   7.889   3.308   2.505  1.1129 -1.3057  0.4247
  5114G12c O00695028   7.887   3.426   2.587  1.4183  1.5806  0.8348
  5114G12c C01T95029   7.931   3.439   2.718  0.5088  1.4368  0.1261
  5114G12c H00K95030   7.933   3.337   2.756  5.2389  2.1357  1.9870
  5114G12c H00J95031   7.843   3.480   2.768 -1.0291  0.8676 -2.0551
  5114G12c H00I95032   8.016   3.490   2.764  1.0033 -1.4279  2.5165
  5114G12c C01M95033   7.763   3.279   2.457 -1.3520 -1.5374 -0.1545
  5114G12c C02095034   7.471   2.898   2.357 -0.7992  0.2423  1.1103
  5114G12c C02195035   7.378   2.983   2.435  1.3318  0.4923 -1.6680
  5114G12c C01L95036   7.751   3.137   2.411 -0.1129  0.4471  0.1129
  5114G12c O00795037   7.655   3.367   2.500 -1.9592  1.7707  1.4730
  5114G12c C02295038   7.389   3.094   2.515 -0.7030  1.1295 -0.7469
  5114G12c C02395039   7.245   2.970   2.406  2.2676  0.9151 -0.7106
  5114G12c C00G95040   7.023   3.027   2.282  1.6890  0.9765  1.7219
  5114G12c C00E95041   6.801   3.146   2.261 -0.6642  0.7304 -1.2334
  5114G12c O00A95042   6.687   3.150   2.198  0.1467  0.6629 -0.8036
  5114G12c C02495043   6.579   3.043   2.242 -1.7934 -1.1899 -0.2635
  5114G12c H00V95044   6.496   3.092   2.293  0.4027  2.5431 -0.0980
  5114G12c H00U95045   6.624   2.966   2.304  5.3946  2.1069 -0.8885
  5114G12c H00T95046   6.530   3.039   2.145  3.2445 -3.8961 -2.8746
  5124G12c C00D95047   7.328   4.346   6.371  0.1854  0.8698 -1.8934
  5124G12c O00B95048   7.302   4.398   6.243  0.6287 -1.1604  2.1675
  5124G12c C02595049   7.278   4.530   6.223  1.0363  0.3713 -0.5028
  5124G12c C02695050   7.391   4.612   6.180  1.0306 -0.4419  1.1570
  5124G12c H00Y95051   7.351   4.692   6.118 -3.4364  1.0433  5.6121
  5124G12c H00X95052   7.482   4.573   6.134 -1.5018 -3.0218 -1.8879
  5124G12c O00C95053   7.435   4.651   6.304 -1.5535  0.0543 -0.8233
  5124G12c H00W95054   7.357   4.645   6.357  1.1513  0.5245  3.4343
  5124G12c C02795055   7.152   4.586   6.259 -0.3886 -0.0320 -1.0401
  5124G12c O00D95056   7.059   4.503   6.300 -0.9663  1.4504 -0.2546
  5124G12c H00Z95057   7.084   4.422   6.342 -0.1122 -0.7649 -4.8137
  5124G12c C02895058   7.136   4.734   6.282  1.0035 -1.6965  0.2574
  5124G12c C02995059   7.083   4.784   6.396  2.3982 -0.3825 -0.3732
  5124G12c H01095060   7.101   4.716   6.479  2.1526 -0.1582 -0.1378
  5124G12c C02T95061   7.041   4.914   6.401  1.5811 -2.5891 -1.0880
  5124G12c H01O95062   7.005   4.939   6.499 -3.5146 -2.8416 -2.7553
  5124G12c C02S95063   7.015   4.983   6.292  0.9938 -1.5340  0.3009
  5124G12c O00J95064   6.931   5.091   6.289  0.2123  0.3808 -0.6374
  5124G12c H01P95065   6.922   5.106   6.196  1.0666  9.2559  0.3103
  5124G12c C02R95066   7.060   4.956   6.162 -1.5735 -0.3707  0.3012
  5124G12c O00I95067   7.023   5.025   6.042  0.2758  0.4261  0.5028
  5124G12c C02Q95068   7.134   5.126   6.008  0.1574 -0.5921 -1.8467
  5124G12c H01N95069   7.215   5.061   5.976  2.1410  2.3164 -2.9203
  5124G12c H01R95070   7.186   5.161   6.097  3.9334 -9.5014  0.0257
  5124G12c H01Q95071   7.108   5.168   5.911  1.8646  0.7823 -1.7355
  5124G12c C02A95072   7.126   4.825   6.164  0.0865  0.3330  0.4900
  5124G12c H01195073   7.145   4.760   6.079 -6.7492  2.8704 -3.3707
  5124G12c C00C95074   7.460   4.354   6.406  1.2687 -0.9984  0.5055
  5124G12c H01295075   7.527   4.385   6.327  0.7111 -2.5490 -0.6090
  5124G12c C00B95076   7.486   4.327   6.542 -0.3529 -2.5847  0.0591
  5124G12c C00A95077   7.616   4.365   6.615 -1.1324  2.2406 -0.6355
  5124G12c C00995078   7.746   4.354   6.562  0.6930  1.6006  0.5374
  5124G12c C00895079   7.785   4.306   6.437  1.0027  2.2730 -1.1219
  5124G12c H01395080   7.728   4.323   6.347 -0.9377 -2.9710 -1.0358
  5124G12c C00795081   7.908   4.239   6.419  1.0820  0.9511  2.1236
  5124G12c H01495082   7.966   4.218   6.331  2.4363  3.6545  2.3166
  5124G12c C00695083   7.994   4.234   6.533 -1.0471 -0.3267 -2.0222
  5124G12c C00595084   7.946   4.258   6.665  2.3739  1.5273  0.3377
  5124G12c C00495085   7.997   4.212   6.782 -0.3367  1.8688 -1.1609
  5124G12c C00395086   7.926   4.208   6.908 -0.5412 -0.0011  1.0695
  5124G12c C00295087   7.992   4.144   7.026  0.4915  0.3066 -0.5232
  5124G12c C00195088   7.922   4.113   7.149 -1.3215  0.3334  0.6036
  5124G12c C00M95089   7.789   4.065   7.173 -0.9737 -0.1223  1.0360
  5124G12c C00L95090   7.673   4.121   7.117  0.0960  0.5396  2.7416
  5124G12c C00R95091   7.540   4.086   7.124 -0.7977 -1.4501  0.7917
  5124G12c C00Q95092   7.489   3.953   7.174  0.7321 -0.6169  0.3222
  5124G12c C00V95093   7.366   3.920   7.123  0.7649  0.4944 -0.2426
  5124G12c C00U95094   7.305   3.981   7.005  0.2755  0.1715  0.0581
  5124G12c C00T95095   7.372   4.083   6.942  0.2538  0.7406 -0.9683
  5124G12c C01695096   7.336   4.130   6.822  0.7939 -0.3241  1.1009
  5124G12c C01595097   7.240   4.066   6.757 -0.1403 -0.0831  0.4485
  5124G12c C01095098   7.148   3.980   6.834 -0.0856  1.0105  0.9615
  5124G12c C01195099   7.014   3.982   6.775 -0.8528  0.4520 -0.0527
  5124G12c H00595100   6.925   3.950   6.827 -0.6609 -2.5698 -1.5167
  5124G12c C01295101   6.998   3.984   6.636  0.0583 -0.4467 -0.9456
  5124G12c C01795102   6.894   3.930   6.559  1.4020  0.1736  0.3465
  5124G12c O00295103   6.770   3.945   6.610  0.6312  0.2025 -0.7949
  5124G12c H00495104   6.716   3.870   6.589  1.1178 -0.5723  0.6477
  5124G12c C01895105   6.897   3.871   6.437 -0.6540 -0.0999  0.7546
  5124G12c O00195106   6.997   3.863   6.340  0.2150  0.8868 -0.1987
  5124G12c H00395107   7.063   3.849   6.407  3.5124 -4.9071 -4.2093
  5124G12c C01995108   6.761   3.821   6.359  0.3998 -0.5967 -0.9388
  5124G12c H00295109   6.683   3.897   6.365 -0.3599 -1.2504 -2.5345
  5124G12c H00195110   6.796   3.825   6.256 -4.7149 -0.1576 -2.7638
  5124G12c O00095111   6.718   3.690   6.392  0.7002  0.2251 -0.4668
  5124G12c C01A95112   6.590   3.664   6.356 -0.5727 -0.9948  1.7615
  5124G12c C02K95113   6.471   3.739   6.378  1.2029  0.0419 -1.5207
  5124G12c O00G95114   6.466   3.864   6.448 -0.0657  0.1081 -0.2876
  5124G12c C02M95115   6.363   3.897   6.545 -1.3278 -1.1259  0.7786
  5124G12c H01G95116   6.412   3.879   6.641  2.9992  0.3363 -1.0198
  5124G12c H01F95117   6.261   3.906   6.507 -2.6457 -1.2566  4.1124
  5124G12c H01E95118   6.354   4.004   6.566 -0.8144  0.2451 -5.1115
  5124G12c C02J95119   6.349   3.677   6.325  1.9362  0.5743  0.0154
  5124G12c H01H95120   6.255   3.727   6.342 -0.2327 -3.3764  0.1598
  5124G12c C02I95121   6.340   3.568   6.239  0.7332 -0.3593  1.1542
  5124G12c C02N95122   6.206   3.530   6.202  0.5358  0.6204 -0.4794
  5124G12c H01M95123   6.164   3.553   6.105 -5.7157 -3.9561  0.8491
  5124G12c C02O95124   6.127   3.466   6.280  0.7908  1.1875 -1.2152
  5124G12c H01L95125   6.145   3.414   6.374 -2.2721 -4.2068 -3.3789
  5124G12c C02P95126   5.975   3.453   6.245 -1.6156  1.2792  0.9074
  5124G12c H01K95127   5.932   3.381   6.314 -5.7369  6.1051  3.7892
  5124G12c H01J95128   5.936   3.548   6.283 -1.0842  2.1411 -0.6461
  5124G12c O00H95129   5.950   3.421   6.103 -0.1821 -0.7392 -0.0227
  5124G12c H01I95130   6.003   3.343   6.095 -0.0823 -1.1383  3.8069
  5124G12c C02H95131   6.465   3.531   6.203  0.1238 -0.5943 -2.4644
  5124G12c H01C95132   6.482   3.469   6.116  3.9030 -0.1509 -2.1194
  5124G12c C02L95133   6.580   3.562   6.265 -1.3409  0.1283 -1.5966
  5124G12c H01D95134   6.676   3.516   6.246 -0.6889 -0.7249  3.2179
  5124G12c C01395135   7.110   4.030   6.567  2.0941  0.3918  0.0963
  5124G12c H00095136   7.094   4.025   6.460 -1.6464  2.2571  0.4605
  5124G12c C01495137   7.213   4.091   6.630  0.2684 -2.1153  0.4031
  5124G12c C00F95138   7.295   4.187   6.554  0.0769 -0.7412 -0.0670
  5124G12c C00H95139   7.416   4.237   6.777 -0.9254 -0.8207  1.2518
  5124G12c C00I95140   7.538   4.283   6.841  0.7909  0.3585 -0.1291
  5124G12c C00J95141   7.562   4.237   6.975 -1.3248  0.1399  0.9174
  5124G12c C00Z95142   7.183   3.928   6.961 -0.5693  1.5933 -0.0967
  5124G12c C00Y95143   7.096   3.852   7.033 -0.4202 -1.1437 -1.6132
  5124G12c H00695144   7.005   3.811   6.991 -0.9462 -0.6333 -0.9643
  5124G12c C00X95145   7.146   3.786   7.142 -1.0949 -0.6246  0.2043
  5124G12c O00395146   7.102   3.663   7.186  0.8533  0.3553  0.5433
  5124G12c C01B95147   7.177   3.537   7.164  0.7942 -0.7507 -0.8100
  5124G12c H00995148   7.275   3.511   7.204  1.2770  1.6765 -0.3460
  5124G12c H00895149   7.115   3.470   7.223 -0.9654 -0.2935 -2.1137
  5124G12c H00795150   7.198   3.505   7.062  1.4702  1.1344 -1.2705
  5124G12c C00W95151   7.286   3.816   7.181 -1.7532  1.6163 -0.5335
  5124G12c O00495152   7.333   3.745   7.276  1.0426 -0.8474  0.7571
  5124G12c C01C95153   7.459   3.721   7.261 -1.6465  0.7719 -1.0290
  5124G12c H00A95154   7.494   3.621   7.242 -2.4875  0.5038 -1.1583
  5124G12c C00P95155   7.543   3.842   7.249  0.2795  0.5988  0.3291
  5124G12c C00O95156   7.693   3.840   7.270  2.4532 -1.7265  1.7333
  5124G12c C01D95157   7.753   3.724   7.318 -1.2716  0.6899 -0.7985
  5124G12c H00S95158   7.678   3.661   7.364 -3.7106  0.7631 -4.4462
  5124G12c C01E95159   7.868   3.667   7.260 -0.3405  0.5266  1.3364
  5124G12c O00895160   7.917   3.541   7.282 -0.1583  0.1966 -0.0949
  5124G12c C01V95161   7.871   3.481   7.392  1.4006  0.2973  0.4752
  5124G12c C01Z95162   7.973   3.482   7.510  0.1633  0.4614  0.6486
  5124G12c H00R95163   8.045   3.562   7.493  0.8737  0.5300  3.7073
  5124G12c H00Q95164   7.959   3.480   7.618 -3.7004  4.9443  0.4089
  5124G12c O00995165   8.047   3.364   7.488 -0.3281 -0.5099  1.1190
  5124G12c H00P95166   8.008   3.320   7.414 -2.0081  4.8622 -1.4919
  5124G12c C01W95167   7.759   3.392   7.401 -2.5937  1.4015  0.0660
  5124G12c H00O95168   7.683   3.397   7.324 -2.8064  9.7596  0.4035
  5124G12c C01X95169   7.703   3.299   7.504  0.5976  0.1175 -0.1719
  5124G12c H00N95170   7.699   3.335   7.607 -6.8263 -6.0240  2.1430
  5124G12c H00M95171   7.596   3.317   7.496  0.8904  1.4565 -1.3519
  5124G12c C01Y95172   7.744   3.143   7.509  0.6295 -0.6610  1.2146
  5124G12c C02D95173   7.739   3.072   7.393 -0.2637  0.7024 -0.8552
  5124G12c H01995174   7.730   3.116   7.295  2.3830 -2.2731 -2.5542
  5124G12c C02C95175   7.752   2.932   7.395  0.0614  0.2818 -0.9306
  5124G12c H01A95176   7.747   2.875   7.303  4.0414 -0.0103 -1.0586
  5124G12c C02B95177   7.753   2.852   7.510 -1.7962 -0.3277 -1.4183
  5124G12c O00E95178   7.729   2.714   7.512  0.3714 -0.4690 -1.0839
  5124G12c H01B95179   7.714   2.673   7.596 -0.3651 -4.2538 -2.9577
  5124G12c C02F95180   7.773   2.917   7.630 -1.0406  0.1664  0.7961
  5124G12c O00F95181   7.786   2.852   7.750  1.5923 -0.9142 -0.6556
  5124G12c C02G95182   7.895   2.788   7.778 -0.7046 -2.6778 -0.1711
  5124G12c H01795183   7.894   2.716   7.861 -3.5323  2.6197  4.7396
  5124G12c H01695184   7.965   2.851   7.834 -3.0180 -0.1207 -0.0484
  5124G12c H01595185   7.960   2.738   7.706  2.2618  2.3504 -1.2602
  5124G12c C02E95186   7.766   3.069   7.617 -0.8193 -0.1433 -2.6220
  5124G12c H01895187   7.775   3.116   7.714  1.2190 -2.8039 -1.4454
  5124G12c C01F95188   7.956   3.767   7.226 -0.2672 -0.4781 -0.8927
  5124G12c C01G95189   8.099   3.738   7.210  0.5689 -0.1384  0.3809
  5124G12c H00L95190   8.138   3.637   7.212 -0.6621 -0.6755 -1.6583
  5124G12c C01H95191   8.179   3.847   7.146 -1.3307  0.5516  0.4687
  5124G12c H00B95192   8.275   3.822   7.105 -1.1733  2.7250 -0.5431
  5124G12c C01I95193   8.119   3.973   7.112  1.4544  0.0349 -0.4332
  5124G12c C01U95194   7.920   3.897   7.240 -0.4070 -1.0935 -0.5078
  5124G12c C00S95195   7.469   4.156   7.025 -0.1492  1.0785 -0.8536
  5124G12c C00K95196   7.699   4.212   7.023 -0.3004 -0.0152  0.3084
  5124G12c C00N95197   7.784   3.928   7.236 -0.7350 -1.7667  1.8576
  5124G12c C00095198   8.009   4.005   7.197  1.3604  0.7552  0.3894
  5124G12c C01J95199   8.113   4.075   7.007 -0.3587  0.1203 -1.0009
  5124G12c C01K95200   8.200   4.079   6.880  0.6694 -0.2515 -0.2429
  5124G12c C01P95201   8.325   4.025   6.865  0.6959 -1.8470  0.2989
  5124G12c C01Q95202   8.415   4.025   6.983 -0.5752 -1.7317  0.3558
  5124G12c H00G95203   8.379   4.051   7.081  3.0264  0.1628  1.2721
  5124G12c C01R95204   8.541   3.974   6.963  1.9090 -1.4665 -1.1940
  5124G12c H00F95205   8.575   3.965   6.861  1.6733  3.4160 -1.7907
  5124G12c C01S95206   8.655   3.945   7.066  0.2457  0.0099 -0.4702
  5124G12c H00E95207   8.695   3.844   7.056  3.2649  0.1644  6.8722
  5124G12c H00D95208   8.759   3.973   7.048 -0.5223  1.9078 -2.0968
  5124G12c O00595209   8.626   3.970   7.194 -1.3545  0.3775  0.5185
  5124G12c H00C95210   8.633   4.062   7.176 -3.3744 -0.0697 -3.0010
  5124G12c C01O95211   8.373   4.015   6.726 -0.2485 -0.8329 -0.6749
  5124G12c H00H95212   8.474   3.998   6.692  0.3975  3.5711 -1.1834
  5124G12c C01N95213   8.303   4.073   6.616  0.5946  0.0141  1.0574
  5124G12c O00695214   8.381   4.083   6.487  0.9246  0.6095  0.0558
  5124G12c C01T95215   8.502   4.157   6.479 -0.3591 -1.1797  0.0468
  5124G12c H00K95216   8.550   4.126   6.387  4.5176  0.6371  1.8081
  5124G12c H00J95217   8.447   4.252   6.484  3.4465  1.2525 -2.4219
  5124G12c H00I95218   8.563   4.152   6.569  3.6791  3.1302 -2.2146
  5124G12c C01M95219   8.182   4.136   6.633  0.8771  0.1171  0.2179
  5124G12c C02095220   7.797   4.257   6.920 -1.7372  1.0129 -0.8540
  5124G12c C02195221   7.749   4.331   6.798 -0.5624 -1.1254  0.3239
  5124G12c C01L95222   8.124   4.145   6.767  0.5220 -1.3718  0.6546
  5124G12c O00795223   8.108   4.152   6.522  0.1607  0.2173 -0.4101
  5124G12c C02295224   7.825   4.332   6.671  1.3665  0.2153  0.4422
  5124G12c C02395225   7.623   4.323   6.753 -1.0355  0.4189  1.5282
  5124G12c C00G95226   7.393   4.255   6.630 -1.1375  0.1847 -0.5411
  5124G12c C00E95227   7.239   4.255   6.443 -1.6724 -0.6922 -0.1407
  5124G12c O00A95228   7.128   4.241   6.359 -0.2814  1.7761 -0.7645
  5124G12c C02495229   7.172   4.145   6.266  2.2759 -0.0244  0.9895
  5124G12c H00V95230   7.231   4.067   6.313 -4.2736 -5.1352  1.5139
  5124G12c H00U95231   7.235   4.183   6.186 -0.6281 -1.9461 -2.3831
  5124G12c H00T95232   7.095   4.115   6.195 -0.6371  3.7662  2.3587
  5134G12c C00D95233   1.784   9.164   9.320  0.8868  1.2406  0.4823
  5134G12c O00B95234   1.879   9.257   9.292 -1.2050  0.3488 -0.6848
  5134G12c C02595235   1.908   9.346   9.394 -0.1751 -0.6165 -0.5511
  5134G12c C02695236   2.041   9.325   9.468  0.1266 -0.2409  0.4073
  5134G12c H00Y95237   2.094   9.420   9.455  1.4077 -0.4830  3.3252
  5134G12c H00X95238   2.113   9.257   9.422 -0.8139 -0.3606 -0.8894
  5134G12c O00C95239   2.043   9.267   9.602  0.2123 -0.3792 -0.5174
  5134G12c H00W95240   1.985   9.316   9.659  0.5133 -1.4252  0.6928
  5134G12c C02795241   1.828   9.439   9.441  0.1175  0.0111  0.5265
  5134G12c O00D95242   1.702   9.452   9.374 -0.4654 -0.4253  1.1619
  5134G12c H00Z95243   1.695   9.545   9.385  4.0866  0.3842 -1.3497
  5134G12c C02895244   1.868   9.514   9.557 -0.3700  0.2999  1.0515
  5134G12c C02995245   1.783   9.501   9.674 -0.5838 -0.0541 -0.3933
  5134G12c H01095246   1.701   9.436   9.699 -0.6895  1.1918  2.6343
  5134G12c C02T95247   1.827   9.571   9.800 -0.4466 -0.4612  0.1507
  5134G12c H01O95248   1.757   9.557   9.881 -4.0874  2.6887 -2.2738
  5134G12c C02S95249   1.967   9.612   9.799 -0.2447 -1.0878  0.3804
  5134G12c O00J95250   2.009   9.660   9.908  0.8836 -1.3595 -0.3601
  5134G12c H01P95251   2.094   9.679   9.870 -0.7645  0.0052 -3.5228
  5134G12c C02R95252   2.024   9.645   9.675 -0.0618 -0.4535  1.3374
  5134G12c O00I95253   2.143   9.727   9.675 -0.8058 -1.3451  0.6138
  5134G12c C02Q95254   2.202   9.795   9.567 -0.9029  0.1852 -0.2615
  5134G12c H01N95255   2.171   9.746   9.475-12.0181 -5.0979  5.2960
  5134G12c H01R95256   2.157   9.894   9.553 -3.7648 -1.3826 -2.6160
  5134G12c H01Q95257   2.309   9.781   9.579 -0.7711 -0.0879 -1.6834
  5134G12c C02A95258   1.970   9.596   9.556  1.0617  1.5523 -1.1485
  5134G12c H01195259   2.005   9.622   9.458  4.0737 -3.0196 -1.4445
  5134G12c C00C95260   1.791   9.096   9.436 -0.4672  0.6594  1.2246
  5134G12c H01295261   1.824   9.132   9.533 -0.1230 11.1362 -2.1566
  5134G12c C00B95262   1.719   8.967   9.445  0.4515  1.6282 -0.7889
  5134G12c C00A95263   1.744   8.875   9.558 -0.0417 -1.3219  0.0886
  5134G12c C00995264   1.872   8.810   9.604  2.3780 -0.7725  0.2379
  5134G12c C00895265   2.001   8.840   9.550  0.2064  0.1829 -0.3852
  5134G12c H01395266   2.014   8.942   9.518 -1.0217  0.8561  1.1837
  5134G12c C00795267   2.087   8.731   9.546  0.2531 -0.0163 -0.0645
  5134G12c H01495268   2.184   8.730   9.500  0.3475 -5.0497  0.0464
  5134G12c C00695269   2.042   8.609   9.603 -0.6708 -1.7797 -2.0507
  5134G12c C00595270   1.909   8.591   9.654  0.0604  0.9278 -1.2128
  5134G12c C00495271   1.857   8.456   9.673 -0.2447  1.2313 -0.7195
  5134G12c C00395272   1.716   8.442   9.661  0.4863  1.0233  0.9207
  5134G12c C00295273   1.658   8.303   9.661 -0.0979 -1.9430 -0.7836
  5134G12c C00195274   1.533   8.239   9.635  0.5149  0.6421 -1.3356
  5134G12c C00M95275   1.437   8.285   9.538 -0.4018  0.0998  0.5689
  5134G12c C00L95276   1.438   8.415   9.489 -0.6046  0.4633  0.1828
  5134G12c C00R95277   1.329   8.472   9.439  0.2985  0.5535  1.0408
  5134G12c C00Q95278   1.243   8.418   9.333 -0.6702 -1.2224 -0.4246
  5134G12c C00V95279   1.184   8.527   9.258  0.1914  0.0167  0.0659
  5134G12c C00U95280   1.219   8.659   9.251  1.2349  0.9345  0.9671
  5134G12c C00T95281   1.315   8.704   9.338  0.3293 -0.0485 -2.1745
  5134G12c C01695282   1.396   8.820   9.328 -0.7181 -0.0315  0.8350
  5134G12c C01595283   1.382   8.887   9.204  0.2617 -0.4138 -0.9902
  5134G12c C01095284   1.278   8.847   9.113 -0.8079  1.4807 -0.7769
  5134G12c C01195285   1.274   8.908   8.979  1.2128  0.0140  1.0308
  5134G12c H00595286   1.198   8.875   8.911 -0.3091 -5.8928  5.2823
  5134G12c C01295287   1.338   9.026   8.953 -1.4321 -0.1620  0.6701
  5134G12c C01795288   1.322   9.099   8.824 -0.4995  0.2207  0.3593
  5134G12c O00295289   1.323   9.230   8.820 -0.7312  0.2682  1.5441
  5134G12c H00495290   1.314   9.254   8.729  2.1522 -1.7287  0.6640
  5134G12c C01895291   1.307   9.036   8.707 -0.4673 -1.2229  1.6878
  5134G12c O00195292   1.327   8.905   8.702 -1.5184 -0.8550  0.0796
  5134G12c H00395293   1.395   8.919   8.767 -3.6767  2.0603  1.8557
  5134G12c C01995294   1.290   9.109   8.578  0.8325 -0.7809  0.6449
  5134G12c H00295295   1.338   9.205   8.600 -5.7989  1.4769  7.6212
  5134G12c H00195296   1.356   9.064   8.504 -2.1224 -2.3767 -1.1194
  5134G12c O00095297   1.144   9.106   8.569 -1.6488  0.6375 -1.4803
  5134G12c C01A95298   1.081   9.096   8.453 -0.3503  0.0805  0.1657
  5134G12c C02K95299   0.954   9.085   8.461 -0.1821 -0.7825  0.9671
  5134G12c O00G95300   0.897   9.035   8.580  0.0970  0.1003  1.2950
  5134G12c C02M95301   0.926   8.902   8.613 -0.0468  1.5066 -0.2543
  5134G12c H01G95302   0.920   8.823   8.538  5.5471 -4.6079  4.9878
  5134G12c H01F95303   0.847   8.890   8.686  1.6411 -1.5668  1.1968
  5134G12c H01E95304   1.032   8.899   8.641  0.0586  0.2972 -0.7425
  5134G12c C02J95305   0.872   9.099   8.344 -1.4594  0.5448  0.9411
  5134G12c H01H95306   0.771   9.073   8.372 -1.0944 -0.8274  1.0159
  5134G12c C02I95307   0.925   9.092   8.220 -0.3101  0.5605  0.2537
  5134G12c C02N95308   0.847   9.069   8.109  0.2533 -0.1639  0.4386
  5134G12c H01M95309   0.827   9.139   8.030 -3.3376 -1.9454 -0.3368
  5134G12c C02O95310   0.843   8.943   8.064  1.5479 -0.3472 -0.1134
  5134G12c H01L95311   0.895   8.859   8.107  0.3092 -1.1847 -0.2207
  5134G12c C02P95312   0.815   8.898   7.911 -0.1737 -2.0250 -0.5618
  5134G12c H01K95313   0.841   8.794   7.928  1.5056 -2.1004 -3.2855
  5134G12c H01J95314   0.713   8.923   7.884  0.9363  0.2289 -3.0029
  5134G12c O00H95315   0.924   8.945   7.819  1.5561  1.2016 -0.0982
  5134G12c H01I95316   0.999   8.893   7.844  2.2841  2.1210 -0.3488
  5134G12c C02H95317   1.064   9.101   8.207  0.0009  1.0144  0.4746
  5134G12c H01C95318   1.106   9.098   8.107 -5.3642 -5.6564 -2.0321
  5134G12c C02L95319   1.144   9.109   8.322 -1.1582 -0.1236  0.7456
  5134G12c H01D95320   1.248   9.111   8.294 -2.1824  1.2099 -3.4971
  5134G12c C01395321   1.419   9.082   9.055 -1.3697 -0.1000 -0.4514
  5134G12c H00095322   1.453   9.183   9.039 -1.3060  0.1433  1.1106
  5134G12c C01495323   1.466   8.998   9.166 -1.6529  0.4320 -0.4463
  5134G12c C00F95324   1.581   9.023   9.243  1.0739 -2.0511 -0.9330
  5134G12c C00H95325   1.506   8.856   9.420 -0.8730  1.8549  0.9546
  5134G12c C00I95326   1.525   8.768   9.528 -1.4425  0.0510 -0.9360
  5134G12c C00J95327   1.447   8.643   9.539  0.2539  0.4336 -0.0849
  5134G12c C00Z95328   1.190   8.739   9.147  0.2690  1.0964 -0.5012
  5134G12c C00Y95329   1.072   8.715   9.062 -0.2789  0.6874 -0.1696
  5134G12c H00695330   1.016   8.766   8.985 -0.8922 -2.2351 -1.7368
  5134G12c C00X95331   1.005   8.592   9.092  0.1920 -0.2168  0.0032
  5134G12c O00395332   0.886   8.570   9.008 -1.2442 -0.2841  0.2471
  5134G12c C01B95333   0.788   8.683   9.010  0.2689 -0.5518  0.5832
  5134G12c H00995334   0.687   8.645   8.992  1.1540 -2.7195  0.0580
  5134G12c H00895335   0.836   8.748   8.937 -2.8766  1.0216 -0.1864
  5134G12c H00795336   0.797   8.731   9.108  0.7583  2.0726 -0.6963
  5134G12c C00W95337   1.074   8.487   9.175  0.0560  0.4199 -0.6228
  5134G12c O00495338   1.037   8.361   9.149 -0.0418 -1.6610 -0.4896
  5134G12c C01C95339   1.141   8.274   9.168 -0.9412  0.2321 -0.4592
  5134G12c H00A95340   1.195   8.263   9.075 -5.3427 -7.3892 -2.5556
  5134G12c C00P95341   1.231   8.289   9.284 -0.7931 -0.6698 -2.3911
  5134G12c C00O95342   1.286   8.162   9.356  0.4574 -0.3485 -0.0029
  5134G12c C01D95343   1.296   8.036   9.292  1.5852  0.2455  0.1587
  5134G12c H00S95344   1.249   8.036   9.195 -3.7368 -0.3956  2.5519
  5134G12c C01E95345   1.411   7.949   9.311 -0.1974  0.6060 -1.3114
  5134G12c O00895346   1.478   7.874   9.215 -0.0497 -1.5706  0.2684
  5134G12c C01V95347   1.419   7.820   9.096  0.0879 -0.2685  0.5069
  5134G12c C01Z95348   1.484   7.878   8.987  0.9185  0.1818  0.2013
  5134G12c H00R95349   1.518   7.978   8.963  4.9155 -2.4809 -6.3534
  5134G12c H00Q95350   1.566   7.819   9.028 -0.6525 -1.4870  1.0254
  5134G12c O00995351   1.429   7.856   8.859 -0.8969  0.1025 -0.4313
  5134G12c H00P95352   1.490   7.829   8.792  1.3605 -5.7309  3.5629
  5134G12c C01W95353   1.340   7.709   9.098  0.4371 -0.8486  0.6768
  5134G12c H00O95354   1.297   7.690   9.195  0.5322 -0.9681  0.6956
  5134G12c C01X95355   1.310   7.619   8.972  1.6432  1.9144 -1.3895
  5134G12c H00N95356   1.383   7.642   8.895  4.0993 -2.4715 -0.5404
  5134G12c H00M95357   1.307   7.514   9.002  1.2963  0.9961 -4.4599
  5134G12c C01Y95358   1.179   7.653   8.893 -1.2140 -0.0964 -0.7649
  5134G12c C02D95359   1.222   7.661   8.754  0.0586  0.2922  2.1708
  5134G12c H01995360   1.288   7.648   8.669 -3.6499  2.5192 -1.2183
  5134G12c C02C95361   1.106   7.699   8.679  0.5376 -1.0340 -1.2614
  5134G12c H01A95362   1.134   7.700   8.574 -2.5508 -0.1861 -2.1350
  5134G12c C02B95363   0.969   7.689   8.732 -0.0691 -0.8914 -0.0636
  5134G12c O00E95364   0.869   7.718   8.635 -1.3823  1.6399  0.6094
  5134G12c H01B95365   0.812   7.649   8.605  5.1330 -2.1594 -4.6208
  5134G12c C02F95366   0.949   7.687   8.864  1.7874 -1.2196 -0.4312
  5134G12c O00F95367   0.816   7.716   8.907  0.7465  0.3279  0.1411
  5134G12c C02G95368   0.817   7.765   9.047 -0.4559 -0.1693 -0.3208
  5134G12c H01795369   0.816   7.671   9.102  3.1802  4.4029  8.3664
  5134G12c H01695370   0.922   7.778   9.073 -0.2819 -5.9829  2.7555
  5134G12c H01595371   0.726   7.825   9.049 -0.5879 -0.4180  1.0771
  5134G12c C02E95372   1.049   7.626   8.942  0.0206  0.1026  1.4292
  5134G12c H01895373   1.008   7.589   9.035 -3.1078  0.0767  0.1069
  5134G12c C01F95374   1.496   7.974   9.417  0.0161 -0.4041  0.3923
  5134G12c C01G95375   1.626   7.903   9.423  0.6492 -0.3908  0.7515
  5134G12c H00L95376   1.664   7.849   9.338 -0.1098  3.1914 -1.9333
  5134G12c C01H95377   1.717   7.965   9.520  0.3721  0.5809 -1.3426
  5134G12c H00B95378   1.819   7.931   9.526  2.2255  4.9925 -5.3136
  5134G12c C01I95379   1.688   8.086   9.586 -1.4721 -0.0125  0.5822
  5134G12c C01U95380   1.454   8.057   9.523  0.8130  0.0516 -0.1867
  5134G12c C00S95381   1.354   8.610   9.439 -0.8370 -0.3278  0.0311
  5134G12c C00K95382   1.510   8.518   9.565 -0.1442 -1.3906  1.1093
  5134G12c C00N95383   1.368   8.167   9.486 -1.1061  0.8412  1.6185
  5134G12c C00095384   1.554   8.102   9.613  0.9271  0.6502 -0.3180
  5134G12c C01J95385   1.763   8.203   9.640 -0.3758 -1.7267 -0.5907
  5134G12c C01K95386   1.914   8.210   9.669 -1.3690 -1.1930  1.9279
  5134G12c C01P95387   2.033   8.133   9.699 -0.6756  1.4038 -0.0937
  5134G12c C01Q95388   2.001   8.005   9.768  0.5580  0.5199 -0.6199
  5134G12c H00G95389   1.977   8.009   9.873  1.1963 -4.7363 -0.1020
  5134G12c C01R95390   1.990   7.886   9.694  0.5469 -1.4504  0.0110
  5134G12c H00F95391   2.046   7.885   9.601  2.6152  1.8917  1.1506
  5134G12c C01S95392   1.979   7.760   9.790 -0.8484  1.0696 -0.1679
  5134G12c H00E95393   2.066   7.697   9.767  1.2891  4.6046 -2.1609
  5134G12c H00D95394   2.015   7.790   9.888 -2.0761 -2.7581  1.5615
  5134G12c O00595395   1.869   7.679   9.760  1.3820  0.7039  0.1164
  5134G12c H00C95396   1.924   7.602   9.755  2.5953  1.6138 -0.9910
  5134G12c C01O95397   2.159   8.161   9.695 -0.4443 -0.1817  0.4941
  5134G12c H00H95398   2.235   8.084   9.687 -1.1659 -1.0296  1.7017
  5134G12c C01N95399   2.197   8.294   9.685 -0.6737  0.5995 -0.6673
  5134G12c O00695400   2.326   8.301   9.684 -0.2184  1.6743 -0.5055
  5134G12c C01T95401   2.381   8.290   9.820  1.4994  0.0288 -1.4035
  5134G12c H00K95402   2.360   8.230   9.908  4.7634 -4.3361 -3.4385
  5134G12c H00J95403   2.408   8.391   9.850  6.6921 -1.0714 -1.9266
  5134G12c H00I95404   2.472   8.261   9.769  2.8696  1.1306  0.3575
  5134G12c C01M95405   2.086   8.388   9.672 -0.2197 -0.1945 -1.2911
  5134G12c C02095406   1.622   8.546   9.648  1.0000 -0.6288 -0.3779
  5134G12c C02195407   1.673   8.681   9.696  1.7674 -0.4817  1.9177
  5134G12c C01L95408   1.945   8.352   9.667 -0.4880  0.3795 -1.8612
  5134G12c O00795409   2.135   8.505   9.621  1.8340 -0.1687  0.8108
  5134G12c C02295410   1.813   8.694   9.660  1.5826  0.1144  0.8905
  5134G12c C02395411   1.640   8.790   9.605  0.2096  1.5938 -1.2825
  5134G12c C00G95412   1.598   8.953   9.373 -0.3513 -0.1246 -0.6460
  5134G12c C00E95413   1.689   9.117   9.217  0.3012 -0.1378 -1.2991
  5134G12c O00A95414   1.700   9.191   9.100  0.0923 -0.8423 -0.1632
  5134G12c C02495415   1.710   9.124   8.970 -0.9695 -1.5339  0.8365
  5134G12c H00V95416   1.631   9.092   8.902 -2.1985 -0.0602  1.5326
  5134G12c H00U95417   1.741   9.026   9.005  4.1701 -1.9539 -4.1179
  5134G12c H00T95418   1.791   9.131   8.898 -1.8628 -1.2689 -0.1689
  5144G12c C00D95419  10.915   8.036   5.147  1.0610 -0.7158  0.0237
  5144G12c O00B95420  10.770   8.047   5.132 -1.7616 -0.5893  0.0568
  5144G12c C02595421  10.729   8.074   5.005  1.6190 -0.5276  1.1597
  5144G12c C02695422  10.713   7.946   4.928 -0.2688 -0.8805  0.6152
  5144G12c H00Y95423  10.615   7.907   4.956 -0.8077  2.0092  2.9995
  5144G12c H00X95424  10.708   7.965   4.820 -0.6421 -0.6267  0.6743
  5144G12c O00C95425  10.805   7.852   4.913 -0.3845 -0.8760 -1.1913
  5144G12c H00W95426  10.837   7.854   5.002  1.1278  0.5843 -1.7563
  5144G12c C02795427  10.680   8.199   4.976 -0.4875 -1.5397  1.2352
  5144G12c O00D95428  10.639   8.284   5.071 -0.9154  0.1481  0.8921
  5144G12c H00Z95429  10.590   8.233   5.133 -1.6458 -1.3117 -0.8445
  5144G12c C02895430  10.631   8.231   4.843 -0.1233  0.7354  0.1832
  5144G12c C02995431  10.547   8.163   4.752  0.0332  1.1806  0.8031
  5144G12c H01095432  10.511   8.093   4.826  0.6527  1.7603  1.6673
  5144G12c C02T95433  10.538   8.173   4.614  0.7034 -0.8771 -1.2987
  5144G12c H01O95434  10.469   8.125   4.547  1.9865 -0.8534 -2.6776
  5144G12c C02S95435  10.599   8.278   4.561  2.1626  1.3146  0.2390
  5144G12c O00J95436  10.539   8.323   4.445 -1.6782 -0.7972  1.2504
  5144G12c H01P95437  10.598   8.347   4.376  1.0031 -0.2574  3.6388
  5144G12c C02R95438  10.669   8.377   4.639 -0.5816  1.1840 -1.0762
  5144G12c O00I95439  10.711   8.492   4.589 -0.7724  0.4861  1.2497
  5144G12c C02Q95440  10.815   8.556   4.657 -1.2775  1.7040  0.5802
  5144G12c H01N95441  10.744   8.575   4.737 -2.2860 -5.2806  1.6289
  5144G12c H01R95442  10.887   8.620   4.605  2.7399 -2.2691  0.9431
  5144G12c H01Q95443  10.900   8.501   4.699 -0.5441 -0.4445 -3.4105
  5144G12c C02A95444  10.694   8.340   4.771  1.3543  1.1191  1.4562
  5144G12c H01195445  10.695   8.429   4.833 -0.3747  2.3141 -0.1658
  5144G12c C00C95446  11.005   8.052   5.048  0.8406 -1.4912 -0.6291
  5144G12c H01295447  10.995   8.106   4.955  2.1971  1.3776  0.8065
  5144G12c C00B95448  11.152   8.040   5.067 -1.1569 -0.0133  0.9611
  5144G12c C00A95449  11.254   8.039   4.978 -0.6298  0.6099  1.8268
  5144G12c C00995450  11.252   8.011   4.839  0.0495 -1.0637 -0.2957
  5144G12c C00895451  11.158   7.959   4.745  1.3759 -0.6555 -0.7132
  5144G12c H01395452  11.058   7.951   4.784  1.4339  1.5576 -0.0333
  5144G12c C00795453  11.193   7.922   4.604  1.1196  1.4251 -0.6215
  5144G12c H01495454  11.107   7.910   4.540 -4.8031  0.0992  6.9417
  5144G12c C00695455  11.327   7.889   4.576 -0.8942  1.0688 -0.3521
  5144G12c C00595456  11.419   7.912   4.682 -0.0639  1.0881 -0.5456
  5144G12c C00495457  11.529   7.827   4.697  1.0103 -0.7855  1.1680
  5144G12c C00395458  11.589   7.801   4.823 -0.1633 -0.2515 -0.2476
  5144G12c C00295459  11.718   7.728   4.803  0.2537 -1.5037  1.3222
  5144G12c C00195460  11.836   7.729   4.891 -0.4655  0.9439 -0.2902
  5144G12c C00M95461  11.805   7.677   5.026  0.0304  1.1773  0.1629
  5144G12c C00L95462  11.705   7.747   5.108 -1.0065  0.2053  1.9172
  5144G12c C00R95463  11.653   7.692   5.227 -1.3903  0.0494 -1.1141
  5144G12c C00Q95464  11.684   7.589   5.326  0.5690 -2.4105  0.0472
  5144G12c C00V95465  11.588   7.594   5.432 -0.6045 -0.2007 -1.2970
  5144G12c C00U95466  11.478   7.679   5.449 -0.7432  0.2425  1.6836
  5144G12c C00T95467  11.449   7.764   5.339  1.3125  1.3786 -0.0394
  5144G12c C01695468  11.332   7.841   5.328 -0.0688  2.1237 -1.7826
  5144G12c C01595469  11.244   7.846   5.437 -0.4983 -1.3346  0.1860
  5144G12c C01095470  11.272   7.769   5.555  0.4034 -1.5715  2.4867
  5144G12c C01195471  11.198   7.774   5.675  0.6480  0.0593  0.3038
  5144G12c H00595472  11.221   7.716   5.763  4.6373  2.2896  0.8779
  5144G12c C01295473  11.085   7.865   5.686 -0.9270 -0.8190  0.9988
  5144G12c C01795474  11.006   7.878   5.810  0.1041 -0.0361  0.6939
  5144G12c O00295475  11.040   7.976   5.892 -0.0425  2.8476 -1.6688
  5144G12c H00495476  10.984   7.939   5.959  4.0746  0.5648  0.6942
  5144G12c C01895477  10.906   7.791   5.843 -0.6863 -2.0934 -0.6797
  5144G12c O00195478  10.829   7.785   5.970 -0.1706  0.7814 -0.9234
  5144G12c H00395479  10.791   7.701   5.993 -3.0548  0.8898 -4.7443
  5144G12c C01995480  10.861   7.693   5.759  0.4054  0.5841  1.5469
  5144G12c H00295481  10.797   7.737   5.682 -1.6334 -4.9517 -0.1660
  5144G12c H00195482  10.944   7.643   5.709 -0.3973 -0.0303  0.7969
  5144G12c O00095483  10.785   7.582   5.841  1.3399 -0.2144  0.6318
  5144G12c C01A95484  10.737   7.478   5.748 -0.3061  1.1778  0.1499
  5144G12c C02K95485  10.642   7.374   5.791  0.7752 -0.1164  0.4092
  5144G12c O00G95486  10.599   7.403   5.914  1.1617 -0.0336  0.9292
  5144G12c C02M95487  10.493   7.350   6.008  1.2495  1.2167  1.0491
  5144G12c H01G95488  10.485   7.433   6.079  0.2514  3.2205 -1.3327
  5144G12c H01F95489  10.414   7.325   5.936  2.0473  5.2758 -1.3860
  5144G12c H01E95490  10.548   7.273   6.063  0.2220  1.5072  2.5338
  5144G12c C02J95491  10.609   7.258   5.710 -1.0721  0.2756  0.6615
  5144G12c H01H95492  10.556   7.168   5.738 -1.8085  1.5710  3.6375
  5144G12c C02I95493  10.680   7.227   5.586  0.0016  0.0531 -0.2174
  5144G12c C02N95494  10.651   7.107   5.511  1.9844 -0.0184 -0.6653
  5144G12c H01M95495  10.591   7.020   5.535  0.0195  0.6212 -3.0359
  5144G12c C02O95496  10.696   7.091   5.381 -1.5369  0.5242 -0.1684
  5144G12c H01L95497  10.789   7.143   5.361  1.9388 -1.8849  7.8736
  5144G12c C02P95498  10.619   6.984   5.282 -0.7383  0.9926 -0.3790
  5144G12c H01K95499  10.699   6.936   5.226 -1.5872 -0.8354 -0.0355
  5144G12c H01J95500  10.586   6.897   5.339 -0.1732  0.8497 -0.2593
  5144G12c O00H95501  10.541   7.043   5.172 -0.9970 -0.1108  0.7261
  5144G12c H01I95502  10.477   6.982   5.136  4.4130 -4.2477 -2.6916
  5144G12c C02H95503  10.758   7.319   5.540 -0.4859  0.3834 -1.2103
  5144G12c H01C95504  10.820   7.301   5.454  1.5645 -3.3609  0.8950
  5144G12c C02L95505  10.800   7.440   5.618 -0.2548  0.8234  0.0559
  5144G12c H01D95506  10.900   7.480   5.606  0.2226 -1.2661 -3.5762
  5144G12c C01395507  11.054   7.942   5.559  1.0330  1.7290 -0.2380
  5144G12c H00095508  10.980   8.017   5.580 -1.3116 -0.6090  0.0928
  5144G12c C01495509  11.134   7.929   5.425 -1.9676  1.9490 -2.0528
  5144G12c C00F95510  11.100   7.968   5.296  0.5062 -0.7771 -2.0227
  5144G12c C00H95511  11.307   7.917   5.212 -0.3277  0.2463 -0.5258
  5144G12c C00I95512  11.409   7.943   5.121 -2.6730 -1.2959 -1.3858
  5144G12c C00J95513  11.541   7.898   5.164  0.9597  0.2215  2.1190
  5144G12c C00Z95514  11.370   7.677   5.555  2.0531  0.0964  0.1269
  5144G12c C00Y95515  11.405   7.598   5.663  2.2628  0.0442  0.1111
  5144G12c H00695516  11.376   7.602   5.767-10.9594  2.5343 -2.6895
  5144G12c C00X95517  11.508   7.500   5.645 -0.7838 -1.1563 -0.4480
  5144G12c O00395518  11.551   7.446   5.767 -1.4044  0.3236  0.6822
  5144G12c C01B95519  11.521   7.316   5.795  1.9050  1.0692 -1.2484
  5144G12c H00995520  11.610   7.293   5.853 -1.9205 -0.0350  4.5786
  5144G12c H00895521  11.455   7.278   5.717  0.0412 -3.4129  2.2857
  5144G12c H00795522  11.476   7.299   5.893  2.8242 -0.5131 -1.0758
  5144G12c C00W95523  11.591   7.483   5.527  0.2562 -1.1507 -0.9737
  5144G12c O00495524  11.697   7.387   5.529 -0.1857  0.1256 -0.0082
  5144G12c C01C95525  11.753   7.375   5.412 -0.3613 -1.2541 -0.0526
  5144G12c H00A95526  11.825   7.294   5.407  4.0037  2.3472  0.7141
  5144G12c C00P95527  11.777   7.487   5.319 -0.9929 -0.0698  0.1032
  5144G12c C00O95528  11.839   7.462   5.180 -0.6534  2.3499 -0.9396
  5144G12c C01D95529  11.890   7.342   5.140 -1.7289 -1.2785 -0.9901
  5144G12c H00S95530  11.940   7.308   5.230 -0.2977  4.1296  0.4492
  5144G12c C01E95531  11.936   7.283   5.021  0.1993 -0.8947  1.1342
  5144G12c O00895532  11.973   7.146   5.002 -1.0144 -0.3461 -0.2716
  5144G12c C01V95533  12.008   7.061   5.120 -0.5257  0.4024  0.2275
  5144G12c C01Z95534  12.141   7.093   5.211  1.2345  1.3145  0.7942
  5144G12c H00R95535  12.101   7.076   5.311  3.3396 -2.4592  1.0857
  5144G12c H00Q95536  12.207   7.008   5.227  1.8134  2.0544  2.4400
  5144G12c O00995537  12.218   7.211   5.184  0.0890 -0.4839  0.6374
  5144G12c H00P95538  12.280   7.195   5.114 -4.3551 -1.1351 -3.3816
  5144G12c C01W95539  11.955   6.931   5.125  1.3668  1.4801  0.2286
  5144G12c H00O95540  11.886   6.932   5.042  5.3785 -3.1728 -3.4639
  5144G12c C01X95541  12.009   6.797   5.195 -0.7220  0.1903 -1.2920
  5144G12c H00N95542  12.026   6.698   5.154  2.7710  0.8048 -1.4900
  5144G12c H00M95543  12.096   6.834   5.248 -3.2086  0.5539  2.7304
  5144G12c C01Y95544  11.899   6.757   5.311  1.2002 -0.4446  0.1001
  5144G12c C02D95545  11.948   6.733   5.446 -1.6529 -1.4865  0.6453
  5144G12c H01995546  12.044   6.772   5.475 -1.6317 -1.2422  0.2529
  5144G12c C02C95547  11.865   6.699   5.540 -0.4755  1.8886 -0.2970
  5144G12c H01A95548  11.920   6.692   5.633 -0.8217 -0.9377 -0.2630
  5144G12c C02B95549  11.722   6.707   5.524  0.4993 -2.1893  0.9181
  5144G12c O00E95550  11.630   6.722   5.623  0.6394 -1.0597  0.4638
  5144G12c H01B95551  11.660   6.753   5.707 -0.3510 -3.3693  1.7283
  5144G12c C02F95552  11.674   6.714   5.392 -0.3432 -3.7369 -0.1556
  5144G12c O00F95553  11.534   6.725   5.387  0.6926  0.1391  0.9366
  5144G12c C02G95554  11.446   6.728   5.279 -1.6255 -1.6486  0.5512
  5144G12c H01795555  11.364   6.784   5.323  4.5006  4.8088  5.0154
  5144G12c H01695556  11.394   6.634   5.264  4.5893 -5.0727 -1.2827
  5144G12c H01595557  11.471   6.777   5.184 -0.5013  3.6138  3.3424
  5144G12c C02E95558  11.749   6.752   5.295 -1.0159  1.1077 -1.6538
  5144G12c H01895559  11.698   6.766   5.202  2.0136  3.8198 -3.0249
  5144G12c C01F95560  11.911   7.367   4.917 -0.8041 -0.7147  0.2329
  5144G12c C01G95561  11.945   7.335   4.780  0.0275 -0.3851  0.0408
  5144G12c H00L95562  11.983   7.239   4.749  2.0139 -0.5452  2.8688
  5144G12c C01H95563  11.918   7.429   4.677 -1.7048 -0.4690  0.2733
  5144G12c H00B95564  11.901   7.399   4.575  3.2131  1.5385 -1.3085
  5144G12c C01I95565  11.859   7.562   4.716  0.0469 -0.7040 -0.2075
  5144G12c C01U95566  11.880   7.507   4.940 -0.3168 -0.1037 -1.6868
  5144G12c C00S95567  11.536   7.780   5.235  0.3203  0.1736  0.0824
  5144G12c C00K95568  11.629   7.857   5.062 -0.2331  0.7033  0.2443
  5144G12c C00N95569  11.849   7.542   5.067  0.2976  0.2157 -0.4488
  5144G12c C00095570  11.908   7.616   4.837  1.2584  0.3761  0.7701
  5144G12c C01J95571  11.746   7.649   4.686 -1.2872  0.4092  1.1446
  5144G12c C01K95572  11.686   7.674   4.562  0.6652  0.6222  0.6385
  5144G12c C01P95573  11.724   7.623   4.435  0.0343 -0.9306  0.0552
  5144G12c C01Q95574  11.853   7.559   4.418 -0.0622  0.8082  0.5709
  5144G12c H00G95575  11.871   7.474   4.354 -1.5402  2.4941 -2.2161
  5144G12c C01R95576  11.962   7.630   4.458  0.9007  0.1544 -1.4052
  5144G12c H00F95577  11.933   7.729   4.491 -5.0158 -2.8515  3.4658
  5144G12c C01S95578  12.117   7.607   4.466 -0.7947  1.8745 -0.9124
  5144G12c H00E95579  12.134   7.522   4.399 -1.3133 -2.0455  3.6735
  5144G12c H00D95580  12.136   7.701   4.415 -2.4653 -0.9852 -7.3902
  5144G12c O00595581  12.165   7.588   4.606  0.2986 -1.3167 -1.1005
  5144G12c H00C95582  12.082   7.583   4.652  0.0171  0.4885 -1.3631
  5144G12c C01O95583  11.635   7.622   4.329 -1.5181 -2.5011  1.2121
  5144G12c H00H95584  11.657   7.579   4.232 -0.5634 -6.3923  3.0257
  5144G12c C01N95585  11.529   7.719   4.335 -0.1507  1.1450  0.7764
  5144G12c O00695586  11.466   7.748   4.225 -0.0186 -0.8897  0.4877
  5144G12c C01T95587  11.501   7.884   4.173  1.5542  1.3357  0.6546
  5144G12c H00K95588  11.610   7.882   4.171  1.7093 -0.2512  5.4057
  5144G12c H00J95589  11.496   7.974   4.235 -5.0690  1.5246  0.2286
  5144G12c H00I95590  11.461   7.927   4.081  5.0611 -1.6358 -2.3855
  5144G12c C01M95591  11.493   7.777   4.457 -0.5106 -0.4708  0.4719
  5144G12c C02095592  11.574   7.888   4.931  2.2952  0.8121 -0.0101
  5144G12c C02195593  11.475   7.986   4.906  0.7241  0.8521 -0.1232
  5144G12c C01L95594  11.574   7.764   4.575  0.2882 -0.5988  1.0591
  5144G12c O00795595  11.381   7.843   4.453  1.2672 -0.8516  0.0054
  5144G12c C02295596  11.389   7.980   4.805  0.7504 -0.4133 -0.5797
  5144G12c C02395597  11.390   8.022   5.010 -0.0040 -0.5254 -0.0492
  5144G12c C00G95598  11.196   7.986   5.188  0.8374 -0.8875 -0.6402
  5144G12c C00E95599  10.961   7.998   5.273 -0.0639 -0.4307  0.5664
  5144G12c O00A95600  10.857   7.976   5.362  0.2220 -0.7305  1.4470
  5144G12c C02495601  10.798   8.101   5.399 -0.4114 -0.8725  0.6815
  5144G12c H00V95602  10.774   8.127   5.502  0.9885 -1.3797  1.1437
  5144G12c H00U95603  10.825   8.188   5.340 -4.3142 -1.5151 -2.2628
  5144G12c H00T95604  10.700   8.063   5.369 -0.9599  0.9859  0.0932
  5154G12c C00D95605  12.012   0.969   9.367  0.5101  0.9414 -0.4992
  5154G12c O00B95606  12.026   0.860   9.283 -0.4455  0.7524  1.1927
  5154G12c C02595607  12.023   0.897   9.152  1.4104  0.7831 -1.2901
  5154G12c C02695608  11.980   0.771   9.062 -0.0204 -1.1959 -1.2486
  5154G12c H00Y95609  11.956   0.681   9.118  2.1667 -0.9132  0.2083
  5154G12c H00X95610  12.048   0.736   8.985 -1.5327 -0.9811 -2.7103
  5154G12c O00C95611  11.850   0.786   8.993 -0.2373 -1.2940 -1.6267
  5154G12c H00W95612  11.838   0.726   8.921 -1.2890 -0.0865 -2.4742
  5154G12c C02795613  12.103   0.984   9.090  1.3682 -0.2070  0.3553
  5154G12c O00D95614  12.180   1.065   9.171 -0.8388 -0.0672 -0.0480
  5154G12c H00Z95615  12.135   1.125   9.230  1.8016 -0.4139  2.4477
  5154G12c C02895616  12.117   0.966   8.953  0.3551  1.1003  0.6693
  5154G12c C02995617  12.224   0.891   8.899 -1.1768  0.5477 -0.5975
  5154G12c H01095618  12.289   0.835   8.964  4.6006  2.5459 -4.2550
  5154G12c C02T95619  12.244   0.887   8.764  0.6182  1.0751  0.2488
  5154G12c H01O95620  12.336   0.841   8.728 -0.3801 -1.7540  1.2243
  5154G12c C02S95621  12.155   0.951   8.686 -1.6786  0.4475 -0.6311
  5154G12c O00J95622  12.193   0.925   8.558  0.8947 -1.5631  0.1801
  5154G12c H01P95623  12.286   0.914   8.549  1.8273  3.7577  1.9886
  5154G12c C02R95624  12.058   1.028   8.740 -0.1791 -0.3986 -1.2340
  5154G12c O00I95625  11.992   1.106   8.638 -0.9755 -0.3885  0.2734
  5154G12c C02Q95626  11.888   1.184   8.670 -0.7895 -1.3821 -0.1201
  5154G12c H01N95627  11.861   1.237   8.579 -6.5148 -0.3422  1.9601
  5154G12c H01R95628  11.795   1.154   8.717 -0.2598 -1.7576  0.7043
  5154G12c H01Q95629  11.937   1.270   8.717 -2.1488  1.8479 -4.2394
  5154G12c C02A95630  12.023   1.024   8.871  2.2484  0.0118  2.7100
  5154G12c H01195631  11.959   1.098   8.918  1.2065  0.7588  0.1725
  5154G12c C00C95632  12.110   0.984   9.463  0.8671  1.0429  0.3730
  5154G12c H01295633  12.203   0.931   9.451 -2.6510 -4.3086 -6.4872
  5154G12c C00B95634  12.097   1.077   9.558  0.5118  0.0661 -1.0302
  5154G12c C00A95635  12.155   1.067   9.683  0.0205  0.1320 -1.0354
  5154G12c C00995636  12.138   0.941   9.761  1.6148  1.1501 -0.2342
  5154G12c C00895637  12.032   0.852   9.758 -0.6340  1.6144 -0.4755
  5154G12c H01395638  11.987   0.849   9.660  0.7520  0.6653 -1.1100
  5154G12c C00795639  12.009   0.766   9.865  0.9979  0.4367 -0.8406
  5154G12c H01495640  11.939   0.685   9.855 -2.9526  3.4429  1.3277
  5154G12c C00695641  12.055   0.820   9.981  2.1655  0.8903 -0.2000
  5154G12c C00595642  12.118   0.952   9.996  1.4195  0.7970 -1.2544
  5154G12c C00495643  12.132   1.024  10.118 -0.2886  1.1798  0.0518
  5154G12c C00395644  12.145   1.154  10.116 -1.7767 -0.1826 -0.5645
  5154G12c C00295645  12.124   1.222  10.240 -0.6642 -0.7238  1.4537
  5154G12c C00195646  12.109   1.368  10.272 -0.2100 -0.0391  0.5945
  5154G12c C00M95647  12.035   1.461  10.189 -0.4364  0.2947 -1.2594
  5154G12c C00L95648  12.047   1.467  10.043 -0.2207 -0.5251 -0.9445
  5154G12c C00R95649  11.945   1.546   9.974 -0.7122  1.6846  1.1746
  5154G12c C00Q95650  11.842   1.637   9.988  0.0927  1.1877  2.5053
  5154G12c C00V95651  11.762   1.657   9.873 -0.3965  0.6630 -1.0778
  5154G12c C00U95652  11.790   1.592   9.752  0.7391 -0.2236  0.3761
  5154G12c C00T95653  11.891   1.496   9.729  0.0516 -1.4794  0.1341
  5154G12c C01695654  11.907   1.397   9.627  1.3578  0.1149  0.6058
  5154G12c C01595655  11.808   1.405   9.529 -0.6749  1.3787  1.8490
  5154G12c C01095656  11.717   1.510   9.525  0.7727  1.0404  0.0683
  5154G12c C01195657  11.621   1.491   9.434  1.7639 -0.5504  0.0055
  5154G12c H00595658  11.532   1.551   9.447  2.3229 -0.0112  1.3790
  5154G12c C01295659  11.619   1.379   9.360 -1.6215 -0.4413  1.2336
  5154G12c C01795660  11.493   1.349   9.282  0.6346  0.4561  0.5822
  5154G12c O00295661  11.383   1.324   9.368  3.2012  0.0593  0.2927
  5154G12c H00495662  11.349   1.409   9.393  7.1935  1.1671  2.4148
  5154G12c C01895663  11.511   1.349   9.141  0.1852 -0.1873  0.7574
  5154G12c O00195664  11.616   1.405   9.082 -1.5036  0.7809  0.3395
  5154G12c H00395665  11.641   1.359   9.004 -0.0312  5.2674 -2.0088
  5154G12c C01995666  11.394   1.280   9.043  0.5647  0.2256  0.6792
  5154G12c H00295667  11.376   1.228   8.949 -3.1893 -0.6836  1.8219
  5154G12c H00195668  11.309   1.227   9.085  2.0205 -1.7406  1.2237
  5154G12c O00095669  11.367   1.391   8.949 -1.2919 -0.6401 -0.7640
  5154G12c C01A95670  11.239   1.432   8.928 -0.6256 -0.4008  1.2489
  5154G12c C02K95671  11.205   1.521   9.019 -0.0810 -0.6924  1.8690
  5154G12c O00G95672  11.297   1.562   9.111  0.2471  0.5004  1.0591
  5154G12c C02M95673  11.380   1.660   9.071 -1.6553 -0.3171 -0.1150
  5154G12c H01G95674  11.327   1.755   9.077-10.2655 -4.6730  0.3070
  5154G12c H01F95675  11.393   1.663   8.963  2.6672 -1.5636  0.2709
  5154G12c H01E95676  11.481   1.658   9.113 -2.0246 -1.0749  0.7574
  5154G12c C02J95677  11.089   1.583   9.012  1.1512  0.2081 -1.2721
  5154G12c H01H95678  11.070   1.644   9.100  1.9546  1.4392 -1.9352
  5154G12c C02I95679  10.994   1.558   8.914  0.0030 -1.1374 -0.2658
  5154G12c C02N95680  10.870   1.636   8.906 -0.4260 -0.9774 -0.8191
  5154G12c H01M95681  10.793   1.569   8.873 -2.1010  2.1101 -3.5195
  5154G12c C02O95682  10.900   1.756   8.849 -0.3607 -0.5425 -0.3134
  5154G12c H01L95683  10.998   1.792   8.875 -3.3676  1.9286  9.7948
  5154G12c C02P95684  10.786   1.848   8.795 -0.4176 -1.3724  1.1522
  5154G12c H01K95685  10.837   1.862   8.699  0.1418 -0.4670  1.5746
  5154G12c H01J95686  10.698   1.796   8.758  1.3536 -0.2119 -5.2917
  5154G12c O00H95687  10.778   1.985   8.851  0.7113 -1.8660 -0.1228
  5154G12c H01I95688  10.753   1.986   8.942 -0.7981  1.0587 -0.5246
  5154G12c C02H95689  11.040   1.459   8.820  0.2799  0.6343 -0.1579
  5154G12c H01C95690  10.979   1.430   8.735 -2.8127 -3.2762  3.1857
  5154G12c C02L95691  11.155   1.395   8.827 -1.9714  0.2744 -0.5610
  5154G12c H01D95692  11.196   1.315   8.766 -2.2467  4.1532 -6.1787
  5154G12c C01395693  11.718   1.294   9.339  0.9569 -0.6061  1.2542
  5154G12c H00095694  11.706   1.229   9.254 -1.3960  1.1942  0.1704
  5154G12c C01495695  11.820   1.298   9.436 -1.0996  0.5606  0.8695
  5154G12c C00F95696  11.907   1.187   9.441  0.3562 -0.2930 -0.2156
  5154G12c C00H95697  12.011   1.300   9.635  0.4906 -1.5735  0.7462
  5154G12c C00I95698  12.100   1.303   9.733  0.6461 -0.3314 -1.1220
  5154G12c C00J95699  12.058   1.387   9.839  0.5390 -1.0868  0.7388
  5154G12c C00Z95700  11.726   1.615   9.630  1.4683 -0.8090  0.8752
  5154G12c C00Y95701  11.659   1.733   9.630 -0.4324 -0.2243  0.3846
  5154G12c H00695702  11.586   1.740   9.550  6.8018  3.0547 -6.5963
  5154G12c C00X95703  11.647   1.808   9.745 -1.3855 -1.5255  0.3935
  5154G12c O00395704  11.626   1.947   9.735 -0.0625  0.1326  0.4860
  5154G12c C01B95705  11.617   2.012   9.605 -0.3588  0.0530  1.0894
  5154G12c H00995706  11.716   1.980   9.570 -0.0956  1.4607  0.4753
  5154G12c H00895707  11.603   2.120   9.599 -7.0301 -0.7040 -0.9221
  5154G12c H00795708  11.528   2.005   9.542  1.9403  5.9363 -3.2914
  5154G12c C00W95709  11.676   1.768   9.874  1.7019 -0.8985 -0.2613
  5154G12c O00495710  11.667   1.859   9.982 -1.4184  0.4819 -0.9118
  5154G12c C01C95711  11.706   1.807  10.091  0.7664 -0.1182 -1.2050
  5154G12c H00A95712  11.725   1.892  10.155 -2.5703  1.0136 -1.6087
  5154G12c C00P95713  11.801   1.705  10.104 -1.4798 -1.3717  1.0057
  5154G12c C00O95714  11.825   1.628  10.220  0.4799  0.1686  1.8426
  5154G12c C01D95715  11.743   1.657  10.336  1.7889  0.0811  0.3562
  5154G12c H00S95716  11.666   1.733  10.329 -0.4728 -2.0770  0.7255
  5154G12c C01E95717  11.750   1.577  10.465 -1.3511 -0.0856  0.6152
  5154G12c O00895718  11.667   1.597  10.570 -1.0148 -0.6209 -0.7596
  5154G12c C01V95719  11.645   1.720  10.616 -2.3745 -0.2770  0.4372
  5154G12c C01Z95720  11.781   1.802  10.615 -1.4430  2.3802  0.3442
  5154G12c H00R95721  11.876   1.748  10.623 -3.5201 -0.7293  6.6937
  5154G12c H00Q95722  11.780   1.829  10.509 -1.5693 -2.6942 -1.0896
  5154G12c O00995723  11.798   1.886  10.728  0.3226  0.7015  1.0039
  5154G12c H00P95724  11.838   1.970  10.710 -1.0478  1.8539  3.0975
  5154G12c C01W95725  11.525   1.772  10.640  2.5090 -0.3488 -1.0279
  5154G12c H00O95726  11.509   1.871  10.681  7.2216 -0.6927  2.0077
  5154G12c C01X95727  11.399   1.699  10.652 -0.0126  0.5545 -0.3845
  5154G12c H00N95728  11.307   1.748  10.618  0.4060  1.6305  0.0183
  5154G12c H00M95729  11.416   1.623  10.575  2.2627  1.1459 -0.4813
  5154G12c C01Y95730  11.350   1.642  10.792 -0.5429  1.3093  0.9806
  5154G12c C02D95731  11.451   1.614  10.894  1.2157 -1.0588  0.7578
  5154G12c H01995732  11.550   1.609  10.851  1.0489 -9.5003  0.6018
  5154G12c C02C95733  11.421   1.564  11.017 -0.4926  1.2693  0.3250
  5154G12c H01A95734  11.498   1.552  11.092 -0.1088  0.2941 -0.2157
  5154G12c C02B95735  11.286   1.574  11.065 -0.6330  0.2013 -0.3058
  5154G12c O00E95736  11.269   1.546  11.198 -0.6305 -0.8778 -1.1058
  5154G12c H01B95737  11.332   1.570  11.264 -0.9026 -5.4186  1.0429
  5154G12c C02F95738  11.172   1.613  10.973 -0.1213  0.3597  0.8738
  5154G12c O00F95739  11.050   1.638  11.020  0.1981  0.7428  0.1495
  5154G12c C02G95740  11.029   1.758  11.087  0.0049  0.7674  1.0283
  5154G12c H01795741  11.102   1.834  11.060 -5.5240  5.3899 -1.9288
  5154G12c H01695742  11.042   1.752  11.195 -3.8524 -1.7666  1.4638
  5154G12c H01595743  10.927   1.779  11.053  1.2074  0.8254 -2.8061
  5154G12c C02E95744  11.213   1.641  10.836  0.3699  1.9969  0.7870
  5154G12c H01895745  11.138   1.677  10.767 -0.5269 -0.7662  0.2723
  5154G12c C01F95746  11.833   1.452  10.473  0.8908 -0.8050  0.4195
  5154G12c C01G95747  11.793   1.338  10.538  0.8421 -0.3412  0.6733
  5154G12c H00L95748  11.726   1.350  10.621  1.8080 -1.0699  1.5705
  5154G12c C01H95749  11.863   1.209  10.515 -1.7525 -0.1922 -0.9325
  5154G12c H00B95750  11.854   1.111  10.560 -2.3465 -2.0228 -4.8062
  5154G12c C01I95751  11.985   1.228  10.437 -0.0249 -1.8348  0.3134
  5154G12c C01U95752  11.927   1.449  10.389  0.8624 -0.0440  0.3761
  5154G12c C00S95753  11.957   1.482   9.842  0.9937 -1.3066 -0.7368
  5154G12c C00K95754  12.093   1.357   9.970 -1.0398 -0.0881 -1.0594
  5154G12c C00N95755  11.936   1.542  10.259 -1.1489  0.8712 -0.6815
  5154G12c C00095756  12.032   1.358  10.398  0.4154 -1.4684  0.1464
  5154G12c C01J95757  12.066   1.146  10.343  0.3791 -0.0369 -0.2862
  5154G12c C01K95758  12.069   1.010  10.351  0.0422  1.0466 -1.3736
  5154G12c C01P95759  12.050   0.933  10.469  1.2270 -0.8137 -0.2766
  5154G12c C01Q95760  12.018   0.953  10.605  0.0285 -0.9524 -0.3011
  5154G12c H00G95761  11.929   0.918  10.654  0.7153  5.0815  6.1476
  5154G12c C01R95762  12.090   1.039  10.678 -1.1095 -1.0406 -1.0958
  5154G12c H00F95763  12.168   1.086  10.620 -3.4429  1.1619 -2.5615
  5154G12c C01S95764  12.049   1.063  10.825  1.7821 -0.1244 -0.4817
  5154G12c H00E95765  12.154   1.061  10.857  0.1949  1.4659  5.4331
  5154G12c H00D95766  11.991   1.154  10.815 -0.0777 -1.1435  0.8461
  5154G12c O00595767  11.964   0.970  10.886  0.0561  0.8551  0.9547
  5154G12c H00C95768  12.007   0.941  10.965 -1.1331 -6.0339 -0.5814
  5154G12c C01O95769  12.045   0.787  10.450 -0.1689 -0.5003  0.9944
  5154G12c H00H95770  12.017   0.727  10.535 -5.0322  6.1352  4.5986
  5154G12c C01N95771  12.033   0.733  10.320  0.6898  0.4949  1.9878
  5154G12c O00695772  12.014   0.595  10.301  0.6601  1.4889 -0.1932
  5154G12c C01T95773  12.114   0.526  10.228 -0.2214  0.3302  0.0117
  5154G12c H00K95774  12.208   0.581  10.229 -3.8284  7.0421  3.5023
  5154G12c H00J95775  12.065   0.488  10.139  0.9945 -2.2062  0.3819
  5154G12c H00I95776  12.126   0.443  10.297 -4.0088 -0.2124  0.1244
  5154G12c C01M95777  12.049   0.824  10.221  1.2997  0.0906 -0.5629
  5154G12c C02095778  12.152   1.228   9.989 -0.9512  2.5376 -0.3185
  5154G12c C02195779  12.205   1.143   9.887 -0.6022  0.8615  0.9895
  5154G12c C01L95780  12.085   0.952  10.231 -0.2143  0.2538 -0.1693
  5154G12c O00795781  12.024   0.756  10.099  0.2947  1.1724  2.2679
  5154G12c C02295782  12.183   1.004   9.887  0.8451 -1.0735  0.9381
  5154G12c C02395783  12.181   1.184   9.754  0.2477  0.8874 -0.4147
  5154G12c C00G95784  12.016   1.198   9.538  0.6340 -0.1731 -0.7508
  5154G12c C00E95785  11.898   1.058   9.372 -1.6176 -1.4176 -0.0588
  5154G12c O00A95786  11.792   1.042   9.288 -1.1008 -0.1247 -0.3214
  5154G12c C02495787  11.684   0.968   9.340 -0.0346  2.0691 -1.8073
  5154G12c H00V95788  11.599   0.950   9.275 -1.3305 -3.7421  1.1618
  5154G12c H00U95789  11.631   1.034   9.408 -2.5090 -1.4732 -0.1639
  5154G12c H00T95790  11.718   0.893   9.412  5.6948  0.8356 -5.4009
  5164G12c C00D95791  11.877  11.015  11.328 -0.0624 -1.1917  2.1551
  5164G12c O00B95792  11.925  11.141  11.329  2.4858 -0.0952  0.4788
  5164G12c C02595793  12.021  11.191  11.414  1.1367  0.2600 -0.6252
  5164G12c C02695794  12.012  11.148  11.557  0.4865 -0.7600  0.4973
  5164G12c H00Y95795  12.063  11.218  11.623  0.2486 -1.6436  1.6395
  5164G12c H00X95796  12.015  11.042  11.584 -5.0018 -2.1103 -3.2977
  5164G12c O00C95797  11.892  11.201  11.598 -0.1411  0.9014 -1.0841
  5164G12c H00W95798  11.837  11.125  11.582 -3.3938  3.4357 -2.4176
  5164G12c C02795799  12.104  11.291  11.374  0.6318  1.1407 -0.0403
  5164G12c O00D95800  12.092  11.340  11.244 -1.2921 -0.9730 -2.0137
  5164G12c H00Z95801  12.015  11.393  11.230 -2.6612 -3.3209 -3.6903
  5164G12c C02895802  12.180  11.363  11.469  0.1552 -2.5944  0.3941
  5164G12c C02995803  12.130  11.474  11.550 -0.5488 -1.5967 -0.7538
  5164G12c H01095804  12.031  11.497  11.512 -2.7927 -4.6986  2.8679
  5164G12c C02T95805  12.179  11.510  11.678 -0.1201  0.8905 -1.4933
  5164G12c H01O95806  12.154  11.591  11.745 -2.4594 -2.0593  1.3678
  5164G12c C02S95807  12.300  11.436  11.708  0.5276  0.0887 -1.2066
  5164G12c O00J95808  12.342  11.458  11.840 -0.5502 -1.1110  0.3395
  5164G12c H01P95809  12.333  11.373  11.879 -7.7270 -2.1927 -2.8298
  5164G12c C02R95810  12.369  11.361  11.610 -0.3533  0.3264  0.3796
  5164G12c O00I95811  12.497  11.346  11.650  0.1170  1.4802  1.5912
  5164G12c C02Q95812  12.583  11.430  11.558  1.3989  0.9908 -0.5333
  5164G12c H01N95813  12.538  11.438  11.458 -1.5622  1.5829  0.7898
  5164G12c H01R95814  12.574  11.524  11.612 -0.8726  1.5959 -1.8790
  5164G12c H01Q95815  12.681  11.394  11.526  0.4517  1.0485 -3.7064
  5164G12c C02A95816  12.296  11.295  11.501 -0.3006  0.3823  0.1995
  5164G12c H01195817  12.335  11.211  11.446 -5.6025 -1.7364 -0.6937
  5164G12c C00C95818  11.931  10.949  11.224  2.1387 -0.0456  1.6647
  5164G12c H01295819  12.024  10.987  11.182 -0.5365  5.5428  0.2924
  5164G12c C00B95820  11.900  10.808  11.206  0.3030  0.9379  0.5843
  5164G12c C00A95821  11.965  10.710  11.115  0.3160  0.0133 -0.4854
  5164G12c C00995822  11.974  10.747  10.972  0.0681 -0.8194 -0.4971
  5164G12c C00895823  11.947  10.852  10.875  0.8829 -0.7258  1.3093
  5164G12c H01395824  11.945  10.943  10.933 -0.0777  1.1434 -1.5294
  5164G12c C00795825  11.907  10.824  10.731 -0.1850 -0.8854  0.6277
  5164G12c H01495826  11.904  10.903  10.656 -5.6351 -6.9095 -6.1767
  5164G12c C00695827  11.912  10.690  10.675  0.9906 -1.0948 -1.3542
  5164G12c C00595828  11.926  10.595  10.766  0.7100 -0.1730 -1.1974
  5164G12c C00495829  11.902  10.455  10.741 -0.4614  1.5370  0.0071
  5164G12c C00395830  11.872  10.355  10.837  1.1296 -0.1112 -1.3485
  5164G12c C00295831  11.843  10.217  10.783 -1.1633  1.3842 -1.7341
  5164G12c C00195832  11.791  10.097  10.849  0.1057 -0.9590 -0.3106
  5164G12c C00M95833  11.676  10.104  10.951  2.1305 -1.6577 -0.6085
  5164G12c C00L95834  11.680  10.208  11.056 -0.5602  1.4147 -0.2435
  5164G12c C00R95835  11.575  10.243  11.140 -1.6677 -1.2847  0.2211
  5164G12c C00Q95836  11.435  10.212  11.147  0.0716  0.4282 -1.3647
  5164G12c C00V95837  11.362  10.297  11.237 -1.3303 -1.5545 -0.5470
  5164G12c C00U95838  11.428  10.409  11.304  0.7419 -0.4768  0.3570
  5164G12c C00T95839  11.554  10.458  11.264  0.1867 -0.2593 -0.1826
  5164G12c C01695840  11.614  10.569  11.303  0.3793 -1.3867 -0.9919
  5164G12c C01595841  11.551  10.643  11.408  1.2351  0.1178  1.0388
  5164G12c C01095842  11.423  10.601  11.462  0.0813 -0.6934  0.8096
  5164G12c C01195843  11.344  10.689  11.526  0.4966  1.3254  0.0931
  5164G12c H00595844  11.237  10.687  11.522  0.5386 -2.6318 -2.1814
  5164G12c C01295845  11.407  10.786  11.601  0.6364 -0.7381  0.5660
  5164G12c C01795846  11.336  10.850  11.711 -1.5035 -1.1853  0.2609
  5164G12c O00295847  11.210  10.897  11.673  1.9757 -0.5780 -0.4255
  5164G12c H00495848  11.150  10.916  11.743  1.4045 -1.8408 -0.5703
  5164G12c C01895849  11.410  10.860  11.829 -0.4279 -0.5985 -1.4996
  5164G12c O00195850  11.531  10.794  11.861  0.0498 -0.6961 -0.2024
  5164G12c H00395851  11.596  10.793  11.792 -2.4969  0.3885 -2.7485
  5164G12c C01995852  11.323  10.880  11.948 -0.7483  0.8487  0.6699
  5164G12c H00295853  11.335  10.987  11.967 -1.1609  1.5271 -2.5789
  5164G12c H00195854  11.350  10.812  12.029 -0.4515  2.5193  2.0064
  5164G12c O00095855  11.183  10.836  11.963 -0.7916  0.1773 -0.8074
  5164G12c C01A95856  11.140  10.703  11.971  0.7255  1.6156  0.8190
  5164G12c C02K95857  11.018  10.676  12.042  0.0402 -0.2633  2.8237
  5164G12c O00G95858  10.977  10.783  12.115  1.5821 -0.0887  1.8550
  5164G12c C02M95859  10.836  10.824  12.091  0.2484  0.4151 -0.6240
  5164G12c H01G95860  10.791  10.799  12.187  0.7230 -0.8305 -0.7245
  5164G12c H01F95861  10.853  10.931  12.074 -4.3325  1.9334  3.0773
  5164G12c H01E95862  10.783  10.769  12.014  0.2713  3.1151 -2.6533
  5164G12c C02J95863  10.970  10.546  12.072  0.2419 -0.1192 -0.6198
  5164G12c H01H95864  10.917  10.535  12.166 -6.6776 -4.6132 -4.5560
  5164G12c C02I95865  11.052  10.424  12.025  1.1987  0.2621 -0.0677
  5164G12c C02N95866  11.016  10.292  12.062  0.4959 -0.3247 -1.6184
  5164G12c H01M95867  11.059  10.198  12.034 -2.0463 -3.0112  2.9009
  5164G12c C02O95868  10.909  10.260  12.145  0.4205  0.2431 -1.5961
  5164G12c H01L95869  10.826  10.328  12.161 -1.0821 -1.0204 -3.8550
  5164G12c C02P95870  10.887  10.136  12.238 -1.4109  0.5937  0.4737
  5164G12c H01K95871  10.871  10.175  12.339 -2.3589 -0.2399  0.6570
  5164G12c H01J95872  10.812  10.071  12.193  4.3216 -4.3255 -2.6543
  5164G12c O00H95873  10.985  10.032  12.229  0.2833  0.6908  1.3633
  5164G12c H01I95874  10.969   9.958  12.174  1.8044  0.8203  0.7080
  5164G12c C02H95875  11.170  10.459  11.957 -1.1567 -0.1887 -0.0525
  5164G12c H01C95876  11.254  10.398  11.927  1.1148  1.2946  2.9555
  5164G12c C02L95877  11.221  10.589  11.926  0.3379  0.8712 -0.0998
  5164G12c H01D95878  11.312  10.591  11.868 -2.7118  6.8957 -5.2494
  5164G12c C01395879  11.532  10.825  11.566 -0.6961  0.9209  0.4252
  5164G12c H00095880  11.583  10.910  11.610  4.2460 -1.4416 -0.3822
  5164G12c C01495881  11.601  10.762  11.451 -2.0163  0.6170 -0.0257
  5164G12c C00F95882  11.710  10.822  11.375  0.5707 -1.3110 -0.1339
  5164G12c C00H95883  11.748  10.609  11.261  0.7382  0.9284 -0.6171
  5164G12c C00I95884  11.816  10.527  11.173  0.3967 -0.2803 -1.3482
  5164G12c C00J95885  11.747  10.410  11.152 -0.8219 -1.7809  0.2789
  5164G12c C00Z95886  11.362  10.489  11.401  1.2628  0.1327 -0.4984
  5164G12c C00Y95887  11.218  10.449  11.429 -0.2512 -0.9446  1.0459
  5164G12c H00695888  11.160  10.522  11.485 -0.5519 -1.3253  1.2270
  5164G12c C00X95889  11.169  10.336  11.368 -1.2878  1.2470 -1.1839
  5164G12c O00395890  11.040  10.308  11.417  0.5633 -0.9401  0.3181
  5164G12c C01B95891  10.947  10.418  11.406 -1.4389  0.7733 -0.1914
  5164G12c H00995892  10.841  10.406  11.383 -0.5953  1.2787 -4.9250
  5164G12c H00895893  10.967  10.457  11.306  2.8626  3.6975  1.6478
  5164G12c H00795894  10.950  10.445  11.511  6.0019  3.3160 -0.7423
  5164G12c C00W95895  11.237  10.252  11.274  0.2332 -0.5918  1.7143
  5164G12c O00495896  11.170  10.133  11.221  0.5068 -1.7519 -1.3187
  5164G12c C01C95897  11.233  10.068  11.105 -0.4872  1.2626  1.1116
  5164G12c H00A95898  11.174  10.082  11.015 -1.1317 -4.1567  0.5359
  5164G12c C00P95899  11.368  10.087  11.085  0.8748 -0.6657  1.2656
  5164G12c C00O95900  11.428  10.032  10.963 -0.1697 -0.7485 -2.4244
  5164G12c C01D95901  11.336   9.966  10.878  0.8709 -0.2673  1.2705
  5164G12c H00S95902  11.249   9.915  10.914  4.5037 -7.3308  0.8823
  5164G12c C01E95903  11.349   9.975  10.735  0.7949  0.9668  1.1374
  5164G12c O00895904  11.233   9.985  10.656  0.1594 -0.7777  1.4857
  5164G12c C01V95905  11.222   9.927  10.528 -0.5702  0.0463  0.7004
  5164G12c C01Z95906  11.173   9.786  10.524 -0.8832 -0.1871  0.8541
  5164G12c H00R95907  11.122   9.748  10.613 -6.4187 -3.5957 -3.3646
  5164G12c H00Q95908  11.084   9.787  10.460 -2.0205 -5.7998  2.0104
  5164G12c O00995909  11.262   9.682  10.493  0.5774 -1.3628 -0.3662
  5164G12c H00P95910  11.340   9.726  10.465 -1.3596  2.2850 -0.3082
  5164G12c C01W95911  11.219  10.014  10.420 -1.8717 -0.5717  0.9574
  5164G12c H00O95912  11.205  10.111  10.465 -0.7210 -0.0534  0.2246
  5164G12c C01X95913  11.191  10.006  10.280 -0.6776 -1.1560  0.2329
  5164G12c H00N95914  11.206   9.901  10.254 -1.8033 -0.2599 -4.4785
  5164G12c H00M95915  11.084  10.007  10.263 -0.0281 -0.6424 -4.2723
  5164G12c C01Y95916  11.220  10.129  10.180  0.5085  0.3269 -0.9318
  5164G12c C02D95917  11.277  10.083  10.065 -0.6811  0.3870  1.4050
  5164G12c H01995918  11.306   9.981  10.045  5.6475  1.1144  5.5235
  5164G12c C02C95919  11.275  10.166   9.952  1.4211  1.4466 -0.4965
  5164G12c H01A95920  11.299  10.125   9.855  3.4211 -0.8902  0.9214
  5164G12c C02B95921  11.234  10.305   9.958 -0.6968 -0.2811 -0.8486
  5164G12c O00E95922  11.262  10.369   9.835  0.0848  0.3212  0.5868
  5164G12c H01B95923  11.331  10.335   9.779 -3.0263 -6.6800  0.5292
  5164G12c C02F95924  11.179  10.361  10.078  1.5622  0.0128 -1.2658
  5164G12c O00F95925  11.115  10.494  10.081 -0.1142 -0.9805  0.9751
  5164G12c C02G95926  11.182  10.588  10.002 -1.3428  0.8492 -0.0521
  5164G12c H01795927  11.133  10.685   9.996 -1.6915  0.7038  0.3307
  5164G12c H01695928  11.282  10.622  10.029  2.7064 -5.7326 -5.1030
  5164G12c H01595929  11.164  10.552   9.901  1.8753 -6.2990  1.6284
  5164G12c C02E95930  11.164  10.280  10.190  0.7110 -1.1928  0.5356
  5164G12c H01895931  11.144  10.328  10.285  3.0811  4.0517 -1.4092
  5164G12c C01F95932  11.482   9.996  10.679  0.3184 -1.1126 -1.1367
  5164G12c C01G95933  11.511  10.049  10.545  0.8391  0.4960 -1.0489
  5164G12c H00L95934  11.445  10.082  10.466  0.8445  5.4528  0.8225
  5164G12c C01H95935  11.633  10.103  10.520 -0.9947  0.4418 -1.1498
  5164G12c H00B95936  11.677  10.141  10.429  0.8983 -1.0789 -0.9212
  5164G12c C01I95937  11.728  10.109  10.618  0.2389  1.5786  0.7895
  5164G12c C01U95938  11.593   9.995  10.781  0.6308  0.1567  0.1596
  5164G12c C00S95939  11.623  10.371  11.191 -1.4007 -1.2191  0.8455
  5164G12c C00K95940  11.777  10.317  11.058  0.2157 -0.5048 -0.1221
  5164G12c C00N95941  11.560  10.030  10.921  3.1354 -0.4973  0.4755
  5164G12c C00095942  11.717  10.030  10.739 -0.8185 -1.1444 -0.1919
  5164G12c C01J95943  11.815  10.214  10.649 -1.3117  0.4364  0.3510
  5164G12c C01K95944  11.869  10.298  10.552  0.7906  0.0757 -0.8038
  5164G12c C01P95945  11.900  10.260  10.402  0.7338 -1.1236 -0.2046
  5164G12c C01Q95946  11.918  10.116  10.362 -1.3276  1.4438  1.5578
  5164G12c H00G95947  11.853  10.091  10.279 -3.3136  1.6529  3.0113
  5164G12c C01R95948  12.025  10.058  10.442  1.1365 -2.2922 -1.1446
  5164G12c H00F95949  12.057   9.967  10.395  3.1008 -3.7738  2.8170
  5164G12c C01S95950  12.112  10.101  10.556 -1.9066  1.4041 -0.2298
  5164G12c H00E95951  12.152  10.053  10.644 -1.3478  2.0827 -0.1041
  5164G12c H00D95952  12.061  10.154  10.636  1.3102 -1.0888  3.6049
  5164G12c O00595953  12.225  10.136  10.504 -0.2344  0.5344  0.4043
  5164G12c H00C95954  12.310  10.128  10.543  3.3107  0.3094 -6.5429
  5164G12c C01O95955  11.889  10.367  10.318  1.5228  0.9431 -1.0069
  5164G12c H00H95956  11.849  10.340  10.222 -2.5227 -0.4874  0.9606
  5164G12c C01N95957  11.875  10.498  10.354 -0.0374  1.0393  0.2197
  5164G12c O00695958  11.890  10.585  10.248 -0.0724  0.3526 -0.0234
  5164G12c C01T95959  11.971  10.706  10.247  1.8115  0.2525 -0.4502
  5164G12c H00K95960  11.982  10.689  10.140  7.0388  1.2625 -0.2236
  5164G12c H00J95961  12.058  10.697  10.312  1.9028  1.4120 -0.4007
  5164G12c H00I95962  11.896  10.780  10.275  2.1814  0.5994 -0.3680
  5164G12c C01M95963  11.892  10.531  10.500 -0.4274  0.2842 -1.0113
  5164G12c C02095964  11.880  10.378  10.977 -1.6841  0.3094 -0.8924
  5164G12c C02195965  11.954  10.503  11.013  1.0037  1.2127  1.1054
  5164G12c C01L95966  11.879  10.429  10.601  0.8045 -0.1112 -1.6355
  5164G12c O00795967  11.898  10.659  10.552  0.6818  1.1074  0.9175
  5164G12c C02295968  11.960  10.604  10.915 -0.1988  0.4458  1.0122
  5164G12c C02395969  11.938  10.573  11.130 -0.9530  2.0763  0.6013
  5164G12c C00G95970  11.789  10.742  11.273  0.5537 -1.3056 -1.7618
  5164G12c C00E95971  11.753  10.959  11.402 -0.8875  1.4844  0.3581
  5164G12c O00A95972  11.666  11.052  11.465  0.3903  1.0232  1.0837
  5164G12c C02495973  11.653  11.182  11.408  0.0759  0.9918  0.3320
  5164G12c H00V95974  11.547  11.209  11.406 -2.2179 -6.6970 -3.8136
  5164G12c H00U95975  11.703  11.268  11.452  3.0883  0.4018 -1.7903
  5164G12c H00T95976  11.670  11.198  11.302  2.0550 -0.6630  0.3727
  5174G12c C00D95977   4.812  10.837   1.045 -0.8935  0.1477  0.3443
  5174G12c O00B95978   4.882  10.717   0.990 -0.6853 -0.8615  0.1850
  5174G12c C02595979   4.839  10.584   0.956 -0.5256  0.5253 -1.1060
  5174G12c C02695980   4.775  10.608   0.836 -0.3765  2.1163  0.9528
  5174G12c H00Y95981   4.801  10.550   0.748  1.7028 -1.7028  3.9653
  5174G12c H00X95982   4.799  10.699   0.780  2.0370  0.9865  0.1240
  5174G12c O00C95983   4.626  10.618   0.859 -0.6641 -0.7273 -0.6900
  5174G12c H00W95984   4.575  10.634   0.781  4.5553 -1.2166 -4.4909
  5174G12c C02795985   4.840  10.490   1.049  0.3960  0.5238 -0.4393
  5174G12c O00D95986   4.894  10.493   1.178 -1.0800 -0.2061  0.8369
  5174G12c H00Z95987   4.899  10.587   1.180  3.1954 -0.2931  5.5205
  5174G12c C02895988   4.768  10.363   1.028 -0.1620  0.5780 -0.2370
  5174G12c C02995989   4.656  10.316   1.095 -0.3820 -0.2053  0.5416
  5174G12c H01095990   4.606  10.355   1.182  1.9314 -0.5054  2.0299
  5174G12c C02T95991   4.595  10.193   1.041 -0.9145 -0.9038  2.1005
  5174G12c H01O95992   4.496  10.181   1.082 -3.6091  0.8858 -3.3590
  5174G12c C02S95993   4.634  10.128   0.920 -1.9543  0.5152 -0.1153
  5174G12c O00J95994   4.580  10.017   0.879  0.4383 -0.2109  0.9414
  5174G12c H01P95995   4.503   9.979   0.919 -0.5773  1.2071  0.4184
  5174G12c C02R95996   4.750  10.170   0.852 -0.8201 -0.1269 -0.3937
  5174G12c O00I95997   4.806  10.108   0.738 -0.3641 -0.2379 -0.6290
  5174G12c C02Q95998   4.886  10.191   0.654 -0.4085  0.9450 -1.5539
  5174G12c H01N95999   4.865  10.297   0.660  0.8097  1.3522 -3.6751
  5174G12c H01R96000   4.994  10.179   0.668 -0.5920  1.3413  0.2301
  5174G12c H01Q96001   4.852  10.150   0.558 -0.6533  0.0112 -1.0770
  5174G12c C02A96002   4.806  10.297   0.904 -0.4108  1.3075  0.7898
  5174G12c H01196003   4.908  10.276   0.876 -1.2350 -3.9907  1.3079
  5174G12c C00C96004   4.709  10.801   1.129  0.5367 -1.1498 -1.0740
  5174G12c H01296005   4.694  10.695   1.142  2.3670 -0.8061  5.6969
  5174G12c C00B96006   4.628  10.894   1.201 -1.1803 -0.7449 -0.0353
  5174G12c C00A96007   4.505  10.875   1.284 -0.0743  2.4964  0.5418
  5174G12c C00996008   4.409  10.775   1.282  0.9544 -1.1931  0.7088
  5174G12c C00896009   4.400  10.655   1.202  0.4683  0.3890  1.5304
  5174G12c H01396010   4.477  10.640   1.128 -1.2874 -5.9211  0.7274
  5174G12c C00796011   4.274  10.590   1.193  1.1420  0.3616  0.2676
  5174G12c H01496012   4.245  10.491   1.160  1.3855 -1.4738  5.0670
  5174G12c C00696013   4.167  10.643   1.257  0.4344 -1.1214  2.1060
  5174G12c C00596014   4.178  10.762   1.320 -0.3572  0.9318 -1.8758
  5174G12c C00496015   4.058  10.826   1.372  0.2413  1.0624 -0.2305
  5174G12c C00396016   4.083  10.973   1.399  0.1575  1.1284  0.6304
  5174G12c C00296017   3.962  11.045   1.370 -0.0040  0.3216  0.8986
  5174G12c C00196018   3.924  11.177   1.388 -0.6487 -1.2790 -0.9505
  5174G12c C00M96019   4.011  11.288   1.316 -0.6710 -0.8870 -1.5232
  5174G12c C00L96020   4.154  11.292   1.309  0.1370 -1.9435 -0.2702
  5174G12c C00R96021   4.238  11.378   1.235 -0.2091 -0.9133  0.6225
  5174G12c C00Q96022   4.204  11.494   1.149  0.7332 -0.9673  1.4555
  5174G12c C00V96023   4.329  11.536   1.070  0.0837 -1.0685  1.3155
  5174G12c C00U96024   4.455  11.472   1.089 -1.3531  0.2565 -0.2424
  5174G12c C00T96025   4.465  11.359   1.156 -1.0359  1.5707 -0.3055
  5174G12c C01696026   4.569  11.253   1.142 -2.2617  0.2002  0.4951
  5174G12c C01596027   4.674  11.289   1.068 -0.7406 -1.3513 -0.3081
  5174G12c C01096028   4.669  11.408   0.992  1.1224 -1.7512 -1.2881
  5174G12c C01196029   4.787  11.457   0.956 -0.7770 -0.3453  0.7562
  5174G12c H00596030   4.795  11.557   0.917 -4.7696 -0.6921 -1.1643
  5174G12c C01296031   4.910  11.386   0.941  2.7751  0.7773 -0.8807
  5174G12c C01796032   5.034  11.471   0.928 -0.1273  0.8272 -0.8507
  5174G12c O00296033   5.037  11.607   0.898 -1.2313 -0.9986  0.5908
  5174G12c H00496034   5.121  11.639   0.929 -5.1565 10.2020  2.1624
  5174G12c C01896035   5.151  11.416   0.970 -0.8162 -0.3450 -0.6318
  5174G12c O00196036   5.184  11.292   1.024 -1.0589  0.4037  1.1443
  5174G12c H00396037   5.113  11.230   1.018 -4.4928  4.1918  0.4376
  5174G12c C01996038   5.290  11.498   0.958  0.5887  0.5729 -1.1194
  5174G12c H00296039   5.296  11.555   1.050 -2.6411  0.2550 -0.6564
  5174G12c H00196040   5.357  11.417   0.930 -1.3312 -2.2941  2.3019
  5174G12c O00096041   5.280  11.602   0.879 -1.5299 -1.0030  0.5384
  5174G12c C01A96042   5.381  11.694   0.830 -1.1616  0.2165  1.5917
  5174G12c C02K96043   5.509  11.656   0.870 -0.5985 -0.5883 -2.7004
  5174G12c O00G96044   5.537  11.551   0.953 -0.9191  1.7093  0.9829
  5174G12c C02M96045   5.664  11.481   0.907 -0.4976  0.9838 -0.9578
  5174G12c H01G96046   5.638  11.381   0.874 -3.2552  1.8062 -1.4416
  5174G12c H01F96047   5.719  11.524   0.824  0.3127 -0.9385 -1.4369
  5174G12c H01E96048   5.709  11.474   1.006  0.3320 -3.0462 -1.5504
  5174G12c C02J96049   5.614  11.742   0.834 -0.9414  0.5116  0.5229
  5174G12c H01H96050   5.714  11.707   0.854  0.3402 -0.1194 -6.0517
  5174G12c C02I96051   5.587  11.862   0.756  0.7316 -0.1709 -0.1502
  5174G12c C02N96052   5.687  11.939   0.689  1.0573 -0.8574 -1.6309
  5174G12c H01M96053   5.648  12.032   0.651 -2.9702 -3.1895 -3.5074
  5174G12c C02O96054   5.804  11.892   0.673 -1.4131  0.1485  1.2701
  5174G12c H01L96055   5.833  11.809   0.736  1.4128 -2.7644 -3.5560
  5174G12c C02P96056   5.906  11.980   0.610 -2.0839  0.3329 -0.3496
  5174G12c H01K96057   5.994  11.922   0.638 -3.5937 -3.1038 -2.4725
  5174G12c H01J96058   5.896  12.085   0.639 -0.0678  1.2474 -2.7721
  5174G12c O00H96059   5.914  11.978   0.470 -1.1858  0.0047 -0.3872
  5174G12c H01I96060   5.848  11.929   0.423  1.4227 -0.6435 -3.6018
  5174G12c C02H96061   5.450  11.906   0.737 -0.5671 -1.6122 -0.2688
  5174G12c H01C96062   5.432  11.974   0.655  2.3054 -3.7914 -2.8011
  5174G12c C02L96063   5.360  11.809   0.762  0.9735  0.6822  1.4935
  5174G12c H01D96064   5.276  11.833   0.699  2.8318 -2.3086 -2.2941
  5174G12c C01396065   4.894  11.252   0.987 -0.3283  0.9450 -0.2546
  5174G12c H00096066   4.994  11.215   0.974 -1.3945 -3.4407  2.9911
  5174G12c C01496067   4.784  11.205   1.048  0.9521 -1.8088 -1.3692
  5174G12c C00F96068   4.766  11.078   1.079 -2.4140 -0.1121 -1.8861
  5174G12c C00H96069   4.564  11.139   1.218  0.4998 -0.9077  0.0317
  5174G12c C00I96070   4.453  11.108   1.295 -1.7651  1.3784  1.2156
  5174G12c C00J96071   4.367  11.217   1.326  0.3162  2.0506 -1.7348
  5174G12c C00Z96072   4.548  11.494   0.995 -1.5068  1.1410  0.7947
  5174G12c C00Y96073   4.530  11.590   0.892 -0.3496 -1.1193  1.6651
  5174G12c H00696074   4.610  11.601   0.821 -7.1698  1.2222 -6.4646
  5174G12c C00X96075   4.408  11.663   0.872 -0.4262  1.2824  1.1340
  5174G12c O00396076   4.403  11.775   0.797  0.4976 -0.0352 -0.2328
  5174G12c C01B96077   4.522  11.853   0.757  1.6723 -0.1953  0.0453
  5174G12c H00996078   4.613  11.796   0.737 -1.3156 -3.9955 -3.3906
  5174G12c H00896079   4.535  11.961   0.753 -2.1418  0.2466 -3.6849
  5174G12c H00796080   4.514  11.871   0.650  1.5661 -4.0173 -0.6745
  5174G12c C00W96081   4.311  11.631   0.959 -1.1635  0.1384 -0.0472
  5174G12c O00496082   4.202  11.708   0.959  0.5225 -0.6317  1.7268
  5174G12c C01C96083   4.075  11.662   1.011 -1.2005 -0.2989  0.0237
  5174G12c H00A96084   4.001  11.737   1.036 -2.0928 -1.0706 -0.2497
  5174G12c C00P96085   4.079  11.544   1.100  0.3242  0.2855 -0.3014
  5174G12c C00O96086   3.957  11.471   1.125  1.4932 -0.7967  0.4132
  5174G12c C01D96087   3.830  11.500   1.053 -1.5441 -0.6695  0.3132
  5174G12c H00S96088   3.811  11.583   0.986 -1.9477 -0.3409  0.8292
  5174G12c C01E96089   3.718  11.421   1.046  0.5084  1.5405  0.3402
  5174G12c O00896090   3.617  11.459   0.971 -0.3805 -0.7961  0.8376
  5174G12c C01V96091   3.503  11.514   1.032 -1.1423 -0.8604 -0.8739
  5174G12c C01Z96092   3.388  11.567   0.957 -0.0964  1.7012 -0.7400
  5174G12c H00R96093   3.295  11.538   1.006  0.1476 -0.9417 -1.7851
  5174G12c H00Q96094   3.381  11.674   0.976  0.0474  2.0270 -2.4656
  5174G12c O00996095   3.413  11.537   0.824 -1.0260 -0.5458  1.2223
  5174G12c H00P96096   3.446  11.448   0.820 -3.1503 -1.3015 -2.5907
  5174G12c C01W96097   3.511  11.560   1.152 -0.7553 -0.2207 -0.1258
  5174G12c H00O96098   3.592  11.543   1.221  2.2499  2.4846 -2.8332
  5174G12c C01X96099   3.398  11.634   1.228 -0.9047 -2.0339 -1.7006
  5174G12c H00N96100   3.307  11.646   1.169  2.8767 -4.9158 -8.7645
  5174G12c H00M96101   3.387  11.569   1.315  1.9772 -1.6672 -1.0339
  5174G12c C01Y96102   3.444  11.778   1.263  0.0561 -0.7440 -1.0173
  5174G12c C02D96103   3.546  11.822   1.202  0.2388  1.0567  2.2110
  5174G12c H01996104   3.597  11.764   1.126 -5.7378  2.1691 -3.1328
  5174G12c C02C96105   3.614  11.941   1.227 -0.9768  1.1200  0.6623
  5174G12c H01A96106   3.707  11.975   1.185 -1.2520 -1.0283 -1.8586
  5174G12c C02B96107   3.532  12.047   1.281 -2.1225 -0.1761  1.3597
  5174G12c O00E96108   3.585  12.176   1.301 -0.3316 -0.2759  0.5235
  5174G12c H01B96109   3.500  12.183   1.342 -1.6449  2.9889 -2.5678
  5174G12c C02F96110   3.399  12.017   1.316 -0.3403 -1.3107 -0.9665
  5174G12c O00F96111   3.325  12.137   1.350  0.7246  0.3300 -0.0083
  5174G12c C02G96112   3.198  12.123   1.342  1.2052  0.2197  0.1893
  5174G12c H01796113   3.118  12.192   1.317 -2.4078 -3.6106  0.6368
  5174G12c H01696114   3.183  12.145   1.448  0.8421 -2.7696  0.8221
  5174G12c H01596115   3.161  12.030   1.299  1.8099  0.3684 -0.6648
  5174G12c C02E96116   3.357  11.883   1.317 -0.3148 -0.7559  0.3731
  5174G12c H01896117   3.255  11.858   1.292  0.2140  3.2453 -7.0389
  5174G12c C01F96118   3.692  11.316   1.138  0.3472  0.2109 -0.3455
  5174G12c C01G96119   3.619  11.198   1.113 -0.5089  2.2465  0.4080
  5174G12c H00L96120   3.569  11.176   1.020 -4.3147  3.2081  2.1230
  5174G12c C01H96121   3.655  11.083   1.186  1.2684  1.0875 -0.5715
  5174G12c H00B96122   3.644  10.978   1.161  0.3551  0.3081  2.8470
  5174G12c C01I96123   3.740  11.088   1.304 -0.6004  0.3060  0.1879
  5174G12c C01U96124   3.789  11.304   1.248 -0.2843 -2.2432  0.7010
  5174G12c C00S96125   4.366  11.328   1.249 -1.6871  0.8882 -0.7304
  5174G12c C00K96126   4.233  11.184   1.366 -0.8411 -1.1781  0.8943
  5174G12c C00N96127   3.920  11.371   1.226 -0.1118 -0.9556  0.1372
  5174G12c C00096128   3.798  11.209   1.351  0.6749  0.6052 -1.4541
  5174G12c C01J96129   3.833  10.988   1.343  1.8288 -2.3985  2.6050
  5174G12c C01K96130   3.808  10.846   1.352  1.6853 -1.3732 -1.2334
  5174G12c C01P96131   3.683  10.764   1.345 -1.6201  0.9898  1.5148
  5174G12c C01Q96132   3.553  10.830   1.367 -1.2583 -2.5549  0.2163
  5174G12c H00G96133   3.475  10.830   1.292 -2.6448  1.1301  1.5584
  5174G12c C01R96134   3.503  10.830   1.499 -0.6640 -0.9843 -1.5597
  5174G12c H00F96135   3.408  10.881   1.507  1.7515  3.2606  6.7810
  5174G12c C01S96136   3.579  10.797   1.624 -0.5445  0.7847 -1.8903
  5174G12c H00E96137   3.658  10.872   1.616 -1.3936  2.5628  4.0332
  5174G12c H00D96138   3.518  10.826   1.709  2.2704  1.2066  0.0843
  5174G12c O00596139   3.614  10.662   1.622  1.7982  0.6339  1.3254
  5174G12c H00C96140   3.640  10.631   1.708 -0.0729 -1.7913  1.0602
  5174G12c C01O96141   3.711  10.628   1.350  1.3440  1.3707  1.6348
  5174G12c H00H96142   3.627  10.559   1.355  0.7458  1.8813 -0.8963
  5174G12c C01N96143   3.831  10.557   1.312  0.5546  0.1832  1.1149
  5174G12c O00696144   3.833  10.417   1.298  0.1148  1.8942 -0.2846
  5174G12c C01T96145   3.714  10.368   1.247  0.7832 -0.3617  0.1734
  5174G12c H00K96146   3.659  10.297   1.309  1.1663  0.2082  1.1866
  5174G12c H00J96147   3.775  10.310   1.178 -1.9008  3.1486 -5.4988
  5174G12c H00I96148   3.646  10.440   1.203  1.5819  1.4170  1.7684
  5174G12c C01M96149   3.943  10.638   1.317 -0.1993 -0.6965  0.1081
  5174G12c C02096150   4.215  11.036   1.379  0.0683 -0.1664 -0.4481
  5174G12c C02196151   4.315  10.950   1.413  0.6452  0.1059 -1.3933
  5174G12c C01L96152   3.935  10.768   1.364  1.2356  0.7647 -1.0789
  5174G12c O00796153   4.052  10.561   1.283 -0.0276  0.6743  0.6192
  5174G12c C02296154   4.305  10.819   1.356 -0.3786 -1.3820 -2.0052
  5174G12c C02396155   4.443  10.982   1.339  0.2895  0.9124  0.3710
  5174G12c C00G96156   4.656  11.038   1.174 -1.2243 -0.4552 -0.3425
  5174G12c C00E96157   4.848  10.971   1.017  0.1273  0.0302 -0.7724
  5174G12c O00A96158   4.963  10.988   0.931  1.5483 -0.4527  1.6115
  5174G12c C02496159   5.080  10.919   0.979  0.7137 -1.1183  1.1963
  5174G12c H00V96160   5.092  10.831   1.043  7.5878 -0.0597  1.7167
  5174G12c H00U96161   5.174  10.974   0.975 -2.8043  5.3911  1.5598
  5174G12c H00T96162   5.098  10.895   0.874  1.0706  5.6814 -0.5168
  5184G12c C00D96163  12.798   8.380   2.919  0.9430  0.7578 -0.0759
  5184G12c O00B96164  12.749   8.491   2.859  0.9109 -0.3899 -0.3656
  5184G12c C02596165  12.774   8.612   2.906  0.3993 -1.7847 -0.5840
  5184G12c C02696166  12.918   8.652   2.894  1.4016  0.0222  1.6991
  5184G12c H00Y96167  12.985   8.581   2.942 -1.9747 -0.6345  5.8637
  5184G12c H00X96168  12.943   8.754   2.923 -2.9836  1.3941  1.0692
  5184G12c O00C96169  12.947   8.692   2.771 -1.1572 -0.4182  0.0857
  5184G12c H00W96170  12.889   8.636   2.723 -1.5095  0.2003 -0.2071
  5184G12c C02796171  12.656   8.670   2.946  1.9270  0.3669 -0.2481
  5184G12c O00D96172  12.531   8.604   2.926  0.3200  0.1943  0.9387
  5184G12c H00Z96173  12.523   8.515   2.894 -0.0611 -0.5890  3.0989
  5184G12c C02896174  12.638   8.803   3.005  0.2786 -0.2181  0.0252
  5184G12c C02996175  12.534   8.811   3.104  0.1709  0.2238 -0.8194
  5184G12c H01096176  12.491   8.722   3.148  4.8057 -2.3524 -1.2292
  5184G12c C02T96177  12.518   8.932   3.175  0.2463 -1.3160 -1.5150
  5184G12c H01O96178  12.439   8.941   3.248  2.7735 -5.0248  1.9253
  5184G12c C02S96179  12.602   9.042   3.130  0.3734 -0.6058 -0.9444
  5184G12c O00J96180  12.572   9.157   3.193 -2.3396  1.0298  0.6523
  5184G12c H01P96181  12.633   9.227   3.212  0.6497 -2.1326  3.7127
  5184G12c C02R96182  12.720   9.027   3.051 -0.5268  0.2465  0.2088
  5184G12c O00I96183  12.798   9.141   3.056 -0.0946 -0.8444  0.1613
  5184G12c C02Q96184  12.936   9.138   3.007 -1.0397  0.4977  0.1400
  5184G12c H01N96185  12.994   9.047   3.019 -2.1070 -0.2551 -0.4315
  5184G12c H01R96186  13.006   9.214   3.044 -1.0573  0.3020  0.5729
  5184G12c H01Q96187  12.911   9.159   2.903 -0.3495 -3.6232 -0.9571
  5184G12c C02A96188  12.725   8.912   2.974  0.1636 -1.6431  0.8115
  5184G12c H01196189  12.821   8.917   2.927  1.3650 -0.7796  3.2686
  5184G12c C00C96190  12.870   8.382   3.039  1.1570 -1.9683  0.6371
  5184G12c H01296191  12.881   8.484   3.072 -1.0703 -0.0514 -4.0287
  5184G12c C00B96192  12.929   8.271   3.106  0.2685 -0.6154  0.2725
  5184G12c C00A96193  13.016   8.253   3.217 -0.0211  0.1394 -2.7844
  5184G12c C00996194  13.110   8.344   3.279 -1.0237  0.2579  0.4313
  5184G12c C00896195  13.163   8.478   3.258  0.0682  1.0441 -0.0001
  5184G12c H01396196  13.114   8.546   3.189  0.3260 -2.2422 -3.5603
  5184G12c C00796197  13.299   8.509   3.294  0.7373 -0.2673  2.0857
  5184G12c H01496198  13.335   8.611   3.297 -0.9779  0.5415 -1.8175
  5184G12c C00696199  13.373   8.430   3.374  0.3190 -1.0861  0.6784
  5184G12c C00596200  13.317   8.295   3.390 -0.8860  0.4892 -0.1956
  5184G12c C00496201  13.407   8.191   3.403  0.9931  1.2427 -0.5049
  5184G12c C00396202  13.348   8.053   3.413 -0.2844 -0.2884  0.3310
  5184G12c C00296203  13.438   7.935   3.429  0.6358  0.9883 -0.3602
  5184G12c C00196204  13.423   7.796   3.462 -1.0155 -1.0109 -2.7229
  5184G12c C00M96205  13.353   7.707   3.372 -0.2358 -0.1674  1.0400
  5184G12c C00L96206  13.227   7.755   3.314 -0.2587 -0.3356  1.1601
  5184G12c C00R96207  13.158   7.688   3.217 -1.1557 -0.6825 -2.3177
  5184G12c C00Q96208  13.194   7.586   3.128  0.1402  0.8916  0.7922
  5184G12c C00V96209  13.110   7.572   3.006  1.5758 -0.0284 -0.3658
  5184G12c C00U96210  13.019   7.679   2.967  0.4684 -1.2020 -3.0586
  5184G12c C00T96211  13.010   7.788   3.054  0.2887  1.1897  0.6345
  5184G12c C01696212  12.925   7.899   3.036 -0.5564  0.3125  0.6735
  5184G12c C01596213  12.848   7.904   2.913 -2.9936  1.4418 -0.0145
  5184G12c C01096214  12.846   7.779   2.843 -0.2949 -1.3980 -0.5533
  5184G12c C01196215  12.750   7.766   2.743  0.1515  0.8136 -0.7018
  5184G12c H00596216  12.753   7.683   2.674 -1.0936 -4.7857  5.3447
  5184G12c C01296217  12.666   7.868   2.714  1.5009 -0.0665  0.6716
  5184G12c C01796218  12.561   7.829   2.624  0.7619 -0.2592 -0.6941
  5184G12c O00296219  12.480   7.750   2.703  0.0833  0.8012  0.8112
  5184G12c H00496220  12.405   7.801   2.731  2.0946  3.0819  2.1856
  5184G12c C01896221  12.568   7.866   2.498 -1.2353 -0.0261  1.4099
  5184G12c O00196222  12.668   7.956   2.461  0.2315  0.2471 -0.1641
  5184G12c H00396223  12.681   7.961   2.367  1.9301  2.5314  0.1628
  5184G12c C01996224  12.445   7.866   2.380  1.1242  0.2806  0.5653
  5184G12c H00296225  12.350   7.815   2.393  4.5014 -6.6171  0.5359
  5184G12c H00196226  12.405   7.954   2.331 -0.1660 -3.3215 -5.2718
  5184G12c O00096227  12.502   7.793   2.267  0.9644 -0.7486 -0.7707
  5184G12c C01A96228  12.530   7.649   2.286  0.5046  1.6134  0.6184
  5184G12c C02K96229  12.426   7.554   2.223  0.3670 -0.4258 -0.4969
  5184G12c O00G96230  12.314   7.592   2.164  0.0608  0.3547  0.3608
  5184G12c C02M96231  12.197   7.594   2.255 -0.7541 -0.1156 -0.0059
  5184G12c H01G96232  12.144   7.500   2.268 -5.4273  2.7117  2.9047
  5184G12c H01F96233  12.124   7.669   2.223  4.0778  4.2515 -1.3378
  5184G12c H01E96234  12.208   7.637   2.355  5.9101 -1.8430  0.2431
  5184G12c C02J96235  12.465   7.416   2.234  0.0429 -0.3065 -1.8431
  5184G12c H01H96236  12.396   7.346   2.190 -6.3906  3.6506  1.1949
  5184G12c C02I96237  12.572   7.368   2.314 -1.9466 -1.6771 -0.4469
  5184G12c C02N96238  12.608   7.228   2.307 -0.6042 -0.5842 -1.6703
  5184G12c H01M96239  12.578   7.151   2.238  3.5482  0.3177 -4.6852
  5184G12c C02O96240  12.638   7.166   2.428  0.7148 -0.7245 -1.1383
  5184G12c H01L96241  12.637   7.225   2.519  7.0099  2.4151 -2.8036
  5184G12c C02P96242  12.659   7.014   2.432  1.4650  1.0113  0.5018
  5184G12c H01K96243  12.763   6.983   2.423  1.4302  0.4101  2.1909
  5184G12c H01J96244  12.629   6.955   2.518 -3.2117  0.7525 -1.1591
  5184G12c O00H96245  12.560   6.963   2.363 -0.2724 -0.1497 -0.7442
  5184G12c H01I96246  12.579   6.946   2.272  1.4435 -0.6754 -0.3071
  5184G12c C02H96247  12.662   7.464   2.364 -0.6202 -0.3501 -0.3319
  5184G12c H01C96248  12.744   7.425   2.422 -0.4011  2.1828  1.1012
  5184G12c C02L96249  12.646   7.593   2.337  0.4196  1.2299  0.7312
  5184G12c H01D96250  12.731   7.656   2.355  0.7316  1.2483 -0.7961
  5184G12c C01396251  12.688   8.000   2.771  0.6044 -0.5036 -1.6899
  5184G12c H00096252  12.615   8.074   2.744 -2.8366 -0.5517  6.0966
  5184G12c C01496253  12.787   8.015   2.874 -0.5552 -0.2183 -0.0117
  5184G12c C00F96254  12.813   8.142   2.933 -0.2020  0.0210  0.0309
  5184G12c C00H96255  12.939   8.014   3.113  1.0079  0.7093  0.2172
  5184G12c C00I96256  13.005   8.016   3.228 -0.7265 -0.8198 -0.4531
  5184G12c C00J96257  13.074   7.891   3.249 -1.3250 -1.1273  0.4255
  5184G12c C00Z96258  12.935   7.679   2.863  0.5511  0.2939 -0.0549
  5184G12c C00Y96259  12.947   7.564   2.777 -0.0542  0.7015  0.1424
  5184G12c H00696260  12.891   7.547   2.686 -5.3150 -4.8056  4.0527
  5184G12c C00X96261  13.034   7.451   2.809  0.7495  0.6895 -1.2296
  5184G12c O00396262  13.040   7.325   2.747 -0.3327  0.4237 -1.4108
  5184G12c C01B96263  12.939   7.312   2.646  0.8700 -0.0594 -0.4167
  5184G12c H00996264  12.976   7.374   2.564 -1.8845  0.8639 -1.0353
  5184G12c H00896265  12.840   7.310   2.692  0.8598 -4.4562 -0.4873
  5184G12c H00796266  12.971   7.212   2.619  2.1876  0.1590  0.3066
  5184G12c C00W96267  13.094   7.447   2.928 -1.0624 -0.1016 -1.0754
  5184G12c O00496268  13.217   7.371   2.928  0.6305 -1.1420  0.0689
  5184G12c C01C96269  13.326   7.438   3.000 -1.5078  0.4361 -1.7120
  5184G12c H00A96270  13.422   7.438   2.950  2.8564  1.4792  5.9317
  5184G12c C00P96271  13.324   7.507   3.113 -0.8527 -0.1733 -0.1402
  5184G12c C00O96272  13.439   7.532   3.187  0.0903 -3.2228  0.2262
  5184G12c C01D96273  13.567   7.469   3.152 -0.5252 -0.2837 -1.1893
  5184G12c H00S96274  13.588   7.384   3.089  3.3745 -3.5315  4.1009
  5184G12c C01E96275  13.693   7.510   3.221 -1.7425 -0.9335  0.8937
  5184G12c O00896276  13.806   7.459   3.147  0.2213 -0.3484 -1.3165
  5184G12c C01V96277  13.849   7.334   3.162  0.0172  0.4739 -1.7549
  5184G12c C01Z96278  13.906   7.287   3.024  0.1928  1.4256  1.3925
  5184G12c H00R96279  13.892   7.370   2.954 -1.8416 -0.3249 -0.3371
  5184G12c H00Q96280  14.008   7.255   3.046  0.1993 -1.1431 -1.9626
  5184G12c O00996281  13.804   7.179   2.995  2.0116 -1.2050  0.0917
  5184G12c H00P96282  13.716   7.212   2.987  2.6516  1.1217  1.8206
  5184G12c C01W96283  13.843   7.267   3.278 -1.2483 -0.4495  0.9857
  5184G12c H00O96284  13.826   7.319   3.370 -0.7435  3.5414 -1.0634
  5184G12c C01X96285  13.909   7.128   3.312 -1.1648  0.1324 -1.5641
  5184G12c H00N96286  13.842   7.057   3.360  2.8930 -2.8605 -0.0464
  5184G12c H00M96287  13.926   7.062   3.227 -0.9628 -3.4737  1.1489
  5184G12c C01Y96288  14.053   7.152   3.355  0.1065 -0.7366 -0.5078
  5184G12c C02D96289  14.063   7.262   3.453 -0.0084 -0.9951  0.5011
  5184G12c H01996290  13.988   7.319   3.507  3.1513  4.4554 -0.4970
  5184G12c C02C96291  14.184   7.304   3.517 -1.0049  0.4418  0.4980
  5184G12c H01A96292  14.198   7.366   3.604  3.5940  4.5614 -2.8949
  5184G12c C02B96293  14.302   7.241   3.482  0.2041  0.6334 -1.5434
  5184G12c O00E96294  14.430   7.280   3.542 -0.5097  0.8641  0.0499
  5184G12c H01B96295  14.477   7.204   3.510  4.6274  3.7141  0.3763
  5184G12c C02F96296  14.299   7.135   3.389  0.0958  0.3291 -0.1240
  5184G12c O00F96297  14.407   7.078   3.335 -0.7157 -0.8753 -0.2602
  5184G12c C02G96298  14.476   6.967   3.365 -0.0265  0.0064 -0.3805
  5184G12c H01796299  14.518   6.945   3.267 -2.7536 -3.6562 -0.8261
  5184G12c H01696300  14.377   6.923   3.363  0.1590 -0.8774  4.0266
  5184G12c H01596301  14.520   6.961   3.465 -1.7044 -0.6291  0.3362
  5184G12c C02E96302  14.174   7.090   3.319 -1.5758 -0.0977  0.1993
  5184G12c H01896303  14.185   7.010   3.247  5.2739  1.6975 -1.1026
  5184G12c C01F96304  13.697   7.607   3.307  1.5812 -0.7943  1.7830
  5184G12c C01G96305  13.813   7.693   3.332  0.2041  0.0534  0.0879
  5184G12c H00L96306  13.914   7.667   3.305 -1.6621 -5.7083 -2.0570
  5184G12c C01H96307  13.776   7.835   3.357  0.8501 -0.6229 -1.0868
  5184G12c H00B96308  13.825   7.904   3.289 -2.7582  1.6104 -1.5675
  5184G12c C01I96309  13.655   7.867   3.434 -1.7367  1.4345 -2.3845
  5184G12c C01U96310  13.570   7.658   3.357  0.4443 -0.2507  0.3988
  5184G12c C00S96311  13.064   7.782   3.171 -0.8054 -1.4311 -1.3505
  5184G12c C00K96312  13.181   7.888   3.332  0.4593  1.5403 -0.0938
  5184G12c C00N96313  13.448   7.630   3.296  0.0746 -0.9655 -0.7792
  5184G12c C00096314  13.560   7.768   3.460  1.1975  0.3606  2.2541
  5184G12c C01J96315  13.573   7.983   3.440  1.8650  1.3265  0.5268
  5184G12c C01K96316  13.634   8.107   3.444 -1.2852  1.3942 -0.0780
  5184G12c C01P96317  13.773   8.146   3.467  0.8920 -0.5845 -0.5173
  5184G12c C01Q96318  13.892   8.056   3.477 -0.4411 -1.5544  0.8846
  5184G12c H00G96319  13.936   8.044   3.380 -2.9391  1.0042 -0.6260
  5184G12c C01R96320  13.930   7.985   3.596  1.8556 -0.1673 -0.0713
  5184G12c H00F96321  13.872   8.027   3.677  1.7285  5.1888 -2.6562
  5184G12c C01S96322  14.067   7.932   3.636  1.9039  2.4911  0.0076
  5184G12c H00E96323  14.119   7.956   3.729  0.1086  2.1809  1.1083
  5184G12c H00D96324  14.039   7.833   3.672  0.6605  2.3121 -1.3817
  5184G12c O00596325  14.150   7.913   3.521  0.6602 -0.4630  0.0907
  5184G12c H00C96326  14.133   7.845   3.458 -0.4057  0.2635 -0.4263
  5184G12c C01O96327  13.802   8.281   3.479 -0.4424 -0.2749 -1.0019
  5184G12c H00H96328  13.907   8.293   3.502 -0.7649  2.6240 -0.8929
  5184G12c C01N96329  13.705   8.382   3.490 -0.2318  0.0325  0.9809
  5184G12c O00696330  13.738   8.499   3.533  0.0972 -0.6922 -1.0446
  5184G12c C01T96331  13.672   8.583   3.629 -0.6055 -0.0202  0.6349
  5184G12c H00K96332  13.653   8.678   3.579  0.5932 -1.9337 -3.7294
  5184G12c H00J96333  13.599   8.528   3.688  0.4706 -0.1097  1.8779
  5184G12c H00I96334  13.736   8.615   3.711 -1.0942 -2.6277  2.0924
  5184G12c C01M96335  13.585   8.335   3.425 -0.2004  0.0661 -0.3943
  5184G12c C02096336  13.213   8.015   3.395 -0.8897 -0.0227  0.0730
  5184G12c C02196337  13.137   8.141   3.378 -0.5663 -0.0945 -0.9004
  5184G12c C01L96338  13.547   8.207   3.437 -0.7220 -0.9376 -0.5363
  5184G12c O00796339  13.510   8.449   3.400  1.0032 -1.4873  0.6843
  5184G12c C02296340  13.182   8.272   3.375 -0.1847 -2.0586 -1.3006
  5184G12c C02396341  13.041   8.139   3.287 -0.2739 -1.2308 -0.1794
  5184G12c C00G96342  12.892   8.142   3.056 -0.8701  1.1238  0.2314
  5184G12c C00E96343  12.765   8.259   2.872 -1.3146  1.3662  1.2109
  5184G12c O00A96344  12.704   8.260   2.748 -0.1389  0.4301  0.5368
  5184G12c C02496345  12.805   8.227   2.654 -1.4397  0.4597  1.0444
  5184G12c H00V96346  12.896   8.170   2.671 -2.0383  0.9477  6.8926
  5184G12c H00U96347  12.829   8.302   2.579 -0.3413  1.7450  2.6449
  5184G12c H00T96348  12.754   8.170   2.577  3.2428 -0.2767 -1.6811
  5194G12c C00D96349  10.597  12.307   2.139  1.2152 -1.0091  0.4891
  5194G12c O00B96350  10.582  12.398   2.045  0.0437 -0.0025  1.1161
  5194G12c C02596351  10.554  12.507   2.076  1.9713 -1.5973  2.2232
  5194G12c C02696352  10.405  12.555   2.042  1.0700 -0.2475 -0.6886
  5194G12c H00Y96353  10.391  12.603   1.946 -0.3560  2.1650  0.6754
  5194G12c H00X96354  10.343  12.597   2.121 -3.5463  8.3309 -7.9689
  5194G12c O00C96355  10.313  12.445   2.032  2.1086 -0.2879  0.6721
  5194G12c H00W96356  10.257  12.470   1.960 -2.5578 -1.5401  3.6142
  5194G12c C02796357  10.649  12.587   2.117 -2.1624 -1.8780 -0.1673
  5194G12c O00D96358  10.779  12.529   2.119 -1.0108 -0.5575  0.2219
  5194G12c H00Z96359  10.750  12.445   2.085  2.5104 -0.4948 -3.3023
  5194G12c C02896360  10.608  12.711   2.165  0.4722 -0.5476  0.0901
  5194G12c C02996361  10.568  12.824   2.090  0.3035 -0.9175 -0.0216
  5194G12c H01096362  10.557  12.832   1.983 -3.4212 -0.0391  0.3620
  5194G12c C02T96363  10.536  12.935   2.162 -0.2460 -0.1469  2.4447
  5194G12c H01O96364  10.500  13.028   2.119  2.6640  1.0756  2.5196
  5194G12c C02S96365  10.530  12.940   2.294  1.0820  0.6699 -1.3934
  5194G12c O00J96366  10.478  13.047   2.377 -0.5825  0.7818 -0.0770
  5194G12c H01P96367  10.478  13.121   2.318  0.8058  0.6394 -0.2814
  5194G12c C02R96368  10.564  12.832   2.370 -1.3149 -0.5083 -2.4019
  5194G12c O00I96369  10.532  12.833   2.517  0.2407  0.6388  0.0002
  5194G12c C02Q96370  10.618  12.916   2.601  0.5598  1.3324  0.4300
  5194G12c H01N96371  10.619  13.025   2.606  0.8869  1.6018 -3.6032
  5194G12c H01R96372  10.690  12.871   2.534 -1.6703 -1.0965 -0.4026
  5194G12c H01Q96373  10.635  12.882   2.703 -3.6647 -0.7461  0.5462
  5194G12c C02A96374  10.630  12.723   2.309  2.3986 -1.6780  0.8842
  5194G12c H01196375  10.676  12.639   2.359  0.4201 -2.2065  1.8404
  5194G12c C00C96376  10.625  12.176   2.089 -1.1681  0.2181  0.3487
  5194G12c H01296377  10.620  12.140   1.988  4.4075 -1.7862  0.5879
  5194G12c C00B96378  10.680  12.071   2.169 -0.8921 -0.6725  0.0789
  5194G12c C00A96379  10.744  11.946   2.132  3.5295 -1.8480  1.0107
  5194G12c C00996380  10.718  11.865   2.017  1.2955  1.2439 -0.6677
  5194G12c C00896381  10.669  11.876   1.881  0.5488  1.2698  1.6872
  5194G12c H01396382  10.634  11.968   1.837 -5.1791 -3.1053 -3.6749
  5194G12c C00796383  10.634  11.761   1.795  1.7561  0.7996 -0.2130
  5194G12c H01496384  10.580  11.795   1.708  5.5254 -2.8434 -4.2021
  5194G12c C00696385  10.646  11.637   1.845 -0.9250  1.8116 -0.5260
  5194G12c C00596386  10.655  11.627   1.988 -0.2884 -1.1253  0.5127
  5194G12c C00496387  10.647  11.511   2.063 -0.9746 -0.6297 -1.5543
  5194G12c C00396388  10.677  11.527   2.206  0.3463 -0.8163 -0.5662
  5194G12c C00296389  10.652  11.403   2.274 -0.1572 -0.2429 -2.4208
  5194G12c C00196390  10.677  11.359   2.407 -0.3919 -0.2073 -0.7132
  5194G12c C00M96391  10.698  11.431   2.535 -1.3825 -1.9638 -0.3895
  5194G12c C00L96392  10.755  11.556   2.528  0.1300  1.2462 -0.2547
  5194G12c C00R96393  10.722  11.659   2.629 -1.8911  0.8240 -0.7408
  5194G12c C00Q96394  10.647  11.662   2.752 -0.1819 -0.7693  0.2760
  5194G12c C00V96395  10.638  11.793   2.813 -0.2671  1.2886  0.8424
  5194G12c C00U96396  10.669  11.914   2.749  0.6715 -0.4540 -0.8989
  5194G12c C00T96397  10.736  11.914   2.635 -0.2414  0.2161 -1.1865
  5194G12c C01696398  10.741  12.020   2.543 -0.0999 -1.4617 -0.9286
  5194G12c C01596399  10.703  12.140   2.588  0.3581  0.3071 -0.9286
  5194G12c C01096400  10.689  12.152   2.733 -0.2464 -0.5163  1.8602
  5194G12c C01196401  10.703  12.276   2.794  0.0580  1.9833  0.3333
  5194G12c H00596402  10.700  12.282   2.902 -0.4400 -0.1140  0.4593
  5194G12c C01296403  10.696  12.393   2.712 -0.2417  0.6654  1.1895
  5194G12c C01796404  10.730  12.524   2.776 -0.3382 -0.0811  0.6580
  5194G12c O00296405  10.628  12.570   2.854  0.9778  1.3299  0.2132
  5194G12c H00496406  10.580  12.643   2.819 -1.4189 -2.4287 -5.1213
  5194G12c C01896407  10.852  12.574   2.775 -0.3316  0.3868  1.9890
  5194G12c O00196408  10.861  12.701   2.825  0.9403  0.6824 -0.4567
  5194G12c H00396409  10.948  12.707   2.862  0.2763  7.2235  0.6997
  5194G12c C01996410  10.963  12.510   2.718 -0.9093 -0.2496 -0.4373
  5194G12c H00296411  11.043  12.545   2.783 -2.1550 -1.4075  1.7699
  5194G12c H00196412  10.956  12.407   2.753 -6.3291  1.1363  3.1740
  5194G12c O00096413  10.999  12.523   2.589 -1.5717  0.6848  0.6225
  5194G12c C01A96414  11.113  12.478   2.543 -0.2255 -0.2415  0.7956
  5194G12c C02K96415  11.173  12.534   2.414  0.0065  0.5466  0.2870
  5194G12c O00G96416  11.124  12.635   2.351 -0.5157  0.3769 -0.9664
  5194G12c C02M96417  10.996  12.708   2.370 -0.4590  1.1394 -0.7147
  5194G12c H01G96418  10.964  12.758   2.278 -0.4952 -4.0921 -3.7176
  5194G12c H01F96419  10.988  12.780   2.452 -5.4730  1.1398 -1.0400
  5194G12c H01E96420  10.928  12.626   2.390  4.2930 -3.1820 -1.2398
  5194G12c C02J96421  11.310  12.494   2.386  0.1867 -1.8551 -0.2405
  5194G12c H01H96422  11.368  12.545   2.310  0.8975 -1.4758  0.5576
  5194G12c C02I96423  11.371  12.377   2.422 -0.2920 -0.3638  0.4405
  5194G12c C02N96424  11.487  12.317   2.367  0.3933 -0.2663 -0.8611
  5194G12c H01M96425  11.536  12.247   2.433  1.3746 -2.1404 -3.4941
  5194G12c C02O96426  11.482  12.286   2.233  0.7206  0.4468 -0.0190
  5194G12c H01L96427  11.443  12.355   2.159  0.2573 -0.8971 -1.0396
  5194G12c C02P96428  11.523  12.152   2.197  0.1164  0.4825  0.3487
  5194G12c H01K96429  11.555  12.139   2.094  0.2261  6.3167 -0.5518
  5194G12c H01J96430  11.611  12.130   2.257  2.0519  1.5079 -2.0208
  5194G12c O00H96431  11.430  12.049   2.236  0.1692  0.5235  1.3363
  5194G12c H01I96432  11.480  11.971   2.257  1.5051  2.3945  5.5604
  5194G12c C02H96433  11.319  12.327   2.552  1.0025 -1.9047 -1.6295
  5194G12c H01C96434  11.368  12.241   2.594  1.2704  0.4025  3.2022
  5194G12c C02L96435  11.194  12.374   2.611 -1.7857 -0.7984 -0.8776
  5194G12c H01D96436  11.176  12.319   2.702  4.8829 -2.0106 -0.0163
  5194G12c C01396437  10.701  12.371   2.580  0.3432 -1.5024 -0.9345
  5194G12c H00096438  10.693  12.459   2.518 -0.5717  3.3037  5.5287
  5194G12c C01496439  10.710  12.242   2.506  1.8188  0.5710 -0.8085
  5194G12c C00F96440  10.679  12.223   2.372  0.5206 -0.1068  0.3612
  5194G12c C00H96441  10.748  12.001   2.404 -1.0739  0.8280  1.6329
  5194G12c C00I96442  10.771  11.876   2.351 -0.3225  0.2411  1.5463
  5194G12c C00J96443  10.787  11.776   2.451  0.1496 -1.9643  1.6031
  5194G12c C00Z96444  10.664  12.034   2.808  0.1627 -0.0241 -2.3276
  5194G12c C00Y96445  10.620  12.030   2.946 -0.0294  0.7917  0.6512
  5194G12c H00696446  10.599  12.132   2.976 -1.1235  0.8638 -0.3291
  5194G12c C00X96447  10.587  11.913   3.020  1.0843  0.4222  0.0800
  5194G12c O00396448  10.550  11.900   3.154  0.3359 -0.4779 -0.0964
  5194G12c C01B96449  10.418  11.864   3.201 -0.9847 -0.1719  1.2725
  5194G12c H00996450  10.423  11.756   3.187 -1.3729  0.2340 -2.6899
  5194G12c H00896451  10.321  11.885   3.157 -1.4836 -0.0134  2.4463
  5194G12c H00796452  10.413  11.908   3.300 -5.5350 -4.0876  2.9563
  5194G12c C00W96453  10.573  11.796   2.937 -2.0289  1.0853 -0.5042
  5194G12c O00496454  10.561  11.683   3.012 -0.6374 -0.4284  1.3240
  5194G12c C01C96455  10.539  11.571   2.944 -0.0164 -1.1848  0.2181
  5194G12c H00A96456  10.487  11.489   2.991 -3.8410 -0.4235 -2.4201
  5194G12c C00P96457  10.581  11.541   2.810 -0.7711  0.5036 -0.4707
  5194G12c C00O96458  10.541  11.422   2.743  0.2918  0.3061  1.0207
  5194G12c C01D96459  10.436  11.342   2.793  0.9588  2.4795  2.0072
  5194G12c H00S96460  10.403  11.361   2.894  2.2671 -6.4762  4.5637
  5194G12c C01E96461  10.376  11.232   2.715  2.4169 -0.5188 -0.3122
  5194G12c O00896462  10.268  11.148   2.765  0.3946 -1.4355  1.8498
  5194G12c C01V96463  10.216  11.167   2.894  0.5421 -0.1902  0.7368
  5194G12c C01Z96464  10.067  11.198   2.891  0.0460 -0.7974 -0.8486
  5194G12c H00R96465  10.063  11.269   2.974  5.5362 -2.0148  0.6886
  5194G12c H00Q96466  10.043  11.260   2.805 -4.0448 -3.6641 -1.9612
  5194G12c O00996467  10.002  11.087   2.941 -0.0901 -0.4811  0.1569
  5194G12c H00P96468  10.031  11.007   2.900  4.8424  0.8177  0.7906
  5194G12c C01W96469  10.317  11.132   2.981  1.1683 -0.8360  0.7687
  5194G12c H00O96470  10.414  11.100   2.945  4.9085  4.9768  4.8148
  5194G12c C01X96471  10.271  11.121   3.133 -0.0927  0.1039  1.2881
  5194G12c H00N96472  10.175  11.072   3.149  2.6025 -5.4953  1.6953
  5194G12c H00M96473  10.340  11.055   3.187 -6.7843 -4.9180  4.5049
  5194G12c C01Y96474  10.324  11.248   3.207  1.3929  0.4595  0.9793
  5194G12c C02D96475  10.252  11.384   3.182 -2.6313 -2.4092  0.0199
  5194G12c H01996476  10.166  11.408   3.121 -0.4385  2.5648 -1.3638
  5194G12c C02C96477  10.317  11.491   3.224 -0.4385  0.8856 -0.0318
  5194G12c H01A96478  10.250  11.575   3.236  0.7048  1.3514  3.4747
  5194G12c C02B96479  10.426  11.474   3.297 -0.5165  1.8241 -0.4576
  5194G12c O00E96480  10.470  11.585   3.350  0.5545  0.7215 -0.0953
  5194G12c H01B96481  10.549  11.579   3.401  4.6106 -3.6486 -6.2087
  5194G12c C02F96482  10.508  11.354   3.314 -1.4795  1.7328  0.8204
  5194G12c O00F96483  10.643  11.343   3.384  0.5538  0.1296  0.8201
  5194G12c C02G96484  10.737  11.408   3.298  0.4692  1.4568 -0.3693
  5194G12c H01796485  10.737  11.509   3.259  7.3908 -1.2153 -9.1675
  5194G12c H01696486  10.790  11.334   3.237 -1.0985  3.7129 -4.6849
  5194G12c H01596487  10.797  11.400   3.389 -3.2047  4.9092  2.4710
  5194G12c C02E96488  10.437  11.239   3.282 -1.5497  0.7456  0.1266
  5194G12c H01896489  10.493  11.148   3.295  2.5523  2.8044 -1.9513
  5194G12c C01F96490  10.405  11.245   2.573  1.2075 -0.4726 -1.1122
  5194G12c C01G96491  10.313  11.189   2.475 -0.4742 -0.8207  0.8302
  5194G12c H00L96492  10.218  11.145   2.503 -0.7737  0.6858  2.2777
  5194G12c C01H96493  10.358  11.198   2.345  0.0563  1.1819 -2.3278
  5194G12c H00B96494  10.299  11.161   2.263 -3.7493 -6.0799  3.1123
  5194G12c C01I96495  10.476  11.260   2.320 -0.0740 -1.3213  0.7477
  5194G12c C01U96496  10.527  11.295   2.540 -0.6088  1.2376 -1.2017
  5194G12c C00S96497  10.751  11.786   2.574  0.0725 -1.4702 -0.9902
  5194G12c C00K96498  10.766  11.639   2.423 -0.6292  0.3405  1.5418
  5194G12c C00N96499  10.589  11.388   2.624 -1.5002  0.8321  0.8277
  5194G12c C00096500  10.573  11.261   2.418 -0.3195  0.2591  2.4734
  5194G12c C01J96501  10.544  11.324   2.208 -0.8653 -0.9780 -0.0814
  5194G12c C01K96502  10.534  11.292   2.071  0.9937  1.0700  1.1462
  5194G12c C01P96503  10.477  11.179   1.997  0.5564  0.1599  1.4493
  5194G12c C01Q96504  10.468  11.051   2.075 -0.6745 -2.2592  0.8163
  5194G12c H00G96505  10.381  10.989   2.058  0.4516 -4.5530  3.0583
  5194G12c C01R96506  10.556  11.002   2.160  0.4843 -0.1226  1.5317
  5194G12c H00F96507  10.624  11.082   2.184  2.6526 -1.0460 -1.2583
  5194G12c C01S96508  10.566  10.864   2.245  1.0395  1.4788 -0.0538
  5194G12c H00E96509  10.524  10.852   2.345  6.8340 -2.3706  2.2712
  5194G12c H00D96510  10.521  10.797   2.172 -1.2216  5.8246 -2.8644
  5194G12c O00596511  10.701  10.805   2.230  0.3873 -0.5909 -0.6705
  5194G12c H00C96512  10.756  10.862   2.178 -0.4649  0.7681 -0.1082
  5194G12c C01O96513  10.431  11.194   1.875 -2.0551  0.7835  0.9395
  5194G12c H00H96514  10.385  11.110   1.826 -0.1921  3.3154 -5.7792
  5194G12c C01N96515  10.451  11.315   1.809  0.7472 -0.0885  0.6257
  5194G12c O00696516  10.391  11.331   1.692  0.9544 -0.4168 -1.5147
  5194G12c C01T96517  10.294  11.242   1.640  0.1813  0.3584 -0.5514
  5194G12c H00K96518  10.317  11.156   1.577  4.1837 -0.3757  1.7543
  5194G12c H00J96519  10.235  11.178   1.706  0.1011 -2.9945 -3.7214
  5194G12c H00I96520  10.240  11.300   1.564 -7.0379 -1.2920  2.8606
  5194G12c C01M96521  10.518  11.427   1.870  0.4647 -1.9945 -1.7868
  5194G12c C02096522  10.761  11.619   2.271 -0.8123  0.1132  1.2510
  5194G12c C02196523  10.797  11.727   2.176 -0.4102  0.1439 -0.1028
  5194G12c C01L96524  10.563  11.408   2.004  0.4248  0.6644  0.0429
  5194G12c O00796525  10.571  11.535   1.792 -0.2962  0.3495 -0.8212
  5194G12c C02296526  10.708  11.741   2.061  1.0828  0.5950  1.1077
  5194G12c C02396527  10.805  11.860   2.223 -0.3853 -0.9936  1.1813
  5194G12c C00G96528  10.705  12.096   2.309  0.7095  0.1989  0.4463
  5194G12c C00E96529  10.618  12.324   2.283 -1.4303  0.1497 -0.3546
  5194G12c O00A96530  10.559  12.432   2.350 -0.3844  1.0503 -0.5600
  5194G12c C02496531  10.417  12.423   2.355  1.3628  0.4642  0.1892
  5194G12c H00V96532  10.387  12.477   2.445 -3.3432  0.4334 -1.2297
  5194G12c H00U96533  10.367  12.450   2.261  5.6429 -0.5674 -2.5142
  5194G12c H00T96534  10.397  12.316   2.364  1.0483  0.6851  2.2658
  5204G12c C00D96535  10.139   9.828  12.287 -2.3173  0.7726 -1.4286
  5204G12c O00B96536  10.103   9.773  12.400 -0.2345  1.0559  1.1306
  5204G12c C02596537  10.146   9.653  12.452  0.1027  0.1938  0.6640
  5204G12c C02696538  10.261   9.696  12.554  1.5717  0.7940  1.8083
  5204G12c H00Y96539  10.333   9.729  12.479  1.0368 -2.8820 -0.4988
  5204G12c H00X96540  10.313   9.621  12.614  1.0601 -0.9144  0.2054
  5204G12c O00C96541  10.238   9.805  12.651  0.0066 -0.2469  0.1842
  5204G12c H00W96542  10.262   9.882  12.601  0.0542 -0.7383 -0.5546
  5204G12c C02796543  10.120   9.526  12.413 -0.0553  1.0730 -1.2140
  5204G12c O00D96544  10.038   9.475  12.318  1.3461 -0.4942  0.4574
  5204G12c H00Z96545  10.015   9.532  12.246 -2.1982 -5.3636 -2.5394
  5204G12c C02896546  10.220   9.428  12.453  0.6108  2.0338 -0.5139
  5204G12c C02996547  10.346   9.430  12.412  1.8481  1.5529 -0.9347
  5204G12c H01096548  10.398   9.513  12.365  3.2810 -1.6104 -5.2708
  5204G12c C02T96549  10.427   9.317  12.395 -2.0753  0.9924  1.6144
  5204G12c H01O96550  10.522   9.342  12.349 -0.1237 -3.0498  3.1834
  5204G12c C02S96551  10.379   9.179  12.405  0.0053  1.6618  0.1141
  5204G12c O00J96552  10.450   9.070  12.356  0.3639 -1.7609  0.0322
  5204G12c H01P96553  10.505   9.044  12.428  0.3757 -0.2549  0.5817
  5204G12c C02R96554  10.233   9.180  12.434 -1.0260 -0.0337 -0.7841
  5204G12c O00I96555  10.139   9.073  12.435  0.4754 -0.0071 -1.1357
  5204G12c C02Q96556  10.149   8.947  12.388  0.6716  0.8592  0.2367
  5204G12c H01N96557  10.086   8.868  12.427  1.5825  1.3753  2.8470
  5204G12c H01R96558  10.255   8.920  12.385 -0.1869 -3.1798  2.1328
  5204G12c H01Q96559  10.134   8.954  12.280  5.0714 -1.0611 -0.6510
  5204G12c C02A96560  10.165   9.293  12.471 -0.2802 -0.2449 -1.0445
  5204G12c H01196561  10.060   9.291  12.497  0.0373 -0.0373  0.3100
  5204G12c C00C96562  10.236   9.778  12.193 -0.0338 -0.0245  0.3665
  5204G12c H01296563  10.277   9.679  12.212  0.3164 -0.4597 -2.4461
  5204G12c C00B96564  10.213   9.792  12.050 -1.0512  0.0754  0.3355
  5204G12c C00A96565  10.296   9.744  11.950 -0.9418 -0.3798  1.2284
  5204G12c C00996566  10.434   9.697  11.958  1.1766  0.3235 -1.2328
  5204G12c C00896567  10.544   9.644  12.048 -0.8685 -0.9403  1.3195
  5204G12c H01396568  10.509   9.591  12.135  2.3873  1.6102  4.3552
  5204G12c C00796569  10.683   9.656  12.005  1.2778 -0.4499  0.2652
  5204G12c H01496570  10.777   9.618  12.042  6.7329  6.1444 -5.3539
  5204G12c C00696571  10.701   9.705  11.874  0.1269  2.5186  0.1959
  5204G12c C00596572  10.595   9.715  11.786 -0.3218 -2.0530 -1.3639
  5204G12c C00496573  10.612   9.743  11.651 -0.4805 -1.6730 -0.3033
  5204G12c C00396574  10.505   9.772  11.577 -1.8540 -0.6069 -0.3982
  5204G12c C00296575  10.547   9.827  11.447  2.0459 -0.1631 -2.8077
  5204G12c C00196576  10.472   9.878  11.331  0.8893  0.8447  0.1742
  5204G12c C00M96577  10.345   9.960  11.333  1.3005  0.0157  0.7777
  5204G12c C00L96578  10.268   9.954  11.432 -0.0741 -2.2417 -0.6966
  5204G12c C00R96579  10.173  10.056  11.478 -0.0583 -1.4966  0.5523
  5204G12c C00Q96580  10.156  10.188  11.432 -1.0431  0.2260 -0.8644
  5204G12c C00V96581  10.088  10.272  11.530  1.4271  1.5476 -0.0968
  5204G12c C00U96582  10.042  10.227  11.663  0.8487 -0.5896  2.1044
  5204G12c C00T96583  10.084  10.105  11.702  0.5230 -0.5183  0.7863
  5204G12c C01696584  10.085  10.062  11.838  2.1412  0.2056 -1.4002
  5204G12c C01596585  10.030  10.154  11.925 -0.1956  0.2025  0.5978
  5204G12c C01096586   9.979  10.275  11.888  1.4888  1.3756  1.1567
  5204G12c C01196587   9.936  10.357  11.992 -1.2127 -0.8808 -0.0749
  5204G12c H00596588   9.897  10.455  11.969  3.3528 -0.0944 -5.5417
  5204G12c C01296589   9.913  10.324  12.131 -2.2482 -0.0729 -1.5594
  5204G12c C01796590   9.854  10.413  12.230  0.0908  1.0117 -0.9250
  5204G12c O00296591   9.912  10.532  12.265 -1.4518  1.8712  1.8838
  5204G12c H00496592   9.839  10.579  12.302 -3.4833  2.0246 -2.0960
  5204G12c C01896593   9.727  10.411  12.294  1.3109  0.2522 -1.2502
  5204G12c O00196594   9.663  10.294  12.286  1.0421 -0.7675 -1.1820
  5204G12c H00396595   9.600  10.333  12.227 -1.7265 -0.9932  1.4691
  5204G12c C01996596   9.675  10.509  12.394  0.3619 -1.1790 -1.5998
  5204G12c H00296597   9.577  10.477  12.429 -0.3075  0.6340 -1.8113
  5204G12c H00196598   9.740  10.515  12.482  1.9881 -0.9528 -2.7992
  5204G12c O00096599   9.668  10.614  12.333  0.1342  0.3564  0.7230
  5204G12c C01A96600   9.601  10.737  12.361  0.3769 -0.1403 -0.8854
  5204G12c C02K96601   9.623  10.843  12.281 -0.3322 -2.2060  1.5864
  5204G12c O00G96602   9.631  10.822  12.149 -0.1083 -0.5187 -0.2695
  5204G12c C02M96603   9.508  10.879  12.095  0.2621 -0.2406  0.2575
  5204G12c H01G96604   9.519  10.928  11.998 -3.4168  5.2021  2.3637
  5204G12c H01F96605   9.430  10.811  12.061 -2.9054  4.7309 -3.1677
  5204G12c H01E96606   9.446  10.930  12.168  1.2354 -2.2992  2.5686
  5204G12c C02J96607   9.616  10.973  12.335 -0.5509  1.0356  0.6978
  5204G12c H01H96608   9.656  11.049  12.269  1.7264  2.9968  4.1648
  5204G12c C02I96609   9.519  11.002  12.442 -0.2534  0.9838 -0.1800
  5204G12c C02N96610   9.464  11.133  12.440  0.3585 -0.0962 -0.4610
  5204G12c H01M96611   9.522  11.213  12.397  1.6019  0.7121  2.5897
  5204G12c C02O96612   9.352  11.160  12.506  0.6595  0.5619  0.3007
  5204G12c H01L96613   9.291  11.091  12.562 -0.8027  0.3467 -1.4906
  5204G12c C02P96614   9.271  11.299  12.489 -0.7777 -0.5658  1.4197
  5204G12c H01K96615   9.311  11.356  12.406 -3.3603 -0.0423  0.4941
  5204G12c H01J96616   9.165  11.275  12.486 -0.5244 -1.6885 -4.7907
  5204G12c O00H96617   9.287  11.365  12.605  1.0256 -0.1887  0.6600
  5204G12c H01I96618   9.273  11.458  12.601  2.4840  0.1535  2.9620
  5204G12c C02H96619   9.484  10.894  12.513 -0.0131 -0.2818 -0.6004
  5204G12c H01C96620   9.416  10.896  12.597 -2.0265  1.1873 -2.2156
  5204G12c C02L96621   9.530  10.766  12.478 -0.1825  0.1767 -0.6943
  5204G12c H01D96622   9.501  10.688  12.547 -4.4995  1.9114 -0.4058
  5204G12c C01396623   9.940  10.182  12.145 -1.7875 -0.2247  1.1541
  5204G12c H00096624   9.920  10.138  12.242  1.5447 -2.3460  0.9595
  5204G12c C01496625  10.010  10.103  12.053  0.6097  0.0216 -0.7607
  5204G12c C00F96626  10.056   9.973  12.091  0.4530 -0.3430  0.0197
  5204G12c C00H96627  10.119   9.930  11.863  1.4934 -0.6323  1.0213
  5204G12c C00I96628  10.187   9.863  11.762 -0.6979  0.8789  0.8170
  5204G12c C00J96629  10.171   9.895  11.619  0.7320 -0.7652 -1.0451
  5204G12c C00Z96630  10.000  10.319  11.759  0.5674  0.2420 -0.9010
  5204G12c C00Y96631   9.968  10.451  11.707  0.2805  1.6571 -0.2370
  5204G12c H00696632   9.974  10.518  11.791 -2.9252  1.0860  0.5240
  5204G12c C00X96633   9.999  10.508  11.581  0.0853  0.8133  1.4954
  5204G12c O00396634   9.985  10.642  11.571  0.0342  0.2057 -0.0149
  5204G12c C01B96635  10.102  10.737  11.614  0.8803 -0.0646  0.8711
  5204G12c H00996636  10.101  10.768  11.719  3.3729  0.6412  0.7145
  5204G12c H00896637  10.113  10.839  11.576  4.0500 -1.5362 -2.4357
  5204G12c H00796638  10.200  10.695  11.590  0.7052  0.5395 -1.0018
  5204G12c C00W96639  10.082  10.412  11.501  0.7243 -1.4945  0.1681
  5204G12c O00496640  10.103  10.456  11.371 -0.2760  0.3166 -0.0069
  5204G12c C01C96641  10.118  10.360  11.271  1.4009 -0.5502  1.2487
  5204G12c H00A96642  10.055  10.361  11.184  0.7166  3.5149  1.6775
  5204G12c C00P96643  10.198  10.244  11.301 -0.5856  0.4473 -0.9486
  5204G12c C00O96644  10.333  10.212  11.261 -1.4633 -0.3312 -0.5262
  5204G12c C01D96645  10.424  10.325  11.255  0.1306  1.1362 -0.1750
  5204G12c H00S96646  10.361  10.398  11.304  3.0736  3.2015  0.6413
  5204G12c C01E96647  10.562  10.307  11.228 -1.9571  1.4168  0.1247
  5204G12c O00896648  10.644  10.422  11.237 -1.5621  0.6117  0.8173
  5204G12c C01V96649  10.671  10.501  11.136  0.3530 -1.1613  0.1977
  5204G12c C01Z96650  10.558  10.605  11.109  0.9513 -0.6622  1.4327
  5204G12c H00R96651  10.508  10.623  11.204  1.9836 -0.1569  1.8850
  5204G12c H00Q96652  10.603  10.701  11.081 -2.8419 -1.1236 -7.8351
  5204G12c O00996653  10.502  10.558  10.986  0.0889  1.6763  0.1928
  5204G12c H00P96654  10.469  10.473  11.009 -1.3404  3.2610  4.7266
  5204G12c C01W96655  10.784  10.496  11.060  0.7928  0.6914  0.8785
  5204G12c H00O96656  10.831  10.405  11.094 -3.2888 -1.9686 -0.2240
  5204G12c C01X96657  10.807  10.562  10.927  0.8571 -1.0577  0.5180
  5204G12c H00N96658  10.888  10.520  10.867 -0.6735 -0.3503 -2.1108
  5204G12c H00M96659  10.717  10.581  10.869  5.1390  5.7118 -4.6233
  5204G12c C01Y96660  10.882  10.693  10.976  0.2239 -0.7170  0.0888
  5204G12c C02D96661  10.967  10.707  11.093  0.7755 -0.1839  0.3517
  5204G12c H01996662  11.002  10.623  11.151  0.6047 -0.6000 -0.1561
  5204G12c C02C96663  10.954  10.823  11.178  0.7559 -0.5592 -0.1724
  5204G12c H01A96664  10.989  10.834  11.280 -0.8546  3.2529  0.0838
  5204G12c C02B96665  10.877  10.929  11.142  2.2955  0.4157  0.1648
  5204G12c O00E96666  10.849  11.036  11.227  0.0107  0.9260  0.0734
  5204G12c H01B96667  10.817  11.094  11.160 -1.0476  1.5308  1.0734
  5204G12c C02F96668  10.808  10.918  11.021  2.3729 -0.1406  2.4398
  5204G12c O00F96669  10.739  11.031  11.011  0.7502 -1.4805  0.0015
  5204G12c C02G96670  10.789  11.106  10.893 -0.2352 -0.4348 -0.5291
  5204G12c H01796671  10.727  11.196  10.900  1.7582  0.9133  0.1668
  5204G12c H01696672  10.743  11.058  10.807  1.8706 -0.6644 -1.5532
  5204G12c H01596673  10.887  11.151  10.909 -1.0831  2.4414 -2.9297
  5204G12c C02E96674  10.821  10.808  10.932  1.2933  0.9216  0.2693
  5204G12c H01896675  10.755  10.812  10.847 -0.7262 -2.7161  1.5467
  5204G12c C01F96676  10.611  10.168  11.229 -0.4742 -1.7406 -0.4933
  5204G12c C01G96677  10.743  10.146  11.232 -0.5458 -0.0172 -1.0329
  5204G12c H00L96678  10.805  10.227  11.198 -4.0222  4.1104  1.8090
  5204G12c C01H96679  10.807  10.031  11.284  1.1935 -0.0058  0.3613
  5204G12c H00B96680  10.904  10.036  11.331 -1.3334  4.8538  5.6916
  5204G12c C01I96681  10.712   9.916  11.287  0.0473 -0.7239 -0.9262
  5204G12c C01U96682  10.520  10.058  11.243 -1.2203  2.1065 -0.3906
  5204G12c C00S96683  10.143  10.034  11.603  0.7161  0.8510  1.0286
  5204G12c C00K96684  10.272   9.842  11.538 -0.6780 -1.9287  0.2230
  5204G12c C00N96685  10.378  10.086  11.279 -1.0969  2.6369 -1.0224
  5204G12c C00096686  10.578   9.931  11.246  0.6120 -0.1811 -0.3826
  5204G12c C01J96687  10.679   9.825  11.403 -1.4525 -1.0021 -0.3955
  5204G12c C01K96688  10.787   9.775  11.476  0.4290  0.7421  0.4720
  5204G12c C01P96689  10.919   9.737  11.442 -0.6830 -0.9184 -0.6564
  5204G12c C01Q96690  10.930   9.725  11.292 -0.6833  0.3986  1.4247
  5204G12c H00G96691  10.927   9.806  11.221 -0.7836  0.9019  2.0043
  5204G12c C01R96692  10.972   9.619  11.206 -0.9951  0.6443  0.4041
  5204G12c H00F96693  11.031   9.556  11.270  3.0423  3.2280 -0.5814
  5204G12c C01S96694  10.931   9.598  11.056  0.4245  1.5414  1.3329
  5204G12c H00E96695  10.917   9.490  11.062 -4.5178  2.2129  4.0253
  5204G12c H00D96696  10.854   9.663  11.016  1.9380  3.9518  2.2193
  5204G12c O00596697  11.045   9.652  10.993 -0.6895  0.0006  1.1089
  5204G12c H00C96698  11.061   9.629  10.903  1.0860 -2.8253  2.0856
  5204G12c C01O96699  11.031   9.723  11.540  2.9611 -0.6879  0.0675
  5204G12c H00H96700  11.128   9.721  11.494  5.1021  1.7461  4.2458
  5204G12c C01N96701  10.994   9.724  11.676 -0.6559 -1.6351 -0.1054
  5204G12c O00696702  11.096   9.738  11.755 -1.7316  0.2165  0.2404
  5204G12c C01T96703  11.197   9.634  11.748 -0.0656  2.0265  0.5548
  5204G12c H00K96704  11.283   9.625  11.682 -1.4048  6.4801 -1.9591
  5204G12c H00J96705  11.139   9.549  11.711 -0.1636  2.3768 -0.0950
  5204G12c H00I96706  11.244   9.604  11.842  3.2061 -0.6628 -1.8567
  5204G12c C01M96707  10.855   9.746  11.712  0.4383 -0.9163  0.5680
  5204G12c C02096708  10.375   9.762  11.604  0.3105  0.8504 -0.6799
  5204G12c C02196709  10.355   9.701  11.726 -2.2200 -0.6974 -0.6759
  5204G12c C01L96710  10.742   9.756  11.613  1.8242 -1.6400  1.1955
  5204G12c O00796711  10.820   9.727  11.846  1.1553 -0.0863  0.4250
  5204G12c C02296712  10.459   9.682  11.819  0.4436  0.0194  0.9004
  5204G12c C02396713  10.261   9.755  11.814 -0.3119 -0.0605 -0.2449
  5204G12c C00G96714  10.119   9.887  12.000  0.8586  0.3026  0.4443
  5204G12c C00E96715  10.060   9.936  12.233  0.0578  0.2353  0.0590
  5204G12c O00A96716   9.958   9.958  12.337 -0.7787  0.1788 -1.3911
  5204G12c C02496717   9.839   9.901  12.313  0.4484  0.6468 -0.3152
  5204G12c H00V96718   9.773   9.985  12.334  0.0211  0.7383 -1.9655
  5204G12c H00U96719   9.815   9.876  12.209 -7.9199 -0.1061  1.4071
  5204G12c H00T96720   9.826   9.803  12.358  5.6035  0.1585  0.4054
  5214G12c C00D96721   1.202  11.474   9.691 -0.8667 -0.2673  1.1212
  5214G12c O00B96722   1.068  11.541   9.671  0.7227  0.4739 -0.3422
  5214G12c C02596723   1.029  11.648   9.740  0.2367  2.2056  0.3273
  5214G12c C02696724   0.940  11.619   9.856  0.3938  1.3294 -0.7385
  5214G12c H00Y96725   0.958  11.699   9.928 -0.0034  0.3889  0.4218
  5214G12c H00X96726   0.994  11.537   9.903 -2.5338 -1.2015 -1.6540
  5214G12c O00C96727   0.814  11.596   9.836  1.3507  1.0644 -0.1997
  5214G12c H00W96728   0.818  11.517   9.783  0.1757 -0.1962  1.5393
  5214G12c C02796729   1.095  11.759   9.707 -1.3340  0.1460  0.2055
  5214G12c O00D96730   1.171  11.743   9.596 -0.4153  2.2513 -0.4452
  5214G12c H00Z96731   1.149  11.699   9.516  2.7835  1.0148 -0.7240
  5214G12c C02896732   1.060  11.896   9.771  0.7215  0.6134 -1.6232
  5214G12c C02996733   1.160  11.991   9.805  0.3234  0.3002  0.9528
  5214G12c H01096734   1.267  11.975   9.812  1.0473  4.2778  0.4779
  5214G12c C02T96735   1.127  12.129   9.832 -1.3991 -1.5619  0.2760
  5214G12c H01O96736   1.183  12.220   9.850 -2.2911 -2.0113  6.4115
  5214G12c C02S96737   0.987  12.156   9.850 -1.0122  0.8514 -0.7490
  5214G12c O00J96738   0.945  12.282   9.870 -0.0270 -0.1986  1.3417
  5214G12c H01P96739   0.856  12.287   9.837  0.6569 -4.9127 -1.7637
  5214G12c C02R96740   0.890  12.060   9.808 -0.5653  1.4930 -0.9948
  5214G12c O00I96741   0.748  12.100   9.798  1.1965 -0.9321  0.5207
  5214G12c C02Q96742   0.646  12.023   9.758  0.2488  0.0537  0.1831
  5214G12c H01N96743   0.561  12.091   9.768  1.9231  2.9265 -3.7611
  5214G12c H01R96744   0.629  11.936   9.821 -0.3180 -2.2904 -3.0335
  5214G12c H01Q96745   0.649  11.995   9.652  9.1281 -0.0434  0.0823
  5214G12c C02A96746   0.936  11.928   9.776  0.0773 -0.2510 -1.4542
  5214G12c H01196747   0.868  11.855   9.736  1.7802  0.2911 -5.6531
  5214G12c C00C96748   1.305  11.522   9.795  0.0207 -0.3942  1.2098
  5214G12c H01296749   1.307  11.617   9.846  6.1427 -0.3307  1.1846
  5214G12c C00B96750   1.396  11.448   9.853 -0.1343  0.4207 -0.0184
  5214G12c C00A96751   1.489  11.451   9.962 -2.6107  0.6644 -0.0129
  5214G12c C00996752   1.526  11.569  10.046 -0.9492 -0.2930  1.1177
  5214G12c C00896753   1.491  11.697  10.039  0.9598  0.7405  0.9617
  5214G12c H01396754   1.393  11.705   9.994 -0.4814  6.0608  4.4821
  5214G12c C00796755   1.587  11.802  10.044 -1.9146 -0.4766 -0.9374
  5214G12c H01496756   1.565  11.904  10.017  6.8830  2.6418  1.6992
  5214G12c C00696757   1.726  11.768  10.091  1.3698  1.4285  0.7843
  5214G12c C00596758   1.754  11.635  10.089  0.9842  1.4146 -0.2559
  5214G12c C00496759   1.889  11.590  10.078 -1.1570 -0.0911 -1.1370
  5214G12c C00396760   1.910  11.448  10.068 -0.7987 -0.7353 -0.6863
  5214G12c C00296761   2.051  11.417  10.053 -0.7985 -1.2792  0.8380
  5214G12c C00196762   2.120  11.298  10.040  0.2138  1.2129 -0.2126
  5214G12c C00M96763   2.080  11.173   9.976 -0.3458 -1.0660 -0.5831
  5214G12c C00L96764   1.939  11.138   9.961  0.1820 -0.4212 -0.5174
  5214G12c C00R96765   1.880  11.058   9.862 -0.3125 -1.2031 -1.7714
  5214G12c C00Q96766   1.957  10.991   9.754 -0.5663  0.3484 -3.4471
  5214G12c C00V96767   1.878  10.947   9.651 -0.0444  0.6238 -0.0413
  5214G12c C00U96768   1.741  10.966   9.647 -1.1381 -0.8154 -0.3514
  5214G12c C00T96769   1.684  11.050   9.735 -0.1850 -0.1479 -1.0620
  5214G12c C01696770   1.558  11.108   9.725 -1.1981  0.1579  1.1082
  5214G12c C01596771   1.481  11.064   9.623  0.2009 -0.2236 -0.7300
  5214G12c C01096772   1.532  10.952   9.543  2.7398  0.6575 -0.2217
  5214G12c C01196773   1.453  10.922   9.436 -0.0457 -0.5577  0.3888
  5214G12c H00596774   1.491  10.842   9.374 -0.9720 -2.4767  2.2337
  5214G12c C01296775   1.371  11.018   9.381  1.0729 -0.3042 -0.0841
  5214G12c C01796776   1.309  10.973   9.246  0.3759 -1.0482 -0.7475
  5214G12c O00296777   1.384  11.006   9.130 -1.9679 -1.5256 -0.3542
  5214G12c H00496778   1.319  11.065   9.094 -2.5534  0.4598  3.7279
  5214G12c C01896779   1.180  10.931   9.246  0.7451 -1.3407 -0.5028
  5214G12c O00196780   1.102  10.900   9.348  0.6095  0.7472  0.0400
  5214G12c H00396781   1.149  10.930   9.424 -5.7188  4.0750  2.9433
  5214G12c C01996782   1.100  10.975   9.120 -0.2514 -0.7036 -0.2815
  5214G12c H00296783   1.135  10.934   9.025 -3.6286 -1.5394 -1.2136
  5214G12c H00196784   1.005  10.928   9.141  0.4903  0.2560  6.2178
  5214G12c O00096785   1.112  11.121   9.114  0.1579 -0.1483  0.7922
  5214G12c C01A96786   1.102  11.200   9.002 -1.1866  0.5116  0.7382
  5214G12c C02K96787   0.992  11.295   8.995 -1.2955 -2.0028 -0.4422
  5214G12c O00G96788   0.929  11.316   9.107  0.3469  0.3703  1.1519
  5214G12c C02M96789   1.035  11.367   9.186 -0.7666 -0.1905  1.0896
  5214G12c H01G96790   1.011  11.470   9.209 -3.0990 -1.0040  2.5024
  5214G12c H01F96791   1.144  11.359   9.183 -0.3032  4.8106 -2.3838
  5214G12c H01E96792   1.032  11.321   9.284  2.0356  1.9846  2.2640
  5214G12c C02J96793   0.962  11.355   8.874  0.3902  0.3490 -0.0793
  5214G12c H01H96794   0.875  11.418   8.879 -3.1639 -4.1342 -2.1505
  5214G12c C02I96795   1.032  11.325   8.762  0.0389 -1.3031  3.3559
  5214G12c C02N96796   1.003  11.393   8.642  3.1166  0.7969 -0.0548
  5214G12c H01M96797   1.070  11.442   8.573  0.2923 -1.2480 -4.5059
  5214G12c C02O96798   0.889  11.354   8.588  0.4967 -0.6232  0.4521
  5214G12c H01L96799   0.844  11.366   8.491  1.2145 -5.5212 -0.6212
  5214G12c C02P96800   0.798  11.246   8.659 -1.3696  1.0080 -1.3006
  5214G12c H01K96801   0.792  11.195   8.755 -1.6398 -0.3571 -2.0347
  5214G12c H01J96802   0.705  11.302   8.653 -0.4152  2.6882 -0.8550
  5214G12c O00H96803   0.791  11.128   8.595 -1.3831  0.5540  0.8671
  5214G12c H01I96804   0.744  11.068   8.651 -3.5373 -1.9651 -3.3054
  5214G12c C02H96805   1.130  11.232   8.777 -0.5196 -0.1735  0.8936
  5214G12c H01C96806   1.149  11.191   8.679 -0.5848 -0.8472  1.1617
  5214G12c C02L96807   1.156  11.145   8.891 -0.4317  0.4044  0.0413
  5214G12c H01D96808   1.233  11.069   8.883  1.6353  2.1689  2.2148
  5214G12c C01396809   1.324  11.131   9.456  0.3831 -0.2205 -0.3735
  5214G12c H00096810   1.242  11.181   9.407  3.8577  2.4581 -3.8332
  5214G12c C01496811   1.386  11.154   9.587  0.6747  2.4230  0.4403
  5214G12c C00F96812   1.358  11.271   9.666  0.1618 -0.4976 -0.2698
  5214G12c C00H96813   1.528  11.224   9.816 -0.6311  0.4306  1.1758
  5214G12c C00I96814   1.598  11.231   9.942 -1.6057 -0.5001 -0.3563
  5214G12c C00J96815   1.714  11.177   9.929 -0.4140 -0.0998  0.3551
  5214G12c C00Z96816   1.661  10.916   9.544  0.5184  0.6192  0.8407
  5214G12c C00Y96817   1.729  10.805   9.469  1.2119  0.0723  0.9396
  5214G12c H00696818   1.665  10.751   9.400 -0.5726  2.4852  0.6462
  5214G12c C00X96819   1.851  10.823   9.443 -2.1921 -1.0494  1.3881
  5214G12c O00396820   1.893  10.745   9.330 -1.0202 -1.4013 -0.2236
  5214G12c C01B96821   2.009  10.785   9.253 -0.6248  0.3780 -0.7520
  5214G12c H00996822   1.990  10.784   9.146 -3.0197 -0.8558 -0.3443
  5214G12c H00896823   2.077  10.700   9.260 -0.6646  0.4988  1.4401
  5214G12c H00796824   2.059  10.871   9.298 -1.7967 -2.4845  6.7085
  5214G12c C00W96825   1.938  10.883   9.540 -0.1377 -0.4835  0.3124
  5214G12c O00496826   2.071  10.840   9.520 -0.8574 -0.1829  0.1241
  5214G12c C01C96827   2.157  10.887   9.613  0.5838  0.3308  1.6401
  5214G12c H00A96828   2.249  10.829   9.612 -0.1359 -0.8153 -1.0878
  5214G12c C00P96829   2.100  10.979   9.716 -0.4487 -0.9562 -0.5705
  5214G12c C00O96830   2.191  11.082   9.762  0.7083 -2.1469  1.0894
  5214G12c C01D96831   2.313  11.103   9.688 -2.3371 -0.1454  0.7302
  5214G12c H00S96832   2.317  11.053   9.592  0.1456  0.9129  0.2537
  5214G12c C01E96833   2.395  11.202   9.689 -1.0123  0.5230 -1.3709
  5214G12c O00896834   2.484  11.225   9.579 -0.7178 -0.6061 -0.7578
  5214G12c C01V96835   2.560  11.126   9.541  1.3643  0.4981 -0.7749
  5214G12c C01Z96836   2.648  11.035   9.631 -0.3532 -0.5439 -0.2053
  5214G12c H00R96837   2.627  11.065   9.734 -0.5107  1.9545 -0.9181
  5214G12c H00Q96838   2.591  10.944   9.616  1.0840 -1.3691 -0.7527
  5214G12c O00996839   2.783  11.057   9.621  0.9424 -0.7990 -1.3228
  5214G12c H00P96840   2.819  11.088   9.540 -3.0849  1.8426 -2.2182
  5214G12c C01W96841   2.545  11.084   9.403 -0.2882  1.8155 -1.2829
  5214G12c H00O96842   2.472  11.155   9.366 -1.4270  4.2071  4.9432
  5214G12c C01X96843   2.641  10.991   9.329  0.6401 -0.0039 -0.8111
  5214G12c H00N96844   2.687  11.019   9.235 -4.6079  2.3226 -2.8336
  5214G12c H00M96845   2.711  10.950   9.404 -2.7298 -4.4243  0.1490
  5214G12c C01Y96846   2.539  10.871   9.321 -0.4923 -1.0383 -0.8390
  5214G12c C02D96847   2.448  10.866   9.213  1.3099  0.1287 -0.3741
  5214G12c H01996848   2.460  10.959   9.160  2.5675  0.1502 -0.0855
  5214G12c C02C96849   2.384  10.761   9.178 -0.7598  0.6326  0.0328
  5214G12c H01A96850   2.319  10.779   9.093 -0.9734 -5.5168 -1.3116
  5214G12c C02B96851   2.386  10.647   9.245  0.7779  1.3230 -0.9936
  5214G12c O00E96852   2.325  10.516   9.221  0.2354 -0.0402  1.6535
  5214G12c H01B96853   2.350  10.495   9.133 -4.5666  0.1501  0.1256
  5214G12c C02F96854   2.469  10.634   9.358 -1.9370  0.6536 -0.5102
  5214G12c O00F96855   2.478  10.505   9.406 -0.0391  0.0502  0.8944
  5214G12c C02G96856   2.549  10.484   9.537  0.5545 -2.0639  0.2241
  5214G12c H01796857   2.518  10.402   9.602 -2.9467  0.3170  1.6743
  5214G12c H01696858   2.658  10.491   9.543  0.1893  2.3844  3.8527
  5214G12c H01596859   2.484  10.555   9.588 -1.4553 -2.1702 -2.1010
  5214G12c C02E96860   2.538  10.755   9.399  0.1228  1.1042 -0.0506
  5214G12c H01896861   2.623  10.742   9.465  4.8133  0.3304 -5.8065
  5214G12c C01F96862   2.380  11.281   9.805 -2.0635  1.0600 -0.6068
  5214G12c C01G96863   2.437  11.408   9.811 -1.1644 -0.1965 -0.8525
  5214G12c H00L96864   2.497  11.432   9.725 -3.4092 -2.6192 -3.1842
  5214G12c C01H96865   2.406  11.500   9.908  3.5487 -0.9814 -0.5006
  5214G12c H00B96866   2.407  11.605   9.884  3.9864 -0.6160  1.1297
  5214G12c C01I96867   2.299  11.466   9.999  1.5323  1.0567  4.5486
  5214G12c C01U96868   2.288  11.241   9.900 -1.4298  0.2052  0.2777
  5214G12c C00S96869   1.739  11.055   9.860 -1.3431  0.6140 -0.5425
  5214G12c C00K96870   1.824  11.224  10.001  0.9916 -0.0484 -1.2978
  5214G12c C00N96871   2.177  11.162   9.871 -1.2231  0.9249  1.0692
  5214G12c C00096872   2.257  11.323  10.009 -0.3198  2.3703 -0.2399
  5214G12c C01J96873   2.163  11.523  10.026 -2.0475  0.8256  0.0436
  5214G12c C01K96874   2.143  11.655  10.061  0.1626 -1.6131  1.6158
  5214G12c C01P96875   2.231  11.740  10.131 -0.6012  0.5272 -1.2301
  5214G12c C01Q96876   2.363  11.685  10.158  0.3348 -0.6410  0.2107
  5214G12c H00G96877   2.337  11.618  10.239 -3.6275  2.6294  1.8301
  5214G12c C01R96878   2.474  11.712  10.088  0.0405 -0.1912 -1.3581
  5214G12c H00F96879   2.472  11.758   9.990 -1.4209  1.0448 -0.7693
  5214G12c C01S96880   2.614  11.656  10.130 -1.1718  0.8753  0.6955
  5214G12c H00E96881   2.617  11.561  10.184  0.0780 -1.1446 -2.7619
  5214G12c H00D96882   2.675  11.642  10.041  4.0359  0.3193  4.1477
  5214G12c O00596883   2.651  11.744  10.226 -1.1374  1.7290  1.2594
  5214G12c H00C96884   2.711  11.688  10.272 -1.8808 -2.9313 -3.0036
  5214G12c C01O96885   2.182  11.879  10.148 -0.7205  0.1223 -0.3943
  5214G12c H00H96886   2.230  11.953  10.210 -4.6938 -2.4084  6.1795
  5214G12c C01N96887   2.053  11.911  10.127  1.2212 -1.1128  0.2881
  5214G12c O00696888   2.013  12.030  10.186 -0.6067 -0.0511 -0.3767
  5214G12c C01T96889   2.079  12.134  10.125 -0.6662 -0.2091 -0.2711
  5214G12c H00K96890   2.185  12.158  10.136  0.4213 -0.4316 -7.4489
  5214G12c H00J96891   2.084  12.124  10.016  2.5404  0.4815 -0.2279
  5214G12c H00I96892   2.014  12.211  10.165  1.0403  1.4930 -0.7284
  5214G12c C01M96893   1.957  11.819  10.072 -1.3943 -0.7342 -1.1913
  5214G12c C02096894   1.803  11.351  10.063 -1.1969 -1.0513 -1.6604
  5214G12c C02196895   1.676  11.399  10.097  1.1061  2.5017 -0.2153
  5214G12c C01L96896   2.005  11.679  10.068 -1.8353 -0.3009  1.5221
  5214G12c O00796897   1.836  11.859  10.104 -0.2152  0.0552  1.5235
  5214G12c C02296898   1.650  11.535  10.096 -1.0975 -0.7200 -1.9532
  5214G12c C02396899   1.566  11.344  10.018  0.9004  0.9972  0.4281
  5214G12c C00G96900   1.425  11.316   9.785 -1.7166 -0.1522  1.5207
  5214G12c C00E96901   1.235  11.349   9.628 -1.8989  0.9988  1.6730
  5214G12c O00A96902   1.125  11.303   9.548  0.0204 -0.1472  0.1323
  5214G12c C02496903   1.044  11.204   9.605  0.0153 -0.9714  0.7980
  5214G12c H00V96904   0.973  11.259   9.666  2.6781  1.5130  1.7694
  5214G12c H00U96905   1.093  11.130   9.669 -1.5363 -0.6545  2.4037
  5214G12c H00T96906   0.987  11.189   9.513 -3.5188  0.2245  2.7128
  5224G12c C00D96907   6.329  12.482   3.955 -0.6222 -0.7670  0.9205
  5224G12c O00B96908   6.344  12.490   3.814  0.6563 -0.0718 -0.6788
  5224G12c C02596909   6.328  12.367   3.756 -0.1942 -1.1666  0.3863
  5224G12c C02696910   6.435  12.255   3.741  1.6942 -2.2134  0.4744
  5224G12c H00Y96911   6.520  12.265   3.808 -2.5922  3.1806  5.6866
  5224G12c H00X96912   6.449  12.251   3.633 -4.3076 -2.3278 -0.4818
  5224G12c O00C96913   6.413  12.125   3.786  1.0497 -0.2336 -0.8845
  5224G12c H00W96914   6.490  12.070   3.798 -1.0664 -2.9344  1.1014
  5224G12c C02796915   6.203  12.329   3.734 -0.0373  0.3784  1.4688
  5224G12c O00D96916   6.109  12.433   3.726 -0.2542 -0.4732 -1.2092
  5224G12c H00Z96917   6.154  12.506   3.765  2.2764 -0.4916 -3.9135
  5224G12c C02896918   6.178  12.198   3.661 -0.7010  0.7167 -0.5271
  5224G12c C02996919   6.230  12.141   3.545  0.2257  0.8116  0.1802
  5224G12c H01096920   6.270  12.207   3.469 -2.3999  4.9886  2.2685
  5224G12c C02T96921   6.210  12.004   3.521 -0.6340  0.0793  1.9991
  5224G12c H01O96922   6.239  11.951   3.432 -2.1159  2.2367  0.2091
  5224G12c C02S96923   6.137  11.931   3.622 -1.3227  1.9239 -2.6788
  5224G12c O00J96924   6.093  11.818   3.559 -0.1581  0.3343  0.6788
  5224G12c H01P96925   6.078  11.764   3.635 -8.2484  5.6441  3.5497
  5224G12c C02R96926   6.090  11.995   3.736 -0.9606  1.2079 -1.3861
  5224G12c O00I96927   6.038  11.924   3.838  1.7350 -0.9030 -0.0477
  5224G12c C02Q96928   6.053  11.796   3.863 -0.4774 -0.6849  0.1172
  5224G12c H01N96929   6.068  11.762   3.965  3.8175 -6.1414 -2.1066
  5224G12c H01R96930   6.119  11.735   3.801 -0.9426 -2.9430  1.8027
  5224G12c H01Q96931   5.945  11.782   3.863 -0.5530 -1.0728 -4.6358
  5224G12c C02A96932   6.115  12.126   3.759 -0.8938 -1.0185  0.7134
  5224G12c H01196933   6.088  12.172   3.853 -3.3724  0.9963 -0.9037
  5224G12c C00C96934   6.259  12.587   4.008 -0.0198 -0.3129  1.5188
  5224G12c H01296935   6.201  12.656   3.948  1.2799  0.0459  0.6409
  5224G12c C00B96936   6.260  12.620   4.155 -0.1985 -1.3050 -1.1007
  5224G12c C00A96937   6.228  12.736   4.223 -1.0589 -1.1964  0.9796
  5224G12c C00996938   6.257  12.865   4.192 -0.6706  0.4655 -0.1494
  5224G12c C00896939   6.340  12.914   4.094 -0.1252 -0.8509 -0.3817
  5224G12c H01396940   6.365  12.849   4.011  2.7938  4.0919 -3.6486
  5224G12c C00796941   6.430  13.019   4.136  0.1920 -0.8912  1.0275
  5224G12c H01496942   6.485  13.066   4.056 -2.5308  6.5935  3.1039
  5224G12c C00696943   6.440  13.088   4.258 -0.4764  0.4140 -0.8721
  5224G12c C00596944   6.345  13.043   4.345  0.7310  0.0566  2.1495
  5224G12c C00496945   6.355  13.062   4.490 -1.0197 -0.6467  0.2537
  5224G12c C00396946   6.306  12.970   4.581  0.8718 -0.0319 -1.5010
  5224G12c C00296947   6.320  13.016   4.710  0.9401  0.5908  0.8188
  5224G12c C00196948   6.268  12.957   4.831 -2.8712  0.4977 -0.5277
  5224G12c C00M96949   6.273  12.814   4.868 -0.6938  0.1979  0.1142
  5224G12c C00L96950   6.250  12.727   4.765  2.2957  0.9161 -0.6287
  5224G12c C00R96951   6.258  12.577   4.769 -1.0344  0.1762  0.0401
  5224G12c C00Q96952   6.345  12.505   4.867 -1.7691 -0.3963  0.0094
  5224G12c C00V96953   6.394  12.385   4.811  1.4252  0.5845 -1.3894
  5224G12c C00U96954   6.375  12.345   4.677 -0.2019 -2.1475  0.3019
  5224G12c C00T96955   6.295  12.408   4.590 -0.6472 -0.1443 -1.1448
  5224G12c C01696956   6.312  12.404   4.458  0.4022  0.9329  0.6893
  5224G12c C01596957   6.384  12.309   4.397  1.5711  1.3651 -1.5251
  5224G12c C01096958   6.458  12.228   4.486  0.9309  0.0383  0.8786
  5224G12c C01196959   6.536  12.124   4.421 -0.3681  0.0662 -2.0275
  5224G12c H00596960   6.589  12.044   4.472 -4.0046 -2.6655 -2.3761
  5224G12c C01296961   6.522  12.107   4.279 -0.1962  0.8000 -0.0995
  5224G12c C01796962   6.619  11.997   4.230 -1.7411 -0.4155 -1.2187
  5224G12c O00296963   6.676  11.905   4.309  0.7318 -0.0109  2.3923
  5224G12c H00496964   6.650  11.823   4.270  4.2664 -1.5571  3.0419
  5224G12c C01896965   6.653  12.003   4.101 -0.6567 -0.4406 -1.1184
  5224G12c O00196966   6.684  12.133   4.059  0.6675  0.2264 -1.2119
  5224G12c H00396967   6.647  12.185   4.129 -6.3713 -3.1420 -1.9835
  5224G12c C01996968   6.766  11.915   4.034 -0.2841 -0.3209  0.6428
  5224G12c H00296969   6.845  11.950   4.100 -0.5656 -0.9969  1.3498
  5224G12c H00196970   6.746  11.809   4.053 -0.9923 -0.2370  0.3605
  5224G12c O00096971   6.780  11.946   3.900  0.6504  1.0996  1.0743
  5224G12c C01A96972   6.717  11.888   3.795  0.1308  0.8879 -0.3631
  5224G12c C02K96973   6.768  11.877   3.662  0.7245 -0.3642  1.1738
  5224G12c O00G96974   6.903  11.925   3.653 -0.4783  0.2689  1.3386
  5224G12c C02M96975   6.906  12.066   3.670  0.6682  0.6199  1.2668
  5224G12c H01G96976   6.946  12.106   3.576  0.4898 -2.5529 -0.2401
  5224G12c H01F96977   6.957  12.109   3.756 -1.7023  4.2109  0.9489
  5224G12c H01E96978   6.804  12.102   3.656 -0.5850 -3.2847 -0.4561
  5224G12c C02J96979   6.710  11.798   3.544  2.2010  0.3055  0.4086
  5224G12c H01H96980   6.759  11.815   3.450  0.1453  4.4034 -0.0098
  5224G12c C02I96981   6.574  11.769   3.564  0.1930 -0.5737  0.3926
  5224G12c C02N96982   6.476  11.770   3.464  0.6861  0.8609  0.4783
  5224G12c H01M96983   6.377  11.792   3.500  1.3502 -3.9867  6.0235
  5224G12c C02O96984   6.521  11.734   3.341  1.3733  0.0825  0.7416
  5224G12c H01L96985   6.612  11.681   3.315  0.4858 -3.2254  3.8928
  5224G12c C02P96986   6.435  11.736   3.207 -1.3754  1.0681 -1.6535
  5224G12c H01K96987   6.378  11.827   3.225  3.9823  4.5551 -1.2740
  5224G12c H01J96988   6.475  11.773   3.112 -2.0046  1.2584 -1.8428
  5224G12c O00H96989   6.389  11.609   3.181  0.1217  0.7325  0.4343
  5224G12c H01I96990   6.321  11.647   3.129 -3.2444  2.2845  5.5468
  5224G12c C02H96991   6.526  11.764   3.690  0.4090 -0.4782  0.1204
  5224G12c H01C96992   6.435  11.726   3.733 -1.1135  1.1104 -1.6413
  5224G12c C02L96993   6.593  11.819   3.797  0.2150  2.1534  0.0153
  5224G12c H01D96994   6.524  11.818   3.880  0.9858 -3.2930  0.7678
  5224G12c C01396995   6.447  12.181   4.207  2.3069 -0.7445 -0.3157
  5224G12c H00096996   6.420  12.159   4.104  2.1830  3.8182 -1.4004
  5224G12c C01496997   6.397  12.301   4.264  0.1657 -0.0722 -1.2014
  5224G12c C00F96998   6.344  12.399   4.188  1.3568  1.4651  1.1474
  5224G12c C00H96999   6.244  12.502   4.364  0.6433  0.5307 -0.6368
  5224G12c C00I97000   6.181  12.616   4.433 -0.4827  0.8369  1.8373
  5224G12c C00J97001   6.169  12.627   4.569  0.3143  1.7818 -0.2829
  5224G12c C00Z97002   6.459  12.245   4.623 -0.8906 -1.1511  1.1368
  5224G12c C00Y97003   6.521  12.157   4.710  2.0280 -0.8182  1.7181
  5224G12c H00697004   6.569  12.064   4.685 -1.2596 -1.9350 -0.8066
  5224G12c C00X97005   6.516  12.176   4.847 -1.0379 -0.4926 -0.0701
  5224G12c O00397006   6.549  12.095   4.960  0.6843  0.6621 -2.1235
  5224G12c C01B97007   6.465  11.962   4.960  0.9469 -0.8738 -1.2123
  5224G12c H00997008   6.443  11.926   4.860  1.6835 -1.8236 -1.0341
  5224G12c H00897009   6.367  11.993   4.995  1.0982  4.0637 -4.6666
  5224G12c H00797010   6.485  11.866   5.007  3.8296 -1.5152 -3.6355
  5224G12c C00W97011   6.485  12.305   4.898 -0.9368 -0.5464  0.5193
  5224G12c O00497012   6.442  12.314   5.023  0.5216 -0.6588 -0.1084
  5224G12c C01C97013   6.442  12.433   5.079 -0.7555  0.9114  0.7395
  5224G12c H00A97014   6.520  12.455   5.150 -3.3531 -3.1255  5.1581
  5224G12c C00P97015   6.401  12.545   4.997 -0.5683 -0.2396 -0.5272
  5224G12c C00O97016   6.427  12.684   5.038  1.2490 -0.1922  0.9938
  5224G12c C01D97017   6.532  12.723   5.131 -1.1521  0.4025  2.7085
  5224G12c H00S97018   6.573  12.648   5.198 -0.4648 -3.6913 -1.9643
  5224G12c C01E97019   6.586  12.850   5.162  0.1205  0.7826 -0.2652
  5224G12c O00897020   6.671  12.874   5.279 -0.0738  0.4068 -0.0155
  5224G12c C01V97021   6.651  12.781   5.383 -2.0243  0.4859 -0.0514
  5224G12c C01Z97022   6.506  12.773   5.429  2.0595 -1.2551  0.3256
  5224G12c H00R97023   6.475  12.782   5.533 -8.5513  3.2427 -2.5711
  5224G12c H00Q97024   6.428  12.831   5.379  7.6049  2.6615 -4.5662
  5224G12c O00997025   6.460  12.652   5.442  1.8936 -0.3637  1.6240
  5224G12c H00P97026   6.465  12.618   5.354 -5.0385  1.0874  0.3125
  5224G12c C01W97027   6.752  12.710   5.420 -0.7497 -0.6717  0.9763
  5224G12c H00O97028   6.749  12.658   5.514 -0.7288  0.7205  1.7571
  5224G12c C01X97029   6.901  12.702   5.361  0.2523 -0.4325  0.3565
  5224G12c H00N97030   6.958  12.612   5.383  2.7245  0.9899  0.0086
  5224G12c H00M97031   6.879  12.699   5.254  1.8498 -5.4134  0.0196
  5224G12c C01Y97032   6.979  12.830   5.422  0.6642  1.8830  0.3706
  5224G12c C02D97033   6.956  12.875   5.549 -0.7561 -0.7270 -0.7072
  5224G12c H01997034   6.912  12.832   5.638 -1.1528 -3.5849 -2.2316
  5224G12c C02C97035   7.069  12.953   5.605  1.4812 -0.5099 -0.3075
  5224G12c H01A97036   7.061  12.961   5.712  1.5322  1.9130 -0.4495
  5224G12c C02B97037   7.169  13.021   5.513 -1.2670 -0.0764 -0.0444
  5224G12c O00E97038   7.284  13.104   5.549  0.7925 -0.6553  0.5820
  5224G12c H01B97039   7.366  13.061   5.568 -0.5532 -3.9527 -0.7899
  5224G12c C02F97040   7.181  12.974   5.376 -1.5502 -0.0110  0.4432
  5224G12c O00F97041   7.267  13.034   5.303  1.5012 -0.5778  0.0800
  5224G12c C02G97042   7.255  13.034   5.159  2.8828 -0.7646  0.8424
  5224G12c H01797043   7.333  13.088   5.107 -1.4550  8.0717  2.6378
  5224G12c H01697044   7.181  13.110   5.133  4.1012  1.6600  4.1425
  5224G12c H01597045   7.241  12.941   5.103 -0.9506  1.4707 -2.1520
  5224G12c C02E97046   7.083  12.887   5.332  1.9630  0.1981  0.2565
  5224G12c H01897047   7.084  12.833   5.238 -9.0842  5.8027 -4.0964
  5224G12c C01F97048   6.525  12.950   5.084  0.3570 -0.0729 -0.4716
  5224G12c C01G97049   6.577  13.075   5.070 -0.8549 -1.9386  0.4092
  5224G12c H00L97050   6.660  13.109   5.129  0.8752 -1.0290 -2.4606
  5224G12c C01H97051   6.540  13.169   4.965 -0.1108 -0.9263 -0.4537
  5224G12c H00B97052   6.597  13.260   4.975 -2.2171  0.1805  1.8797
  5224G12c C01I97053   6.435  13.131   4.885  2.2154  2.4882 -0.4426
  5224G12c C01U97054   6.413  12.920   5.012  0.0299 -1.4700  1.5990
  5224G12c C00S97055   6.209  12.518   4.645  0.4123 -0.1221 -0.5427
  5224G12c C00K97056   6.204  12.755   4.632 -1.5111 -0.8322 -3.1355
  5224G12c C00N97057   6.368  12.792   4.979 -1.0805  1.4015  0.9297
  5224G12c C00097058   6.355  13.017   4.928  1.7525 -0.7101  0.5423
  5224G12c C01J97059   6.384  13.147   4.750 -1.2033  0.6568 -1.2555
  5224G12c C01K97060   6.445  13.230   4.641 -1.1924 -1.5747 -0.6493
  5224G12c C01P97061   6.531  13.342   4.649  0.3901 -1.2205 -2.1513
  5224G12c C01Q97062   6.524  13.410   4.779  1.6035  0.3104  0.8882
  5224G12c H00G97063   6.419  13.417   4.802  0.7036 -4.5302 -0.9076
  5224G12c C01R97064   6.635  13.470   4.847 -1.2837  0.4061 -1.0921
  5224G12c H00F97065   6.734  13.471   4.804 -1.7551  1.1165 -2.1933
  5224G12c C01S97066   6.632  13.566   4.976 -1.2786  0.4226  0.7412
  5224G12c H00E97067   6.733  13.606   4.983 -1.4944  2.2046 -4.2392
  5224G12c H00D97068   6.610  13.523   5.073  0.7289 -3.3546 -0.3573
  5224G12c O00597069   6.540  13.663   4.909 -0.0253  0.1394 -0.3207
  5224G12c H00C97070   6.536  13.746   4.953  0.4858  1.9921 -3.5908
  5224G12c C01O97071   6.578  13.417   4.544 -1.5421 -1.0456  1.3092
  5224G12c H00H97072   6.637  13.508   4.547 -1.4187 -0.9630 -2.0168
  5224G12c C01N97073   6.580  13.349   4.423 -0.9980  1.1839  1.5759
  5224G12c O00697074   6.651  13.409   4.326  0.2903  0.6262  1.9694
  5224G12c C01T97075   6.795  13.372   4.339  1.3119  1.6956 -1.0538
  5224G12c H00K97076   6.820  13.268   4.360  7.4681  3.1203 -0.3681
  5224G12c H00J97077   6.846  13.440   4.407  0.4926  1.2356  0.0317
  5224G12c H00I97078   6.843  13.399   4.245  4.1699  6.2107  1.4960
  5224G12c C01M97079   6.518  13.224   4.415 -2.5139 -0.5360 -0.3502
  5224G12c C02097080   6.224  12.855   4.544  0.2757  0.4600  0.6723
  5224G12c C02197081   6.200  12.852   4.414 -1.4226  0.6613 -0.3422
  5224G12c C01L97082   6.437  13.166   4.521 -0.2622  0.2543  0.8552
  5224G12c O00797083   6.551  13.165   4.296 -0.3992  0.7165 -0.0625
  5224G12c C02297084   6.253  12.936   4.314 -2.1476  1.2313 -0.4831
  5224G12c C02397085   6.163  12.731   4.352  0.5243  1.4178  1.2127
  5224G12c C00G97086   6.252  12.502   4.230 -1.6077  0.6513 -1.7736
  5224G12c C00E97087   6.404  12.408   4.054  0.2156  1.7595 -0.2344
  5224G12c O00A97088   6.536  12.388   4.034  1.0395  0.4375 -0.8911
  5224G12c C02497089   6.618  12.489   3.980  1.6114  0.6447 -0.1759
  5224G12c H00V97090   6.600  12.511   3.875  7.0463 -4.2923 -2.3446
  5224G12c H00U97091   6.721  12.458   3.994  0.6020 -1.9091  2.0686
  5224G12c H00T97092   6.602  12.580   4.038 -3.9263 -0.1857 -0.1068
  5234G12c C00D97093   7.095   9.177   2.494 -1.1587 -0.2901  0.5704
  5234G12c O00B97094   7.216   9.205   2.548  0.0917 -0.5816  1.2612
  5234G12c C02597095   7.225   9.143   2.669  1.1508 -0.5163 -0.4745
  5234G12c C02697096   7.276   8.998   2.679  0.8943 -0.5285 -0.7146
  5234G12c H00Y97097   7.331   8.964   2.767  3.3024  5.4608  0.3132
  5234G12c H00X97098   7.368   8.996   2.620 -0.7013  3.0454 -3.4898
  5234G12c O00C97099   7.193   8.901   2.609 -1.1405 -1.5963 -1.0771
  5234G12c H00W97100   7.193   8.938   2.522 -1.3461  0.8276 -0.0992
  5234G12c C02797101   7.191   9.214   2.775  0.7375  1.1741 -1.0479
  5234G12c O00D97102   7.162   9.351   2.753 -0.4096  0.2024  0.2101
  5234G12c H00Z97103   7.197   9.373   2.668 -3.9486  4.1726 -0.3867
  5234G12c C02897104   7.166   9.175   2.914  1.0997 -1.3032 -1.5194
  5234G12c C02997105   7.090   9.057   2.933 -1.0012 -0.4431  0.2797
  5234G12c H01097106   7.035   8.997   2.862 -5.0165 -3.1957  5.2992
  5234G12c C02T97107   7.058   9.008   3.051 -0.4062 -0.3279 -1.0021
  5234G12c H01O97108   7.001   8.916   3.054 -1.1845  0.1900  3.0454
  5234G12c C02S97109   7.120   9.069   3.160  1.0168  1.4928  0.3992
  5234G12c O00J97110   7.075   9.009   3.283  0.5720 -1.2369 -0.1398
  5234G12c H01P97111   7.043   9.077   3.340 -3.2202 -2.7813 -0.3074
  5234G12c C02R97112   7.183   9.170   3.151 -1.0325  0.9544 -1.1269
  5234G12c O00I97113   7.251   9.212   3.255 -0.7065  0.0513 -0.8933
  5234G12c C02Q97114   7.208   9.311   3.340  0.3040  1.2215 -0.7591
  5234G12c H01N97115   7.223   9.414   3.304 -4.6526  2.2290 -0.3307
  5234G12c H01R97116   7.111   9.324   3.387  1.0401  0.2727  1.0405
  5234G12c H01Q97117   7.284   9.302   3.417 -1.0696  0.5899  0.5398
  5234G12c C02A97118   7.196   9.241   3.030  0.5554 -0.1210  0.2234
  5234G12c H01197119   7.255   9.330   3.017  2.9695 -1.4990  1.4538
  5234G12c C00C97120   6.979   9.169   2.568 -1.3844 -0.4479  0.9474
  5234G12c H01297121   6.988   9.146   2.673 -6.9612  1.6449  2.1040
  5234G12c C00B97122   6.857   9.189   2.505 -0.6677 -1.1052  0.6370
  5234G12c C00A97123   6.732   9.219   2.573  0.5775  2.2068  0.5052
  5234G12c C00997124   6.690   9.155   2.699  0.7444  0.6813  0.7870
  5234G12c C00897125   6.710   9.029   2.767 -0.6169 -0.2573 -0.8381
  5234G12c H01397126   6.799   8.976   2.739  0.3735 -0.2919  2.2193
  5234G12c C00797127   6.622   8.951   2.837  0.0073  0.7371  1.1856
  5234G12c H01497128   6.638   8.883   2.919 -4.1114 -1.1244  0.5636
  5234G12c C00697129   6.482   8.978   2.811 -1.7696 -1.9533 -0.0823
  5234G12c C00597130   6.450   9.090   2.735 -0.0117  0.9449  0.5338
  5234G12c C00497131   6.326   9.089   2.675 -1.0239  1.6649 -0.2095
  5234G12c C00397132   6.298   9.174   2.576  2.1292 -1.1482  0.8528
  5234G12c C00297133   6.153   9.176   2.525  1.5519 -0.4488  1.7331
  5234G12c C00197134   6.081   9.246   2.418 -0.3558  1.2123  0.7242
  5234G12c C00M97135   6.137   9.286   2.281 -0.0922 -0.5509 -1.4468
  5234G12c C00L97136   6.283   9.322   2.270  0.1769 -1.7231 -1.7054
  5234G12c C00R97137   6.354   9.302   2.145 -1.1749 -0.7103 -1.6563
  5234G12c C00Q97138   6.319   9.257   2.011  0.9361 -0.5309 -0.3316
  5234G12c C00V97139   6.429   9.247   1.918 -2.0205 -1.9557 -0.0935
  5234G12c C00U97140   6.562   9.246   1.968  0.5419  1.4706  1.4310
  5234G12c C00T97141   6.593   9.266   2.099 -0.5167 -0.4363  0.1080
  5234G12c C01697142   6.715   9.258   2.166  0.1294 -0.4088  0.4889
  5234G12c C01597143   6.824   9.226   2.089  0.9534  0.1939 -0.5318
  5234G12c C01097144   6.797   9.223   1.951 -0.0383 -0.7182 -0.4954
  5234G12c C01197145   6.904   9.209   1.863  0.1479 -0.9933  0.6932
  5234G12c H00597146   6.910   9.212   1.755  1.5130 -0.8326  0.7633
  5234G12c C01297147   7.035   9.186   1.917 -0.1305 -0.0172  0.4653
  5234G12c C01797148   7.153   9.199   1.839 -0.1490  1.0638 -0.8046
  5234G12c O00297149   7.194   9.334   1.802 -0.5333  0.6287 -0.1646
  5234G12c H00497150   7.257   9.320   1.732 -5.9669 -0.5654 -5.2218
  5234G12c C01897151   7.210   9.086   1.784 -1.2893  1.1259 -1.7221
  5234G12c O00197152   7.166   8.953   1.800  0.4431 -1.6652 -0.5733
  5234G12c H00397153   7.109   8.959   1.724 -1.5738 -0.6886  0.9635
  5234G12c C01997154   7.269   9.112   1.643  0.1151 -0.7388  0.5336
  5234G12c H00297155   7.356   9.177   1.649 -0.0567 -0.0306 -3.4547
  5234G12c H00197156   7.345   9.043   1.607  0.4385 -0.7976  1.3238
  5234G12c O00097157   7.160   9.154   1.598 -0.6431 -0.4731  1.2468
  5234G12c C01A97158   7.101   9.072   1.493  0.5635  0.3695 -1.5634
  5234G12c C02K97159   7.179   9.000   1.399 -1.9288 -0.5517  0.8126
  5234G12c O00G97160   7.324   9.017   1.410 -0.2945  0.5330  0.6049
  5234G12c C02M97161   7.416   8.939   1.339  1.1238 -1.4019 -2.2575
  5234G12c H01G97162   7.405   8.856   1.409  1.2452 -0.9105 -1.6491
  5234G12c H01F97163   7.358   8.911   1.252 -0.3703 -2.6729 -0.8769
  5234G12c H01E97164   7.516   8.983   1.333 -0.1729  3.4050  5.0360
  5234G12c C02J97165   7.124   8.958   1.278  1.1877  0.1089 -0.0544
  5234G12c H01H97166   7.173   8.973   1.182 -2.3813  0.0174 -1.9722
  5234G12c C02I97167   6.979   8.957   1.275 -0.3740  0.0650  0.0039
  5234G12c C02N97168   6.900   8.890   1.179  0.0391 -0.2759  0.4601
  5234G12c H01M97169   6.793   8.894   1.175  0.1300  3.5831  0.0498
  5234G12c C02O97170   6.971   8.819   1.095 -0.5206  0.7536  0.5119
  5234G12c H01L97171   7.075   8.797   1.113  0.1771  0.8162 -3.0857
  5234G12c C02P97172   6.909   8.738   0.978  0.9059  0.1742 -0.0092
  5234G12c H01K97173   6.818   8.788   0.947  1.6507 -1.9713 -6.4089
  5234G12c H01J97174   6.982   8.712   0.902  5.2713 -3.6707  5.0861
  5234G12c O00H97175   6.882   8.600   1.033  0.2270 -0.4596  0.6492
  5234G12c H01I97176   6.898   8.518   0.989 -0.8480  2.1389 -4.9896
  5234G12c C02H97177   6.904   9.041   1.369 -0.2436  0.8637 -1.1735
  5234G12c H01C97178   6.798   9.057   1.355 -2.5648 -6.5534  4.4420
  5234G12c C02L97179   6.968   9.110   1.465  0.7258  0.9413 -0.6148
  5234G12c H01D97180   6.888   9.131   1.534  2.3071  2.3666  0.8319
  5234G12c C01397181   7.057   9.196   2.048  1.5340  1.7837  0.2071
  5234G12c H00097182   7.158   9.233   2.059  1.3491  2.8446 -1.5072
  5234G12c C01497183   6.949   9.188   2.141 -0.9519 -0.3065 -0.0050
  5234G12c C00F97184   6.963   9.176   2.286 -0.4287  1.8521  0.6579
  5234G12c C00H97185   6.728   9.269   2.310  0.1335  0.7893 -0.0678
  5234G12c C00I97186   6.625   9.311   2.389 -0.2830 -1.1483  0.1359
  5234G12c C00J97187   6.498   9.308   2.326 -2.5429 -0.8471 -0.1082
  5234G12c C00Z97188   6.674   9.234   1.885  2.1019  0.2143 -0.1312
  5234G12c C00Y97189   6.646   9.225   1.744  0.3339  1.6423 -0.0382
  5234G12c H00697190   6.729   9.236   1.677 -0.3696  3.6149 -0.6224
  5234G12c C00X97191   6.509   9.199   1.688 -1.6550 -0.0856  0.9011
  5234G12c O00397192   6.473   9.224   1.557 -0.1182  0.8872  1.2681
  5234G12c C01B97193   6.519   9.108   1.474  0.2147  0.8225  0.7838
  5234G12c H00997194   6.495   9.119   1.368 -1.0215  0.9539  1.0788
  5234G12c H00897195   6.625   9.112   1.502  0.5799 -1.7914 -0.0882
  5234G12c H00797196   6.486   9.012   1.513  9.8056 -2.1293  3.0872
  5234G12c C00W97197   6.408   9.214   1.776 -1.2721  0.9993  1.7394
  5234G12c O00497198   6.287   9.208   1.727 -0.0308  0.1097  0.2287
  5234G12c C01C97199   6.189   9.233   1.820  0.0919  0.0440  0.1450
  5234G12c H00A97200   6.090   9.216   1.780 -0.2851  0.8477  0.7217
  5234G12c C00P97201   6.186   9.229   1.959  0.5451  1.0831 -0.0022
  5234G12c C00O97202   6.072   9.194   2.037 -0.6669  1.1513  0.5280
  5234G12c C01D97203   5.962   9.138   1.976 -1.0074  0.6872 -0.3460
  5234G12c H00S97204   5.983   9.095   1.879  2.0949 -1.7695  1.2973
  5234G12c C01E97205   5.860   9.073   2.059 -1.1442  1.0533  0.2021
  5234G12c O00897206   5.752   9.004   2.007 -0.7309  0.0885 -0.2064
  5234G12c C01V97207   5.687   9.022   1.893 -0.5561 -2.1720  1.4098
  5234G12c C01Z97208   5.546   9.094   1.921 -1.0540  1.5258 -0.9604
  5234G12c H00R97209   5.473   9.031   1.970 -2.9497 -0.4938 -6.0785
  5234G12c H00Q97210   5.558   9.195   1.959  5.1251  1.5448 -2.3362
  5234G12c O00997211   5.472   9.115   1.796  1.8797 -0.1607  0.4105
  5234G12c H00P97212   5.400   9.167   1.828  4.1730  5.9788 -3.4989
  5234G12c C01W97213   5.754   8.988   1.778  0.7881 -0.1180  0.1574
  5234G12c H00O97214   5.853   8.951   1.798 -0.0224 -3.3959 -1.5867
  5234G12c C01X97215   5.708   9.051   1.641  1.2614 -0.6308  1.6695
  5234G12c H00N97216   5.757   8.977   1.578  0.8811 -1.4398  2.3270
  5234G12c H00M97217   5.601   9.057   1.621  1.3733  2.8620  1.8233
  5234G12c C01Y97218   5.771   9.176   1.597  0.4541  1.4213 -1.8517
  5234G12c C02D97219   5.713   9.302   1.610  0.2219 -0.4732 -0.3182
  5234G12c H01997220   5.607   9.296   1.627 -0.1766  0.6080 -2.1943
  5234G12c C02C97221   5.795   9.418   1.585  0.1737 -0.2194 -0.2195
  5234G12c H01A97222   5.773   9.523   1.599 -2.6605 -1.3988  6.3245
  5234G12c C02B97223   5.937   9.390   1.563 -0.7992 -0.9232 -1.4469
  5234G12c O00E97224   6.019   9.490   1.547  0.6004  0.4780 -1.0075
  5234G12c H01B97225   6.078   9.451   1.485 -1.3333 -2.2965 -1.2060
  5234G12c C02F97226   5.995   9.261   1.558  0.7094 -1.7969  0.4338
  5234G12c O00F97227   6.120   9.251   1.510 -0.7587 -0.2845 -0.4304
  5234G12c C02G97228   6.154   9.291   1.378 -0.8650 -0.0734 -2.4553
  5234G12c H01797229   6.085   9.239   1.312  0.5591 -7.0379  1.0863
  5234G12c H01697230   6.254   9.251   1.361 -3.2397 -6.3457 -2.6485
  5234G12c H01597231   6.105   9.375   1.328 -4.7535 -1.3698 -0.9935
  5234G12c C02E97232   5.904   9.160   1.563 -0.1385  1.3587  0.5363
  5234G12c H01897233   5.940   9.059   1.551 -4.2829 -0.0577 -0.7246
  5234G12c C01F97234   5.869   9.066   2.209 -3.7843  0.9349  1.4170
  5234G12c C01G97235   5.800   8.983   2.309  0.3258 -0.4001 -0.9738
  5234G12c H00L97236   5.744   8.895   2.283  3.6964 -3.7430  2.4212
  5234G12c C01H97237   5.871   8.959   2.429 -0.9070 -0.4456 -0.0829
  5234G12c H00B97238   5.833   8.874   2.485  1.3694 -1.7833 -0.4988
  5234G12c C01I97239   5.957   9.064   2.479  1.0365  0.4014  0.7235
  5234G12c C01U97240   5.951   9.164   2.260  1.7990  0.2562 -0.3542
  5234G12c C00S97241   6.482   9.277   2.188 -0.7569 -0.6563  0.2930
  5234G12c C00K97242   6.366   9.310   2.387 -0.7208  1.5065  0.0196
  5234G12c C00N97243   6.056   9.220   2.179 -0.1170 -1.3798  0.7093
  5234G12c C00097244   5.964   9.187   2.401  0.0499 -0.5000 -0.4108
  5234G12c C01J97245   6.065   9.069   2.576 -0.1217 -0.5613 -1.1615
  5234G12c C01K97246   6.086   8.986   2.693  0.5383  0.9364  0.0147
  5234G12c C01P97247   5.999   8.922   2.789 -0.4151  0.1068  1.4282
  5234G12c C01Q97248   5.852   8.931   2.743  0.6302 -0.4025 -0.0442
  5234G12c H00G97249   5.810   9.022   2.701 -0.3193 -1.7816 -2.1451
  5234G12c C01R97250   5.757   8.843   2.796 -0.9295 -0.8249  0.2425
  5234G12c H00F97251   5.801   8.780   2.871 -0.3001  1.4019  1.8197
  5234G12c C01S97252   5.601   8.878   2.792 -1.0178 -0.2354  0.8150
  5234G12c H00E97253   5.558   8.884   2.692  2.6843  1.6042 -0.7573
  5234G12c H00D97254   5.538   8.797   2.828 -4.4946  1.8290 -0.3900
  5234G12c O00597255   5.555   8.977   2.870 -1.1067  0.0492  0.4898
  5234G12c H00C97256   5.628   9.037   2.873  2.3825 -4.0284  1.0369
  5234G12c C01O97257   6.043   8.880   2.913 -2.8005  3.2911 -1.3252
  5234G12c H00H97258   5.975   8.826   2.978  1.0318 -2.0701 -1.4369
  5234G12c C01N97259   6.180   8.895   2.961  0.1824  0.0819 -0.5129
  5234G12c O00697260   6.227   8.817   3.062  0.0207 -0.3722 -0.7403
  5234G12c C01T97261   6.226   8.679   3.028  0.1339 -0.4153 -1.8742
  5234G12c H00K97262   6.288   8.688   2.939 -2.6938  2.4841 -3.6758
  5234G12c H00J97263   6.133   8.634   2.993  4.5702 -8.1844 -4.6828
  5234G12c H00I97264   6.261   8.603   3.098  2.6764  3.3693  1.2219
  5234G12c C01M97265   6.268   8.929   2.857  0.4443  0.0671 -0.3120
  5234G12c C02097266   6.388   9.277   2.521 -0.2698  0.5637 -1.2880
  5234G12c C02197267   6.508   9.287   2.597 -0.9711  0.1895 -0.1937
  5234G12c C01L97268   6.224   9.004   2.744  0.3876 -2.2993  0.1456
  5234G12c O00797269   6.391   8.894   2.876 -0.9178 -1.3530 -0.2331
  5234G12c C02297270   6.538   9.199   2.691 -0.0206 -0.4025  1.3143
  5234G12c C02397271   6.641   9.307   2.523 -0.8402  0.7539  0.5876
  5234G12c C00G97272   6.850   9.209   2.365 -2.6275  0.6737 -0.8009
  5234G12c C00E97273   7.086   9.200   2.346  0.5291  0.8662 -0.5585
  5234G12c O00A97274   7.189   9.268   2.277 -1.2173 -0.3455  0.0033
  5234G12c C02497275   7.267   9.366   2.316  0.8437  0.7409  0.0284
  5234G12c H00V97276   7.339   9.336   2.392  0.7795  2.8656  0.9481
  5234G12c H00U97277   7.212   9.458   2.334 -2.3428 -1.1235  0.0950
  5234G12c H00T97278   7.338   9.388   2.235  1.8820 -3.0306 -0.2221
  5244G12c C00D97279   4.800  10.818   2.877 -0.9264  1.4763 -0.2730
  5244G12c O00B97280   4.881  10.730   2.946  0.9235  0.7817  0.8026
  5244G12c C02597281   4.934  10.772   3.061 -1.4934 -0.2731 -0.8718
  5244G12c C02697282   4.938  10.644   3.161  0.4876 -0.8452  0.5966
  5244G12c H00Y97283   4.829  10.639   3.166  0.0797  4.5968  0.0879
  5244G12c H00X97284   4.949  10.650   3.269 -2.7171  0.4986  0.9014
  5244G12c O00C97285   4.993  10.519   3.137 -1.7621 -2.0578 -1.1108
  5244G12c H00W97286   5.038  10.513   3.054  0.8565  1.6824 -0.0932
  5244G12c C02797287   5.012  10.875   3.086 -1.1393  0.3656 -0.1004
  5244G12c O00D97288   5.020  10.981   3.005 -0.5707 -0.6646  0.5634
  5244G12c H00Z97289   4.989  10.943   2.924  2.0822  2.7444 -2.2227
  5244G12c C02897290   5.079  10.869   3.218 -1.4135  0.4379 -1.0877
  5244G12c C02997291   5.183  10.778   3.249 -0.4179  0.4455  1.0210
  5244G12c H01097292   5.226  10.685   3.215 -1.2211  2.1149 -5.0338
  5244G12c C02T97293   5.276  10.801   3.350 -0.6222  0.3324  0.7816
  5244G12c H01O97294   5.365  10.742   3.357  1.7893  3.9855  2.8580
  5244G12c C02S97295   5.263  10.922   3.424 -1.3476  1.2138  0.5936
  5244G12c O00J97296   5.336  10.938   3.539 -0.5721  0.7277 -1.5767
  5244G12c H01P97297   5.305  10.859   3.579 -1.7648  1.2293 -1.4911
  5244G12c C02R97298   5.152  10.998   3.413 -1.6507  0.4993 -0.3473
  5244G12c O00I97299   5.142  11.115   3.484  0.4926 -0.6870 -0.7925
  5244G12c C02Q97300   5.222  11.224   3.474 -0.4038  0.3022  0.4674
  5244G12c H01N97301   5.259  11.282   3.389  1.7318 -7.5642 -4.4237
  5244G12c H01R97302   5.319  11.191   3.512 -1.0867  0.0849  2.0781
  5244G12c H01Q97303   5.129  11.268   3.512 -4.7539 -2.7451 -5.8497
  5244G12c C02A97304   5.046  10.965   3.317 -0.7328 -1.2994 -0.2676
  5244G12c H01197305   4.968  11.039   3.316  1.2397  0.9320  2.7337
  5244G12c C00C97306   4.846  10.908   2.780 -0.7485 -0.7612 -0.4510
  5244G12c H01297307   4.949  10.939   2.770 -1.0003  0.6682  1.0024
  5244G12c C00B97308   4.739  10.980   2.704  0.3798  1.7404  1.6375
  5244G12c C00A97309   4.745  11.102   2.619  0.3367 -1.0747 -0.8437
  5244G12c C00997310   4.824  11.224   2.640 -0.0892 -1.0575 -1.8546
  5244G12c C00897311   4.945  11.262   2.718 -0.1696  0.4823 -1.1219
  5244G12c H01397312   4.974  11.202   2.803  5.7365 -3.7895 -5.6282
  5244G12c C00797313   4.971  11.391   2.743  0.8487 -0.8853 -0.6595
  5244G12c H01497314   5.059  11.405   2.803 -0.6607  1.1724  1.1748
  5244G12c C00697315   4.911  11.497   2.656  0.2172 -0.4484  0.1813
  5244G12c C00597316   4.816  11.450   2.564 -0.3158  0.5571 -1.0564
  5244G12c C00497317   4.748  11.529   2.477 -0.8441 -1.7250  1.2730
  5244G12c C00397318   4.613  11.488   2.432 -1.2553  1.9375 -0.3150
  5244G12c C00297319   4.523  11.589   2.398 -1.3136 -0.4417  1.0017
  5244G12c C00197320   4.391  11.569   2.330 -1.1845 -0.8482 -1.3350
  5244G12c C00M97321   4.283  11.476   2.393  0.8063 -1.7349 -1.5835
  5244G12c C00L97322   4.306  11.346   2.426  0.0271 -0.2867 -0.8943
  5244G12c C00R97323   4.210  11.255   2.472  0.5889  1.7167  0.3597
  5244G12c C00Q97324   4.075  11.276   2.525 -0.1701 -1.1924 -1.5813
  5244G12c C00V97325   4.035  11.169   2.620  0.1058  1.6186 -2.8200
  5244G12c C00U97326   4.121  11.071   2.664 -0.4658 -1.5394  1.7054
  5244G12c C00T97327   4.256  11.064   2.622 -0.3983 -0.4851  0.7958
  5244G12c C01697328   4.366  10.987   2.665  0.7208  0.6776 -1.2129
  5244G12c C01597329   4.331  10.920   2.788 -0.9464 -0.1156  1.6380
  5244G12c C01097330   4.200  10.941   2.844 -0.4633 -0.2751  0.3355
  5244G12c C01197331   4.182  10.902   2.987  0.4154 -1.6851  0.8233
  5244G12c H00597332   4.091  10.927   3.039 -2.3174 -7.0823 -0.9014
  5244G12c C01297333   4.282  10.860   3.074 -2.0337 -1.3269 -2.5365
  5244G12c C01797334   4.247  10.793   3.195 -1.1656 -1.3224 -1.3072
  5244G12c O00297335   4.258  10.660   3.189 -0.4927  0.2305  1.9558
  5244G12c H00497336   4.332  10.604   3.172 -2.0120 -2.1798  2.9157
  5244G12c C01897337   4.253  10.860   3.313 -1.5718  0.0296 -1.8365
  5244G12c O00197338   4.267  10.814   3.439  0.3633 -0.7465 -0.8817
  5244G12c H00397339   4.257  10.735   3.389 -0.0559 -0.7266 -0.8317
  5244G12c C01997340   4.275  11.008   3.324  0.4989 -1.2595 -0.2095
  5244G12c H00297341   4.230  11.064   3.242  5.1807  0.5592 -1.6888
  5244G12c H00197342   4.231  11.066   3.405 -0.7429 -0.9841 -1.0627
  5244G12c O00097343   4.410  11.015   3.326  1.0694  1.0238  0.4507
  5244G12c C01A97344   4.454  11.124   3.381  1.0581 -0.0825  0.4563
  5244G12c C02K97345   4.545  11.193   3.291  0.6056 -0.8112 -0.7797
  5244G12c O00G97346   4.535  11.188   3.154  0.8031  1.4344 -2.6282
  5244G12c C02M97347   4.636  11.120   3.081 -0.9251 -1.0841  0.1960
  5244G12c H01G97348   4.726  11.177   3.103  0.5075 -3.1974 -0.0029
  5244G12c H01F97349   4.615  11.118   2.974  1.6976 -3.1414 -0.3512
  5244G12c H01E97350   4.664  11.022   3.121  2.4986 -1.9545 -3.8988
  5244G12c C02J97351   4.602  11.314   3.335 -1.4224  1.8399 -1.9139
  5244G12c H01H97352   4.674  11.358   3.268  1.7004  0.8178  0.6731
  5244G12c C02I97353   4.572  11.375   3.453 -0.2225 -0.4441 -0.9881
  5244G12c C02N97354   4.623  11.509   3.486  0.6148  0.9961 -1.0380
  5244G12c H01M97355   4.634  11.537   3.590  6.2094 -5.2523  0.4273
  5244G12c C02O97356   4.647  11.590   3.390  0.6209 -0.3545  0.1169
  5244G12c H01L97357   4.689  11.547   3.301  3.4717 -1.7674  2.0531
  5244G12c C02P97358   4.692  11.738   3.359 -0.4617 -0.1940 -1.5001
  5244G12c H01K97359   4.799  11.722   3.371  0.6398  3.7787 -4.7701
  5244G12c H01J97360   4.677  11.782   3.260 -0.3754  0.1409 -1.3656
  5244G12c O00H97361   4.688  11.812   3.475  1.2356 -0.1380 -1.0732
  5244G12c H01I97362   4.608  11.766   3.498  0.5460  0.9137 -1.3207
  5244G12c C02H97363   4.488  11.306   3.531  1.7385  1.1416 -0.5819
  5244G12c H01C97364   4.486  11.336   3.635  3.4120 -0.6769  0.0102
  5244G12c C02L97365   4.445  11.168   3.515 -1.2109  0.0948 -1.7060
  5244G12c H01D97366   4.379  11.134   3.594 -3.5715 -4.3033 -5.2701
  5244G12c C01397367   4.416  10.859   3.011  1.8001  0.1250 -0.5671
  5244G12c H00097368   4.495  10.845   3.083  2.4928 -0.4641 -1.4263
  5244G12c C01497369   4.441  10.866   2.868 -0.7560  1.0963 -1.3269
  5244G12c C00F97370   4.567  10.849   2.825 -1.9912 -1.2118 -0.1146
  5244G12c C00H97371   4.503  11.002   2.637 -0.7594  1.1903 -1.1851
  5244G12c C00I97372   4.520  11.100   2.550 -0.6457 -1.2891 -0.4029
  5244G12c C00J97373   4.419  11.168   2.492 -1.0802 -1.1181  0.0528
  5244G12c C00Z97374   4.088  10.994   2.774 -1.1808 -1.0774 -0.6009
  5244G12c C00Y97375   3.953  10.988   2.827 -0.2770  1.7154 -1.2019
  5244G12c H00697376   3.929  10.920   2.907 -0.1801  1.4450 -1.4030
  5244G12c C00X97377   3.861  11.058   2.757  1.0616  1.9999 -1.7446
  5244G12c O00397378   3.738  11.042   2.808  0.5101  1.0040  0.4903
  5244G12c C01B97379   3.662  10.949   2.725 -0.4670 -0.5535 -0.4597
  5244G12c H00997380   3.585  10.913   2.793 -0.9950 -2.1732 -1.8926
  5244G12c H00897381   3.700  10.889   2.643 -3.0506 -1.6578 -0.8671
  5244G12c H00797382   3.613  11.026   2.665  2.9809 -3.3251 -7.4189
  5244G12c C00W97383   3.904  11.175   2.685 -1.0927 -0.3868  0.5323
  5244G12c O00497384   3.799  11.257   2.640  1.4504  1.2010 -1.4493
  5244G12c C01C97385   3.864  11.379   2.601 -0.9970 -0.8554  0.9388
  5244G12c H00A97386   3.834  11.469   2.652 -1.7694 -1.1854  1.0691
  5244G12c C00P97387   3.991  11.393   2.530 -1.1484  1.0736  0.9246
  5244G12c C00O97388   4.043  11.522   2.504  2.2861 -0.5452 -0.4883
  5244G12c C01D97389   3.947  11.632   2.542 -0.6002 -1.2536  1.2468
  5244G12c H00S97390   3.851  11.629   2.592 -0.0283  2.0362  2.6417
  5244G12c C01E97391   4.013  11.768   2.534  0.4317  0.7238 -1.8610
  5244G12c O00897392   3.940  11.868   2.608 -0.3001 -0.8868  0.2559
  5244G12c C01V97393   4.002  11.882   2.722  1.2168 -2.1145  0.9138
  5244G12c C01Z97394   4.042  12.021   2.759  0.2930 -0.2165  0.0973
  5244G12c H00R97395   4.106  12.096   2.712 -0.0817  2.1303  3.1843
  5244G12c H00Q97396   3.942  12.062   2.748  0.0184  1.2768  6.4896
  5244G12c O00997397   4.032  12.062   2.901  0.9436  0.2409 -1.0830
  5244G12c H00P97398   3.962  11.998   2.904 -0.2137  1.5044  4.2024
  5244G12c C01W97399   4.029  11.773   2.792  0.4173 -0.6653 -0.4225
  5244G12c H00O97400   3.993  11.675   2.766 -5.5263  0.3799  3.0808
  5244G12c C01X97401   4.096  11.773   2.921 -1.8287 -0.6274  0.0735
  5244G12c H00N97402   4.158  11.861   2.902 -1.2851 -1.6698 -3.3519
  5244G12c H00M97403   4.036  11.744   3.007 -0.3021  0.4799  1.5455
  5244G12c C01Y97404   4.217  11.687   2.909 -1.1098  0.7103  0.4586
  5244G12c C02D97405   4.353  11.729   2.947 -0.2896 -1.7014  0.4091
  5244G12c H01997406   4.384  11.829   2.974  0.5488 -2.3775  2.0411
  5244G12c C02C97407   4.452  11.639   2.920 -1.5110 -0.6104  0.3806
  5244G12c H01A97408   4.545  11.692   2.919 -2.2315  0.6685 -0.0675
  5244G12c C02B97409   4.434  11.506   2.916 -1.0150 -0.5829  1.2610
  5244G12c O00E97410   4.552  11.427   2.893  0.3660 -0.1096  0.1023
  5244G12c H01B97411   4.532  11.337   2.915  1.1030 -0.3713 -0.2602
  5244G12c C02F97412   4.302  11.456   2.923 -0.2094 -0.3772 -0.2871
  5244G12c O00F97413   4.306  11.323   2.954  0.6073  1.1382  0.2197
  5244G12c C02G97414   4.196  11.252   2.986 -0.7641 -1.6165  0.5248
  5244G12c H01797415   4.122  11.288   2.915 -3.5052 -4.4324  1.8462
  5244G12c H01697416   4.215  11.145   2.996  0.9913 -1.1357  2.7310
  5244G12c H01597417   4.161  11.288   3.082  2.9371  3.4614  0.1786
  5244G12c C02E97418   4.200  11.546   2.911  0.2241  0.0316  0.9827
  5244G12c H01897419   4.114  11.487   2.938  4.1252 -5.8684  1.2744
  5244G12c C01F97420   4.144  11.792   2.463  0.5312  2.5799  1.6605
  5244G12c C01G97421   4.226  11.895   2.485 -1.3327 -0.2897  0.9453
  5244G12c H00L97422   4.186  11.974   2.547  1.8787 -1.5111  4.7641
  5244G12c C01H97423   4.373  11.895   2.469 -0.0874 -0.1972 -2.1186
  5244G12c H00B97424   4.434  11.977   2.505 -3.4325  1.5257 -0.2187
  5244G12c C01I97425   4.423  11.798   2.395  0.5847 -0.1136  2.4112
  5244G12c C01U97426   4.194  11.694   2.380  0.3639  0.8669 -0.8959
  5244G12c C00S97427   4.289  11.154   2.523 -0.3980 -0.5990  0.2742
  5244G12c C00K97428   4.429  11.301   2.442 -0.5288  1.5017 -0.8692
  5244G12c C00N97429   4.176  11.561   2.442  0.9534 -1.3424 -0.0758
  5244G12c C00097430   4.334  11.702   2.327 -1.1502 -1.3577 -0.8751
  5244G12c C01J97431   4.552  11.729   2.410  1.3688 -0.3014 -0.8217
  5244G12c C01K97432   4.687  11.760   2.457  0.0494 -1.9179  1.3582
  5244G12c C01P97433   4.736  11.890   2.471  0.2491 -0.8505  1.6981
  5244G12c C01Q97434   4.698  12.001   2.380 -0.1330  0.6128  1.0113
  5244G12c H00G97435   4.619  12.061   2.423  0.2956  5.5813 -4.5563
  5244G12c C01R97436   4.772  12.061   2.277  1.2240  1.0765  1.2876
  5244G12c H00F97437   4.721  12.141   2.225  4.9652  0.4270 -3.8056
  5244G12c C01S97438   4.860  11.966   2.208  1.4372 -0.0190  1.9996
  5244G12c H00E97439   4.945  11.920   2.259  7.5633 -1.5755 -8.1196
  5244G12c H00D97440   4.776  11.903   2.177  1.5505 -0.5422  2.7464
  5244G12c O00597441   4.931  12.003   2.095 -0.8724 -0.4455  0.7172
  5244G12c H00C97442   5.011  11.999   2.144  2.1002  4.8969 -3.2140
  5244G12c C01O97443   4.785  11.928   2.598 -0.8856 -1.2404 -0.6607
  5244G12c H00H97444   4.801  12.030   2.631 -0.6923 -1.6951  0.6578
  5244G12c C01N97445   4.866  11.826   2.663  0.0791 -0.9567 -0.9879
  5244G12c O00697446   4.947  11.859   2.761  0.8126 -1.0943 -1.5884
  5244G12c C01T97447   5.032  11.974   2.717 -0.0812 -0.0038  0.5378
  5244G12c H00K97448   5.080  11.955   2.621 -2.9568  2.6431 -1.5132
  5244G12c H00J97449   4.977  12.067   2.727 -0.6572 -0.5299  2.5471
  5244G12c H00I97450   5.115  11.964   2.787 -0.6201 -1.1586  1.0288
  5244G12c C01M97451   4.864  11.696   2.605  1.9787 -0.5129 -0.4366
  5244G12c C02097452   4.566  11.353   2.469 -0.1373  0.9947  0.9729
  5244G12c C02197453   4.664  11.273   2.506 -0.2552 -1.1087 -0.5959
  5244G12c C01L97454   4.775  11.664   2.498 -0.6850 -1.5952 -0.6600
  5244G12c O00797455   4.947  11.624   2.664 -0.5301 -0.1575  1.1081
  5244G12c C02297456   4.785  11.327   2.555  0.9034  0.2006 -0.5121
  5244G12c C02397457   4.653  11.137   2.538  1.0918  1.0146 -1.0083
  5244G12c C00G97458   4.610  10.936   2.719 -0.9504 -0.0324 -0.1020
  5244G12c C00E97459   4.670  10.777   2.897 -1.0670  0.2312  0.6987
  5244G12c O00A97460   4.656  10.662   2.974  0.9755 -0.1086 -2.1325
  5244G12c C02497461   4.665  10.552   2.899  0.1296 -0.1198 -0.2422
  5244G12c H00V97462   4.727  10.466   2.926 -2.4462 -4.7879 -7.7484
  5244G12c H00U97463   4.716  10.569   2.805  0.0199 -2.9519 -0.8798
  5244G12c H00T97464   4.569  10.528   2.853 -2.4743  2.8636  3.3141
  5254G12c C00D97465   8.480   0.561   1.708  1.1322 -1.5245 -0.1829
  5254G12c O00B97466   8.575   0.666   1.711 -0.2605  0.9216 -0.6569
  5254G12c C02597467   8.663   0.728   1.621 -1.2954  0.8315  1.2703
  5254G12c C02697468   8.803   0.670   1.591 -1.1206  0.1844  1.1721
  5254G12c H00Y97469   8.868   0.757   1.595  0.5894 -0.8729 -2.0157
  5254G12c H00X97470   8.811   0.618   1.495  1.7146 -1.6871  2.3848
  5254G12c O00C97471   8.841   0.603   1.697  0.6110 -0.3613  0.5154
  5254G12c H00W97472   8.770   0.614   1.758  0.7368  6.4784 -0.1928
  5254G12c C02797473   8.635   0.852   1.584  1.9143 -1.7615 -0.3821
  5254G12c O00D97474   8.509   0.901   1.621  0.6262  0.5207 -1.4197
  5254G12c H00Z97475   8.469   0.841   1.561 -0.9074  1.6306 -1.5428
  5254G12c C02897476   8.688   0.926   1.464 -0.6392 -0.6944 -0.4077
  5254G12c C02997477   8.752   0.876   1.346 -1.3476  1.5406 -0.6526
  5254G12c H01097478   8.761   0.769   1.337 -0.0920  1.8074 -3.2647
  5254G12c C02T97479   8.812   0.959   1.242  1.1408  0.6221 -0.2725
  5254G12c H01O97480   8.835   0.912   1.147  0.4725  1.7404 -0.9915
  5254G12c C02S97481   8.794   1.099   1.256 -1.2036  0.8374  1.0362
  5254G12c O00J97482   8.847   1.186   1.155  0.6683  0.0661 -0.1353
  5254G12c H01P97483   8.805   1.270   1.163 -1.8179 -1.2137  0.7153
  5254G12c C02R97484   8.722   1.156   1.353 -0.0426 -0.3593  0.4092
  5254G12c O00I97485   8.723   1.290   1.352  1.1220  0.6812  0.3165
  5254G12c C02Q97486   8.603   1.320   1.378  0.5065  0.2303  0.1119
  5254G12c H01N97487   8.600   1.366   1.477  2.7725 -2.5108  1.5047
  5254G12c H01R97488   8.538   1.392   1.327 -4.4145 -3.7305  0.4034
  5254G12c H01Q97489   8.528   1.247   1.407 -2.1630  2.5684 -0.6466
  5254G12c C02A97490   8.686   1.072   1.463  1.7774 -1.5925 -1.2455
  5254G12c H01197491   8.651   1.120   1.554  0.0837 -4.1094 -0.5071
  5254G12c C00C97492   8.468   0.493   1.589  0.6237  1.7943  0.5762
  5254G12c H01297493   8.551   0.474   1.523 -2.1920 -2.6475 -1.9799
  5254G12c C00B97494   8.356   0.394   1.572 -0.5917  0.5026  0.3941
  5254G12c C00A97495   8.323   0.327   1.449  1.1821  0.2583  0.3065
  5254G12c C00997496   8.344   0.397   1.320  0.6865 -0.0353 -0.0533
  5254G12c C00897497   8.425   0.487   1.271 -0.7401 -0.1455 -0.1454
  5254G12c H01397498   8.493   0.535   1.340 -2.8590 -0.0047  1.8959
  5254G12c C00797499   8.375   0.559   1.155 -1.4947 -0.9027  1.3059
  5254G12c H01497500   8.457   0.626   1.136  1.6913 -5.8275 -3.9713
  5254G12c C00697501   8.257   0.531   1.081 -2.0113  1.1075  1.1030
  5254G12c C00597502   8.197   0.407   1.137  0.5552  0.6239  0.2184
  5254G12c C00497503   8.080   0.368   1.084  0.7328  0.0408  0.4862
  5254G12c C00397504   7.996   0.257   1.156  1.1920  0.4216 -0.8543
  5254G12c C00297505   7.857   0.215   1.116 -0.6980  0.6260  0.3283
  5254G12c C00197506   7.749   0.135   1.153  0.5377 -1.2514  0.7437
  5254G12c C00M97507   7.696   0.137   1.292 -0.1392 -0.9526 -0.7278
  5254G12c C00L97508   7.791   0.132   1.400 -0.0594 -0.2779  0.8369
  5254G12c C00R97509   7.765   0.190   1.533 -2.5658  1.6245  0.6102
  5254G12c C00Q97510   7.642   0.222   1.597  0.4348 -0.6683 -1.4112
  5254G12c C00V97511   7.653   0.280   1.723 -0.6035 -1.2668  0.1041
  5254G12c C00U97512   7.780   0.313   1.782 -1.0573  0.2440 -0.0003
  5254G12c C00T97513   7.894   0.299   1.719 -1.4075 -0.2477  0.8745
  5254G12c C01697514   8.020   0.357   1.736 -0.1929 -1.9112  2.1383
  5254G12c C01597515   8.033   0.441   1.849 -0.1788 -1.6051  0.2645
  5254G12c C01097516   7.919   0.426   1.934  0.6306 -0.3539 -1.0990
  5254G12c C01197517   7.929   0.511   2.042 -0.4186  1.7275 -1.6224
  5254G12c H00597518   7.843   0.536   2.102  3.0883  2.5097  3.3989
  5254G12c C01297519   8.034   0.600   2.079 -1.5962  0.7660  0.8383
  5254G12c C01797520   8.036   0.663   2.207  0.5359 -1.2193 -1.6796
  5254G12c O00297521   8.153   0.659   2.277 -1.7149 -0.3324  1.3466
  5254G12c H00497522   8.171   0.729   2.338 -2.9456  2.3968 -1.3012
  5254G12c C01897523   7.942   0.738   2.248  1.3770  0.0120  0.9356
  5254G12c O00197524   7.835   0.776   2.158  1.0867 -0.1797  1.0859
  5254G12c H00397525   7.840   0.754   2.067 -0.4545 -1.5732  1.3141
  5254G12c C01997526   7.942   0.816   2.391  1.8447  0.3579 -1.4488
  5254G12c H00297527   8.031   0.819   2.452  1.4114  1.6065 -0.8583
  5254G12c H00197528   7.914   0.921   2.380  2.8036  1.5551  5.4170
  5254G12c O00097529   7.828   0.752   2.455  0.1240 -0.9665  0.3108
  5254G12c C01A97530   7.852   0.667   2.564 -0.4953 -0.8601 -0.6885
  5254G12c C02K97531   7.819   0.530   2.579  1.5571  0.6313  0.1581
  5254G12c O00G97532   7.777   0.464   2.476 -0.0751 -0.1790 -0.8621
  5254G12c C02M97533   7.623   0.465   2.482 -0.9960  0.1935 -0.3779
  5254G12c H01G97534   7.572   0.390   2.421 -3.5315  2.2987 -0.9486
  5254G12c H01F97535   7.596   0.434   2.583  1.1555  1.2214  0.5305
  5254G12c H01E97536   7.584   0.567   2.486 -1.0297  0.5738 -6.3934
  5254G12c C02J97537   7.835   0.461   2.713 -1.3048  0.7341 -1.1323
  5254G12c H01H97538   7.786   0.372   2.677 -4.5558  1.7047  0.7286
  5254G12c C02I97539   7.842   0.527   2.823 -1.3777  0.2148 -2.1895
  5254G12c C02N97540   7.819   0.448   2.941 -0.5135 -0.2281 -1.0770
  5254G12c H01M97541   7.873   0.355   2.928 -3.4604 -1.9545 -1.2669
  5254G12c C02O97542   7.762   0.482   3.067  0.3941 -0.2961  0.4942
  5254G12c H01L97543   7.719   0.582   3.063  4.1104  1.5936  4.2266
  5254G12c C02P97544   7.767   0.413   3.212 -1.0326  0.9081  1.0762
  5254G12c H01K97545   7.682   0.447   3.270 -1.3665 -5.0259  4.4948
  5254G12c H01J97546   7.777   0.308   3.186 -0.4498  1.3600 -0.6452
  5254G12c O00H97547   7.865   0.468   3.295 -2.0548  0.7758 -0.2264
  5254G12c H01I97548   7.953   0.484   3.264 -0.4507 -2.2513  2.4905
  5254G12c C02H97549   7.896   0.658   2.805 -0.9082 -1.1006 -0.5127
  5254G12c H01C97550   7.932   0.712   2.892  0.1109 -4.4949  1.2408
  5254G12c C02L97551   7.880   0.730   2.686  1.6423 -0.2403  0.2885
  5254G12c H01D97552   7.886   0.838   2.685 -5.2970  0.3773  1.3749
  5254G12c C01397553   8.140   0.587   1.992  0.6368 -1.1962  1.5633
  5254G12c H00097554   8.218   0.655   2.024  1.9150 -0.9027 -1.8495
  5254G12c C01497555   8.140   0.525   1.856 -1.3054 -1.2243 -0.5780
  5254G12c C00F97556   8.255   0.486   1.779 -0.1523 -0.6523  0.6038
  5254G12c C00H97557   8.129   0.324   1.652 -0.9833  0.0343  0.3828
  5254G12c C00I97558   8.106   0.241   1.539  1.4339 -0.5751 -1.3249
  5254G12c C00J97559   7.977   0.189   1.498 -1.2838  0.1053 -0.5416
  5254G12c C00Z97560   7.800   0.383   1.901  0.0095 -1.4428  1.6917
  5254G12c C00Y97561   7.692   0.365   1.979  2.1679 -0.2096 -1.4235
  5254G12c H00697562   7.696   0.377   2.086  1.7904 -3.1838 -1.0428
  5254G12c C00X97563   7.570   0.312   1.934  0.2099 -0.4617  1.9567
  5254G12c O00397564   7.473   0.306   2.024  0.5716  0.0072 -1.0178
  5254G12c C01B97565   7.382   0.431   2.017  1.0537 -0.6051  0.4552
  5254G12c H00997566   7.325   0.451   2.108  0.8207 -0.1648  0.2131
  5254G12c H00897567   7.331   0.407   1.924  1.0491 -1.8817  0.7668
  5254G12c H00797568   7.460   0.506   2.017  4.2865 -3.5811  6.4409
  5254G12c C00W97569   7.547   0.267   1.810  0.3245 -0.3633  0.7399
  5254G12c O00497570   7.418   0.215   1.774 -2.1256 -0.9336  0.6692
  5254G12c C01C97571   7.395   0.228   1.642 -0.2681 -0.9986 -0.5347
  5254G12c H00A97572   7.326   0.311   1.632 -5.1203 -3.8103  6.4189
  5254G12c C00P97573   7.502   0.201   1.550  0.2840 -0.0667 -1.5810
  5254G12c C00O97574   7.478   0.215   1.402 -0.6164  0.4021 -0.1794
  5254G12c C01D97575   7.345   0.270   1.346  0.4966 -0.5165 -1.0982
  5254G12c H00S97576   7.271   0.285   1.423  0.1979 -3.3059 -0.8143
  5254G12c C01E97577   7.307   0.286   1.205 -1.0248 -1.0820  0.4787
  5254G12c O00897578   7.184   0.341   1.149 -0.7222 -1.9781 -0.0020
  5254G12c C01V97579   7.058   0.314   1.168 -0.5203  0.4172  1.2426
  5254G12c C01Z97580   7.021   0.172   1.144 -0.6843  0.1806 -0.2347
  5254G12c H00R97581   6.928   0.171   1.201 -3.5213  1.7830 -4.5684
  5254G12c H00Q97582   7.016   0.154   1.037 -1.0371 -3.9962  0.4158
  5254G12c O00997583   7.099   0.093   1.232 -0.2447  0.4875 -0.1728
  5254G12c H00P97584   7.142   0.020   1.188  3.0354 -1.0459  5.1239
  5254G12c C01W97585   6.971   0.406   1.198 -0.6145  0.8116  1.0985
  5254G12c H00O97586   6.999   0.510   1.198 -1.5730  1.0770  1.0409
  5254G12c C01X97587   6.843   0.400   1.254 -2.0246  0.8570  2.5123
  5254G12c H00N97588   6.787   0.477   1.201 -1.3200  2.7107  4.4302
  5254G12c H00M97589   6.780   0.311   1.250  0.1224 -1.2933-12.0743
  5254G12c C01Y97590   6.867   0.392   1.412 -0.0899 -0.4990 -0.7903
  5254G12c C02D97591   6.761   0.451   1.489  0.1746 -0.1273  0.2144
  5254G12c H01997592   6.678   0.477   1.425 -4.8567 -1.7399  5.7030
  5254G12c C02C97593   6.750   0.460   1.623 -0.2508  1.3904 -0.9572
  5254G12c H01A97594   6.651   0.488   1.656 -0.0023  2.1974 -0.8756
  5254G12c C02B97595   6.867   0.428   1.689  0.2308  0.8285 -2.2935
  5254G12c O00E97596   6.858   0.448   1.830 -0.3366  0.5921  0.1138
  5254G12c H01B97597   6.772   0.483   1.845 -1.2316  0.2709 -3.6505
  5254G12c C02F97598   6.978   0.373   1.620  0.2957  0.8310  0.9873
  5254G12c O00F97599   7.081   0.318   1.693 -0.3310 -2.0785  0.5205
  5254G12c C02G97600   7.061   0.191   1.727 -1.5284 -1.0092  0.5052
  5254G12c H01797601   7.147   0.134   1.692 -1.6600 -0.7590 -0.2446
  5254G12c H01697602   6.962   0.149   1.704 -1.6301 -1.9300  2.5146
  5254G12c H01597603   7.071   0.163   1.831 -5.2733  0.0271  1.2423
  5254G12c C02E97604   6.975   0.332   1.493 -1.9708  0.4607 -0.4734
  5254G12c H01897605   7.065   0.287   1.453 -2.5358 -2.3185  1.2331
  5254G12c C01F97606   7.413   0.255   1.115  0.6439  0.1659  1.1582
  5254G12c C01G97607   7.427   0.321   0.983 -0.8224  0.9035  1.4072
  5254G12c H00L97608   7.327   0.356   0.964 -2.1302 -2.4998  1.6822
  5254G12c C01H97609   7.560   0.319   0.918 -0.6102 -0.9054  0.2027
  5254G12c H00B97610   7.599   0.361   0.826  2.8765  0.3774  2.1734
  5254G12c C01I97611   7.677   0.248   0.967 -0.9505 -0.4883  1.1611
  5254G12c C01U97612   7.531   0.190   1.158 -0.5237 -0.9032  0.6666
  5254G12c C00S97613   7.887   0.209   1.602  0.9153 -0.0217 -0.7869
  5254G12c C00K97614   7.938   0.157   1.378  0.0611  0.5373 -0.3130
  5254G12c C00N97615   7.573   0.186   1.302  0.2927 -0.2517  0.0119
  5254G12c C00097616   7.640   0.158   1.067  0.7382 -0.1659 -0.6359
  5254G12c C01J97617   7.817   0.281   0.989 -0.5416 -1.9069  0.6498
  5254G12c C01K97618   7.897   0.374   0.904  0.4012  1.4780 -1.7593
  5254G12c C01P97619   7.875   0.424   0.770 -0.8687  1.6198 -0.1367
  5254G12c C01Q97620   7.785   0.354   0.688  0.4876  0.7804  0.3207
  5254G12c H00G97621   7.811   0.250   0.678 -0.0817  0.7334 -0.8262
  5254G12c C01R97622   7.737   0.416   0.571 -0.1199  0.1850  0.3180
  5254G12c H00F97623   7.698   0.517   0.575  2.5452  1.2216  1.8707
  5254G12c C01S97624   7.687   0.357   0.451  2.4316 -0.8974  1.4460
  5254G12c H00E97625   7.582   0.328   0.456  1.5303  1.7820 -0.8422
  5254G12c H00D97626   7.708   0.428   0.371  1.1715 -1.3042  0.7321
  5254G12c O00597627   7.793   0.266   0.403  0.8614 -0.5664  0.5677
  5254G12c H00C97628   7.787   0.254   0.310 -3.9085 -3.1436  1.0698
  5254G12c C01O97629   7.958   0.529   0.725  1.5808  1.2303 -0.0865
  5254G12c H00H97630   7.946   0.563   0.623 -1.0860  0.2488 -0.1655
  5254G12c C01N97631   8.066   0.588   0.799  1.3627  0.1113  0.5987
  5254G12c O00697632   8.159   0.671   0.744 -0.4234 -0.5434  0.7082
  5254G12c C01T97633   8.114   0.770   0.663 -0.0093 -0.7661  0.9815
  5254G12c H00K97634   8.199   0.824   0.622  1.9434 -0.0482  5.6702
  5254G12c H00J97635   8.064   0.833   0.735  1.0000 -2.4959  3.2497
  5254G12c H00I97636   8.078   0.730   0.568  1.7800  2.2871 -1.0510
  5254G12c C01M97637   8.097   0.535   0.925  1.2728  0.1116 -1.1440
  5254G12c C02097638   8.034   0.210   1.284  0.7869  0.8696 -0.8201
  5254G12c C02197639   8.164   0.235   1.315  0.8977  0.3087 -0.7328
  5254G12c C01L97640   8.014   0.429   0.965 -0.4757 -1.1473  0.8761
  5254G12c O00797641   8.211   0.604   0.982 -0.7135 -0.9217 -0.1722
  5254G12c C02297642   8.248   0.316   1.232 -0.9403 -0.6780  0.7762
  5254G12c C02397643   8.203   0.262   1.450 -0.9527  1.5042  0.1084
  5254G12c C00G97644   8.247   0.405   1.660  0.2961  1.3495  0.8129
  5254G12c C00E97645   8.371   0.570   1.811 -0.6846 -1.5964  1.2983
  5254G12c O00A97646   8.402   0.629   1.922 -0.7984  1.0885  1.0060
  5254G12c C02497647   8.518   0.563   1.981 -0.9030  0.2165 -0.6235
  5254G12c H00V97648   8.599   0.633   1.962 -2.4545  1.7586 -1.6884
  5254G12c H00U97649   8.453   0.552   2.068 -1.7928 -0.4687 -1.3592
  5254G12c H00T97650   8.510   0.454   1.979 -1.4548  0.1336 -8.3988
  5264G12c C00D97651  10.119   3.560   6.555  0.9278  0.0031 -0.8397
  5264G12c O00B97652  10.164   3.640   6.449  0.0860  0.8439  2.0926
  5264G12c C02597653  10.079   3.695   6.351  0.5722  0.7854 -0.7451
  5264G12c C02697654   9.996   3.817   6.391  0.5553 -0.6243  1.2632
  5264G12c H00Y97655   9.940   3.820   6.484 -2.8564 -6.6150 -0.2958
  5264G12c H00X97656   9.957   3.881   6.312 -2.2198  3.7010  5.8615
  5264G12c O00C97657  10.094   3.906   6.427  0.7667 -1.1909 -0.2787
  5264G12c H00W97658  10.048   3.984   6.454  0.6439  0.6253 -5.1649
  5264G12c C02797659  10.083   3.620   6.238  1.0473  0.9575  1.0935
  5264G12c O00D97660  10.185   3.539   6.233  1.4109 -1.6367  0.1253
  5264G12c H00Z97661  10.232   3.569   6.309  3.0814  1.0651 -1.9140
  5264G12c C02897662   9.996   3.647   6.128  0.7170 -1.3931 -1.1690
  5264G12c C02997663  10.039   3.736   6.032  0.1162 -0.8282 -1.0341
  5264G12c H01097664  10.137   3.772   6.058 -0.7039  0.8225 -0.0927
  5264G12c C02T97665   9.938   3.777   5.933 -0.7861  0.6285  2.4254
  5264G12c H01O97666   9.968   3.854   5.863 -4.1723 -0.4635 -0.3719
  5264G12c C02S97667   9.827   3.693   5.909  0.1147  2.7131  1.3309
  5264G12c O00J97668   9.740   3.706   5.791  0.9320 -0.1241 -0.7346
  5264G12c H01P97669   9.742   3.620   5.751 -2.9360  0.0011 -1.3682
  5264G12c C02R97670   9.813   3.582   5.993  0.6715 -1.6989  0.2459
  5264G12c O00I97671   9.731   3.470   5.936  0.5755  0.0172  0.0866
  5264G12c C02Q97672   9.586   3.501   5.963 -0.4079  0.1982 -0.5838
  5264G12c H01N97673   9.575   3.477   6.069  3.3941 -5.1768 -1.2396
  5264G12c H01R97674   9.567   3.439   5.875  4.2654  0.4836 -1.9193
  5264G12c H01Q97675   9.532   3.579   5.910  2.8396 -0.3437 -4.8880
  5264G12c C02A97676   9.879   3.578   6.111 -0.3454  2.0474  0.7171
  5264G12c H01197677   9.808   3.519   6.167 -4.0745 -0.9851 -6.5310
  5264G12c C00C97678  10.199   3.539   6.668 -0.2444 -0.5225 -1.2832
  5264G12c H01297679  10.292   3.588   6.694 -2.9926  3.0461  2.5097
  5264G12c C00B97680  10.125   3.491   6.792 -0.2986 -0.0329 -0.0659
  5264G12c C00A97681  10.164   3.521   6.924 -0.4075  0.4110  0.0362
  5264G12c C00997682  10.291   3.572   6.983 -0.9179  0.5786 -0.2452
  5264G12c C00897683  10.428   3.603   6.945 -0.8172 -0.1696  2.8733
  5264G12c H01397684  10.456   3.613   6.841 -0.2263  8.9787  3.5121
  5264G12c C00797685  10.531   3.594   7.044 -1.4914  2.1752 -0.4154
  5264G12c H01497686  10.633   3.601   7.007  0.5468 -3.3821  3.4163
  5264G12c C00697687  10.506   3.530   7.173  0.2645 -0.4779 -0.5100
  5264G12c C00597688  10.377   3.505   7.199  1.4189 -0.4978 -1.2167
  5264G12c C00497689  10.339   3.424   7.306  0.3966 -1.2576  1.6112
  5264G12c C00397690  10.207   3.373   7.320  1.3263  2.1357 -0.8831
  5264G12c C00297691  10.173   3.318   7.454  1.1789 -0.1826  0.0480
  5264G12c C00197692  10.045   3.262   7.496  1.9156  0.8048  0.8417
  5264G12c C00M97693   9.967   3.171   7.415  1.1314  0.6236  1.0047
  5264G12c C00L97694   9.906   3.221   7.301 -0.7207 -1.1513  0.1250
  5264G12c C00R97695   9.809   3.164   7.213 -1.0481 -1.1295 -0.0103
  5264G12c C00Q97696   9.742   3.041   7.211 -0.8811 -0.1355 -0.1044
  5264G12c C00V97697   9.664   3.018   7.097  0.1306 -0.2923 -0.5401
  5264G12c C00U97698   9.700   3.083   6.980  0.6637  0.5179  0.4220
  5264G12c C00T97699   9.795   3.184   6.970  0.3694 -0.5567  0.2601
  5264G12c C01697700   9.852   3.259   6.868 -2.2365  1.8251  0.4093
  5264G12c C01597701   9.825   3.209   6.750 -1.9130 -0.4241  1.4937
  5264G12c C01097702   9.733   3.094   6.740 -1.6349  1.2918 -0.3074
  5264G12c C01197703   9.733   3.017   6.620  0.3653  0.6719 -0.5611
  5264G12c H00597704   9.679   2.926   6.600  1.6263 -1.2730  4.1187
  5264G12c C01297705   9.798   3.079   6.500 -0.2511  0.7758 -0.1377
  5264G12c C01797706   9.803   2.978   6.383  1.6453  0.7011  0.4994
  5264G12c O00297707   9.697   2.901   6.374  1.0021  0.9245 -0.0256
  5264G12c H00497708   9.724   2.825   6.324 -3.8196  0.4231 -2.1441
  5264G12c C01897709   9.903   2.970   6.292  0.4179 -2.1378  0.3280
  5264G12c O00197710  10.034   3.036   6.319 -0.2707  1.4720  1.2295
  5264G12c H00397711  10.106   3.009   6.264  0.0605  1.0307  1.8806
  5264G12c C01997712   9.882   2.914   6.144  0.4723  1.6625  1.9901
  5264G12c H00297713   9.787   2.954   6.107 -0.3022 -0.5151  1.4990
  5264G12c H00197714   9.965   2.933   6.077  1.6862  6.0285  4.5542
  5264G12c O00097715   9.849   2.769   6.154 -0.7936  1.6051  0.3206
  5264G12c C01A97716   9.952   2.694   6.148  0.7212  0.6884 -0.0134
  5264G12c C02K97717  10.076   2.676   6.217  0.2475  0.6383 -0.9645
  5264G12c O00G97718  10.090   2.759   6.327  0.3483 -0.5843 -0.8136
  5264G12c C02M97719  10.061   2.717   6.441  1.0183  0.8591  1.4967
  5264G12c H01G97720   9.954   2.738   6.439  1.5111  3.4215 -0.3776
  5264G12c H01F97721  10.087   2.748   6.543 -0.4862 -2.1127  2.8611
  5264G12c H01E97722  10.050   2.609   6.431  1.4296  0.7773  1.8826
  5264G12c C02J97723  10.182   2.584   6.180  1.6063  0.1035 -0.2104
  5264G12c H01H97724  10.282   2.582   6.223  1.1274  1.0622  1.0034
  5264G12c C02I97725  10.149   2.462   6.118  1.4287 -0.2830 -0.9426
  5264G12c C02N97726  10.254   2.346   6.120  0.9856  0.3639  1.4560
  5264G12c H01M97727  10.361   2.332   6.126  0.5474 -2.5423  3.4166
  5264G12c C02O97728  10.200   2.220   6.085 -0.2162  0.1971 -1.4778
  5264G12c H01L97729  10.094   2.204   6.074 -0.4277  2.6801 -3.6466
  5264G12c C02P97730  10.270   2.087   6.110  0.1794  0.1379  0.2140
  5264G12c H01K97731  10.342   2.101   6.030 -0.8939  0.2866 -0.7477
  5264G12c H01J97732  10.307   2.081   6.212 -1.7968 -0.0823  0.9420
  5264G12c O00H97733  10.176   1.979   6.070 -0.8340 -1.4024 -0.7862
  5264G12c H01I97734  10.205   1.904   6.021 -3.1340 -6.1833  4.7070
  5264G12c C02H97735  10.024   2.487   6.048  0.3480 -1.2456  1.0163
  5264G12c H01C97736   9.976   2.402   6.002 -3.1328 -2.6066  6.6784
  5264G12c C02L97737   9.937   2.590   6.043 -0.0194  1.1022 -0.3198
  5264G12c H01D97738   9.850   2.576   5.980  1.5356  1.7520 -2.6370
  5264G12c C01397739   9.848   3.206   6.503  0.3482 -0.4619  0.8146
  5264G12c H00097740   9.909   3.228   6.417  4.6456  1.4695  4.1724
  5264G12c C01497741   9.866   3.273   6.632 -1.1045 -0.1299  0.0497
  5264G12c C00F97742   9.950   3.396   6.646 -1.4366 -1.1612  1.5650
  5264G12c C00H97743   9.927   3.377   6.889 -0.8315  0.4703 -1.8224
  5264G12c C00I97744   9.970   3.408   7.009 -0.2239  0.4625  0.0545
  5264G12c C00J97745   9.915   3.332   7.119  0.7651 -1.1720  0.5793
  5264G12c C00Z97746   9.682   3.036   6.851  1.7074 -1.1339 -1.2573
  5264G12c C00Y97747   9.598   2.919   6.846 -0.8055 -0.0429  0.3284
  5264G12c H00697748   9.543   2.855   6.779 -0.8495  2.6148 -2.2764
  5264G12c C00X97749   9.540   2.866   6.960 -3.0149 -0.9475 -0.7959
  5264G12c O00397750   9.440   2.783   6.952  0.4778  1.1688 -0.4893
  5264G12c C01B97751   9.479   2.643   6.952 -0.0687  1.3726 -1.1721
  5264G12c H00997752   9.542   2.633   6.863  0.5182 -2.5069 -0.4423
  5264G12c H00897753   9.396   2.573   6.949 -4.1822  6.0897 -5.1872
  5264G12c H00797754   9.559   2.615   7.021 -0.8472  7.1754  2.3721
  5264G12c C00W97755   9.596   2.891   7.089  0.7104 -0.2959 -0.4346
  5264G12c O00497756   9.562   2.811   7.196  0.2469 -0.5424  0.3096
  5264G12c C01C97757   9.673   2.809   7.289 -0.2410  0.3124 -0.0719
  5264G12c H00A97758   9.713   2.709   7.281 -2.3525 -0.4525 -1.1975
  5264G12c C00P97759   9.748   2.934   7.313 -1.6963 -0.2024  1.3329
  5264G12c C00O97760   9.840   2.946   7.426 -2.0147 -0.1127 -1.7633
  5264G12c C01D97761   9.851   2.830   7.511  1.4452 -0.2755 -0.8148
  5264G12c H00S97762   9.811   2.731   7.500  0.5480 -0.0870  0.6728
  5264G12c C01E97763   9.944   2.831   7.626  0.9982 -0.5056  0.1064
  5264G12c O00897764   9.935   2.761   7.742  0.6962  0.5866  1.1585
  5264G12c C01V97765   9.816   2.690   7.763  1.9920  1.7999 -2.6547
  5264G12c C01Z97766   9.781   2.563   7.674  0.2207 -1.6896  0.0392
  5264G12c H00R97767   9.712   2.613   7.606  3.7258  5.2957  1.1731
  5264G12c H00Q97768   9.850   2.516   7.603  0.3733 -1.9021  0.3299
  5264G12c O00997769   9.770   2.461   7.758 -1.1545  0.0046  0.5650
  5264G12c H00P97770   9.726   2.410   7.692 -0.5578 -2.6095  2.1289
  5264G12c C01W97771   9.741   2.738   7.855 -0.5249  0.1470  0.9502
  5264G12c H00O97772   9.653   2.677   7.872 -1.7453  2.1893  2.2712
  5264G12c C01X97773   9.773   2.860   7.929  1.0060 -1.0604  0.3004
  5264G12c H00N97774   9.846   2.917   7.872  0.4647 -1.0904 -0.4370
  5264G12c H00M97775   9.688   2.927   7.939  3.3173  2.1754 -0.7513
  5264G12c C01Y97776   9.838   2.858   8.069  0.5021  1.1660 -1.8609
  5264G12c C02D97777   9.783   2.762   8.158  0.8425  0.2197 -1.1185
  5264G12c H01997778   9.744   2.672   8.114  3.8530 -0.3365 -2.8202
  5264G12c C02C97779   9.805   2.769   8.306  0.1074  0.9340 -0.3029
  5264G12c H01A97780   9.774   2.677   8.355  5.8718  2.3176  6.8257
  5264G12c C02B97781   9.871   2.889   8.356  0.8177  1.5324  1.0511
  5264G12c O00E97782   9.845   2.901   8.503 -1.7810  0.7492  0.8688
  5264G12c H01B97783   9.879   2.963   8.565 -8.0085  7.6653 -1.9614
  5264G12c C02F97784   9.885   2.996   8.272  0.2176 -2.9739 -0.5779
  5264G12c O00F97785   9.920   3.115   8.339 -0.4596 -0.5450 -0.1984
  5264G12c C02G97786  10.045   3.159   8.308  0.0152  0.8720 -1.1272
  5264G12c H01797787  10.038   3.265   8.332  5.8213  0.7544  2.0620
  5264G12c H01697788  10.060   3.152   8.200  6.9883 -6.2368 -0.1655
  5264G12c H01597789  10.104   3.096   8.375 -3.3890  2.5738  3.8015
  5264G12c C02E97790   9.884   2.976   8.117  0.8016  1.0400 -1.1180
  5264G12c H01897791   9.871   3.066   8.059  6.4722  5.3216  3.5389
  5264G12c C01F97792  10.036   2.934   7.628  1.3801 -0.0288 -0.8088
  5264G12c C01G97793  10.170   2.921   7.661  0.0637 -1.3957  2.7663
  5264G12c H00L97794  10.213   2.825   7.687  1.9879 -1.9864 -2.0922
  5264G12c C01H97795  10.263   3.042   7.656 -2.3041 -0.1376 -0.0054
  5264G12c H00B97796  10.368   3.029   7.676 -1.3739 -2.7833 -5.6378
  5264G12c C01I97797  10.210   3.162   7.612 -0.3447 -0.7182 -0.6423
  5264G12c C01U97798  10.002   3.062   7.582 -0.2750  1.2427  1.8461
  5264G12c C00S97799   9.821   3.239   7.102  0.9667  0.2315  0.5585
  5264G12c C00K97800   9.958   3.346   7.251 -0.0521  0.4340 -0.5771
  5264G12c C00N97801   9.925   3.053   7.471  0.1587 -1.4304 -0.8121
  5264G12c C00097802  10.070   3.184   7.602 -0.6383  0.6129 -0.1114
  5264G12c C01J97803  10.277   3.266   7.542 -0.2553 -1.6795 -1.1638
  5264G12c C01K97804  10.415   3.303   7.516  1.1352 -0.2954 -1.5840
  5264G12c C01P97805  10.522   3.287   7.618 -1.7760  0.1470  2.3203
  5264G12c C01Q97806  10.476   3.233   7.746 -0.6214  1.9190 -1.1168
  5264G12c H00G97807  10.371   3.241   7.770 -0.2781  6.8027 -0.6840
  5264G12c C01R97808  10.557   3.200   7.847  0.4392 -2.3883  0.4577
  5264G12c H00F97809  10.663   3.198   7.823  0.6149  5.6968 -0.7361
  5264G12c C01S97810  10.488   3.146   7.966  1.5252 -0.4459 -1.8953
  5264G12c H00E97811  10.399   3.204   7.990  4.0298  2.7221  0.2661
  5264G12c H00D97812  10.467   3.046   8.004 -1.2541  1.0030  0.5476
  5264G12c O00597813  10.598   3.182   8.045  0.7120  0.0333 -1.0088
  5264G12c H00C97814  10.613   3.275   8.054  0.6095 -0.0794  0.6309
  5264G12c C01O97815  10.648   3.324   7.576 -1.9804 -0.6449  0.1103
  5264G12c H00H97816  10.714   3.337   7.660 -3.7287 -2.5765  1.8292
  5264G12c C01N97817  10.677   3.376   7.453 -0.5422 -2.0071 -0.1298
  5264G12c O00697818  10.797   3.435   7.414 -0.4067 -0.0607  0.6874
  5264G12c C01T97819  10.877   3.502   7.502 -0.3228  0.2442  0.9000
  5264G12c H00K97820  10.835   3.600   7.521 -0.3444  1.1391 -3.2064
  5264G12c H00J97821  10.890   3.478   7.607 -2.2943  4.2751  2.1392
  5264G12c H00I97822  10.983   3.512   7.479 -0.3452  0.8406  1.0693
  5264G12c C01M97823  10.570   3.420   7.377  2.0188 -0.7830  1.0797
  5264G12c C02097824  10.097   3.401   7.237 -0.5433 -0.7336 -2.1813
  5264G12c C02197825  10.147   3.484   7.137  1.2647  0.6484 -0.4754
  5264G12c C01L97826  10.439   3.382   7.399  0.4213 -0.2573 -0.1381
  5264G12c O00797827  10.597   3.499   7.267 -0.9320 -0.1984 -0.0835
  5264G12c C02297828  10.267   3.552   7.124 -0.3096  0.4671 -0.0597
  5264G12c C02397829  10.066   3.497   7.015 -0.9034 -0.9460 -0.2393
  5264G12c C00G97830  10.007   3.428   6.770  0.2867  0.3274 -0.7390
  5264G12c C00E97831   9.999   3.481   6.545 -0.2470 -1.8103 -1.0776
  5264G12c O00A97832   9.918   3.513   6.443 -0.6682  0.3598 -0.2308
  5264G12c C02497833   9.798   3.563   6.461 -0.8344  0.0351 -0.8315
  5264G12c H00V97834   9.782   3.627   6.374 -1.5567  1.7227  0.5061
  5264G12c H00U97835   9.773   3.622   6.550  1.4881  3.0999 -2.1036
  5264G12c H00T97836   9.728   3.482   6.444  1.0100 -1.0204 -3.7488
  5274G12c C00D97837  11.506   7.793   3.111  0.2759 -0.1174 -0.0789
  5274G12c O00B97838  11.603   7.695   3.091 -0.9215  0.4261 -0.4678
  5274G12c C02597839  11.743   7.712   3.075  0.1250  0.1546  0.7973
  5274G12c C02697840  11.816   7.579   3.095  0.8058 -0.4593  1.1986
  5274G12c H00Y97841  11.915   7.569   3.052 -1.4375 -1.1345 -4.2146
  5274G12c H00X97842  11.785   7.528   3.186  3.4800 -4.9741 -0.2478
  5274G12c O00C97843  11.784   7.511   2.972  0.5137 -0.5950  0.5602
  5274G12c H00W97844  11.690   7.522   2.971  0.6572  1.2203 -3.4091
  5274G12c C02797845  11.799   7.842   3.025  0.6830  0.2646  0.0336
  5274G12c O00D97846  11.737   7.978   3.013 -0.3602  0.1490 -1.8373
  5274G12c H00Z97847  11.788   8.053   3.040 -3.4145  2.4075 -1.9757
  5274G12c C02897848  11.940   7.860   2.977  0.2164 -1.5551 -0.9683
  5274G12c C02997849  12.032   7.877   3.079 -0.6638  0.2951  1.4714
  5274G12c H01097850  11.997   7.852   3.177  0.9147 -4.9445  0.8461
  5274G12c C02T97851  12.167   7.914   3.050 -0.3687 -0.9163  1.1950
  5274G12c H01O97852  12.260   7.901   3.102  1.0954 -6.0764 -2.3074
  5274G12c C02S97853  12.190   7.962   2.928 -1.7859 -0.5102  0.5295
  5274G12c O00J97854  12.303   8.011   2.866  0.6911 -0.7006 -0.1433
  5274G12c H01P97855  12.268   8.033   2.781  5.7900 -1.5937 -2.6626
  5274G12c C02R97856  12.088   7.986   2.827  0.4362  0.8658 -0.3611
  5274G12c O00I97857  12.137   8.020   2.708 -0.2750 -0.8999 -0.7276
  5274G12c C02Q97858  12.070   8.142   2.650 -0.3784 -0.6914 -0.0101
  5274G12c H01N97859  12.101   8.219   2.720  7.4909  4.2022 -7.8702
  5274G12c H01R97860  11.966   8.112   2.666 -3.3222  7.5946 -1.3764
  5274G12c H01Q97861  12.067   8.185   2.550  6.3288  6.0333  2.2786
  5274G12c C02A97862  11.960   7.928   2.858  1.2943 -1.0086  0.0497
  5274G12c H01197863  11.869   7.947   2.803  1.3800 -2.4824 -0.6252
  5274G12c C00C97864  11.418   7.798   3.015  0.0239 -0.1596  1.6916
  5274G12c H01297865  11.416   7.704   2.961  7.3464  2.8814 -4.8025
  5274G12c C00B97866  11.327   7.907   3.007  0.4003 -0.7853 -0.0215
  5274G12c C00A97867  11.220   7.934   2.902 -0.2991  1.7733  0.1419
  5274G12c C00997868  11.248   7.894   2.766  1.6861 -0.4091 -0.1053
  5274G12c C00897869  11.357   7.833   2.718 -0.3228 -1.3417 -2.0771
  5274G12c H01397870  11.409   7.767   2.786 -3.8209 -0.2433  1.8899
  5274G12c C00797871  11.388   7.820   2.583 -1.1210  0.3234  0.5767
  5274G12c H01497872  11.459   7.740   2.570 -3.2024 -1.0201 -3.0506
  5274G12c C00697873  11.349   7.918   2.492  0.1942  1.6640  0.6618
  5274G12c C00597874  11.274   8.018   2.552 -0.4948 -0.7609 -0.4906
  5274G12c C00497875  11.243   8.134   2.477 -0.2167 -0.8192 -0.0184
  5274G12c C00397876  11.180   8.229   2.553 -0.5437 -0.9977 -1.6775
  5274G12c C00297877  11.186   8.368   2.488  0.8627  1.9712 -2.1308
  5274G12c C00197878  11.132   8.494   2.533  2.2014 -1.0454  0.0645
  5274G12c C00M97879  11.164   8.558   2.656 -0.1947 -0.8442 -0.9423
  5274G12c C00L97880  11.185   8.481   2.779 -0.4928  0.3022 -2.1333
  5274G12c C00R97881  11.228   8.515   2.910 -0.2754  0.2035 -0.0430
  5274G12c C00Q97882  11.287   8.640   2.953 -2.2186  0.2009 -0.7318
  5274G12c C00V97883  11.359   8.635   3.075  0.0533 -0.3322 -1.3689
  5274G12c C00U97884  11.349   8.523   3.158 -1.5745 -0.2541  0.6297
  5274G12c C00T97885  11.270   8.409   3.128 -0.9235  0.3824  1.0152
  5274G12c C01697886  11.313   8.271   3.155 -0.1153 -0.8132  2.1213
  5274G12c C01597887  11.417   8.262   3.247  0.9146 -0.4624  1.3052
  5274G12c C01097888  11.477   8.379   3.301  1.9198  0.0311  0.0208
  5274G12c C01197889  11.593   8.349   3.378  0.4031 -0.5942  0.7702
  5274G12c H00597890  11.620   8.425   3.450  3.2601  1.7632 -2.6221
  5274G12c C01297891  11.655   8.219   3.392 -0.8785  0.3487  0.5076
  5274G12c C01797892  11.789   8.186   3.415 -2.1107  0.5947  0.6538
  5274G12c O00297893  11.825   8.088   3.499 -1.3270  0.6734  0.9030
  5274G12c H00497894  11.791   8.098   3.587 -4.4248 -2.3254  0.1917
  5274G12c C01897895  11.883   8.244   3.339  0.5363  0.1577  0.6938
  5274G12c O00197896  12.018   8.214   3.373  1.5342  0.0514  1.6273
  5274G12c H00397897  12.021   8.121   3.392  4.2134 -0.4142 -0.7096
  5274G12c C01997898  11.867   8.346   3.218  0.4133  0.1230 -2.4446
  5274G12c H00297899  11.810   8.436   3.242  2.5821  0.8681  0.1343
  5274G12c H00197900  11.962   8.393   3.245  0.3331 -1.5903  1.0885
  5274G12c O00097901  11.853   8.302   3.081  0.3526  0.5342 -1.7835
  5274G12c C01A97902  11.904   8.379   2.976  0.0272  0.1482  0.4867
  5274G12c C02K97903  11.838   8.409   2.843  1.3256  0.1598 -0.9887
  5274G12c O00G97904  11.718   8.373   2.789 -1.4458  0.5753 -1.1953
  5274G12c C02M97905  11.615   8.308   2.846  0.4801 -0.1106 -2.2419
  5274G12c H01G97906  11.570   8.351   2.936 -0.4071 -6.8237  0.8487
  5274G12c H01F97907  11.653   8.206   2.855 -1.2561 -1.4213 -7.8427
  5274G12c H01E97908  11.545   8.320   2.764 -0.0764  3.4526 -1.3244
  5274G12c C02J97909  11.922   8.444   2.730  0.1789 -1.3662  0.8995
  5274G12c H01H97910  11.874   8.446   2.634 -0.9065  4.4778  1.3819
  5274G12c C02I97911  12.040   8.519   2.746 -0.1012  0.7508  1.0334
  5274G12c C02N97912  12.112   8.571   2.626  0.1786 -0.7496  1.0465
  5274G12c H01M97913  12.071   8.608   2.534 -0.8691 -1.3938  1.2421
  5274G12c C02O97914  12.256   8.557   2.615  0.4376 -1.2933 -0.0793
  5274G12c H01L97915  12.322   8.523   2.693 -2.7884  0.2900  3.5479
  5274G12c C02P97916  12.327   8.609   2.487 -1.1652 -0.0862  1.3448
  5274G12c H01K97917  12.304   8.702   2.434 -1.7950 -2.1073 -2.1239
  5274G12c H01J97918  12.428   8.622   2.526 -0.9781 -3.0563  1.9746
  5274G12c O00H97919  12.307   8.528   2.372 -0.3004 -1.2245  1.9259
  5274G12c H01I97920  12.303   8.435   2.388  0.5839 -1.2648  1.8956
  5274G12c C02H97921  12.097   8.503   2.873 -0.3300 -0.5451 -0.2130
  5274G12c H01C97922  12.161   8.577   2.919 -5.4898  2.2488  3.0708
  5274G12c C02L97923  12.041   8.423   2.985 -0.5883  0.5147 -1.0628
  5274G12c H01D97924  12.115   8.398   3.061  3.1504  6.0942 -2.6066
  5274G12c C01397925  11.569   8.116   3.365  0.0383 -0.1936  0.7348
  5274G12c H00097926  11.624   8.029   3.397 -5.1902 -2.5864  3.8657
  5274G12c C01497927  11.463   8.129   3.272  1.1192  0.8511  0.3703
  5274G12c C00F97928  11.427   8.009   3.204  0.2339 -0.9785  0.9776
  5274G12c C00H97929  11.277   8.160   3.078 -0.1887 -0.5404 -1.0140
  5274G12c C00I97930  11.187   8.169   2.970 -0.9957 -0.8906 -1.2170
  5274G12c C00J97931  11.183   8.308   2.927 -0.3694  0.2398  0.0204
  5274G12c C00Z97932  11.437   8.507   3.261 -0.0877 -0.3935 -0.2448
  5274G12c C00Y97933  11.507   8.626   3.301  0.8108  1.6430 -1.8517
  5274G12c H00697934  11.589   8.602   3.367  4.9887  1.8921 -6.6085
  5274G12c C00X97935  11.497   8.748   3.237  0.3567 -0.3168 -1.2420
  5274G12c O00397936  11.587   8.846   3.270  0.9097 -1.3010  0.3676
  5274G12c C01B97937  11.560   8.943   3.367  0.6906 -0.9221  1.6353
  5274G12c H00997938  11.528   8.868   3.439 -4.2244  1.0238  1.6288
  5274G12c H00897939  11.496   9.025   3.337  1.8275 -1.9659 -4.2033
  5274G12c H00797940  11.665   8.972   3.372  0.1139  1.6184 -0.3020
  5274G12c C00W97941  11.412   8.763   3.129  0.6302 -0.5201 -0.5732
  5274G12c O00497942  11.429   8.882   3.062  0.3325  0.0209 -0.1827
  5274G12c C01C97943  11.356   8.876   2.941  2.4522  0.5226  0.9375
  5274G12c H00A97944  11.261   8.921   2.966  0.9551 -1.1102 -1.5938
  5274G12c C00P97945  11.321   8.754   2.868 -1.2118  0.8407 -0.4905
  5274G12c C00O97946  11.303   8.769   2.732  1.2157 -1.5002 -0.3960
  5274G12c C01D97947  11.355   8.887   2.665 -0.2278 -1.7383 -1.7669
  5274G12c H00S97948  11.414   8.956   2.724 -5.3665 -0.1624  1.8908
  5274G12c C01E97949  11.362   8.882   2.521  1.0901  0.4895 -2.1140
  5274G12c O00897950  11.447   8.985   2.469 -0.2645  0.7406  0.3494
  5274G12c C01V97951  11.389   9.105   2.466  1.3310 -0.6311 -0.1445
  5274G12c C01Z97952  11.248   9.136   2.408 -0.0909 -0.4845 -0.6542
  5274G12c H00R97953  11.197   9.042   2.429 -0.8274 -0.2829 -1.5010
  5274G12c H00Q97954  11.195   9.219   2.454  3.5735  0.1142  2.7840
  5274G12c O00997955  11.253   9.189   2.271  0.9778  1.2294 -0.3602
  5274G12c H00P97956  11.307   9.149   2.204 -2.5179 -3.1262 -0.8452
  5274G12c C01W97957  11.481   9.209   2.500  0.4799  0.3245  1.0535
  5274G12c H00O97958  11.581   9.171   2.519  0.3560 -0.3946  0.3020
  5274G12c C01X97959  11.452   9.353   2.495  0.4465  0.1278 -0.8415
  5274G12c H00N97960  11.539   9.417   2.476 -1.3350  5.2650  6.3277
  5274G12c H00M97961  11.381   9.345   2.412 -1.1334 -0.7205  0.5703
  5274G12c C01Y97962  11.364   9.421   2.620 -1.0201 -1.0888 -1.0330
  5274G12c C02D97963  11.245   9.486   2.623 -0.5147  0.2902  0.6576
  5274G12c H01997964  11.228   9.528   2.525  0.8565 -2.9810 -1.0178
  5274G12c C02C97965  11.162   9.499   2.735 -0.1625 -0.0459  0.4719
  5274G12c H01A97966  11.055   9.509   2.739  0.1325  4.5881 -0.1363
  5274G12c C02B97967  11.212   9.486   2.850 -0.7560  2.5076 -1.3475
  5274G12c O00E97968  11.134   9.452   2.958 -1.6151  0.7030  0.9618
  5274G12c H01B97969  11.181   9.392   3.014  0.1400  2.0082  0.9399
  5274G12c C02F97970  11.350   9.449   2.876  0.1759 -1.7035  1.1255
  5274G12c O00F97971  11.391   9.490   3.009 -0.4772 -0.0406  0.8380
  5274G12c C02G97972  11.472   9.392   3.063 -1.0770  0.5327  0.8645
  5274G12c H01797973  11.524   9.355   2.974  2.6032 -2.7600  4.1885
  5274G12c H01697974  11.403   9.322   3.109 -0.5013  0.4006  1.5249
  5274G12c H01597975  11.536   9.404   3.150 -2.1811  1.6062  1.5429
  5274G12c C02E97976  11.418   9.430   2.748 -0.0799  1.0677 -0.2199
  5274G12c H01897977  11.523   9.453   2.736  1.6704 -5.0927  1.5503
  5274G12c C01F97978  11.318   8.769   2.452 -0.7021  0.9079  0.8085
  5274G12c C01G97979  11.374   8.736   2.315  0.0030 -2.4788 -1.7449
  5274G12c H00L97980  11.448   8.798   2.266  0.4097 -0.9949  0.6220
  5274G12c C01H97981  11.354   8.599   2.278 -0.9964  0.7302 -1.2669
  5274G12c H00B97982  11.341   8.625   2.174 -1.1603  2.9991 -0.7090
  5274G12c C01I97983  11.258   8.520   2.333  1.9640 -0.7840 -0.5970
  5274G12c C01U97984  11.213   8.708   2.515  0.7388 -1.4549  1.8149
  5274G12c C00S97985  11.213   8.420   2.996 -0.3949 -1.5348  0.3168
  5274G12c C00K97986  11.170   8.341   2.784 -1.0928  0.2888  0.0570
  5274G12c C00N97987  11.216   8.696   2.648 -0.2711 -0.0960 -2.3170
  5274G12c C00097988  11.174   8.590   2.436  0.0848  0.6064 -0.0791
  5274G12c C01J97989  11.233   8.384   2.342 -0.8508 -0.9866  0.3586
  5274G12c C01K97990  11.263   8.268   2.267 -0.4344  0.3836  1.2741
  5274G12c C01P97991  11.293   8.249   2.125 -0.4990  0.8249 -0.0172
  5274G12c C01Q97992  11.285   8.356   2.026 -1.9286 -0.2706 -2.1499
  5274G12c H00G97993  11.317   8.456   2.051  1.7977 -2.1453  1.3522
  5274G12c C01R97994  11.216   8.344   1.917  0.0657 -0.6111  0.3811
  5274G12c H00F97995  11.157   8.256   1.898 -2.8962  1.9325 -3.0493
  5274G12c C01S97996  11.174   8.474   1.857  0.3966  0.5326 -0.0488
  5274G12c H00E97997  11.107   8.487   1.772 -3.5485  4.0879  3.3366
  5274G12c H00D97998  11.115   8.539   1.922 -3.1351  2.2549 -4.6833
  5274G12c O00597999  11.303   8.550   1.845  1.7433  1.1130  0.3070
  5274G12c H00C98000  11.281   8.614   1.778  0.9532  2.1306  1.5096
  5274G12c C01O98001  11.345   8.141   2.066  0.0326  0.5797  0.9908
  5274G12c H00H98002  11.365   8.136   1.960 -4.0502  4.9458 -0.1421
  5274G12c C01N98003  11.378   8.043   2.144 -0.8991 -0.7994 -0.7103
  5274G12c O00698004  11.457   7.933   2.118 -0.5422  0.2808  0.4482
  5274G12c C01T98005  11.436   7.882   1.985 -0.2252 -0.4331  0.8627
  5274G12c H00K98006  11.486   7.787   2.003  2.2788  0.6045 -0.4903
  5274G12c H00J98007  11.337   7.859   1.946 -1.8825  0.8483  4.0850
  5274G12c H00I98008  11.501   7.945   1.924  1.4325 -2.8578  0.0646
  5274G12c C01M98009  11.335   8.027   2.283  1.3373  0.1112 -0.2397
  5274G12c C02098010  11.168   8.222   2.701  1.7409 -1.6467 -0.9218
  5274G12c C02198011  11.138   8.088   2.747  0.0170  0.6696  1.8089
  5274G12c C01L98012  11.266   8.152   2.342  3.1568  0.1104  0.7512
  5274G12c O00798013  11.385   7.920   2.361 -0.3665 -0.6116 -0.8788
  5274G12c C02298014  11.197   7.991   2.680 -0.1446  0.2809  1.1551
  5274G12c C02398015  11.179   8.063   2.880  0.7135  0.8136 -1.7974
  5274G12c C00G98016  11.333   8.022   3.097 -1.0340 -1.6338 -0.7507
  5274G12c C00E98017  11.494   7.886   3.215 -1.1707  0.2300 -1.8351
  5274G12c O00A98018  11.530   7.859   3.351  0.7608  0.8599 -0.1376
  5274G12c C02498019  11.630   7.751   3.360 -0.5356 -0.2548  0.4230
  5274G12c H00V98020  11.655   7.738   3.465  3.4389  0.7833 -0.3063
  5274G12c H00U98021  11.692   7.827   3.312 -0.2805  0.7543  2.3143
  5274G12c H00T98022  11.618   7.654   3.311  7.2049  0.5100 -3.8629
  5284G12c C00D98023   4.892   0.997   5.026  0.0479 -0.5041 -0.7410
  5284G12c O00B98024   4.840   0.888   4.997  1.7426 -0.1534  0.0331
  5284G12c C02598025   4.717   0.856   5.063 -0.1923  0.4605  1.9380
  5284G12c C02698026   4.720   0.724   5.124 -0.7837  0.4843 -0.6904
  5284G12c H00Y98027   4.661   0.675   5.046  3.8293 -1.1082 -3.3459
  5284G12c H00X98028   4.671   0.709   5.220  5.4008  3.1955  3.2000
  5284G12c O00C98029   4.853   0.681   5.102  0.0915 -1.7493 -0.2902
  5284G12c H00W98030   4.902   0.748   5.057 -4.4028  2.6789  0.8561
  5284G12c C02798031   4.598   0.922   5.054 -1.4357  0.6721 -0.3224
  5284G12c O00D98032   4.567   1.029   4.976  1.3205  2.1331 -1.8645
  5284G12c H00Z98033   4.474   1.044   4.986  0.3746 -3.4773 -0.4504
  5284G12c C02898034   4.506   0.890   5.171 -0.2542  0.1469 -0.2707
  5284G12c C02998035   4.511   0.962   5.278  0.1817 -0.4349 -0.2351
  5284G12c H01098036   4.611   0.999   5.297  0.8612 -2.6532  0.6652
  5284G12c C02T98037   4.381   0.981   5.364 -0.1723 -0.1132  0.4574
  5284G12c H01O98038   4.384   1.052   5.446  1.5567 -0.4770  0.7215
  5284G12c C02S98039   4.282   0.876   5.356  0.9623  1.3120 -0.9778
  5284G12c O00J98040   4.188   0.852   5.447 -2.8028  1.1141  0.7625
  5284G12c H01P98041   4.106   0.826   5.409 -1.7883 -0.2413 -0.5195
  5284G12c C02R98042   4.301   0.782   5.251 -0.7775 -0.4060  1.0598
  5284G12c O00I98043   4.184   0.705   5.240  0.8433  0.0856 -0.8282
  5284G12c C02Q98044   4.153   0.640   5.103  2.0346  0.7779 -0.8832
  5284G12c H01N98045   4.096   0.709   5.042 -5.5484 -3.3472  0.8944
  5284G12c H01R98046   4.067   0.575   5.119  0.5191  2.9756  0.1464
  5284G12c H01Q98047   4.231   0.580   5.055  0.1085 -1.7819 -0.9186
  5284G12c C02A98048   4.381   0.820   5.143 -0.9237  0.1322  0.4499
  5284G12c H01198049   4.370   0.767   5.049 -0.3351 -2.5859  1.8707
  5284G12c C00C98050   4.948   1.026   5.164 -0.1088  2.1660  0.1834
  5284G12c H01298051   4.945   0.946   5.237  0.3047  2.1371  0.1684
  5284G12c C00B98052   5.030   1.135   5.199 -0.9096 -2.0023  1.5578
  5284G12c C00A98053   5.089   1.177   5.325 -1.2141 -1.3590  0.5074
  5284G12c C00998054   5.040   1.165   5.463 -0.9488  0.3271  3.2555
  5284G12c C00898055   4.931   1.128   5.533  1.6398  0.4126 -1.0397
  5284G12c H01398056   4.865   1.059   5.483  5.0080 -2.1109 -2.1838
  5284G12c C00798057   4.887   1.193   5.645  1.4619 -1.5863 -0.3976
  5284G12c H01498058   4.783   1.181   5.670 -0.4111  0.4245 -6.4529
  5284G12c C00698059   4.991   1.257   5.716  1.5231 -0.7833 -1.7595
  5284G12c C00598060   5.110   1.289   5.655  0.6948 -1.5001  0.6458
  5284G12c C00498061   5.173   1.408   5.696  1.1564  1.3817 -1.6314
  5284G12c C00398062   5.251   1.486   5.607 -0.3716 -0.2301 -0.0681
  5284G12c C00298063   5.325   1.594   5.651 -0.3824 -1.0430 -0.8204
  5284G12c C00198064   5.413   1.694   5.585  0.3249  0.2671  0.1465
  5284G12c C00M98065   5.393   1.758   5.447 -1.0899 -1.2734 -0.7382
  5284G12c C00L98066   5.349   1.665   5.354 -0.1207 -0.4014  0.2732
  5284G12c C00R98067   5.289   1.693   5.227  1.9835  0.4357 -1.0424
  5284G12c C00Q98068   5.265   1.811   5.167 -0.9912  0.5300  1.3855
  5284G12c C00V98069   5.213   1.811   5.042  1.0496  0.7202  1.0076
  5284G12c C00U98070   5.195   1.685   4.976 -0.1306  0.5809  1.1685
  5284G12c C00T98071   5.202   1.558   5.047 -0.5242  0.1066 -0.8516
  5284G12c C01698072   5.151   1.434   5.017 -0.5880 -0.5868 -0.6538
  5284G12c C01598073   5.104   1.419   4.889 -1.2804  0.6829 -0.3985
  5284G12c C01098074   5.132   1.528   4.799  0.5360  0.5869  0.6632
  5284G12c C01198075   5.077   1.525   4.668 -0.8963  0.2046  0.1842
  5284G12c H00598076   5.064   1.590   4.583 -2.6173  1.9729  1.7341
  5284G12c C01298077   5.045   1.389   4.636  0.6668  0.3373  0.9487
  5284G12c C01798078   5.017   1.360   4.503  0.1200 -0.2823  1.4330
  5284G12c O00298079   4.922   1.434   4.448  0.0397  0.3459  0.9135
  5284G12c H00498080   4.919   1.405   4.359  5.1578 -0.8447  0.9970
  5284G12c C01898081   5.070   1.269   4.426 -0.7244  0.0248 -0.1435
  5284G12c O00198082   5.198   1.222   4.447 -0.2635 -0.1143 -0.7886
  5284G12c H00398083   5.239   1.276   4.512  2.8799  3.0304 -5.0848
  5284G12c C01998084   5.031   1.244   4.285  0.1649  1.0003 -1.0187
  5284G12c H00298085   5.102   1.315   4.244 -0.2907  2.1405  0.1438
  5284G12c H00198086   5.075   1.150   4.250 -2.2927 -0.2737 -0.8450
  5284G12c O00098087   4.910   1.281   4.239  0.7398 -2.4373  0.9933
  5284G12c C01A98088   4.825   1.179   4.243 -0.4839  0.3848 -1.1788
  5284G12c C02K98089   4.682   1.216   4.234 -0.2766  0.5040 -0.3960
  5284G12c O00G98090   4.647   1.358   4.233 -0.9749  0.7326  0.8000
  5284G12c C02M98091   4.552   1.411   4.317 -0.3002  0.0617 -0.1530
  5284G12c H01G98092   4.448   1.381   4.326  0.0802 -1.0176  0.6340
  5284G12c H01F98093   4.549   1.509   4.268 -1.8262 -0.9794 -2.2274
  5284G12c H01E98094   4.588   1.427   4.418  1.0651  0.1932 -0.6438
  5284G12c C02J98095   4.576   1.109   4.218 -1.1231 -2.1370 -0.1912
  5284G12c H01H98096   4.483   1.162   4.202 -2.2046 -3.7963  0.4990
  5284G12c C02I98097   4.602   0.972   4.185  0.8434 -1.2902 -0.3018
  5284G12c C02N98098   4.511   0.872   4.130  0.1566 -0.7347  0.9151
  5284G12c H01M98099   4.499   0.865   4.022 -1.2862  0.0230  1.0062
  5284G12c C02O98100   4.414   0.821   4.199 -2.0202 -0.2788 -0.1546
  5284G12c H01L98101   4.349   0.779   4.125  1.9668 -0.1027 -3.9461
  5284G12c C02P98102   4.418   0.822   4.362  1.3646 -0.0852 -0.6589
  5284G12c H01K98103   4.404   0.740   4.432  5.7655 -2.7316 -2.6794
  5284G12c H01J98104   4.523   0.843   4.382  2.4822 -2.6386 -3.4677
  5284G12c O00H98105   4.341   0.953   4.402 -0.1317  0.8391  1.3413
  5284G12c H01I98106   4.252   0.965   4.375  1.3675  3.1949 -2.9495
  5284G12c C02H98107   4.741   0.954   4.205  0.6905  0.3097  0.8825
  5284G12c H01C98108   4.784   0.862   4.168 -3.7817 -3.0668  3.4236
  5284G12c C02L98109   4.839   1.037   4.222 -1.1880 -0.5805  1.7345
  5284G12c H01D98110   4.937   1.001   4.195 -4.6745 -9.1573 -1.1023
  5284G12c C01398111   5.032   1.281   4.711 -0.9347 -0.4774  1.8308
  5284G12c H00098112   5.023   1.181   4.670 -0.0983  2.1207 -5.5832
  5284G12c C01498113   5.054   1.290   4.848  0.6215 -0.4005  1.2661
  5284G12c C00F98114   5.019   1.196   4.943 -1.8071  0.1807  0.0334
  5284G12c C00H98115   5.154   1.323   5.101  0.1549 -0.3469 -1.0150
  5284G12c C00I98116   5.231   1.338   5.223  0.3572 -0.3783 -0.1717
  5284G12c C00J98117   5.284   1.468   5.240 -1.7105  0.6561 -1.8938
  5284G12c C00Z98118   5.158   1.671   4.854  1.0043  0.0284  0.8719
  5284G12c C00Y98119   5.175   1.787   4.773  0.8132  0.1814 -0.3076
  5284G12c H00698120   5.145   1.784   4.669 -3.4457  2.9656  0.6982
  5284G12c C00X98121   5.152   1.912   4.829  0.2514 -0.1126  0.0900
  5284G12c O00398122   5.145   2.015   4.745 -0.0264 -0.7780 -1.1968
  5284G12c C01B98123   5.260   2.044   4.666 -0.7545 -1.3529  0.9054
  5284G12c H00998124   5.259   2.151   4.689 -2.5402  0.4395 -6.2186
  5284G12c H00898125   5.352   1.985   4.669  2.7240  3.6663 -0.5586
  5284G12c H00798126   5.270   2.056   4.559 -3.8001 -3.0969  0.3681
  5284G12c C00W98127   5.172   1.928   4.963 -0.2663  0.5618 -0.9453
  5284G12c O00498128   5.159   2.051   5.025  0.8201  0.4462  0.8873
  5284G12c C01C98129   5.138   2.022   5.149  0.9799 -1.0215 -0.7281
  5284G12c H00A98130   5.059   2.062   5.211  4.9787  4.4212  1.2997
  5284G12c C00P98131   5.246   1.944   5.221 -1.1267 -1.9046 -0.4319
  5284G12c C00O98132   5.286   1.986   5.362 -1.7034  1.1620 -1.2370
  5284G12c C01D98133   5.235   2.099   5.417 -1.6875 -0.6603 -0.5422
  5284G12c H00S98134   5.184   2.178   5.364 -4.8958 -1.8321  0.6639
  5284G12c C01E98135   5.221   2.135   5.555  0.2060  0.3252 -1.1698
  5284G12c O00898136   5.169   2.252   5.607  0.7813  0.4056 -0.0198
  5284G12c C01V98137   5.212   2.377   5.572  0.1873 -0.3104 -0.6873
  5284G12c C01Z98138   5.083   2.471   5.554  1.3303  0.6571  1.0331
  5284G12c H00R98139   5.033   2.501   5.646 -0.4036 -4.7114  1.9903
  5284G12c H00Q98140   5.134   2.551   5.499 -1.4643  2.0235  0.3659
  5284G12c O00998141   4.969   2.442   5.493  0.3321  1.0453 -2.2642
  5284G12c H00P98142   4.927   2.364   5.528  2.5089  0.6443 -0.4150
  5284G12c C01W98143   5.330   2.428   5.588 -3.0184 -0.5085 -1.4319
  5284G12c H00O98144   5.418   2.368   5.606 -1.8119  0.9560 -2.2864
  5284G12c C01X98145   5.355   2.568   5.619  0.6183  1.6971  0.6028
  5284G12c H00N98146   5.274   2.640   5.611  3.9609  5.4461 -1.3549
  5284G12c H00M98147   5.358   2.580   5.727  5.5116  1.8467  0.5695
  5284G12c C01Y98148   5.456   2.614   5.519 -2.2228 -1.4711 -1.0632
  5284G12c C02D98149   5.570   2.710   5.550 -2.5465 -0.4145 -0.2709
  5284G12c H01998150   5.581   2.785   5.626 -3.4291  1.8307 -2.2907
  5284G12c C02C98151   5.662   2.736   5.440 -0.9252  1.4623 -0.1246
  5284G12c H01A98152   5.730   2.811   5.477  3.3609 -2.1372 -0.3845
  5284G12c C02B98153   5.654   2.670   5.325 -1.7091  1.1022  0.9922
  5284G12c O00E98154   5.762   2.662   5.245 -0.7924  0.9996 -0.4632
  5284G12c H01B98155   5.768   2.584   5.192  4.2797  0.4677  0.6841
  5284G12c C02F98156   5.553   2.577   5.302  0.2469 -0.3121  0.0161
  5284G12c O00F98157   5.576   2.484   5.205 -1.0115  1.1447 -2.1027
  5284G12c C02G98158   5.613   2.341   5.257  0.2609 -0.8000 -1.7536
  5284G12c H01798159   5.526   2.286   5.294  0.0212 -6.4621 -9.6386
  5284G12c H01698160   5.689   2.319   5.331  1.9717 -3.4766 -4.2091
  5284G12c H01598161   5.676   2.329   5.170  2.7630 -1.1700  0.0561
  5284G12c C02E98162   5.448   2.563   5.386 -0.8516 -0.3451 -1.9587
  5284G12c H01898163   5.379   2.490   5.349 -2.8752 -0.4624  1.8123
  5284G12c C01F98164   5.254   2.017   5.645  0.6784  1.0379  3.4661
  5284G12c C01G98165   5.199   1.997   5.778 -0.0105  0.5857  0.3138
  5284G12c H00L98166   5.137   2.071   5.826  1.2606  2.0783 -0.2995
  5284G12c C01H98167   5.242   1.872   5.856  1.0024 -1.2953  0.0746
  5284G12c H00B98168   5.170   1.858   5.935  1.3297  4.8556  1.7071
  5284G12c C01I98169   5.317   1.782   5.791  1.0973 -0.9727 -0.0646
  5284G12c C01U98170   5.324   1.912   5.592 -1.5683  0.2431  0.0506
  5284G12c C00S98171   5.284   1.567   5.149 -1.3543 -1.3206 -0.5623
  5284G12c C00K98172   5.307   1.531   5.370  1.2267  0.3182  0.0264
  5284G12c C00N98173   5.342   1.892   5.456 -0.0664  0.1819  0.0337
  5284G12c C00098174   5.389   1.819   5.673  0.6357 -0.6231  0.9388
  5284G12c C01J98175   5.291   1.634   5.783  0.9802  0.2389  1.7558
  5284G12c C01K98176   5.205   1.573   5.873 -0.2449  1.5937 -0.1714
  5284G12c C01P98177   5.186   1.604   6.008 -1.9741  1.5456  1.7603
  5284G12c C01Q98178   5.271   1.686   6.101  0.2152  0.4175 -1.2471
  5284G12c H00G98179   5.229   1.742   6.184 -0.9111  6.6593 -5.6276
  5284G12c C01R98180   5.397   1.726   6.092 -0.5319 -1.9691  0.0618
  5284G12c H00F98181   5.456   1.717   6.002 -4.6025 -0.2183 -2.9192
  5284G12c C01S98182   5.468   1.821   6.191 -0.2879  1.9750 -0.4907
  5284G12c H00E98183   5.521   1.906   6.150 -1.0220  1.6699 -2.1381
  5284G12c H00D98184   5.385   1.868   6.244 -0.6892  1.0056 -0.2265
  5284G12c O00598185   5.550   1.772   6.277 -0.0831 -0.0809  1.8562
  5284G12c H00C98186   5.640   1.742   6.267 -1.4856 -3.1497 -3.6828
  5284G12c C01O98187   5.060   1.557   6.054 -0.2444 -0.5100 -0.7086
  5284G12c H00H98188   5.027   1.608   6.143 -1.3869  0.5350 -1.7270
  5284G12c C01N98189   4.983   1.458   6.002 -0.8044 -0.7915  0.7401
  5284G12c O00698190   4.884   1.381   6.064  0.4466 -0.3720 -0.3263
  5284G12c C01T98191   4.789   1.440   6.155  1.4678  0.4101  2.8835
  5284G12c H00K98192   4.758   1.515   6.083  3.3399 -2.6472 -1.3318
  5284G12c H00J98193   4.830   1.485   6.246  6.5563  6.2984 -1.9125
  5284G12c H00I98194   4.713   1.365   6.177  2.9480 -1.5803  1.3916
  5284G12c C01M98195   5.024   1.398   5.886 -1.7150 -0.6971  2.4664
  5284G12c C02098196   5.274   1.440   5.478  2.0482 -1.3807  0.7874
  5284G12c C02198197   5.225   1.308   5.456 -0.3988 -0.4734  0.4010
  5284G12c C01L98198   5.135   1.463   5.825  1.0594  1.5121  1.0374
  5284G12c O00798199   4.948   1.313   5.838 -0.8144  1.0366  0.6377
  5284G12c C02298200   5.145   1.231   5.534  0.3036 -0.4868  0.2508
  5284G12c C02398201   5.212   1.249   5.326 -1.3218  0.3534 -0.1772
  5284G12c C00G98202   5.074   1.214   5.081 -0.9119 -1.3209 -0.8034
  5284G12c C00E98203   4.933   1.081   4.928  0.7920 -1.7796  0.9645
  5284G12c O00A98204   4.890   1.048   4.801  1.0193  1.7957 -0.2984
  5284G12c C02498205   4.863   0.924   4.742 -0.9291 -1.1350  1.2517
  5284G12c H00V98206   4.855   0.932   4.634 -3.2391 -1.0109  1.4060
  5284G12c H00U98207   4.754   0.918   4.746 -1.0817  1.8519  4.4856
  5284G12c H00T98208   4.919   0.845   4.793  1.7487  1.0961  1.9174
  5294G12c C00D98209   8.005   9.986   4.567 -0.9343  1.3553 -1.7090
  5294G12c O00B98210   8.119   9.920   4.616  1.4930  0.4593 -0.9776
  5294G12c C02598211   8.109   9.776   4.622 -1.0081  1.3559 -0.6161
  5294G12c C02698212   8.131   9.680   4.495 -0.0031  0.4477  2.2583
  5294G12c H00Y98213   8.224   9.624   4.496  1.0179  1.9953 -0.9500
  5294G12c H00X98214   8.129   9.746   4.409  4.7262 -2.8770 -0.6535
  5294G12c O00C98215   8.047   9.563   4.508 -0.7874 -0.5879  0.3952
  5294G12c H00W98216   8.119   9.504   4.524  1.0964  1.9606  1.5341
  5294G12c C02798217   8.149   9.740   4.735  2.3684 -0.4234 -0.7051
  5294G12c O00D98218   8.133   9.841   4.830  1.5315 -0.6568 -1.7034
  5294G12c H00Z98219   8.145   9.934   4.828  2.2392 -0.7531 -2.6298
  5294G12c C02898220   8.167   9.603   4.769 -0.3465  1.7350  0.4677
  5294G12c C02998221   8.058   9.516   4.790 -0.9008  1.5812  0.6733
  5294G12c H01098222   7.956   9.549   4.770 -2.4942 -1.4831  3.3912
  5294G12c C02T98223   8.088   9.380   4.818  0.6955  1.1338 -0.5595
  5294G12c H01O98224   8.004   9.326   4.860  1.7686  0.0699  0.2625
  5294G12c C02S98225   8.218   9.338   4.837 -0.4287  0.5359 -1.3702
  5294G12c O00J98226   8.238   9.212   4.821 -0.2048  0.0214  0.1133
  5294G12c H01P98227   8.322   9.174   4.801  1.0649  1.5051  2.3345
  5294G12c C02R98228   8.330   9.422   4.804 -0.3424  0.2818  0.0052
  5294G12c O00I98229   8.440   9.374   4.859 -0.3825  0.8823 -0.3241
  5294G12c C02Q98230   8.460   9.394   5.008 -1.0321 -1.2801  0.2148
  5294G12c H01N98231   8.553   9.437   5.044  0.3950 -3.4627 -0.7759
  5294G12c H01R98232   8.424   9.332   5.090 -0.8780 -3.5728 -1.3835
  5294G12c H01Q98233   8.438   9.496   5.038 -1.4256 -2.3895  3.9224
  5294G12c C02A98234   8.310   9.567   4.799  0.6445 -0.9256  1.7266
  5294G12c H01198235   8.394   9.634   4.808  1.6656 -0.9010 -5.2899
  5294G12c C00C98236   7.881   9.929   4.575  1.2011  1.6089  0.7508
  5294G12c H01298237   7.876   9.822   4.593 -2.3155  1.4878 -0.5416
  5294G12c C00B98238   7.760   9.991   4.553  0.5862  0.5531  1.7177
  5294G12c C00A98239   7.633   9.920   4.540  0.1629 -0.1763 -0.5293
  5294G12c C00998240   7.608   9.791   4.487  0.2208  0.3227  0.0759
  5294G12c C00898241   7.705   9.710   4.431 -0.8937  1.2448 -0.5447
  5294G12c H01398242   7.806   9.676   4.450 -1.3683 -2.2401 -3.6594
  5294G12c C00798243   7.661   9.612   4.335 -0.9657  0.9404 -0.7717
  5294G12c H01498244   7.723   9.532   4.299  1.5031  4.1688 -4.0900
  5294G12c C00698245   7.541   9.623   4.268 -0.8452 -1.1191 -1.0727
  5294G12c C00598246   7.450   9.713   4.315  0.4256  1.4824  0.3121
  5294G12c C00498247   7.334   9.750   4.237  0.5992  0.4196  0.5007
  5294G12c C00398248   7.275   9.874   4.259  0.0458  0.3684 -0.5459
  5294G12c C00298249   7.181   9.911   4.158  0.6189  2.3346  1.3134
  5294G12c C00198250   7.113  10.037   4.115 -0.8301 -1.0980  1.4775
  5294G12c C00M98251   7.165  10.166   4.102 -0.5436 -0.5778 -2.1521
  5294G12c C00L98252   7.257  10.211   4.209  0.5289 -0.2556  0.1795
  5294G12c C00R98253   7.363  10.307   4.183  0.1656  0.3385 -0.2318
  5294G12c C00Q98254   7.405  10.376   4.059  0.2399 -0.2255  0.2104
  5294G12c C00V98255   7.489  10.488   4.085 -1.2794  0.8748 -0.1842
  5294G12c C00U98256   7.600  10.461   4.183 -0.0206  0.2006 -0.2907
  5294G12c C00T98257   7.586  10.364   4.284 -0.1629 -0.7578 -1.1698
  5294G12c C01698258   7.676  10.315   4.375  1.0940  2.7621  0.9071
  5294G12c C01598259   7.802  10.383   4.372  1.8416 -2.0806 -1.0515
  5294G12c C01098260   7.815  10.503   4.295  0.3641 -0.5397 -0.5252
  5294G12c C01198261   7.955  10.572   4.306 -0.3402 -0.3731  1.3465
  5294G12c H00598262   7.962  10.674   4.271 -4.8379 -1.2459 -2.5229
  5294G12c C01298263   8.055  10.498   4.378 -1.8741 -0.8583  1.4237
  5294G12c C01798264   8.180  10.552   4.393  1.4262  0.2051  0.1754
  5294G12c O00298265   8.220  10.565   4.530  0.9062  0.9011  0.4441
  5294G12c H00498266   8.306  10.604   4.542 -0.3987  2.7904  4.1896
  5294G12c C01898267   8.270  10.573   4.297 -0.7542  0.2863 -0.6577
  5294G12c O00198268   8.221  10.523   4.167  0.1165 -1.5259  1.0578
  5294G12c H00398269   8.144  10.478   4.198  2.1928 -5.0542  1.3391
  5294G12c C01998270   8.382  10.656   4.296 -1.6440 -2.3451  0.6732
  5294G12c H00298271   8.442  10.620   4.379  1.0968  1.2989  0.4226
  5294G12c H00198272   8.447  10.643   4.209 -3.8638  3.4011 -2.1543
  5294G12c O00098273   8.366  10.798   4.265 -0.2992  0.2555 -0.2948
  5294G12c C01A98274   8.253  10.854   4.303 -1.0057 -0.1107 -0.3549
  5294G12c C02K98275   8.228  10.898   4.434 -0.0104  0.7328  1.4266
  5294G12c O00G98276   8.319  10.874   4.515  0.2336 -0.0165 -0.1898
  5294G12c C02M98277   8.399  10.998   4.518  0.9700  0.2582  0.3707
  5294G12c H01G98278   8.321  11.074   4.527 -1.9911 -1.6983 -5.7950
  5294G12c H01F98279   8.447  11.006   4.420 -0.6137 -1.2099 -0.5493
  5294G12c H01E98280   8.482  11.015   4.586  4.8254  0.5470 -4.1001
  5294G12c C02J98281   8.110  10.943   4.477  0.9058 -1.3063  0.1008
  5294G12c H01H98282   8.077  10.944   4.579 -1.9871 -4.3693 -0.7239
  5294G12c C02I98283   8.012  10.969   4.389  1.1586  2.1553  0.3797
  5294G12c C02N98284   7.897  11.028   4.448  0.6041  0.8997 -1.4594
  5294G12c H01M98285   7.913  11.091   4.534  0.8419 -2.4807  1.0598
  5294G12c C02O98286   7.758  11.008   4.413 -0.5932  0.2180  0.0519
  5294G12c H01L98287   7.738  10.944   4.327  1.4209 -0.1658 -0.1449
  5294G12c C02P98288   7.624  11.072   4.465 -1.0304  1.4972  1.4220
  5294G12c H01K98289   7.561  11.094   4.379 -0.3612 -2.1870 -0.1183
  5294G12c H01J98290   7.560  10.990   4.498  3.5292 -3.2361 -0.7144
  5294G12c O00H98291   7.646  11.152   4.569 -0.7523  0.6650 -1.2345
  5294G12c H01I98292   7.603  11.109   4.642 -2.0697  0.0392 -2.3410
  5294G12c C02H98293   8.024  10.941   4.257 -0.1389  0.3873 -0.4257
  5294G12c H01C98294   7.932  10.975   4.210 -4.2689 -5.0949  3.1400
  5294G12c C02L98295   8.137  10.863   4.210  1.5873  0.8911  0.2881
  5294G12c H01D98296   8.163  10.836   4.108 -0.0225  1.6111 -0.3395
  5294G12c C01398297   8.038  10.369   4.390  1.0951 -0.6569 -0.5108
  5294G12c H00098298   8.123  10.303   4.407  1.6246  0.5438  1.7091
  5294G12c C01498299   7.906  10.322   4.432  1.4505 -1.0120 -0.0369
  5294G12c C00F98300   7.895  10.186   4.482  0.5551  0.4338 -0.2494
  5294G12c C00H98301   7.664  10.185   4.432 -0.4986 -1.5531 -0.2326
  5294G12c C00I98302   7.533  10.128   4.439 -1.8860  1.8603 -0.3429
  5294G12c C00J98303   7.442  10.197   4.351  0.7655 -0.7838  1.6314
  5294G12c C00Z98304   7.699  10.556   4.219  0.0851  0.5861 -0.0502
  5294G12c C00Y98305   7.715  10.657   4.123  1.0869 -1.2570  0.0273
  5294G12c H00698306   7.801  10.721   4.137 -3.8162  5.6814  1.2719
  5294G12c C00X98307   7.632  10.686   4.010  0.0236  0.3966 -1.6710
  5294G12c O00398308   7.637  10.792   3.922 -0.2836 -0.7229 -0.1080
  5294G12c C01B98309   7.761  10.827   3.873 -0.6272  1.5810 -0.0795
  5294G12c H00998310   7.852  10.774   3.900  2.2257  3.3109 -5.7266
  5294G12c H00898311   7.789  10.864   3.775 -5.4156  2.9077 -1.0828
  5294G12c H00798312   7.797  10.915   3.926  2.2748 -3.9271  8.2525
  5294G12c C00W98313   7.529  10.585   3.980  0.0981  0.9377  1.5387
  5294G12c O00498314   7.492  10.573   3.852 -0.2727  0.1329 -0.5032
  5294G12c C01C98315   7.379  10.500   3.839  1.0939 -2.2663  0.7525
  5294G12c H00A98316   7.318  10.526   3.753 -0.9183 -0.3381  2.6862
  5294G12c C00P98317   7.341  10.388   3.930  0.8815  0.2832 -1.4241
  5294G12c C00O98318   7.248  10.289   3.881  0.9490  2.0871  1.3191
  5294G12c C01D98319   7.239  10.273   3.742  0.5679 -0.7455  0.2002
  5294G12c H00S98320   7.267  10.340   3.662  0.9631 -2.6598 -1.3275
  5294G12c C01E98321   7.187  10.161   3.676 -0.6216  1.6069  2.0897
  5294G12c O00898322   7.207  10.139   3.541  0.2393  0.2974 -0.8121
  5294G12c C01V98323   7.314  10.177   3.476 -1.4065  1.0455 -0.1349
  5294G12c C01Z98324   7.291  10.179   3.322  0.8704 -0.4580  0.8270
  5294G12c H00R98325   7.355  10.222   3.245 -2.3133  3.5274  0.2156
  5294G12c H00Q98326   7.291  10.070   3.320 -3.7100 -0.5586 -1.9953
  5294G12c O00998327   7.156  10.190   3.300  0.1852  1.3023 -0.6180
  5294G12c H00P98328   7.143  10.283   3.293  4.8167  1.8262 -6.4120
  5294G12c C01W98329   7.444  10.207   3.529  0.7088  0.5915 -0.7696
  5294G12c H00O98330   7.475  10.198   3.632 -1.7543  3.9345  0.3375
  5294G12c C01X98331   7.568  10.242   3.453 -0.1346  0.1789  0.4451
  5294G12c H00N98332   7.598  10.335   3.499  5.2026  1.8296 -5.6278
  5294G12c H00M98333   7.557  10.283   3.353  2.4686 -0.3718 -0.1017
  5294G12c C01Y98334   7.673  10.146   3.442 -1.1522  1.0989 -0.0568
  5294G12c C02D98335   7.645  10.031   3.371  0.7157  0.0027  0.3064
  5294G12c H01998336   7.541  10.027   3.345  1.3034  0.9550 -2.3969
  5294G12c C02C98337   7.716   9.915   3.384  0.3925  0.3583  0.2298
  5294G12c H01A98338   7.653   9.831   3.360  1.1779 -0.1795  0.0461
  5294G12c C02B98339   7.843   9.906   3.440  1.4104  0.0151  0.0334
  5294G12c O00E98340   7.931   9.808   3.384  0.4563 -1.6561  0.7350
  5294G12c H01B98341   7.974   9.830   3.302  6.1986 -3.2995  3.0253
  5294G12c C02F98342   7.890  10.020   3.492  0.8373 -0.8649  0.3129
  5294G12c O00F98343   8.034  10.031   3.489 -0.2219 -0.0011 -0.0115
  5294G12c C02G98344   8.122  10.152   3.540 -0.2746  0.8224 -0.5672
  5294G12c H01798345   8.213  10.102   3.506  0.9574  2.3429  0.4320
  5294G12c H01698346   8.113  10.160   3.648 -3.4309  5.0839 -1.0489
  5294G12c H01598347   8.113  10.255   3.505  3.4861  1.7670  0.9602
  5294G12c C02E98348   7.800  10.143   3.507  1.5705  0.9079  0.6077
  5294G12c H01898349   7.824  10.232   3.562  9.5342 -4.4806  7.0798
  5294G12c C01F98350   7.119  10.053   3.757  0.3246  0.5523 -0.7159
  5294G12c C01G98351   7.110   9.909   3.714 -0.9171  0.1963 -2.3211
  5294G12c H00L98352   7.131   9.873   3.614 -3.8042 -2.8056 -1.9109
  5294G12c C01H98353   7.071   9.807   3.820 -0.6960  1.0870  0.4777
  5294G12c H00B98354   7.118   9.712   3.795 -5.0156 -3.2388  7.1728
  5294G12c C01I98355   7.061   9.863   3.957 -1.7587 -2.1409 -0.7442
  5294G12c C01U98356   7.097  10.093   3.890 -0.1540 -0.4909 -0.7951
  5294G12c C00S98357   7.463  10.299   4.279 -0.2259 -1.1503 -0.3995
  5294G12c C00K98358   7.329  10.121   4.295 -0.3288  0.8121  0.4143
  5294G12c C00N98359   7.172  10.197   3.955  0.9138 -0.3918  0.7473
  5294G12c C00098360   7.061  10.007   3.988  0.0452 -0.8778  1.9099
  5294G12c C01J98361   7.120   9.806   4.082  0.5431 -1.6900  0.5000
  5294G12c C01K98362   7.157   9.665   4.092 -1.5374  0.8757 -0.9781
  5294G12c C01P98363   7.096   9.550   4.035 -1.3684  1.0051  0.3026
  5294G12c C01Q98364   6.960   9.549   3.970  0.7930  1.0469  0.3284
  5294G12c H00G98365   6.900   9.623   4.021 -2.6604  0.0873 -2.1418
  5294G12c C01R98366   6.920   9.510   3.842  1.7304 -1.0946  1.4624
  5294G12c H00F98367   6.827   9.563   3.830  4.7306  4.7930  2.6042
  5294G12c C01S98368   6.969   9.431   3.727 -2.0083  1.6599  0.5905
  5294G12c H00E98369   6.999   9.487   3.638 -2.0808  3.7906  1.8504
  5294G12c H00D98370   7.064   9.380   3.748 -2.4198  1.2325  1.4414
  5294G12c O00598371   6.860   9.366   3.672  0.0613 -0.7379 -0.5676
  5294G12c H00C98372   6.793   9.318   3.717  2.4106 -2.9744  0.7163
  5294G12c C01O98373   7.191   9.450   4.007  0.5904 -0.2930  0.5323
  5294G12c H00H98374   7.137   9.372   3.955  2.7606 -0.2485 -1.8936
  5294G12c C01N98375   7.333   9.453   4.034  0.1306  0.0925  1.3281
  5294G12c O00698376   7.389   9.351   3.970 -0.8872 -0.1723  0.6763
  5294G12c C01T98377   7.514   9.299   4.007  0.5788  1.5025 -0.8655
  5294G12c H00K98378   7.578   9.382   4.037  2.1598 -0.6249  1.8911
  5294G12c H00J98379   7.555   9.225   3.939  1.6186 -0.7614  2.0979
  5294G12c H00I98380   7.519   9.244   4.101  0.3263  1.8037 -0.6757
  5294G12c C01M98381   7.386   9.561   4.111 -0.3353  0.7981 -1.6413
  5294G12c C02098382   7.338   9.981   4.325 -1.9830  1.0086 -0.6423
  5294G12c C02198383   7.426   9.927   4.425 -1.6473 -0.8062 -0.6302
  5294G12c C01L98384   7.282   9.665   4.151  1.2018  0.9453 -1.1019
  5294G12c O00798385   7.515   9.571   4.155  0.5786 -0.5024  0.5134
  5294G12c C02298386   7.473   9.794   4.422  1.2172  0.7592  0.2203
  5294G12c C02398387   7.520  10.005   4.497 -0.8793 -1.7715 -0.2282
  5294G12c C00G98388   7.767  10.123   4.492 -0.1469  0.2808  0.2729
  5294G12c C00E98389   8.013  10.122   4.533  0.8729  2.1214  1.1091
  5294G12c O00A98390   8.115  10.176   4.597  1.3442 -0.9665  0.2817
  5294G12c C02498391   8.100  10.259   4.710 -0.9189  0.7893 -0.8222
  5294G12c H00V98392   8.037  10.232   4.795 -1.0565 -5.6198 -2.7363
  5294G12c H00U98393   8.056  10.350   4.667 -3.3300 -2.3693 -5.4298
  5294G12c H00T98394   8.179  10.315   4.761 -0.2053  1.1043 -2.2573
  5304G12c C00D98395   6.890   6.337  11.829 -2.5683 -1.1836 -0.8401
  5304G12c O00B98396   6.862   6.483  11.840  0.8266 -1.3647  1.7009
  5304G12c C02598397   6.981   6.556  11.868 -0.4319 -0.5601 -0.7522
  5304G12c C02698398   7.062   6.599  11.740  0.4154  0.5014 -0.7570
  5304G12c H00Y98399   7.029   6.703  11.735  0.7072  0.6576  0.6013
  5304G12c H00X98400   7.017   6.570  11.645  4.9757 -0.3393 -2.7676
  5304G12c O00C98401   7.206   6.606  11.739 -0.7658 -0.2061  0.3476
  5304G12c H00W98402   7.259   6.576  11.667  4.0109 -1.4049  4.0334
  5304G12c C02798403   7.049   6.575  11.985 -1.9943  1.1222 -0.6100
  5304G12c O00D98404   7.174   6.639  11.986 -0.5145  2.7581 -0.9001
  5304G12c H00Z98405   7.224   6.599  11.916  0.9270  2.7016  0.1351
  5304G12c C02898406   7.040   6.472  12.084  1.7868 -0.8698  0.4371
  5304G12c C02998407   7.160   6.428  12.139  2.7095  1.7253 -0.3841
  5304G12c H01098408   7.261   6.453  12.110  2.4917  0.1434 -2.5439
  5304G12c C02T98409   7.155   6.315  12.234  0.9075 -2.8032  0.9503
  5304G12c H01O98410   7.249   6.269  12.262  1.9901 -0.1539  1.8100
  5304G12c C02S98411   7.027   6.274  12.262 -0.6179  0.0681 -1.4339
  5304G12c O00J98412   7.017   6.156  12.335  0.0362 -0.4545 -0.0740
  5304G12c H01P98413   6.926   6.141  12.356  0.1874 -1.0037  0.2001
  5304G12c C02R98414   6.899   6.332  12.216  0.1070 -0.7026  0.7873
  5304G12c O00I98415   6.779   6.272  12.248  1.0407  0.7385 -0.4943
  5304G12c C02Q98416   6.653   6.341  12.228  0.2997  0.0975  1.4507
  5304G12c H01N98417   6.661   6.418  12.151  1.0312 -2.9098 -1.6080
  5304G12c H01R98418   6.636   6.377  12.329 -6.3868  1.0455  0.2046
  5304G12c H01Q98419   6.581   6.260  12.216 -2.4803  2.6343  0.5242
  5304G12c C02A98420   6.918   6.430  12.127  0.4916 -0.5343 -0.5254
  5304G12c H01198421   6.825   6.469  12.089 -1.8462 -3.3370  2.0397
  5304G12c C00C98422   7.011   6.273  11.843 -1.2785 -0.5185  0.2099
  5304G12c H01298423   7.108   6.307  11.878  1.3649 -7.2215  0.2612
  5304G12c C00B98424   7.023   6.135  11.845 -0.7068 -0.0297 -0.0230
  5304G12c C00A98425   7.141   6.053  11.855  0.3748  0.0480 -1.2065
  5304G12c C00998426   7.284   6.089  11.862 -0.4950 -1.1001 -0.4655
  5304G12c C00898427   7.352   6.186  11.785  0.2150  1.3907  0.3529
  5304G12c H01398428   7.331   6.290  11.762  0.3025  1.2066 -0.5893
  5304G12c C00798429   7.478   6.146  11.711 -0.1546  2.2206  0.4741
  5304G12c H01498430   7.550   6.223  11.689  7.1008 -2.5581  4.9691
  5304G12c C00698431   7.512   6.009  11.723  1.5783 -0.8465  0.1692
  5304G12c C00598432   7.440   5.921  11.818 -1.3037  1.0934  0.2799
  5304G12c C00498433   7.489   5.785  11.822  1.4946 -0.0354 -1.5222
  5304G12c C00398434   7.392   5.688  11.863  0.0204  0.9360  0.2618
  5304G12c C00298435   7.421   5.538  11.849  0.9836 -0.0144 -1.3461
  5304G12c C00198436   7.349   5.423  11.840 -1.1019  0.6758 -0.7947
  5304G12c C00M98437   7.212   5.421  11.790  0.1686 -0.9878 -1.8070
  5304G12c C00L98438   7.126   5.520  11.826  0.0126  0.1325  0.0676
  5304G12c C00R98439   6.991   5.528  11.785  0.7959  0.1328 -0.0847
  5304G12c C00Q98440   6.917   5.446  11.690  2.1139  0.6950 -0.7025
  5304G12c C00V98441   6.783   5.495  11.645 -1.5999 -0.6947  0.2725
  5304G12c C00U98442   6.745   5.621  11.670  0.2327  1.3825  1.5736
  5304G12c C00T98443   6.834   5.701  11.738 -0.3866 -0.6020 -1.1776
  5304G12c C01698444   6.829   5.839  11.727 -0.0799  0.8189  0.2833
  5304G12c C01598445   6.732   5.896  11.639 -0.0760  1.5868 -0.3707
  5304G12c C01098446   6.639   5.818  11.580 -0.0401  0.1378  0.0334
  5304G12c C01198447   6.539   5.883  11.517 -1.5211  1.0407 -1.2319
  5304G12c H00598448   6.482   5.815  11.456 -1.7836  0.8576 -0.7879
  5304G12c C01298449   6.517   6.026  11.519 -1.1058  0.9944  0.3994
  5304G12c C01798450   6.423   6.091  11.436  1.0311 -0.4100 -0.6677
  5304G12c O00298451   6.297   6.035  11.412 -0.9449 -0.1884  0.9105
  5304G12c H00498452   6.334   5.954  11.444  0.9269  2.5347  6.2639
  5304G12c C01898453   6.449   6.202  11.371 -2.0032 -0.1097 -0.0386
  5304G12c O00198454   6.564   6.285  11.383  0.0400  0.9008  0.5357
  5304G12c H00398455   6.599   6.290  11.296  2.8899 -4.0076  1.1941
  5304G12c C01998456   6.366   6.282  11.276  0.3759 -1.8503 -0.9262
  5304G12c H00298457   6.399   6.260  11.175 -0.7525 -0.8875 -1.5116
  5304G12c H00198458   6.263   6.247  11.285 -0.5647  0.3754 -2.4493
  5304G12c O00098459   6.420   6.418  11.251 -0.4879  0.9880  1.5008
  5304G12c C01A98460   6.349   6.513  11.308  1.0071 -0.1675  1.4652
  5304G12c C02K98461   6.264   6.584  11.208 -2.2288 -1.0887 -0.7594
  5304G12c O00G98462   6.310   6.585  11.074 -1.8784  0.4181  0.1380
  5304G12c C02M98463   6.197   6.564  11.004  1.1201 -0.8108  1.7239
  5304G12c H01G98464   6.239   6.485  10.942  3.4460  1.0797  0.7989
  5304G12c H01F98465   6.113   6.503  11.037  2.7672 -2.1223  3.6633
  5304G12c H01E98466   6.152   6.647  10.949 -1.2138 -1.4896  2.5613
  5304G12c C02J98467   6.162   6.662  11.276 -0.9164 -2.7514 -1.6996
  5304G12c H01H98468   6.096   6.710  11.206  0.3865 -2.6664 -2.8815
  5304G12c C02I98469   6.138   6.673  11.417  2.3391 -0.6695 -0.0204
  5304G12c C02N98470   6.047   6.782  11.464 -0.8071  1.1461  0.2122
  5304G12c H01M98471   5.966   6.836  11.418  1.8359  2.2608 -3.3562
  5304G12c C02O98472   6.095   6.861  11.570 -0.1869  0.5700 -0.8600
  5304G12c H01L98473   6.173   6.806  11.622 -0.1990 -1.5390 -3.0159
  5304G12c C02P98474   6.046   6.999  11.608 -0.8943  1.7268 -0.3447
  5304G12c H01K98475   5.944   7.033  11.593 -1.3352 -0.3906 -2.4494
  5304G12c H01J98476   6.064   7.007  11.716 -1.2413 -3.9710  0.3253
  5304G12c O00H98477   6.127   7.079  11.538 -0.5119  0.0880  0.8082
  5304G12c H01I98478   6.190   7.010  11.522  0.9982  0.6574  3.9677
  5304G12c C02H98479   6.232   6.596  11.489  0.1422  1.7006 -1.3234
  5304G12c H01C98480   6.207   6.576  11.592 -3.3405 -1.5603 -2.7047
  5304G12c C02L98481   6.328   6.515  11.440  0.5706 -1.0234 -1.1165
  5304G12c H01D98482   6.394   6.455  11.501 -0.0362 -2.0119 -1.4192
  5304G12c C01398483   6.602   6.102  11.599 -1.3740 -0.4853 -0.1934
  5304G12c H00098484   6.583   6.207  11.615  4.2338  0.6599 -0.0573
  5304G12c C01498485   6.715   6.036  11.652  0.1216 -0.0997  0.2094
  5304G12c C00F98486   6.816   6.116  11.717  1.5552  0.1836 -0.3888
  5304G12c C00H98487   6.924   5.915  11.801 -0.3872 -1.6269  0.8774
  5304G12c C00I98488   7.034   5.846  11.870 -0.2050  0.8410  0.2500
  5304G12c C00J98489   7.030   5.712  11.884  0.6862 -0.9626  1.2349
  5304G12c C00Z98490   6.643   5.680  11.608  1.0299  0.3842  1.0407
  5304G12c C00Y98491   6.543   5.593  11.534 -1.5935 -0.9301 -0.6221
  5304G12c H00698492   6.442   5.606  11.497 -1.8823  4.1747  1.5158
  5304G12c C00X98493   6.564   5.459  11.505  0.7656 -1.0275 -1.2888
  5304G12c O00398494   6.454   5.375  11.473 -0.0981  0.6943 -1.8247
  5304G12c C01B98495   6.469   5.294  11.356  1.3017  0.4514 -1.6632
  5304G12c H00998496   6.451   5.349  11.263  6.2217 -2.1045 -4.3578
  5304G12c H00898497   6.400   5.210  11.350  1.4433  0.3937 -2.4924
  5304G12c H00798498   6.574   5.265  11.350  2.5737  4.0679  1.2451
  5304G12c C00W98499   6.692   5.421  11.556  0.2052  1.0521  0.2540
  5304G12c O00498500   6.715   5.291  11.524 -1.1667  0.1083 -0.0385
  5304G12c C01C98501   6.848   5.244  11.550 -1.1348 -1.7413 -0.2571
  5304G12c H00A98502   6.871   5.148  11.506  4.7358 -0.5934 -0.1160
  5304G12c C00P98503   6.952   5.326  11.631 -1.2810  0.6057  0.1959
  5304G12c C00O98504   7.093   5.293  11.601  1.4018 -0.3570 -0.6643
  5304G12c C01D98505   7.137   5.230  11.479  1.9161  0.2258  0.0096
  5304G12c H00S98506   7.068   5.184  11.410  1.6078 -4.7930  3.3860
  5304G12c C01E98507   7.279   5.208  11.463  1.7291 -0.7356  1.5601
  5304G12c O00898508   7.311   5.180  11.328  0.6773  0.1026  0.5555
  5304G12c C01V98509   7.348   5.052  11.254  1.1377 -0.9935  0.5163
  5304G12c C01Z98510   7.354   5.094  11.117 -1.8090 -0.3614 -0.0040
  5304G12c H00R98511   7.400   5.013  11.059  0.9906  3.0924 -2.8478
  5304G12c H00Q98512   7.251   5.122  11.098 -1.0451  3.1452  0.7132
  5304G12c O00998513   7.422   5.202  11.091 -0.2625 -0.9031  0.3328
  5304G12c H00P98514   7.392   5.280  11.133 -4.3878  1.3359 -6.1102
  5304G12c C01W98515   7.325   4.932  11.311 -0.4542 -1.4783  0.0070
  5304G12c H00O98516   7.271   4.922  11.404  2.9417 -2.1803  2.0010
  5304G12c C01X98517   7.336   4.790  11.251 -0.6121 -1.1900 -0.0089
  5304G12c H00N98518   7.440   4.778  11.222  0.5152 -0.7706  3.6533
  5304G12c H00M98519   7.346   4.706  11.320  3.9599 -0.5218  0.2889
  5304G12c C01Y98520   7.237   4.752  11.117  1.6507 -1.0864 -0.3434
  5304G12c C02D98521   7.131   4.846  11.091 -0.3711 -2.3570 -1.1741
  5304G12c H01998522   7.068   4.894  11.164 -0.3263 -0.2283 -2.4770
  5304G12c C02C98523   7.067   4.857  10.968 -1.3294 -0.5377  1.2140
  5304G12c H01A98524   6.989   4.928  10.944  3.6641  5.1279  0.6203
  5304G12c C02B98525   7.102   4.780  10.848 -0.7535 -0.7939 -0.9378
  5304G12c O00E98526   7.049   4.801  10.724  1.0965 -2.5707 -1.0971
  5304G12c H01B98527   7.110   4.755  10.668 -1.8114 -6.2982 -1.3896
  5304G12c C02F98528   7.217   4.710  10.883 -0.1911 -0.6381 -0.6598
  5304G12c O00F98529   7.291   4.665  10.776 -0.1226 -1.3275  0.1970
  5304G12c C02G98530   7.425   4.628  10.779 -0.7438  1.3279  1.1064
  5304G12c H01798531   7.428   4.521  10.797 -3.0793 -0.6423 -7.8695
  5304G12c H01698532   7.485   4.694  10.842  4.2575 -1.2570 -0.6540
  5304G12c H01598533   7.448   4.643  10.674 -2.6748  2.8201  0.8567
  5304G12c C02E98534   7.285   4.691  11.004  1.2393 -0.5862 -2.4258
  5304G12c H01898535   7.381   4.648  11.028 -2.1954 -5.3856  4.2766
  5304G12c C01F98536   7.376   5.241  11.558  0.6720 -0.9406  1.5094
  5304G12c C01G98537   7.516   5.246  11.531 -0.0639  1.7737 -1.8007
  5304G12c H00L98538   7.567   5.208  11.444  0.1940  3.2085 -2.2963
  5304G12c C01H98539   7.601   5.329  11.611  0.5405  0.3361  0.0616
  5304G12c H00B98540   7.692   5.345  11.555 -1.1864  1.7886 -2.4231
  5304G12c C01I98541   7.546   5.381  11.731 -1.0493  1.1917 -1.2953
  5304G12c C01U98542   7.332   5.280  11.682 -0.3335  1.9034 -0.1307
  5304G12c C00S98543   6.921   5.644  11.837 -2.3861 -1.5549 -0.7405
  5304G12c C00K98544   7.148   5.638  11.899 -0.0324 -1.1206  0.7250
  5304G12c C00N98545   7.204   5.324  11.691 -0.0337  0.7805 -0.8215
  5304G12c C00098546   7.415   5.324  11.782 -0.7576 -0.3320 -1.6465
  5304G12c C01J98547   7.552   5.524  11.775 -0.7181  1.3197  0.0497
  5304G12c C01K98548   7.657   5.624  11.747  0.7904 -0.5477  0.5244
  5304G12c C01P98549   7.785   5.595  11.704  0.7954 -0.1872 -0.7834
  5304G12c C01Q98550   7.840   5.466  11.699 -0.6649 -0.9498  1.5775
  5304G12c H00G98551   7.801   5.385  11.759  4.4906 -3.2545  2.1365
  5304G12c C01R98552   7.961   5.441  11.648  0.5282  0.9166 -0.5686
  5304G12c H00F98553   8.005   5.494  11.565  4.6435 -1.6135 -0.1644
  5304G12c C01S98554   8.024   5.305  11.673  1.1200  1.1671  2.0038
  5304G12c H00E98555   7.950   5.225  11.676 -1.3650  2.9531 -3.9237
  5304G12c H00D98556   8.088   5.273  11.590 -1.3452  1.5765 -0.1231
  5304G12c O00598557   8.089   5.282  11.797  0.7013 -1.2094  0.6011
  5304G12c H00C98558   8.100   5.188  11.800  1.4840 -1.2591 -2.1822
  5304G12c C01O98559   7.855   5.693  11.649  1.9302  0.3638  1.1852
  5304G12c H00H98560   7.955   5.662  11.625  1.4017 -1.1915  0.9480
  5304G12c C01N98561   7.803   5.832  11.630  1.0053  0.8873  2.2514
  5304G12c O00698562   7.874   5.947  11.587 -0.0768  0.3703  0.1727
  5304G12c C01T98563   7.994   5.894  11.510 -0.9360 -1.6761  0.4914
  5304G12c H00K98564   7.959   5.839  11.423 -2.6905 -2.4374  1.6474
  5304G12c H00J98565   8.066   5.840  11.571  2.6428 -0.6255 -2.6141
  5304G12c H00I98566   8.039   5.981  11.462  4.7969 -3.5981  2.0451
  5304G12c C01M98567   7.679   5.855  11.685  0.8067 -1.7094 -1.3167
  5304G12c C02098568   7.265   5.721  11.926 -0.9073 -0.3009 -0.7520
  5304G12c C02198569   7.252   5.862  11.966  1.3671  1.5064 -0.4676
  5304G12c C01L98570   7.604   5.756  11.754 -0.3833 -0.9496 -0.0692
  5304G12c O00798571   7.632   5.991  11.693 -1.1218 -0.2902 -1.5206
  5304G12c C02298572   7.319   5.951  11.864  1.0489  0.5614  0.4035
  5304G12c C02398573   7.124   5.935  11.936 -1.2732  1.4411 -2.1320
  5304G12c C00G98574   6.923   6.055  11.791  0.2001 -0.0869  0.0523
  5304G12c C00E98575   6.791   6.257  11.763 -1.0198 -0.1021 -0.8928
  5304G12c O00A98576   6.669   6.327  11.750  1.1305  0.3440  0.8207
  5304G12c C02498577   6.589   6.343  11.867 -1.5490 -0.6319 -0.6092
  5304G12c H00V98578   6.648   6.359  11.957 -0.3619  0.5302 -1.5555
  5304G12c H00U98579   6.562   6.447  11.850  6.6440  1.2061 -5.6504
  5304G12c H00T98580   6.491   6.304  11.891 -0.7182  0.0786  4.4219
  5314G12c C00D98581   7.132  11.323   7.409 -2.8651 -1.5823  0.8803
  5314G12c O00B98582   7.185  11.446   7.456  0.3367 -0.7126  0.0763
  5314G12c C02598583   7.250  11.534   7.372 -1.0369  0.5285 -0.9571
  5314G12c C02698584   7.315  11.645   7.455 -0.3843 -0.0768  1.5829
  5314G12c H00Y98585   7.365  11.699   7.374  1.6603 -0.2984  2.6825
  5314G12c H00X98586   7.396  11.638   7.527  1.5145  0.2897 -0.4526
  5314G12c O00C98587   7.196  11.707   7.502 -0.2794 -0.1601  0.0985
  5314G12c H00W98588   7.198  11.758   7.582  1.9314  0.8622 -0.5629
  5314G12c C02798589   7.255  11.535   7.236 -0.6656  2.3744  0.6068
  5314G12c O00D98590   7.193  11.424   7.153  0.0316 -0.7925  1.7167
  5314G12c H00Z98591   7.268  11.374   7.126 -0.1246  1.4478 -3.6415
  5314G12c C02898592   7.281  11.646   7.147 -0.1986  0.0508  0.5991
  5314G12c C02998593   7.413  11.669   7.110 -1.0498 -0.0062 -0.2422
  5314G12c H01098594   7.486  11.617   7.169  5.0933  3.2511 -4.4779
  5314G12c C02T98595   7.430  11.763   7.017 -1.8270  0.5547  0.4049
  5314G12c H01O98596   7.524  11.797   6.976  1.5373 -7.9398  0.0467
  5314G12c C02S98597   7.323  11.838   6.962  0.8434  0.0333  0.0985
  5314G12c O00J98598   7.354  11.957   6.921  0.8231 -1.5311  2.2460
  5314G12c H01P98599   7.275  12.008   6.910  0.8719  0.0017  7.4103
  5314G12c C02R98600   7.193  11.799   6.991 -0.0249  1.4906 -1.1556
  5314G12c O00I98601   7.103  11.851   6.919  0.1904 -1.3889  0.4011
  5314G12c C02Q98602   7.023  11.772   6.819  0.0416  0.0108  1.3516
  5314G12c H01N98603   6.956  11.712   6.879  1.9768 -3.0307  0.6090
  5314G12c H01R98604   7.085  11.703   6.761  7.5983  4.7611  3.0175
  5314G12c H01Q98605   6.980  11.844   6.749  3.9819  0.3802 -0.8955
  5314G12c C02A98606   7.165  11.694   7.083  1.5935 -0.9927 -0.9939
  5314G12c H01198607   7.064  11.674   7.115  1.7394 -0.6392 -0.3065
  5314G12c C00C98608   6.995  11.319   7.370  1.5596 -0.6226 -0.7185
  5314G12c H01298609   6.922  11.390   7.405  4.4381  0.7916  2.6696
  5314G12c C00B98610   6.935  11.181   7.352  0.5835 -2.0395  0.6027
  5314G12c C00A98611   6.796  11.146   7.337 -1.0454 -0.1888 -0.6741
  5314G12c C00998612   6.691  11.244   7.369 -0.0036  0.5436 -1.9837
  5314G12c C00898613   6.663  11.382   7.351  0.0922 -0.6662 -2.1192
  5314G12c H01398614   6.742  11.456   7.352  0.1404 -0.7128 -2.4481
  5314G12c C00798615   6.532  11.420   7.406 -0.1601  0.0881  0.0699
  5314G12c H01498616   6.540  11.524   7.434  2.2264 -0.7571  2.7120
  5314G12c C00698617   6.430  11.322   7.446  1.6772 -0.7877  0.7304
  5314G12c C00598618   6.460  11.188   7.420  0.4154  1.9647  0.4057
  5314G12c C00498619   6.367  11.090   7.437  0.1022  1.3346  0.7863
  5314G12c C00398620   6.406  10.946   7.431 -1.6550  0.2894 -1.4466
  5314G12c C00298621   6.329  10.834   7.484  1.8897  1.0743  0.2178
  5314G12c C00198622   6.343  10.688   7.500 -0.0908  0.1709 -1.8610
  5314G12c C00M98623   6.478  10.639   7.545 -0.4604  0.2261  1.2558
  5314G12c C00L98624   6.600  10.720   7.538 -1.5245  0.4709  0.3462
  5314G12c C00R98625   6.731  10.673   7.558 -0.0722 -0.3470 -0.0064
  5314G12c C00Q98626   6.777  10.560   7.630  0.7067  1.3814 -0.7404
  5314G12c C00V98627   6.919  10.539   7.617 -1.1126 -0.0399  1.0348
  5314G12c C00U98628   7.003  10.629   7.555  1.1177 -0.4165 -0.3555
  5314G12c C00T98629   6.962  10.734   7.489  0.4371  0.0596 -1.1071
  5314G12c C01698630   7.023  10.846   7.456 -0.0340 -0.2500 -0.9687
  5314G12c C01598631   7.158  10.858   7.499  0.4779  0.4045 -0.4875
  5314G12c C01098632   7.219  10.737   7.549 -0.3387  0.1701 -1.7121
  5314G12c C01198633   7.345  10.732   7.601 -0.7599 -1.0693 -1.1382
  5314G12c H00598634   7.393  10.652   7.656  0.0419 -0.8061 -1.4412
  5314G12c C01298635   7.422  10.838   7.564 -0.1656 -1.1273  0.5309
  5314G12c C01798636   7.570  10.832   7.556 -0.8177  0.6942  1.1783
  5314G12c O00298637   7.635  10.928   7.637 -0.5844 -0.9458 -0.0759
  5314G12c H00498638   7.575  10.947   7.708 -3.8002 -3.1921 -2.0144
  5314G12c C01898639   7.643  10.763   7.476 -0.1984 -0.2522  0.8800
  5314G12c O00198640   7.575  10.701   7.373  1.1044  1.5616 -0.3364
  5314G12c H00398641   7.655  10.668   7.336 -1.1503 -5.0545  0.0909
  5314G12c C01998642   7.806  10.775   7.469  1.0000  0.0184 -1.1422
  5314G12c H00298643   7.829  10.835   7.381 -1.2055  1.7050 -0.6133
  5314G12c H00198644   7.840  10.782   7.572  3.3799  1.7779 -2.0022
  5314G12c O00098645   7.890  10.663   7.436  0.8436  0.9368 -0.4086
  5314G12c C01A98646   7.859  10.529   7.490 -0.2660 -0.0850 -0.9519
  5314G12c C02K98647   7.898  10.413   7.405  1.2504 -1.2795 -1.6364
  5314G12c O00G98648   7.978  10.443   7.291 -0.4771  2.0435 -1.7416
  5314G12c C02M98649   7.912  10.496   7.180 -1.8719  0.9768  0.5263
  5314G12c H01G98650   8.000  10.551   7.147  0.4096 -1.3070  2.5619
  5314G12c H01F98651   7.887  10.404   7.126 -2.6474  1.8402 -0.5993
  5314G12c H01E98652   7.814  10.537   7.203 -3.3394  0.9465 -4.9661
  5314G12c C02J98653   7.849  10.289   7.456  1.1049 -1.0570  0.8529
  5314G12c H01H98654   7.859  10.208   7.384 -2.8378  0.0400 -1.0370
  5314G12c C02I98655   7.805  10.279   7.586 -0.3740 -0.7713  1.4715
  5314G12c C02N98656   7.790  10.141   7.633 -0.3765  0.1694 -1.4036
  5314G12c H01M98657   7.727  10.115   7.717 -2.0910  8.4900  0.3357
  5314G12c C02O98658   7.869  10.035   7.592 -0.8301 -2.2261  1.0879
  5314G12c H01L98659   7.944  10.052   7.516 -2.2101  4.4846  0.8930
  5314G12c C02P98660   7.853   9.895   7.648 -1.6708 -0.5862 -0.4527
  5314G12c H01K98661   7.934   9.869   7.716  1.0749  1.7089 -2.7182
  5314G12c H01J98662   7.761   9.859   7.693  0.3937 -3.2736  1.8437
  5314G12c O00H98663   7.866   9.816   7.523 -0.2101  0.4089  0.8588
  5314G12c H01I98664   7.801   9.839   7.458  4.0115  1.6408 -3.2002
  5314G12c C02H98665   7.768  10.383   7.660  0.5862 -1.9882  0.9875
  5314G12c H01C98666   7.742  10.382   7.765 -1.0809 -4.3341  0.6023
  5314G12c C02L98667   7.782  10.514   7.607  0.5585  0.1767  0.1578
  5314G12c H01D98668   7.763  10.611   7.650  2.8744  0.8516 -0.2491
  5314G12c C01398669   7.362  10.962   7.506  0.9743 -0.6811 -1.2060
  5314G12c H00098670   7.437  11.037   7.488  0.3005  0.0104 -1.1803
  5314G12c C01498671   7.231  10.966   7.452 -1.4392  1.5740 -2.4017
  5314G12c C00F98672   7.165  11.085   7.399 -2.0501  0.1902  0.0655
  5314G12c C00H98673   6.957  10.941   7.381  0.3452 -0.7757  0.9938
  5314G12c C00I98674   6.820  10.910   7.335 -0.4541  0.5724 -0.7480
  5314G12c C00J98675   6.752  10.789   7.357 -0.1322  0.2722 -0.5506
  5314G12c C00Z98676   7.140  10.623   7.564  1.2547  2.1966  0.2929
  5314G12c C00Y98677   7.196  10.499   7.616  0.7088 -1.7682 -1.2932
  5314G12c H00698678   7.303  10.487   7.624  0.4815 -3.3904 -0.4638
  5314G12c C00X98679   7.119  10.407   7.671  1.2755  0.2095  0.3016
  5314G12c O00398680   7.177  10.314   7.757  0.2199  0.2058 -0.3336
  5314G12c C01B98681   7.162  10.346   7.904 -1.1034  0.7262  0.4031
  5314G12c H00998682   7.177  10.250   7.954  2.6027 -0.1099 -2.0909
  5314G12c H00898683   7.062  10.384   7.920 -0.3787  2.0945  1.8255
  5314G12c H00798684   7.243  10.401   7.952  0.4022 -0.3451 -0.8181
  5314G12c C00W98685   6.980  10.429   7.679  1.1649 -0.5632  0.2284
  5314G12c O00498686   6.908  10.353   7.763  1.9788 -0.6296  0.8148
  5314G12c C01C98687   6.782  10.407   7.827 -1.0129  0.5904 -0.0316
  5314G12c H00A98688   6.805  10.448   7.924 -0.5241  1.4367 -0.4973
  5314G12c C00P98689   6.709  10.487   7.741  0.3659 -0.3409  0.2504
  5314G12c C00O98690   6.572  10.499   7.749 -0.0128  0.8852  0.2665
  5314G12c C01D98691   6.522  10.494   7.886 -0.4818  0.5233 -0.0904
  5314G12c H00S98692   6.528  10.393   7.925 -1.6451 -0.9496 -3.5464
  5314G12c C01E98693   6.398  10.551   7.958  0.1248  0.2330 -0.2007
  5314G12c O00898694   6.370  10.529   8.086 -0.0906 -2.0935 -3.0807
  5314G12c C01V98695   6.416  10.633   8.168 -1.0135  0.2164  1.6158
  5314G12c C01Z98696   6.320  10.657   8.286  0.2802 -1.0511  0.2490
  5314G12c H00R98697   6.376  10.641   8.378 -1.6915 -5.6031  0.7842
  5314G12c H00Q98698   6.268  10.752   8.278  2.5678  0.1138 -1.5179
  5314G12c O00998699   6.208  10.571   8.290 -0.0380 -0.2854 -1.8487
  5314G12c H00P98700   6.227  10.487   8.250 -3.3042 -4.6760  4.8699
  5314G12c C01W98701   6.504  10.733   8.143 -0.3036 -0.3778  1.1750
  5314G12c H00O98702   6.574  10.718   8.063  0.0070  4.0561  0.4791
  5314G12c C01X98703   6.543  10.860   8.220 -0.9137 -0.4558  1.2122
  5314G12c H00N98704   6.606  10.910   8.146  1.2760 -3.3701  1.0169
  5314G12c H00M98705   6.489  10.953   8.238  0.9771  1.5735 -2.9183
  5314G12c C01Y98706   6.656  10.866   8.340  0.3222  0.3271  1.1772
  5314G12c C02D98707   6.783  10.909   8.325 -0.2345  0.3957 -0.1082
  5314G12c H01998708   6.829  10.910   8.227 -4.4392  2.2219 -2.1750
  5314G12c C02C98709   6.868  10.937   8.445  0.2848 -1.2429  0.2606
  5314G12c H01A98710   6.956  10.998   8.430  0.8519  0.1640  7.3720
  5314G12c C02B98711   6.795  10.961   8.569 -0.9551  1.1400  0.4503
  5314G12c O00E98712   6.874  11.017   8.679  1.3171 -0.5083 -0.0624
  5314G12c H01B98713   6.829  10.973   8.749 -1.0101  1.0635 -0.5250
  5314G12c C02F98714   6.654  10.922   8.585  0.3914 -0.4768  0.1796
  5314G12c O00F98715   6.586  10.945   8.693  0.0872 -0.0827 -1.3434
  5314G12c C02G98716   6.609  10.831   8.785 -0.2376 -1.3675 -0.1250
  5314G12c H01798717   6.626  10.735   8.738 -2.2122 -1.6601 -0.3010
  5314G12c H01698718   6.523  10.821   8.851 -1.6127 -3.3625 -2.1552
  5314G12c H01598719   6.701  10.855   8.838 -0.0162 -2.9049  0.1957
  5314G12c C02E98720   6.598  10.865   8.470  1.1086  0.7260 -0.0578
  5314G12c H01898721   6.491  10.851   8.482  1.7939 -3.7825  1.8497
  5314G12c C01F98722   6.306  10.609   7.866 -2.7546 -1.6050 -0.3442
  5314G12c C01G98723   6.191  10.689   7.894  1.2127 -1.3488 -0.7034
  5314G12c H00L98724   6.163  10.691   7.998  1.5941 -0.0658 -0.6117
  5314G12c C01H98725   6.141  10.761   7.785  0.4792 -1.6369  0.6939
  5314G12c H00B98726   6.081  10.850   7.786  4.6530  1.3284  2.1949
  5314G12c C01I98727   6.190  10.764   7.655 -0.7098  0.2054 -0.3199
  5314G12c C01U98728   6.323  10.588   7.718  1.6499  0.4348  0.4978
  5314G12c C00S98729   6.818  10.708   7.448  0.0826 -0.4752  0.2341
  5314G12c C00K98730   6.609  10.787   7.420 -0.8575 -1.1433 -1.4066
  5314G12c C00N98731   6.457  10.559   7.670 -0.2180 -0.0268  0.2172
  5314G12c C00098732   6.255  10.656   7.610  1.3626 -1.4475  1.3329
  5314G12c C01J98733   6.222  10.873   7.564  1.3010  0.6617 -0.4184
  5314G12c C01K98734   6.170  11.003   7.563 -0.4927 -1.1002 -0.2745
  5314G12c C01P98735   6.038  11.046   7.627  1.4144 -1.8584  1.8965
  5314G12c C01Q98736   5.925  10.966   7.653  0.0852 -0.0425  0.6590
  5314G12c H00G98737   5.906  10.877   7.593 -1.4221  1.3069 -0.9413
  5314G12c C01R98738   5.842  10.976   7.761 -0.2425  0.7916  1.4595
  5314G12c H00F98739   5.841  11.036   7.851  2.9815 -3.7502  4.7611
  5314G12c C01S98740   5.727  10.877   7.795 -0.7835 -0.3088  1.6550
  5314G12c H00E98741   5.632  10.898   7.844 -0.5560  2.4142  1.0230
  5314G12c H00D98742   5.710  10.807   7.713  2.1598 -0.0342  0.7531
  5314G12c O00598743   5.796  10.781   7.878 -1.2232 -1.7041  0.6631
  5314G12c H00C98744   5.851  10.740   7.813 -1.4585 -1.5695  0.3781
  5314G12c C01O98745   6.037  11.181   7.680  0.5312  0.9811 -1.2679
  5314G12c H00H98746   5.951  11.224   7.729 -0.1218  0.3689 -1.8611
  5314G12c C01N98747   6.134  11.269   7.650  1.4555  0.4255 -1.2187
  5314G12c O00698748   6.149  11.382   7.720 -1.7657  0.4227  0.6847
  5314G12c C01T98749   6.141  11.429   7.856  0.2116 -0.2103  0.0825
  5314G12c H00K98750   6.036  11.457   7.865 -1.5912 -5.5121 -2.4124
  5314G12c H00J98751   6.133  11.342   7.921 -1.1402 -2.7840 -3.3721
  5314G12c H00I98752   6.215  11.502   7.889 -0.3741 -1.3983  4.3636
  5314G12c C01M98753   6.221  11.242   7.546 -2.3357  0.7211 -0.0781
  5314G12c C02098754   6.541  10.912   7.385  0.2112 -0.8543 -0.3188
  5314G12c C02198755   6.616  11.021   7.324  0.2643 -0.7107 -0.8834
  5314G12c C01L98756   6.249  11.115   7.505  2.0527  0.4239 -0.1811
  5314G12c O00798757   6.315  11.350   7.520 -0.9139  1.0279 -0.0700
  5314G12c C02298758   6.587  11.153   7.376  0.2276 -1.4459  0.7248
  5314G12c C02398759   6.741  11.028   7.293 -0.1410 -0.6158  0.9262
  5314G12c C00G98760   7.020  11.070   7.378  0.0067  0.5461  1.1439
  5314G12c C00E98761   7.232  11.217   7.406  0.4239 -0.7671  1.9609
  5314G12c O00A98762   7.371  11.261   7.401  1.2214  0.3037  1.1358
  5314G12c C02498763   7.445  11.231   7.294 -1.5534  3.0640  0.7436
  5314G12c H00V98764   7.525  11.157   7.292 -1.5126  2.9673 -6.5269
  5314G12c H00U98765   7.499  11.318   7.256  3.9896 -1.1119 -1.6063
  5314G12c H00T98766   7.374  11.199   7.219 -1.2912 -2.7813  2.7428
  5324G12c C00D98767   5.012   7.339   9.556 -0.7872 -0.3671 -0.4404
  5324G12c O00B98768   4.984   7.207   9.546 -0.3574  0.6796  0.4781
  5324G12c C02598769   5.079   7.140   9.492 -2.0681 -1.0297 -0.4734
  5324G12c C02698770   5.136   7.062   9.618  0.6120 -0.5361  0.1712
  5324G12c H00Y98771   5.087   6.972   9.656  0.2656 -1.6073 -2.6697
  5324G12c H00X98772   5.147   7.160   9.664 -2.5624  1.0992 -2.3473
  5324G12c O00C98773   5.278   7.029   9.614 -1.8630 -0.3754 -1.7603
  5324G12c H00W98774   5.327   7.108   9.595 -0.9699 -0.1254  1.3195
  5324G12c C02798775   5.113   7.128   9.353 -0.6114  1.1256 -1.5374
  5324G12c O00D98776   5.034   7.207   9.267 -0.0472 -2.4207  0.4538
  5324G12c H00Z98777   4.944   7.176   9.265 -0.9273 -0.5689 -7.3846
  5324G12c C02898778   5.247   7.110   9.323  2.8136  0.5503 -0.5601
  5324G12c C02998779   5.348   7.169   9.398  2.1213 -0.1935  1.1478
  5324G12c H01098780   5.340   7.263   9.450  2.3351 -0.8738  2.4239
  5324G12c C02T98781   5.467   7.099   9.402 -0.1787  0.4232 -1.0886
  5324G12c H01O98782   5.541   7.155   9.457  3.1277 -2.8835 -1.9444
  5324G12c C02S98783   5.490   6.985   9.341  0.5817  0.7894 -0.9103
  5324G12c O00J98784   5.623   6.942   9.356  0.0133  0.6889 -0.2475
  5324G12c H01P98785   5.605   6.850   9.368 -2.9969  0.6329 -3.9593
  5324G12c C02R98786   5.393   6.923   9.266 -0.2497  0.0342  0.3897
  5324G12c O00I98787   5.427   6.809   9.199 -1.8601  0.1777  0.2952
  5324G12c C02Q98788   5.334   6.704   9.155  1.5265  0.3833 -0.6705
  5324G12c H01N98789   5.325   6.659   9.254 -4.5135  3.2184  0.3265
  5324G12c H01R98790   5.378   6.665   9.064 -2.5896  3.6807 -4.3242
  5324G12c H01Q98791   5.239   6.756   9.171 -0.6229 -4.6237  4.5605
  5324G12c C02A98792   5.268   6.989   9.261  0.3604  0.8112  0.1668
  5324G12c H01198793   5.188   6.962   9.193  0.8658  5.7487 -2.6537
  5324G12c C00C98794   5.118   7.391   9.648 -2.3219  0.2782 -1.1933
  5324G12c H01298795   5.163   7.331   9.726  2.5246  5.4941  0.4180
  5324G12c C00B98796   5.141   7.534   9.669  0.0887 -0.2317  0.3571
  5324G12c C00A98797   5.220   7.612   9.759 -0.2850 -0.6780 -0.3839
  5324G12c C00998798   5.203   7.600   9.906 -0.7229 -0.3924 -0.7783
  5324G12c C00898799   5.148   7.510  10.010  1.8291 -0.8529 -0.4229
  5324G12c H01398800   5.102   7.416   9.982 -0.3766  0.1041 -0.1623
  5324G12c C00798801   5.121   7.561  10.142 -0.6568 -2.9374 -0.8607
  5324G12c H01498802   5.110   7.484  10.217  1.7659 -3.7110 -1.2456
  5324G12c C00698803   5.176   7.690  10.189  0.4083  0.8339 -1.1756
  5324G12c C00598804   5.206   7.770  10.091  0.1316 -0.7108  0.2071
  5324G12c C00498805   5.208   7.907  10.119 -1.5686 -1.7288 -0.0516
  5324G12c C00398806   5.236   7.991  10.006 -0.0582  1.5060  0.5271
  5324G12c C00298807   5.213   8.133  10.030  1.1520 -0.1292  1.4858
  5324G12c C00198808   5.190   8.252   9.947 -0.6132 -0.0673 -0.3218
  5324G12c C00M98809   5.126   8.260   9.815 -1.5078 -1.2313  0.4777
  5324G12c C00L98810   5.164   8.169   9.721 -0.9775  0.9329 -0.7393
  5324G12c C00R98811   5.080   8.151   9.600  1.3310  0.7088  0.8522
  5324G12c C00Q98812   4.970   8.223   9.528 -0.2458  0.2688  1.7764
  5324G12c C00V98813   4.931   8.177   9.397  1.4643  0.3004 -0.3126
  5324G12c C00U98814   4.957   8.045   9.369  1.5958  1.4317 -0.3657
  5324G12c C00T98815   5.034   7.962   9.453  0.2303  0.6963 -0.1910
  5324G12c C01698816   5.053   7.827   9.445 -0.2862  0.6260 -0.4593
  5324G12c C01598817   4.965   7.763   9.342  0.9178 -0.2546 -1.7719
  5324G12c C01098818   4.918   7.843   9.238  0.5239  0.1343  1.1772
  5324G12c C01198819   4.881   7.787   9.113 -0.5874  0.3044 -1.3568
  5324G12c H00598820   4.837   7.840   9.029 -3.6221 -1.0597 -0.6722
  5324G12c C01298821   4.902   7.646   9.093  0.0626 -0.8208  0.7346
  5324G12c C01798822   4.832   7.584   8.978 -0.3236 -1.7965  0.8722
  5324G12c O00298823   4.825   7.648   8.850  0.5173  0.1510  0.1192
  5324G12c H00498824   4.807   7.569   8.801  5.7026 -1.8755  1.1557
  5324G12c C01898825   4.785   7.449   8.993  1.6308 -0.0382 -0.5461
  5324G12c O00198826   4.761   7.374   9.108  0.0368  0.1011 -1.5180
  5324G12c H00398827   4.777   7.430   9.183  0.4430 -1.9000 -0.0852
  5324G12c C01998828   4.729   7.363   8.869 -1.2772  1.2125  0.3845
  5324G12c H00298829   4.810   7.292   8.856  0.9487  4.2230 -3.1967
  5324G12c H00198830   4.637   7.309   8.892 -0.5537  0.3531  1.3183
  5324G12c O00098831   4.728   7.441   8.763  0.1331  1.1984 -1.9779
  5324G12c C01A98832   4.761   7.386   8.652 -0.9931 -0.0026  1.6112
  5324G12c C02K98833   4.708   7.265   8.623 -0.3055  0.2644  1.9444
  5324G12c O00G98834   4.623   7.178   8.693 -0.9474 -0.5320  0.3998
  5324G12c C02M98835   4.494   7.160   8.630  1.2686  0.2747  0.1876
  5324G12c H01G98836   4.518   7.089   8.551 -4.1356 -3.7774  1.8853
  5324G12c H01F98837   4.427   7.243   8.608  0.3696 -1.6390 -4.7095
  5324G12c H01E98838   4.443   7.093   8.700 -1.4817 -4.6755 -6.1321
  5324G12c C02J98839   4.770   7.212   8.505  1.2659 -0.9992  1.9616
  5324G12c H01H98840   4.770   7.105   8.497  4.4011 -0.8512 -1.5248
  5324G12c C02I98841   4.852   7.275   8.424  0.9479 -0.5870 -0.3443
  5324G12c C02N98842   4.892   7.216   8.305 -2.7367 -0.0507  0.3144
  5324G12c H01M98843   4.868   7.111   8.294  3.6968 -1.6971 -0.1977
  5324G12c C02O98844   4.978   7.258   8.192 -0.0138  0.0873  1.3210
  5324G12c H01L98845   5.049   7.339   8.194  0.6235 -0.1163 -4.0340
  5324G12c C02P98846   4.999   7.180   8.076 -1.2902  2.3183 -1.5131
  5324G12c H01K98847   5.072   7.109   8.115  0.4170  5.9592  2.3112
  5324G12c H01J98848   4.927   7.130   8.010 -1.0466 -2.5974  1.7181
  5324G12c O00H98849   5.036   7.264   7.953 -0.2449 -0.4210  0.1703
  5324G12c H01I98850   4.977   7.240   7.884  0.8138 -0.2162 -0.8122
  5324G12c C02H98851   4.864   7.410   8.453  0.7013  1.1467 -0.7813
  5324G12c H01C98852   4.936   7.476   8.408  1.8757  1.2933  1.2449
  5324G12c C02L98853   4.841   7.460   8.561  0.4458  0.2024 -1.1294
  5324G12c H01D98854   4.854   7.564   8.587  5.7017  0.4829 -4.0843
  5324G12c C01398855   4.961   7.572   9.217  0.5956  0.2736 -0.2527
  5324G12c H00098856   4.997   7.473   9.193 -1.7898 -0.6419 -0.1590
  5324G12c C01498857   4.967   7.629   9.346 -0.2727  0.3927 -0.6606
  5324G12c C00F98858   4.999   7.567   9.464  0.8061  1.6718  1.2630
  5324G12c C00H98859   5.117   7.758   9.536  0.1514 -0.5525  0.0132
  5324G12c C00I98860   5.196   7.820   9.629 -0.6321  1.1985 -0.5384
  5324G12c C00J98861   5.196   7.958   9.632  0.4001 -0.9276  0.6328
  5324G12c C00Z98862   4.892   7.991   9.257  1.5087 -2.1529  1.5731
  5324G12c C00Y98863   4.811   8.069   9.168  0.7638  0.1809 -0.0438
  5324G12c H00698864   4.768   8.039   9.073  4.8231 -1.9459 -1.3065
  5324G12c C00X98865   4.785   8.208   9.195  0.7615 -1.9077 -0.6226
  5324G12c O00398866   4.714   8.293   9.118  0.6986  0.8323  1.2177
  5324G12c C01B98867   4.767   8.287   8.980  1.0589 -1.4139 -0.1232
  5324G12c H00998868   4.832   8.203   8.957 -0.1294 -1.2251 -4.6451
  5324G12c H00898869   4.838   8.354   9.028 -3.0093  2.0770  1.4169
  5324G12c H00798870   4.703   8.320   8.898  1.2990 -0.0194  0.2249
  5324G12c C00W98871   4.843   8.254   9.311  0.6400 -1.3997  1.3231
  5324G12c O00498872   4.788   8.369   9.354  0.0508 -0.7200  0.4061
  5324G12c C01C98873   4.807   8.398   9.485 -0.2685  0.0516 -1.1466
  5324G12c H00A98874   4.757   8.486   9.523  3.4853 -0.3265  5.4466
  5324G12c C00P98875   4.895   8.332   9.574 -0.3340 -1.2136  1.4475
  5324G12c C00O98876   4.905   8.361   9.710  1.0754  0.8648 -1.4949
  5324G12c C01D98877   4.791   8.457   9.755 -2.1347 -1.9868 -0.8887
  5324G12c H00S98878   4.735   8.510   9.680  2.3708  0.8497 -2.3954
  5324G12c C01E98879   4.795   8.511   9.888 -0.2521  0.9292 -0.5641
  5324G12c O00898880   4.699   8.600   9.926  1.3206 -1.0707 -0.6864
  5324G12c C01V98881   4.722   8.670  10.055  0.9802 -0.5624  0.3257
  5324G12c C01Z98882   4.612   8.659  10.153  0.6231 -1.2671 -1.8159
  5324G12c H00R98883   4.645   8.682  10.254  2.9823  1.1347 -3.0943
  5324G12c H00Q98884   4.568   8.758  10.141 -2.9045 -2.3540  1.1440
  5324G12c O00998885   4.534   8.534  10.143 -0.1004  0.9262  1.3854
  5324G12c H00P98886   4.454   8.584  10.145 -2.1225 -2.1825  0.2729
  5324G12c C01W98887   4.839   8.728  10.063 -1.4902 -0.4853 -1.0431
  5324G12c H00O98888   4.859   8.759  10.164  4.4777 -1.3093 -1.7555
  5324G12c C01X98889   4.938   8.776   9.968 -0.4795  0.5352  0.4914
  5324G12c H00N98890   5.007   8.695   9.989 -2.2946 -1.5030 -1.2497
  5324G12c H00M98891   4.947   8.730   9.870  2.5913  1.6878  0.1762
  5324G12c C01Y98892   4.973   8.918   9.940  0.4862 -0.3589  0.9654
  5324G12c C02D98893   5.100   8.963   9.962 -0.3975  0.3720 -0.0683
  5324G12c H01998894   5.155   8.895  10.025  3.7563  2.3874 -1.3323
  5324G12c C02C98895   5.115   9.100   9.943 -0.8832  0.0821 -0.5037
  5324G12c H01A98896   5.208   9.123   9.993 -3.2927  2.3319  3.1434
  5324G12c C02B98897   5.047   9.163   9.835  1.7002  1.9039 -0.8200
  5324G12c O00E98898   5.078   9.258   9.763  0.7191  0.7343  0.1130
  5324G12c H01B98899   5.008   9.301   9.716  0.8549  5.6208  4.0287
  5324G12c C02F98900   4.917   9.106   9.803  1.0656 -0.6387  0.8052
  5324G12c O00F98901   4.824   9.196   9.729  0.1515  1.3414  0.5090
  5324G12c C02G98902   4.708   9.149   9.651  2.5741  0.8820  0.0646
  5324G12c H01798903   4.657   9.223   9.590  2.7163 -0.6811 -1.9803
  5324G12c H01698904   4.699   9.076   9.571  2.6715  3.8606 -2.7772
  5324G12c H01598905   4.631   9.115   9.719  1.5410 -2.7428 -2.7646
  5324G12c C02E98906   4.887   8.966   9.853  0.4493 -0.8823 -1.1108
  5324G12c H01898907   4.791   8.931   9.818  1.4331 -4.3984 -0.4592
  5324G12c C01F98908   4.872   8.441   9.979 -0.4657  0.3082  1.1938
  5324G12c C01G98909   4.849   8.406  10.115 -2.9982 -0.0929 -0.8550
  5324G12c H00L98910   4.760   8.399  10.177  1.4975 -6.5583  5.7999
  5324G12c C01H98911   4.942   8.339  10.206  0.3789  0.6281 -0.9880
  5324G12c H00B98912   4.893   8.328  10.301 -0.7962  4.4710 -1.0758
  5324G12c C01I98913   5.065   8.296  10.144  1.5529 -1.1866 -0.4256
  5324G12c C01U98914   5.001   8.397   9.937 -0.1080  0.1787 -0.6219
  5324G12c C00S98915   5.107   8.024   9.554 -0.1296  0.9696 -0.5654
  5324G12c C00K98916   5.205   8.031   9.753 -0.8861  0.3178 -1.9597
  5324G12c C00N98917   5.011   8.347   9.804 -0.9766  1.6822  0.6554
  5324G12c C00098918   5.095   8.338  10.013 -0.2713 -2.0540 -0.0890
  5324G12c C01J98919   5.155   8.173  10.166  0.6272 -0.1810 -1.4125
  5324G12c C01K98920   5.181   8.092  10.288  1.6310  0.0234  1.6268
  5324G12c C01P98921   5.179   8.116  10.429  2.2156 -0.2028 -0.6384
  5324G12c C01Q98922   5.179   8.268  10.457  0.1183  0.6659  1.4737
  5324G12c H00G98923   5.235   8.326  10.385 -0.0737  4.6963  4.4025
  5324G12c C01R98924   5.165   8.326  10.576  1.6471  0.0611 -1.2442
  5324G12c H00F98925   5.163   8.267  10.667  2.4677  4.2331  1.6058
  5324G12c C01S98926   5.223   8.467  10.584  0.1436 -0.8526  0.7140
  5324G12c H00E98927   5.159   8.521  10.514 -1.3303  0.2320  2.8532
  5324G12c H00D98928   5.240   8.497  10.687  2.3391  1.7755 -0.3310
  5324G12c O00598929   5.351   8.460  10.512  0.8071  0.0813 -1.2761
  5324G12c H00C98930   5.322   8.503  10.433 -1.4286  2.9177  0.9915
  5324G12c C01O98931   5.187   8.023  10.529 -0.3734 -0.6127  0.0300
  5324G12c H00H98932   5.174   8.041  10.634 -2.6461  3.0589 -0.8063
  5324G12c C01N98933   5.183   7.885  10.488  0.2584  0.3103 -0.4380
  5324G12c O00698934   5.122   7.797  10.571 -1.5147  1.9968 -0.5567
  5324G12c C01T98935   5.140   7.652  10.568 -1.7446 -0.4769  0.6853
  5324G12c H00K98936   5.080   7.612  10.487  0.2544 -1.9763 -0.0829
  5324G12c H00J98937   5.233   7.632  10.515 -2.6024 -2.3678 -0.1694
  5324G12c H00I98938   5.135   7.606  10.666 -2.2509  0.3289  1.0446
  5324G12c C01M98939   5.181   7.863  10.355  0.3500  0.2118 -0.4606
  5324G12c C02098940   5.242   7.947   9.869 -0.6118  1.8142 -0.8592
  5324G12c C02198941   5.279   7.807   9.851 -1.2262  0.4390 -1.4653
  5324G12c C01L98942   5.191   7.963  10.255  0.2178 -0.1265 -0.0410
  5324G12c O00798943   5.182   7.742  10.314  0.2826  0.4121  0.2147
  5324G12c C02298944   5.239   7.731   9.958 -0.6606  0.0879  0.7662
  5324G12c C02398945   5.250   7.742   9.739 -0.3164  2.4599  0.3831
  5324G12c C00G98946   5.080   7.625   9.568 -1.2733  0.4800  0.3382
  5324G12c C00E98947   4.943   7.430   9.473 -0.0578 -0.5956  0.2149
  5324G12c O00A98948   4.834   7.377   9.389  0.9616 -1.2554 -1.2539
  5324G12c C02498949   4.703   7.420   9.423  0.5011  1.1250  0.4149
  5324G12c H00V98950   4.688   7.496   9.346  1.0410  0.8066 -0.0112
  5324G12c H00U98951   4.677   7.465   9.518  0.3596  5.8737 -1.7231
  5324G12c H00T98952   4.630   7.359   9.369  0.3927  2.8859 -1.4805
  5334G12c C00D98953   1.125   2.498  11.847  0.9348  0.9814  0.3202
  5334G12c O00B98954   1.234   2.588  11.901 -0.5818  0.5319  0.1253
  5334G12c C02598955   1.370   2.560  11.904 -1.3119  0.5714  1.2811
  5334G12c C02698956   1.448   2.563  11.775 -1.4773 -0.0790 -0.8715
  5334G12c H00Y98957   1.532   2.633  11.768 -3.0272  1.8100 -0.8856
  5334G12c H00X98958   1.387   2.619  11.705 -0.3769 -1.6179 -3.1278
  5334G12c O00C98959   1.479   2.423  11.751 -0.8010 -0.6487  0.0256
  5334G12c H00W98960   1.527   2.392  11.826  0.5774  2.0899  0.3448
  5334G12c C02798961   1.435   2.540  12.012 -1.1601  0.6441 -0.5251
  5334G12c O00D98962   1.570   2.532  12.006 -0.3884 -0.4729 -0.8594
  5334G12c H00Z98963   1.596   2.481  12.082  3.7412  1.9865 -0.5053
  5334G12c C02898964   1.372   2.510  12.140 -1.3004  0.5179  0.5873
  5334G12c C02998965   1.250   2.437  12.166 -0.5326  0.2190 -1.4237
  5334G12c H01098966   1.199   2.378  12.091 -7.6868  3.0412  0.7847
  5334G12c C02T98967   1.188   2.423  12.281  1.2521  1.5804 -0.1593
  5334G12c H01O98968   1.100   2.361  12.285  2.1766  0.2031 -0.6572
  5334G12c C02S98969   1.233   2.477  12.393  0.9024  1.0881 -1.6896
  5334G12c O00J98970   1.169   2.468  12.513  0.0857 -0.3114 -1.0687
  5334G12c H01P98971   1.212   2.538  12.559  3.1641 -5.9489  5.7183
  5334G12c C02R98972   1.353   2.565  12.386  1.4024 -0.5280 -0.8272
  5334G12c O00I98973   1.411   2.601  12.512 -0.9697 -0.0847  1.0634
  5334G12c C02Q98974   1.390   2.733  12.531 -0.9926  0.2271 -1.5377
  5334G12c H01N98975   1.478   2.791  12.503 -2.3255  1.2764 -3.6675
  5334G12c H01R98976   1.318   2.784  12.468 -4.4078 -4.5601 -1.7737
  5334G12c H01Q98977   1.343   2.767  12.623  0.6707  1.4017 -1.0992
  5334G12c C02A98978   1.422   2.573  12.258 -0.7155  0.5451 -1.5076
  5334G12c H01198979   1.504   2.630  12.218  3.1045 -3.3152  0.4980
  5334G12c C00C98980   1.149   2.359  11.846 -0.2638 -0.1530 -0.0101
  5334G12c H01298981   1.249   2.336  11.881  2.8832  6.1339 -3.9163
  5334G12c C00B98982   1.056   2.271  11.786  0.3292 -0.0670  2.2451
  5334G12c C00A98983   1.079   2.138  11.738 -0.1611 -0.3454 -0.8493
  5334G12c C00998984   1.191   2.079  11.656  1.2505 -2.1455 -2.2340
  5334G12c C00898985   1.285   2.149  11.581  0.0824 -1.0938 -0.8059
  5334G12c H01398986   1.330   2.236  11.626  0.6644 -0.5424 -2.4017
  5334G12c C00798987   1.323   2.112  11.456 -1.0759  1.0356 -0.8251
  5334G12c H01498988   1.377   2.179  11.391  2.8170 -2.6419 -1.6776
  5334G12c C00698989   1.250   2.009  11.404 -0.6950 -1.3000  0.7393
  5334G12c C00598990   1.155   1.942  11.472  1.3991 -0.1777 -0.3329
  5334G12c C00498991   1.059   1.857  11.399 -1.7627  0.8321 -0.8105
  5334G12c C00398992   0.932   1.829  11.461 -0.5923  0.2155 -0.0434
  5334G12c C00298993   0.841   1.769  11.369 -1.3904 -0.5899  0.1579
  5334G12c C00198994   0.709   1.743  11.385  1.2911  2.3748  1.4072
  5334G12c C00M98995   0.596   1.805  11.446 -0.5740  0.7101 -0.7670
  5334G12c C00L98996   0.611   1.864  11.565 -0.9294  1.2715 -0.9794
  5334G12c C00R98997   0.531   1.984  11.600  2.4321 -1.2967 -0.5675
  5334G12c C00Q98998   0.409   2.038  11.555  1.2769  0.2853  0.5378
  5334G12c C00V98999   0.365   2.146  11.628  0.4684 -1.2537 -1.8575
  5334G12c C00U99000   0.456   2.241  11.675  1.0063 -0.7572  0.3670
  5334G12c C00T99001   0.588   2.202  11.681 -0.5368 -0.0016  0.4943
  5334G12c C01699002   0.701   2.283  11.701  0.4631  0.9115 -1.2331
  5334G12c C01599003   0.675   2.418  11.729  0.2037  0.8633 -1.7087
  5334G12c C01099004   0.543   2.462  11.710 -0.1893 -0.4647 -0.3526
  5334G12c C01199005   0.504   2.585  11.759  0.2842  0.2259 -0.6749
  5334G12c H00599006   0.406   2.625  11.740 -0.3546 -1.4659 -1.0191
  5334G12c C01299007   0.588   2.684  11.814  1.5005  0.9450 -0.2291
  5334G12c C01799008   0.553   2.827  11.850 -1.9435 -0.9349 -0.7056
  5334G12c O00299009   0.609   2.872  11.963 -1.0692 -0.5564 -0.6999
  5334G12c H00499010   0.646   2.792  11.997 -0.3656  1.1903  2.8489
  5334G12c C01899011   0.466   2.894  11.772  0.8574 -0.8631 -1.0488
  5334G12c O00199012   0.449   2.872  11.630 -0.5296  1.2977 -0.1299
  5334G12c H00399013   0.398   2.945  11.599  0.0905  2.2692  1.1059
  5334G12c C01999014   0.434   3.036  11.792 -0.5972 -1.3629  0.7456
  5334G12c H00299015   0.417   3.042  11.899 -1.4252  0.0387  0.5487
  5334G12c H00199016   0.519   3.085  11.744  0.4771  0.5210  4.3750
  5334G12c O00099017   0.337   3.068  11.707 -0.1936 -1.2187  0.6694
  5334G12c C01A99018   0.204   3.119  11.733 -0.3915  1.0944  0.7012
  5334G12c C02K99019   0.156   3.239  11.659  0.3837  0.4018 -0.2496
  5334G12c O00G99020   0.255   3.293  11.583  2.2283 -1.5971 -0.4635
  5334G12c C02M99021   0.226   3.322  11.447 -0.2209  0.1348  0.7122
  5334G12c H01G99022   0.295   3.310  11.363  3.2899 -2.7268  3.8426
  5334G12c H01F99023   0.200   3.427  11.439  3.9104  1.2465  1.0388
  5334G12c H01E99024   0.130   3.280  11.416 -1.2942  0.6524  3.2503
  5334G12c C02J99025   0.018   3.270  11.650 -1.1270  0.0574 -0.7640
  5334G12c H01H99026   0.008   3.375  11.626  7.0918  1.8143  1.7930
  5334G12c C02I99027  -0.056   3.191  11.743  0.4248  0.1227 -2.0654
  5334G12c C02N99028  -0.205   3.192  11.757  0.1617 -1.2118 -0.9250
  5334G12c H01M99029  -0.255   3.163  11.848  1.8544 -0.7889  0.1793
  5334G12c C02O99030  -0.285   3.225  11.650 -1.1867  0.0434 -0.2392
  5334G12c H01L99031  -0.248   3.275  11.562  2.1802  2.6672  2.4915
  5334G12c C02P99032  -0.432   3.234  11.658  0.1547 -1.3689 -2.0010
  5334G12c H01K99033  -0.459   3.154  11.727 -0.0925  2.0545  2.0151
  5334G12c H01J99034  -0.481   3.222  11.561  2.1196 -2.3907 -2.9040
  5334G12c O00H99035  -0.457   3.361  11.715  0.4592 -0.5836  1.5247
  5334G12c H01I99036  -0.550   3.371  11.728  0.1391 -4.0581  2.6192
  5334G12c C02H99037  -0.002   3.082  11.825  0.7336  0.5615  0.8074
  5334G12c H01C99038  -0.054   3.009  11.887 -0.7246  1.5860  0.8166
  5334G12c C02L99039   0.119   3.035  11.798 -0.2652  1.4996 -1.2912
  5334G12c H01D99040   0.162   2.972  11.874 -1.5488  7.0098  4.4907
  5334G12c C01399041   0.724   2.640  11.828 -1.4230  2.0650 -1.0760
  5334G12c H00099042   0.802   2.694  11.878  1.2930 -3.5108  1.1632
  5334G12c C01499043   0.766   2.511  11.785  0.1748 -0.3658  1.3489
  5334G12c C00F99044   0.895   2.473  11.800  0.9643 -1.1673 -0.3390
  5334G12c C00H99045   0.828   2.236  11.740  0.7341  1.8264 -0.3090
  5334G12c C00I99046   0.844   2.101  11.717  1.2965 -0.2444  0.4351
  5334G12c C00J99047   0.728   2.021  11.679  0.5511 -0.1439 -0.5068
  5334G12c C00Z99048   0.433   2.380  11.678 -1.5817  1.5662  0.9910
  5334G12c C00Y99049   0.300   2.405  11.673  1.0377  0.7973  0.5333
  5334G12c H00699050   0.262   2.500  11.706  5.9185  1.8514  3.6161
  5334G12c C00X99051   0.197   2.320  11.635 -1.4998 -1.3765 -1.4249
  5334G12c O00399052   0.072   2.380  11.619 -0.5535 -0.6656 -1.5533
  5334G12c C01B99053   0.043   2.403  11.482  1.4512 -1.4162  1.0367
  5334G12c H00999054   0.036   2.306  11.433 -0.1904  0.4164 -2.5546
  5334G12c H00899055   0.092   2.474  11.416 -0.9802  2.5625  3.2712
  5334G12c H00799056  -0.063   2.424  11.469  1.1481  0.0836  5.1822
  5334G12c C00W99057   0.235   2.203  11.598 -0.4818  0.0129 -2.1334
  5334G12c O00499058   0.149   2.139  11.503 -0.2885  1.0509 -0.6808
  5334G12c C01C99059   0.176   2.002  11.491  0.2454 -0.6291  1.4935
  5334G12c H00A99060   0.088   1.943  11.470 -0.6895  2.3934 -3.9314
  5334G12c C00P99061   0.315   1.953  11.476  0.9011 -1.7075 -0.2277
  5334G12c C00O99062   0.386   1.904  11.354 -0.1351 -0.4211 -0.3647
  5334G12c C01D99063   0.320   1.900  11.233 -1.7962  2.1594 -0.6038
  5334G12c H00S99064   0.214   1.908  11.216 -4.0899 -7.4289  5.2348
  5334G12c C01E99065   0.377   1.842  11.110 -0.4356  0.2725  0.4049
  5334G12c O00899066   0.292   1.808  10.990  0.2663  0.1344  0.5217
  5334G12c C01V99067   0.161   1.863  10.988 -1.1564  0.2526 -2.9114
  5334G12c C01Z99068   0.125   1.985  10.925  0.0501 -0.0778  0.5167
  5334G12c H00R99069   0.208   2.048  10.891 -3.4806  5.3493  1.4037
  5334G12c H00Q99070   0.088   2.001  10.823  1.5419  3.6865  0.4497
  5334G12c O00999071   0.074   2.066  11.021 -0.3627 -0.3829 -0.0008
  5334G12c H00P99072   0.095   2.157  11.011  6.0892 -1.4629  1.8694
  5334G12c C01W99073   0.070   1.794  11.050  0.0707  0.5759  0.1179
  5334G12c H00O99074   0.120   1.703  11.081  1.5592  1.8181  1.4818
  5334G12c C01X99075  -0.086   1.822  11.072  0.2807  0.8656  0.0124
  5334G12c H00N99076  -0.115   1.788  11.171 -4.1248 -2.2952 -2.2052
  5334G12c H00M99077  -0.106   1.927  11.048  1.0924  2.1224  4.3126
  5334G12c C01Y99078  -0.211   1.754  11.025  1.4887 -0.1205  1.6996
  5334G12c C02D99079  -0.193   1.656  10.935  1.3019  0.1663 -0.1693
  5334G12c H01999080  -0.090   1.633  10.911  1.7835 -0.4661  2.3899
  5334G12c C02C99081  -0.292   1.574  10.885 -0.2592  0.0658 -2.2134
  5334G12c H01A99082  -0.262   1.520  10.797 -0.0713  0.3760 -2.3420
  5334G12c C02B99083  -0.430   1.605  10.939  1.1123 -0.3972  1.2460
  5334G12c O00E99084  -0.522   1.568  10.852  0.8998  0.5410 -0.1670
  5334G12c H01B99085  -0.584   1.639  10.851  3.6675  3.0345  0.7808
  5334G12c C02F99086  -0.459   1.706  11.034  0.6053  0.0894 -0.1733
  5334G12c O00F99087  -0.587   1.763  11.059  0.4969 -0.4978 -1.1675
  5334G12c C02G99088  -0.706   1.689  11.039 -0.9696  0.4193  0.1782
  5334G12c H01799089  -0.754   1.680  10.941 -2.6603  0.0719  1.0290
  5334G12c H01699090  -0.746   1.598  11.082  0.4976  0.7630  2.3096
  5334G12c H01599091  -0.761   1.758  11.103 -3.0320 -4.1108  3.5708
  5334G12c C02E99092  -0.359   1.779  11.061 -0.4659 -0.3057  0.6781
  5334G12c H01899093  -0.390   1.876  11.095  3.7880  2.5780 -2.9869
  5334G12c C01F99094   0.489   1.766  11.101  1.7221  0.5035  0.6166
  5334G12c C01G99095   0.583   1.730  10.990 -0.6698  0.5816  0.4506
  5334G12c H00L99096   0.546   1.735  10.888 -3.2742 -1.0663  1.2642
  5334G12c C01H99097   0.723   1.713  11.016  0.2552  0.1280  0.0069
  5334G12c H00B99098   0.775   1.683  10.926  4.4868  3.5063  1.1430
  5334G12c C01I99099   0.775   1.718  11.153  0.6783  0.8314  3.1581
  5334G12c C01U99100   0.544   1.741  11.227  0.0928 -0.4117 -0.1811
  5334G12c C00S99101   0.602   2.058  11.687  0.7467 -2.2410 -1.3416
  5334G12c C00K99102   0.742   1.908  11.607  0.2615  0.2851  1.3973
  5334G12c C00N99103   0.503   1.817  11.336 -1.2254 -0.2002 -0.3079
  5334G12c C00099104   0.671   1.700  11.252 -0.8636 -0.7008 -0.7007
  5334G12c C01J99105   0.887   1.743  11.232  0.4783 -0.5945 -1.6733
  5334G12c C01K99106   1.019   1.727  11.178 -0.9845 -0.4476  1.8953
  5334G12c C01P99107   1.083   1.681  11.056  1.0042  0.2478  1.1185
  5334G12c C01Q99108   1.009   1.579  10.977 -0.1155  0.0876  1.1959
  5334G12c H00G99109   1.020   1.610  10.874 -1.3659  3.4980  2.0294
  5334G12c C01R99110   0.941   1.479  11.040 -1.2841  0.1473 -1.7249
  5334G12c H00F99111   0.950   1.490  11.147 -0.6861  6.3564 -2.2590
  5334G12c C01S99112   0.839   1.395  10.978 -0.6637  1.5790 -1.2093
  5334G12c H00E99113   0.853   1.392  10.870 -5.9533 -3.0708 -1.9781
  5334G12c H00D99114   0.836   1.295  11.019 -0.4026  0.5077 -3.6749
  5334G12c O00599115   0.698   1.434  10.989  0.5268 -0.6188  0.6034
  5334G12c H00C99116   0.696   1.456  11.081  0.2238  3.8149 -0.3555
  5334G12c C01O99117   1.205   1.724  11.014  0.2777 -0.1964 -0.9298
  5334G12c H00H99118   1.234   1.668  10.927 -5.2972 -4.0716 -0.5730
  5334G12c C01N99119   1.274   1.823  11.101  1.0305  0.7157  0.2954
  5334G12c O00699120   1.354   1.921  11.053 -1.3266  0.8162  0.0575
  5334G12c C01T99121   1.453   1.855  10.976  2.2974 -0.9990 -1.1621
  5334G12c H00K99122   1.501   1.938  10.924 -0.9510  2.9943  1.8595
  5334G12c H00J99123   1.420   1.793  10.893 -0.4571 -0.2153 -0.7092
  5334G12c H00I99124   1.538   1.802  11.021 -1.3042 -2.9829  3.7508
  5334G12c C01M99125   1.216   1.856  11.229  0.5665  0.0854 -0.0418
  5334G12c C02099126   0.889   1.886  11.584 -2.1853  1.8966  0.1992
  5334G12c C02199127   0.991   1.954  11.659  0.8784 -0.9857 -0.5885
  5334G12c C01L99128   1.102   1.806  11.270  0.7017  1.2663  1.0353
  5334G12c O00799129   1.257   1.977  11.276 -1.1911 -0.5488  0.3258
  5334G12c C02299130   1.123   1.962  11.613 -0.5628  1.2131  1.6042
  5334G12c C02399131   0.967   2.058  11.744 -1.0537  1.4594  0.4787
  5334G12c C00G99132   0.930   2.326  11.778 -0.0288  0.1903 -0.2840
  5334G12c C00E99133   1.008   2.563  11.806 -1.3363  2.1380  0.3599
  5334G12c O00A99134   1.003   2.697  11.809 -0.6436  0.6688  0.5624
  5334G12c C02499135   0.998   2.771  11.684  0.3462  1.0021 -1.4347
  5334G12c H00V99136   0.890   2.776  11.675 -0.4452 -6.3704  0.8150
  5334G12c H00U99137   1.021   2.697  11.606 -1.8410  0.4346 -1.5742
  5334G12c H00T99138   1.066   2.856  11.680  4.2083 -1.9942 -3.7647
  5344G12c C00D99139  12.810   0.259  12.432 -2.5312  0.6746  0.5245
  5344G12c O00B99140  12.830   0.400  12.417  0.0603  1.5004  0.1878
  5344G12c C02599141  12.951   0.464  12.456  0.0912  1.0880 -0.9727
  5344G12c C02699142  12.976   0.597  12.373 -2.1105  0.7502  0.1234
  5344G12c H00Y99143  13.035   0.663  12.437 -0.4903  0.5533 -1.1282
  5344G12c H00X99144  12.877   0.642  12.379 -1.1646  2.8273  0.6966
  5344G12c O00C99145  13.057   0.610  12.265  0.1393  1.3640  0.5341
  5344G12c H00W99146  13.036   0.689  12.219  0.1623  3.6661  4.2921
  5344G12c C02799147  13.035   0.417  12.557 -0.0672  1.0278 -1.5396
  5344G12c O00D99148  13.000   0.298  12.624  0.3571 -0.2796  1.3337
  5344G12c H00Z99149  13.048   0.234  12.574  1.2520 -0.4322  2.3631
  5344G12c C02899150  13.112   0.517  12.617 -1.3122  1.1602 -0.0084
  5344G12c C02999151  13.236   0.564  12.561  0.8437 -0.6951  0.9382
  5344G12c H01099152  13.261   0.525  12.463 -1.2044  2.1857 -0.8264
  5344G12c C02T99153  13.313   0.674  12.594 -0.9823  0.5276  0.1577
  5344G12c H01O99154  13.393   0.699  12.525 -3.2764  0.9530 -2.4111
  5344G12c C02S99155  13.281   0.730  12.715 -0.1593  1.5958 -1.0361
  5344G12c O00J99156  13.358   0.826  12.775 -1.6351  0.3302  0.2409
  5344G12c H01P99157  13.379   0.817  12.866  0.1581 -3.7675 -0.4752
  5344G12c C02R99158  13.177   0.678  12.793 -0.1297  0.9422 -0.5256
  5344G12c O00I99159  13.181   0.679  12.935  0.7905  0.1726 -0.9888
  5344G12c C02Q99160  13.144   0.808  12.991  0.2616  0.5851  0.2206
  5344G12c H01N99161  13.038   0.783  12.997 -0.5366  3.2106 -1.5688
  5344G12c H01R99162  13.167   0.905  12.946  0.1833  1.4077  1.9113
  5344G12c H01Q99163  13.178   0.795  13.094 -5.0575 -1.0706  1.9251
  5344G12c C02A99164  13.091   0.579  12.747 -2.2166  2.3157 -1.7932
  5344G12c H01199165  13.027   0.556  12.832  3.4071  3.6329  3.1108
  5344G12c C00C99166  12.689   0.205  12.468  0.0314  1.5499 -0.7643
  5344G12c H01299167  12.601   0.260  12.499 -1.1591 -0.1222 -1.0921
  5344G12c C00B99168  12.662   0.065  12.479  0.8454 -1.9991 -0.4411
  5344G12c C00A99169  12.530   0.005  12.537  1.7126  0.9268 -1.4400
  5344G12c C00999170  12.415   0.033  12.633  0.2511 -0.4997  0.4531
  5344G12c C00899171  12.387   0.117  12.735  0.0811  0.9444  0.0314
  5344G12c H01399172  12.448   0.203  12.758  2.6544 -0.2597 -2.0331
  5344G12c C00799173  12.317   0.064  12.837  1.0241  2.2523 -1.4130
  5344G12c H01499174  12.340   0.122  12.925  4.8276  3.4741 -3.0947
  5344G12c C00699175  12.283  -0.074  12.876 -0.8773 -0.2778  1.1324
  5344G12c C00599176  12.320  -0.164  12.777 -0.4326 -1.5672 -0.5920
  5344G12c C00499177  12.299  -0.290  12.789  2.7319 -0.3015  0.5926
  5344G12c C00399178  12.357  -0.381  12.694 -0.4882  0.4300  0.0022
  5344G12c C00299179  12.302  -0.513  12.691 -0.8622  1.4136 -0.1900
  5344G12c C00199180  12.356  -0.637  12.636 -0.9715 -0.2132 -1.5133
  5344G12c C00M99181  12.486  -0.663  12.557  0.1584 -0.6958 -0.2434
  5344G12c C00L99182  12.554  -0.577  12.471 -1.2207  0.1747 -0.1928
  5344G12c C00R99183  12.702  -0.572  12.445 -0.2229  0.1263 -0.2042
  5344G12c C00Q99184  12.808  -0.659  12.466 -0.0353 -0.5930 -0.8592
  5344G12c C00V99185  12.929  -0.591  12.465 -0.9326 -2.2297  0.2311
  5344G12c C00U99186  12.951  -0.455  12.464  0.2351 -1.8081  2.2905
  5344G12c C00T99187  12.842  -0.379  12.436 -1.4614 -0.5282 -1.0581
  5344G12c C01699188  12.861  -0.235  12.433 -1.2883  0.2098  1.5176
  5344G12c C01599189  12.984  -0.182  12.450 -0.3432  0.5476  1.1757
  5344G12c C01099190  13.086  -0.258  12.495 -0.4406  0.9102  0.1477
  5344G12c C01199191  13.214  -0.189  12.524  0.9917 -1.0496  0.4928
  5344G12c H00599192  13.293  -0.253  12.561  1.9227 -2.1586 -3.2536
  5344G12c C01299193  13.236  -0.069  12.476 -1.5393  0.6884  0.9197
  5344G12c C01799194  13.380  -0.055  12.455 -0.9568 -1.7334 -0.9924
  5344G12c O00299195  13.477  -0.076  12.552  1.4321 -0.1031 -0.1177
  5344G12c H00499196  13.453  -0.107  12.638  0.4335 -1.5025 -0.8865
  5344G12c C01899197  13.422  -0.010  12.341 -0.8084 -2.5457  0.4208
  5344G12c O00199198  13.347  -0.019  12.228  0.4447 -0.6047  0.4257
  5344G12c H00399199  13.372  -0.021  12.137  2.4672 -0.5790  0.9544
  5344G12c C01999200  13.570   0.022  12.324  0.7361 -0.9591 -1.6376
  5344G12c H00299201  13.626   0.067  12.405  1.8801 -1.0161 -2.3857
  5344G12c H00199202  13.590  -0.084  12.309  3.3469  0.0469 -6.2124
  5344G12c O00099203  13.627   0.109  12.218  0.5440  0.9248 -0.9027
  5344G12c C01A99204  13.615   0.240  12.207  1.8474  0.5860 -2.1697
  5344G12c C02K99205  13.732   0.309  12.200  0.1339 -1.6452 -0.3472
  5344G12c O00G99206  13.841   0.233  12.201  1.5143  0.4774 -0.2266
  5344G12c C02M99207  13.971   0.270  12.226  1.0215 -1.0156 -0.2632
  5344G12c H01G99208  14.016   0.173  12.249 -0.6304 -1.4584  1.2028
  5344G12c H01F99209  13.965   0.324  12.320  0.0431  1.4056 -1.6723
  5344G12c H01E99210  14.024   0.300  12.135 -0.4235  5.0139  0.6754
  5344G12c C02J99211  13.755   0.451  12.223  0.7192 -1.9721  1.4078
  5344G12c H01H99212  13.836   0.519  12.201 -0.7149 -1.1376 -1.7038
  5344G12c C02I99213  13.639   0.530  12.260 -0.7857  0.7607 -0.9375
  5344G12c C02N99214  13.657   0.668  12.309  0.0259 -0.8290  0.5540
  5344G12c H01M99215  13.576   0.737  12.291 -0.7528  0.6386  8.1143
  5344G12c C02O99216  13.750   0.701  12.389  0.1464  0.1172 -0.5126
  5344G12c H01L99217  13.827   0.630  12.416 -0.3961  1.3728  4.8786
  5344G12c C02P99218  13.748   0.834  12.441 -0.3353 -0.9554  0.7539
  5344G12c H01K99219  13.774   0.908  12.365 -0.3440 -3.2685 -1.5517
  5344G12c H01J99220  13.678   0.898  12.494  2.6962  5.3598 -2.2470
  5344G12c O00H99221  13.863   0.845  12.515  0.1098 -1.8473 -0.6428
  5344G12c H01I99222  13.845   0.855  12.607 -3.2700 -1.5941 -1.2847
  5344G12c C02H99223  13.515   0.453  12.257  0.0156 -0.4166 -2.0091
  5344G12c H01C99224  13.416   0.497  12.257  1.8743  3.9938 -2.6506
  5344G12c C02L99225  13.489   0.320  12.239  0.0803  0.3320 -0.0392
  5344G12c H01D99226  13.386   0.286  12.240 -0.5460  2.0751  3.7778
  5344G12c C01399227  13.122   0.011  12.429  0.0612  0.6756  0.0357
  5344G12c H00099228  13.154   0.110  12.401  4.7089 -1.3826 -2.4329
  5344G12c C01499229  13.003  -0.053  12.400  0.8839 -0.6252  1.0489
  5344G12c C00F99230  12.887   0.030  12.401 -1.1838  0.7843  0.2804
  5344G12c C00H99231  12.743  -0.159  12.441 -0.3973  1.2404  0.3810
  5344G12c C00I99232  12.611  -0.210  12.442 -0.5044 -0.6087 -0.9989
  5344G12c C00J99233  12.609  -0.358  12.430  0.4510  1.0145 -0.3905
  5344G12c C00Z99234  13.079  -0.406  12.484 -0.3693 -0.3784  0.4536
  5344G12c C00Y99235  13.188  -0.494  12.477  0.7489 -1.1617 -3.3287
  5344G12c H00699236  13.289  -0.463  12.455  0.6454  1.0050 -0.9618
  5344G12c C00X99237  13.169  -0.628  12.498 -0.2338 -0.5979  0.6267
  5344G12c O00399238  13.248  -0.729  12.482 -0.4388 -0.6253  0.0895
  5344G12c C01B99239  13.344  -0.743  12.575 -0.6398  1.2382  0.5966
  5344G12c H00999240  13.447  -0.746  12.540 -0.0420  1.4464  2.2742
  5344G12c H00899241  13.301  -0.817  12.643  0.2381  4.8980  5.3862
  5344G12c H00799242  13.344  -0.655  12.639 -1.3120  0.8445  1.1633
  5344G12c C00W99243  13.041  -0.675  12.495 -0.2930  0.8632 -0.9998
  5344G12c O00499244  13.024  -0.800  12.500 -1.9725  0.5051  1.2891
  5344G12c C01C99245  12.925  -0.841  12.564  0.1692 -0.2831  0.3498
  5344G12c H00A99246  12.928  -0.946  12.586  1.0924 -0.4080 -0.3586
  5344G12c C00P99247  12.797  -0.782  12.543 -0.4142 -0.2823 -0.9162
  5344G12c C00O99248  12.681  -0.826  12.608  0.5298  0.4064  1.2779
  5344G12c C01D99249  12.707  -0.921  12.727  1.5145  0.0044  0.8008
  5344G12c H00S99250  12.792  -0.987  12.720 -0.3063 -2.3397  0.2144
  5344G12c C01E99251  12.630  -0.944  12.834  0.0558 -0.9468  0.2373
  5344G12c O00899252  12.688  -1.017  12.925 -1.1711  0.3386 -1.0385
  5344G12c C01V99253  12.604  -1.099  13.002 -0.7095 -0.6977 -0.4373
  5344G12c C01Z99254  12.632  -1.105  13.146  0.9553  0.7555 -1.1538
  5344G12c H00R99255  12.614  -1.010  13.196  4.1230 -0.5566  2.7661
  5344G12c H00Q99256  12.608  -1.195  13.203  3.1108 -1.7339 -4.0012
  5344G12c O00999257  12.753  -1.136  13.162 -0.0510  0.0634  0.5760
  5344G12c H00P99258  12.775  -1.089  13.241  1.9249  0.8019 -0.3922
  5344G12c C01W99259  12.523  -1.191  12.951 -0.0369 -0.5132 -0.0460
  5344G12c H00O99260  12.500  -1.181  12.846 -1.9571 -4.8403 -0.1545
  5344G12c C01X99261  12.451  -1.311  13.008 -0.9185 -1.5403  0.1432
  5344G12c H00N99262  12.463  -1.316  13.116 -3.9459  0.3744  0.6135
  5344G12c H00M99263  12.351  -1.267  13.006  0.7545  2.4057 -1.2328
  5344G12c C01Y99264  12.480  -1.421  12.933 -0.0300  0.4327  0.2625
  5344G12c C02D99265  12.479  -1.549  13.001 -0.5548 -1.4075  0.5204
  5344G12c H01999266  12.481  -1.540  13.109  2.5661  6.6940  0.1486
  5344G12c C02C99267  12.485  -1.664  12.931  0.4585  0.7555  1.0886
  5344G12c H01A99268  12.485  -1.771  12.948 -3.0227  0.2744 -1.2491
  5344G12c C02B99269  12.499  -1.665  12.788  2.7127 -1.3887  0.0773
  5344G12c O00E99270  12.518  -1.772  12.729  0.8565  0.7536 -0.8049
  5344G12c H01B99271  12.548  -1.725  12.653  5.4231  0.4778  0.6643
  5344G12c C02F99272  12.473  -1.542  12.721  0.6095 -0.1011 -0.3553
  5344G12c O00F99273  12.472  -1.541  12.577 -0.9653  0.4719  0.9568
  5344G12c C02G99274  12.389  -1.444  12.512 -0.3320  0.2504  1.1024
  5344G12c H01799275  12.284  -1.460  12.536 -0.9051  1.3322 -0.6407
  5344G12c H01699276  12.417  -1.339  12.523 -1.4966  0.6051  0.7034
  5344G12c H01599277  12.401  -1.468  12.406 -1.7175 -0.8253  1.1769
  5344G12c C02E99278  12.469  -1.421  12.797  1.2199  0.8617 -0.6850
  5344G12c H01899279  12.455  -1.352  12.715  1.5418 -0.2565 -1.7066
  5344G12c C01F99280  12.507  -0.865  12.846  1.1112 -0.7614  1.0391
  5344G12c C01G99281  12.424  -0.847  12.963  0.7118 -0.1344 -1.8026
  5344G12c H00L99282  12.460  -0.888  13.056 -7.0420 -0.8751  1.2685
  5344G12c C01H99283  12.321  -0.759  12.959  0.4770  0.3993 -0.1597
  5344G12c H00B99284  12.315  -0.714  13.057 -0.3861 -5.2170  2.5447
  5344G12c C01I99285  12.290  -0.692  12.838  1.3976 -0.9833  0.8393
  5344G12c C01U99286  12.451  -0.823  12.716  0.3538 -0.1084  2.4477
  5344G12c C00S99287  12.722  -0.435  12.406  1.4215 -1.3569 -0.1923
  5344G12c C00K99288  12.510  -0.445  12.488 -0.8990 -0.2533 -1.3201
  5344G12c C00N99289  12.554  -0.769  12.628 -0.0345 -0.3854  0.3351
  5344G12c C00099290  12.334  -0.751  12.724 -0.4065  1.2265 -0.2735
  5344G12c C01J99291  12.240  -0.561  12.813 -0.9932  0.5402 -0.7078
  5344G12c C01K99292  12.186  -0.473  12.917  1.6223 -0.7948  0.7359
  5344G12c C01P99293  12.109  -0.508  13.028  0.7658 -0.1568 -0.3672
  5344G12c C01Q99294  12.024  -0.633  13.038 -0.5980 -0.2744 -0.3095
  5344G12c H00G99295  12.049  -0.727  12.990  1.5368  0.6385 -1.0237
  5344G12c C01R99296  11.896  -0.655  13.098  0.8238 -0.9383 -0.1801
  5344G12c H00F99297  11.859  -0.564  13.143  2.7203 -1.3911  2.3804
  5344G12c C01S99298  11.815  -0.790  13.091  0.3295 -0.7177  0.0060
  5344G12c H00E99299  11.811  -0.831  13.192  1.2993  2.5983  1.4446
  5344G12c H00D99300  11.719  -0.809  13.043  3.4369 -5.9196 -4.7826
  5344G12c O00599301  11.893  -0.883  13.021  0.0886 -1.0994 -0.2321
  5344G12c H00C99302  11.985  -0.907  13.023 -1.1008 -6.6602  6.3827
  5344G12c C01O99303  12.097  -0.402  13.130  0.6953  0.0424 -0.0768
  5344G12c H00H99304  12.033  -0.436  13.210 -5.4490  4.9284 -2.4782
  5344G12c C01N99305  12.105  -0.266  13.101 -0.7294 -0.3297 -1.3567
  5344G12c O00699306  12.037  -0.164  13.172 -1.3271 -0.7419  0.1345
  5344G12c C01T99307  12.013  -0.178  13.315 -1.9754 -0.6720 -0.0187
  5344G12c H00K99308  11.955  -0.103  13.368 -4.9815 -4.4495  2.3348
  5344G12c H00J99309  11.980  -0.280  13.332 -0.8627 -0.5717  3.1025
  5344G12c H00I99310  12.102  -0.221  13.362  0.0411 -0.9515 -3.9008
  5344G12c C01M99311  12.173  -0.240  12.979 -0.5909 -1.6709 -0.5103
  5344G12c C02099312  12.430  -0.352  12.576  1.2672 -0.8613 -1.6594
  5344G12c C02199313  12.410  -0.196  12.559  1.4245  1.4033 -0.0393
  5344G12c C01L99314  12.220  -0.340  12.886 -0.1909 -0.5594 -0.9970
  5344G12c O00799315  12.231  -0.121  12.989 -0.5660  0.8009  0.5341
  5344G12c C02299316  12.375  -0.118  12.659 -0.5914 -0.0013 -0.0160
  5344G12c C02399317  12.513  -0.129  12.509  0.8255 -0.4158  0.1113
  5344G12c C00G99318  12.756  -0.023  12.442  0.4293 -1.4008  0.7045
  5344G12c C00E99319  12.907   0.170  12.378 -0.7193 -0.6122  0.4174
  5344G12c O00A99320  12.986   0.209  12.273  0.4294 -0.1657  0.3840
  5344G12c C02499321  12.910   0.167  12.141  0.7112  0.1132 -1.6263
  5344G12c H00V99322  12.831   0.240  12.127  1.0179 -0.0502 -4.3181
  5344G12c H00U99323  12.864   0.070  12.158 -1.5797  2.1332  6.3102
  5344G12c H00T99324  12.955   0.183  12.043 -3.6110 -2.7089 -4.2429
  5354G12c C00D99325   5.339   7.899   0.469 -2.4317 -0.2853  0.5372
  5354G12c O00B99326   5.417   7.803   0.464 -0.2016  0.7910  0.6579
  5354G12c C02599327   5.519   7.790   0.362 -0.0610  1.1179 -1.6181
  5354G12c C02699328   5.513   7.701   0.235  2.1109 -0.7116 -1.5272
  5354G12c H00Y99329   5.566   7.747   0.151  2.2864  2.6083  0.3112
  5354G12c H00X99330   5.558   7.605   0.257  3.5096 -0.0419 -1.3999
  5354G12c O00C99331   5.398   7.638   0.182  0.3217  0.3068  1.4884
  5354G12c H00W99332   5.365   7.557   0.219  8.2251 -3.8602  0.6993
  5354G12c C02799333   5.647   7.824   0.397  0.6397  0.2785 -0.9057
  5354G12c O00D99334   5.681   7.867   0.531  0.4176  0.1554  1.3429
  5354G12c H00Z99335   5.768   7.897   0.553  0.6246  3.9669 -3.8115
  5354G12c C02899336   5.760   7.794   0.327  0.0083 -0.3749 -2.1663
  5354G12c C02999337   5.800   7.880   0.226  0.3363  0.4785  0.4699
  5354G12c H01099338   5.721   7.952   0.215 -1.5946 -0.4954  6.2012
  5354G12c C02T99339   5.897   7.854   0.122 -1.2044  0.4412  0.8711
  5354G12c H01O99340   5.873   7.906   0.031  4.1715 -4.7617 -3.9336
  5354G12c C02S99341   5.998   7.763   0.177  0.1133  1.0617 -1.4692
  5354G12c O00J99342   6.126   7.744   0.123 -0.0140  0.0700  0.1130
  5354G12c H01P99343   6.186   7.746   0.195 -2.6591 -3.5124  2.5918
  5354G12c C02R99344   5.960   7.683   0.294 -1.8626 -0.3300 -0.6279
  5354G12c O00I99345   6.079   7.640   0.367  0.3518 -0.1955  0.6472
  5354G12c C02Q99346   6.074   7.721   0.493 -1.2694 -0.7927  0.5382
  5354G12c H01N99347   6.064   7.828   0.509 -3.5278 -1.3816  3.6339
  5354G12c H01R99348   6.174   7.694   0.527  0.6555 -1.7091 -5.2916
  5354G12c H01Q99349   6.012   7.670   0.567  0.0200 -1.5139  1.1366
  5354G12c C02A99350   5.846   7.685   0.365  0.4702  0.3603  0.6983
  5354G12c H01199351   5.798   7.646   0.454  0.3682 -0.3022  0.3599
  5354G12c C00C99352   5.289   7.948   0.347  0.3238 -0.3537  1.4896
  5354G12c H01299353   5.335   7.903   0.261  4.2806  2.7804  1.8333
  5354G12c C00B99354   5.188   8.039   0.330  0.9143 -1.5781 -0.4154
  5354G12c C00A99355   5.123   8.101   0.217  0.1313 -0.5394  0.5401
  5354G12c C00999356   5.160   8.167   0.086  1.6326  0.3010 -0.0501
  5354G12c C00899357   5.265   8.157   0.001  0.2467 -0.6524 -1.1601
  5354G12c H01399358   5.353   8.113   0.046 -0.6679 -1.4537 -0.1150
  5354G12c C00799359   5.288   8.255  -0.103 -0.9385 -0.3882  0.3321
  5354G12c H01499360   5.383   8.253  -0.154  1.5483  3.6955  4.3460
  5354G12c C00699361   5.196   8.367  -0.117  0.0018 -0.3201 -0.3163
  5354G12c C00599362   5.091   8.374  -0.037 -1.6823  2.3630 -0.1297
  5354G12c C00499363   4.977   8.455  -0.049 -0.8806 -0.2761 -1.2292
  5354G12c C00399364   4.864   8.440   0.035  1.5742 -2.6382 -0.1132
  5354G12c C00299365   4.753   8.536   0.019  0.9561 -2.7908  1.6303
  5354G12c C00199366   4.628   8.566   0.102  0.8200 -1.4495 -0.3442
  5354G12c C00M99367   4.631   8.557   0.253  0.2553 -0.5248 -1.1368
  5354G12c C00L99368   4.717   8.474   0.334  2.2283  0.2093  1.0548
  5354G12c C00R99369   4.711   8.439   0.470  0.1022 -1.5268  0.0842
  5354G12c C00Q99370   4.665   8.522   0.575 -0.0566 -0.9730 -0.4634
  5354G12c C00V99371   4.723   8.492   0.697  0.9079 -0.7024 -1.9862
  5354G12c C00U99372   4.798   8.370   0.712 -1.6747 -0.2410 -0.1717
  5354G12c C00T99373   4.842   8.281   0.603  0.9878 -1.3471  0.2427
  5354G12c C01699374   4.969   8.219   0.590  0.3390 -0.0652 -0.4845
  5354G12c C01599375   5.044   8.209   0.706  1.2668  0.4711  1.7576
  5354G12c C01099376   4.982   8.257   0.831  1.1862  0.3380  1.3816
  5354G12c C01199377   5.038   8.200   0.946  1.8011 -0.1510  1.0897
  5354G12c H00599378   4.997   8.223   1.044 -1.2009  0.8941 -0.3498
  5354G12c C01299379   5.149   8.121   0.962  0.5385 -0.4483  1.2032
  5354G12c C01799380   5.178   8.054   1.080 -2.6326 -0.4922  0.2467
  5354G12c O00299381   5.228   8.106   1.205  0.7622 -1.6633 -1.1417
  5354G12c H00499382   5.246   8.022   1.246  1.1573 -2.2582 -2.5061
  5354G12c C01899383   5.177   7.904   1.081  1.2630  0.0089  0.8585
  5354G12c O00199384   5.201   7.840   1.191  0.0311 -0.4165  1.6453
  5354G12c H00399385   5.141   7.767   1.194  4.0295 -3.8325  2.3520
  5354G12c C01999386   5.112   7.823   0.967  0.9282  0.7714  1.4916
  5354G12c H00299387   5.045   7.894   0.919  4.0640  2.6405 -0.2908
  5354G12c H00199388   5.197   7.788   0.909 -0.1414 -0.3633  0.5979
  5354G12c O00099389   5.016   7.712   1.007  0.8912 -0.9865  0.8206
  5354G12c C01A99390   5.030   7.596   0.932  0.3001 -0.8207  1.5517
  5354G12c C02K99391   5.114   7.505   0.995  0.7791 -1.9554  1.4072
  5354G12c O00G99392   5.172   7.553   1.116 -0.6467 -0.1348 -0.6955
  5354G12c C02M99393   5.164   7.443   1.224 -0.2543  2.0547 -0.3445
  5354G12c H01G99394   5.249   7.378   1.200  1.7798  3.0275  3.7134
  5354G12c H01F99395   5.114   7.347   1.213 -3.0815  3.1888  1.8817
  5354G12c H01E99396   5.211   7.481   1.315 -3.7170 -2.2470  3.4894
  5354G12c C02J99397   5.126   7.388   0.923 -0.8505  1.1103 -1.7589
  5354G12c H01H99398   5.209   7.320   0.913 -0.6431  0.6615  2.3904
  5354G12c C02I99399   5.068   7.351   0.798  0.8906 -0.5402  0.3405
  5354G12c C02N99400   5.039   7.207   0.773  0.3118 -3.4063 -0.5932
  5354G12c H01M99401   5.017   7.132   0.847  2.6362 -1.3983  2.2354
  5354G12c C02O99402   5.056   7.163   0.651 -0.2266  1.2926  0.4856
  5354G12c H01L99403   5.090   7.249   0.594  3.8461 -0.8030 -0.4329
  5354G12c C02P99404   5.076   7.018   0.611 -3.8672 -0.7064 -0.5389
  5354G12c H01K99405   5.163   7.003   0.675 -2.5534  4.1648 -0.9533
  5354G12c H01J99406   5.004   6.939   0.630 -3.1870  0.0564  6.3911
  5354G12c O00H99407   5.159   7.039   0.510  1.2420  1.0012 -1.1711
  5354G12c H01I99408   5.217   7.102   0.551 -0.2284 -1.5748  5.6497
  5354G12c C02H99409   4.981   7.462   0.751  1.2329 -1.2143 -0.6430
  5354G12c H01C99410   4.940   7.433   0.656 -0.6618  1.9526 -0.8444
  5354G12c C02L99411   4.981   7.592   0.794 -0.7042 -0.5926 -1.5152
  5354G12c H01D99412   4.934   7.679   0.751  1.4919  0.3461 -2.0803
  5354G12c C01399413   5.210   8.098   0.839  0.4346  1.1356  1.2397
  5354G12c H00099414   5.290   8.027   0.851  0.7826  1.7159  2.3554
  5354G12c C01499415   5.161   8.133   0.708  0.9319  0.5141 -2.6056
  5354G12c C00F99416   5.189   8.050   0.599  0.5235  0.5763  0.9809
  5354G12c C00H99417   5.012   8.157   0.468 -0.1143  0.1232 -0.3997
  5354G12c C00I99418   4.935   8.186   0.347  1.8277 -1.2041 -0.9009
  5354G12c C00J99419   4.820   8.273   0.370  1.5348  0.6166  1.4216
  5354G12c C00Z99420   4.879   8.349   0.830  0.3054  1.0644 -2.1655
  5354G12c C00Y99421   4.844   8.420   0.930 -0.5287 -2.0665  0.7357
  5354G12c H00699422   4.915   8.403   1.010  4.0557 -6.2820 -3.7875
  5354G12c C00X99423   4.738   8.511   0.938  0.4052  0.3747 -0.7475
  5354G12c O00399424   4.706   8.586   1.070  1.3168  0.8127  0.3709
  5354G12c C01B99425   4.612   8.512   1.138  0.1188 -1.3025  0.2727
  5354G12c H00999426   4.635   8.451   1.226 -5.4874 -0.0336  2.8352
  5354G12c H00899427   4.533   8.586   1.146 -1.4733 -2.7432 -1.6289
  5354G12c H00799428   4.569   8.431   1.079 -4.2285  1.7667 -1.0241
  5354G12c C00W99429   4.690   8.565   0.815  0.2680  0.9461 -0.6517
  5354G12c O00499430   4.614   8.675   0.818 -0.0563  0.6520 -0.6715
  5354G12c C01C99431   4.553   8.718   0.696  1.1062  0.3714 -0.8099
  5354G12c H00A99432   4.447   8.729   0.678  0.4332 -3.1316  0.6028
  5354G12c C00P99433   4.614   8.653   0.576  0.3869 -1.3815 -1.4504
  5354G12c C00O99434   4.615   8.737   0.455  0.2509 -2.8397  0.7528
  5354G12c C01D99435   4.633   8.879   0.474 -0.5231 -1.6601 -0.0680
  5354G12c H00S99436   4.631   8.926   0.571 -1.9792  0.3501 -1.0228
  5354G12c C01E99437   4.676   8.959   0.365  0.3744  0.1898 -1.3183
  5354G12c O00899438   4.720   9.078   0.417  0.2342 -0.7575 -1.6703
  5354G12c C01V99439   4.683   9.203   0.373 -0.9406 -0.3507  0.5980
  5354G12c C01Z99440   4.783   9.318   0.415  0.6462  0.2561  1.9730
  5354G12c H00R99441   4.723   9.406   0.395 -2.9325 -2.6448 -0.8615
  5354G12c H00Q99442   4.813   9.318   0.520  0.0880  2.3556  2.1569
  5354G12c O00999443   4.900   9.312   0.345  0.2934 -0.7228 -0.1103
  5354G12c H00P99444   4.881   9.378   0.279 -2.4330  0.4992  1.7776
  5354G12c C01W99445   4.575   9.233   0.300  1.2120 -0.7443  1.7075
  5354G12c H00O99446   4.488   9.171   0.281 -0.8212  1.8126  2.4266
  5354G12c C01X99447   4.535   9.380   0.259  1.7417  0.3235  1.9517
  5354G12c H00N99448   4.438   9.384   0.210 -1.1247 -2.5790  6.8861
  5354G12c H00M99449   4.523   9.473   0.314  3.8311  2.3140 -0.8536
  5354G12c C01Y99450   4.637   9.383   0.141  1.8833  0.7949  0.3045
  5354G12c C02D99451   4.626   9.277   0.042  0.5723 -1.1129  1.4656
  5354G12c H01999452   4.568   9.191   0.012  1.2179  0.1454 -3.7618
  5354G12c C02C99453   4.700   9.318  -0.075  0.5966  0.0444  0.0984
  5354G12c H01A99454   4.678   9.251  -0.157  2.7998  1.5275 -1.7756
  5354G12c C02B99455   4.751   9.447  -0.114 -0.2769 -0.7015  2.1117
  5354G12c O00E99456   4.813   9.477  -0.235  0.8252  1.4723  0.3165
  5354G12c H01B99457   4.813   9.569  -0.255 -3.9012  0.8464 -3.6160
  5354G12c C02F99458   4.731   9.549  -0.020 -0.9396 -1.1240 -0.1372
  5354G12c O00F99459   4.741   9.680  -0.066 -0.3384 -0.7773 -0.1078
  5354G12c C02G99460   4.642   9.776  -0.015 -0.1080  1.3566 -1.0435
  5354G12c H01799461   4.707   9.853  -0.057 10.2598 -3.5738  4.0747
  5354G12c H01699462   4.643   9.770   0.094 -1.1411 -2.5312 -1.1953
  5354G12c H01599463   4.538   9.762  -0.046  0.0627 -3.0222  0.0828
  5354G12c C02E99464   4.684   9.514   0.102  0.4518  1.5330 -0.6982
  5354G12c H01899465   4.713   9.579   0.183 -2.4632 -1.6962  3.1176
  5354G12c C01F99466   4.691   8.910   0.232  2.0491  1.0474  0.7185
  5354G12c C01G99467   4.762   8.970   0.123 -0.0971 -0.6198 -0.5638
  5354G12c H00L99468   4.823   9.045   0.170 -1.5460 -3.8293  7.2407
  5354G12c C01H99469   4.786   8.877   0.010 -0.1987  0.4642 -0.2911
  5354G12c H00B99470   4.871   8.861  -0.055 -3.6705 -2.1851 -4.5202
  5354G12c C01I99471   4.690   8.773  -0.023  0.7736 -1.6309 -0.3094
  5354G12c C01U99472   4.601   8.781   0.202 -2.0651  0.0846 -1.2619
  5354G12c C00S99473   4.769   8.313   0.490 -0.0384  0.2468  0.4774
  5354G12c C00K99474   4.785   8.375   0.271 -0.2611  2.2464  0.1029
  5354G12c C00N99475   4.603   8.691   0.317  0.8766  0.4992  1.8497
  5354G12c C00099476   4.600   8.709   0.079  0.2959  0.1776  1.8010
  5354G12c C01J99477   4.771   8.651  -0.062  0.4451 -2.3246 -0.9327
  5354G12c C01K99478   4.878   8.667  -0.164 -0.1691  0.0240  0.2815
  5354G12c C01P99479   4.889   8.749  -0.283 -0.2672 -1.1761  0.6565
  5354G12c C01Q99480   4.758   8.794  -0.344  0.7601  1.0503 -0.1086
  5354G12c H00G99481   4.687   8.774  -0.423  2.8371 -2.2200 -1.2518
  5354G12c C01R99482   4.736   8.923  -0.301 -0.4539 -1.0436  1.2115
  5354G12c H00F99483   4.802   8.979  -0.237  4.8860 -2.0179 -3.0443
  5354G12c C01S99484   4.587   8.986  -0.297  0.2750  0.3038  1.0643
  5354G12c H00E99485   4.502   8.926  -0.328 -0.4360  0.8217  1.9737
  5354G12c H00D99486   4.577   8.980  -0.188 -0.4664  4.5615  1.3398
  5354G12c O00599487   4.583   9.111  -0.344 -1.2656 -0.5403 -0.8225
  5354G12c H00C99488   4.490   9.128  -0.335 -2.2590 -7.0849  9.1460
  5354G12c C01O99489   5.021   8.744  -0.364 -1.1885 -0.2258  0.3287
  5354G12c H00H99490   5.022   8.769  -0.469  1.8615  0.7142  0.5316
  5354G12c C01N99491   5.131   8.670  -0.313 -0.6526  1.8987 -1.1732
  5354G12c O00699492   5.239   8.683  -0.395  0.8796 -0.2585  0.2529
  5354G12c C01T99493   5.317   8.795  -0.362  0.6802  1.0223 -0.7512
  5354G12c H00K99494   5.371   8.824  -0.453  2.3140  3.3208  0.8926
  5354G12c H00J99495   5.386   8.768  -0.282 -1.7627  1.1534  1.4285
  5354G12c H00I99496   5.260   8.884  -0.336 -2.0511 -1.6172  2.8877
  5354G12c C01M99497   5.102   8.551  -0.243  0.5766 -0.6051 -0.9768
  5354G12c C02099498   4.861   8.344   0.139 -0.6831 -1.5629 -1.5934
  5354G12c C02199499   4.947   8.237   0.118  0.1868  2.8095 -0.7226
  5354G12c C01L99500   4.975   8.554  -0.154 -1.2261 -2.1194  0.8634
  5354G12c O00799501   5.194   8.442  -0.234  1.2393  0.7533 -0.1512
  5354G12c C02299502   5.067   8.271   0.054 -1.5881  0.2076 -0.6134
  5354G12c C02399503   4.994   8.156   0.235  0.8561  0.0845  1.7869
  5354G12c C00G99504   5.144   8.094   0.462 -1.8768 -1.1316 -1.7046
  5354G12c C00E99505   5.305   7.950   0.589  1.2817 -0.7538 -1.0382
  5354G12c O00A99506   5.322   7.885   0.706 -1.2992 -0.5230 -1.5471
  5354G12c C02499507   5.425   7.788   0.730  0.0865  0.9344 -0.2564
  5354G12c H00V99508   5.518   7.840   0.705  2.4368  0.1810  6.0046
  5354G12c H00U99509   5.432   7.784   0.839  2.4319 -6.1493 -0.4748
  5354G12c H00T99510   5.394   7.690   0.696  1.4439 -1.4781  4.8977
  5364G12c C00D99511  12.132   7.237   9.024  1.1093  1.4849  0.9033
  5364G12c O00B99512  12.110   7.154   9.130  0.2189  1.0629  1.1946
  5364G12c C02599513  12.190   7.040   9.137 -1.5509  0.7669  1.9813
  5364G12c C02699514  12.123   6.905   9.131  0.2763  0.0798  1.0350
  5364G12c H00Y99515  12.037   6.942   9.187  0.0546 -0.3234  0.9622
  5364G12c H00X99516  12.182   6.836   9.191  1.5074  3.4720  3.9013
  5364G12c O00C99517  12.091   6.895   9.003  0.3068  0.4063 -0.0686
  5364G12c H00W99518  12.025   6.827   8.995  1.4538 -0.3993 -3.9575
  5364G12c C02799519  12.318   7.052   9.167  0.5859  0.3700  0.3142
  5364G12c O00D99520  12.373   7.173   9.181  0.8825  0.4944  0.1079
  5364G12c H00Z99521  12.287   7.212   9.173  0.4977 -0.9549 -4.4411
  5364G12c C02899522  12.394   6.935   9.171  0.6428  1.4248 -2.9064
  5364G12c C02999523  12.468   6.908   9.300  1.0251 -0.5411 -1.3167
  5364G12c H01099524  12.432   6.975   9.377 -5.4144 -1.5928 -3.1445
  5364G12c C02T99525  12.552   6.809   9.318 -0.1414  1.1729  0.5393
  5364G12c H01O99526  12.613   6.812   9.407  0.8173  3.1834 -0.1594
  5364G12c C02S99527  12.600   6.727   9.216 -0.1439 -0.3190  0.5398
  5364G12c O00J99528  12.697   6.627   9.213  1.0761 -0.2111 -0.6082
  5364G12c H01P99529  12.730   6.646   9.127 -1.8517  0.0036 -1.7640
  5364G12c C02R99530  12.522   6.738   9.100 -1.0409  0.7825 -0.9787
  5364G12c O00I99531  12.574   6.685   8.983  0.6141  1.5920 -0.1805
  5364G12c C02Q99532  12.526   6.538   8.974  1.0599  0.6058  0.9377
  5364G12c H01N99533  12.442   6.490   9.025  2.1938  1.4038  3.6481
  5364G12c H01R99534  12.592   6.487   9.045  4.8551  0.0695 -2.7690
  5364G12c H01Q99535  12.583   6.495   8.891  2.0703  1.4060  1.2061
  5364G12c C02A99536  12.415   6.831   9.075 -0.8090 -0.5847  1.1143
  5364G12c H01199537  12.382   6.832   8.972  0.0941 -2.9584  0.7636
  5364G12c C00C99538  12.100   7.222   8.882 -0.5824  0.4080 -0.6121
  5364G12c H01299539  12.072   7.119   8.866-10.8297  2.2547  1.5481
  5364G12c C00B99540  12.145   7.300   8.784 -0.4159  0.4793 -0.1126
  5364G12c C00A99541  12.136   7.259   8.643 -0.6901 -0.6056  0.7049
  5364G12c C00999542  12.203   7.144   8.571  0.0275 -0.3439 -0.8496
  5364G12c C00899543  12.249   7.024   8.620  1.0343  0.0184 -1.5320
  5364G12c H01399544  12.232   7.000   8.724  0.3795 -0.6220 -1.7810
  5364G12c C00799545  12.325   6.937   8.541 -0.9914  0.7013  2.3433
  5364G12c H01499546  12.402   6.873   8.580  5.4651  5.5228 -1.5626
  5364G12c C00699547  12.357   6.995   8.409  0.4898 -1.4375 -0.4355
  5364G12c C00599548  12.326   7.123   8.374  0.0253 -1.4966  0.8791
  5364G12c C00499549  12.369   7.182   8.253 -0.8562 -0.5709 -0.5975
  5364G12c C00399550  12.322   7.317   8.225  0.9003  1.0021 -1.5485
  5364G12c C00299551  12.370   7.376   8.106 -1.0281  0.1293  0.0746
  5364G12c C00199552  12.355   7.508   8.061 -0.1714 -1.4673 -0.5062
  5364G12c C00M99553  12.391   7.616   8.148 -0.1702  0.2637 -1.2919
  5364G12c C00L99554  12.341   7.619   8.281 -1.2339  0.1909  0.6243
  5364G12c C00R99555  12.415   7.672   8.395  0.2669  0.3698 -0.7879
  5364G12c C00Q99556  12.531   7.767   8.398 -0.6340  0.9736 -0.2038
  5364G12c C00V99557  12.562   7.803   8.537 -0.6758 -0.0746  1.5073
  5364G12c C00U99558  12.511   7.736   8.653 -1.9783  0.5427  0.1937
  5364G12c C00T99559  12.416   7.645   8.636  2.8372  0.8504 -1.0260
  5364G12c C01699560  12.342   7.583   8.735 -0.3849 -1.4254 -0.1049
  5364G12c C01599561  12.393   7.610   8.855 -0.7774 -0.7447  0.0686
  5364G12c C01099562  12.500   7.696   8.889  1.4102  1.1982  0.6812
  5364G12c C01199563  12.557   7.700   9.023  1.0473 -0.4866  0.1442
  5364G12c H00599564  12.648   7.757   9.036 -0.4135  1.6957  1.1260
  5364G12c C01299565  12.523   7.626   9.137  0.0440  0.4468 -0.6773
  5364G12c C01799566  12.585   7.608   9.267  0.8554 -1.6813 -0.3380
  5364G12c O00299567  12.493   7.584   9.374 -0.0599 -0.9285  1.1425
  5364G12c H00499568  12.517   7.646   9.442  0.3152  0.1648  0.0340
  5364G12c C01899569  12.713   7.616   9.279  0.6716 -0.5146  0.0261
  5364G12c O00199570  12.790   7.590   9.173 -0.3079  0.5670 -0.1078
  5364G12c H00399571  12.883   7.584   9.189 -1.6915 -1.9895  9.9070
  5364G12c C01999572  12.784   7.628   9.412  0.0055  0.9264 -1.4315
  5364G12c H00299573  12.846   7.718   9.404 -0.9279  1.4606 -2.8616
  5364G12c H00199574  12.718   7.636   9.498 -1.8840 -6.3198 -1.8736
  5364G12c O00099575  12.871   7.530   9.408 -0.0038  0.0310 -0.2428
  5364G12c C01A99576  12.951   7.515   9.518  0.0042 -1.3835 -0.5520
  5364G12c C02K99577  12.923   7.436   9.621 -0.2841  0.1194 -0.8371
  5364G12c O00G99578  12.808   7.363   9.589 -1.1271 -0.2369 -0.9129
  5364G12c C02M99579  12.800   7.252   9.664  1.3679 -1.0189  0.5265
  5364G12c H01G99580  12.805   7.156   9.614 -4.0962 -1.2484  0.0773
  5364G12c H01F99581  12.807   7.266   9.772 -2.9398  7.6158  0.1633
  5364G12c H01E99582  12.692   7.235   9.663  0.6382  2.0077  5.7411
  5364G12c C02J99583  12.981   7.468   9.746  0.7882  2.3200 -0.0468
  5364G12c H01H99584  12.963   7.406   9.832 -0.4056  3.1772  0.3330
  5364G12c C02I99585  13.092   7.544   9.745  0.2646 -1.0229  0.0508
  5364G12c C02N99586  13.182   7.577   9.850 -0.0022  0.5977  0.6665
  5364G12c H01M99587  13.249   7.662   9.843 -1.6101  1.5832 -6.1333
  5364G12c C02O99588  13.210   7.495   9.949 -0.5426 -0.0306 -0.4081
  5364G12c H01L99589  13.153   7.405   9.966 -0.3399 -0.7725 -3.4072
  5364G12c C02P99590  13.361   7.524  10.007  0.4688  0.5112  1.2157
  5364G12c H01K99591  13.384   7.621   9.963 -8.6687  1.9664 -1.4839
  5364G12c H01J99592  13.349   7.582  10.098 -0.1940  1.8860  0.2673
  5364G12c O00H99593  13.476   7.440  10.021 -0.1865  0.5834 -0.7945
  5364G12c H01I99594  13.518   7.450  10.106  0.9238  2.9086 -1.5647
  5364G12c C02H99595  13.144   7.585   9.623 -0.3094  1.0399 -0.7233
  5364G12c H01C99596  13.246   7.619   9.626  0.3268 -0.9336  0.9832
  5364G12c C02L99597  13.075   7.581   9.508  2.1109 -0.1777  0.1444
  5364G12c H01D99598  13.137   7.645   9.449 -0.6562 -1.2613 -4.1391
  5364G12c C01399599  12.415   7.541   9.089 -2.7452 -1.4258 -1.0030
  5364G12c H00099600  12.404   7.489   9.183  1.2881 -0.1964  0.2702
  5364G12c C01499601  12.351   7.527   8.957  0.0515  0.0184  0.1406
  5364G12c C00F99602  12.245   7.450   8.939  0.0087 -0.8218  0.6246
  5364G12c C00H99603  12.240   7.492   8.710  1.1400 -1.2054 -0.2963
  5364G12c C00I99604  12.191   7.479   8.571 -0.1330  0.1127  0.3681
  5364G12c C00J99605  12.248   7.563   8.478 -1.5778 -0.0513 -0.0416
  5364G12c C00Z99606  12.555   7.772   8.780 -2.0061  0.7334  0.5721
  5364G12c C00Y99607  12.670   7.858   8.798 -1.9200 -0.6526 -1.5676
  5364G12c H00699608  12.720   7.867   8.893 -0.1888  3.5086 -2.7638
  5364G12c C00X99609  12.707   7.916   8.682 -0.6063  0.1386 -1.1403
  5364G12c O00399610  12.809   8.015   8.686 -0.3230 -0.8895 -0.1546
  5364G12c C01B99611  12.949   7.963   8.682 -0.9546 -0.8680  1.9793
  5364G12c H00999612  12.975   7.975   8.577 -2.8597 -2.8786  1.2404
  5364G12c H00899613  12.963   7.863   8.723 -2.9295 -3.2196 -2.6962
  5364G12c H00799614  13.010   8.042   8.725 -5.2890  2.5967  2.1818
  5364G12c C00W99615  12.659   7.895   8.555 -1.1411 -0.5511  1.5309
  5364G12c O00499616  12.737   7.969   8.452 -0.0244 -0.4933 -0.2452
  5364G12c C01C99617  12.722   7.894   8.334 -1.2103  0.6239 -0.5856
  5364G12c H00A99618  12.815   7.892   8.279 -1.1557  0.5625 -0.4882
  5364G12c C00P99619  12.592   7.842   8.295  0.8951 -0.0288  0.5696
  5364G12c C00O99620  12.584   7.798   8.158  0.1964 -2.0981  0.7438
  5364G12c C01D99621  12.685   7.838   8.079  0.6475 -0.1777 -1.1802
  5364G12c H00S99622  12.701   7.944   8.065  0.1302 -0.2872 -2.7524
  5364G12c C01E99623  12.757   7.750   8.003  2.2723  0.3182  1.8053
  5364G12c O00899624  12.885   7.766   8.003  0.3778  0.3426  0.2823
  5364G12c C01V99625  12.941   7.812   7.888 -1.0854  1.2204  0.8187
  5364G12c C01Z99626  13.054   7.704   7.835 -0.4180  0.4916  0.5986
  5364G12c H00R99627  13.154   7.743   7.853 -2.3545  7.1598 -1.5316
  5364G12c H00Q99628  13.048   7.607   7.884  1.1044  0.1318  0.0894
  5364G12c O00999629  13.023   7.696   7.684  1.8733  0.4637 -1.1060
  5364G12c H00P99630  13.111   7.675   7.657  0.9487  0.9507 -4.7961
  5364G12c C01W99631  12.941   7.938   7.839  0.2304  1.1774  0.7220
  5364G12c H00O99632  12.879   7.992   7.909  0.1688  1.0666  0.7522
  5364G12c C01X99633  12.994   8.001   7.709 -0.1494 -1.1191 -0.2718
  5364G12c H00N99634  13.043   8.097   7.694  0.1978 -2.0003 -5.5149
  5364G12c H00M99635  13.082   7.944   7.680  0.2829  0.2306 -1.6755
  5364G12c C01Y99636  12.901   8.003   7.589 -0.4056  0.5192  1.1005
  5364G12c C02D99637  12.919   8.103   7.489 -0.3142  0.9326 -0.0551
  5364G12c H01999638  12.996   8.175   7.513 -1.7945  1.3869  3.6309
  5364G12c C02C99639  12.853   8.077   7.374 -1.1829  1.0666  0.6361
  5364G12c H01A99640  12.910   8.130   7.299  1.7782 -5.3717 -2.0058
  5364G12c C02B99641  12.758   7.972   7.358 -0.8595 -0.3147  0.4786
  5364G12c O00E99642  12.717   7.939   7.242 -0.0213 -0.6082  0.8124
  5364G12c H01B99643  12.626   7.911   7.242 -0.7461  1.6498 -0.8194
  5364G12c C02F99644  12.730   7.894   7.469  1.1190  0.2498 -1.2938
  5364G12c O00F99645  12.623   7.797   7.476  1.3089 -0.4647  0.5097
  5364G12c C02G99646  12.659   7.661   7.502  0.6418 -0.2689 -1.3106
  5364G12c H01799647  12.729   7.631   7.580  1.0449  3.8928  0.0703
  5364G12c H01699648  12.699   7.617   7.410  3.4018 -0.5632 -0.0007
  5364G12c H01599649  12.563   7.619   7.531  0.8153 -4.7836 -6.5261
  5364G12c C02E99650  12.794   7.911   7.583  0.9561 -1.5446 -0.3284
  5364G12c H01899651  12.777   7.828   7.651 -1.4911 -0.9688 -0.2202
  5364G12c C01F99652  12.677   7.641   7.950  0.5393 -0.5793 -0.5468
  5364G12c C01G99653  12.744   7.523   7.923 -0.4917 -0.6229  0.5620
  5364G12c H00L99654  12.850   7.506   7.917 -0.5336  0.1479 -5.3624
  5364G12c C01H99655  12.657   7.409   7.919  0.1513  0.9194 -0.1239
  5364G12c H00B99656  12.688   7.328   7.855 -3.5526 -2.9935  2.7348
  5364G12c C01I99657  12.515   7.405   7.930  1.4960  0.3943 -0.0168
  5364G12c C01U99658  12.543   7.633   7.981 -1.4590  0.8060  1.1099
  5364G12c C00S99659  12.359   7.630   8.508  1.7968 -0.8185 -1.0367
  5364G12c C00K99660  12.274   7.515   8.338 -1.0250 -1.6561 -0.2792
  5364G12c C00N99661  12.507   7.688   8.104  2.0997  0.7477  0.0275
  5364G12c C00099662  12.447   7.527   7.948 -0.2543 -1.2054  1.3986
  5364G12c C01J99663  12.457   7.310   8.017 -1.0767 -0.0298 -0.9683
  5364G12c C01K99664  12.502   7.172   8.036  1.7008 -0.3618 -2.5737
  5364G12c C01P99665  12.575   7.077   7.951 -0.6598  0.7170 -2.2776
  5364G12c C01Q99666  12.599   7.129   7.816  0.1083  0.8910 -0.3367
  5364G12c H00G99667  12.686   7.103   7.757  3.4765  1.0952  4.3123
  5364G12c C01R99668  12.500   7.181   7.733  0.3364  1.0984  0.2535
  5364G12c H00F99669  12.396   7.172   7.761  0.1680 -3.5538 -1.3622
  5364G12c C01S99670  12.539   7.243   7.595 -2.1676 -0.6629  0.1233
  5364G12c H00E99671  12.444   7.259   7.545 -2.5591  0.2153  1.1238
  5364G12c H00D99672  12.586   7.338   7.621  6.8499 -4.0630 -1.8426
  5364G12c O00599673  12.633   7.162   7.512  0.7078 -0.4810 -0.4007
  5364G12c H00C99674  12.591   7.079   7.491  3.1507 -2.5838  2.5735
  5364G12c C01O99675  12.597   6.939   7.999 -0.3292 -0.3536  1.6589
  5364G12c H00H99676  12.670   6.878   7.948 -0.0541  1.3764 -0.0558
  5364G12c C01N99677  12.558   6.901   8.133  0.4183 -1.4429 -1.5537
  5364G12c O00699678  12.607   6.801   8.193  0.0514 -0.4736 -0.5191
  5364G12c C01T99679  12.587   6.668   8.132  0.4807 -0.3848  0.1896
  5364G12c H00K99680  12.539   6.629   8.222  1.7925 -1.4849  0.4361
  5364G12c H00J99681  12.681   6.630   8.093 -2.5690 -3.2364 -4.9626
  5364G12c H00I99682  12.515   6.690   8.054 -1.2175  2.6750  2.5113
  5364G12c C01M99683  12.494   6.991   8.211  2.6344  1.6324  1.7939
  5364G12c C02099684  12.225   7.383   8.312  0.0049 -0.5269  0.0065
  5364G12c C02199685  12.161   7.306   8.412 -1.6814  0.2884  0.6941
  5364G12c C01L99686  12.458   7.118   8.165  0.5879  0.4298 -1.9829
  5364G12c O00799687  12.433   6.926   8.324 -1.8920  0.1141 -1.4238
  5364G12c C02299688  12.223   7.183   8.434  1.1787 -0.7045 -1.1037
  5364G12c C02399689  12.119   7.363   8.533 -0.3292 -0.1573 -0.6756
  5364G12c C00G99690  12.196   7.427   8.814 -1.9346 -2.5472  0.2015
  5364G12c C00E99691  12.178   7.368   9.044  1.8500 -2.4260 -0.4047
  5364G12c O00A99692  12.199   7.401   9.183 -0.1890  0.0421  0.9996
  5364G12c C02499693  12.144   7.524   9.235 -0.2065 -0.5950 -2.3440
  5364G12c H00V99694  12.175   7.616   9.185  1.1015  1.8665  2.7012
  5364G12c H00U99695  12.038   7.538   9.213  0.5154 -0.7840 -6.3820
  5364G12c H00T99696  12.163   7.529   9.342  1.1815 -2.9526 -2.4435
  5374G12c C00D99697  11.856   9.494   6.449  1.0640  0.1591 -1.9659
  5374G12c O00B99698  11.893   9.629   6.431  1.0633  0.0453  0.3783
  5374G12c C02599699  11.785   9.709   6.404 -2.1879 -1.2174 -0.5464
  5374G12c C02699700  11.742   9.724   6.259  0.0448 -0.2380 -0.8861
  5374G12c H00Y99701  11.641   9.742   6.223  0.8227  0.6247 -2.7255
  5374G12c H00X99702  11.731   9.616   6.254  1.8061 -0.3443 -6.9155
  5374G12c O00C99703  11.832   9.687   6.143  0.2068 -0.6034  0.7609
  5374G12c H00W99704  11.909   9.739   6.127  1.9673 -3.7456 -1.5013
  5374G12c C02799705  11.798   9.791   6.507  1.3283  1.1614 -1.3238
  5374G12c O00D99706  11.868   9.765   6.618  0.3391 -0.7602 -0.4726
  5374G12c H00Z99707  11.886   9.674   6.633  5.3435 -0.9894 -6.1483
  5374G12c C02899708  11.738   9.920   6.495 -0.4525 -0.7925  0.4826
  5374G12c C02999709  11.682   9.985   6.600  0.6503 -1.4496 -1.3360
  5374G12c H01099710  11.686   9.933   6.695  1.4865 -2.0433 -1.6879
  5374G12c C02T99711  11.637  10.106   6.608 -0.7235  0.6036  0.4290
  5374G12c H01O99712  11.574  10.122   6.695 -0.5619-14.9347  4.8566
  5374G12c C02S99713  11.654  10.196   6.507 -0.5956  0.8524 -0.0879
  5374G12c O00J99714  11.618  10.331   6.527 -0.4490 -0.0655 -0.0325
  5374G12c H01P99715  11.647  10.380   6.451 -3.5623  1.7438 -0.1340
  5374G12c C02R99716  11.737  10.141   6.394  0.8337  0.8899  0.6624
  5374G12c O00I99717  11.784  10.228   6.293 -0.2162 -0.1062 -0.7029
  5374G12c C02Q99718  11.920  10.270   6.323  1.8561  2.3773 -0.4038
  5374G12c H01N99719  11.968  10.174   6.342 -8.5702 -4.1564 -3.2838
  5374G12c H01R99720  11.920  10.347   6.401 -0.4182 -3.9798  6.4195
  5374G12c H01Q99721  11.964  10.306   6.230 -3.1985  2.4118 -2.8939
  5374G12c C02A99722  11.778  10.008   6.389  0.6328 -0.1891 -2.3567
  5374G12c H01199723  11.824   9.975   6.297  2.2579 -2.1993 -0.8912
  5374G12c C00C99724  11.729   9.453   6.480  0.6789  0.9002  1.3639
  5374G12c H01299725  11.666   9.514   6.543  1.0917 -4.2441  7.2440
  5374G12c C00B99726  11.699   9.318   6.495 -1.0280 -1.0878  1.6389
  5374G12c C00A99727  11.573   9.266   6.553  0.5971  0.5573  0.5341
  5374G12c C00999728  11.452   9.319   6.615  0.2553  0.3827  0.2941
  5374G12c C00899729  11.394   9.450   6.634 -0.5647 -0.9537 -0.4909
  5374G12c H01399730  11.444   9.545   6.617  0.6693  0.4614  8.4269
  5374G12c C00799731  11.266   9.446   6.720 -1.5773 -1.2204 -0.1701
  5374G12c H01499732  11.237   9.507   6.804  2.8876  0.4162  0.3557
  5374G12c C00699733  11.232   9.322   6.776  1.3131 -0.8582  0.1492
  5374G12c C00599734  11.276   9.198   6.736  1.5621  0.6822  2.8105
  5374G12c C00499735  11.260   9.071   6.792  0.3691 -0.5395 -0.0658
  5374G12c C00399736  11.307   8.950   6.739 -0.5089  0.6372  0.6634
  5374G12c C00299737  11.269   8.826   6.804 -0.6553 -0.7459  1.3122
  5374G12c C00199738  11.325   8.693   6.801  0.4600 -0.8430 -1.8650
  5374G12c C00M99739  11.469   8.660   6.786  0.8590 -0.2659 -0.0699
  5374G12c C00L99740  11.530   8.700   6.659  1.2810  1.4749  0.0654
  5374G12c C00R99741  11.677   8.686   6.644 -0.0676 -0.6935  1.4599
  5374G12c C00Q99742  11.780   8.619   6.721 -0.6737 -0.2792  0.8598
  5374G12c C00V99743  11.905   8.653   6.667 -0.3154 -0.5498 -0.4253
  5374G12c C00U99744  11.935   8.760   6.584 -1.2997 -0.3086  2.6316
  5374G12c C00T99745  11.847   8.859   6.554 -0.7799  0.4673 -0.5588
  5374G12c C01699746  11.862   8.987   6.494 -2.2174  3.3461  0.0513
  5374G12c C01599747  11.999   9.015   6.471  0.6910 -0.0669  0.6509
  5374G12c C01099748  12.099   8.914   6.499 -0.4322  0.4631  1.3467
  5374G12c C01199749  12.233   8.953   6.471 -1.5523  0.1485  0.4775
  5374G12c H00599750  12.317   8.885   6.464  0.3887  2.2839  2.1640
  5374G12c C01299751  12.262   9.094   6.455  0.5198  0.4333 -0.1756
  5374G12c C01799752  12.398   9.124   6.435  1.4014 -0.7877  0.8598
  5374G12c O00299753  12.489   9.068   6.505 -1.0406  0.6492 -1.3460
  5374G12c H00499754  12.433   9.015   6.560 -1.7653 -0.4320 -3.0917
  5374G12c C01899755  12.442   9.218   6.343  0.8809  1.0531  0.4043
  5374G12c O00199756  12.360   9.262   6.255  1.4418 -0.9613 -0.2810
  5374G12c H00399757  12.393   9.255   6.167 -3.8720 -3.7421 -2.2667
  5374G12c C01999758  12.580   9.237   6.299 -1.7388 -1.5964  0.3466
  5374G12c H00299759  12.612   9.342   6.295  0.0523 -1.9803  3.2167
  5374G12c H00199760  12.658   9.201   6.366 -0.6422 -3.2457 -1.7602
  5374G12c O00099761  12.580   9.160   6.175 -0.3284  1.3445  0.6580
  5374G12c C01A99762  12.695   9.181   6.109  0.8407  0.1671 -0.7700
  5374G12c C02K99763  12.794   9.074   6.077  0.2412 -1.2491  0.4142
  5374G12c O00G99764  12.787   8.939   6.109 -0.1605  1.1331  1.3026
  5374G12c C02M99765  12.652   8.897   6.110  1.0610  0.6978 -1.1022
  5374G12c H01G99766  12.659   8.802   6.163  3.1696  2.6812  2.3987
  5374G12c H01F99767  12.614   8.898   6.008  3.1798  1.3706 -1.9177
  5374G12c H01E99768  12.580   8.921   6.187  1.7515 -6.5057  2.1941
  5374G12c C02J99769  12.901   9.109   5.994  0.6236  0.1425 -0.5194
  5374G12c H01H99770  12.984   9.041   5.986 -1.7358 -3.4277  3.5443
  5374G12c C02I99771  12.911   9.236   5.924  1.5655 -2.2460 -0.3628
  5374G12c C02N99772  12.957   9.233   5.783 -0.6494  1.0399 -0.8818
  5374G12c H01M99773  12.899   9.281   5.706 -1.0464  7.7642  3.2202
  5374G12c C02O99774  13.041   9.145   5.734  1.3808 -2.0041 -0.8310
  5374G12c H01L99775  13.075   9.063   5.795 -1.1271 -5.0170 -3.3431
  5374G12c C02P99776  13.115   9.167   5.599  0.7278  0.5469  0.1505
  5374G12c H01K99777  13.087   9.107   5.512 -1.5866 -0.1607  1.3343
  5374G12c H01J99778  13.079   9.263   5.562  2.7478  1.9517  1.7398
  5374G12c O00H99779  13.251   9.156   5.579 -0.7077 -1.2903  0.3657
  5374G12c H01I99780  13.269   9.077   5.531  3.4836 -0.3000  0.1105
  5374G12c C02H99781  12.831   9.334   5.976  0.6181  0.2269  1.6175
  5374G12c H01C99782  12.839   9.436   5.940 -5.0101  2.1375  5.0814
  5374G12c C02L99783  12.718   9.304   6.051  0.1784 -1.9896 -0.0286
  5374G12c H01D99784  12.678   9.393   6.097 -4.8941 -3.4617 -1.1934
  5374G12c C01399785  12.168   9.188   6.463 -0.8532 -0.8844 -1.2952
  5374G12c H00099786  12.195   9.292   6.470 -3.3130 -0.3104  0.5424
  5374G12c C01499787  12.030   9.152   6.437 -0.8299  1.1233  1.9058
  5374G12c C00F99788  11.918   9.254   6.414  0.1378  0.4119  0.1223
  5374G12c C00H99789  11.758   9.063   6.478 -0.8523  0.1747  0.1410
  5374G12c C00I99790  11.625   9.012   6.497  0.2646 -1.2596 -0.9983
  5374G12c C00J99791  11.597   8.864   6.527  0.7221  0.3290 -1.7174
  5374G12c C00Z99792  12.060   8.788   6.539  1.3937 -0.3189 -0.1124
  5374G12c C00Y99793  12.151   8.686   6.561 -0.2328 -0.9220  0.5930
  5374G12c H00699794  12.248   8.731   6.566 -3.7288  8.0613 -2.4371
  5374G12c C00X99795  12.137   8.577   6.641  0.6868 -0.0052 -1.5362
  5374G12c O00399796  12.249   8.502   6.672 -0.8943 -0.3751 -0.5276
  5374G12c C01B99797  12.330   8.471   6.564  0.4703  1.4739  0.6838
  5374G12c H00999798  12.317   8.535   6.477  1.0304  0.6399 -0.0169
  5374G12c H00899799  12.256   8.392   6.561  2.2897 -0.2003 -1.3806
  5374G12c H00799800  12.429   8.450   6.604  0.9918 -0.1111 -1.3661
  5374G12c C00W99801  12.026   8.586   6.710 -0.4438 -0.8655 -0.1054
  5374G12c O00499802  12.025   8.477   6.799  0.4620  0.0629 -0.7329
  5374G12c C01C99803  11.908   8.476   6.882 -0.1220 -0.2513 -0.0805
  5374G12c H00A99804  11.960   8.440   6.969 -3.1418 -1.1342  1.4373
  5374G12c C00P99805  11.771   8.531   6.837 -1.5600 -0.2431  0.0330
  5374G12c C00O99806  11.654   8.510   6.915 -0.8589 -1.0923 -0.3942
  5374G12c C01D99807  11.661   8.448   7.039 -0.4081 -0.6279 -0.3561
  5374G12c H00S99808  11.752   8.408   7.082  2.5344  7.1837  1.5629
  5374G12c C01E99809  11.561   8.452   7.140  0.8202  0.8102  1.7795
  5374G12c O00899810  11.550   8.425   7.273 -1.1184 -1.0100 -0.7803
  5374G12c C01V99811  11.676   8.406   7.319  3.0265  0.8470 -0.3517
  5374G12c C01Z99812  11.722   8.532   7.387  0.9726 -1.4458  2.4070
  5374G12c H00R99813  11.648   8.605   7.421 -2.0380 -3.4701  0.4652
  5374G12c H00Q99814  11.740   8.515   7.493 -2.5564 -5.7226  2.4283
  5374G12c O00999815  11.850   8.587   7.344 -0.7118  1.5349  1.3585
  5374G12c H00P99816  11.890   8.545   7.269 -0.8131  4.6633 -0.5175
  5374G12c C01W99817  11.731   8.282   7.317 -0.7229 -2.3515 -0.5591
  5374G12c H00O99818  11.659   8.213   7.275 -2.9496 -1.8453  2.2309
  5374G12c C01X99819  11.850   8.257   7.405 -1.3706  0.3295  0.3628
  5374G12c H00N99820  11.884   8.311   7.493  3.7298 -7.7009  3.9237
  5374G12c H00M99821  11.812   8.186   7.479  1.9753  0.7089  2.5671
  5374G12c C01Y99822  11.981   8.241   7.321 -0.0742  0.3289 -0.3282
  5374G12c C02D99823  12.002   8.119   7.239 -0.8899  0.1480 -1.7274
  5374G12c H01999824  11.926   8.043   7.243  1.4179 -2.2280 -1.4621
  5374G12c C02C99825  12.113   8.114   7.160 -1.2527  1.6201  0.0557
  5374G12c H01A99826  12.116   8.027   7.097  3.6030  1.7899 -0.1366
  5374G12c C02B99827  12.215   8.209   7.190 -0.6095 -0.6318 -0.7998
  5374G12c O00E99828  12.340   8.203   7.125 -1.1798  0.5230 -1.2376
  5374G12c H01B99829  12.328   8.263   7.053 -3.8630 -1.7646 -2.7881
  5374G12c C02F99830  12.206   8.319   7.254  0.7513  0.5072  0.6750
  5374G12c O00F99831  12.297   8.424   7.207 -0.4501 -0.1007 -0.8806
  5374G12c C02G99832  12.340   8.520   7.299 -0.6547  1.9033  1.0281
  5374G12c H01799833  12.412   8.597   7.271  1.8417 -0.8500 -0.5306
  5374G12c H01699834  12.414   8.468   7.360 -0.6470  4.1169  2.9498
  5374G12c H01599835  12.273   8.568   7.369 -3.8371  0.9634 -1.2487
  5374G12c C02E99836  12.079   8.344   7.311  0.5789  0.5200 -0.7222
  5374G12c H01899837  12.072   8.442   7.355 -2.7532 -0.0421  0.1381
  5374G12c C01F99838  11.442   8.530   7.107 -0.8094 -0.4581  1.5420
  5374G12c C01G99839  11.372   8.594   7.208 -1.6953 -0.0080 -1.2216
  5374G12c H00L99840  11.396   8.599   7.313 -8.1878 -0.4986  0.5348
  5374G12c C01H99841  11.285   8.706   7.171 -0.0548 -1.4535 -0.5064
  5374G12c H00B99842  11.261   8.758   7.263 -6.2681 -5.2972  0.3619
  5374G12c C01I99843  11.265   8.734   7.031  0.1807  0.8222  1.3055
  5374G12c C01U99844  11.403   8.558   6.965  0.0221  1.7396 -1.5594
  5374G12c C00S99845  11.716   8.808   6.583 -0.2782  0.9151  0.8600
  5374G12c C00K99846  11.491   8.836   6.601 -1.5299  1.6532  0.6286
  5374G12c C00N99847  11.520   8.570   6.882  0.0846 -1.3032  0.2406
  5374G12c C00099848  11.295   8.644   6.932 -1.2740 -1.8977  1.7326
  5374G12c C01J99849  11.218   8.844   6.945 -0.6629 -0.3625  0.2614
  5374G12c C01K99850  11.158   8.971   6.988 -0.1624  1.0039  0.6633
  5374G12c C01P99851  11.088   8.997   7.117  0.1051  0.5563  0.1880
  5374G12c C01Q99852  11.013   8.887   7.191 -0.2483 -1.4890  0.5317
  5374G12c H00G99853  11.008   8.788   7.149  0.9735 -1.4203  0.1944
  5374G12c C01R99854  10.975   8.889   7.335 -0.4053  1.6071  0.9435
  5374G12c H00F99855  10.957   8.979   7.393 -0.0682 -0.1520  3.8968
  5374G12c C01S99856  10.868   8.773   7.366 -1.1281 -1.1429 -0.3215
  5374G12c H00E99857  10.762   8.795   7.355 -0.4980  0.3631 -4.0774
  5374G12c H00D99858  10.875   8.708   7.279  3.3437 -0.1625 -0.8321
  5374G12c O00599859  10.910   8.696   7.471 -0.9858 -0.3546 -0.8740
  5374G12c H00C99860  10.853   8.723   7.541 -0.2203 -2.0960  0.4760
  5374G12c C01O99861  11.026   9.118   7.140  0.1089  0.1844  1.3422
  5374G12c H00H99862  10.944   9.121   7.210 -3.3444  1.2752 -2.5116
  5374G12c C01N99863  11.041   9.229   7.069  0.4860 -0.6669 -0.1051
  5374G12c O00699864  10.957   9.334   7.114 -0.1987 -0.1571  0.6081
  5374G12c C01T99865  10.888   9.405   6.997  1.5349  0.8082  0.0173
  5374G12c H00K99866  10.786   9.412   7.036  2.5706 -3.6482  3.9341
  5374G12c H00J99867  10.872   9.349   6.904  1.5854  3.7827 -1.8350
  5374G12c H00I99868  10.899   9.513   6.992 -0.8877  1.0609 -0.4163
  5374G12c C01M99869  11.123   9.213   6.955  0.9523 -0.5813 -0.3999
  5374G12c C02099870  11.399   8.946   6.632  0.4339  1.8669  0.0443
  5374G12c C02199871  11.437   9.083   6.616 -1.1336  0.3730 -0.1889
  5374G12c C01L99872  11.187   9.086   6.907  1.1144 -0.8643  1.1941
  5374G12c O00799873  11.134   9.316   6.878 -0.6743 -0.4478 -0.4787
  5374G12c C02299874  11.388   9.202   6.663  1.4814  1.0747  1.3209
  5374G12c C02399875  11.542   9.124   6.532 -1.6019  0.3279  0.4476
  5374G12c C00G99876  11.782   9.211   6.457  0.1429 -0.3860 -1.6273
  5374G12c C00E99877  11.939   9.387   6.415 -1.0754  1.0259  1.3599
  5374G12c O00A99878  12.063   9.437   6.364 -1.1599  0.4318  0.1879
  5374G12c C02499879  12.074   9.472   6.234 -0.7960  0.3623  0.3591
  5374G12c H00V99880  12.176   9.507   6.252  0.2442 -1.9637 -0.8337
  5374G12c H00U99881  12.037   9.571   6.207  1.2325  1.3059  0.8907
  5374G12c H00T99882  12.069   9.387   6.166  1.5070 -0.0753  0.6975
  5384G12c C00D99883   8.782   9.842  11.560 -1.0687 -0.0276 -1.2337
  5384G12c O00B99884   8.840   9.959  11.533 -0.0121  0.3613 -1.0839
  5384G12c C02599885   8.943  10.036  11.601 -0.5622  1.1818 -1.0149
  5384G12c C02699886   9.066   9.950  11.623 -0.5632 -1.9184 -1.8823
  5384G12c H00Y99887   9.078   9.876  11.544  4.1172 -1.8147 -1.3906
  5384G12c H00X99888   9.039   9.894  11.712 -3.7643 -3.8522 -3.9345
  5384G12c O00C99889   9.166  10.033  11.600 -1.0431 -0.2638 -1.2455
  5384G12c H00W99890   9.198  10.050  11.513  0.0854  0.3488 -0.7279
  5384G12c C02799891   8.919  10.156  11.666 -0.2592  0.3376  0.2998
  5384G12c O00D99892   8.804  10.216  11.631  0.2236 -0.5366  1.2536
  5384G12c H00Z99893   8.784  10.141  11.577 -6.3972  0.5881  1.6747
  5384G12c C02899894   9.002  10.216  11.774  0.4812 -1.2210  0.9040
  5384G12c C02999895   9.100  10.318  11.770 -0.4721  1.4799  0.4930
  5384G12c H01099896   9.130  10.360  11.676  5.4743 -0.7914  1.1835
  5384G12c C02T99897   9.171  10.360  11.879  1.4715 -0.4481  2.1348
  5384G12c H01O99898   9.240  10.443  11.870  1.3914 -0.8310 -4.5627
  5384G12c C02S99899   9.135  10.303  12.006  0.5875 -0.7466 -2.6201
  5384G12c O00J99900   9.192  10.340  12.127 -0.7036 -0.6243 -0.0278
  5384G12c H01P99901   9.147  10.296  12.198 -1.4477  2.6648  1.6482
  5384G12c C02R99902   9.035  10.210  12.017  1.2893  1.0330  1.2188
  5384G12c O00I99903   9.004  10.152  12.122  0.0053  0.2760  0.7232
  5384G12c C02Q99904   9.057  10.022  12.157 -1.2689 -0.1396 -2.1525
  5384G12c H01N99905   9.160  10.006  12.124 -2.0437  3.2321 -6.7250
  5384G12c H01R99906   8.991   9.939  12.137 -4.3264  0.8553  3.0241
  5384G12c H01Q99907   9.011   9.980  12.246 -0.4051  8.2062  2.8462
  5384G12c C02A99908   8.971  10.165  11.894 -0.1326  1.7191  0.5209
  5384G12c H01199909   8.890  10.094  11.906  1.6841 -1.1505 -3.3244
  5384G12c C00C99910   8.853   9.739  11.501  1.3374 -0.6054  0.6129
  5384G12c H01299911   8.928   9.767  11.428 -0.7417  3.6002 -0.1080
  5384G12c C00B99912   8.822   9.612  11.520 -0.5972  1.5981  0.1659
  5384G12c C00A99913   8.877   9.493  11.434  0.4779  0.1972 -1.8921
  5384G12c C00999914   8.943   9.485  11.313 -0.1709  0.6229  0.3100
  5384G12c C00899915   9.002   9.578  11.224 -0.5601  1.7783  0.7059
  5384G12c H01399916   8.994   9.683  11.250 -4.7158  3.1970 -5.2601
  5384G12c C00799917   9.040   9.539  11.088  0.8825 -0.2924 -1.0144
  5384G12c H01499918   9.094   9.591  11.010  4.9788 -2.0158  0.5737
  5384G12c C00699919   9.010   9.396  11.053 -1.1977 -0.5383  0.0367
  5384G12c C00599920   8.946   9.315  11.153  0.1050 -1.7698  0.3799
  5384G12c C00499921   8.885   9.196  11.123  1.4470  0.3695  0.3700
  5384G12c C00399922   8.811   9.118  11.208  0.0232  1.6912  0.7267
  5384G12c C00299923   8.735   9.003  11.168  0.1655 -0.3315 -0.5807
  5384G12c C00199924   8.641   8.911  11.245  1.6434 -2.0902  0.0743
  5384G12c C00M99925   8.525   8.968  11.303 -0.6114  0.4111 -0.2529
  5384G12c C00L99926   8.541   9.055  11.409 -0.4606 -0.7330  0.0567
  5384G12c C00R99927   8.435   9.128  11.471 -0.3100 -0.1080  1.3842
  5384G12c C00Q99928   8.290   9.112  11.460 -0.2257  0.9106 -0.3083
  5384G12c C00V99929   8.237   9.186  11.565 -0.2739 -0.1758  0.0465
  5384G12c C00U99930   8.298   9.303  11.620  1.9541  0.7420 -0.2536
  5384G12c C00T99931   8.432   9.330  11.592  0.1744  0.8074  0.5045
  5384G12c C01699932   8.506   9.439  11.635  1.3814 -0.3979 -0.9178
  5384G12c C01599933   8.444   9.527  11.719  1.8157  0.5892 -0.2300
  5384G12c C01099934   8.319   9.505  11.747  1.1400 -0.1060 -2.4175
  5384G12c C01199935   8.243   9.602  11.825 -0.4484 -0.2481 -0.0885
  5384G12c H00599936   8.179   9.565  11.904 -0.4436  1.2071  0.6194
  5384G12c C01299937   8.304   9.731  11.852 -0.5211 -0.1064 -0.2469
  5384G12c C01799938   8.228   9.827  11.936 -0.6904  0.0380  0.4870
  5384G12c O00299939   8.147   9.783  12.045  0.6797 -0.6220  0.1340
  5384G12c H00499940   8.128   9.860  12.095  0.3881 -1.7176  1.7432
  5384G12c C01899941   8.241   9.956  11.939  0.6373 -0.8824  1.1226
  5384G12c O00199942   8.284  10.019  11.835 -0.4666  2.1828 -0.6700
  5384G12c H00399943   8.315   9.931  11.822  0.5124  2.2005  1.3360
  5384G12c C01999944   8.191  10.054  12.035 -1.4174 -0.4804 -1.8109
  5384G12c H00299945   8.245  10.141  11.997 -2.9222 -0.8510 -4.8811
  5384G12c H00199946   8.094  10.066  11.987 -4.9748  3.4697  5.4011
  5384G12c O00099947   8.199  10.017  12.160  1.3584  0.8808  1.1660
  5384G12c C01A99948   8.100  10.030  12.254  0.8728  1.0979 -0.0622
  5384G12c C02K99949   8.131  10.071  12.386 -0.0802 -0.6416 -0.0723
  5384G12c O00G99950   8.243  10.141  12.404 -0.7943 -0.9946 -0.0571
  5384G12c C02M99951   8.345  10.077  12.470 -0.9940 -0.9497 -0.6759
  5384G12c H01G99952   8.326  10.037  12.569 -2.2625  4.8944  1.6841
  5384G12c H01F99953   8.424  10.149  12.491 -0.7908 -1.3944  0.0768
  5384G12c H01E99954   8.401  10.005  12.411 -0.3405 -1.2905  0.3492
  5384G12c C02J99955   8.088   9.978  12.479  0.2997  0.3620  1.1710
  5384G12c H01H99956   8.142   9.977  12.573  0.7359 -1.4048  0.9054
  5384G12c C02I99957   7.957   9.944  12.471 -0.4996  2.1498  0.7540
  5384G12c C02N99958   7.908   9.875  12.582  0.1089 -0.8981  0.2520
  5384G12c H01M99959   7.958   9.782  12.607 -6.1373 -5.5674 -3.1109
  5384G12c C02O99960   7.786   9.886  12.639 -0.8900 -1.6164 -0.9343
  5384G12c H01L99961   7.792   9.837  12.735  1.7223  2.6118  1.1903
  5384G12c C02P99962   7.672   9.980  12.609 -1.7449  1.3817 -0.1818
  5384G12c H01K99963   7.676   9.996  12.501  4.7472 -0.5646 -0.4504
  5384G12c H01J99964   7.580   9.922  12.601  0.2170 -1.7427 -1.3797
  5384G12c O00H99965   7.649  10.089  12.685 -0.7676  0.3168  0.2932
  5384G12c H01I99966   7.730  10.132  12.707  1.6231 -2.0036 -3.3320
  5384G12c C02H99967   7.897   9.946  12.334  0.7241  0.9708  2.0561
  5384G12c H01C99968   7.790   9.952  12.347  0.3512  3.5682 -1.5480
  5384G12c C02L99969   7.969   9.972  12.233  0.7736  1.3441 -1.1274
  5384G12c H01D99970   7.927   9.960  12.134  2.7013 -0.3065 -1.7921
  5384G12c C01399971   8.420   9.762  11.794  0.2331 -2.4964  1.1617
  5384G12c H00099972   8.435   9.865  11.765  2.4782 -3.5862 -1.9300
  5384G12c C01499973   8.499   9.654  11.730 -2.0558 -0.2673  0.7227
  5384G12c C00F99974   8.616   9.684  11.654 -0.6883  0.3731  0.2087
  5384G12c C00H99975   8.642   9.462  11.587 -0.1142 -1.0085 -1.7834
  5384G12c C00I99976   8.702   9.349  11.533 -0.0408 -0.3317  0.9552
  5384G12c C00J99977   8.632   9.224  11.535 -0.3746  0.8630  0.3471
  5384G12c C00Z99978   8.246   9.386  11.712  0.9802  0.0746  0.4061
  5384G12c C00Y99979   8.110   9.366  11.759 -1.0605  0.0962  0.7484
  5384G12c H00699980   8.067   9.436  11.829 -4.8748  1.7457 -3.0244
  5384G12c C00X99981   8.043   9.265  11.688  0.4818 -0.5682  0.6176
  5384G12c O00399982   7.912   9.295  11.704  0.6043  0.0621 -1.8039
  5384G12c C01B99983   7.865   9.293  11.839 -0.3253  0.9503  1.2859
  5384G12c H00999984   7.773   9.347  11.815 -1.5514 -3.0805 -3.9829
  5384G12c H00899985   7.923   9.324  11.926  3.2033 -2.2301  0.2053
  5384G12c H00799986   7.831   9.193  11.862  1.0343  0.1465 -0.0857
  5384G12c C00W99987   8.092   9.188  11.583 -0.6479  1.0219  0.2603
  5384G12c O00499988   7.995   9.131  11.494 -1.3040  0.0536 -0.8117
  5384G12c C01C99989   8.051   9.021  11.436 -0.9486  0.8519  0.8165
  5384G12c H00A99990   7.998   8.927  11.448  0.0972  0.6296  3.8705
  5384G12c C00P99991   8.202   9.023  11.389  0.3229  1.1433 -1.4490
  5384G12c C00O99992   8.257   8.961  11.290  0.8418  1.2334  0.2415
  5384G12c C01D99993   8.178   8.890  11.209  2.0514  0.1540  1.7344
  5384G12c H00S99994   8.074   8.915  11.196  2.2375 -0.4377 -1.0746
  5384G12c C01E99995   8.209   8.879  11.080 -0.9947  1.2201 -0.8119
  5384G12c O00899996   8.096   8.871  10.978 -0.5757 -0.6084  1.3174
  5384G12c C01V99997   8.035   8.746  10.985  3.0843 -1.6503 -1.0632
  5384G12c C01Z99998   8.102   8.626  10.912 -0.2800 -1.5139 -0.5571
  5384G12c H00R99999   8.166   8.582  10.989 -0.6218  2.9637  2.5129
  5384G12c H00Q    0   8.044   8.564  10.844 -1.4348  0.2741 -1.2212
  5384G12c O009    1   8.193   8.640  10.810  0.1024  1.1565 -0.0136
  5384G12c H00P    2   8.149   8.703  10.755  0.2367  0.8208 -0.5123
  5384G12c C01W    3   7.903   8.733  11.013 -0.0136 -1.1774  0.7385
  5384G12c H00O    4   7.857   8.643  10.976  2.9846 -3.5552  2.5463
  5384G12c C01X    5   7.832   8.850  11.066 -0.0167 -0.3973 -0.8037
  5384G12c H00N    6   7.834   8.852  11.175  1.4081 -0.1813 -0.8193
  5384G12c H00M    7   7.891   8.941  11.049  0.4736 -1.1452 -3.2165
  5384G12c C01Y    8   7.703   8.907  11.015  2.0244  1.5309 -1.4951
  5384G12c C02D    9   7.660   9.040  11.031 -1.6078  0.4794 -0.4300
  5384G12c H019   10   7.699   9.123  11.088  5.8926 -4.2993  2.1038
  5384G12c C02C   11   7.550   9.069  10.945 -0.9671  1.8456 -1.5479
  5384G12c H01A   12   7.501   9.163  10.964 -6.7849 -0.9719 -1.7961
  5384G12c C02B   13   7.480   8.972  10.860  0.5535  2.3187 -0.7328
  5384G12c O00E   14   7.366   9.004  10.780 -0.9556  0.0146 -0.5852
  5384G12c H01B   15   7.336   8.921  10.746  3.4220  0.5832 -6.7141
  5384G12c C02F   16   7.530   8.842  10.837 -2.3689  0.4117 -0.0191
  5384G12c O00F   17   7.493   8.780  10.711  1.5273 -0.7695  0.3355
  5384G12c C02G   18   7.433   8.656  10.740  1.4043 -1.2157 -0.5654
  5384G12c H017   19   7.336   8.682  10.782  1.7852  1.3437 -1.1623
  5384G12c H016   20   7.511   8.590  10.775 -0.0185 -2.4242  0.3872
  5384G12c H015   21   7.421   8.617  10.639 -2.4357 -5.0503  1.2033
  5384G12c C02E   22   7.640   8.826  10.919 -0.4615  0.1138  0.9434
  5384G12c H018   23   7.679   8.725  10.914 -8.4768 -3.2856 -0.0076
  5384G12c C01F   24   8.346   8.858  11.041  0.1176 -1.2853 -1.2419
  5384G12c C01G   25   8.392   8.849  10.908 -0.7509  1.2080  0.9621
  5384G12c H00L   26   8.312   8.839  10.836 -2.6328  4.7508  2.4591
  5384G12c C01H   27   8.529   8.864  10.893  2.3925  1.5175 -0.0185
  5384G12c H00B   28   8.573   8.891  10.798 -1.4415 -0.6007 -2.5229
  5384G12c C01I   29   8.623   8.875  11.005  0.1099 -0.1758  0.4314
  5384G12c C01U   30   8.438   8.836  11.142 -0.6893  0.8401  0.2776
  5384G12c C00S   31   8.503   9.221  11.557  0.6547 -0.6121  1.0483
  5384G12c C00K   32   8.659   9.142  11.423  0.6264  0.6882 -0.9540
  5384G12c C00N   33   8.402   8.919  11.252  0.5567 -0.8425  0.4512
  5384G12c C000   34   8.581   8.834  11.129  0.4012 -1.7271  0.3340
  5384G12c C01J   35   8.726   8.982  11.026 -1.2266  1.3876 -0.2589
  5384G12c C01K   36   8.835   9.022  10.935  1.8319 -0.4472  0.0829
  5384G12c C01P   37   8.880   8.974  10.811  1.1134  0.1259  2.2966
  5384G12c C01Q   38   8.841   8.841  10.769 -0.4340 -0.7254  0.0908
  5384G12c H00G   39   8.858   8.757  10.835  5.3552  1.0179  1.0577
  5384G12c C01R   40   8.805   8.822  10.642 -0.0151 -0.4102  0.6875
  5384G12c H00F   41   8.794   8.905  10.575  1.0788 -2.3859 -2.0051
  5384G12c C01S   42   8.704   8.697  10.613  0.4115  0.8511  0.8751
  5384G12c H00E   43   8.684   8.621  10.690  1.9150  3.4594  3.9518
  5384G12c H00D   44   8.753   8.658  10.524 -3.4356 -0.1043 -0.9287
  5384G12c O005   45   8.575   8.711  10.579  0.0330  0.0974  0.8013
  5384G12c H00C   46   8.560   8.797  10.615  3.6590 -0.9327  5.2300
  5384G12c C01O   47   8.945   9.064  10.729  0.3377 -2.1888 -0.4845
  5384G12c H00H   48   8.989   9.021  10.640  8.1254 -1.2357  2.5348
  5384G12c C01N   49   9.019   9.173  10.780  2.2128 -0.1403  0.9876
  5384G12c O006   50   9.070   9.275  10.707  0.6979 -0.1328 -1.4250
  5384G12c C01T   51   9.066   9.285  10.569 -0.7791 -0.3299  1.5195
  5384G12c H00K   52   8.975   9.262  10.514  1.9905 -1.3605 -2.8121
  5384G12c H00J   53   9.148   9.235  10.518 -3.0617 -5.7765  2.8761
  5384G12c H00I   54   9.054   9.389  10.537  0.8393  0.2204  2.6353
  5384G12c C01M   55   9.005   9.204  10.914 -0.4345 -2.2565 -0.8464
  5384G12c C020   56   8.774   9.169  11.342  0.1555 -1.0286 -0.1854
  5384G12c C021   57   8.871   9.278  11.382  2.6932  0.1982 -0.6632
  5384G12c C01L   58   8.913   9.137  11.001 -0.4914  0.7910 -1.1908
  5384G12c O007   59   9.056   9.331  10.946  0.2715  0.4725  1.2234
  5384G12c C022   60   8.924   9.356  11.282  0.9787  0.9781  0.3514
  5384G12c C023   61   8.832   9.374  11.476  1.2245  0.2426 -0.7950
  5384G12c C00G   62   8.698   9.590  11.588  0.3736 -1.0031 -0.1950
  5384G12c C00E   63   8.679   9.815  11.645  0.1991  0.1886 -0.1153
  5384G12c O00A   64   8.637   9.919  11.724  0.9760 -0.5087 -0.2748
  5384G12c C024   65   8.679   9.891  11.871 -0.2241 -0.7120 -0.5188
  5384G12c H00V   66   8.677   9.785  11.897 -4.8939 -1.4199 -3.1873
  5384G12c H00U   67   8.621   9.937  11.950  3.4804  1.6440  0.9525
  5384G12c H00T   68   8.787   9.897  11.884 -0.0438 -1.6056 -1.4835
  5394G12c C00D   69   4.712   8.414   8.635 -0.3124 -0.5909 -0.5368
  5394G12c O00B   70   4.618   8.317   8.622  0.2111 -1.9339 -0.2518
  5394G12c C025   71   4.557   8.333   8.494 -0.0231 -0.4447 -0.8387
  5394G12c C026   72   4.598   8.252   8.371  0.6563 -1.0977  0.5504
  5394G12c H00Y   73   4.530   8.229   8.289  0.5447  5.0091 -1.3087
  5394G12c H00X   74   4.638   8.173   8.434  3.1142 -2.6188 -2.7925
  5394G12c O00C   75   4.718   8.336   8.318 -0.8787  0.0311  0.3783
  5394G12c H00W   76   4.684   8.423   8.331  0.1600  0.6518 -0.8602
  5394G12c C027   77   4.441   8.395   8.477  0.6533  0.7635 -0.3483
  5394G12c O00D   78   4.351   8.410   8.573 -0.0192 -0.5159  0.6604
  5394G12c H00Z   79   4.292   8.481   8.550 -1.7234 -1.5233  1.8165
  5394G12c C028   80   4.413   8.446   8.358 -0.5455  1.3644  2.3181
  5394G12c C029   81   4.283   8.414   8.292  0.5365  0.4318  1.3063
  5394G12c H010   82   4.208   8.361   8.349 -2.9739  2.0334 -1.6197
  5394G12c C02T   83   4.222   8.464   8.183 -0.8036 -1.1828  0.1540
  5394G12c H01O   84   4.132   8.430   8.135 -0.0383  0.8850 -2.9165
  5394G12c C02S   85   4.285   8.582   8.149  0.3627 -0.2440 -1.3992
  5394G12c O00J   86   4.225   8.658   8.051 -1.6847  0.0647 -0.0902
  5394G12c H01P   87   4.286   8.687   7.984 -2.8482  0.5266 -0.9710
  5394G12c C02R   88   4.411   8.629   8.211 -0.8367 -2.3715  1.6042
  5394G12c O00I   89   4.427   8.758   8.200 -0.2098 -0.4062 -0.9633
  5394G12c C02Q   90   4.336   8.842   8.274  0.2631 -1.7607 -0.0050
  5394G12c H01N   91   4.373   8.944   8.278  0.4655 -1.4607 -5.7765
  5394G12c H01R   92   4.337   8.823   8.382  0.5284  2.6117  0.8619
  5394G12c H01Q   93   4.238   8.871   8.236 -3.3845 -6.9626  4.6536
  5394G12c C02A   94   4.468   8.560   8.322  0.4946 -1.1597 -0.7139
  5394G12c H011   95   4.528   8.599   8.403  5.5436  0.2119 -4.8358
  5394G12c C00C   96   4.859   8.405   8.631 -0.4855 -0.3346  1.8626
  5394G12c H012   97   4.909   8.311   8.613  4.7262  1.5245  5.3233
  5394G12c C00B   98   4.948   8.505   8.677  0.4212  0.5968 -0.8982
  5394G12c C00A   99   5.093   8.492   8.726  0.1768  0.0748  0.4111
  5394G12c C009  100   5.137   8.383   8.801 -2.2439  0.5729 -0.2845
  5394G12c C008  101   5.094   8.245   8.807  0.1715  0.4187 -0.4383
  5394G12c H013  102   4.993   8.213   8.784 -0.1951  2.8226 -2.4088
  5394G12c C007  103   5.202   8.168   8.880  2.4956 -0.1481  0.2012
  5394G12c H014  104   5.166   8.067   8.893 -4.8427  1.9591 -1.1680
  5394G12c C006  105   5.286   8.223   8.964 -0.9878 -0.2721 -0.8767
  5394G12c C005  106   5.318   8.358   8.937 -0.6705  0.5046  0.1899
  5394G12c C004  107   5.424   8.415   9.008  0.2428 -0.1074 -0.3019
  5394G12c C003  108   5.418   8.556   9.007  1.5041 -0.8427  1.6821
  5394G12c C002  109   5.498   8.621   9.104 -1.7677 -1.1375  1.1549
  5394G12c C001  110   5.509   8.761   9.158 -0.3667  1.9209 -0.1851
  5394G12c C00M  111   5.381   8.841   9.147 -0.6672  0.3509  0.3810
  5394G12c C00L  112   5.298   8.842   9.047 -0.1542  0.9483 -1.2282
  5394G12c C00R  113   5.187   8.929   9.055 -0.4129 -0.0980 -0.5798
  5394G12c C00Q  114   5.121   8.997   9.155 -1.0154  0.3682 -0.4683
  5394G12c C00V  115   4.990   9.040   9.125 -0.3314  1.2667  1.0475
  5394G12c C00U  116   4.916   8.995   9.006 -0.4469 -1.3836  1.0107
  5394G12c C00T  117   4.993   8.928   8.905 -0.6501 -1.4907 -1.2258
  5394G12c C016  118   4.935   8.855   8.799 -1.6253 -0.8337 -0.2737
  5394G12c C015  119   4.796   8.873   8.783 -0.6564 -0.1069 -1.8060
  5394G12c C010  120   4.723   8.970   8.862  0.7703  0.4640  0.9337
  5394G12c C011  121   4.600   9.015   8.807  0.8398  0.5569 -0.4692
  5394G12c H005  122   4.578   9.120   8.810 -3.1156 -0.2141  1.7326
  5394G12c C012  123   4.546   8.952   8.697  0.9653  1.2106 -1.1056
  5394G12c C017  124   4.438   9.001   8.624 -0.1707  1.2378 -0.0662
  5394G12c O002  125   4.331   8.911   8.585 -0.2531 -0.4602  0.0999
  5394G12c H004  126   4.289   8.936   8.504 -1.5315 -3.1563 -0.1019
  5394G12c C018  127   4.447   9.113   8.563 -0.4641 -0.5388 -0.4044
  5394G12c O001  128   4.564   9.198   8.588 -0.2639  0.4197 -0.8916
  5394G12c H003  129   4.620   9.124   8.607 -1.5269 -1.9319 -5.4854
  5394G12c C019  130   4.340   9.194   8.491 -0.2753  0.3527 -1.0361
  5394G12c H002  131   4.279   9.268   8.542 -0.2386 -0.7386  0.6322
  5394G12c H001  132   4.405   9.267   8.442  0.9698 -1.0556 -1.5173
  5394G12c O000  133   4.239   9.137   8.395  0.3152  0.2810  0.2060
  5394G12c C01A  134   4.116   9.155   8.387 -1.8531  0.5327  0.0082
  5394G12c C02K  135   4.042   9.120   8.506  1.2915 -1.3662 -0.7785
  5394G12c O00G  136   4.093   9.062   8.632  1.2235 -0.7337  0.1048
  5394G12c C02M  137   4.036   8.941   8.670  0.9127 -1.0756  1.0800
  5394G12c H01G  138   3.932   8.908   8.661  2.2980 -5.5109  0.2462
  5394G12c H01F  139   4.061   8.854   8.610  1.3515 -1.9039  2.4604
  5394G12c H01E  140   4.061   8.938   8.776 -7.1713  0.3256  3.3816
  5394G12c C02J  141   3.909   9.169   8.512 -1.3873  0.7068  0.6376
  5394G12c H01H  142   3.856   9.177   8.606 -4.2099  1.6349 -0.9627
  5394G12c C02I  143   3.854   9.239   8.416  1.2394  0.0749  0.9662
  5394G12c C02N  144   3.712   9.298   8.429 -1.5282  1.1255  0.5059
  5394G12c H01M  145   3.716   9.387   8.491 -2.4726  0.6725  1.2428
  5394G12c C02O  146   3.599   9.247   8.395 -0.0437  0.5063  0.5082
  5394G12c H01L  147   3.609   9.171   8.319  4.7566  1.1265  0.3881
  5394G12c C02P  148   3.471   9.302   8.406 -1.1677  0.0415  1.6305
  5394G12c H01K  149   3.499   9.324   8.509  5.3930 -0.9456  0.2898
  5394G12c H01J  150   3.460   9.401   8.361 -1.1813  1.4990  4.7492
  5394G12c O00H  151   3.362   9.217   8.460  0.7033  0.9733  1.0994
  5394G12c H01I  152   3.324   9.252   8.539 -0.6037  0.6043  0.6470
  5394G12c C02H  153   3.928   9.261   8.282 -0.9586  0.7064  0.4981
  5394G12c H01C  154   3.901   9.287   8.181  0.1942  0.5262  0.1332
  5394G12c C02L  155   4.055   9.192   8.265  0.8094 -1.0987  0.3360
  5394G12c H01D  156   4.070   9.191   8.158 -0.5547  5.6325 -0.1297
  5394G12c C013  157   4.592   8.825   8.670 -0.0294  0.8582  1.4691
  5394G12c H000  158   4.581   8.745   8.598  2.6604  0.7903  1.0576
  5394G12c C014  159   4.714   8.793   8.711 -0.8960  0.0577 -0.7137
  5394G12c C00F  160   4.763   8.660   8.702  0.6363  1.2134 -0.8616
  5394G12c C00H  161   5.004   8.741   8.756  0.0724 -0.3027  1.1837
  5394G12c C00I  162   5.136   8.720   8.774  2.1145 -0.2689 -0.9064
  5394G12c C00J  163   5.200   8.820   8.857 -0.6103  0.9911 -1.8113
  5394G12c C00Z  164   4.790   9.017   8.985  1.1444 -1.2730 -1.2104
  5394G12c C00Y  165   4.702   9.088   9.082  0.4640 -0.0145 -1.2740
  5394G12c H006  166   4.608   9.125   9.045  0.7781  1.4604 -0.6284
  5394G12c C00X  167   4.760   9.127   9.197 -0.1659  0.1508 -0.9179
  5394G12c O003  168   4.679   9.184   9.298 -0.6449  0.4913 -0.6815
  5394G12c C01B  169   4.683   9.327   9.282  1.0383 -0.0147  0.6176
  5394G12c H009  170   4.726   9.366   9.375 -2.3482 -0.7358  2.5556
  5394G12c H008  171   4.740   9.374   9.201  1.9666  3.4511  3.1520
  5394G12c H007  172   4.578   9.350   9.295  1.6556  3.8636 -0.6435
  5394G12c C00W  173   4.897   9.080   9.224 -0.9678 -1.8333 -0.2753
  5394G12c O004  174   4.928   9.062   9.351 -0.0745  0.4097  0.2815
  5394G12c C01C  175   5.064   9.074   9.378  1.4895  0.1992 -1.2911
  5394G12c H00A  176   5.082   9.146   9.457 -0.6424 -2.4567  1.7463
  5394G12c C00P  177   5.155   9.022   9.291  0.0927  0.9972  0.7163
  5394G12c C00O  178   5.267   8.960   9.347  0.1133 -0.6158 -1.4643
  5394G12c C01D  179   5.287   8.982   9.482  1.1402 -0.6995 -1.0362
  5394G12c H00S  180   5.252   9.059   9.549 -1.1247  0.7868 -3.7966
  5394G12c C01E  181   5.348   8.887   9.564  0.5606 -0.5666  1.7785
  5394G12c O008  182   5.318   8.884   9.694  1.2460 -0.0944 -1.2279
  5394G12c C01V  183   5.396   8.849   9.802 -0.5262  0.1066 -1.0557
  5394G12c C01Z  184   5.338   8.762   9.909  0.0373 -0.4305 -0.1789
  5394G12c H00R  185   5.351   8.822   9.999  5.6779  1.5801 -2.0633
  5394G12c H00Q  186   5.241   8.727   9.876  0.2556  0.7633 -2.1741
  5394G12c O009  187   5.412   8.658   9.908  0.9902  1.0367 -0.2014
  5394G12c H00P  188   5.502   8.686   9.904  0.7315  1.6885 -1.9430
  5394G12c C01W  189   5.480   8.947   9.825  0.6356 -0.1745 -1.4609
  5394G12c H00O  190   5.485   9.028   9.754 -9.1892  2.1947 -0.1991
  5394G12c C01X  191   5.550   9.004   9.942  1.1960 -0.0057  1.7104
  5394G12c H00N  192   5.542   9.113   9.947 -0.5048  0.0423 -1.0931
  5394G12c H00M  193   5.498   8.991  10.037 -0.8741  1.8649  0.8819
  5394G12c C01Y  194   5.695   8.991   9.964 -1.3084  0.0568  0.5194
  5394G12c C02D  195   5.783   8.976   9.852 -0.6198  0.7756  0.3321
  5394G12c H019  196   5.771   9.028   9.758  0.1171  3.1029  1.4822
  5394G12c C02C  197   5.915   8.903   9.864  0.3248 -0.2882  0.0509
  5394G12c H01A  198   5.953   8.880   9.765  1.0452 -0.0055  0.2605
  5394G12c C02B  199   5.946   8.847  10.005  0.2950  0.5325 -0.3711
  5394G12c O00E  200   6.064   8.788  10.024 -0.6824 -0.3960 -1.6587
  5394G12c H01B  201   6.035   8.755  10.107 -2.5595  2.6747 -0.9796
  5394G12c C02F  202   5.857   8.841  10.104 -1.3238 -0.3787  1.0099
  5394G12c O00F  203   5.893   8.781  10.230  0.2957  0.8532 -1.4721
  5394G12c C02G  204   5.793   8.764  10.319  2.0568  2.0071  0.0675
  5394G12c H017  205   5.728   8.677  10.303 -1.5636  4.3895  1.0969
  5394G12c H016  206   5.797   8.766  10.428 -0.3195 -1.1262  0.2856
  5394G12c H015  207   5.750   8.864  10.329  4.0013  2.6361  2.5628
  5394G12c C02E  208   5.723   8.894  10.075  1.9910 -0.3678 -1.0348
  5394G12c H018  209   5.629   8.872  10.123  2.1989 -1.8521 -1.3006
  5394G12c C01F  210   5.436   8.805   9.491 -1.7821  0.4006  1.5549
  5394G12c C01G  211   5.499   8.691   9.550 -0.0244 -1.3616  0.3983
  5394G12c H00L  212   5.459   8.640   9.637  5.3538 -5.3866  0.7767
  5394G12c C01H  213   5.554   8.599   9.461 -0.4574  0.0925 -0.6874
  5394G12c H00B  214   5.579   8.498   9.490 -0.1827  0.8217  1.7495
  5394G12c C01I  215   5.588   8.619   9.320 -0.3526 -1.5224  1.0439
  5394G12c C01U  216   5.468   8.826   9.352  0.8759  0.8187  0.0526
  5394G12c C00S  217   5.120   8.906   8.931 -0.8979 -1.0006 -0.1228
  5394G12c C00K  218   5.309   8.776   8.937 -1.8120  0.5023 -0.5997
  5394G12c C00N  219   5.354   8.869   9.278  1.4065 -0.2392 -0.4087
  5394G12c C000  220   5.565   8.750   9.297 -1.5426  0.9065  0.7134
  5394G12c C01J  221   5.557   8.539   9.208  0.5197  2.5847  0.8652
  5394G12c C01K  222   5.590   8.406   9.191 -1.5552  0.8769 -1.1886
  5394G12c C01P  223   5.664   8.316   9.272  0.8548  0.2738 -0.3662
  5394G12c C01Q  224   5.748   8.365   9.381  0.8570  0.8510  0.0391
  5394G12c H00G  225   5.836   8.388   9.323  1.9215  0.5605  1.4927
  5394G12c C01R  226   5.737   8.341   9.510  1.2472 -0.0096  0.2412
  5394G12c H00F  227   5.642   8.338   9.561  1.2693  3.7746  0.6407
  5394G12c C01S  228   5.869   8.316   9.585 -0.7369 -1.1324  1.2408
  5394G12c H00E  229   5.866   8.221   9.638 -4.4032 -0.9036  1.5931
  5394G12c H00D  230   5.957   8.303   9.524  2.5047  3.3932  4.6205
  5394G12c O005  231   5.901   8.427   9.662  0.1971 -0.4940 -2.8283
  5394G12c H00C  232   5.994   8.412   9.659 -0.0311 -1.7340 -4.1228
  5394G12c C01O  233   5.643   8.175   9.263 -0.6989 -1.5641  0.2509
  5394G12c H00H  234   5.698   8.129   9.345  1.6181  1.1738  0.2831
  5394G12c C01N  235   5.527   8.122   9.194  1.1086 -0.0010 -1.0294
  5394G12c O006  236   5.475   7.988   9.214 -0.1520  0.8590 -2.3312
  5394G12c C01T  237   5.480   7.947   9.356  0.1479  0.5259 -1.1817
  5394G12c H00K  238   5.481   8.020   9.437 -0.0026 -4.6551  3.8211
  5394G12c H00J  239   5.558   7.873   9.376 -2.9858 -1.4127  5.4748
  5394G12c H00I  240   5.380   7.908   9.376  2.8879 -5.4365  2.0906
  5394G12c C01M  241   5.461   8.205   9.119 -0.1143  0.4575  1.6948
  5394G12c C020  242   5.352   8.643   8.898 -0.8950 -1.4845 -0.1186
  5394G12c C021  243   5.289   8.555   8.802  0.8538 -0.5114 -1.0465
  5394G12c C01L  244   5.485   8.346   9.115  0.2587  1.2416 -0.4390
  5394G12c O007  245   5.351   8.148   9.048 -0.4478 -0.7303 -0.0424
  5394G12c C022  246   5.280   8.416   8.822  0.4700 -0.4082 -0.6585
  5394G12c C023  247   5.172   8.600   8.730  0.6876  1.5882  0.4997
  5394G12c C00G  248   4.910   8.637   8.705 -0.5785  0.1435  0.6116
  5394G12c C00E  249   4.670   8.546   8.687  1.5691  0.3293 -1.6214
  5394G12c O00A  250   4.541   8.564   8.747  0.1648 -1.4213 -0.5059
  5394G12c C024  251   4.544   8.605   8.882  1.2399  0.3551  1.3304
  5394G12c H00V  252   4.586   8.703   8.905  2.6978  0.5990 -2.1191
  5394G12c H00U  253   4.582   8.525   8.945  0.1865 -6.1858 -5.6614
  5394G12c H00T  254   4.457   8.605   8.948  0.3848 -2.5976  0.3012
  5404G12c C00D  255   4.748  10.171  10.317 -1.2172  0.8935 -0.5768
  5404G12c O00B  256   4.768  10.070  10.384 -1.0731 -1.2472 -1.1434
  5404G12c C025  257   4.671  10.013  10.455 -0.6628 -0.6735  0.0132
  5404G12c C026  258   4.663  10.077  10.583 -0.6898 -0.6539  2.0569
  5404G12c H00Y  259   4.574  10.048  10.639 -1.8210  3.9772  2.8627
  5404G12c H00X  260   4.627  10.179  10.572 -1.0359 -0.8877  0.9545
  5404G12c O00C  261   4.786  10.086  10.641  0.6403  0.2759 -0.2853
  5404G12c H00W  262   4.781  10.060  10.731  2.4657  0.9785  0.0439
  5404G12c C027  263   4.612   9.894  10.438  0.9867  1.2223 -0.7860
  5404G12c O00D  264   4.526   9.826  10.507 -0.4269  0.2299  0.1815
  5404G12c H00Z  265   4.589   9.807  10.575  1.1564 -5.9023 -2.6612
  5404G12c C028  266   4.646   9.812  10.320  1.2016  1.6586 -1.2223
  5404G12c C029  267   4.789   9.807  10.298  0.5913  1.0671  1.3233
  5404G12c H010  268   4.859   9.870  10.350  2.3420 -0.5488  0.9695
  5404G12c C02T  269   4.825   9.728  10.189 -1.1350 -2.1480 -1.5031
  5404G12c H01O  270   4.909   9.724  10.122  2.7105  2.2173  2.7500
  5404G12c C02S  271   4.736   9.645  10.121  0.3440  0.7174  1.2854
  5404G12c O00J  272   4.788   9.593  10.004  0.8657 -0.2411  1.3298
  5404G12c H01P  273   4.725   9.562   9.940  0.4143 -4.3948  3.5933
  5404G12c C02R  274   4.601   9.633  10.153  2.2846  0.5093 -1.1381
  5404G12c O00I  275   4.508   9.549  10.071  1.1939 -0.0734  0.3063
  5404G12c C02Q  276   4.478   9.411  10.096  0.2398  1.7198  0.1892
  5404G12c H01N  277   4.380   9.367  10.079  1.3197 -0.7410  0.0806
  5404G12c H01R  278   4.552   9.390  10.019  2.2113 -1.1176  2.7355
  5404G12c H01Q  279   4.542   9.355  10.164 -6.0690 -1.9205  3.5472
  5404G12c C02A  280   4.553   9.714  10.266  0.3107 -1.4334 -0.5233
  5404G12c H011  281   4.459   9.680  10.307 -0.4128 -1.6381 -2.2932
  5404G12c C00C  282   4.623  10.215  10.286 -0.5500  0.2870  1.0701
  5404G12c H012  283   4.550  10.167  10.349 -7.4764  6.3982 -1.6696
  5404G12c C00B  284   4.595  10.312  10.199 -0.2234 -0.0460  1.4269
  5404G12c C00A  285   4.463  10.340  10.133  0.4710 -0.8040 -0.4388
  5404G12c C009  286   4.348  10.254  10.130 -0.3191 -0.7731  0.8783
  5404G12c C008  287   4.335  10.112  10.174 -0.2433 -0.9291 -1.2733
  5404G12c H013  288   4.368  10.038  10.244  0.1507  0.9328  0.5518
  5404G12c C007  289   4.214  10.045  10.124 -0.9882 -0.0281  1.6304
  5404G12c H014  290   4.214   9.939  10.145  2.0466  0.3018  3.6250
  5404G12c C006  291   4.121  10.100  10.024 -0.9283  0.3778 -1.2343
  5404G12c C005  292   4.155  10.233   9.979  0.0116 -2.0993  1.5948
  5404G12c C004  293   4.087  10.292   9.866 -0.0528 -1.3433  0.4017
  5404G12c C003  294   4.153  10.402   9.810  1.0254  1.2769  0.6580
  5404G12c C002  295   4.085  10.443   9.694 -1.2200 -0.8159 -0.8788
  5404G12c C001  296   4.133  10.528   9.596 -0.4101 -0.4117  1.0463
  5404G12c C00M  297   4.267  10.524   9.559  0.4388 -0.4122  0.9929
  5404G12c C00L  298   4.380  10.565   9.627  0.0213  0.5018  0.0743
  5404G12c C00R  299   4.528  10.558   9.601 -0.2688 -0.4000 -0.8942
  5404G12c C00Q  300   4.598  10.518   9.485  0.9037  1.3856 -1.1034
  5404G12c C00V  301   4.733  10.490   9.505  1.1991 -0.3045  0.3979
  5404G12c C00U  302   4.801  10.473   9.633 -1.1419  0.3720 -1.0069
  5404G12c C00T  303   4.724  10.494   9.749  0.7327  0.2624  0.0502
  5404G12c C016  304   4.758  10.463   9.880 -0.7165  1.5997  0.3260
  5404G12c C015  305   4.892  10.397   9.900 -0.1396  0.3891 -0.3225
  5404G12c C010  306   4.986  10.380   9.791  1.2803  1.2796  0.0108
  5404G12c C011  307   5.110  10.348   9.839 -0.3022  0.4783  0.1781
  5404G12c H005  308   5.174  10.335   9.753  3.9461 -2.1199  3.5384
  5404G12c C012  309   5.153  10.329   9.972  0.1054 -0.9571  0.4282
  5404G12c C017  310   5.296  10.356   9.995  0.2359  0.6230 -0.7771
  5404G12c O002  311   5.383  10.259   9.994 -1.3400 -0.7704 -0.0032
  5404G12c H004  312   5.325  10.189   9.971  2.9275 -4.4650 -0.1137
  5404G12c C018  313   5.334  10.483   9.972 -0.1299 -1.5398  1.0110
  5404G12c O001  314   5.245  10.595   9.958 -0.5265 -0.1343  1.4373
  5404G12c H003  315   5.155  10.568   9.951 -0.8403  1.6447 -2.3502
  5404G12c C019  316   5.485  10.533   9.944 -1.1197  2.5609 -0.5239
  5404G12c H002  317   5.478  10.636   9.908 -1.0177  2.6158 -0.3850
  5404G12c H001  318   5.557  10.526  10.025 -4.0406  4.3628  2.3662
  5404G12c O000  319   5.554  10.448   9.868 -1.0137  0.0275 -1.1893
  5404G12c C01A  320   5.561  10.435   9.740  0.2599  0.4254 -0.2095
  5404G12c C02K  321   5.482  10.495   9.650 -0.2983 -0.3505  0.7109
  5404G12c O00G  322   5.347  10.530   9.674 -0.1059 -0.1543 -1.5307
  5404G12c C02M  323   5.287  10.660   9.634 -0.9296 -0.3411 -1.9414
  5404G12c H01G  324   5.373  10.718   9.601 -0.3854 -1.8476 -3.2450
  5404G12c H01F  325   5.253  10.727   9.714 -4.3058 -2.7284 -1.2604
  5404G12c H01E  326   5.205  10.654   9.563 -0.0076 -1.4926 -2.9175
  5404G12c C02J  327   5.541  10.500   9.515 -1.2273 -0.1474 -1.2542
  5404G12c H01H  328   5.482  10.508   9.425 -2.7606  0.1719 -0.2587
  5404G12c C02I  329   5.683  10.477   9.491  0.7336  0.9833 -0.8885
  5404G12c C02N  330   5.727  10.502   9.370 -1.9536 -0.3396 -0.2986
  5404G12c H01M  331   5.658  10.489   9.288 -2.4842 -4.4943  0.6801
  5404G12c C02O  332   5.872  10.512   9.363  0.2474  1.2105 -1.3135
  5404G12c H01L  333   5.942  10.505   9.445  4.4314  5.2504 -4.2733
  5404G12c C02P  334   5.918  10.540   9.222 -0.0780 -0.0041  0.6038
  5404G12c H01K  335   5.887  10.499   9.125  3.8309  3.8574 -2.4535
  5404G12c H01J  336   5.901  10.638   9.178  1.7687 -0.3646 -0.9971
  5404G12c O00H  337   6.050  10.538   9.229 -1.2006  0.3439  0.6735
  5404G12c H01I  338   6.042  10.537   9.323 -2.8086  0.9811  0.5568
  5404G12c C02H  339   5.745  10.367   9.572 -0.4946 -0.6609  1.7009
  5404G12c H01C  340   5.837  10.327   9.532  1.5553  2.7304  2.7966
  5404G12c C02L  341   5.675  10.356   9.688 -0.6554  0.2303  0.1550
  5404G12c H01D  342   5.727  10.301   9.764 -2.1684 -1.7401 -0.1944
  5404G12c C013  343   5.054  10.355  10.068 -0.8979  0.7522 -0.8427
  5404G12c H000  344   5.095  10.345  10.167 -3.1177 -2.7826 -0.2147
  5404G12c C014  345   4.923  10.364  10.029  0.0822 -1.2062  0.1935
  5404G12c C00F  346   4.823  10.309  10.106  0.4448 -1.2574 -1.4172
  5404G12c C00H  347   4.665  10.443   9.989 -0.8926 -0.1296 -1.7387
  5404G12c C00I  348   4.533  10.477   9.962  1.3029 -0.2198 -0.6311
  5404G12c C00J  349   4.495  10.544   9.829 -1.5527 -0.9004  0.0766
  5404G12c C00Z  350   4.937  10.410   9.663  2.4255 -0.2671 -0.1426
  5404G12c C00Y  351   5.014  10.376   9.548 -0.2695  2.5703 -0.6722
  5404G12c H006  352   5.097  10.308   9.560 -1.2434  1.3432 -0.8302
  5404G12c C00X  353   4.956  10.384   9.426  2.2463 -1.9238  1.3963
  5404G12c O003  354   5.031  10.338   9.319  1.5315 -0.0308 -0.2469
  5404G12c C01B  355   4.978  10.230   9.256  0.2076 -0.2380  0.0860
  5404G12c H009  356   4.908  10.161   9.303  0.7985 -1.1847 -0.4113
  5404G12c H008  357   4.915  10.268   9.176 -8.6917 -0.5414  6.2712
  5404G12c H007  358   5.064  10.173   9.221  1.5651  0.1649  2.5615
  5404G12c C00W  359   4.826  10.439   9.394  1.4059 -1.0231  0.9647
  5404G12c O004  360   4.782  10.444   9.269  1.3956 -0.1289  0.7613
  5404G12c C01C  361   4.640  10.450   9.256 -2.2145 -1.3893  1.1546
  5404G12c H00A  362   4.603  10.384   9.179  0.9423 -2.2087  0.2383
  5404G12c C00P  363   4.546  10.489   9.358 -0.3075 -0.5598 -0.8095
  5404G12c C00O  364   4.402  10.484   9.337 -0.1504  0.2852  1.1090
  5404G12c C01D  365   4.361  10.438   9.199  1.4819  1.3861  0.2495
  5404G12c H00S  366   4.427  10.387   9.130 -0.2661 -0.5292 -0.0281
  5404G12c C01E  367   4.231  10.382   9.169  0.4288  0.1672 -0.8521
  5404G12c O008  368   4.213  10.324   9.050  0.2623 -1.5902 -0.7020
  5404G12c C01V  369   4.273  10.207   9.033 -0.1987  0.3144  0.4738
  5404G12c C01Z  370   4.226  10.169   8.901  0.0959 -0.2682  0.2020
  5404G12c H00R  371   4.220  10.060   8.903 -0.6523 -0.3130  6.7319
  5404G12c H00Q  372   4.144  10.239   8.886 -0.2382 -0.0396  2.9122
  5404G12c O009  373   4.341  10.212   8.812  1.3394 -0.5374 -0.4123
  5404G12c H00P  374   4.296  10.252   8.739 -0.7976 -1.7216  0.1790
  5404G12c C01W  375   4.350  10.140   9.110 -0.3714  1.6865 -0.5613
  5404G12c H00O  376   4.413  10.177   9.189 -1.8478  2.3204  0.3238
  5404G12c C01X  377   4.421  10.003   9.088 -0.8423  2.4083 -0.6425
  5404G12c H00N  378   4.433   9.990   8.981 -5.7313 -1.4344 -0.9270
  5404G12c H00M  379   4.528   9.991   9.102 -0.7483 -1.9087 -4.1825
  5404G12c C01Y  380   4.328   9.901   9.157 -1.2196  0.4165  0.3371
  5404G12c C02D  381   4.372   9.765   9.178 -1.1307 -0.9765  0.7059
  5404G12c H019  382   4.458   9.743   9.116 -1.8600 -1.4172 -0.1476
  5404G12c C02C  383   4.283   9.666   9.254 -0.0411 -1.3968  1.6064
  5404G12c H01A  384   4.347   9.580   9.238  3.0767 -0.3198  6.8321
  5404G12c C02B  385   4.148   9.698   9.287  0.6631 -0.7154  1.8870
  5404G12c O00E  386   4.056   9.605   9.323 -0.1696  0.3734  0.2853
  5404G12c H01B  387   4.087   9.517   9.337  3.5113  1.2574 -1.7353
  5404G12c C02F  388   4.098   9.828   9.247 -1.5770 -0.5682  0.6681
  5404G12c O00F  389   3.979   9.855   9.213  0.5773 -0.3050  0.5819
  5404G12c C02G  390   3.906   9.958   9.296 -0.1702 -0.1851 -0.6122
  5404G12c H017  391   3.800   9.947   9.271 -0.6499  3.2649 -0.3807
  5404G12c H016  392   3.914   9.941   9.403 -3.8867  1.0786 -0.0688
  5404G12c H015  393   3.889  10.063   9.270 -1.8303  1.6847  6.7840
  5404G12c C02E  394   4.191   9.931   9.200  0.9676  1.0457  0.0313
  5404G12c H018  395   4.130  10.019   9.191  2.7087  2.3982  1.1304
  5404G12c C01F  396   4.130  10.392   9.271  0.2905 -0.0963  1.4506
  5404G12c C01G  397   4.014  10.315   9.279  1.6945  1.6357  0.3429
  5404G12c H00L  398   3.959  10.302   9.187 -1.0012  1.9822  1.8504
  5404G12c C01H  399   3.949  10.312   9.406  0.1679  0.9674  1.0944
  5404G12c H00B  400   3.875  10.234   9.410  0.8429  0.0949 -1.9460
  5404G12c C01I  401   3.975  10.412   9.496  0.9657 -0.0522 -0.3160
  5404G12c C01U  402   4.147  10.483   9.372  0.6162 -0.4981  0.3446
  5404G12c C00S  403   4.599  10.543   9.723  0.7784  0.5875 -0.8800
  5404G12c C00K  404   4.370  10.527   9.764 -0.9026  1.4562  0.5759
  5404G12c C00N  405   4.289  10.502   9.425  1.2782 -0.5401 -1.2220
  5404G12c C000  406   4.057  10.515   9.475  0.3251 -0.2890  0.2464
  5404G12c C01J  407   3.978  10.362   9.630 -0.4101 -0.4197  0.1425
  5404G12c C01K  408   3.898  10.251   9.692 -0.0369 -1.6913 -0.1582
  5404G12c C01P  409   3.771  10.183   9.664  0.4628 -1.8786  2.4467
  5404G12c C01Q  410   3.680  10.198   9.555 -0.3440 -0.4085 -0.6171
  5404G12c H00G  411   3.619  10.286   9.569 -1.9703 -1.9457  2.6095
  5404G12c C01R  412   3.637  10.096   9.481 -0.0216  0.7166 -2.2917
  5404G12c H00F  413   3.679  10.002   9.512 -4.1397 -2.4241 -5.4486
  5404G12c C01S  414   3.544  10.096   9.373  1.0649  0.5990 -0.1593
  5404G12c H00E  415   3.531   9.988   9.358 -6.1195  1.8443 -4.9003
  5404G12c H00D  416   3.444  10.134   9.390  0.5091 -0.0989 -1.7874
  5404G12c O005  417   3.606  10.153   9.256 -0.2901 -0.9194  0.6895
  5404G12c H00C  418   3.654  10.090   9.205 -1.0458 -0.6364 -0.3951
  5404G12c C01O  419   3.727  10.081   9.754 -1.5504 -0.6523 -1.2917
  5404G12c H00H  420   3.640  10.023   9.729 -0.0242 -2.0825 -3.5606
  5404G12c C01N  421   3.825  10.043   9.854 -1.0173  1.4274  0.3349
  5404G12c O006  422   3.788   9.959   9.950  0.6918  0.2959 -0.3696
  5404G12c C01T  423   3.652   9.950   9.987  1.3168  0.7834 -0.9695
  5404G12c H00K  424   3.584  10.015  10.043 -0.1669 -1.9843  0.5972
  5404G12c H00J  425   3.594   9.914   9.902 -4.1370  2.6490  1.6867
  5404G12c H00I  426   3.687   9.888  10.070 -3.9170  2.6797  2.9795
  5404G12c C01M  427   3.938  10.098   9.879  0.6075  2.4978  0.3688
  5404G12c C020  428   4.274  10.453   9.853 -0.6230  0.2676 -1.0136
  5404G12c C021  429   4.308  10.400   9.980  0.5743 -1.9053 -0.2954
  5404G12c C01L  430   3.972  10.224   9.810  0.1470 -0.1862 -1.9245
  5404G12c O007  431   4.009  10.035   9.986 -0.5663 -0.4344  0.5622
  5404G12c C022  432   4.246  10.319  10.056  1.0830  0.8090 -1.8769
  5404G12c C023  433   4.432  10.431  10.046  0.0461 -2.5380 -1.1005
  5404G12c C00G  434   4.700  10.361  10.106  1.3460  0.2876  0.1536
  5404G12c C00E  435   4.851  10.215  10.229  0.7694  0.9653  2.6063
  5404G12c O00A  436   4.975  10.179  10.266  1.8169 -1.1851 -0.4864
  5404G12c C024  437   5.020  10.195  10.396 -1.3447 -0.9972 -0.9380
  5404G12c H00V  438   5.079  10.282  10.426 -3.3118 -1.6979  5.9036
  5404G12c H00U  439   4.951  10.251  10.459 -2.8436 -2.5444 -1.1630
  5404G12c H00T  440   5.048  10.093  10.420  1.9666 -0.2748 -1.4874
  5414G12c C00D  441   1.548   5.228   4.808  0.9875  0.3053 -1.3857
  5414G12c O00B  442   1.650   5.211   4.893 -0.5982 -0.8329 -0.5173
  5414G12c C025  443   1.758   5.142   4.844  1.4523  0.6448  0.4684
  5414G12c C026  444   1.877   5.214   4.887  0.2341 -0.4884 -0.4347
  5414G12c H00Y  445   1.950   5.164   4.823 -2.7714 -5.5600 -0.0823
  5414G12c H00X  446   1.909   5.201   4.990 -1.1648  3.1283  0.5639
  5414G12c O00C  447   1.901   5.343   4.833  0.3498  1.8658 -0.5005
  5414G12c H00W  448   1.899   5.396   4.911 -4.5966  2.0948 -0.5860
  5414G12c C027  449   1.752   5.003   4.844 -0.8030 -1.9888  0.6073
  5414G12c O00D  450   1.641   4.923   4.920 -0.3170 -0.7392  0.0377
  5414G12c H00Z  451   1.636   4.845   4.867  1.1174 -3.4135  3.7282
  5414G12c C028  452   1.865   4.912   4.800  0.5632  0.4940  2.1362
  5414G12c C029  453   1.963   4.942   4.700 -0.6810  0.7215  1.1946
  5414G12c H010  454   1.960   5.035   4.646 -2.4515 -2.0232 -3.7630
  5414G12c C02T  455   2.046   4.833   4.655 -1.6696 -0.6352  1.5343
  5414G12c H01O  456   2.099   4.843   4.562  1.6731  3.1682  3.6986
  5414G12c C02S  457   2.074   4.721   4.745  1.3631  0.2269  0.4755
  5414G12c O00J  458   2.168   4.624   4.692 -0.0841 -1.1704 -0.6017
  5414G12c H01P  459   2.253   4.638   4.653 -0.3230 -0.0748 -0.7376
  5414G12c C02R  460   1.997   4.700   4.860  0.7179 -0.1366 -1.3274
  5414G12c O00I  461   2.026   4.623   4.970  0.6356 -0.6889 -0.6849
  5414G12c C02Q  462   1.923   4.580   5.060  1.0318  1.0552  0.2127
  5414G12c H01N  463   1.918   4.650   5.143 -7.3915  1.0807  0.1041
  5414G12c H01R  464   1.942   4.480   5.099 -3.8958  0.5173  1.6470
  5414G12c H01Q  465   1.829   4.588   5.004  1.9035  8.6749 -0.6948
  5414G12c C02A  466   1.888   4.792   4.870  1.3129  0.1535 -0.5968
  5414G12c H011  467   1.840   4.781   4.966  3.8991 -0.4596  0.6916
  5414G12c C00C  468   1.553   5.232   4.676 -0.5169 -1.8661  0.1314
  5414G12c H012  469   1.654   5.253   4.642  0.6782 -3.8498  2.2791
  5414G12c C00B  470   1.445   5.254   4.584 -1.1674 -0.0745 -0.7867
  5414G12c C00A  471   1.448   5.313   4.451 -0.5450 -0.3968  0.0811
  5414G12c C009  472   1.542   5.390   4.386 -0.9730  1.7323  0.0142
  5414G12c C008  473   1.673   5.435   4.384 -1.1229  0.7083  0.9114
  5414G12c H013  474   1.751   5.435   4.458 -0.4178  1.0808  0.1779
  5414G12c C007  475   1.725   5.533   4.291  1.1534  0.3968  0.4059
  5414G12c H014  476   1.822   5.566   4.326  2.1656 -2.9784  0.9240
  5414G12c C006  477   1.646   5.573   4.181  1.9192 -0.3122 -0.3279
  5414G12c C005  478   1.519   5.542   4.181 -2.3781 -0.2624  0.3908
  5414G12c C004  479   1.418   5.600   4.098 -0.6519  0.7429  0.3265
  5414G12c C003  480   1.282   5.546   4.113 -1.5951 -1.2489  0.1265
  5414G12c C002  481   1.183   5.632   4.051 -0.1577 -0.7935 -0.1511
  5414G12c C001  482   1.042   5.622   4.023  1.7692 -0.7008  1.3141
  5414G12c C00M  483   0.956   5.583   4.122 -0.3960 -1.7554 -0.2890
  5414G12c C00L  484   0.982   5.488   4.217  0.7886 -0.3824 -2.1199
  5414G12c C00R  485   0.906   5.476   4.338  1.1867 -0.4220  0.6287
  5414G12c C00Q  486   0.788   5.531   4.389  2.3422 -0.0504  0.7690
  5414G12c C00V  487   0.754   5.475   4.513 -0.4227  2.9130  0.7301
  5414G12c C00U  488   0.844   5.407   4.597 -0.6239  1.3262  0.0008
  5414G12c C00T  489   0.962   5.367   4.548  0.8625  0.2259  0.2112
  5414G12c C016  490   1.075   5.309   4.614  0.4723 -0.6719  0.4471
  5414G12c C015  491   1.052   5.279   4.744 -0.6593 -1.0258  2.7002
  5414G12c C010  492   0.938   5.330   4.801 -1.1247 -1.6495 -1.3900
  5414G12c C011  493   0.907   5.299   4.938  0.3372  0.4592 -0.7465
  5414G12c H005  494   0.814   5.305   4.992  1.4487  0.8931  1.2058
  5414G12c C012  495   1.008   5.212   5.011  0.6922 -1.6245  0.2597
  5414G12c C017  496   0.967   5.143   5.131 -0.3847  0.1967 -0.1960
  5414G12c O002  497   1.068   5.185   5.226  0.4002  1.1629  0.1296
  5414G12c H004  498   1.146   5.141   5.253 -1.2787 -2.3449 -0.3850
  5414G12c C018  499   0.838   5.092   5.147  1.1601  1.8356  0.8743
  5414G12c O001  500   0.787   5.044   5.030  0.0207 -0.1920  0.1711
  5414G12c H003  501   0.866   5.020   4.983 -0.8033 -3.1774  0.1703
  5414G12c C019  502   0.771   5.087   5.281 -0.7404  0.7645 -0.7997
  5414G12c H002  503   0.821   5.129   5.368  2.3650  0.6149 -2.4368
  5414G12c H001  504   0.665   5.102   5.303 -3.2744 -5.9531 -6.3641
  5414G12c O000  505   0.792   4.963   5.310 -0.7323  0.7424  0.1843
  5414G12c C01A  506   0.869   4.914   5.414  0.2876 -0.6959  0.8720
  5414G12c C02K  507   1.002   4.863   5.392  0.1211 -1.0963  0.4866
  5414G12c O00G  508   1.062   4.877   5.265 -0.5496 -0.1803 -0.0172
  5414G12c C02M  509   1.119   4.793   5.163  2.3219 -1.2721  0.8427
  5414G12c H01G  510   1.055   4.720   5.112 -4.2856  4.0472  0.7465
  5414G12c H01F  511   1.183   4.741   5.234  0.7591 -1.1511  2.3729
  5414G12c H01E  512   1.167   4.872   5.105  3.5569 -2.5262  0.1243
  5414G12c C02J  513   1.085   4.853   5.506  2.3324 -1.5483 -0.2151
  5414G12c H01H  514   1.173   4.792   5.496  2.0072 -1.7740 -1.8685
  5414G12c C02I  515   1.039   4.857   5.633  0.3665 -0.1837  0.5018
  5414G12c C02N  516   1.125   4.801   5.737 -1.7159  0.2771  0.1049
  5414G12c H01M  517   1.169   4.702   5.737  2.4157  2.0214  0.0869
  5414G12c C02O  518   1.214   4.898   5.798 -0.2084 -0.1609 -1.5329
  5414G12c H01L  519   1.216   5.004   5.777  2.8816  0.2529  0.5197
  5414G12c C02P  520   1.334   4.869   5.869  0.6159 -1.3400  0.5460
  5414G12c H01K  521   1.407   4.929   5.815  1.0917 -0.0995  2.5151
  5414G12c H01J  522   1.357   4.767   5.841 -1.1426 -0.7947 -3.2639
  5414G12c O00H  523   1.332   4.937   5.986  0.2833  0.0243 -0.2813
  5414G12c H01I  524   1.284   4.889   6.052  2.0920 -1.1000  0.2647
  5414G12c C02H  525   0.897   4.899   5.655 -0.1524  1.4826  0.1575
  5414G12c H01C  526   0.876   4.905   5.761  1.1314  4.7909  0.2803
  5414G12c C02L  527   0.811   4.903   5.537 -0.8543 -0.3941  0.8619
  5414G12c H01D  528   0.703   4.908   5.543 -1.0715 -2.7477 -0.5682
  5414G12c C013  529   1.130   5.216   4.960 -0.4787  0.4284  0.3188
  5414G12c H000  530   1.210   5.210   5.032  1.3758 -0.6336 -1.8082
  5414G12c C014  531   1.166   5.252   4.819 -2.2796  1.1258 -2.2943
  5414G12c C00F  532   1.301   5.253   4.771  0.8201 -0.9352 -0.6098
  5414G12c C00H  533   1.206   5.285   4.554  0.9927 -0.0981  2.0034
  5414G12c C00I  534   1.207   5.285   4.409 -0.0066 -0.2031  0.5509
  5414G12c C00J  535   1.085   5.318   4.341 -0.4761  0.7936  0.5754
  5414G12c C00Z  536   0.825   5.383   4.727  1.0675  0.1655 -0.1996
  5414G12c C00Y  537   0.698   5.417   4.778 -0.1767 -0.2207 -0.1890
  5414G12c H006  538   0.674   5.413   4.883  0.1491  2.8101  0.0351
  5414G12c C00X  539   0.590   5.462   4.698 -1.9212  0.9105 -0.2448
  5414G12c O003  540   0.456   5.482   4.733  0.4944  0.0448 -1.0493
  5414G12c C01B  541   0.374   5.373   4.711 -0.3486  0.9031  0.1324
  5414G12c H009  542   0.275   5.386   4.756 -2.2411  4.8939 -4.6710
  5414G12c H008  543   0.421   5.288   4.760 -0.1683 -2.9377 -6.1427
  5414G12c H007  544   0.349   5.353   4.606  1.2238 -3.6744  0.5285
  5414G12c C00W  545   0.632   5.501   4.578 -0.4279 -0.1933 -0.1174
  5414G12c O004  546   0.543   5.585   4.516  0.1734 -0.9557  1.9639
  5414G12c C01C  547   0.583   5.676   4.413 -1.4628  0.2526  1.1829
  5414G12c H00A  548   0.501   5.743   4.394  0.4204  5.2656  8.7143
  5414G12c C00P  549   0.695   5.627   4.335  1.2549  1.0319  0.1887
  5414G12c C00O  550   0.741   5.713   4.234 -0.6022  1.9416 -0.8287
  5414G12c C01D  551   0.688   5.855   4.237  0.7905 -1.1914  1.4498
  5414G12c H00S  552   0.625   5.893   4.316 -1.0878 -2.3699  0.5716
  5414G12c C01E  553   0.761   5.955   4.178  0.1300 -0.1472  0.2642
  5414G12c O008  554   0.744   6.080   4.179  1.1254 -0.0484 -0.8054
  5414G12c C01V  555   0.625   6.134   4.233  0.7007  2.1011  1.5321
  5414G12c C01Z  556   0.531   6.157   4.107  0.1793 -0.7243  0.6632
  5414G12c H00R  557   0.539   6.084   4.026  4.9934  0.8428 -0.4946
  5414G12c H00Q  558   0.459   6.239   4.101  3.7769  2.5019 -1.0032
  5414G12c O009  559   0.608   6.222   4.007 -1.4929 -0.1282  1.5124
  5414G12c H00P  560   0.642   6.305   4.037  3.3455  0.5422 -4.8523
  5414G12c C01W  561   0.585   6.196   4.343 -0.8678  0.6823  0.3117
  5414G12c H00O  562   0.481   6.215   4.366 -2.1709  3.0930 -6.4346
  5414G12c C01X  563   0.692   6.207   4.464  0.0732  0.6490  0.6824
  5414G12c H00N  564   0.780   6.268   4.444 -0.6802  1.7922  0.8253
  5414G12c H00M  565   0.656   6.248   4.559  2.0985 -0.5244  2.0215
  5414G12c C01Y  566   0.725   6.079   4.530  2.7358 -2.2414 -0.1357
  5414G12c C02D  567   0.627   6.042   4.622 -0.3101  0.9768  0.7741
  5414G12c H019  568   0.539   6.099   4.651 -0.4082  0.0297  2.4174
  5414G12c C02C  569   0.660   5.924   4.706 -0.9377  0.4114  0.9276
  5414G12c H01A  570   0.591   5.904   4.787  1.3721 -0.4600  2.7171
  5414G12c C02B  571   0.796   5.853   4.682 -0.0622 -0.4271  0.5163
  5414G12c O00E  572   0.825   5.735   4.730  0.0341 -0.2568  0.5787
  5414G12c H01B  573   0.888   5.682   4.684 -0.9019  0.4035 -1.5001
  5414G12c C02F  574   0.884   5.910   4.582  1.2231  0.1691 -0.5626
  5414G12c O00F  575   1.023   5.871   4.572  1.4998 -0.5773 -0.7960
  5414G12c C02G  576   1.058   5.811   4.456  0.6687 -1.7709  0.0385
  5414G12c H017  577   1.047   5.855   4.357  4.1392 -5.0997 -1.9720
  5414G12c H016  578   0.993   5.724   4.469 -2.5010  0.6585  1.1600
  5414G12c H015  579   1.163   5.784   4.455  1.4612  0.9300  2.2373
  5414G12c C02E  580   0.837   6.022   4.502  1.1094 -1.9720 -0.0025
  5414G12c H018  581   0.904   6.061   4.426 -2.7072  8.5972  1.1473
  5414G12c C01F  582   0.860   5.927   4.073  1.4765  1.9641  0.9327
  5414G12c C01G  583   0.961   6.015   4.026  0.5692 -0.0123  1.5620
  5414G12c H00L  584   0.922   6.111   4.056  0.7195  1.4338 -2.6287
  5414G12c C01H  585   1.096   5.975   4.005 -0.3232 -0.9757  0.7089
  5414G12c H00B  586   1.175   6.047   3.989  3.2247 -5.4103 -3.2014
  5414G12c C01I  587   1.106   5.834   3.960 -0.0246  0.7249 -0.2248
  5414G12c C01U  588   0.879   5.794   4.029 -1.8395 -0.3469  0.3158
  5414G12c C00S  589   0.975   5.372   4.410 -0.8036 -1.2567 -0.4541
  5414G12c C00K  590   1.097   5.400   4.217  0.8817 -0.6172 -2.1715
  5414G12c C00N  591   0.847   5.696   4.130 -3.8050  1.3087 -0.2453
  5414G12c C000  592   1.001   5.751   3.956  0.0631  1.3416 -1.1197
  5414G12c C01J  593   1.225   5.748   3.967  0.6889  2.4400  0.6751
  5414G12c C01K  594   1.356   5.799   3.950  0.5216 -1.8444 -0.3694
  5414G12c C01P  595   1.405   5.909   3.885  0.6720 -0.8618 -0.7555
  5414G12c C01Q  596   1.316   5.992   3.813 -0.4133 -0.1758  1.7832
  5414G12c H00G  597   1.280   6.094   3.803 -1.5957 -0.5648  1.9946
  5414G12c C01R  598   1.228   5.934   3.721  2.0920 -0.8829 -1.7937
  5414G12c H00F  599   1.243   5.831   3.692 -0.5156  0.0609 -7.1691
  5414G12c C01S  600   1.109   6.010   3.634  0.8541  1.6730 -0.3169
  5414G12c H00E  601   1.069   5.967   3.542 -1.2272  1.9649  0.4490
  5414G12c H00D  602   1.132   6.116   3.623 -1.4603  3.2915  7.4300
  5414G12c O005  603   1.008   6.030   3.729 -0.6088  0.1205 -1.8504
  5414G12c H00C  604   0.935   5.986   3.689  0.1399 -1.1638 -1.8351
  5414G12c C01O  605   1.532   5.949   3.896  0.2441 -1.0801  1.0866
  5414G12c H00H  606   1.556   6.037   3.838  3.2606 -2.6366 -0.1551
  5414G12c C01N  607   1.634   5.868   3.938 -0.0535 -0.3590 -1.8544
  5414G12c O006  608   1.768   5.908   3.936  0.4108 -0.0138 -0.0992
  5414G12c C01T  609   1.815   6.042   3.982 -1.5016  0.3241  1.4402
  5414G12c H00K  610   1.803   6.110   3.897  2.6525  2.2542  2.2787
  5414G12c H00J  611   1.919   6.031   3.952 -2.6067  0.6541 -2.9022
  5414G12c H00I  612   1.806   6.071   4.086  3.4329 -4.4158  3.3690
  5414G12c C01M  613   1.592   5.746   4.021 -0.2984 -1.9659 -1.3750
  5414G12c C020  614   1.240   5.432   4.184  1.4734  0.9237  0.5946
  5414G12c C021  615   1.355   5.375   4.244 -1.6530  0.3263 -1.3537
  5414G12c C01L  616   1.449   5.724   4.029 -1.4877  0.0211  0.6381
  5414G12c O007  617   1.679   5.678   4.104 -1.4795 -0.5581  0.2439
  5414G12c C022  618   1.473   5.443   4.278  0.1436 -0.8656 -1.2635
  5414G12c C023  619   1.335   5.310   4.373  1.0808  0.5149  0.7655
  5414G12c C00G  620   1.311   5.248   4.632 -1.6185 -0.5765  0.0912
  5414G12c C00E  621   1.427   5.242   4.858 -0.0777 -1.9830  0.4001
  5414G12c O00A  622   1.418   5.262   4.997  0.6395 -0.1118  0.2851
  5414G12c C024  623   1.431   5.140   5.068 -0.2299 -0.5523  0.3638
  5414G12c H00V  624   1.409   5.177   5.168  0.6509  3.2366 -0.7388
  5414G12c H00U  625   1.356   5.071   5.030 -1.9788  0.3711  2.0598
  5414G12c H00T  626   1.528   5.090   5.070  2.0226  3.5892  2.4530
  5424G12c C00D  627   4.918   5.357  10.464  1.3180 -0.0970  0.1913
  5424G12c O00B  628   4.899   5.227  10.511 -0.5054  0.5178 -0.4072
  5424G12c C025  629   4.874   5.214  10.645  0.4981  0.0523 -1.2428
  5424G12c C026  630   5.020   5.197  10.718  0.0606  0.3827  0.5678
  5424G12c H00Y  631   5.051   5.095  10.697 -0.1998  1.4664 -5.8777
  5424G12c H00X  632   5.006   5.207  10.826 -0.5487  3.9619  0.2107
  5424G12c O00C  633   5.136   5.297  10.685  0.3670 -0.2933  0.4551
  5424G12c H00W  634   5.188   5.284  10.763 -2.0256  5.7450  3.4205
  5424G12c C027  635   4.753   5.212  10.720 -0.5593  0.3597  0.9313
  5424G12c O00D  636   4.647   5.196  10.651  0.2909  0.6084  0.4648
  5424G12c H00Z  637   4.666   5.185  10.559  3.9359  3.0144  0.8221
  5424G12c C028  638   4.769   5.239  10.853  1.3103 -0.3667  1.1185
  5424G12c C029  639   4.739   5.157  10.952  0.2188  0.3837  0.2289
  5424G12c H010  640   4.682   5.066  10.943 -3.9938  3.0590 -1.6352
  5424G12c C02T  641   4.762   5.181  11.088  0.6735 -2.7435 -0.8703
  5424G12c H01O  642   4.736   5.121  11.174  1.6966 -2.1375 -0.1299
  5424G12c C02S  643   4.823   5.300  11.141  0.2157  1.5071 -0.1516
  5424G12c O00J  644   4.838   5.320  11.274 -0.2340 -0.8820  0.4722
  5424G12c H01P  645   4.858   5.410  11.296  1.0756 -1.0120 -0.1980
  5424G12c C02R  646   4.868   5.388  11.041  0.1183 -0.5260 -0.3931
  5424G12c O00I  647   4.918   5.507  11.075 -0.6658 -0.9321 -1.4078
  5424G12c C02Q  648   5.065   5.531  11.096 -0.3302 -1.2292  0.0553
  5424G12c H01N  649   5.094   5.446  11.157 -1.2158 -1.0210  0.7821
  5424G12c H01R  650   5.075   5.620  11.159 -1.7462 -2.1081  1.5646
  5424G12c H01Q  651   5.113   5.521  10.999  0.3283 -1.0683  0.3611
  5424G12c C02A  652   4.834   5.360  10.899 -0.0369 -1.4042  0.4649
  5424G12c H011  653   4.847   5.448  10.838 -4.3043  0.0043  1.4320
  5424G12c C00C  654   4.800   5.437  10.477  0.6135 -1.2098  0.0523
  5424G12c H012  655   4.716   5.396  10.532 -0.9144  1.9276  0.1308
  5424G12c C00B  656   4.795   5.568  10.442 -1.4876 -0.1398 -0.5860
  5424G12c C00A  657   4.700   5.675  10.441  0.7888 -0.9544  0.0875
  5424G12c C009  658   4.555   5.648  10.431  1.0430  1.3704  2.0866
  5424G12c C008  659   4.480   5.527  10.474  0.8827 -0.3320 -0.2615
  5424G12c H013  660   4.527   5.440  10.516  3.5069  1.9722  1.7468
  5424G12c C007  661   4.348   5.519  10.427  1.1442  0.0130  0.0992
  5424G12c H014  662   4.286   5.431  10.437  2.3464 -1.5752 -4.7319
  5424G12c C006  663   4.296   5.619  10.341 -0.5623 -0.8257 -1.1227
  5424G12c C005  664   4.383   5.731  10.299 -0.9881  1.6715  0.6987
  5424G12c C004  665   4.362   5.806  10.189  1.1321  0.5829  1.5870
  5424G12c C003  666   4.467   5.888  10.145  0.2570  1.8973 -0.5112
  5424G12c C002  667   4.435   5.960  10.018  1.2452 -0.5989 -0.6748
  5424G12c C001  668   4.509   6.056   9.943 -0.0612 -0.0624  0.3175
  5424G12c C00M  669   4.652   6.055   9.900 -0.1879  1.0125  1.4722
  5424G12c C00L  670   4.750   6.011   9.989  0.8382  0.0125  0.6604
  5424G12c C00R  671   4.879   5.948   9.957  0.1661 -1.9546  1.5289
  5424G12c C00Q  672   4.947   5.944   9.840  0.0150  0.3469 -0.4344
  5424G12c C00V  673   5.079   5.897   9.857  0.4614 -0.9606 -0.8779
  5424G12c C00U  674   5.114   5.830   9.978  0.7143  0.5362 -1.4707
  5424G12c C00T  675   5.031   5.817  10.078 -0.0768  0.4724 -1.0020
  5424G12c C016  676   5.030   5.724  10.178  0.1161 -0.3296 -0.6005
  5424G12c C015  677   5.145   5.653  10.180 -0.8131  0.3731 -1.1710
  5424G12c C010  678   5.256   5.675  10.097  1.7483 -0.1538  0.2934
  5424G12c C011  679   5.365   5.600  10.102  0.2933 -1.2679  1.8612
  5424G12c H005  680   5.446   5.626  10.035 -1.3786  0.7994  0.5896
  5424G12c C012  681   5.398   5.558  10.242 -1.0838  0.1498 -0.0008
  5424G12c C017  682   5.529   5.499  10.292  0.4831 -0.5028  0.0480
  5424G12c O002  683   5.565   5.547  10.413  2.3394  0.6910  0.7778
  5424G12c H004  684   5.520   5.497  10.479  0.2372  3.5194  1.6152
  5424G12c C018  685   5.632   5.461  10.217 -1.1236 -1.8533 -1.0209
  5424G12c O001  686   5.589   5.412  10.102 -0.1585  0.4668 -0.8813
  5424G12c H003  687   5.668   5.362  10.090 -0.1444  0.0614  0.7476
  5424G12c C019  688   5.774   5.408  10.247 -0.3313 -2.2572 -0.3649
  5424G12c H002  689   5.762   5.334  10.326  0.5444  2.1468  4.1748
  5424G12c H001  690   5.839   5.494  10.265 -3.8107  0.6992 -1.2323
  5424G12c O000  691   5.836   5.346  10.135  0.2685  0.3197 -0.4722
  5424G12c C01A  692   5.979   5.305  10.158 -1.7446  1.9609  1.6572
  5424G12c C02K  693   6.026   5.209  10.257 -0.3680 -0.8822 -0.0302
  5424G12c O00G  694   5.937   5.172  10.344  0.8581  0.4922 -1.1551
  5424G12c C02M  695   5.892   5.036  10.303 -1.7681 -0.6798 -0.5567
  5424G12c H01G  696   5.920   4.966  10.381  1.7373 -0.1891 -1.2819
  5424G12c H01F  697   5.949   5.003  10.217 -2.6470 -3.2101 -0.1922
  5424G12c H01E  698   5.791   5.025  10.262 -1.6226 -1.2984 -0.7427
  5424G12c C02J  699   6.157   5.177  10.264 -1.0881 -0.2238  1.5538
  5424G12c H01H  700   6.162   5.117  10.353  9.5928 -9.3455 -3.9538
  5424G12c C02I  701   6.265   5.215  10.191 -0.2857  2.6385 -0.2167
  5424G12c C02N  702   6.386   5.122  10.194  0.4872  0.2744  1.4175
  5424G12c H01M  703   6.476   5.171  10.160  1.5945 -2.6026  0.0413
  5424G12c C02O  704   6.389   5.022  10.290  1.6443 -0.6835 -0.9487
  5424G12c H01L  705   6.311   4.999  10.361 -0.3002 -0.3554 -2.9184
  5424G12c C02P  706   6.505   4.985  10.354 -1.4410  0.4661 -1.1104
  5424G12c H01K  707   6.514   4.876  10.351 -2.2365  0.2571  1.9862
  5424G12c H01J  708   6.606   5.002  10.316 -0.4917 -3.5346 -0.6259
  5424G12c O00H  709   6.497   5.026  10.487  0.7361  0.9606 -0.5760
  5424G12c H01I  710   6.412   5.031  10.528  2.9872  4.3758  4.2078
  5424G12c C02H  711   6.222   5.274  10.064  1.3865 -0.8619  0.9956
  5424G12c H01C  712   6.273   5.267   9.969 -3.0869 -1.8721 -1.5031
  5424G12c C02L  713   6.084   5.338  10.065 -0.0447  1.1955 -2.3700
  5424G12c H01D  714   6.060   5.402   9.981 -1.2837  2.3210 -1.1764
  5424G12c C013  715   5.283   5.519  10.318 -0.5664 -0.1852 -0.4774
  5424G12c H000  716   5.296   5.453  10.403 -5.3331  0.5670  1.0130
  5424G12c C014  717   5.150   5.557  10.282  1.2558  0.7204  1.4041
  5424G12c C00F  718   5.036   5.522  10.351  1.0046  0.4172  0.3043
  5424G12c C00H  719   4.927   5.713  10.272  0.4577  0.3304  0.3276
  5424G12c C00I  720   4.824   5.807  10.275  0.3762  2.3854 -0.3599
  5424G12c C00J  721   4.826   5.892  10.172 -0.2130 -0.2812  0.4085
  5424G12c C00Z  722   5.226   5.754   9.982  1.2672  2.3667 -0.3744
  5424G12c C00Y  723   5.302   5.746   9.866 -1.5002 -0.6080  0.8669
  5424G12c H006  724   5.392   5.686   9.862 -1.6659 -1.5577  6.9342
  5424G12c C00X  725   5.263   5.793   9.725  0.3856  1.1994  0.0227
  5424G12c O003  726   5.358   5.773   9.622  0.4574 -0.6603  0.7521
  5424G12c C01B  727   5.368   5.857   9.511  0.0411 -1.7691 -0.0174
  5424G12c H009  728   5.384   5.782   9.433  4.1663  0.7803 -1.8326
  5424G12c H008  729   5.459   5.910   9.540  2.9104 -5.3997 -1.8449
  5424G12c H007  730   5.287   5.923   9.481 -0.5058 -1.2085  2.5959
  5424G12c C00W  731   5.147   5.878   9.736 -1.9230 -1.2737 -0.7458
  5424G12c O004  732   5.122   5.952   9.623  0.3470  0.5889 -0.6196
  5424G12c C01C  733   4.996   5.970   9.595  0.6344 -0.8923 -0.7674
  5424G12c H00A  734   4.976   6.037   9.513 -0.1859  0.2105  0.3116
  5424G12c C00P  735   4.900   5.982   9.700  0.1769 -0.6853 -0.3102
  5424G12c C00O  736   4.767   6.019   9.664 -0.9675 -0.4944  1.2952
  5424G12c C01D  737   4.708   5.997   9.535  0.3875 -1.0152  0.3581
  5424G12c H00S  738   4.778   5.976   9.455 -0.0348  8.7481 -3.2030
  5424G12c C01E  739   4.575   5.975   9.496  0.2073 -0.9398 -1.1595
  5424G12c O008  740   4.562   5.953   9.351 -1.0267 -0.9564 -0.0936
  5424G12c C01V  741   4.579   5.818   9.309  0.0326 -0.1823  1.4310
  5424G12c C01Z  742   4.704   5.789   9.217  0.1859  1.3199 -1.5895
  5424G12c H00R  743   4.767   5.878   9.218 -3.5482  4.1481  1.6653
  5424G12c H00Q  744   4.734   5.694   9.261 -1.5057  0.9719 -1.1459
  5424G12c O009  745   4.642   5.803   9.099 -0.0769 -0.0835 -0.0558
  5424G12c H00P  746   4.549   5.787   9.092 -0.9042  2.7300  3.2480
  5424G12c C01W  747   4.490   5.715   9.335 -0.3135  0.9722 -0.5735
  5424G12c H00O  748   4.401   5.744   9.387  0.1993 -0.6959  1.3164
  5424G12c C01X  749   4.513   5.563   9.314  0.9375  1.4083 -1.1683
  5424G12c H00N  750   4.419   5.528   9.270  0.8174 -0.5705  0.5181
  5424G12c H00M  751   4.584   5.561   9.232  2.7144  0.6675  0.3610
  5424G12c C01Y  752   4.550   5.456   9.436  0.7207 -1.2812 -1.6359
  5424G12c C02D  753   4.453   5.362   9.504  0.7538  1.4698  0.9064
  5424G12c H019  754   4.349   5.392   9.498  1.1180  2.5730  0.0439
  5424G12c C02C  755   4.477   5.293   9.616 -0.1474 -0.7082 -0.9335
  5424G12c H01A  756   4.401   5.225   9.652  2.5155 -2.1206  2.2626
  5424G12c C02B  757   4.610   5.286   9.662 -0.5816 -2.4933 -0.5432
  5424G12c O00E  758   4.662   5.220   9.769 -0.3506  0.3068  0.4595
  5424G12c H01B  759   4.736   5.272   9.796 -1.9819  2.9176 -0.0258
  5424G12c C02F  760   4.723   5.365   9.602  1.0786 -1.6178  0.6403
  5424G12c O00F  761   4.852   5.372   9.656 -1.6953 -0.5914 -0.5052
  5424G12c C02G  762   4.932   5.488   9.646  1.0796 -0.4707  1.9280
  5424G12c H017  763   4.918   5.582   9.699  1.7862  0.9066 -0.2611
  5424G12c H016  764   4.983   5.502   9.551  2.5685  2.4970  3.1298
  5424G12c H015  765   5.029   5.507   9.691  1.1413  2.6816  0.5519
  5424G12c C02E  766   4.684   5.460   9.490  0.1368 -2.0225  1.6814
  5424G12c H018  767   4.747   5.500   9.413 -1.3574 -1.3021  0.7988
  5424G12c C01F  768   4.481   5.997   9.600 -0.0825  0.8996  0.8259
  5424G12c C01G  769   4.337   5.986   9.570 -1.2356  0.9025 -1.3623
  5424G12c H00L  770   4.321   5.934   9.477  0.0659  0.6994 -1.4779
  5424G12c C01H  771   4.267   5.963   9.684 -0.2851 -1.3868 -0.8626
  5424G12c H00B  772   4.184   5.894   9.670 -1.3340  0.0334 -1.7230
  5424G12c C01I  773   4.325   6.014   9.822 -0.7267  0.5810  0.1464
  5424G12c C01U  774   4.516   6.048   9.720 -0.8794 -0.7503  0.1654
  5424G12c C00S  775   4.925   5.896  10.063  0.0117  0.6301 -0.9200
  5424G12c C00K  776   4.712   5.957  10.118 -0.6795  0.2773  1.1871
  5424G12c C00N  777   4.656   6.046   9.754 -3.1232 -1.3675 -0.1321
  5424G12c C000  778   4.449   6.098   9.831 -0.2265  1.0244 -0.9451
  5424G12c C01J  779   4.300   5.963   9.958 -0.8752  0.9112  0.7611
  5424G12c C01K  780   4.196   5.889  10.012 -2.2479  0.7969 -0.0892
  5424G12c C01P  781   4.063   5.893   9.987 -0.8183  1.7371  0.2270
  5424G12c C01Q  782   4.012   5.969   9.873 -0.1377 -0.8823 -0.7638
  5424G12c H00G  783   4.048   6.069   9.855  1.7747 -2.0916 -4.1064
  5424G12c C01R  784   3.924   5.915   9.771 -1.1097  0.7987 -0.3046
  5424G12c H00F  785   3.893   5.813   9.793 -0.8278  0.7984  0.0992
  5424G12c C01S  786   3.856   5.976   9.650  0.2454  0.1595 -1.0845
  5424G12c H00E  787   3.846   6.085   9.656  2.0124  0.2050  1.7904
  5424G12c H00D  788   3.887   5.984   9.546  0.2769 -0.3112 -1.1125
  5424G12c O005  789   3.726   5.941   9.672 -0.8000  0.7799  0.7878
  5424G12c H00C  790   3.679   5.916   9.595 -1.9645  1.0729  1.3965
  5424G12c C01O  791   3.967   5.802  10.032  0.2278 -0.2157  0.9885
  5424G12c H00H  792   3.867   5.829  10.003 -0.6266 -2.1259  2.0908
  5424G12c C01N  793   4.014   5.683  10.108  0.0783  0.6420 -0.1500
  5424G12c O006  794   3.917   5.582  10.131  0.2871  0.2028 -1.0478
  5424G12c C01T  795   3.799   5.570  10.045 -0.4601  0.1470 -0.9649
  5424G12c H00K  796   3.753   5.471  10.050  2.2074 -1.0656  0.8702
  5424G12c H00J  797   3.785   5.589   9.939  3.4527  1.6018 -1.3041
  5424G12c H00I  798   3.712   5.601  10.104 -1.5378 -0.8744 -1.9834
  5424G12c C01M  799   4.157   5.687  10.158 -0.8336 -0.9164  0.3627
  5424G12c C020  800   4.591   5.907  10.203 -0.8070  0.5676  0.2528
  5424G12c C021  801   4.597   5.841  10.331  0.4670 -0.1450 -0.5469
  5424G12c C01L  802   4.241   5.796  10.113 -0.5492 -0.6133  1.4705
  5424G12c O007  803   4.175   5.622  10.279 -1.9815  0.4049  0.2987
  5424G12c C022  804   4.505   5.743  10.347 -1.0739 -0.7121  0.0930
  5424G12c C023  805   4.726   5.792  10.369  0.7450  1.2769 -1.6633
  5424G12c C00G  806   4.927   5.604  10.363  0.9062  1.3347  1.7536
  5424G12c C00E  807   5.030   5.400  10.408  2.0897  0.5181 -1.9387
  5424G12c O00A  808   5.131   5.309  10.398  0.2166 -0.2626  0.7069
  5424G12c C024  809   5.138   5.183  10.342 -0.5055 -0.3937  0.6097
  5424G12c H00V  810   5.087   5.127  10.420  0.2791 -1.2656  0.4956
  5424G12c H00U  811   5.238   5.147  10.320  0.8777  4.2362 -1.3918
  5424G12c H00T  812   5.052   5.179  10.275 -5.5920  1.2003  6.5957
  5434G12c C00D  813   0.277   2.985   2.248  1.6009  0.6741 -0.0995
  5434G12c O00B  814   0.225   2.876   2.162 -0.1640 -0.4936  0.1230
  5434G12c C025  815   0.095   2.847   2.131  0.0871 -0.2515 -0.4974
  5434G12c C026  816   0.017   2.773   2.242 -0.3996 -0.1138 -0.3755
  5434G12c H00Y  817  -0.070   2.729   2.193  4.1417 -4.2289 -5.3448
  5434G12c H00X  818   0.065   2.677   2.262 -0.2327  0.8723  4.4075
  5434G12c O00C  819  -0.082   2.838   2.340  0.8281  0.8479  0.5241
  5434G12c H00W  820  -0.121   2.762   2.381-10.5089  5.6684  0.4130
  5434G12c C027  821   0.049   2.861   2.005  1.8030  0.9479  0.6392
  5434G12c O00D  822   0.143   2.880   1.906  2.0078  0.7928 -0.7400
  5434G12c H00Z  823   0.223   2.863   1.952 -1.1061 -3.6200  3.6624
  5434G12c C028  824  -0.103   2.876   1.978  0.0097  1.7705 -0.7766
  5434G12c C029  825  -0.208   2.909   2.074  0.6277 -0.1730  0.8787
  5434G12c H010  826  -0.153   2.958   2.154 -3.2699  5.5617  0.3533
  5434G12c C02T  827  -0.349   2.864   2.064  0.6685  0.6903 -2.7048
  5434G12c H01O  828  -0.433   2.867   2.132 -0.1177 -5.1657 -3.1895
  5434G12c C02S  829  -0.372   2.786   1.944  0.2621 -1.8150  0.5226
  5434G12c O00J  830  -0.490   2.798   1.867 -0.2242  0.0115  0.4570
  5434G12c H01P  831  -0.483   2.766   1.779  1.5211 -2.2555  1.3695
  5434G12c C02R  832  -0.261   2.739   1.877 -0.1528 -0.4302  0.9279
  5434G12c O00I  833  -0.302   2.643   1.781  1.1586 -1.4160  1.6838
  5434G12c C02Q  834  -0.254   2.622   1.661  0.5403 -0.3113  0.9247
  5434G12c H01N  835  -0.181   2.542   1.653  0.1368 -0.2989 -6.7165
  5434G12c H01R  836  -0.201   2.714   1.636 -6.3569  4.3634  1.9299
  5434G12c H01Q  837  -0.319   2.596   1.577  1.5807 -1.7946  0.5683
  5434G12c C02A  838  -0.138   2.796   1.878 -1.1285  0.6476 -1.2487
  5434G12c H011  839  -0.059   2.740   1.830  1.1947 -0.4551  3.6319
  5434G12c C00C  840   0.189   3.055   2.329  0.5159 -0.5029  3.2852
  5434G12c H012  841   0.086   3.025   2.342 -0.2134 -0.6675 -1.9524
  5434G12c C00B  842   0.228   3.163   2.393 -0.8357 -1.3279  0.2836
  5434G12c C00A  843   0.140   3.256   2.436  0.1192 -0.6518  0.0765
  5434G12c C009  844   0.049   3.322   2.340  1.0002 -0.4920  1.0311
  5434G12c C008  845   0.036   3.307   2.193 -1.1897 -1.1390  1.1476
  5434G12c H013  846   0.040   3.209   2.147 -2.2405 -0.9066  0.5445
  5434G12c C007  847   0.040   3.415   2.103 -0.0222 -1.6477  0.4143
  5434G12c H014  848   0.050   3.398   1.997 -0.2930 -0.7709  0.2434
  5434G12c C006  849   0.029   3.551   2.156  1.0284  1.2502 -0.0271
  5434G12c C005  850   0.038   3.565   2.292  0.4625  0.3830  0.1060
  5434G12c C004  851   0.068   3.700   2.339  0.4084  1.8748  0.2241
  5434G12c C003  852   0.113   3.724   2.474  0.4995 -1.6031 -0.4346
  5434G12c C002  853   0.154   3.855   2.514  1.2703  1.1265 -1.4628
  5434G12c C001  854   0.235   3.900   2.629  1.8877  0.2046 -2.2180
  5434G12c C00M  855   0.365   3.844   2.654 -0.1737 -0.5372  0.8383
  5434G12c C00L  856   0.382   3.717   2.698  0.2195  1.0111 -1.1793
  5434G12c C00R  857   0.508   3.660   2.680  0.7527  1.1176 -1.1979
  5434G12c C00Q  858   0.645   3.713   2.670  0.7794  1.6197 -1.5121
  5434G12c C00V  859   0.743   3.607   2.655  0.4008  0.6523  0.9923
  5434G12c C00U  860   0.718   3.491   2.591  1.9678 -0.5989  0.5207
  5434G12c C00T  861   0.592   3.448   2.571  0.5846  1.4579 -1.1547
  5434G12c C016  862   0.536   3.327   2.521  0.8786 -1.7755 -0.7634
  5434G12c C015  863   0.637   3.249   2.467 -0.7609  0.2058 -0.2232
  5434G12c C010  864   0.768   3.276   2.504 -0.6232 -0.3206 -1.2972
  5434G12c C011  865   0.868   3.169   2.474  0.8122 -0.1287 -1.3129
  5434G12c H005  866   0.967   3.173   2.518  0.3732  0.4913 -0.3587
  5434G12c C012  867   0.838   3.056   2.391  0.9343 -0.0755 -1.2235
  5434G12c C017  868   0.935   2.952   2.362 -1.3409 -1.5253  1.4905
  5434G12c O002  869   1.004   2.951   2.238  1.4568 -0.3898 -0.2640
  5434G12c H004  870   1.031   3.041   2.226  3.7132 -1.2091 -1.8316
  5434G12c C018  871   0.954   2.846   2.441 -1.4252 -1.0717 -0.2466
  5434G12c O001  872   1.043   2.759   2.402 -0.0329  0.3675  0.6817
  5434G12c H003  873   1.076   2.795   2.321  1.9959 -4.6844 -0.9221
  5434G12c C019  874   0.891   2.844   2.577  0.2676  0.3947  0.4468
  5434G12c H002  875   0.850   2.942   2.603 -2.9441 -0.6331 -0.5298
  5434G12c H001  876   0.791   2.801   2.568  1.0003 -0.6607 -3.5084
  5434G12c O000  877   1.000   2.781   2.646 -1.1901  0.5777  0.0419
  5434G12c C01A  878   0.973   2.659   2.688 -0.6218 -0.5301  1.9165
  5434G12c C02K  879   0.935   2.637   2.837  0.7116 -0.8384  0.4859
  5434G12c O00G  880   0.927   2.737   2.926 -0.3300 -0.2627 -0.5317
  5434G12c C02M  881   0.981   2.720   3.066 -1.1859  0.1989  0.0038
  5434G12c H01G  882   1.084   2.686   3.079 -1.6559  0.2299  5.1927
  5434G12c H01F  883   0.921   2.729   3.157 -2.7181 -6.0019 -0.1540
  5434G12c H01E  884   1.016   2.823   3.065  4.6528 -1.5455  2.9329
  5434G12c C02J  885   0.940   2.496   2.866 -0.7787  0.2606  1.0579
  5434G12c H01H  886   0.948   2.451   2.964 -0.7332  3.1866  2.4665
  5434G12c C02I  887   0.924   2.404   2.771 -0.3813  0.6977  0.5583
  5434G12c C02N  888   0.858   2.273   2.814 -2.5317 -0.0101 -1.4360
  5434G12c H01M  889   0.781   2.262   2.889 -1.1481 -2.4679 -0.3279
  5434G12c C02O  890   0.837   2.166   2.739 -0.7475 -0.7098  0.8490
  5434G12c H01L  891   0.924   2.144   2.678  1.4332 -2.5224  4.4901
  5434G12c C02P  892   0.786   2.045   2.817 -0.8703 -1.1297 -1.1341
  5434G12c H01K  893   0.849   1.957   2.818 -0.0193 -0.6433 -4.9835
  5434G12c H01J  894   0.744   2.056   2.917  1.3426 -0.4506 -0.2526
  5434G12c O00H  895   0.656   2.025   2.761 -1.2102 -2.0278  1.2696
  5434G12c H01I  896   0.605   1.948   2.781 -3.9406 -2.1590 -5.0273
  5434G12c C02H  897   0.931   2.432   2.628 -0.1646  0.7866 -0.4340
  5434G12c H01C  898   0.905   2.378   2.537 -4.4280 -0.4595  1.4022
  5434G12c C02L  899   0.974   2.556   2.583  0.5056 -0.2716  1.0895
  5434G12c H01D  900   1.050   2.580   2.510 -3.7077  2.2025 -2.7978
  5434G12c C013  901   0.697   3.062   2.351  1.8116 -0.5865 -1.1256
  5434G12c H000  902   0.683   2.980   2.282  3.9802 -2.2428  0.3302
  5434G12c C014  903   0.589   3.136   2.398  0.2266  0.1675 -0.8146
  5434G12c C00F  904   0.457   3.109   2.360  0.5074  1.7301 -1.1256
  5434G12c C00H  905   0.393   3.305   2.489  0.1977 -0.2971 -0.4601
  5434G12c C00I  906   0.304   3.397   2.533 -1.5499  1.2902 -1.1502
  5434G12c C00J  907   0.359   3.493   2.636  0.6506  0.9044 -0.1655
  5434G12c C00Z  908   0.808   3.393   2.562  1.5799 -0.1595 -0.8766
  5434G12c C00Y  909   0.952   3.424   2.591  1.0361  0.8285 -0.7427
  5434G12c H006  910   1.040   3.375   2.552  1.4278  0.7672  0.2098
  5434G12c C00X  911   0.989   3.550   2.630  0.1478  0.9845  0.8043
  5434G12c O003  912   1.127   3.560   2.666 -0.1415  0.1173 -0.3739
  5434G12c C01B  913   1.159   3.619   2.794  0.5253  1.3459  2.1873
  5434G12c H009  914   1.123   3.721   2.808 -1.1498  0.5950  3.5349
  5434G12c H008  915   1.243   3.605   2.861  0.5888  2.5504  2.3828
  5434G12c H007  916   1.100   3.550   2.855  1.7706  0.9208  2.9232
  5434G12c C00W  917   0.884   3.648   2.649  0.5113 -0.4007  0.0154
  5434G12c O004  918   0.925   3.774   2.665 -1.9403 -0.5735 -0.9031
  5434G12c C01C  919   0.836   3.859   2.733  0.8391 -1.5232  0.4029
  5434G12c H00A  920   0.848   3.880   2.838 -1.9673 -2.0533  0.8758
  5434G12c C00P  921   0.691   3.850   2.693  0.8884  3.8392 -1.6397
  5434G12c C00O  922   0.613   3.954   2.673  0.9186 -0.9612 -0.1738
  5434G12c C01D  923   0.674   4.088   2.667  1.3350  0.6489  0.9067
  5434G12c H00S  924   0.780   4.092   2.647  1.9959  2.2399  4.4266
  5434G12c C01E  925   0.596   4.202   2.619 -1.1391  0.2237 -0.6155
  5434G12c O008  926   0.626   4.336   2.569 -1.6859 -0.9207  0.4085
  5434G12c C01V  927   0.726   4.424   2.638  0.5298  0.7213  0.0535
  5434G12c C01Z  928   0.856   4.440   2.567  1.4261  0.1609  0.2070
  5434G12c H00R  929   0.851   4.548   2.549 -3.8224  0.6778  3.7446
  5434G12c H00Q  930   0.946   4.413   2.621  1.2487  0.0717  0.4568
  5434G12c O009  931   0.853   4.349   2.459  0.0197 -0.0779 -0.1717
  5434G12c H00P  932   0.935   4.313   2.428 -1.2766 -2.0189 -1.4472
  5434G12c C01W  933   0.721   4.475   2.772  1.1156 -0.3751  1.7454
  5434G12c H00O  934   0.805   4.542   2.782 -2.5910  4.7284  0.7075
  5434G12c C01X  935   0.606   4.463   2.855  0.2087 -2.8833  0.2275
  5434G12c H00N  936   0.595   4.560   2.903  5.0931 -3.1412  2.1085
  5434G12c H00M  937   0.523   4.438   2.789  2.1607 -5.1141 -1.4676
  5434G12c C01Y  938   0.591   4.354   2.954  0.0902 -0.0600 -1.5580
  5434G12c C02D  939   0.474   4.275   2.975  0.0601  1.2480 -1.0387
  5434G12c H019  940   0.377   4.286   2.929 -0.7553 -0.4781  0.2363
  5434G12c C02C  941   0.472   4.173   3.073 -0.7405 -0.7431 -0.7513
  5434G12c H01A  942   0.369   4.142   3.085 -0.7888 -1.9819 -3.6984
  5434G12c C02B  943   0.580   4.176   3.174  0.7133 -0.8764  0.2476
  5434G12c O00E  944   0.574   4.134   3.309 -0.6075 -2.2805 -0.7104
  5434G12c H01B  945   0.667   4.119   3.301 -0.2726 -2.0606  2.1568
  5434G12c C02F  946   0.707   4.223   3.126  1.1016  0.7198  1.2650
  5434G12c O00F  947   0.826   4.226   3.206  1.3784  1.6211  0.8489
  5434G12c C02G  948   0.848   4.341   3.279 -0.1210  0.8761 -0.4086
  5434G12c H017  949   0.775   4.333   3.360  0.2127  2.2190  0.0306
  5434G12c H016  950   0.827   4.437   3.232  7.6673  3.0856 -0.1307
  5434G12c H015  951   0.952   4.333   3.312  0.1121 -4.4244 -1.9926
  5434G12c C02E  952   0.714   4.318   3.023 -1.5773 -0.2236  0.3521
  5434G12c H018  953   0.806   4.374   3.016 -3.7394  3.3010 -1.3227
  5434G12c C01F  954   0.471   4.173   2.558 -1.2043  1.4009  0.0508
  5434G12c C01G  955   0.405   4.216   2.441 -0.5317  0.5176  0.9781
  5434G12c H00L  956   0.461   4.284   2.380  6.4491 -3.2466  2.6925
  5434G12c C01H  957   0.297   4.138   2.393 -0.2566  1.3627 -0.3661
  5434G12c H00B  958   0.253   4.161   2.297 -3.3273 -3.4664 -0.2991
  5434G12c C01I  959   0.215   4.084   2.489  0.2107  1.0760  1.6096
  5434G12c C01U  960   0.397   4.061   2.625  0.6637 -0.2069 -0.5379
  5434G12c C00S  961   0.488   3.528   2.636  0.3021  0.1071  0.0659
  5434G12c C00K  962   0.289   3.624   2.645 -0.3621  0.5820 -0.3207
  5434G12c C00N  963   0.468   3.950   2.664  0.9153  0.3128  0.6634
  5434G12c C000  964   0.274   4.030   2.605 -1.8023  0.1105  1.2435
  5434G12c C01J  965   0.129   3.974   2.435 -0.2293 -0.7784 -1.0943
  5434G12c C01K  966   0.055   3.955   2.304 -1.8724  1.3233  0.4359
  5434G12c C01P  967  -0.028   4.045   2.225 -1.4925  1.1748  0.3622
  5434G12c C01Q  968  -0.049   4.176   2.286 -2.4004 -0.2900  0.7089
  5434G12c H00G  969  -0.011   4.258   2.228 -4.2559  0.5260  0.6165
  5434G12c C01R  970  -0.102   4.181   2.414 -0.8685  0.7697  0.0638
  5434G12c H00F  971  -0.136   4.100   2.475 -3.5489  1.3516 -0.5952
  5434G12c C01S  972  -0.114   4.328   2.476  0.1947  0.4704 -0.0802
  5434G12c H00E  973  -0.154   4.281   2.566 -4.4863  3.2168 -0.5073
  5434G12c H00D  974  -0.010   4.359   2.469 -0.3576  3.6298  3.7872
  5434G12c O005  975  -0.212   4.395   2.395 -0.7430  0.4656 -0.2499
  5434G12c H00C  976  -0.283   4.334   2.380  1.1505 -1.4668 -1.6246
  5434G12c C01O  977  -0.067   4.002   2.102 -2.4891 -2.0445  0.4001
  5434G12c H00H  978  -0.119   4.084   2.055 -0.1561 -1.3690 -1.0865
  5434G12c C01N  979  -0.044   3.883   2.037  2.1296 -0.4218 -1.1677
  5434G12c O006  980  -0.094   3.851   1.902  0.7431 -0.1111 -0.2565
  5434G12c C01T  981  -0.119   3.971   1.821 -1.0365 -0.7750  0.2588
  5434G12c H00K  982  -0.034   4.032   1.790 -3.0524  3.5682  2.8791
  5434G12c H00J  983  -0.129   4.079   1.837  3.2709  0.0105 -1.7413
  5434G12c H00I  984  -0.084   3.918   1.732 -0.2650 -6.9874  3.9969
  5434G12c C01M  985  -0.001   3.792   2.124  0.6120 -0.1270 -0.0259
  5434G12c C020  986   0.164   3.623   2.548  1.7371  0.4295  0.2062
  5434G12c C021  987   0.099   3.490   2.500  0.1635  0.6574  0.3649
  5434G12c C01L  988   0.036   3.817   2.264  1.0703  2.3984  2.0584
  5434G12c O007  989   0.008   3.661   2.075  0.2784  0.0669 -0.1295
  5434G12c C022  990   0.028   3.466   2.387 -1.3829  1.0227 -1.2228
  5434G12c C023  991   0.179   3.376   2.498 -0.6216  2.3704  0.6187
  5434G12c C00G  992   0.360   3.188   2.427  0.2373 -0.4960  0.7180
  5434G12c C00E  993   0.416   2.994   2.284  1.5257 -0.5526  0.4827
  5434G12c O00A  994   0.493   2.872   2.264  0.2861  0.4607  0.5738
  5434G12c C024  995   0.479   2.786   2.369 -0.1675 -0.7283 -1.1578
  5434G12c H00V  996   0.382   2.786   2.418  1.1780  0.9829  1.6235
  5434G12c H00U  997   0.538   2.813   2.456 -1.1217  0.1749 -0.7904
  5434G12c H00T  998   0.518   2.693   2.328  1.8939  0.3943 -1.7991
  5444G12c C00D  999   3.851   0.353   9.978 -0.8143  0.0990  0.0928
  5444G12c O00B 1000   3.962   0.390  10.068  0.9969 -0.3129  0.3577
  5444G12c C025 1001   4.005   0.519  10.054  1.3358  0.8592  2.0757
  5444G12c C026 1002   4.109   0.518   9.940  1.1947  0.5484 -1.0937
  5444G12c H00Y 1003   4.066   0.497   9.842 -2.3533  0.9936  0.3150
  5444G12c H00X 1004   4.158   0.425   9.969 -3.0143 -1.6494 -0.7675
  5444G12c O00C 1005   4.196   0.618   9.918  0.7415  1.3793 -1.4576
  5444G12c H00W 1006   4.283   0.585   9.931  0.3785  1.2837  0.8825
  5444G12c C027 1007   3.947   0.627  10.114  1.4793 -0.1977  1.4864
  5444G12c O00D 1008   3.844   0.604  10.207  0.8399  0.6798 -0.1588
  5444G12c H00Z 1009   3.832   0.689  10.245  1.5143  1.3248 -1.3614
  5444G12c C028 1010   3.968   0.780  10.091  0.1236 -0.9417 -0.4829
  5444G12c C029 1011   3.968   0.857  10.219  1.0706  0.2210 -0.9429
  5444G12c H010 1012   3.966   0.776  10.291  7.3797 -1.9952 -2.8692
  5444G12c C02T 1013   3.965   0.999  10.243 -0.0578  0.8028  0.3933
  5444G12c H01O 1014   3.965   1.041  10.342  3.3571  3.0721 -0.4782
  5444G12c C02S 1015   3.938   1.081  10.140 -0.1711 -0.5020  0.4348
  5444G12c O00J 1016   3.906   1.212  10.166 -0.4927  0.0888  0.1505
  5444G12c H01P 1017   3.967   1.215  10.238 -4.5659 -2.9688  4.0478
  5444G12c C02R 1018   3.931   1.014  10.006 -1.5686  0.6852 -0.5428
  5444G12c O00I 1019   3.875   1.067   9.887 -0.3700  0.3807 -1.3361
  5444G12c C02Q 1020   3.947   1.167   9.811 -0.8005  0.7227 -0.5444
  5444G12c H01N 1021   3.906   1.142   9.713 -2.8919-11.1489  2.5825
  5444G12c H01R 1022   4.048   1.161   9.772 -1.9409 -5.6917 -3.1510
  5444G12c H01Q 1023   3.944   1.250   9.881  0.6649 -2.4427  3.5041
  5444G12c C02A 1024   3.929   0.868   9.978  0.0287 -0.3092 -0.0796
  5444G12c H011 1025   3.899   0.826   9.883  4.2730  3.4993 -3.3511
  5444G12c C00C 1026   3.837   0.430   9.853  1.1875  0.7409  0.3593
  5444G12c H012 1027   3.886   0.524   9.872 -0.2165  0.8813  3.6671
  5444G12c C00B 1028   3.786   0.365   9.743  1.5514 -0.3230  0.1218
  5444G12c C00A 1029   3.780   0.416   9.610  2.3203 -0.5829  0.1069
  5444G12c C009 1030   3.787   0.558   9.563 -0.8364 -0.4572 -0.4480
  5444G12c C008 1031   3.790   0.666   9.634  0.0152 -1.9366  1.0654
  5444G12c H013 1032   3.858   0.666   9.719  5.8714  7.3662 -2.8260
  5444G12c C007 1033   3.743   0.791   9.582  2.0155 -0.2896  0.6765
  5444G12c H014 1034   3.730   0.882   9.640  0.3229 -1.2196  1.8107
  5444G12c C006 1035   3.701   0.799   9.448 -1.0048  1.2108  0.6340
  5444G12c C005 1036   3.706   0.676   9.386  0.0869 -0.0350  1.9049
  5444G12c C004 1037   3.622   0.652   9.272 -0.7834 -0.1597  0.5083
  5444G12c C003 1038   3.606   0.514   9.232  0.0525  0.9465 -0.6800
  5444G12c C002 1039   3.496   0.506   9.132  0.1198  1.2839  0.6546
  5444G12c C001 1040   3.440   0.389   9.063  0.0128 -0.5633 -0.2573
  5444G12c C00M 1041   3.392   0.265   9.133  1.1526  2.0418 -0.3748
  5444G12c C00L 1042   3.449   0.215   9.255  0.4649 -0.0392  0.2057
  5444G12c C00R 1043   3.385   0.118   9.353 -0.0420 -0.8536  2.1260
  5444G12c C00Q 1044   3.255   0.059   9.371 -0.3426 -0.7279  0.9126
  5444G12c C00V 1045   3.246  -0.022   9.488  0.0642  1.7473  0.7449
  5444G12c C00U 1046   3.351  -0.020   9.581 -0.1815 -0.6271 -2.1432
  5444G12c C00T 1047   3.452   0.063   9.579 -1.3129 -2.2882  0.2016
  5444G12c C016 1048   3.550   0.103   9.676 -0.0971  1.4935 -1.8851
  5444G12c C015 1049   3.526   0.045   9.799 -0.0065 -1.3294 -0.6051
  5444G12c C010 1050   3.414  -0.036   9.818  0.4817 -1.0087  0.7306
  5444G12c C011 1051   3.384  -0.072   9.946  2.0950 -0.5964  0.5507
  5444G12c H005 1052   3.289  -0.110   9.982  3.6663 -6.9288 -1.2875
  5444G12c C012 1053   3.472  -0.053  10.054  0.1125 -0.5069  0.3921
  5444G12c C017 1054   3.428  -0.106  10.193  1.8507 -0.1232 -1.8886
  5444G12c O002 1055   3.283  -0.067  10.227 -1.1936 -0.1151 -1.0765
  5444G12c H004 1056   3.270  -0.077  10.320 -1.0280 -1.2278 -1.1639
  5444G12c C018 1057   3.511  -0.204  10.260 -1.1893 -0.7584 -1.1444
  5444G12c O001 1058   3.467  -0.247  10.383  0.4114  0.3867 -0.9646
  5444G12c H003 1059   3.539  -0.299  10.414 -4.9921 -4.3787  4.9020
  5444G12c C019 1060   3.655  -0.259  10.215 -0.3478  1.1764 -1.0128
  5444G12c H002 1061   3.637  -0.339  10.142 -2.9105 -3.2803  4.0705
  5444G12c H001 1062   3.720  -0.172  10.211  3.8875 -1.8686 -1.6867
  5444G12c O000 1063   3.689  -0.318  10.339  0.2518  0.6413  0.6137
  5444G12c C01A 1064   3.794  -0.388  10.331 -0.4501 -0.3588  0.6044
  5444G12c C02K 1065   3.919  -0.346  10.279 -1.2606  0.9271 -0.1357
  5444G12c O00G 1066   3.935  -0.215  10.250 -1.5411 -0.4583  0.2730
  5444G12c C02M 1067   4.083  -0.181  10.231 -0.9544 -0.6376 -0.4119
  5444G12c H01G 1068   4.167  -0.221  10.288 -1.3556 -0.1220  0.5676
  5444G12c H01F 1069   4.106  -0.082  10.271 -1.3008  0.7685 -3.5548
  5444G12c H01E 1070   4.096  -0.143  10.130  2.2271  5.3209  1.9914
  5444G12c C02J 1071   4.021  -0.443  10.284 -0.2962  0.5547  0.0481
  5444G12c H01H 1072   4.115  -0.434  10.231 -1.6103 -1.2396 -2.7226
  5444G12c C02I 1073   3.999  -0.574  10.334 -0.5624 -0.9584  1.0195
  5444G12c C02N 1074   4.113  -0.667  10.347 -0.7550  1.0139 -0.4110
  5444G12c H01M 1075   4.166  -0.709  10.431  3.8947  5.8069 -0.6797
  5444G12c C02O 1076   4.205  -0.704  10.243 -0.0820 -0.4318  0.2537
  5444G12c H01L 1077   4.163  -0.677  10.147  0.1174 -4.7427 -1.1393
  5444G12c C02P 1078   4.338  -0.779  10.270  2.0648 -0.5703 -0.4074
  5444G12c H01K 1079   4.341  -0.847  10.185  5.2649 -1.6657  0.5455
  5444G12c H01J 1080   4.411  -0.699  10.279 -0.8850  2.0626  1.2067
  5444G12c O00H 1081   4.353  -0.858  10.375  1.2421 -0.1839  1.1891
  5444G12c H01I 1082   4.406  -0.928  10.339 -4.5245 -3.3474 -1.7090
  5444G12c C02H 1083   3.872  -0.601  10.385 -1.5917  0.8874 -0.6185
  5444G12c H01C 1084   3.849  -0.679  10.456  2.5671  1.8808  1.9493
  5444G12c C02L 1085   3.781  -0.503  10.406  1.4170 -1.7901  0.9584
  5444G12c H01D 1086   3.695  -0.546  10.456  0.5286  1.4973  2.4605
  5444G12c C013 1087   3.603  -0.007  10.010 -1.0399 -0.5800 -1.3160
  5444G12c H000 1088   3.676   0.004  10.089  1.4473  6.5875 -4.2750
  5444G12c C014 1089   3.619   0.079   9.898 -0.0289 -0.2317 -0.5196
  5444G12c C00F 1090   3.720   0.181   9.895 -0.9109  1.9498 -0.4270
  5444G12c C00H 1091   3.660   0.184   9.659 -2.3798  0.4451 -0.3433
  5444G12c C00I 1092   3.669   0.236   9.520  0.9372 -1.0962 -2.0951
  5444G12c C00J 1093   3.588   0.193   9.419  0.2804 -1.0632 -0.8460
  5444G12c C00Z 1094   3.356  -0.092   9.705 -0.3144 -0.0616  0.9616
  5444G12c C00Y 1095   3.255  -0.188   9.707  1.5147  0.0952  0.1351
  5444G12c H006 1096   3.275  -0.253   9.790  2.2359  3.3194  2.5704
  5444G12c C00X 1097   3.145  -0.210   9.607 -1.0929  0.5432 -0.5231
  5444G12c O003 1098   3.038  -0.302   9.630  1.4228  0.7422  0.8258
  5444G12c C01B 1099   3.070  -0.412   9.697 -0.8378 -1.0337 -0.2042
  5444G12c H009 1100   3.004  -0.448   9.776  3.3414  2.3471  5.1829
  5444G12c H008 1101   3.143  -0.413   9.778  4.5158  1.5599 -4.6847
  5444G12c H007 1102   3.082  -0.492   9.624 -3.5963 -3.0223  1.4110
  5444G12c C00W 1103   3.141  -0.113   9.501  0.7170  1.1591 -0.0481
  5444G12c O004 1104   3.060  -0.140   9.386 -0.8897  0.3455  1.0278
  5444G12c C01C 1105   3.036  -0.010   9.323  0.2340  0.3441  0.5864
  5444G12c H00A 1106   2.937   0.031   9.331 -1.4579 -3.4377 -0.1679
  5444G12c C00P 1107   3.150   0.061   9.274  2.0748 -0.3736  0.1128
  5444G12c C00O 1108   3.135   0.168   9.171  1.9670  0.6147  0.3573
  5444G12c C01D 1109   2.998   0.208   9.129 -1.1254 -0.5936 -2.4250
  5444G12c H00S 1110   2.927   0.127   9.141 -6.2720  3.5225 -3.3021
  5444G12c C01E 1111   2.966   0.330   9.069 -0.5420  0.3423  0.2072
  5444G12c O008 1112   2.835   0.361   9.040  0.4238 -0.4227  0.5227
  5444G12c C01V 1113   2.765   0.401   9.166  0.5735  0.6991  0.8698
  5444G12c C01Z 1114   2.698   0.555   9.151  0.6983 -0.9138  1.3138
  5444G12c H00R 1115   2.656   0.580   9.053  3.0353 -3.3996 -0.3877
  5444G12c H00Q 1116   2.622   0.577   9.226  1.4858  3.7595  0.9186
  5444G12c O009 1117   2.796   0.635   9.195  0.4520 -0.3448 -0.5762
  5444G12c H00P 1118   2.810   0.633   9.289 -1.4476  0.7566 -0.2463
  5444G12c C01W 1119   2.745   0.322   9.275  0.7372  0.4569  0.5265
  5444G12c H00O 1120   2.771   0.219   9.254  0.1460  0.9348 -2.8633
  5444G12c C01X 1121   2.681   0.330   9.417  1.3122  0.0865  1.2758
  5444G12c H00N 1122   2.683   0.435   9.443 -5.2133  0.6233  0.4848
  5444G12c H00M 1123   2.584   0.280   9.427 -0.2763  2.2529 -2.3770
  5444G12c C01Y 1124   2.770   0.284   9.529 -0.6041 -1.0262  0.8218
  5444G12c C02D 1125   2.903   0.347   9.544  0.7742 -1.2301  0.3543
  5444G12c H019 1126   2.922   0.432   9.481 -0.8181 -2.0866 -1.3449
  5444G12c C02C 1127   2.981   0.305   9.633 -0.5512  0.9768 -2.0145
  5444G12c H01A 1128   3.068   0.365   9.656  0.2938  0.1766 -3.0126
  5444G12c C02B 1129   2.954   0.203   9.723  0.0959  0.5145 -1.0479
  5444G12c O00E 1130   3.031   0.196   9.845  1.9998 -0.1398  0.7517
  5444G12c H01B 1131   3.016   0.140   9.919 -3.2675 -4.0763 -2.9321
  5444G12c C02F 1132   2.852   0.122   9.710  0.3615 -0.4595 -0.1750
  5444G12c O00F 1133   2.803   0.042   9.824  0.4872  0.0293  0.2057
  5444G12c C02G 1134   2.654   0.000   9.805  0.3741  0.8726 -0.7514
  5444G12c H017 1135   2.666  -0.091   9.746 -1.5837  2.9990 -4.6621
  5444G12c H016 1136   2.596   0.084   9.767 -0.6318 -1.4681 -4.6444
  5444G12c H015 1137   2.648  -0.034   9.908  0.8400  9.1955  2.4306
  5444G12c C02E 1138   2.754   0.150   9.605 -0.8006  1.2872 -0.1876
  5444G12c H018 1139   2.670   0.092   9.568  1.6447 -1.1096 -2.1706
  5444G12c C01F 1140   3.071   0.428   9.035 -0.0058  2.0016  0.5238
  5444G12c C01G 1141   3.054   0.569   9.027 -0.0946  0.0951 -0.7010
  5444G12c H00L 1142   2.952   0.597   9.048  0.1959 -0.5457  1.6689
  5444G12c C01H 1143   3.173   0.635   9.041  1.5177 -0.2858 -1.9424
  5444G12c H00B 1144   3.189   0.736   9.074 -3.7601  1.0348 -2.9619
  5444G12c C01I 1145   3.303   0.583   9.025  0.7120 -0.4452  0.0505
  5444G12c C01U 1146   3.208   0.375   9.032  1.1793 -0.5436  0.9399
  5444G12c C00S 1147   3.488   0.094   9.443 -0.6300  1.6480  0.6009
  5444G12c C00K 1148   3.564   0.275   9.304 -0.0770  0.8904 -1.8578
  5444G12c C00N 1149   3.233   0.256   9.114 -0.7960  1.7723 -0.6889
  5444G12c C000 1150   3.327   0.450   8.988  2.1328  0.7388 -1.7232
  5444G12c C01J 1151   3.428   0.617   9.083  0.2676 -1.2812  1.8916
  5444G12c C01K 1152   3.481   0.741   9.097 -0.2944  0.8552  0.7391
  5444G12c C01P 1153   3.450   0.857   9.026  0.3525  1.1209  1.3973
  5444G12c C01Q 1154   3.367   0.887   8.897 -1.2794  1.5890  1.8084
  5444G12c H00G 1155   3.313   0.973   8.860  7.1262  5.8969 -1.7806
  5444G12c C01R 1156   3.365   0.778   8.808 -0.4299  0.8312  0.0651
  5444G12c H00F 1157   3.431   0.696   8.829  0.6412  0.8230 -3.0977
  5444G12c C01S 1158   3.301   0.776   8.662  0.2836 -0.0530 -1.5291
  5444G12c H00E 1159   3.383   0.774   8.589  1.5436  5.5159 -0.4972
  5444G12c H00D 1160   3.255   0.677   8.657  5.1592 -2.4801 -1.7837
  5444G12c O005 1161   3.208   0.887   8.672  0.4495  0.9487  1.8998
  5444G12c H00C 1162   3.150   0.882   8.746 -1.3010 -2.0094  0.3905
  5444G12c C01O 1163   3.485   0.980   9.068 -0.9643 -0.0051 -0.5097
  5444G12c H00H 1164   3.495   1.059   8.995  1.6282 -1.7860 -2.1965
  5444G12c C01N 1165   3.529   0.992   9.200  0.1235 -0.7847  0.2662
  5444G12c O006 1166   3.566   1.120   9.255  0.6329  0.7665 -0.3035
  5444G12c C01T 1167   3.491   1.151   9.368 -0.9542 -0.2893 -0.2186
  5444G12c H00K 1168   3.384   1.168   9.356 -2.1892  1.7671  9.5343
  5444G12c H00J 1169   3.530   1.252   9.380  0.6910 -1.0801  1.2654
  5444G12c H00I 1170   3.509   1.108   9.467 -2.7168  2.6487  1.4809
  5444G12c C01M 1171   3.564   0.883   9.274  0.2563  0.2061 -0.4812
  5444G12c C020 1172   3.650   0.397   9.293 -1.0623  0.2861  0.2257
  5444G12c C021 1173   3.747   0.428   9.394  1.5093 -0.5292  0.1798
  5444G12c C01L 1174   3.559   0.763   9.213 -0.2990  0.2543 -0.3972
  5444G12c O007 1175   3.646   0.907   9.385 -0.2801  1.1586 -0.7878
  5444G12c C022 1176   3.769   0.557   9.424 -0.2349  1.5344 -0.4329
  5444G12c C023 1177   3.772   0.329   9.506  0.9152  1.0399  1.0988
  5444G12c C00G 1178   3.729   0.238   9.765  1.0229  1.6998  1.2449
  5444G12c C00E 1179   3.788   0.230   9.998 -0.1192 -0.6440 -1.0353
  5444G12c O00A 1180   3.817   0.177  10.117  1.1721  0.4392 -1.3780
  5444G12c C024 1181   3.934   0.081  10.123 -1.0685  0.4166 -1.2247
  5444G12c H00V 1182   4.003   0.154  10.081 -0.7125  0.8622  0.1218
  5444G12c H00U 1183   3.978   0.054  10.219 -0.1018  6.3587  0.1795
  5444G12c H00T 1184   3.930  -0.013  10.068 -2.9555 -0.6836  0.7400
  5454G12c C00D 1185   7.764  12.728   9.992 -0.4111 -1.3758 -0.4747
  5454G12c O00B 1186   7.849  12.737   9.886  0.2030 -0.6066  0.3541
  5454G12c C025 1187   7.801  12.755   9.743 -0.4406 -0.8442 -1.0392
  5454G12c C026 1188   7.746  12.898   9.726  1.5483  1.9219  0.3887
  5454G12c H00Y 1189   7.790  12.929   9.631 -5.8358  2.5978 -3.2027
  5454G12c H00X 1190   7.788  12.966   9.800 -0.2622  1.8575  1.5069
  5454G12c O00C 1191   7.599  12.894   9.736 -0.8309 -0.6772  0.2025
  5454G12c H00W 1192   7.549  12.880   9.657 -1.0080  4.1202 -0.7378
  5454G12c C027 1193   7.781  12.648   9.664  0.3870 -0.6509  0.9543
  5454G12c O00D 1194   7.783  12.525   9.721 -0.8454  1.4420 -0.5793
  5454G12c H00Z 1195   7.802  12.561   9.806 -5.0409  1.6962  0.3316
  5454G12c C028 1196   7.735  12.674   9.534 -1.0104 -0.3205  0.0989
  5454G12c C029 1197   7.608  12.628   9.504 -1.2414 -0.5263  0.6305
  5454G12c H010 1198   7.529  12.578   9.558  1.1726 -3.7296  1.3326
  5454G12c C02T 1199   7.566  12.646   9.383 -1.2385 -0.6226  0.0718
  5454G12c H01O 1200   7.460  12.642   9.363 -1.2390  0.3402 -0.1162
  5454G12c C02S 1201   7.635  12.706   9.289  0.0051 -0.1642 -0.0350
  5454G12c O00J 1202   7.578  12.722   9.170  1.0732  0.6589  1.0102
  5454G12c H01P 1203   7.659  12.747   9.129  0.4185 -4.9756 -4.6778
  5454G12c C02R 1204   7.768  12.714   9.291  1.0657 -0.1492 -0.4848
  5454G12c O00I 1205   7.827  12.715   9.162 -0.7743 -0.3225 -0.6228
  5454G12c C02Q 1206   7.949  12.663   9.167 -0.5769 -0.0936 -0.8241
  5454G12c H01N 1207   8.009  12.727   9.231 -1.5480 -1.9355  2.0901
  5454G12c H01R 1208   8.022  12.657   9.087  3.4242  0.8122  2.5615
  5454G12c H01Q 1209   7.949  12.571   9.227 -4.1457  0.3151 -0.0637
  5454G12c C02A 1210   7.825  12.726   9.426 -0.0263  0.0380 -1.3320
  5454G12c H011 1211   7.930  12.753   9.428  0.5409 -0.3702 -9.2548
  5454G12c C00C 1212   7.841  12.770  10.100  0.4476  0.2684 -0.5278
  5454G12c H012 1213   7.939  12.817  10.103  2.0562 -2.7308 -3.3233
  5454G12c C00B 1214   7.796  12.788  10.231 -0.2231 -0.6123  0.0321
  5454G12c C00A 1215   7.883  12.837  10.343 -2.3774  0.6287 -0.1793
  5454G12c C009 1216   8.018  12.845  10.361  1.2703  0.6382  1.0770
  5454G12c C008 1217   8.126  12.789  10.290 -1.0792  0.8488  0.7924
  5454G12c H013 1218   8.119  12.740  10.194  2.1182  2.0816 -0.1326
  5454G12c C007 1219   8.246  12.756  10.374 -0.8018 -1.4743 -1.0238
  5454G12c H014 1220   8.325  12.726  10.307  3.3277  2.1267  1.9442
  5454G12c C006 1221   8.260  12.758  10.513  0.3646  0.1282 -2.5727
  5454G12c C005 1222   8.142  12.812  10.567 -0.3146  2.5373  1.1608
  5454G12c C004 1223   8.107  12.773  10.702  0.6885 -0.3772  0.8760
  5454G12c C003 1224   7.983  12.807  10.774  0.7708 -0.4614  0.8447
  5454G12c C002 1225   7.972  12.758  10.921 -0.4397  0.3572 -1.6903
  5454G12c C001 1226   7.859  12.768  11.006  0.4939  0.3605  1.2311
  5454G12c C00M 1227   7.717  12.750  10.978  0.2936 -0.5475  1.5667
  5454G12c C00L 1228   7.659  12.765  10.852 -0.6831 -0.3481 -1.7488
  5454G12c C00R 1229   7.565  12.680  10.785 -1.4618  1.4061 -0.2282
  5454G12c C00Q 1230   7.478  12.587  10.852  2.0322  1.1658  0.8170
  5454G12c C00V 1231   7.384  12.520  10.756 -0.5703 -0.9372  1.8662
  5454G12c C00U 1232   7.393  12.541  10.608  0.4154  0.7485 -1.7843
  5454G12c C00T 1233   7.467  12.644  10.561 -0.0864  0.6191 -0.0497
  5454G12c C016 1234   7.511  12.659  10.426 -0.9968  1.0188 -1.4238
  5454G12c C015 1235   7.459  12.575  10.331  0.4287  0.7563 -2.1251
  5454G12c C010 1236   7.368  12.474  10.383  1.0590 -2.0274  0.8779
  5454G12c C011 1237   7.308  12.392  10.300 -0.1557  1.4703 -0.1787
  5454G12c H005 1238   7.242  12.307  10.312  0.0801  1.7177  3.1727
  5454G12c C012 1239   7.362  12.377  10.165 -2.0153  0.4889  1.5077
  5454G12c C017 1240   7.305  12.271  10.071 -1.8912 -0.3883 -0.5780
  5454G12c O002 1241   7.164  12.236  10.081  0.5334  1.7310 -0.5170
  5454G12c H004 1242   7.130  12.153  10.050 -4.4824  2.9244  1.2394
  5454G12c C018 1243   7.374  12.215   9.974 -0.4479  1.2584  0.2173
  5454G12c O001 1244   7.513  12.224   9.961 -0.5673 -0.9850 -0.9098
  5454G12c H003 1245   7.570  12.258  10.027 -3.1777  1.4274  0.1965
  5454G12c C019 1246   7.327  12.118   9.848 -0.3715 -0.1394 -0.0033
  5454G12c H002 1247   7.320  12.167   9.751 -4.2816  3.6916  2.0253
  5454G12c H001 1248   7.389  12.040   9.806  3.9269  4.5557 -2.9594
  5454G12c O000 1249   7.189  12.086   9.862  1.3604  0.0274 -0.4097
  5454G12c C01A 1250   7.096  12.108   9.759 -0.6456  0.4267 -1.8668
  5454G12c C02K 1251   7.120  12.071   9.626 -1.1676  1.5045 -0.6603
  5454G12c O00G 1252   7.224  11.994   9.586  0.1970  0.0258  1.6846
  5454G12c C02M 1253   7.224  11.856   9.605  0.7858 -0.4215  0.0255
  5454G12c H01G 1254   7.330  11.837   9.592  0.3953 -3.4597  0.8616
  5454G12c H01F 1255   7.162  11.797   9.538 -5.2070  2.5186  2.6217
  5454G12c H01E 1256   7.191  11.815   9.700  1.6249 -0.3808  0.3396
  5454G12c C02J 1257   7.018  12.102   9.528 -1.2661 -0.3581  0.1342
  5454G12c H01H 1258   7.030  12.095   9.421  3.3458 -1.1458  0.5942
  5454G12c C02I 1259   6.900  12.166   9.571 -0.6334  0.5150  1.4418
  5454G12c C02N 1260   6.787  12.168   9.480 -0.1544 -0.3950  1.6608
  5454G12c H01M 1261   6.695  12.114   9.497 -1.0297  0.8083  0.8569
  5454G12c C02O 1262   6.800  12.211   9.352  1.2009 -0.5265  0.0618
  5454G12c H01L 1263   6.890  12.256   9.315  1.5439 -0.7820  0.5742
  5454G12c C02P 1264   6.665  12.206   9.270 -0.7027 -1.6616 -0.3862
  5454G12c H01K 1265   6.672  12.288   9.198 -3.2127 -1.1018 -0.0522
  5454G12c H01J 1266   6.665  12.127   9.195  2.4759 -0.6611 -1.5277
  5454G12c O00H 1267   6.538  12.158   9.323  1.4151 -1.6084 -0.4509
  5454G12c H01I 1268   6.532  12.189   9.412 -1.6029 -2.1700 -0.3814
  5454G12c C02H 1269   6.873  12.187   9.708 -0.0780 -0.8585  0.6452
  5454G12c H01C 1270   6.795  12.241   9.758 -4.8824 -4.0791 -2.9657
  5454G12c C02L 1271   6.971  12.142   9.809  0.5014  0.3347  1.4108
  5454G12c H01D 1272   6.955  12.164   9.914  1.6376 -2.6061  2.2305
  5454G12c C013 1273   7.439  12.463  10.112 -1.3213 -0.2191 -0.1205
  5454G12c H000 1274   7.499  12.431  10.028 -0.2181  7.0797 -2.4673
  5454G12c C014 1275   7.489  12.575  10.201 -0.5457 -0.9170  0.9065
  5454G12c C00F 1276   7.590  12.655  10.154  0.9896  1.4809 -0.2365
  5454G12c C00H 1277   7.619  12.744  10.390 -0.0710  1.1476 -2.3005
  5454G12c C00I 1278   7.693  12.818  10.494 -0.6943 -0.5773 -0.7918
  5454G12c C00J 1279   7.648  12.784  10.619 -1.1629 -0.1599  0.6768
  5454G12c C00Z 1280   7.320  12.457  10.517 -1.7268 -1.4689 -0.9185
  5454G12c C00Y 1281   7.232  12.357  10.567  0.7966 -1.7582 -2.0177
  5454G12c H006 1282   7.179  12.291  10.500  8.0216 -4.1398 -6.0439
  5454G12c C00X 1283   7.198  12.374  10.721  1.9075 -0.5210 -1.3893
  5454G12c O003 1284   7.089  12.312  10.776 -0.2499 -2.0472 -0.6158
  5454G12c C01B 1285   6.978  12.284  10.695  1.6514 -0.6189  0.0050
  5454G12c H009 1286   6.905  12.342  10.751 -3.1122 -5.9396 -0.2612
  5454G12c H008 1287   6.926  12.345  10.621  3.7263  3.0209  1.3839
  5454G12c H007 1288   6.941  12.182  10.699 -2.6626  0.9179  3.5939
  5454G12c C00W 1289   7.271  12.451  10.811 -0.5108  0.4962  0.0140
  5454G12c O004 1290   7.236  12.445  10.956 -0.2928 -0.9493  0.1910
  5454G12c C01C 1291   7.333  12.484  11.041 -0.8832 -0.9157  0.7332
  5454G12c H00A 1292   7.290  12.486  11.140  0.6345 -3.3633  1.4717
  5454G12c C00P 1293   7.456  12.561  10.995 -0.0082  0.0353 -1.4270
  5454G12c C00O 1294   7.557  12.586  11.097  1.0812 -1.5915  0.0171
  5454G12c C01D 1295   7.568  12.470  11.184  0.8256 -1.4318  0.7628
  5454G12c H00S 1296   7.486  12.401  11.194 -3.2785  2.8872 -1.0983
  5454G12c C01E 1297   7.680  12.440  11.257 -0.4958  0.2300 -0.1343
  5454G12c O008 1298   7.675  12.333  11.340 -0.2977 -0.1926  0.2809
  5454G12c C01V 1299   7.726  12.364  11.470 -1.2993  0.7315 -0.5596
  5454G12c C01Z 1300   7.691  12.240  11.575  0.6833  0.5294 -0.9968
  5454G12c H00R 1301   7.756  12.221  11.661  1.9719  2.5080 -1.5033
  5454G12c H00Q 1302   7.592  12.267  11.612  1.5010 -3.6981  4.9754
  5454G12c O009 1303   7.646  12.120  11.510 -0.1036 -0.9297 -0.8521
  5454G12c H00P 1304   7.562  12.122  11.466  0.5670  7.2976 -2.5838
  5454G12c C01W 1305   7.801  12.467  11.517 -0.9836  2.0273 -0.8938
  5454G12c H00O 1306   7.827  12.545  11.448  2.1008  2.1426  0.3545
  5454G12c C01X 1307   7.835  12.490  11.666 -0.6049  0.7073 -1.0908
  5454G12c H00N 1308   7.870  12.387  11.669 -4.4838 -0.6330  3.3614
  5454G12c H00M 1309   7.905  12.571  11.686 -1.0243  0.4855  1.4380
  5454G12c C01Y 1310   7.696  12.487  11.755 -2.2207 -0.5510 -0.5315
  5454G12c C02D 1311   7.605  12.589  11.722  0.3892 -1.8368  0.1539
  5454G12c H019 1312   7.623  12.661  11.644 -5.2772  7.2880  6.2853
  5454G12c C02C 1313   7.522  12.623  11.843  0.9782  0.4821 -0.0366
  5454G12c H01A 1314   7.447  12.701  11.836  0.6682  0.1052 -1.1327
  5454G12c C02B 1315   7.495  12.538  11.953  0.2798  0.3228 -0.6549
  5454G12c O00E 1316   7.376  12.557  12.010  0.5230 -1.0833 -0.0653
  5454G12c H01B 1317   7.335  12.508  11.940 -6.5713  2.3073  1.2570
  5454G12c C02F 1318   7.606  12.448  11.995 -0.6216 -0.3678  0.5347
  5454G12c O00F 1319   7.635  12.384  12.115  0.9576  0.8392 -0.6133
  5454G12c C02G 1320   7.525  12.293  12.127  0.4433 -0.0267  0.5829
  5454G12c H017 1321   7.449  12.332  12.193  2.0788  1.0262  1.8781
  5454G12c H016 1322   7.588  12.206  12.149  0.0990 -0.0441  1.5076
  5454G12c H015 1323   7.486  12.261  12.030  2.4286  4.9759 -2.0912
  5454G12c C02E 1324   7.703  12.420  11.889 -0.1904 -0.3582 -0.7017
  5454G12c H018 1325   7.795  12.376  11.925 -0.8028 -0.9517  0.1569
  5454G12c C01F 1326   7.792  12.506  11.222 -0.4488 -0.5362  1.7813
  5454G12c C01G 1327   7.923  12.438  11.217 -0.1192 -0.4222 -0.5722
  5454G12c H00L 1328   7.934  12.332  11.235  3.5154  0.0266  0.0653
  5454G12c C01H 1329   8.033  12.506  11.165 -1.4028  0.8121  0.0659
  5454G12c H00B 1330   8.109  12.433  11.140 -1.8404 -0.0992  1.3591
  5454G12c C01I 1331   8.032  12.640  11.109 -1.3224 -0.6788 -1.0421
  5454G12c C01U 1332   7.783  12.640  11.172 -0.8434 -1.7190  0.0235
  5454G12c C00S 1333   7.561  12.702  10.647  1.6419 -0.2524 -0.3811
  5454G12c C00K 1334   7.728  12.832  10.746  1.4289  1.5441 -0.0093
  5454G12c C00N 1335   7.674  12.660  11.088 -1.3488 -1.4951  0.3973
  5454G12c C000 1336   7.903  12.697  11.116  0.1166 -0.1171 -0.5838
  5454G12c C01J 1337   8.079  12.680  10.968  0.3551  2.0474 -0.5979
  5454G12c C01K 1338   8.199  12.648  10.907 -1.6015 -0.7274 -0.8435
  5454G12c C01P 1339   8.317  12.590  10.976 -0.4247  1.1990  0.9138
  5454G12c C01Q 1340   8.328  12.586  11.126  1.6458  0.0618  0.5867
  5454G12c H00G 1341   8.310  12.668  11.194 -4.1959 -0.6251  0.1645
  5454G12c C01R 1342   8.406  12.484  11.182 -1.9801 -0.2059  0.5537
  5454G12c H00F 1343   8.444  12.403  11.121  4.6327  1.2429  2.3103
  5454G12c C01S 1344   8.455  12.503  11.322 -1.2552  0.3796 -0.9856
  5454G12c H00E 1345   8.481  12.400  11.347 -0.0774  1.8281  4.4892
  5454G12c H00D 1346   8.538  12.573  11.329 -3.5016  2.9721  0.3124
  5454G12c O005 1347   8.372  12.528  11.432 -0.0025 -0.5615 -0.0945
  5454G12c H00C 1348   8.288  12.562  11.406  0.5345  0.3260 -0.6533
  5454G12c C01O 1349   8.419  12.545  10.892 -0.9086 -0.9145 -0.1823
  5454G12c H00H 1350   8.504  12.484  10.918  1.1613  1.5885 -0.8051
  5454G12c C01N 1351   8.428  12.581  10.757  0.7463  0.1667 -0.6682
  5454G12c O006 1352   8.532  12.526  10.690 -1.2896  1.6414  0.7326
  5454G12c C01T 1353   8.543  12.379  10.694 -0.6740  1.2938  0.5506
  5454G12c H00K 1354   8.649  12.373  10.718  0.3853 -2.0731 -4.3587
  5454G12c H00J 1355   8.508  12.351  10.793 -2.0477  1.3280  0.0825
  5454G12c H00I 1356   8.485  12.299  10.648  4.9437 -1.2485 -2.5721
  5454G12c C01M 1357   8.332  12.671  10.703  0.6274  0.3116  0.7534
  5454G12c C020 1358   7.866  12.866  10.699  1.1632 -0.3346 -1.3162
  5454G12c C021 1359   7.902  12.899  10.562 -0.4278  0.4386 -2.0320
  5454G12c C01L 1360   8.205  12.696  10.770 -0.3721 -0.1500 -0.4375
  5454G12c O007 1361   8.367  12.713  10.579 -0.5071 -1.8151 -0.8033
  5454G12c C022 1362   8.023  12.880  10.496  0.3656  0.5765  0.7208
  5454G12c C023 1363   7.810  12.889  10.453 -0.6024  0.0293  2.0736
  5454G12c C00G 1364   7.663  12.728  10.255 -2.0417  1.3326  0.9807
  5454G12c C00E 1365   7.628  12.661  10.017 -0.2650 -0.4358  0.0051
  5454G12c O00A 1366   7.558  12.630   9.900 -1.1345  1.2816 -0.9639
  5454G12c C024 1367   7.415  12.623   9.888 -1.9372  0.4303 -1.2805
  5454G12c H00V 1368   7.413  12.638   9.780  0.5834 -2.6316 -1.8297
  5454G12c H00U 1369   7.379  12.711   9.941  2.7196  0.0358  2.9108
  5454G12c H00T 1370   7.354  12.537   9.918  5.1633 -3.6260  2.8983
  5464G12c C00D 1371   5.817   5.681   3.423 -0.1256  0.4893  0.5171
  5464G12c O00B 1372   5.815   5.786   3.341  1.0717  0.4138  1.1298
  5464G12c C025 1373   5.750   5.908   3.353  0.8799 -1.1160 -0.9051
  5464G12c C026 1374   5.830   6.025   3.413  0.1139  0.2634  1.8913
  5464G12c H00Y 1375   5.764   6.048   3.496  0.7206  2.7340  1.7369
  5464G12c H00X 1376   5.812   6.102   3.338  2.9594  1.0868  1.9914
  5464G12c O00C 1377   5.972   6.016   3.446  0.0602  0.3824 -0.1308
  5464G12c H00W 1378   5.994   6.083   3.508 -5.4695  0.6630  1.8161
  5464G12c C027 1379   5.625   5.922   3.289  0.2704 -0.8567  1.0885
  5464G12c O00D 1380   5.579   5.808   3.226  0.2516  1.8778  0.4081
  5464G12c H00Z 1381   5.667   5.785   3.201 -0.2179 -0.2159  0.5462
  5464G12c C028 1382   5.543   6.049   3.286 -0.0725 -0.5683  0.1190
  5464G12c C029 1383   5.440   6.059   3.380 -1.4450  0.6077  0.0615
  5464G12c H010 1384   5.406   5.990   3.456  1.0340 -0.7460  0.0024
  5464G12c C02T 1385   5.383   6.199   3.400 -3.1730 -0.8373  0.6739
  5464G12c H01O 1386   5.304   6.206   3.473 -1.6335 -2.2562  2.5292
  5464G12c C02S 1387   5.440   6.300   3.309 -0.7532  0.4563 -3.3008
  5464G12c O00J 1388   5.370   6.422   3.321  0.5317 -0.9617 -1.3368
  5464G12c H01P 1389   5.437   6.488   3.307 -1.3521  3.0809  6.0139
  5464G12c C02R 1390   5.532   6.265   3.204 -1.5777  0.2834 -2.2999
  5464G12c O00I 1391   5.574   6.368   3.127 -0.5761  0.6713 -1.5955
  5464G12c C02Q 1392   5.617   6.356   2.995  0.3063 -1.9247 -0.6556
  5464G12c H01N 1393   5.594   6.444   2.934  3.3423  2.7356  4.3604
  5464G12c H01R 1394   5.725   6.371   3.006  0.2795  0.4497 -3.1077
  5464G12c H01Q 1395   5.580   6.269   2.942 -5.3099  2.6874 -4.9350
  5464G12c C02A 1396   5.582   6.139   3.201 -0.6578 -1.3644 -0.5450
  5464G12c H011 1397   5.661   6.128   3.129 -1.5123  2.2527 -2.1719
  5464G12c C00C 1398   5.735   5.670   3.534  1.3621  0.7186 -0.3038
  5464G12c H012 1399   5.641   5.723   3.539  1.0381  0.0159  1.6466
  5464G12c C00B 1400   5.741   5.591   3.651  0.5924 -0.1763  0.7074
  5464G12c C00A 1401   5.649   5.586   3.743  1.0665 -1.7680  1.0726
  5464G12c C009 1402   5.627   5.713   3.815  1.0750 -1.4575 -0.5518
  5464G12c C008 1403   5.660   5.853   3.791 -0.0278  0.0374  0.8346
  5464G12c H013 1404   5.666   5.894   3.691  1.5673 -0.6940  0.6124
  5464G12c C007 1405   5.680   5.940   3.899 -0.0455 -1.3167  0.6113
  5464G12c H014 1406   5.686   6.048   3.897 -2.9465 -1.1177 -3.7123
  5464G12c C006 1407   5.680   5.902   4.032  0.3683  1.3807 -0.1952
  5464G12c C005 1408   5.665   5.760   4.050 -0.3248 -1.2398 -0.2123
  5464G12c C004 1409   5.695   5.705   4.178 -0.2009  1.2274 -1.6184
  5464G12c C003 1410   5.705   5.567   4.196 -1.6561  0.2306  1.5096
  5464G12c C002 1411   5.763   5.528   4.320 -1.3565 -1.0808 -1.3677
  5464G12c C001 1412   5.798   5.398   4.379  2.4349  0.2995  0.3537
  5464G12c C00M 1413   5.882   5.301   4.303  1.1006 -0.4425 -0.7227
  5464G12c C00L 1414   5.868   5.285   4.163 -0.7860 -0.3867  0.1388
  5464G12c C00R 1415   5.944   5.198   4.079 -0.3535 -1.0199 -1.7676
  5464G12c C00Q 1416   6.077   5.142   4.097 -0.1838  1.7346 -2.3325
  5464G12c C00V 1417   6.152   5.091   3.975  0.2338 -1.4009 -0.8850
  5464G12c C00U 1418   6.105   5.124   3.843  0.2591  0.0576 -1.0196
  5464G12c C00T 1419   5.986   5.195   3.829  0.8605  0.7707  0.6192
  5464G12c C016 1420   5.955   5.271   3.727 -0.7400 -0.3529 -0.7481
  5464G12c C015 1421   6.040   5.261   3.614  0.3444  0.3313  2.1769
  5464G12c C010 1422   6.156   5.193   3.615 -0.9377 -1.3295 -0.7093
  5464G12c C011 1423   6.240   5.184   3.508  0.3919  0.1689 -2.2348
  5464G12c H005 1424   6.321   5.113   3.510 -3.1902 -4.1895 -2.8979
  5464G12c C012 1425   6.216   5.264   3.394 -0.2928 -0.1371 -0.9069
  5464G12c C017 1426   6.295   5.263   3.267  0.1564  0.3364 -0.1035
  5464G12c O002 1427   6.225   5.184   3.178  0.4073 -0.7651  0.0149
  5464G12c H004 1428   6.284   5.111   3.164  1.3182 -0.3029  1.3271
  5464G12c C018 1429   6.427   5.305   3.259  1.2120  0.2765 -0.5710
  5464G12c O001 1430   6.479   5.386   3.343 -0.0124  0.7201 -1.4069
  5464G12c H003 1431   6.405   5.401   3.400 -2.0085 -3.1516 -2.8017
  5464G12c C019 1432   6.507   5.277   3.139  0.5286 -0.5697  1.1865
  5464G12c H002 1433   6.460   5.259   3.042 -1.4814  8.2978  0.0376
  5464G12c H001 1434   6.589   5.344   3.112 -6.7571  7.8804 -2.7021
  5464G12c O000 1435   6.543   5.133   3.136 -0.2558  0.0472 -0.3415
  5464G12c C01A 1436   6.605   5.046   3.230 -1.0625 -0.2126  1.0382
  5464G12c C02K 1437   6.751   5.044   3.250  0.3930 -1.2383  0.0930
  5464G12c O00G 1438   6.829   5.145   3.216 -0.8632 -0.6707  0.2391
  5464G12c C02M 1439   6.910   5.202   3.305 -1.5938  2.3020  0.3787
  5464G12c H01G 1440   6.850   5.273   3.362 -1.9281  2.4944 -0.2053
  5464G12c H01F 1441   6.987   5.276   3.281  6.9418 -4.6446  3.4576
  5464G12c H01E 1442   6.910   5.154   3.403 -2.7635  0.9682 -0.2506
  5464G12c C02J 1443   6.813   4.912   3.286  0.0575 -0.9954 -0.2798
  5464G12c H01H 1444   6.919   4.891   3.282  1.4300  0.8268 10.7397
  5464G12c C02I 1445   6.731   4.800   3.326  1.3047  0.7178 -1.4925
  5464G12c C02N 1446   6.781   4.673   3.379  0.2520  1.0451  0.2932
  5464G12c H01M 1447   6.795   4.579   3.329 -2.0678  1.6793 -1.6398
  5464G12c C02O 1448   6.766   4.687   3.508  0.9176  0.8594 -0.2100
  5464G12c H01L 1449   6.733   4.774   3.563  1.5900  1.6614 -1.0523
  5464G12c C02P 1450   6.781   4.570   3.619  0.1424 -0.3097  1.2083
  5464G12c H01K 1451   6.771   4.600   3.723  2.9288  4.9256  0.1266
  5464G12c H01J 1452   6.714   4.496   3.574  4.0661 -0.6044 -4.6635
  5464G12c O00H 1453   6.915   4.519   3.586 -0.1846  0.0805  1.9661
  5464G12c H01I 1454   6.979   4.531   3.653  0.7522  1.2754  0.9012
  5464G12c C02H 1455   6.598   4.833   3.334  0.8147 -0.4353 -0.4115
  5464G12c H01C 1456   6.550   4.799   3.425 -7.3014  1.7863 -3.4273
  5464G12c C02L 1457   6.541   4.942   3.278 -0.4717  0.9598  1.1643
  5464G12c H01D 1458   6.445   4.975   3.316 -1.5403  0.0484 -0.6792
  5464G12c C013 1459   6.101   5.350   3.404 -0.4293  0.7622  1.0283
  5464G12c H000 1460   6.096   5.431   3.334  2.4913  0.3885  0.3409
  5464G12c C014 1461   6.018   5.362   3.518 -1.5505  1.1809 -0.7202
  5464G12c C00F 1462   5.936   5.473   3.534  0.4022  1.5781 -0.3969
  5464G12c C00H 1463   5.842   5.370   3.730 -0.6004  0.4788 -0.7409
  5464G12c C00I 1464   5.757   5.380   3.848  1.1541  0.5288  1.1252
  5464G12c C00J 1465   5.783   5.296   3.957 -1.3192  0.3726  1.4752
  5464G12c C00Z 1466   6.199   5.121   3.734 -0.1519 -1.2402 -0.0014
  5464G12c C00Y 1467   6.339   5.065   3.753 -0.9995 -0.2498 -1.0195
  5464G12c H006 1468   6.421   5.058   3.683  1.1444 -4.4161  1.6821
  5464G12c C00X 1469   6.376   5.039   3.885 -0.1027 -0.8045 -1.9338
  5464G12c O003 1470   6.496   4.986   3.901 -0.3780  0.1864 -1.3286
  5464G12c C01B 1471   6.619   4.988   3.815 -0.6507  1.3822 -0.7249
  5464G12c H009 1472   6.685   4.932   3.882  3.8920  5.6718 -1.2930
  5464G12c H008 1473   6.617   4.897   3.755 -5.4135  0.0875  1.1634
  5464G12c H007 1474   6.681   5.075   3.793  1.3139 -1.0265 -5.6686
  5464G12c C00W 1475   6.282   5.049   3.991  1.0526  0.0740  1.0125
  5464G12c O004 1476   6.340   5.016   4.119 -0.8653 -0.4643  0.0899
  5464G12c C01C 1477   6.264   5.049   4.227 -0.3681  0.3655 -0.5131
  5464G12c H00A 1478   6.279   4.990   4.316  5.5540  5.6304  2.3671
  5464G12c C00P 1479   6.152   5.139   4.225 -0.8712 -1.0481  1.6920
  5464G12c C00O 1480   6.147   5.238   4.327 -1.2877  0.1014  0.8318
  5464G12c C01D 1481   6.258   5.266   4.401  1.4456  0.4401 -0.1990
  5464G12c H00S 1482   6.354   5.223   4.378  1.1609  0.0239 -0.6096
  5464G12c C01E 1483   6.245   5.384   4.505 -0.7948  0.0413  0.2388
  5464G12c O008 1484   6.344   5.478   4.524  0.0867  1.5305  0.5201
  5464G12c C01V 1485   6.467   5.440   4.455 -0.7796 -1.6580  0.9502
  5464G12c C01Z 1486   6.454   5.500   4.316  1.1497  1.6216  1.2345
  5464G12c H00R 1487   6.516   5.588   4.334  2.7551  0.8486 -0.3891
  5464G12c H00Q 1488   6.520   5.469   4.235 -2.4352  4.3936 -3.0048
  5464G12c O009 1489   6.329   5.545   4.255 -0.2611 -1.7366 -0.8780
  5464G12c H00P 1490   6.270   5.551   4.328 -4.6737 -7.2188 -3.5934
  5464G12c C01W 1491   6.565   5.413   4.531 -1.2020 -0.6661  1.2254
  5464G12c H00O 1492   6.554   5.380   4.633  4.2216 -4.9460  0.6804
  5464G12c C01X 1493   6.708   5.385   4.494  0.5289 -1.5660 -0.0249
  5464G12c H00N 1494   6.761   5.478   4.476 -6.4593  2.0518 -3.9864
  5464G12c H00M 1495   6.755   5.319   4.567 -0.7906 -0.9422  1.4354
  5464G12c C01Y 1496   6.726   5.310   4.360  0.7906 -1.1125 -0.6688
  5464G12c C02D 1497   6.745   5.362   4.236  0.4002  0.7128  0.0570
  5464G12c H019 1498   6.723   5.465   4.212 -2.1143  1.1553  3.7886
  5464G12c C02C 1499   6.750   5.270   4.139 -0.6115 -1.8184 -0.0497
  5464G12c H01A 1500   6.767   5.309   4.039 -1.5216  0.4815  0.6570
  5464G12c C02B 1501   6.746   5.126   4.147  1.4458 -1.5376  0.6902
  5464G12c O00E 1502   6.772   5.047   4.036 -1.1211  0.0214 -0.9068
  5464G12c H01B 1503   6.768   5.109   3.965  2.6347 -0.9168 -2.0662
  5464G12c C02F 1504   6.750   5.077   4.275 -0.9201 -0.8118 -0.6406
  5464G12c O00F 1505   6.774   4.942   4.305 -0.8456 -0.0209 -0.7261
  5464G12c C02G 1506   6.649   4.868   4.290  2.3437  0.7447  0.4266
  5464G12c H017 1507   6.680   4.785   4.226 -2.0192 -1.6511  1.1879
  5464G12c H016 1508   6.547   4.906   4.279 -0.3386 -5.4259  1.6339
  5464G12c H015 1509   6.645   4.779   4.352 -4.4576 -4.2143 -6.1529
  5464G12c C02E 1510   6.760   5.175   4.381  0.0295 -1.3593 -0.0207
  5464G12c H018 1511   6.769   5.144   4.484 -4.6171  3.7579  2.1133
  5464G12c C01F 1512   6.130   5.438   4.540 -0.3132  1.1650 -0.9125
  5464G12c C01G 1513   6.113   5.576   4.607  0.9050 -2.0160  0.1652
  5464G12c H00L 1514   6.179   5.641   4.662 -1.0324  0.2049 -0.0297
  5464G12c C01H 1515   5.984   5.638   4.592 -1.3884 -1.0907  0.7148
  5464G12c H00B 1516   5.975   5.735   4.637  4.7943  1.5984 -3.0687
  5464G12c C01I 1517   5.884   5.575   4.520  0.6411  1.1349  0.9350
  5464G12c C01U 1518   6.005   5.382   4.487  0.2757 -0.1967 -0.6155
  5464G12c C00S 1519   5.897   5.211   3.952 -0.5219  0.6386  0.1772
  5464G12c C00K 1520   5.784   5.356   4.085 -0.3839  0.4402 -1.1150
  5464G12c C00N 1521   6.024   5.297   4.371  0.3028 -1.0318  0.9003
  5464G12c C000 1522   5.881   5.433   4.495 -0.6154  0.4604 -0.0192
  5464G12c C01J 1523   5.790   5.625   4.423 -0.8851 -1.9608 -0.2038
  5464G12c C01K 1524   5.727   5.756   4.421 -0.6757 -0.1102 -1.4194
  5464G12c C01P 1525   5.711   5.848   4.531  1.2714  0.5908 -0.9803
  5464G12c C01Q 1526   5.718   5.824   4.666  1.2724  1.4330 -0.3115
  5464G12c H00G 1527   5.745   5.890   4.747 -5.6864  1.2601  2.5329
  5464G12c C01R 1528   5.664   5.705   4.704  0.0869 -0.6456  0.5763
  5464G12c H00F 1529   5.623   5.652   4.620  0.0445 -0.4427  0.4708
  5464G12c C01S 1530   5.634   5.655   4.847 -0.1052 -0.2115 -0.1053
  5464G12c H00E 1531   5.534   5.623   4.875  2.5066 -6.1917  3.4755
  5464G12c H00D 1532   5.675   5.554   4.845 -2.5319 -1.2305 -3.0275
  5464G12c O005 1533   5.664   5.771   4.938  0.0808  0.7508 -1.2095
  5464G12c H00C 1534   5.740   5.727   4.971 -0.0864  0.3141 -1.3979
  5464G12c C01O 1535   5.683   5.967   4.493 -0.3674 -0.9844 -2.3486
  5464G12c H00H 1536   5.717   6.034   4.570  0.6420 -6.9924  2.8562
  5464G12c C01N 1537   5.710   6.021   4.376  0.8308 -0.8948  0.7504
  5464G12c O006 1538   5.773   6.143   4.348 -2.2349 -0.0396 -0.9201
  5464G12c C01T 1539   5.780   6.263   4.445  1.1543 -0.7124 -0.6962
  5464G12c H00K 1540   5.684   6.314   4.442  0.1321 -2.5789 -5.5187
  5464G12c H00J 1541   5.852   6.339   4.416  1.4198 -0.2695  1.0707
  5464G12c H00I 1542   5.760   6.235   4.548 -1.1522  2.9899 -0.0428
  5464G12c C01M 1543   5.713   5.934   4.259  0.9935 -0.3787  1.3776
  5464G12c C020 1544   5.689   5.467   4.089  0.3109  0.1282  1.6619
  5464G12c C021 1545   5.619   5.527   3.973 -0.3042 -0.6749 -0.0048
  5464G12c C01L 1546   5.705   5.802   4.286  1.0359 -0.5172  2.0883
  5464G12c O007 1547   5.728   5.980   4.133  1.1542 -0.3246 -0.1030
  5464G12c C022 1548   5.616   5.667   3.954 -0.0175  1.2320 -2.2367
  5464G12c C023 1549   5.649   5.483   3.846 -0.5064  0.1536  0.5745
  5464G12c C00G 1550   5.835   5.473   3.632  0.3674 -0.8655  2.3363
  5464G12c C00E 1551   5.932   5.586   3.431  0.2423  1.0097  0.6896
  5464G12c O00A 1552   6.028   5.620   3.337  0.7528 -0.1176 -0.4811
  5464G12c C024 1553   6.150   5.685   3.379 -0.6207  0.2842 -1.5815
  5464G12c H00V 1554   6.138   5.789   3.350  0.9554 -0.0179 -3.4637
  5464G12c H00U 1555   6.231   5.660   3.310  3.9781 -1.2062  4.0403
  5464G12c H00T 1556   6.181   5.690   3.483 -4.2626  5.9204 -0.5653
  5474G12c C00D 1557   5.106   0.230   7.854  0.1699  0.4271  0.9265
  5474G12c O00B 1558   5.198   0.118   7.806 -0.0092 -0.5298 -0.1738
  5474G12c C025 1559   5.312   0.111   7.901  1.2390 -2.4089  0.7227
  5474G12c C026 1560   5.435   0.119   7.825 -0.6895 -0.9443 -0.7460
  5474G12c H00Y 1561   5.512   0.176   7.877 -0.8172 -0.4755 -1.0787
  5474G12c H00X 1562   5.421   0.186   7.741  0.3816 -3.2310 -2.8131
  5474G12c O00C 1563   5.492  -0.009   7.783 -0.2967  0.3011  0.5827
  5474G12c H00W 1564   5.585   0.003   7.771 -0.2011  0.7542  1.6908
  5474G12c C027 1565   5.293   0.098   8.041  0.3510  0.4291  1.8455
  5474G12c O00D 1566   5.161   0.080   8.085 -0.1025 -0.9775  0.0135
  5474G12c H00Z 1567   5.125   0.070   7.998 -3.6928 -5.2895  1.7772
  5474G12c C028 1568   5.397   0.144   8.129  0.6583 -0.4465  1.5583
  5474G12c C029 1569   5.518   0.070   8.140 -0.0670 -0.8131 -0.0872
  5474G12c H010 1570   5.539  -0.008   8.068  1.0212 -0.7191  0.1158
  5474G12c C02T 1571   5.603   0.089   8.250  0.3526 -1.2736  1.3440
  5474G12c H01O 1572   5.709   0.071   8.262  0.5813  0.0912  1.5628
  5474G12c C02S 1573   5.565   0.213   8.327 -0.4836  1.6557  0.1913
  5474G12c O00J 1574   5.637   0.266   8.424  0.6403 -0.3012  0.5624
  5474G12c H01P 1575   5.560   0.295   8.470 -0.1668 -3.7594  1.5123
  5474G12c C02R 1576   5.450   0.306   8.306  1.2232 -0.4275  1.5039
  5474G12c O00I 1577   5.419   0.411   8.400 -2.8279  0.4965 -0.4876
  5474G12c C02Q 1578   5.294   0.469   8.412  0.3938 -0.4509  1.1499
  5474G12c H01N 1579   5.324   0.527   8.500 -8.1368  3.8316  1.8224
  5474G12c H01R 1580   5.225   0.385   8.404  1.6894 -1.3609 -0.5232
  5474G12c H01Q 1581   5.275   0.535   8.328  1.6511 -5.0449 -2.9314
  5474G12c C02A 1582   5.369   0.254   8.216 -0.0643 -0.3700 -0.1562
  5474G12c H011 1583   5.273   0.303   8.203  0.7933  3.3266  5.4090
  5474G12c C00C 1584   5.162   0.360   7.876  0.5845  0.1011  0.6732
  5474G12c H012 1585   5.254   0.384   7.826 -0.8445  5.5408  0.3252
  5474G12c C00B 1586   5.107   0.455   7.953  3.1618  0.2749  0.1485
  5474G12c C00A 1587   5.142   0.596   8.009 -0.2272 -0.9407 -0.6864
  5474G12c C009 1588   5.286   0.623   8.031  1.3245  0.3707  1.9087
  5474G12c C008 1589   5.401   0.557   8.004  0.7300  0.3836  1.8387
  5474G12c H013 1590   5.444   0.489   7.932  1.8958  1.6065  1.3564
  5474G12c C007 1591   5.502   0.588   8.085 -2.5584 -0.1372  0.3478
  5474G12c H014 1592   5.569   0.504   8.072  1.9274  3.1040  1.4176
  5474G12c C006 1593   5.503   0.683   8.191 -1.4388 -1.3683 -0.8541
  5474G12c C005 1594   5.387   0.745   8.204 -0.7396 -1.0415 -0.7918
  5474G12c C004 1595   5.370   0.792   8.344  1.4570  0.4223 -0.0485
  5474G12c C003 1596   5.244   0.810   8.394  0.7946  0.5959  1.9066
  5474G12c C002 1597   5.219   0.863   8.534  0.6912  0.6583  0.2776
  5474G12c C001 1598   5.108   0.837   8.622  0.5025  0.8861  0.0622
  5474G12c C00M 1599   5.031   0.711   8.607  0.6589 -1.6240 -2.3393
  5474G12c C00L 1600   4.940   0.723   8.496  1.1042  1.0295 -0.0752
  5474G12c C00R 1601   4.853   0.613   8.485 -0.3995 -0.2692 -1.5290
  5474G12c C00Q 1602   4.800   0.508   8.566 -0.7200  0.1661  1.7653
  5474G12c C00V 1603   4.703   0.420   8.506  0.0855  1.1243 -1.3068
  5474G12c C00U 1604   4.668   0.432   8.373 -1.6082 -1.3937  2.4089
  5474G12c C00T 1605   4.741   0.519   8.283  1.8326  1.1188 -0.2104
  5474G12c C016 1606   4.788   0.472   8.163 -1.8568  0.7652 -0.0864
  5474G12c C015 1607   4.711   0.379   8.099  0.6654  0.9602 -0.2118
  5474G12c C010 1608   4.596   0.331   8.159  0.3123 -0.1962 -2.2892
  5474G12c C011 1609   4.515   0.234   8.098  1.0245  0.4995 -0.5512
  5474G12c H005 1610   4.421   0.201   8.139  1.1585 -3.5431 -3.2215
  5474G12c C012 1611   4.546   0.190   7.966 -1.2991 -0.4255  0.7437
  5474G12c C017 1612   4.463   0.103   7.869  0.5735 -0.0303  0.5467
  5474G12c O002 1613   4.550   0.022   7.805 -0.4906  0.0399  1.5329
  5474G12c H004 1614   4.640   0.043   7.820  0.6210 -3.9524  1.1633
  5474G12c C018 1615   4.334   0.125   7.841 -1.7514  2.1285  1.6088
  5474G12c O001 1616   4.283   0.261   7.881 -0.5735 -0.8428 -1.5602
  5474G12c H003 1617   4.227   0.246   7.955 -0.6168  4.1859 -0.3808
  5474G12c C019 1618   4.263   0.026   7.747  1.4230 -0.8367 -1.6707
  5474G12c H002 1619   4.247   0.084   7.656  0.8081  2.2867  0.3409
  5474G12c H001 1620   4.259  -0.083   7.744  3.2748 -0.9615 -0.6597
  5474G12c O000 1621   4.156  -0.017   7.830 -0.1084  0.0585 -0.0538
  5474G12c C01A 1622   4.175  -0.064   7.956 -0.5814 -0.4274 -0.0348
  5474G12c C02K 1623   4.146   0.022   8.073 -0.0328  0.6044  1.8174
  5474G12c O00G 1624   4.092   0.149   8.051 -0.8335  1.0127 -0.0010
  5474G12c C02M 1625   3.964   0.142   7.986  1.6156  1.3002 -0.1688
  5474G12c H01G 1626   3.956   0.128   7.878 -1.1298 -1.1522  0.3080
  5474G12c H01F 1627   3.956   0.247   8.014 -4.4278  1.0931 -0.4858
  5474G12c H01E 1628   3.938   0.054   8.043 -0.7342  2.7606  1.1087
  5474G12c C02J 1629   4.186  -0.024   8.197 -0.2738 -1.4499  1.8449
  5474G12c H01H 1630   4.149   0.025   8.286  0.7080 -3.6461  3.4981
  5474G12c C02I 1631   4.261  -0.140   8.208  0.6784  1.5033  1.1898
  5474G12c C02N 1632   4.313  -0.191   8.325 -1.6996 -3.0481  0.8062
  5474G12c H01M 1633   4.328  -0.295   8.350 -2.0488 -3.3845 -0.3389
  5474G12c C02O 1634   4.307  -0.123   8.443 -1.8973  1.0859 -0.1765
  5474G12c H01L 1635   4.230  -0.047   8.447 -2.2063  0.9019 -2.0180
  5474G12c C02P 1636   4.351  -0.168   8.578  0.2905  1.1050 -0.7344
  5474G12c H01K 1637   4.262  -0.228   8.601  1.5369  1.0745  4.5067
  5474G12c H01J 1638   4.441  -0.224   8.601 -1.8277 -1.7722  0.9629
  5474G12c O00H 1639   4.376  -0.073   8.692 -1.1524  0.6418 -0.9518
  5474G12c H01I 1640   4.359   0.010   8.650 -4.9061 -0.0714 -1.0255
  5474G12c C02H 1641   4.258  -0.226   8.108 -0.4859 -1.6057  0.7921
  5474G12c H01C 1642   4.260  -0.333   8.126 -0.2403 -1.3123  2.5307
  5474G12c C02L 1643   4.211  -0.199   7.980  0.4779  1.0543 -1.4098
  5474G12c H01D 1644   4.203  -0.266   7.895 -5.0704  4.8105 -4.1960
  5474G12c C013 1645   4.672   0.229   7.919  0.8375  1.2762 -0.3746
  5474G12c H000 1646   4.700   0.183   7.825 -0.8679 -2.0629  0.6716
  5474G12c C014 1647   4.762   0.310   7.989 -1.9741 -1.9999 -0.5022
  5474G12c C00F 1648   4.899   0.324   7.956 -0.4752 -0.4696  0.2222
  5474G12c C00H 1649   4.898   0.520   8.096 -0.2728 -0.8069 -1.2386
  5474G12c C00I 1650   4.956   0.638   8.155  0.4531 -1.1068 -1.1388
  5474G12c C00J 1651   4.891   0.696   8.271 -1.2675 -1.7010  3.4487
  5474G12c C00Z 1652   4.588   0.342   8.310  1.7555  0.0775 -1.6864
  5474G12c C00Y 1653   4.497   0.269   8.382  2.0780  0.2508  2.2382
  5474G12c H006 1654   4.430   0.212   8.320  0.6276 -1.6406  5.4406
  5474G12c C00X 1655   4.506   0.275   8.516 -0.7702 -0.4350  1.6722
  5474G12c O003 1656   4.412   0.207   8.590 -0.3046  1.7855 -0.4683
  5474G12c C01B 1657   4.340   0.271   8.709  1.2602 -0.7053  0.9722
  5474G12c H009 1658   4.410   0.270   8.793  1.9408  3.0063  0.5199
  5474G12c H008 1659   4.247   0.216   8.723 -2.8492  2.8588 -8.0334
  5474G12c H007 1660   4.324   0.372   8.671  4.0579 -1.0826 -1.4381
  5474G12c C00W 1661   4.615   0.340   8.584 -0.7536  1.6549 -1.2081
  5474G12c O004 1662   4.665   0.293   8.704  0.5843  0.6255  0.8622
  5474G12c C01C 1663   4.739   0.386   8.770 -0.6880 -0.1803 -0.6293
  5474G12c H00A 1664   4.685   0.423   8.856 -0.7731  2.9291 -1.9434
  5474G12c C00P 1665   4.826   0.486   8.708  1.2760 -0.0480  0.4819
  5474G12c C00O 1666   4.929   0.545   8.785 -0.5018  1.0898 -0.5720
  5474G12c C01D 1667   4.991   0.482   8.890  1.3014 -1.5737 -1.5956
  5474G12c H00S 1668   4.942   0.403   8.944 -2.6227  2.9194  1.7776
  5474G12c C01E 1669   5.124   0.518   8.941  0.1432  0.1953  0.3034
  5474G12c O008 1670   5.193   0.470   9.053  1.5774 -1.8634  0.4545
  5474G12c C01V 1671   5.137   0.522   9.164  3.1651  2.1919 -0.4740
  5474G12c C01Z 1672   5.030   0.437   9.222 -0.1997 -0.6616  0.7134
  5474G12c H00R 1673   4.925   0.461   9.204  0.5240  2.2224  0.1086
  5474G12c H00Q 1674   5.047   0.342   9.172 -1.5548 -0.3933 -0.2909
  5474G12c O009 1675   5.052   0.432   9.347  0.3222 -0.3545  0.1354
  5474G12c H00P 1676   5.135   0.469   9.370 -3.5003  7.2642  3.5122
  5474G12c C01W 1677   5.174   0.638   9.213 -1.5111  1.2935  0.3296
  5474G12c H00O 1678   5.246   0.696   9.158  2.3656 -3.3448  0.1402
  5474G12c C01X 1679   5.159   0.715   9.347 -0.3389  2.2918 -1.2755
  5474G12c H00N 1680   5.151   0.647   9.432 -2.1340  0.7712 -2.6101
  5474G12c H00M 1681   5.247   0.778   9.339 -0.8361  2.6796 -4.6027
  5474G12c C01Y 1682   5.021   0.780   9.327  0.3092 -0.5364  1.5781
  5474G12c C02D 1683   5.018   0.869   9.217  0.3859  1.0594  1.0201
  5474G12c H019 1684   5.101   0.899   9.153  2.1005 -1.1581  2.1251
  5474G12c C02C 1685   4.891   0.944   9.213  0.2294 -0.3168 -0.2225
  5474G12c H01A 1686   4.874   1.020   9.139 -1.5101  0.1661  0.6565
  5474G12c C02B 1687   4.785   0.909   9.293 -0.9194 -0.1423  0.1310
  5474G12c O00E 1688   4.664   0.979   9.262  0.1314  0.1426  0.5183
  5474G12c H01B 1689   4.609   0.973   9.339  0.5345 -2.0614  0.6602
  5474G12c C02F 1690   4.792   0.800   9.387 -0.4417 -0.7867 -0.0484
  5474G12c O00F 1691   4.680   0.757   9.451 -0.6568 -0.3117 -1.3182
  5474G12c C02G 1692   4.573   0.721   9.358  1.4834  0.0736 -1.0960
  5474G12c H017 1693   4.525   0.795   9.295  2.7494  2.6335  0.8456
  5474G12c H016 1694   4.482   0.713   9.418  0.6491  2.9363 -1.9500
  5474G12c H015 1695   4.612   0.641   9.295 -0.5335 -0.6461 -1.4598
  5474G12c C02E 1696   4.910   0.749   9.409  0.7545 -1.0008 -1.1085
  5474G12c H018 1697   4.914   0.701   9.506  2.1938  2.4234  0.6085
  5474G12c C01F 1698   5.189   0.616   8.876 -0.2307 -2.0692  0.2979
  5474G12c C01G 1699   5.325   0.659   8.903 -1.7513  0.2696 -0.1225
  5474G12c H00L 1700   5.373   0.602   8.982 -3.4854  0.5557  1.1586
  5474G12c C01H 1701   5.386   0.782   8.854  2.1623  1.2970 -0.1675
  5474G12c H00B 1702   5.494   0.789   8.851  2.2970  0.4259  1.8126
  5474G12c C01I 1703   5.307   0.842   8.754 -0.5360 -0.1735  1.0298
  5474G12c C01U 1704   5.118   0.712   8.804  0.9029 -0.7608  0.1977
  5474G12c C00S 1705   4.810   0.612   8.345 -1.5534 -0.0151 -0.2204
  5474G12c C00K 1706   4.987   0.756   8.367  0.6524  0.3661  0.7296
  5474G12c C00N 1707   5.017   0.648   8.736  1.9391  1.3097 -0.1961
  5474G12c C000 1708   5.167   0.829   8.760  0.9630  0.5980  0.4149
  5474G12c C01J 1709   5.338   0.891   8.620 -2.1431  1.0855  1.2591
  5474G12c C01K 1710   5.475   0.873   8.567  0.5526 -2.1469  0.6648
  5474G12c C01P 1711   5.611   0.917   8.620 -0.4518 -0.5136  0.1996
  5474G12c C01Q 1712   5.606   1.018   8.729  1.8572 -0.5263  0.3248
  5474G12c H00G 1713   5.557   1.112   8.711 -5.7485 -3.9986  0.8700
  5474G12c C01R 1714   5.684   1.035   8.831 -0.1344 -2.0862  0.2873
  5474G12c H00F 1715   5.758   0.956   8.827 -3.1187 -5.1616  3.1324
  5474G12c C01S 1716   5.728   1.169   8.895 -1.0531  0.9646 -1.6978
  5474G12c H00E 1717   5.810   1.220   8.844 -1.5590 -1.1152 -4.7540
  5474G12c H00D 1718   5.632   1.217   8.914 -0.9021 -1.0435  5.3400
  5474G12c O005 1719   5.796   1.175   9.024  0.4752  1.4685  1.2707
  5474G12c H00C 1720   5.774   1.257   9.066  1.9941  1.0036  3.0389
  5474G12c C01O 1721   5.718   0.840   8.581 -1.6175 -0.1343 -1.6527
  5474G12c H00H 1722   5.800   0.836   8.651 -2.8752 -0.1677 -0.1451
  5474G12c C01N 1723   5.718   0.769   8.462 -0.8379 -0.0715 -0.4921
  5474G12c O006 1724   5.805   0.666   8.449 -0.1147 -1.0239 -0.5293
  5474G12c C01T 1725   5.926   0.643   8.504  0.0747  1.0554  0.0646
  5474G12c H00K 1726   5.994   0.707   8.447 -4.1477  1.9114 -4.3054
  5474G12c H00J 1727   5.958   0.540   8.488 -6.5985 -1.9078  3.8571
  5474G12c H00I 1728   5.919   0.647   8.613 -2.4963  0.2894 -0.0579
  5474G12c C01M 1729   5.597   0.768   8.381 -0.4389 -0.8622  0.1643
  5474G12c C020 1730   5.124   0.786   8.307 -1.1092 -0.1832 -1.5991
  5474G12c C021 1731   5.158   0.774   8.171 -1.0032  1.4787  0.8875
  5474G12c C01L 1732   5.476   0.818   8.443 -0.1751  0.7683  0.9009
  5474G12c O007 1733   5.598   0.675   8.284  0.7827 -0.6805  0.6468
  5474G12c C022 1734   5.270   0.740   8.123 -1.0539  0.2749 -0.6799
  5474G12c C023 1735   5.068   0.684   8.100  0.5572  1.6233 -0.6624
  5474G12c C00G 1736   4.970   0.434   8.004 -0.1649 -0.2479  0.9433
  5474G12c C00E 1737   4.967   0.220   7.871  0.7381  0.6632 -1.3065
  5474G12c O00A 1738   4.923   0.101   7.842 -0.8447 -0.8739 -0.9778
  5474G12c C024 1739   4.893   0.077   7.717 -0.9612  0.4022  0.7116
  5474G12c H00V 1740   4.792   0.043   7.693  0.6189 -4.2969  0.1242
  5474G12c H00U 1741   4.910   0.169   7.662  0.0561 -0.9570 -1.3223
  5474G12c H00T 1742   4.950   0.013   7.650  2.6818  0.6622  3.4005
  5484G12c C00D 1743   5.107   8.973   4.353  0.5616  0.4378  1.8699
  5484G12c O00B 1744   5.084   8.894   4.462 -0.7464  0.3841  1.4692
  5484G12c C025 1745   5.017   8.780   4.474  0.6923  2.6098 -0.0414
  5484G12c C026 1746   5.103   8.663   4.524 -0.9370 -0.6475 -0.4025
  5484G12c H00Y 1747   5.047   8.571   4.544  1.9815 -2.6036 -0.9315
  5484G12c H00X 1748   5.126   8.667   4.630 -2.0700 -1.2501 -0.1159
  5484G12c O00C 1749   5.204   8.622   4.433 -0.2864 -0.0654 -0.5525
  5484G12c H00W 1750   5.180   8.660   4.351 -0.2686  1.7463  0.2601
  5484G12c C027 1751   4.896   8.761   4.403  1.4024 -1.1250 -0.6948
  5484G12c O00D 1752   4.828   8.647   4.427  0.5293  0.3121 -0.7692
  5484G12c H00Z 1753   4.899   8.585   4.439  1.6129  0.8913 -3.8056
  5484G12c C028 1754   4.830   8.882   4.349  0.5261  1.4427 -1.1414
  5484G12c C029 1755   4.758   8.948   4.461  1.2554 -0.5068 -0.2875
  5484G12c H010 1756   4.785   8.942   4.565 -0.7836  0.2174  0.3065
  5484G12c C02T 1757   4.683   9.060   4.398 -1.4430  1.7086 -0.3900
  5484G12c H01O 1758   4.612   9.122   4.451 -0.8112 -1.1155  4.0957
  5484G12c C02S 1759   4.668   9.092   4.265 -1.5029 -1.3974  0.2408
  5484G12c O00J 1760   4.593   9.192   4.209 -0.7005 -1.7236  0.1946
  5484G12c H01P 1761   4.565   9.165   4.123 -0.0187 -5.1918  0.9781
  5484G12c C02R 1762   4.708   8.993   4.168  0.6721  0.1700  0.0114
  5484G12c O00I 1763   4.664   9.024   4.025  0.1069  1.0832 -1.6409
  5484G12c C02Q 1764   4.736   8.957   3.935 -2.3425 -0.6464  0.7172
  5484G12c H01N 1765   4.676   8.927   3.849 -1.0407  2.8224 -1.5598
  5484G12c H01R 1766   4.767   9.062   3.939  1.0757 -1.6727  3.9497
  5484G12c H01Q 1767   4.828   8.915   3.975 -1.1302  1.3451  0.0899
  5484G12c C02A 1768   4.770   8.877   4.225  0.3895 -0.1593 -0.1356
  5484G12c H011 1769   4.814   8.809   4.154  0.7535 -1.2673  1.1263
  5484G12c C00C 1770   5.085   9.107   4.374 -2.6265 -0.4612  0.7482
  5484G12c H012 1771   5.062   9.130   4.477 -0.9343 -0.1394  1.0702
  5484G12c C00B 1772   5.125   9.200   4.281  0.8090  0.1099 -0.0156
  5484G12c C00A 1773   5.131   9.336   4.296 -0.6259 -0.7068 -1.5228
  5484G12c C009 1774   5.026   9.416   4.331  0.8241 -1.4030  0.9373
  5484G12c C008 1775   4.901   9.374   4.377 -0.4396 -0.9834 -1.0426
  5484G12c H013 1776   4.862   9.282   4.419 -5.2313  3.3999  4.9417
  5484G12c C007 1777   4.808   9.467   4.360  1.1652 -0.7515  0.9800
  5484G12c H014 1778   4.722   9.417   4.403  3.4612  0.2478  7.3493
  5484G12c C006 1779   4.806   9.592   4.305 -0.7783  0.2854  1.1266
  5484G12c C005 1780   4.940   9.622   4.257  0.4111 -0.7418  0.7757
  5484G12c C004 1781   4.953   9.742   4.180  0.7893 -0.4114  1.4198
  5484G12c C003 1782   5.059   9.741   4.101 -0.2291 -0.8349  1.1998
  5484G12c C002 1783   5.064   9.852   4.004  0.6373 -1.1084 -0.4677
  5484G12c C001 1784   5.137   9.881   3.898 -0.1748 -1.0716  0.7294
  5484G12c C00M 1785   5.157   9.778   3.787 -1.6634  0.2891 -0.0776
  5484G12c C00L 1786   5.177   9.639   3.835 -1.6310  2.2559  2.0787
  5484G12c C00R 1787   5.177   9.526   3.760  0.3158 -0.9506 -0.6940
  5484G12c C00Q 1788   5.128   9.506   3.618 -0.2664 -0.8578  0.1603
  5484G12c C00V 1789   5.130   9.364   3.586  1.2994 -0.2038 -1.7413
  5484G12c C00U 1790   5.167   9.259   3.670  1.3523  0.9900 -0.5270
  5484G12c C00T 1791   5.203   9.287   3.801 -1.0828 -0.0174 -0.8369
  5484G12c C016 1792   5.199   9.198   3.912  0.2006  1.6960  0.3955
  5484G12c C015 1793   5.186   9.057   3.876  1.1333 -0.3915  0.0591
  5484G12c C010 1794   5.165   9.029   3.747 -0.2790  0.1838  0.5496
  5484G12c C011 1795   5.173   8.873   3.725  1.2084  0.7013  0.2428
  5484G12c H005 1796   5.183   8.850   3.620  0.2694  4.7678 -0.8147
  5484G12c C012 1797   5.169   8.768   3.825 -0.1961 -0.8330  0.9607
  5484G12c C017 1798   5.170   8.623   3.814  0.1631 -0.5169 -1.5385
  5484G12c O002 1799   5.077   8.574   3.899 -1.1148 -1.0339  0.1635
  5484G12c H004 1800   4.994   8.618   3.896 -0.3912  0.6693 -9.0676
  5484G12c C018 1801   5.242   8.535   3.738 -0.4297 -1.2641  2.8198
  5484G12c O001 1802   5.352   8.599   3.656 -0.3728 -0.7691  1.7970
  5484G12c H003 1803   5.409   8.544   3.605 -0.8703  0.6423 -0.3761
  5484G12c C019 1804   5.223   8.381   3.686 -0.7610 -1.4701  0.0878
  5484G12c H002 1805   5.219   8.335   3.784 -2.8952  1.6132  1.5483
  5484G12c H001 1806   5.132   8.364   3.628  0.8677 -4.7698 -1.6028
  5484G12c O000 1807   5.335   8.348   3.612  0.2700  1.5785 -0.0737
  5484G12c C01A 1808   5.445   8.287   3.647 -0.0312 -0.3678 -2.1792
  5484G12c C02K 1809   5.497   8.198   3.540  1.3003 -0.0917 -0.1170
  5484G12c O00G 1810   5.432   8.184   3.420 -0.6604  0.6152  0.7679
  5484G12c C02M 1811   5.505   8.146   3.296 -0.3016 -1.8076 -1.5821
  5484G12c H01G 1812   5.434   8.170   3.217 -1.2057  2.3898  0.3697
  5484G12c H01F 1813   5.519   8.039   3.315  0.0683 -0.8572  4.6971
  5484G12c H01E 1814   5.593   8.207   3.283 -3.4604  3.3545 -0.1502
  5484G12c C02J 1815   5.606   8.132   3.591 -0.9774 -0.0076  0.2681
  5484G12c H01H 1816   5.640   8.061   3.518  4.9576  7.5982 -5.2356
  5484G12c C02I 1817   5.665   8.140   3.724 -0.6963 -0.0420  0.9648
  5484G12c C02N 1818   5.781   8.067   3.744  0.4849  1.0674  0.7227
  5484G12c H01M 1819   5.763   7.987   3.673  3.4269  6.1051 -6.3031
  5484G12c C02O 1820   5.888   8.091   3.844  2.2384 -1.2690  0.7637
  5484G12c H01L 1821   5.895   8.193   3.878  5.1193 -2.7077  4.9168
  5484G12c C02P 1822   6.013   8.016   3.859  0.5646 -1.3453 -1.6110
  5484G12c H01K 1823   6.092   8.047   3.927 -2.7851 -5.6266  4.7022
  5484G12c H01J 1824   5.995   7.946   3.940  7.9654 -4.1943 -2.0920
  5484G12c O00H 1825   6.045   7.961   3.739 -0.0450 -0.2407  0.2300
  5484G12c H01I 1826   5.980   7.969   3.672 -4.2095  1.6674  4.1951
  5484G12c C02H 1827   5.604   8.210   3.825  1.4717  0.0651 -1.4165
  5484G12c H01C 1828   5.641   8.198   3.925  0.3620  8.0174  0.2918
  5484G12c C02L 1829   5.509   8.297   3.782 -0.0083  0.5932 -0.7546
  5484G12c H01D 1830   5.451   8.356   3.852 -2.3849  5.2849 -6.2577
  5484G12c C013 1831   5.162   8.838   3.946  0.3862  1.1267  1.1042
  5484G12c H000 1832   5.153   8.771   4.030  1.5974 -3.9257 -2.6053
  5484G12c C014 1833   5.161   8.968   3.981 -1.8169 -1.2974 -0.7272
  5484G12c C00F 1834   5.151   9.024   4.114  0.8336  0.9652  0.6346
  5484G12c C00H 1835   5.189   9.241   4.043  0.6508  0.9002  1.5066
  5484G12c C00I 1836   5.223   9.375   4.074 -1.2873 -0.1598 -0.0421
  5484G12c C00J 1837   5.249   9.472   3.972  1.2801 -0.5210 -0.2533
  5484G12c C00Z 1838   5.159   9.128   3.638 -0.4229 -0.2328  1.5534
  5484G12c C00Y 1839   5.110   9.106   3.514 -0.1320  0.2525  0.5049
  5484G12c H006 1840   5.099   9.000   3.500  5.1981 -1.1206  4.8190
  5484G12c C00X 1841   5.050   9.189   3.429 -1.3420 -1.9685  0.0490
  5484G12c O003 1842   4.977   9.131   3.336 -1.7621  0.2721  0.2042
  5484G12c C01B 1843   5.036   9.101   3.214  0.4451 -1.7638 -1.7352
  5484G12c H009 1844   5.139   9.070   3.233  0.4635 -0.1751  0.9880
  5484G12c H008 1845   5.059   9.181   3.144 -2.6269 -1.1678 -2.1487
  5484G12c H007 1846   4.955   9.068   3.148 -5.5166 -3.8656  5.9104
  5484G12c C00W 1847   5.072   9.327   3.463  0.8276 -0.2684  0.4715
  5484G12c O004 1848   5.017   9.416   3.377  0.4915 -1.8356 -0.8989
  5484G12c C01C 1849   5.036   9.541   3.403 -0.4772 -0.2359  0.2803
  5484G12c H00A 1850   4.967   9.604   3.350-10.2172 -7.8133  2.5283
  5484G12c C00P 1851   5.051   9.591   3.528 -1.6324  1.5413 -1.1105
  5484G12c C00O 1852   5.005   9.726   3.571 -1.6472 -0.6170  0.8354
  5484G12c C01D 1853   4.876   9.770   3.513  0.4224 -1.3298  1.5024
  5484G12c H00S 1854   4.816   9.719   3.439  5.7619  0.7932 -4.7288
  5484G12c C01E 1855   4.838   9.909   3.542 -0.5058  0.7149 -0.7373
  5484G12c O008 1856   4.767   9.946   3.435 -1.0054 -0.5070  0.8247
  5484G12c C01V 1857   4.817  10.062   3.392  0.1906 -0.0512 -0.4448
  5484G12c C01Z 1858   4.711  10.182   3.394  0.4830 -0.4081  2.6561
  5484G12c H00R 1859   4.655  10.168   3.487 -1.9158 -1.9404  1.0287
  5484G12c H00Q 1860   4.695  10.232   3.299 -0.2791 -1.6396  2.1208
  5484G12c O009 1861   4.771  10.291   3.450  0.8840  0.1364  0.6961
  5484G12c H00P 1862   4.798  10.306   3.361 -1.1069 -3.3745 -0.6041
  5484G12c C01W 1863   4.950  10.096   3.345  0.3653  0.3639  0.0811
  5484G12c H00O 1864   4.988  10.187   3.302  1.9724 -0.0094  0.6980
  5484G12c C01X 1865   5.089  10.003   3.331 -1.0323 -1.5707 -1.3755
  5484G12c H00N 1866   5.160  10.073   3.375 -3.3990 -2.0185  3.4494
  5484G12c H00M 1867   5.099   9.940   3.420  2.3511  2.4528  1.3026
  5484G12c C01Y 1868   5.117   9.943   3.190 -0.6679  0.5800  1.8497
  5484G12c C02D 1869   5.197   9.834   3.216  0.9306  0.2807  0.4374
  5484G12c H019 1870   5.203   9.793   3.316  1.7743 -0.1954  0.2046
  5484G12c C02C 1871   5.266   9.779   3.112  0.4494  1.6804 -0.8489
  5484G12c H01A 1872   5.323   9.687   3.114 -1.3176  0.5863  1.3391
  5484G12c C02B 1873   5.275   9.862   3.002 -1.1920  1.1124  1.3226
  5484G12c O00E 1874   5.345   9.825   2.898  0.9011 -1.2065  0.4175
  5484G12c H01B 1875   5.292   9.750   2.877  2.8723 -1.0126 -6.4710
  5484G12c C02F 1876   5.213   9.986   2.990  0.2059  0.1635 -0.5264
  5484G12c O00F 1877   5.191  10.048   2.871 -1.2006  0.0755  0.7340
  5484G12c C02G 1878   5.294  10.089   2.793 -1.5259 -2.3493  1.4558
  5484G12c H017 1879   5.297  10.195   2.819 -4.6243 -0.9003 -3.4129
  5484G12c H016 1880   5.398  10.063   2.814  0.0905  2.0973 -0.5146
  5484G12c H015 1881   5.261  10.112   2.692 -5.5120 -2.7187  2.5957
  5484G12c C02E 1882   5.129  10.029   3.086 -0.9640  0.4234  0.3305
  5484G12c H018 1883   5.055  10.108   3.094  2.0492  3.6251 -1.8051
  5484G12c C01F 1884   4.895   9.982   3.648 -1.0638 -0.6755 -0.3520
  5484G12c C01G 1885   4.826  10.087   3.716 -0.1617 -0.2432 -0.0957
  5484G12c H00L 1886   4.742  10.135   3.668  0.5772  1.5583  0.3984
  5484G12c C01H 1887   4.855  10.109   3.852 -0.7225 -0.3209  0.2088
  5484G12c H00B 1888   4.788  10.178   3.902  1.5479  1.9026  0.2848
  5484G12c C01I 1889   4.967  10.046   3.918 -0.9222  1.2525  1.1326
  5484G12c C01U 1890   5.007   9.936   3.724 -0.1609  0.3287 -0.5266
  5484G12c C00S 1891   5.227   9.423   3.842  1.1962  1.3041 -0.2915
  5484G12c C00K 1892   5.226   9.609   3.976 -0.1021  0.5117 -0.5181
  5484G12c C00N 1893   5.062   9.805   3.688 -0.1919  0.0355  1.6420
  5484G12c C000 1894   5.069   9.989   3.843  0.2543  0.8979 -2.7418
  5484G12c C01J 1895   4.964   9.959   4.030 -1.4186 -0.7242  0.9883
  5484G12c C01K 1896   4.870   9.958   4.142 -0.8265  0.1779 -1.3836
  5484G12c C01P 1897   4.801  10.064   4.201  0.6402  0.2381 -1.2096
  5484G12c C01Q 1898   4.802  10.200   4.158  0.6085 -0.4715 -0.1431
  5484G12c H00G 1899   4.715  10.225   4.098  2.0650  1.9361 -1.3483
  5484G12c C01R 1900   4.903  10.268   4.222  0.4304 -0.2912 -1.1369
  5484G12c H00F 1901   4.911  10.375   4.209  0.7333 -0.5874 -3.5881
  5484G12c C01S 1902   5.013  10.226   4.304 -1.4032  0.3308  2.2995
  5484G12c H00E 1903   5.075  10.137   4.305 -7.5357 -4.6083 -3.2782
  5484G12c H00D 1904   5.085  10.302   4.274  1.4813 -3.1460 -0.0313
  5484G12c O005 1905   4.964  10.212   4.429 -2.3582 -0.4554  0.5901
  5484G12c H00C 1906   4.896  10.147   4.415  0.9682 -3.7942 -1.0186
  5484G12c C01O 1907   4.676  10.037   4.264  1.3692  0.9264 -0.7918
  5484G12c H00H 1908   4.607  10.120   4.260 -4.1260 -3.1673  1.5402
  5484G12c C01N 1909   4.632   9.899   4.298  0.3898 -0.5889 -2.1387
  5484G12c O006 1910   4.510   9.881   4.328 -0.7165 -0.0173 -0.1110
  5484G12c C01T 1911   4.420   9.972   4.377 -1.2515  1.0271  1.3337
  5484G12c H00K 1912   4.458  10.073   4.392 -1.1915  1.0783  0.8486
  5484G12c H00J 1913   4.362   9.961   4.469 -2.9155  1.8693  0.4125
  5484G12c H00I 1914   4.343  10.001   4.306  1.1602 -0.3446 -1.9960
  5484G12c C01M 1915   4.723   9.802   4.257 -0.5601 -2.6477 -0.3933
  5484G12c C020 1916   5.164   9.638   4.092  1.2710 -1.6847 -1.5508
  5484G12c C021 1917   5.168   9.544   4.207  0.1008  1.0722 -0.8475
  5484G12c C01L 1918   4.849   9.837   4.195 -1.0074 -0.9142  2.3803
  5484G12c O007 1919   4.692   9.673   4.292 -0.3043 -1.1511 -1.3900
  5484G12c C022 1920   5.049   9.553   4.289  0.4341 -1.3934 -1.5171
  5484G12c C023 1921   5.217   9.409   4.215 -1.0009 -0.1958 -0.5271
  5484G12c C00G 1922   5.154   9.157   4.144  0.5652  1.0525 -0.5428
  5484G12c C00E 1923   5.133   8.926   4.224 -0.5507 -0.0409 -0.1291
  5484G12c O00A 1924   5.193   8.802   4.233 -0.3807  0.7598 -0.6252
  5484G12c C024 1925   5.335   8.788   4.215  1.6894  1.2148 -0.2306
  5484G12c H00V 1926   5.363   8.740   4.308 -0.8049 -0.2767 -0.2174
  5484G12c H00U 1927   5.381   8.887   4.206 -5.3917  4.8004 -0.8190
  5484G12c H00T 1928   5.376   8.747   4.123  3.4758  2.0735  0.1482
  5494G12c C00D 1929   7.248   9.712  10.093 -0.4331 -2.1176 -0.5636
  5494G12c O00B 1930   7.138   9.766  10.133  1.2539 -0.0094  0.0036
  5494G12c C025 1931   7.071   9.871  10.068 -0.1442 -1.1062  0.9231
  5494G12c C026 1932   7.010   9.954  10.188  0.6232 -1.5456 -0.6202
  5494G12c H00Y 1933   6.954  10.045  10.167 -1.2155 -2.6803 -0.7526
  5494G12c H00X 1934   7.105  10.000  10.214 -1.5754  2.0382  1.4365
  5494G12c O00C 1935   6.952   9.885  10.293 -1.1325  0.5974  0.3171
  5494G12c H00W 1936   6.936   9.796  10.264  2.0896 -0.2372  0.8728
  5494G12c C027 1937   7.054   9.873   9.942  0.8935  0.1962 -2.0901
  5494G12c O00D 1938   7.093   9.768   9.858  0.1398  0.2679 -1.9583
  5494G12c H00Z 1939   7.046   9.780   9.777 -7.7051  0.2863  2.0881
  5494G12c C028 1940   7.015   9.989   9.874 -0.3285  1.9108  0.0522
  5494G12c C029 1941   7.097  10.104   9.866  0.1565  1.0929 -0.8439
  5494G12c H010 1942   7.200  10.104   9.901  0.2844  4.1245 -1.1512
  5494G12c C02T 1943   7.048  10.227   9.843 -1.5187  0.7122 -0.9409
  5494G12c H01O 1944   7.120  10.305   9.860 -1.0430 -0.4522  2.8097
  5494G12c C02S 1945   6.911  10.244   9.820 -1.2323 -1.5149  1.7804
  5494G12c O00J 1946   6.860  10.360   9.793  1.0100 -1.2371  0.3846
  5494G12c H01P 1947   6.766  10.362   9.790  1.0748 -0.7424 -2.2413
  5494G12c C02R 1948   6.816  10.134   9.824  0.6560 -2.0284 -0.9390
  5494G12c O00I 1949   6.677  10.164   9.833 -0.7052  0.2136 -0.3973
  5494G12c C02Q 1950   6.569  10.085   9.763 -0.2005 -0.6269 -1.2333
  5494G12c H01N 1951   6.545  10.162   9.689  0.8901 -0.6891 -1.6543
  5494G12c H01R 1952   6.502  10.062   9.845  1.5912  1.3727  0.8625
  5494G12c H01Q 1953   6.626  10.011   9.708  2.0745 -0.5746  0.9864
  5494G12c C02A 1954   6.869  10.005   9.842 -0.9214  0.1425 -0.1057
  5494G12c H011 1955   6.787   9.934   9.838 -0.7915  0.0575 -6.4568
  5494G12c C00C 1956   7.252   9.580  10.029 -0.7219 -0.3596  0.1772
  5494G12c H012 1957   7.161   9.521  10.033 -0.1002 -1.7112 -3.5400
  5494G12c C00B 1958   7.359   9.566   9.948 -1.4347  0.7617  2.0329
  5494G12c C00A 1959   7.394   9.447   9.866 -0.1819 -1.4648 -0.7364
  5494G12c C009 1960   7.414   9.309   9.910  0.9006  1.4311 -1.8586
  5494G12c C008 1961   7.378   9.249  10.028  0.6886  0.4991  1.6255
  5494G12c H013 1962   7.344   9.308  10.113 -1.2682  1.8909 -0.0726
  5494G12c C007 1963   7.390   9.102  10.022  0.5469  2.7981 -0.1708
  5494G12c H014 1964   7.355   9.078  10.122  1.2339  1.1720 -0.3122
  5494G12c C006 1965   7.480   9.039   9.946 -1.4831 -0.4814  1.7663
  5494G12c C005 1966   7.512   9.109   9.822  0.7872  0.2537  1.3881
  5494G12c C004 1967   7.622   9.073   9.738  0.0610 -0.2404  0.4210
  5494G12c C003 1968   7.691   9.162   9.647  0.5802 -1.5365  0.3568
  5494G12c C002 1969   7.825   9.132   9.570 -0.8965  0.4212 -1.0236
  5494G12c C001 1970   7.925   9.198   9.495  0.5537  0.6761  0.3540
  5494G12c C00M 1971   7.991   9.326   9.540  1.1812 -0.3207  0.7669
  5494G12c C00L 1972   7.905   9.410   9.603  1.4189 -0.3725  0.8073
  5494G12c C00R 1973   7.937   9.534   9.665 -1.7537  0.8104 -0.0240
  5494G12c C00Q 1974   8.062   9.565   9.711  1.3578 -1.0246 -1.4676
  5494G12c C00V 1975   8.066   9.701   9.758 -0.2237  0.4325  0.1190
  5494G12c C00U 1976   7.949   9.753   9.830  0.3698  0.2044  1.8328
  5494G12c C00T 1977   7.831   9.683   9.825  0.2579  0.6489 -1.2095
  5494G12c C016 1978   7.714   9.705   9.881 -0.2424  1.4786  0.6973
  5494G12c C015 1979   7.712   9.826   9.962 -0.3896 -0.7527  0.6601
  5494G12c C010 1980   7.826   9.900   9.963 -1.1252 -0.3600 -0.6582
  5494G12c C011 1981   7.814  10.023  10.018  1.0657 -0.3427 -0.5115
  5494G12c H005 1982   7.874  10.109   9.994  4.0884 -2.9528 -2.7884
  5494G12c C012 1983   7.693  10.068  10.076 -0.3560 -1.1610  1.8275
  5494G12c C017 1984   7.658  10.204  10.096 -0.5592  2.0817  0.6017
  5494G12c O002 1985   7.522  10.242  10.074  0.2081 -0.2270  0.3519
  5494G12c H004 1986   7.493  10.173  10.017 -0.7046 -2.3094  3.2190
  5494G12c C018 1987   7.744  10.298  10.129 -1.3401  1.2084  0.0560
  5494G12c O001 1988   7.716  10.421  10.108 -0.7484  1.0809  0.5094
  5494G12c H003 1989   7.791  10.474  10.130 -1.4002  4.3736 -4.3390
  5494G12c C019 1990   7.855  10.297  10.219 -0.0900  1.7998  0.4205
  5494G12c H002 1991   7.858  10.377  10.292  6.9310 -1.5418  4.3916
  5494G12c H001 1992   7.836  10.221  10.295  2.1711  0.7207 -0.0370
  5494G12c O000 1993   7.975  10.285  10.141  0.0224  0.1801  0.3326
  5494G12c C01A 1994   8.099  10.291  10.195 -0.2741  0.7277 -0.5759
  5494G12c C02K 1995   8.168  10.407  10.162 -1.6475 -0.0308  1.3711
  5494G12c O00G 1996   8.074  10.489  10.107  0.9556  0.4976 -1.1595
  5494G12c C02M 1997   8.064  10.619  10.067  1.3546 -1.0490 -1.4338
  5494G12c H01G 1998   8.064  10.650  10.172  4.3233 -4.1278 -0.4112
  5494G12c H01F 1999   7.979  10.603  10.001  4.7877 -2.4005 -5.7588
  5494G12c H01E 2000   8.141  10.676  10.015 -3.0326  4.5248 -2.2875
  5494G12c C02J 2001   8.298  10.437  10.201 -0.2380  0.4893  0.5331
  5494G12c H01H 2002   8.328  10.531  10.156  1.0546 -1.6318 -3.1750
  5494G12c C02I 2003   8.363  10.338  10.282  0.4038  0.4077 -1.2602
  5494G12c C02N 2004   8.497  10.388  10.319  0.6810 -0.1968 -0.4673
  5494G12c H01M 2005   8.574  10.432  10.257  1.0796  2.0007  1.4709
  5494G12c C02O 2006   8.491  10.377  10.467 -0.2711  0.5988  1.1818
  5494G12c H01L 2007   8.402  10.342  10.517  0.1778  1.6253  2.7711
  5494G12c C02P 2008   8.594  10.399  10.572  0.8728 -0.2761  1.0053
  5494G12c H01K 2009   8.680  10.399  10.505 -2.1461 -1.0409 -3.0256
  5494G12c H01J 2010   8.595  10.466  10.659 -0.5093  0.7287  0.2719
  5494G12c O00H 2011   8.620  10.281  10.640  0.5063 -0.8759  0.6451
  5494G12c H01I 2012   8.660  10.327  10.712  0.6230 -3.1835  2.1133
  5494G12c C02H 2013   8.302  10.223  10.318  1.0994 -0.4406  3.5147
  5494G12c H01C 2014   8.359  10.151  10.375  1.6734 -3.3577 -0.5686
  5494G12c C02L 2015   8.170  10.188  10.270 -1.6108  1.0333  0.1636
  5494G12c H01D 2016   8.136  10.085  10.269  3.7170 -0.9008 -0.0773
  5494G12c C013 2017   7.591   9.975  10.092 -0.1406 -0.8371 -1.1104
  5494G12c H000 2018   7.505  10.016  10.144  3.9145  5.5177  1.2185
  5494G12c C014 2019   7.590   9.851  10.027 -0.1883 -1.0055 -0.2279
  5494G12c C00F 2020   7.473   9.772  10.021  0.0408 -0.1301  0.6541
  5494G12c C00H 2021   7.599   9.632   9.861  1.4792  0.5270 -0.7149
  5494G12c C00I 2022   7.606   9.521   9.778  0.6136  1.0718 -0.7130
  5494G12c C00J 2023   7.717   9.520   9.695 -1.0623 -1.7418  0.3606
  5494G12c C00Z 2024   7.951   9.857   9.910 -0.8122 -0.3496 -0.2544
  5494G12c C00Y 2025   8.065   9.932   9.919  1.2796  0.9792 -0.3384
  5494G12c H006 2026   8.064  10.038   9.935  0.1788  0.6623  1.8470
  5494G12c C00X 2027   8.185   9.889   9.864 -0.0151  0.3365 -0.1815
  5494G12c O003 2028   8.300   9.941   9.840 -1.7918 -0.3311  0.2623
  5494G12c C01B 2029   8.335  10.001   9.956  0.5697  0.0461 -0.9728
  5494G12c H009 2030   8.429  10.050   9.979  2.1624 -0.7853 -5.3113
  5494G12c H008 2031   8.383   9.927  10.020  3.7366  1.7322 -1.2999
  5494G12c H007 2032   8.255  10.047  10.015 -5.5674 -7.3372 -2.6743
  5494G12c C00W 2033   8.185   9.763   9.800 -0.6505  0.7764  0.3348
  5494G12c O004 2034   8.311   9.710   9.779 -0.8540  0.5162 -0.2935
  5494G12c C01C 2035   8.318   9.586   9.738  0.7728 -0.4551 -1.3434
  5494G12c H00A 2036   8.416   9.543   9.724  2.4148  0.6239  5.3645
  5494G12c C00P 2037   8.195   9.522   9.696  0.5753  0.1077  0.9621
  5494G12c C00O 2038   8.217   9.385   9.658 -0.5009  0.3621  0.0107
  5494G12c C01D 2039   8.331   9.313   9.709 -0.4414  0.2406 -1.5811
  5494G12c H00S 2040   8.401   9.340   9.786 -1.0010  3.2242 -2.0318
  5494G12c C01E 2041   8.377   9.185   9.663 -0.4069 -0.4606  1.8120
  5494G12c O008 2042   8.503   9.129   9.718  0.3286 -0.4745  2.1055
  5494G12c C01V 2043   8.582   9.099   9.602 -0.4867 -1.6244 -1.1495
  5494G12c C01Z 2044   8.681   8.985   9.642 -0.6017 -1.1686  0.2873
  5494G12c H00R 2045   8.740   8.980   9.550 -0.8381  2.0061 -0.0866
  5494G12c H00Q 2046   8.752   9.041   9.703 -2.3809  0.7345  0.6590
  5494G12c O009 2047   8.645   8.847   9.650 -0.8000 -1.0267 -1.5507
  5494G12c H00P 2048   8.582   8.829   9.582 -0.4441  1.8022 -2.7025
  5494G12c C01W 2049   8.598   9.158   9.485  0.1119 -1.3061  1.1625
  5494G12c H00O 2050   8.522   9.235   9.480 -0.4564 -2.0084 -3.5101
  5494G12c C01X 2051   8.667   9.140   9.357 -0.8348 -2.2202  2.1244
  5494G12c H00N 2052   8.621   9.044   9.332 -4.4546  0.3393 -1.8788
  5494G12c H00M 2053   8.617   9.200   9.280  1.6570  1.5401  3.3205
  5494G12c C01Y 2054   8.815   9.162   9.365 -0.4437 -3.6111 -1.6592
  5494G12c C02D 2055   8.872   9.208   9.493 -0.8121 -0.0336  1.6041
  5494G12c H019 2056   8.819   9.217   9.586  0.7667 -0.2614  2.5294
  5494G12c C02C 2057   9.008   9.241   9.488 -0.6342 -1.0276  1.2898
  5494G12c H01A 2058   9.026   9.285   9.585  0.7344 -0.7595  0.9387
  5494G12c C02B 2059   9.101   9.204   9.397 -1.0317  0.2167  0.9276
  5494G12c O00E 2060   9.244   9.225   9.427 -0.0560  2.4625 -0.3712
  5494G12c H01B 2061   9.282   9.139   9.437 -5.0431  0.2338  1.3086
  5494G12c C02F 2062   9.049   9.156   9.267  1.0786  0.4877  0.1160
  5494G12c O00F 2063   9.134   9.088   9.184  0.2820  0.5104 -0.3340
  5494G12c C02G 2064   9.160   9.129   9.065  0.2692 -0.7799 -0.3761
  5494G12c H017 2065   9.264   9.120   9.036  0.1952 -0.5876 -0.7072
  5494G12c H016 2066   9.132   9.234   9.059  0.1994 -0.9612-10.0749
  5494G12c H015 2067   9.094   9.089   8.988 -3.8729  2.4448  1.2895
  5494G12c C02E 2068   8.904   9.135   9.256  2.1191  1.1612  0.7523
  5494G12c H018 2069   8.859   9.085   9.172 -3.7475  0.7654  3.8881
  5494G12c C01F 2070   8.269   9.109   9.605 -0.2593  1.3381  1.4312
  5494G12c C01G 2071   8.258   8.971   9.603 -0.8340 -0.1054 -0.7091
  5494G12c H00L 2072   8.328   8.904   9.652 -6.6035 -4.9237  1.6932
  5494G12c C01H 2073   8.127   8.909   9.602  1.0717  1.9410 -0.9212
  5494G12c H00B 2074   8.093   8.844   9.681 -1.5370  7.2592  2.6207
  5494G12c C01I 2075   8.023   8.992   9.581 -0.6828  1.2544  0.7064
  5494G12c C01U 2076   8.163   9.177   9.547  1.3609 -0.7320  0.3397
  5494G12c C00S 2077   7.829   9.594   9.722  0.1788 -0.4129 -0.6646
  5494G12c C00K 2078   7.767   9.389   9.662  0.0691 -1.2052  1.4537
  5494G12c C00N 2079   8.125   9.313   9.573 -1.5548  0.4552  0.9582
  5494G12c C000 2080   8.044   9.115   9.496 -1.0660  0.2057  0.4445
  5494G12c C01J 2081   7.874   8.996   9.618  0.1326 -0.0746 -0.3614
  5494G12c C01K 2082   7.785   8.899   9.684  0.9818  0.2578  0.2198
  5494G12c C01P 2083   7.798   8.761   9.689 -0.6768 -0.2455  1.7960
  5494G12c C01Q 2084   7.870   8.697   9.575 -0.2502 -1.3100  1.6729
  5494G12c H00G 2085   7.942   8.620   9.596 -2.3631 -3.0868  2.6738
  5494G12c C01R 2086   7.806   8.686   9.449 -0.1990 -0.6383  0.8303
  5494G12c H00F 2087   7.744   8.774   9.440  0.6310 -0.2788 -1.7774
  5494G12c C01S 2088   7.757   8.566   9.392 -0.2421  1.1005  1.7019
  5494G12c H00E 2089   7.712   8.585   9.295  1.5510 -0.3681  0.5423
  5494G12c H00D 2090   7.823   8.530   9.314  4.3306  2.7739  4.5769
  5494G12c O005 2091   7.680   8.472   9.460 -0.0222 -1.4034 -0.8562
  5494G12c H00C 2092   7.695   8.474   9.554 -0.1960 -0.8816 -0.8349
  5494G12c C01O 2093   7.733   8.683   9.774 -1.2961  1.4101 -1.0116
  5494G12c H00H 2094   7.742   8.577   9.761 -3.2961  1.7455 -6.4616
  5494G12c C01N 2095   7.687   8.740   9.895 -0.5696 -0.8760 -0.2571
  5494G12c O006 2096   7.648   8.658   9.990  0.1049 -0.6271 -1.0284
  5494G12c C01T 2097   7.749   8.592  10.077 -1.3737  0.8024 -0.0864
  5494G12c H00K 2098   7.780   8.654  10.161  0.1555 -1.6973  1.2454
  5494G12c H00J 2099   7.833   8.584  10.009  0.9568  1.5465  2.6214
  5494G12c H00I 2100   7.725   8.486  10.083 -0.8870  0.5909 -1.6521
  5494G12c C01M 2101   7.635   8.867   9.874  2.7088  0.0607 -0.9823
  5494G12c C020 2102   7.658   9.295   9.668  0.4423 -0.8227 -1.1334
  5494G12c C021 2103   7.512   9.316   9.693  0.7249 -0.6141 -0.3744
  5494G12c C01L 2104   7.691   8.956   9.768  0.8434  0.2372  0.8025
  5494G12c O007 2105   7.542   8.921   9.979  0.8128  1.4271  0.8735
  5494G12c C022 2106   7.453   9.239   9.793 -1.6261 -1.0677 -0.2656
  5494G12c C023 2107   7.486   9.448   9.746 -1.6898 -2.8731 -0.3580
  5494G12c C00G 2108   7.468   9.665   9.930 -0.3940 -2.9440  0.8971
  5494G12c C00E 2109   7.360   9.804  10.086  1.4908 -1.6410  0.1183
  5494G12c O00A 2110   7.344   9.913  10.179  0.1157  0.6410  0.8297
  5494G12c C024 2111   7.338   9.871  10.309  1.8138  2.3127  0.2824
  5494G12c H00V 2112   7.386   9.932  10.385  3.1819 -2.9176  3.9097
  5494G12c H00U 2113   7.366   9.767  10.326 -0.1609  1.6473 -0.4161
  5494G12c H00T 2114   7.232   9.889  10.323  1.2922 -1.1212  1.2361
  5504G12c C00D 2115   5.041  12.673  13.578 -1.0762  0.7262  1.3178
  5504G12c O00B 2116   5.167  12.734  13.614 -1.2089  0.5927 -0.7935
  5504G12c C025 2117   5.238  12.783  13.508 -0.2462  0.2092 -0.5614
  5504G12c C026 2118   5.241  12.930  13.512 -1.3838  0.5538 -1.5079
  5504G12c H00Y 2119   5.228  12.988  13.421  2.4559  0.7657 -2.0222
  5504G12c H00X 2120   5.327  12.975  13.562 -3.3464  0.0481  2.5952
  5504G12c O00C 2121   5.124  12.987  13.589  0.3690  1.1741 -0.4946
  5504G12c H00W 2122   5.158  13.007  13.675  2.7241 -2.9925 -0.2985
  5504G12c C027 2123   5.276  12.705  13.402 -1.2675 -1.6677 -0.6379
  5504G12c O00D 2124   5.247  12.568  13.416 -0.6442 -1.2662 -0.6224
  5504G12c H00Z 2125   5.240  12.537  13.505 -0.1285 -0.2542 -0.2196
  5504G12c C028 2126   5.336  12.775  13.287  0.2244 -0.6686  0.0438
  5504G12c C029 2127   5.276  12.841  13.187  0.6859 -2.5438  0.6918
  5504G12c H010 2128   5.181  12.879  13.221  0.4167  2.3125 -4.6111
  5504G12c C02T 2129   5.333  12.861  13.056  0.4424 -0.0889  0.7811
  5504G12c H01O 2130   5.290  12.909  12.969  2.7528 -0.7969 -0.7973
  5504G12c C02S 2131   5.481  12.849  13.053 -0.2793 -3.2234 -1.5398
  5504G12c O00J 2132   5.556  12.876  12.942  1.6863 -1.4110  0.3746
  5504G12c H01P 2133   5.651  12.876  12.944  1.7661  2.8425  1.4661
  5504G12c C02R 2134   5.549  12.789  13.164  0.1679 -0.1728  1.7061
  5504G12c O00I 2135   5.690  12.768  13.154  0.1976  1.4370 -0.1354
  5504G12c C02Q 2136   5.737  12.664  13.066 -0.8871 -2.7106  1.4864
  5504G12c H01N 2137   5.701  12.670  12.963 -2.5208 -1.6705  2.0879
  5504G12c H01R 2138   5.845  12.675  13.063 -1.0872 -0.8795  0.1887
  5504G12c H01Q 2139   5.726  12.558  13.089  1.3207 -6.4308-10.8635
  5504G12c C02A 2140   5.475  12.759  13.279  2.4141 -0.3323  0.4820
  5504G12c H011 2141   5.538  12.712  13.353  3.9020  0.1509 -0.4450
  5504G12c C00C 2142   4.944  12.707  13.468 -0.5564 -0.3647 -0.7476
  5504G12c H012 2143   4.971  12.790  13.405  1.6214 -1.6451 -1.5585
  5504G12c C00B 2144   4.815  12.683  13.454  0.8083  0.0173  0.4244
  5504G12c C00A 2145   4.721  12.753  13.365 -2.3109 -0.1636  0.8577
  5504G12c C009 2146   4.720  12.904  13.359 -1.0214  1.5591 -0.0229
  5504G12c C008 2147   4.817  13.004  13.390  0.5961  0.8918 -0.2161
  5504G12c H013 2148   4.922  12.979  13.376  0.0673  0.3630 -3.4944
  5504G12c C007 2149   4.772  13.140  13.399 -1.0475 -0.9120 -0.4671
  5504G12c H014 2150   4.847  13.218  13.396 -2.5979  0.6825  1.2336
  5504G12c C006 2151   4.630  13.173  13.418  0.2882 -1.4811 -0.6373
  5504G12c C005 2152   4.532  13.066  13.396  1.4179  0.0681  0.9000
  5504G12c C004 2153   4.395  13.105  13.420 -0.4918  2.5245  0.7432
  5504G12c C003 2154   4.315  12.985  13.440  0.3424  1.7175 -0.2902
  5504G12c C002 2155   4.175  13.019  13.480 -1.1930 -0.4515 -0.1758
  5504G12c C001 2156   4.063  12.947  13.530  0.2308  0.2239 -0.7236
  5504G12c C00M 2157   4.092  12.833  13.632 -0.6538  2.7175  0.5896
  5504G12c C00L 2158   4.193  12.726  13.613 -0.8898  0.8731  1.3940
  5504G12c C00R 2159   4.225  12.617  13.698 -0.2628 -0.8742  1.2937
  5504G12c C00Q 2160   4.205  12.604  13.844 -0.2161 -0.5511  1.1080
  5504G12c C00V 2161   4.289  12.508  13.907  1.1450 -1.0101 -0.1714
  5504G12c C00U 2162   4.419  12.475  13.862  0.7961 -0.0448  0.3612
  5504G12c C00T 2163   4.452  12.509  13.731  0.1794 -0.2226 -1.4462
  5504G12c C016 2164   4.582  12.517  13.687 -0.8197  1.2055 -0.9688
  5504G12c C015 2165   4.675  12.462  13.782  1.0373 -1.2714  1.0541
  5504G12c C010 2166   4.616  12.364  13.864 -2.7289  1.3242 -1.4246
  5504G12c C011 2167   4.706  12.243  13.909 -0.3857  0.2725  0.3912
  5504G12c H005 2168   4.668  12.174  13.983  1.9166  0.1592  1.4949
  5504G12c C012 2169   4.828  12.221  13.853  1.1394 -0.3685 -0.4198
  5504G12c C017 2170   4.889  12.093  13.877 -0.5369  0.4972 -0.2401
  5504G12c O002 2171   4.805  11.991  13.898  0.4624 -0.6559  0.7141
  5504G12c H004 2172   4.864  11.918  13.906  3.1568  1.8437  8.3916
  5504G12c C018 2173   5.028  12.077  13.885  0.1950  0.1817  0.0730
  5504G12c O001 2174   5.105  12.184  13.898  0.7114 -0.4959  0.7987
  5504G12c H003 2175   5.057  12.259  13.928 -1.0512 -0.4299 -1.9333
  5504G12c C019 2176   5.089  11.935  13.902  0.6705  0.2016 -0.0017
  5504G12c H002 2177   5.186  11.954  13.855 -0.8975  4.5863 -1.7826
  5504G12c H001 2178   5.105  11.939  14.009  3.1651  3.4896 -0.3895
  5504G12c O000 2179   5.008  11.811  13.866  0.0645  1.3432 -1.1610
  5504G12c C01A 2180   5.077  11.694  13.871 -0.4568  0.6122  1.5314
  5504G12c C02K 2181   5.086  11.620  14.016 -1.2802 -1.1526 -0.1494
  5504G12c O00G 2182   5.056  11.685  14.130  0.7875  0.4786  1.3021
  5504G12c C02M 2183   4.927  11.675  14.147  0.2194 -0.1844  1.7839
  5504G12c H01G 2184   4.894  11.654  14.046  7.7069 -3.6754 -0.2995
  5504G12c H01F 2185   4.874  11.596  14.201 -0.6284 -1.4009 -0.7575
  5504G12c H01E 2186   4.918  11.779  14.180 -0.2999  1.0356 -1.9660
  5504G12c C02J 2187   5.168  11.503  14.015  0.3433  1.8027 -0.5866
  5504G12c H01H 2188   5.219  11.455  14.097 -5.2048 -3.3240  0.2382
  5504G12c C02I 2189   5.221  11.442  13.897  0.2923  1.0297  0.4262
  5504G12c C02N 2190   5.270  11.307  13.875 -2.1984 -1.2427  0.2818
  5504G12c H01M 2191   5.229  11.229  13.812 -0.7496 -3.3108  1.8093
  5504G12c C02O 2192   5.342  11.241  13.973  0.3008 -0.3858  2.8738
  5504G12c H01L 2193   5.367  11.305  14.057 -0.3851 -0.2871  3.0117
  5504G12c C02P 2194   5.331  11.086  13.985  0.0854 -2.7840  0.3186
  5504G12c H01K 2195   5.356  11.068  14.089 -2.7248  3.8813  2.4210
  5504G12c H01J 2196   5.225  11.059  13.978 -0.9876  0.5986  2.0388
  5504G12c O00H 2197   5.395  11.005  13.876  0.4698  1.0052 -0.3013
  5504G12c H01I 2198   5.485  11.032  13.888  0.6212  0.6462 -0.6140
  5504G12c C02H 2199   5.204  11.520  13.782  1.0312 -1.1401 -0.3453
  5504G12c H01C 2200   5.226  11.497  13.679  0.3674 -1.5765 -0.3956
  5504G12c C02L 2201   5.140  11.642  13.772  0.4790  0.6742  0.5101
  5504G12c H01D 2202   5.126  11.691  13.677  1.3478 -0.5281 -0.2507
  5504G12c C013 2203   4.869  12.320  13.767 -1.8898 -1.0884 -0.4824
  5504G12c H000 2204   4.969  12.298  13.731  0.2802  0.2628  4.2980
  5504G12c C014 2205   4.795  12.434  13.731  1.1168 -0.4628  0.8914
  5504G12c C00F 2206   4.848  12.532  13.646  0.0196 -0.5933  0.4349
  5504G12c C00H 2207   4.627  12.568  13.564 -0.1756  0.5012 -0.2002
  5504G12c C00I 2208   4.530  12.637  13.486  0.2415 -1.4328  0.5276
  5504G12c C00J 2209   4.383  12.622  13.526 -0.5940  1.0539 -0.3162
  5504G12c C00Z 2210   4.510  12.397  13.934  1.3573 -1.4590 -0.8943
  5504G12c C00Y 2211   4.461  12.361  14.064 -0.3854  0.3531 -1.1600
  5504G12c H006 2212   4.539  12.291  14.088 -0.4653  0.6825  0.0930
  5504G12c C00X 2213   4.335  12.402  14.117  0.1906  0.3832  0.3136
  5504G12c O003 2214   4.306  12.368  14.238  1.0219 -0.6196 -0.9747
  5504G12c C01B 2215   4.411  12.289  14.312 -0.9228 -0.4194 -0.9463
  5504G12c H009 2216   4.388  12.246  14.409 -7.5756 -0.7243 -2.4542
  5504G12c H008 2217   4.483  12.366  14.342  1.2376 -2.1600 -1.5085
  5504G12c H007 2218   4.474  12.209  14.273  0.0168 -1.4937  2.6173
  5504G12c C00W 2219   4.251  12.476  14.039 -0.3329 -1.7439 -1.9768
  5504G12c O004 2220   4.138  12.512  14.102  1.0237 -0.5108 -1.9434
  5504G12c C01C 2221   4.107  12.642  14.072 -1.4323  0.9723  0.8187
  5504G12c H00A 2222   4.161  12.720  14.123 -0.2513  4.7282 -5.6071
  5504G12c C00P 2223   4.112  12.674  13.934  0.4321 -0.1315 -1.1399
  5504G12c C00O 2224   4.035  12.794  13.897  0.1767  0.0667  0.4776
  5504G12c C01D 2225   3.990  12.885  14.003  2.2257  1.5207  1.0855
  5504G12c H00S 2226   3.989  12.857  14.107 -2.7380 -3.4061 -0.0299
  5504G12c C01E 2227   3.964  13.017  13.981  0.4523  1.7241  1.2339
  5504G12c O008 2228   3.945  13.105  14.088 -0.0415  1.1311 -1.5538
  5504G12c C01V 2229   4.013  13.074  14.200  0.0669 -0.6858  0.7641
  5504G12c C01Z 2230   4.176  13.078  14.188 -2.2856  0.6141 -1.6844
  5504G12c H00R 2231   4.196  13.149  14.108  5.4571 -2.1037 -2.5677
  5504G12c H00Q 2232   4.244  13.116  14.264 -5.2163 -0.5903  1.6454
  5504G12c O009 2233   4.236  12.956  14.159 -1.1593  0.1485 -0.2580
  5504G12c H00P 2234   4.194  12.937  14.076 -3.4025  3.6592 -0.0567
  5504G12c C01W 2235   3.949  13.061  14.316 -2.0515 -0.1282  0.3880
  5504G12c H00O 2236   3.843  13.046  14.302 -1.4724 -6.8365  1.6023
  5504G12c C01X 2237   3.999  13.040  14.466 -1.0287 -0.9394  0.3170
  5504G12c H00N 2238   4.096  13.088  14.456 -1.6348  0.4393  0.9421
  5504G12c H00M 2239   3.937  13.109  14.523  2.6252  0.0513  3.2848
  5504G12c C01Y 2240   4.031  12.915  14.548 -0.7710  2.3383  1.1404
  5504G12c C02D 2241   3.955  12.879  14.658  0.4280  1.1415  0.0056
  5504G12c H019 2242   3.864  12.936  14.664  2.0069  4.9643 -6.9186
  5504G12c C02C 2243   3.960  12.741  14.732  0.5066  0.4354 -0.7667
  5504G12c H01A 2244   3.877  12.690  14.778  3.4504 -8.8431 -4.4302
  5504G12c C02B 2245   4.059  12.650  14.686  0.9984 -0.0122 -0.0468
  5504G12c O00E 2246   4.042  12.521  14.736  0.0030 -0.5228  1.5435
  5504G12c H01B 2247   4.075  12.460  14.672  2.9994  0.9543  1.6005
  5504G12c C02F 2248   4.162  12.701  14.600  2.4959  1.9552 -1.4660
  5504G12c O00F 2249   4.253  12.602  14.551 -0.6499  1.6991  0.2344
  5504G12c C02G 2250   4.362  12.639  14.471  0.3038  2.1546 -0.2192
  5504G12c H017 2251   4.335  12.642  14.366  4.0712 -3.4234 -1.5421
  5504G12c H016 2252   4.414  12.734  14.485  0.8496  1.9429 -0.7855
  5504G12c H015 2253   4.417  12.546  14.483 -5.6497 -1.3668  1.4610
  5504G12c C02E 2254   4.134  12.823  14.539  0.2872  1.5570  1.4219
  5504G12c H018 2255   4.177  12.825  14.440 -2.5822  1.0283  0.1175
  5504G12c C01F 2256   3.973  13.071  13.856 -1.4472 -0.6260  0.7898
  5504G12c C01G 2257   3.999  13.213  13.817 -0.7494  1.1338 -0.4129
  5504G12c H00L 2258   4.000  13.266  13.911 -2.5601 -3.8340  2.5952
  5504G12c C01H 2259   4.024  13.261  13.696 -0.4290 -0.1006 -0.0089
  5504G12c H00B 2260   4.091  13.346  13.696  5.1010 -4.1565  3.5227
  5504G12c C01I 2261   4.042  13.167  13.595  0.8988  1.0853 -0.4771
  5504G12c C01U 2262   3.969  12.989  13.740  0.7288 -0.6618  0.0107
  5504G12c C00S 2263   4.353  12.566  13.648  0.8870 -0.4083  1.3083
  5504G12c C00K 2264   4.306  12.737  13.517  0.1402 -0.2893 -0.8753
  5504G12c C00N 2265   4.028  12.864  13.762  0.8117  0.5968 -0.1633
  5504G12c C000 2266   3.980  13.047  13.607 -0.1507 -0.4724  0.0857
  5504G12c C01J 2267   4.153  13.161  13.508 -0.3803  1.4531 -0.4349
  5504G12c C01K 2268   4.234  13.284  13.472  1.3480  1.1630 -0.6395
  5504G12c C01P 2269   4.207  13.425  13.482  0.2186 -1.0183  0.6428
  5504G12c C01Q 2270   4.075  13.477  13.492 -0.1308  1.5376  0.4391
  5504G12c H00G 2271   3.991  13.439  13.435  1.1074 -6.5740  3.4060
  5504G12c C01R 2272   4.042  13.582  13.565  1.6434  0.3878  0.5731
  5504G12c H00F 2273   4.125  13.637  13.607  0.2987  4.8733 -2.2755
  5504G12c C01S 2274   3.907  13.670  13.549 -0.7554 -0.4595 -0.2386
  5504G12c H00E 2275   3.880  13.681  13.444  4.5347  0.4666 -1.6909
  5504G12c H00D 2276   3.847  13.595  13.599 -3.9295  2.2698  0.1998
  5504G12c O005 2277   3.895  13.795  13.613 -1.2589 -0.1224  0.0243
  5504G12c H00C 2278   3.938  13.770  13.693 -0.5621  2.8563  0.6451
  5504G12c C01O 2279   4.304  13.507  13.435  0.8161 -1.6768 -1.5042
  5504G12c H00H 2280   4.285  13.608  13.403 -0.3578 -0.8806  1.5482
  5504G12c C01N 2281   4.436  13.469  13.418  0.5436 -0.5507 -0.8862
  5504G12c O006 2282   4.544  13.562  13.390  0.0885  1.3985  0.1884
  5504G12c C01T 2283   4.595  13.634  13.501 -0.6861 -0.2288 -1.0526
  5504G12c H00K 2284   4.505  13.672  13.548 -4.5265 -8.8170 -0.5565
  5504G12c H00J 2285   4.679  13.692  13.463 -1.0885  3.3235  3.1319
  5504G12c H00I 2286   4.627  13.559  13.573 -4.8956 -1.7130 -0.5896
  5504G12c C01M 2287   4.465  13.327  13.446 -0.4395 -0.2459  1.1520
  5504G12c C020 2288   4.368  12.843  13.435  1.6160 -1.5304  0.6548
  5504G12c C021 2289   4.497  12.832  13.380  0.3014 -0.1172 -0.5692
  5504G12c C01L 2290   4.364  13.239  13.457 -0.8315  1.1488 -2.0395
  5504G12c O007 2291   4.595  13.293  13.468 -1.0270 -1.0748  0.7521
  5504G12c C022 2292   4.576  12.936  13.340 -0.6568 -0.9364  1.0072
  5504G12c C023 2293   4.583  12.725  13.377  1.5787  0.1021  0.6028
  5504G12c C00G 2294   4.766  12.595  13.549 -1.0104 -0.5702  1.9456
  5504G12c C00E 2295   4.993  12.564  13.665 -1.4470 -0.1612  0.7950
  5504G12c O00A 2296   5.057  12.513  13.778 -0.3352  0.9760  0.0905
  5504G12c C024 2297   5.119  12.598  13.857 -0.8758 -0.5986  0.0344
  5504G12c H00V 2298   5.069  12.694  13.844 -7.4703 -3.7219  0.2340
  5504G12c H00U 2299   5.226  12.606  13.839 -0.8033  4.8559  1.8150
  5504G12c H00T 2300   5.103  12.530  13.941  1.5658  0.4259  1.3818
  5514G12c C00D 2301  11.857   0.762   5.314  0.5641  1.1792  1.0856
  5514G12c O00B 2302  11.856   0.821   5.192  0.5064  0.3136 -0.5579
  5514G12c C025 2303  11.783   0.937   5.182 -0.4403 -0.4978 -0.4217
  5514G12c C026 2304  11.657   0.917   5.110  0.6077  2.7482 -0.0622
  5514G12c H00Y 2305  11.657   0.812   5.080 -3.8027  3.8521 -4.6240
  5514G12c H00X 2306  11.622   0.994   5.041 -0.6117  0.7559 -1.7498
  5514G12c O00C 2307  11.538   0.911   5.203  1.0001  0.7945  0.3308
  5514G12c H00W 2308  11.533   0.967   5.279 -0.4338  4.7463 -2.4771
  5514G12c C027 2309  11.795   1.070   5.252  0.6007 -0.0062 -1.9339
  5514G12c O00D 2310  11.914   1.108   5.325  0.6275 -0.3937 -0.0785
  5514G12c H00Z 2311  11.941   1.018   5.337 -2.2571 -1.5469 -1.7089
  5514G12c C028 2312  11.723   1.177   5.210  0.4718 -1.5289  0.4810
  5514G12c C029 2313  11.733   1.220   5.079  1.0666 -0.1603  0.4162
  5514G12c H010 2314  11.784   1.167   4.999  5.8428  0.7476  2.6894
  5514G12c C02T 2315  11.663   1.342   5.060  1.0149  0.3553  0.4710
  5514G12c H01O 2316  11.704   1.374   4.966  3.7358 -3.6718  0.1727
  5514G12c C02S 2317  11.608   1.421   5.154 -0.4960 -1.0899  0.7176
  5514G12c O00J 2318  11.542   1.525   5.088 -1.4827  0.1510  1.1354
  5514G12c H01P 2319  11.461   1.529   5.136 -2.8293 -6.9678 -0.0645
  5514G12c C02R 2320  11.605   1.381   5.288  1.5624 -1.5090 -1.2624
  5514G12c O00I 2321  11.525   1.463   5.355  0.9455  0.0309  0.6060
  5514G12c C02Q 2322  11.474   1.399   5.485 -0.1805  0.5749 -0.7765
  5514G12c H01N 2323  11.547   1.359   5.556 -0.8539 -3.6539 -2.2998
  5514G12c H01R 2324  11.403   1.332   5.437  0.4476  0.7422 -1.9340
  5514G12c H01Q 2325  11.398   1.455   5.540 -2.2760 -4.2477  1.5911
  5514G12c C02A 2326  11.655   1.249   5.324 -0.9921  1.1795 -1.0486
  5514G12c H011 2327  11.686   1.213   5.421  1.8197  1.4204 -1.8069
  5514G12c C00C 2328  11.782   0.661   5.346  0.3386  1.2454  0.3678
  5514G12c H012 2329  11.728   0.611   5.266  0.2575 -3.3613  3.1593
  5514G12c C00B 2330  11.788   0.582   5.471 -0.9678  0.2455 -0.0085
  5514G12c C00A 2331  11.722   0.451   5.505  1.1706 -0.4196 -1.7725
  5514G12c C009 2332  11.595   0.387   5.490 -0.5457 -2.2668 -1.3292
  5514G12c C008 2333  11.475   0.428   5.435 -0.8848  1.6174  1.4404
  5514G12c H013 2334  11.463   0.520   5.378  0.2904  3.0701  3.4643
  5514G12c C007 2335  11.357   0.368   5.474  0.8093  1.4550 -1.1479
  5514G12c H014 2336  11.270   0.429   5.456  0.1809  0.2129 -2.4342
  5514G12c C006 2337  11.349   0.255   5.560  1.3129 -1.3915  0.4279
  5514G12c C005 2338  11.477   0.223   5.622  1.2068 -0.6795 -0.9974
  5514G12c C004 2339  11.480   0.157   5.745 -0.8198 -1.0249 -0.1936
  5514G12c C003 2340  11.584   0.173   5.817  0.8001  0.2806 -1.1265
  5514G12c C002 2341  11.586   0.117   5.953 -1.3261 -0.8081 -1.0171
  5514G12c C001 2342  11.681   0.086   6.057  0.6365 -0.2074  0.4847
  5514G12c C00M 2343  11.786   0.176   6.107  0.5202  0.0024  1.6062
  5514G12c C00L 2344  11.854   0.256   6.017 -2.6047  0.6228 -0.8099
  5514G12c C00R 2345  11.940   0.360   6.053 -2.2265  1.3863  0.7833
  5514G12c C00Q 2346  11.977   0.435   6.168 -1.5360 -0.0657 -2.2684
  5514G12c C00V 2347  12.039   0.560   6.144 -0.4655  1.2465 -1.0855
  5514G12c C00U 2348  12.052   0.623   6.021 -0.1733 -0.3635 -1.9709
  5514G12c C00T 2349  11.986   0.560   5.920  0.3894 -1.0032  0.6584
  5514G12c C016 2350  11.976   0.620   5.791  1.8055  1.5679  0.5284
  5514G12c C015 2351  12.011   0.752   5.777  1.1024 -0.1041  1.7058
  5514G12c C010 2352  12.071   0.826   5.882 -0.2226 -0.1904  0.0694
  5514G12c C011 2353  12.097   0.967   5.857 -0.6305 -0.8785 -0.0337
  5514G12c H005 2354  12.133   1.033   5.935 -1.1739 -2.0378  1.2299
  5514G12c C012 2355  12.038   1.030   5.746  1.1966  1.5605 -0.1064
  5514G12c C017 2356  12.014   1.174   5.739 -0.5188 -0.1892  0.1779
  5514G12c O002 2357  11.965   1.216   5.849  0.9725  0.7206 -1.0140
  5514G12c H004 2358  11.967   1.311   5.843 -1.3704  0.7485 -1.8900
  5514G12c C018 2359  12.079   1.251   5.656  0.3438 -1.8385  0.8036
  5514G12c O001 2360  12.150   1.177   5.565 -0.4739 -0.3692  0.3984
  5514G12c H003 2361  12.189   1.260   5.542  0.5707 -1.7964 -3.3151
  5514G12c C019 2362  12.106   1.406   5.646  0.7064  1.0128 -0.0093
  5514G12c H002 2363  12.209   1.440   5.646  0.9603  0.6496  4.9279
  5514G12c H001 2364  12.050   1.467   5.576 -1.8344 -2.3888 -1.1136
  5514G12c O000 2365  12.056   1.473   5.771  0.1718 -0.6295  0.5107
  5514G12c C01A 2366  12.161   1.553   5.823 -2.1570 -0.2424  0.5158
  5514G12c C02K 2367  12.257   1.647   5.752  0.8794  1.1199  0.7853
  5514G12c O00G 2368  12.265   1.653   5.609  0.6334  0.2477  0.3303
  5514G12c C02M 2369  12.230   1.762   5.520  0.1834  0.0395  0.6610
  5514G12c H01G 2370  12.130   1.797   5.547 -2.6579 -6.1547 -1.0575
  5514G12c H01F 2371  12.250   1.729   5.418 -0.0745  0.5245  0.4512
  5514G12c H01E 2372  12.276   1.844   5.575 -0.2507  1.0696 -0.4865
  5514G12c C02J 2373  12.354   1.702   5.840 -1.7521  0.2124 -0.5110
  5514G12c H01H 2374  12.441   1.745   5.793  3.4885 -1.1634  7.0911
  5514G12c C02I 2375  12.359   1.703   5.985  1.2565 -0.7106  0.1355
  5514G12c C02N 2376  12.419   1.822   6.062 -0.2461  0.1209  0.1414
  5514G12c H01M 2377  12.417   1.919   6.013  0.2512  0.0687  0.0150
  5514G12c C02O 2378  12.432   1.801   6.195 -0.6932 -0.5418  1.0013
  5514G12c H01L 2379  12.402   1.708   6.242 -4.8298 -3.2472 -6.0869
  5514G12c C02P 2380  12.442   1.914   6.289  1.3517 -0.3595 -2.9703
  5514G12c H01K 2381  12.346   1.944   6.331  1.3805 -6.0540  1.6822
  5514G12c H01J 2382  12.525   1.911   6.360  1.8033 -3.8227 -3.5466
  5514G12c O00H 2383  12.479   2.039   6.244  0.9674 -0.2074 -0.9900
  5514G12c H01I 2384  12.462   2.112   6.301  0.3008 -1.2929  0.2089
  5514G12c C02H 2385  12.268   1.604   6.038  0.7785 -0.9890 -0.4606
  5514G12c H01C 2386  12.260   1.578   6.142  0.5442 -3.9957 -1.1864
  5514G12c C02L 2387  12.159   1.549   5.969 -1.1744  0.1400  0.5240
  5514G12c H01D 2388  12.097   1.464   5.995  1.2072 -1.7765  0.1756
  5514G12c C013 2389  11.973   0.956   5.649 -1.3571 -1.5661  1.6177
  5514G12c H000 2390  11.908   1.009   5.581  0.0976  0.6609  1.9396
  5514G12c C014 2391  11.971   0.821   5.665  0.7220 -0.2731  0.1393
  5514G12c C00F 2392  11.931   0.744   5.551  0.3173 -1.5014 -1.1769
  5514G12c C00H 2393  11.920   0.549   5.674 -0.7703  0.0010  2.6427
  5514G12c C00I 2394  11.888   0.421   5.694  0.5882 -0.4570 -1.5217
  5514G12c C00J 2395  11.911   0.365   5.819 -0.4232 -0.9328 -0.5334
  5514G12c C00Z 2396  12.084   0.762   6.009  0.8938  1.2200 -0.0706
  5514G12c C00Y 2397  12.114   0.836   6.122 -0.0890 -1.0356  0.5778
  5514G12c H006 2398  12.123   0.942   6.139  1.7671 -1.4991  2.8518
  5514G12c C00X 2399  12.131   0.776   6.250 -0.1886  0.4648  0.0232
  5514G12c O003 2400  12.107   0.837   6.357 -0.7244  0.9212  0.1182
  5514G12c C01B 2401  12.226   0.864   6.422  0.5623  0.3662 -1.2034
  5514G12c H009 2402  12.199   0.892   6.524  5.7573 -4.0024  1.6555
  5514G12c H008 2403  12.278   0.935   6.358 -2.4498  5.8686  2.1231
  5514G12c H007 2404  12.296   0.781   6.430 -2.7109 -2.8313 -3.9965
  5514G12c C00W 2405  12.079   0.645   6.254 -0.2227 -0.9755 -0.2424
  5514G12c O004 2406  12.065   0.600   6.379  0.0395  0.0854 -0.9234
  5514G12c C01C 2407  12.013   0.468   6.413  1.8219 -0.1869 -1.4317
  5514G12c H00A 2408  12.015   0.427   6.513 -3.1812 -2.6581 -2.1810
  5514G12c C00P 2409  11.947   0.392   6.304 -0.2633  0.6669  0.9574
  5514G12c C00O 2410  11.829   0.314   6.329 -2.9953 -0.1653  0.0114
  5514G12c C01D 2411  11.778   0.309   6.476 -1.8065 -1.2114  0.4932
  5514G12c H00S 2412  11.829   0.375   6.544 -1.0481  3.1987 -4.0423
  5514G12c C01E 2413  11.656   0.253   6.494  0.2697  0.7342 -1.0967
  5514G12c O008 2414  11.611   0.263   6.620 -0.2213 -0.4759  0.7594
  5514G12c C01V 2415  11.486   0.216   6.656 -0.5141 -0.0817  1.0947
  5514G12c C01Z 2416  11.484   0.070   6.691 -1.6146  1.2048 -1.2463
  5514G12c H00R 2417  11.466   0.037   6.793 -1.5625 -0.0906 -1.6456
  5514G12c H00Q 2418  11.415   0.009   6.632  3.2871  1.0186 -7.3069
  5514G12c O009 2419  11.611   0.024   6.673  0.2384  0.6818 -0.6635
  5514G12c H00P 2420  11.589  -0.033   6.601  0.9590  0.7252 -0.9141
  5514G12c C01W 2421  11.392   0.290   6.706 -0.9627 -1.5385 -0.8323
  5514G12c H00O 2422  11.438   0.386   6.719  4.0347 -3.5694 -2.4704
  5514G12c C01X 2423  11.259   0.250   6.754 -0.0339  1.1721 -0.6063
  5514G12c H00N 2424  11.247   0.144   6.735  2.7678  0.5770  0.6043
  5514G12c H00M 2425  11.237   0.261   6.860 -4.6863  1.8696 -1.5354
  5514G12c C01Y 2426  11.145   0.299   6.661  0.5485 -0.9503 -0.4311
  5514G12c C02D 2427  11.158   0.351   6.522  0.0538  0.3875 -0.9154
  5514G12c H019 2428  11.238   0.407   6.475  0.6396  1.0144  0.8080
  5514G12c C02C 2429  11.038   0.388   6.465 -0.6733 -2.6505 -0.1025
  5514G12c H01A 2430  11.022   0.444   6.374  6.3345 -1.5472 -0.9074
  5514G12c C02B 2431  10.916   0.321   6.488 -0.0358  0.5249 -2.0017
  5514G12c O00E 2432  10.810   0.344   6.402 -0.2199  0.3733  0.3887
  5514G12c H01B 2433  10.733   0.306   6.441  0.7232 -0.4856  1.4572
  5514G12c C02F 2434  10.900   0.276   6.622 -0.1159  0.1707 -0.2187
  5514G12c O00F 2435  10.772   0.220   6.622 -0.5384 -0.7090  1.5239
  5514G12c C02G 2436  10.732   0.129   6.730 -1.1651 -0.1313  0.0695
  5514G12c H017 2437  10.630   0.091   6.737  0.5525 -4.4941  4.4152
  5514G12c H016 2438  10.756   0.176   6.826 -1.0394 -1.2096  0.5726
  5514G12c H015 2439  10.792   0.038   6.736  5.8712  4.0930  0.0730
  5514G12c C02E 2440  11.016   0.255   6.705 -1.1748 -1.2253 -0.6763
  5514G12c H018 2441  10.996   0.205   6.799  0.7018 -0.1198  0.3595
  5514G12c C01F 2442  11.588   0.181   6.398  0.1947  1.0447 -1.6414
  5514G12c C01G 2443  11.432   0.180   6.379 -0.5753 -2.0186 -1.9223
  5514G12c H00L 2444  11.370   0.218   6.459 -1.8568  1.5829 -4.5123
  5514G12c C01H 2445  11.382   0.150   6.252 -0.3028 -0.3643 -2.3735
  5514G12c H00B 2446  11.278   0.178   6.256 -1.6580 -4.8885 -3.1534
  5514G12c C01I 2447  11.472   0.077   6.163  0.5807 -0.2233  0.2915
  5514G12c C01U 2448  11.668   0.120   6.293 -0.3185 -0.7879 -0.7880
  5514G12c C00S 2449  11.979   0.421   5.932 -1.4652 -0.7404  0.0739
  5514G12c C00K 2450  11.826   0.255   5.868 -0.3281  1.2566 -1.3035
  5514G12c C00N 2451  11.764   0.212   6.252 -1.3595 -0.7871 -0.5995
  5514G12c C000 2452  11.614   0.045   6.179  2.2354  0.8343  0.5863
  5514G12c C01J 2453  11.470   0.083   6.011  1.4082 -2.0616 -1.2679
  5514G12c C01K 2454  11.348   0.069   5.940  1.0758 -0.1697 -0.4170
  5514G12c C01P 2455  11.221   0.002   5.994 -0.3287  0.0432 -1.0927
  5514G12c C01Q 2456  11.222  -0.046   6.136  0.7098  0.7029  0.9603
  5514G12c H00G 2457  11.278  -0.113   6.200 -6.0241 -2.0854  4.4220
  5514G12c C01R 2458  11.110  -0.042   6.222  0.9415 -0.7708  0.2488
  5514G12c H00F 2459  11.029   0.008   6.171 -1.4053 -4.0189  0.6627
  5514G12c C01S 2460  11.103  -0.118   6.351  1.0901 -0.4289  1.3850
  5514G12c H00E 2461  11.012  -0.179   6.348 -4.9834  7.6304  3.2429
  5514G12c H00D 2462  11.180  -0.195   6.340  0.1368 -1.1712 -0.1917
  5514G12c O005 2463  11.094  -0.023   6.460  0.6177  0.5925  0.8247
  5514G12c H00C 2464  11.058   0.064   6.450 -2.5576 -1.0582 -3.0784
  5514G12c C01O 2465  11.104  -0.003   5.921  0.8660  0.3395 -0.3980
  5514G12c H00H 2466  11.000  -0.031   5.931  0.5384  1.2998 -1.0251
  5514G12c C01N 2467  11.120   0.057   5.779  0.7518  0.1521 -1.2571
  5514G12c O006 2468  11.010   0.011   5.716  0.4831 -1.2199 -0.6866
  5514G12c C01T 2469  11.006  -0.122   5.652 -0.5135  0.9752  1.2902
  5514G12c H00K 2470  10.914  -0.158   5.607  1.0500  0.1876 -1.3919
  5514G12c H00J 2471  11.057  -0.212   5.689  6.5342  3.5796 -1.2285
  5514G12c H00I 2472  11.091  -0.127   5.583  1.3948  5.9194  3.0706
  5514G12c C01M 2473  11.239   0.126   5.727 -0.4575 -0.8666 -0.1909
  5514G12c C020 2474  11.715   0.219   5.775 -0.7657 -0.0505 -0.0294
  5514G12c C021 2475  11.718   0.265   5.645 -0.3867  0.0456 -0.6066
  5514G12c C01L 2476  11.356   0.119   5.807  1.1676 -1.1177 -1.6522
  5514G12c O007 2477  11.242   0.219   5.621 -1.1991 -0.4546  0.0584
  5514G12c C022 2478  11.603   0.259   5.563  0.3117  0.3438 -0.4508
  5514G12c C023 2479  11.785   0.375   5.607 -1.8256 -1.2401 -0.6957
  5514G12c C00G 2480  11.877   0.621   5.565  3.1723 -0.4260  0.9158
  5514G12c C00E 2481  11.930   0.802   5.419  1.7735  0.0210 -0.8714
  5514G12c O00A 2482  12.023   0.893   5.389  0.2842 -0.4313 -0.6247
  5514G12c C024 2483  12.152   0.820   5.385 -0.8117  1.2173 -1.8818
  5514G12c H00V 2484  12.181   0.734   5.446  4.2357  4.9930  1.4949
  5514G12c H00U 2485  12.171   0.796   5.281 -3.3376 -3.1445 -1.4630
  5514G12c H00T 2486  12.208   0.903   5.429 -0.1902  0.8096 -1.8979
  5524G12c C00D 2487   9.265   1.103   2.471  0.5468  1.1611  0.7598
  5524G12c O00B 2488   9.397   1.042   2.461 -0.4643 -0.2096  0.8682
  5524G12c C025 2489   9.486   1.053   2.551  0.1927 -0.1268 -1.1366
  5524G12c C026 2490   9.442   0.986   2.699  1.5532  1.2337  0.9905
  5524G12c H00Y 2491   9.513   0.915   2.744 -0.8124 -1.9261 -0.0566
  5524G12c H00X 2492   9.354   0.923   2.688  1.8912 -0.0156  4.5269
  5524G12c O00C 2493   9.425   1.096   2.805 -0.1812  0.8553  0.3120
  5524G12c H00W 2494   9.351   1.153   2.789  2.2036  4.5673  1.7950
  5524G12c C027 2495   9.607   1.108   2.534 -0.5238 -0.7361  0.2400
  5524G12c O00D 2496   9.691   1.151   2.636 -0.5830  1.8508  0.1693
  5524G12c H00Z 2497   9.684   1.105   2.718  2.1730 -3.1174 -2.1675
  5524G12c C028 2498   9.652   1.129   2.400  0.1582  1.7000 -0.8164
  5524G12c C029 2499   9.660   1.016   2.308  0.0863 -0.7573 -0.0313
  5524G12c H010 2500   9.644   0.910   2.324  0.9718 -0.7845  0.6823
  5524G12c C02T 2501   9.734   1.031   2.198  0.0632  0.2506 -1.4175
  5524G12c H01O 2502   9.770   0.969   2.117 -2.2841  2.3461 -4.2188
  5524G12c C02S 2503   9.792   1.155   2.164  0.5333  1.4495 -0.3558
  5524G12c O00J 2504   9.841   1.180   2.051 -0.2312 -1.2742 -1.2016
  5524G12c H01P 2505   9.851   1.274   2.061  2.2247 -1.8357  2.5104
  5524G12c C02R 2506   9.762   1.272   2.233 -0.0626 -1.1143  0.6697
  5524G12c O00I 2507   9.795   1.398   2.171 -2.3325 -1.2762 -0.9934
  5524G12c C02Q 2508   9.726   1.525   2.209  0.2895 -0.0563  0.5896
  5524G12c H01N 2509   9.782   1.579   2.285 -0.6390  1.9664 -0.1010
  5524G12c H01R 2510   9.642   1.513   2.278 -4.9743  6.7291 -3.8642
  5524G12c H01Q 2511   9.704   1.575   2.114 -0.7465  0.8643  1.3089
  5524G12c C02A 2512   9.700   1.251   2.360  0.6976  0.1884 -0.8682
  5524G12c H011 2513   9.705   1.332   2.430 -3.4840  4.7600 -5.4688
  5524G12c C00C 2514   9.238   1.218   2.544 -1.3385 -2.0964  0.6695
  5524G12c H012 2515   9.322   1.262   2.594 -1.8789  0.8155 -0.8849
  5524G12c C00B 2516   9.105   1.273   2.566 -1.6647  0.8770 -0.5147
  5524G12c C00A 2517   9.078   1.386   2.644  0.6538  1.9953 -1.0891
  5524G12c C009 2518   9.128   1.440   2.771  0.0637  1.2083 -0.3235
  5524G12c C008 2519   9.240   1.417   2.851  1.5720 -0.5668 -0.5040
  5524G12c H013 2520   9.321   1.359   2.809 -0.9628 -4.0287 -0.8342
  5524G12c C007 2521   9.239   1.429   2.994 -0.1129 -1.1287 -0.8178
  5524G12c H014 2522   9.324   1.393   3.050 -0.9560  4.2956  4.3976
  5524G12c C006 2523   9.119   1.486   3.048  1.0864  0.9973  1.6754
  5524G12c C005 2524   9.011   1.523   2.970 -1.1745 -0.8403  0.5795
  5524G12c C004 2525   8.890   1.568   3.009 -0.2477 -0.2562  0.9548
  5524G12c C003 2526   8.789   1.573   2.924  1.1236  0.5451 -0.7757
  5524G12c C002 2527   8.671   1.629   2.989 -0.8496  0.3916 -1.4086
  5524G12c C001 2528   8.531   1.613   2.958  1.0515  2.9485 -1.3390
  5524G12c C00M 2529   8.487   1.489   2.893 -0.3366  2.0210 -0.6729
  5524G12c C00L 2530   8.553   1.434   2.788  0.0676 -0.8470  0.1160
  5524G12c C00R 2531   8.522   1.308   2.739 -0.6110 -0.1650  1.8544
  5524G12c C00Q 2532   8.434   1.205   2.771 -0.4280  0.7524 -2.3465
  5524G12c C00V 2533   8.451   1.084   2.696 -1.0911 -0.8016  0.1925
  5524G12c C00U 2534   8.548   1.065   2.597  0.1097 -0.1993 -1.4429
  5524G12c C00T 2535   8.645   1.167   2.580  1.4243  0.2035 -0.0259
  5524G12c C016 2536   8.763   1.149   2.502  0.1399  0.0759  0.2413
  5524G12c C015 2537   8.795   1.021   2.469 -1.1655  0.4729  0.0255
  5524G12c C010 2538   8.709   0.919   2.484  1.1903 -0.4814 -1.3284
  5524G12c C011 2539   8.740   0.779   2.438  0.8642 -0.5408 -0.4944
  5524G12c H005 2540   8.667   0.702   2.418  0.1457  0.9125 -3.8617
  5524G12c C012 2541   8.876   0.749   2.429 -1.8667  0.9782 -0.9655
  5524G12c C017 2542   8.921   0.613   2.382  1.4917 -0.0056 -1.0964
  5524G12c O002 2543   8.949   0.577   2.244 -1.0000  0.7109  1.6841
  5524G12c H004 2544   8.923   0.652   2.192  1.1309 -0.9245 -1.9845
  5524G12c C018 2545   8.947   0.518   2.494 -0.2964  0.4594 -0.7388
  5524G12c O001 2546   8.957   0.561   2.633 -1.1986  0.2899  0.8407
  5524G12c H003 2547   8.962   0.478   2.680 -2.7459  1.0460  2.4238
  5524G12c C019 2548   8.982   0.364   2.486 -1.3357  0.7005  0.3808
  5524G12c H002 2549   8.894   0.326   2.435  0.2987  2.3699 -3.9208
  5524G12c H001 2550   9.052   0.349   2.404 -2.9899  2.7454 -1.4836
  5524G12c O000 2551   8.971   0.309   2.620 -1.4508  0.6256  0.2524
  5524G12c C01A 2552   9.024   0.183   2.630  0.6520  0.3144  0.4380
  5524G12c C02K 2553   8.941   0.095   2.706 -0.8048  0.4540 -0.1776
  5524G12c O00G 2554   8.834   0.143   2.764 -0.5973  1.1548 -0.6861
  5524G12c C02M 2555   8.721   0.188   2.681  0.6976  0.1106 -0.8399
  5524G12c H01G 2556   8.644   0.111   2.691  1.9238 -0.8447  1.7206
  5524G12c H01F 2557   8.734   0.194   2.573 -6.7097 -1.6229 -2.1274
  5524G12c H01E 2558   8.675   0.285   2.700 -0.5907 -0.2644 -1.9248
  5524G12c C02J 2559   8.991  -0.027   2.757  1.6823 -2.0511  0.3800
  5524G12c H01H 2560   8.918  -0.069   2.825  1.0824 -4.5105 -1.7173
  5524G12c C02I 2561   9.112  -0.071   2.720 -0.4124 -1.5663 -1.3822
  5524G12c C02N 2562   9.168  -0.162   2.814  0.4280 -0.8628  0.1411
  5524G12c H01M 2563   9.185  -0.120   2.912 -2.4755  2.1109 -0.5590
  5524G12c C02O 2564   9.241  -0.274   2.766  0.4434 -0.4036  1.2334
  5524G12c H01L 2565   9.268  -0.287   2.662  5.0408  3.6481  1.7292
  5524G12c C02P 2566   9.310  -0.388   2.852  1.4452  1.4888 -0.0540
  5524G12c H01K 2567   9.244  -0.468   2.819  0.1877 -1.3532  8.0821
  5524G12c H01J 2568   9.417  -0.392   2.830  1.4275  4.7928 -1.0399
  5524G12c O00H 2569   9.296  -0.351   3.008  0.4098  0.2112 -1.1213
  5524G12c H01I 2570   9.318  -0.423   3.065 -1.1399 -0.3097 -1.1675
  5524G12c C02H 2571   9.177  -0.012   2.610  0.1710 -1.6663  0.9074
  5524G12c H01C 2572   9.274  -0.044   2.577 -0.3406  1.5249 -4.1850
  5524G12c C02L 2573   9.136   0.120   2.569 -0.2718  0.5048 -0.3303
  5524G12c H01D 2574   9.193   0.176   2.497 -2.1639  0.7332 -1.6891
  5524G12c C013 2575   8.965   0.857   2.443 -1.0871  0.5117  1.7239
  5524G12c H000 2576   9.072   0.847   2.432 -0.8781 -2.8337  5.7056
  5524G12c C014 2577   8.932   0.982   2.449  0.5549  1.3933  1.2789
  5524G12c C00F 2578   9.035   1.085   2.446  1.6106 -0.3615  0.4037
  5524G12c C00H 2579   8.865   1.229   2.535 -1.8445  0.4826 -0.5656
  5524G12c C00I 2580   8.840   1.355   2.591 -0.8575  0.2074  0.2253
  5524G12c C00J 2581   8.697   1.384   2.616  0.4833  0.2940 -0.2532
  5524G12c C00Z 2582   8.574   0.946   2.527 -1.2692  0.8605  2.5058
  5524G12c C00Y 2583   8.459   0.851   2.552  0.2627  0.0254 -0.2017
  5524G12c H006 2584   8.461   0.763   2.488  3.0881 -1.6259  2.0084
  5524G12c C00X 2585   8.352   0.853   2.656 -0.3931 -0.3868 -0.2206
  5524G12c O003 2586   8.252   0.752   2.685 -1.0906 -0.1177  1.1606
  5524G12c C01B 2587   8.307   0.661   2.793  1.2544  0.1433 -0.0841
  5524G12c H009 2588   8.379   0.702   2.864  1.4442  5.0919 -2.9370
  5524G12c H008 2589   8.222   0.604   2.832 -2.0400  1.4988 -4.8234
  5524G12c H007 2590   8.392   0.618   2.740 -0.4707 -3.3933 -0.1697
  5524G12c C00W 2591   8.374   0.978   2.724 -0.3301 -0.3527 -0.5079
  5524G12c O004 2592   8.274   0.974   2.816 -0.2903  0.0913  0.9135
  5524G12c C01C 2593   8.226   1.107   2.840  0.5476 -1.2238 -0.7947
  5524G12c H00A 2594   8.122   1.105   2.814 -1.2596 -0.6603  5.5581
  5524G12c C00P 2595   8.336   1.205   2.878 -0.5633  0.1104  0.2973
  5524G12c C00O 2596   8.344   1.289   2.998 -0.0185  0.2078 -0.6692
  5524G12c C01D 2597   8.271   1.252   3.117 -1.6486  1.2463 -0.6578
  5524G12c H00S 2598   8.242   1.149   3.126 -0.3498  0.6000 -3.4076
  5524G12c C01E 2599   8.311   1.305   3.245 -0.3758  0.1744 -0.3176
  5524G12c O008 2600   8.252   1.246   3.361  0.0025  0.7327  0.8121
  5524G12c C01V 2601   8.190   1.121   3.367 -0.2683 -0.1489 -1.8849
  5524G12c C01Z 2602   8.041   1.131   3.346 -1.4103 -0.8089  1.3115
  5524G12c H00R 2603   8.029   1.203   3.427  0.3813  2.0366 -0.8698
  5524G12c H00Q 2604   8.038   1.221   3.285 -1.2774  0.1891  2.7570
  5524G12c O009 2605   7.970   1.023   3.347  0.3267 -1.4395  0.7996
  5524G12c H00P 2606   7.879   1.045   3.364 -1.1991 -3.0859 -4.3280
  5524G12c C01W 2607   8.249   1.000   3.360  0.6395  2.3130  0.5365
  5524G12c H00O 2608   8.206   0.910   3.317  2.8959  1.7788 -0.6961
  5524G12c C01X 2609   8.398   0.970   3.399 -0.1238 -0.5199 -1.8427
  5524G12c H00N 2610   8.420   0.931   3.299  2.9867  1.9442 -2.1752
  5524G12c H00M 2611   8.448   1.066   3.392  0.3474 -0.8966 -4.1436
  5524G12c C01Y 2612   8.413   0.893   3.528  1.2509  1.9344  0.2877
  5524G12c C02D 2613   8.379   0.961   3.640 -0.1382 -0.0152  0.6995
  5524G12c H019 2614   8.328   1.057   3.640 -2.5611 -1.1023  6.1100
  5524G12c C02C 2615   8.407   0.919   3.766 -0.2710 -0.1506  0.2329
  5524G12c H01A 2616   8.381   0.976   3.854  4.5512  0.9589  1.0886
  5524G12c C02B 2617   8.470   0.785   3.780  1.8939  0.0453 -0.3837
  5524G12c O00E 2618   8.440   0.693   3.865  1.0362  0.7942  0.3835
  5524G12c H01B 2619   8.495   0.623   3.833  4.8624  4.0532 -0.5118
  5524G12c C02F 2620   8.511   0.711   3.671 -1.4062  1.0416  0.5901
  5524G12c O00F 2621   8.574   0.586   3.698  0.1081 -1.8720 -0.4259
  5524G12c C02G 2622   8.660   0.531   3.584 -0.0641 -1.6081 -0.6915
  5524G12c H017 2623   8.642   0.426   3.563  0.4571 -1.9079  0.3905
  5524G12c H016 2624   8.762   0.568   3.593 -0.7656 -0.7678  7.1530
  5524G12c H015 2625   8.639   0.574   3.485 -1.6143  4.1397  1.9053
  5524G12c C02E 2626   8.476   0.755   3.540  1.4668 -0.6213 -1.4773
  5524G12c H018 2627   8.507   0.717   3.444 -0.2412  1.4242 -2.8618
  5524G12c C01F 2628   8.379   1.444   3.233  0.3791 -0.7107 -1.1034
  5524G12c C01G 2629   8.418   1.513   3.341 -0.3907 -0.7247  0.3833
  5524G12c H00L 2630   8.421   1.461   3.435  1.0260  4.7022  3.5275
  5524G12c C01H 2631   8.523   1.604   3.311 -1.0205  0.2307 -1.1373
  5524G12c H00B 2632   8.588   1.642   3.389  0.4065 -1.6049 -1.3927
  5524G12c C01I 2633   8.539   1.654   3.190  1.4318 -0.9882  1.2622
  5524G12c C01U 2634   8.400   1.503   3.102 -0.7354 -0.0268 -0.4510
  5524G12c C00S 2635   8.612   1.285   2.640  0.7472 -0.1547  0.4400
  5524G12c C00K 2636   8.661   1.486   2.718  1.3005 -0.8161  0.9123
  5524G12c C00N 2637   8.390   1.427   2.984  0.8399  0.7738 -0.7673
  5524G12c C000 2638   8.455   1.626   3.077  0.2630  0.3763  1.4511
  5524G12c C01J 2639   8.665   1.691   3.124 -3.3716 -2.4008 -0.9580
  5524G12c C01K 2640   8.784   1.683   3.198  1.5336 -1.4464 -0.1434
  5524G12c C01P 2641   8.812   1.757   3.322 -1.5970 -1.0930 -1.6167
  5524G12c C01Q 2642   8.742   1.890   3.359 -0.5804  1.5892  2.0289
  5524G12c H00G 2643   8.710   1.900   3.462 -0.4333 -4.4518  2.8340
  5524G12c C01R 2644   8.677   1.958   3.247 -0.9779 -0.8722  1.4576
  5524G12c H00F 2645   8.677   1.947   3.139  1.2381  1.0900  1.1825
  5524G12c C01S 2646   8.591   2.080   3.298  0.0645 -0.7232  0.5029
  5524G12c H00E 2647   8.607   2.090   3.405 -0.6991  5.2819  0.2263
  5524G12c H00D 2648   8.614   2.168   3.237  2.1880  0.8535  3.4315
  5524G12c O005 2649   8.460   2.039   3.275  0.5341 -0.9975 -0.5773
  5524G12c H00C 2650   8.464   2.017   3.183  4.3390 -6.0720  0.6167
  5524G12c C01O 2651   8.921   1.703   3.398 -0.1560 -0.5436 -0.3107
  5524G12c H00H 2652   8.895   1.740   3.496 -2.5048 -2.2385 -0.2422
  5524G12c C01N 2653   8.997   1.616   3.348  0.3828  1.1857 -1.7852
  5524G12c O006 2654   9.057   1.518   3.437  0.0452  0.1177  0.6343
  5524G12c C01T 2655   9.026   1.526   3.568 -0.1519 -1.5899 -0.7967
  5524G12c H00K 2656   9.062   1.614   3.621  2.4760 -2.1787 -1.5478
  5524G12c H00J 2657   9.057   1.428   3.605  0.1658 -3.0524 -4.7238
  5524G12c H00I 2658   8.921   1.517   3.597  0.4164 -4.8262  0.4269
  5524G12c C01M 2659   9.007   1.589   3.219  0.6639 -0.9242  1.1913
  5524G12c C020 2660   8.789   1.534   2.783 -0.3597  0.8900  0.1216
  5524G12c C021 2661   8.927   1.511   2.745  1.6861 -1.2739  2.7392
  5524G12c C01L 2662   8.883   1.607   3.140  0.9043 -1.2688 -0.1312
  5524G12c O007 2663   9.114   1.513   3.179 -0.5675 -0.2836  0.4602
  5524G12c C022 2664   9.026   1.515   2.826 -0.7881  0.7406 -0.0459
  5524G12c C023 2665   8.946   1.437   2.631  0.9609 -1.1270  0.1008
  5524G12c C00G 2666   9.000   1.212   2.487 -0.3312  1.6501  0.6796
  5524G12c C00E 2667   9.158   1.066   2.394  0.0170 -0.2421  1.0967
  5524G12c O00A 2668   9.177   1.013   2.267  0.3571 -0.6919  0.7963
  5524G12c C024 2669   9.289   1.050   2.191 -1.4001  0.4148 -1.2880
  5524G12c H00V 2670   9.383   1.084   2.235 -3.7384 -2.0728  6.3979
  5524G12c H00U 2671   9.248   1.115   2.114 -1.1403  0.1142 -1.6865
  5524G12c H00T 2672   9.320   0.965   2.130  1.8819  2.8845 -3.2456
  5534G12c C00D 2673   1.876   1.367   5.423 -0.4072 -1.0804  0.9264
  5534G12c O00B 2674   1.755   1.310   5.362  0.1463  0.0651  0.3733
  5534G12c C025 2675   1.695   1.194   5.410  0.6512  0.3292  2.1214
  5534G12c C026 2676   1.755   1.058   5.373 -0.1235 -0.0902  1.8598
  5534G12c H00Y 2677   1.808   1.047   5.279 -0.7269  0.8942  1.3963
  5534G12c H00X 2678   1.687   0.973   5.382 -1.1007  0.5098  0.2316
  5534G12c O00C 2679   1.844   1.003   5.474  1.5041 -0.7954  0.1890
  5534G12c H00W 2680   1.882   0.922   5.443  4.0230 -0.5196  2.3752
  5534G12c C027 2681   1.599   1.208   5.496  0.7393  0.6298 -0.4845
  5534G12c O00D 2682   1.552   1.332   5.538  0.3922  0.7536  0.5530
  5534G12c H00Z 2683   1.583   1.380   5.463  2.7589 -3.9555 -1.6792
  5534G12c C028 2684   1.505   1.093   5.531 -1.8028 -1.0251  0.0066
  5534G12c C029 2685   1.552   0.967   5.583 -0.1691 -1.0975  0.1862
  5534G12c H010 2686   1.651   0.936   5.611  1.8808 -1.4003 -6.5664
  5534G12c C02T 2687   1.456   0.866   5.598 -0.6348  0.4391  0.9876
  5534G12c H01O 2688   1.493   0.767   5.621 -0.8040  0.1121 -0.1230
  5534G12c C02S 2689   1.314   0.895   5.595 -0.4291  0.0542  1.3023
  5534G12c O00J 2690   1.220   0.789   5.612 -0.2218  0.2515  0.2315
  5534G12c H01P 2691   1.200   0.805   5.703  0.7354 -8.8720  2.5612
  5534G12c C02R 2692   1.263   1.013   5.553 -0.6335 -0.6484 -0.3161
  5534G12c O00I 2693   1.130   1.030   5.549 -1.4077 -0.3888 -1.8818
  5534G12c C02Q 2694   1.093   1.105   5.430 -0.7264 -1.5464 -0.2022
  5534G12c H01N 2695   1.121   1.207   5.406 -3.4348  0.2647  3.7320
  5534G12c H01R 2696   0.988   1.131   5.423  0.3587  2.3273 -4.6801
  5534G12c H01Q 2697   1.122   1.031   5.355  1.1025 -0.0273 -1.0391
  5534G12c C02A 2698   1.366   1.107   5.504  0.4974 -0.9659 -0.1711
  5534G12c H011 2699   1.354   1.184   5.428 -0.5307  0.6031  1.5396
  5534G12c C00C 2700   1.919   1.339   5.565 -0.8938  0.1131  2.6691
  5534G12c H012 2701   1.855   1.256   5.592 -1.1125 -0.3414  0.8388
  5534G12c C00B 2702   2.024   1.399   5.626  0.5762  1.7345  0.1492
  5534G12c C00A 2703   2.069   1.390   5.772  0.3735  0.1927 -0.3488
  5534G12c C009 2704   2.011   1.337   5.900  0.2303  1.2948  1.0788
  5534G12c C008 2705   1.875   1.318   5.934  0.7295 -0.4689 -0.5036
  5534G12c H013 2706   1.806   1.347   5.856  0.0313 -1.5968 -0.3166
  5534G12c C007 2707   1.836   1.299   6.067 -0.6179 -0.6671  0.7371
  5534G12c H014 2708   1.734   1.283   6.101 -0.2997 -0.3428  1.8709
  5534G12c C006 2709   1.935   1.322   6.177  0.4296  0.1435  0.4642
  5534G12c C005 2710   2.055   1.379   6.133 -0.1918 -1.0092  0.3325
  5534G12c C004 2711   2.136   1.467   6.218  0.5372  0.7390  0.4748
  5534G12c C003 2712   2.236   1.546   6.153  0.7053 -2.6156 -0.5345
  5534G12c C002 2713   2.291   1.649   6.238  0.1967  0.5354  1.0322
  5534G12c C001 2714   2.385   1.760   6.228  0.3343  0.2556  1.7413
  5534G12c C00M 2715   2.388   1.829   6.099 -0.4541 -0.8830  0.6338
  5534G12c C00L 2716   2.422   1.766   5.982  0.4235  0.2877 -0.1821
  5534G12c C00R 2717   2.414   1.840   5.851  0.4045 -1.5344 -1.8507
  5534G12c C00Q 2718   2.390   1.983   5.814 -1.4795 -0.9514 -0.1498
  5534G12c C00V 2719   2.378   2.013   5.679  0.6459 -0.7392 -0.3756
  5534G12c C00U 2720   2.327   1.913   5.589 -1.1080 -0.3780  0.1489
  5534G12c C00T 2721   2.301   1.784   5.619 -1.4935 -2.0113 -0.2611
  5534G12c C016 2722   2.234   1.688   5.552  0.2995 -0.1150  0.0494
  5534G12c C015 2723   2.182   1.728   5.429  2.3701 -0.9315  0.9492
  5534G12c C010 2724   2.224   1.854   5.365 -2.1717 -1.6670 -0.7277
  5534G12c C011 2725   2.243   1.857   5.231  0.2675  0.8600 -0.0951
  5534G12c H005 2726   2.312   1.914   5.172  2.2733 -2.3293 -0.9457
  5534G12c C012 2727   2.209   1.737   5.159 -0.5009 -0.8630  1.0059
  5534G12c C017 2728   2.244   1.736   5.012  0.3925  0.6859 -0.3454
  5534G12c O002 2729   2.383   1.742   4.981 -1.2594 -1.1344  1.1123
  5534G12c H004 2730   2.391   1.836   4.976  3.7652 -1.5906 -1.8071
  5534G12c C018 2731   2.141   1.735   4.914 -0.5252 -1.0804 -0.5467
  5534G12c O001 2732   2.016   1.779   4.929 -0.6095  0.8300 -1.1780
  5534G12c H003 2733   2.003   1.789   4.836  2.9878 -0.2517 -1.8837
  5534G12c C019 2734   2.159   1.712   4.764  0.5521 -1.8667 -0.5468
  5534G12c H002 2735   2.254   1.669   4.732 -0.5125 -3.6113 -1.4856
  5534G12c H001 2736   2.080   1.660   4.709  1.0998  3.0537 -6.4875
  5534G12c O000 2737   2.159   1.848   4.709  0.6673  0.4318 -0.0427
  5534G12c C01A 2738   2.168   1.862   4.559  0.2971  0.7390  0.5159
  5534G12c C02K 2739   2.157   1.985   4.502 -0.7048 -0.2675 -0.4200
  5534G12c O00G 2740   2.126   2.096   4.584  0.5461  1.3801  0.5169
  5534G12c C02M 2741   2.089   2.081   4.728  0.8222  0.5132 -1.0282
  5534G12c H01G 2742   2.005   2.013   4.741  1.3301  0.0638 -0.1052
  5534G12c H01F 2743   2.014   2.159   4.738  1.2006  1.0619 -2.3556
  5534G12c H01E 2744   2.166   2.075   4.804 -1.0210 -0.6965  0.7928
  5534G12c C02J 2745   2.223   2.027   4.388 -0.7545 -3.2094  0.9588
  5534G12c H01H 2746   2.228   2.127   4.348 -0.9222 -3.8562 -0.7354
  5534G12c C02I 2747   2.272   1.937   4.285  0.1664 -0.3891  0.2393
  5534G12c C02N 2748   2.325   1.977   4.161  0.1942 -0.1011  1.1264
  5534G12c H01M 2749   2.421   1.927   4.151  0.7056  0.2400  3.8327
  5534G12c C02O 2750   2.302   2.094   4.106  0.2619  0.0679  0.3785
  5534G12c H01L 2751   2.215   2.157   4.122 -1.7128 -1.4164 -3.8328
  5534G12c C02P 2752   2.374   2.137   3.990 -1.1968  0.3921  1.4801
  5534G12c H01K 2753   2.386   2.243   4.011  1.5661 -0.0602  2.4153
  5534G12c H01J 2754   2.467   2.080   3.990 -5.6602 -7.6278  0.8920
  5534G12c O00H 2755   2.301   2.102   3.887  1.1160  0.0766  0.2370
  5534G12c H01I 2756   2.250   2.040   3.935  6.4701 -5.6294 -0.7413
  5534G12c C02H 2757   2.290   1.809   4.341  0.7327  1.1358 -0.1644
  5534G12c H01C 2758   2.316   1.733   4.270 -2.0745  0.5572 -0.6213
  5534G12c C02L 2759   2.235   1.763   4.469  0.4405  1.5279  1.3841
  5534G12c H01D 2760   2.270   1.672   4.514 -3.0452  0.4030  1.9373
  5534G12c C013 2761   2.144   1.631   5.216 -0.4017 -0.9295  0.0006
  5534G12c H000 2762   2.152   1.540   5.159 -3.8502 -0.4420 -1.4075
  5534G12c C014 2763   2.114   1.637   5.352  0.5456  1.0840  0.0164
  5534G12c C00F 2764   2.064   1.517   5.423  0.0299 -0.0568 -0.2660
  5534G12c C00H 2765   2.193   1.575   5.624 -1.0990  0.1338  0.6797
  5534G12c C00I 2766   2.237   1.550   5.756  0.5184  0.3890  1.2806
  5534G12c C00J 2767   2.321   1.641   5.812  2.3885 -0.4341  0.4783
  5534G12c C00Z 2768   2.298   1.939   5.450  0.5629 -0.2703  1.9968
  5534G12c C00Y 2769   2.333   2.066   5.409  0.0561 -0.4489 -0.1602
  5534G12c H006 2770   2.310   2.088   5.306  2.9135  0.0047 -0.7453
  5534G12c C00X 2771   2.385   2.163   5.503 -0.0354 -1.7547  0.4593
  5534G12c O003 2772   2.381   2.291   5.453  2.6924  0.0824  0.9592
  5534G12c C01B 2773   2.465   2.309   5.337  0.8277  2.3584 -0.4503
  5534G12c H009 2774   2.560   2.290   5.388  0.6101  3.6369  0.4685
  5534G12c H008 2775   2.473   2.417   5.323 -0.0989  3.3845  5.3314
  5534G12c H007 2776   2.469   2.253   5.244 -0.3163 -2.3771  2.1439
  5534G12c C00W 2777   2.392   2.149   5.634  0.3992  0.5351 -1.3033
  5534G12c O004 2778   2.395   2.262   5.714  2.1067 -0.4802 -0.7239
  5534G12c C01C 2779   2.360   2.222   5.847  1.1826  0.7305 -0.0837
  5534G12c H00A 2780   2.302   2.309   5.873 -6.5182 -2.7321 -4.1948
  5534G12c C00P 2781   2.377   2.090   5.912  0.0742 -1.4883  0.1417
  5534G12c C00O 2782   2.357   2.092   6.063  0.6386 -0.5312 -1.0710
  5534G12c C01D 2783   2.322   2.213   6.134 -1.2410  0.1651 -0.7520
  5534G12c H00S 2784   2.302   2.308   6.088 -3.8302 -1.4570 -3.1418
  5534G12c C01E 2785   2.292   2.202   6.276 -1.0115 -0.6805 -0.7295
  5534G12c O008 2786   2.235   2.305   6.351 -0.3491 -0.9843  0.7072
  5534G12c C01V 2787   2.307   2.371   6.444 -0.0026 -1.5991  0.8126
  5534G12c C01Z 2788   2.223   2.486   6.502  0.4999  0.6118 -0.6738
  5534G12c H00R 2789   2.120   2.473   6.468 -0.5113  1.2791  1.9975
  5534G12c H00Q 2790   2.223   2.426   6.593  5.6706  4.6406  2.2658
  5534G12c O009 2791   2.307   2.612   6.530  0.8401  0.2658  2.0454
  5534G12c H00P 2792   2.387   2.574   6.563  3.1741 -2.5892 -5.9024
  5534G12c C01W 2793   2.430   2.352   6.496 -0.0787 -0.6208  1.1736
  5534G12c H00O 2794   2.469   2.391   6.588 -3.1986 -2.2372  3.2860
  5534G12c C01X 2795   2.542   2.271   6.442 -0.0915  0.9235 -0.6398
  5534G12c H00N 2796   2.516   2.171   6.408 -2.7589  0.0109  3.6712
  5534G12c H00M 2797   2.610   2.222   6.512 -2.2295  1.3271  1.7935
  5534G12c C01Y 2798   2.603   2.334   6.326  0.3698  0.7095 -0.2718
  5534G12c C02D 2799   2.635   2.279   6.198  1.1614  0.5906 -1.4958
  5534G12c H019 2800   2.620   2.174   6.174 -2.0261  0.0792  2.2609
  5534G12c C02C 2801   2.672   2.344   6.088 -2.2883  0.2940  1.4600
  5534G12c H01A 2802   2.680   2.276   6.004  2.0899  0.3524  1.7361
  5534G12c C02B 2803   2.698   2.480   6.098 -0.6129 -0.0883  0.3648
  5534G12c O00E 2804   2.750   2.551   5.993 -0.5366 -0.0456 -0.9888
  5534G12c H01B 2805   2.773   2.624   6.048  0.0570 -0.8723 -0.1066
  5534G12c C02F 2806   2.694   2.541   6.229 -1.2266 -0.9469 -1.1996
  5534G12c O00F 2807   2.728   2.675   6.208 -0.9066  1.1060  1.0865
  5534G12c C02G 2808   2.783   2.743   6.306 -0.3094  0.8404 -0.5528
  5534G12c H017 2809   2.712   2.728   6.387 -4.4508 -0.7396 -4.2414
  5534G12c H016 2810   2.783   2.852   6.305  7.6521  1.1215  0.5624
  5534G12c H015 2811   2.868   2.703   6.361 -0.9002  3.1451  2.1897
  5534G12c C02E 2812   2.644   2.470   6.351  1.2775  2.3892  0.3991
  5534G12c H018 2813   2.616   2.537   6.431  0.2586  0.9150  1.2848
  5534G12c C01F 2814   2.293   2.078   6.347 -0.0602 -0.4210 -0.3838
  5534G12c C01G 2815   2.243   2.043   6.479  1.0762 -1.0760 -1.4738
  5534G12c H00L 2816   2.207   2.101   6.563  1.8438  2.9848 -3.7927
  5534G12c C01H 2817   2.225   1.899   6.502 -2.3772  0.9482  0.2171
  5534G12c H00B 2818   2.163   1.881   6.588 -4.8307  0.6051 -1.5948
  5534G12c C01I 2819   2.281   1.802   6.424 -2.1076 -1.9209 -0.1595
  5534G12c C01U 2820   2.361   1.970   6.284  0.2068  0.3921  1.0718
  5534G12c C00S 2821   2.352   1.759   5.753 -0.9421  0.9723 -1.4271
  5534G12c C00K 2822   2.332   1.645   5.952 -1.3230 -0.3349 -0.4109
  5534G12c C00N 2823   2.377   1.974   6.138 -2.1525  0.8512 -1.5647
  5534G12c C000 2824   2.384   1.844   6.343 -0.6738 -0.9277  0.4799
  5534G12c C01J 2825   2.248   1.665   6.383 -0.0129  1.1844 -0.0871
  5534G12c C01K 2826   2.164   1.558   6.444 -0.5585 -0.6307 -1.5896
  5534G12c C01P 2827   2.130   1.548   6.583 -1.2862 -0.4042  0.6443
  5534G12c C01Q 2828   2.201   1.633   6.686  0.7195  0.7144  0.6292
  5534G12c H00G 2829   2.147   1.687   6.762 -2.0825 -2.2398  0.8240
  5534G12c C01R 2830   2.327   1.608   6.690 -1.1966 -1.3035  0.6579
  5534G12c H00F 2831   2.386   1.546   6.624  3.2345  4.0860 -0.9033
  5534G12c C01S 2832   2.422   1.682   6.778  0.3112  0.1502 -0.4874
  5534G12c H00E 2833   2.513   1.664   6.721 -1.7250 -0.5265 -3.5919
  5534G12c H00D 2834   2.410   1.788   6.754 -3.2273 -0.8737 -3.7585
  5534G12c O005 2835   2.424   1.656   6.922  1.0405 -0.7086 -0.3254
  5534G12c H00C 2836   2.451   1.573   6.960  0.5133 -0.1855  1.2525
  5534G12c C01O 2837   2.035   1.459   6.626  1.8368 -0.2255 -0.0401
  5534G12c H00H 2838   1.997   1.414   6.717  6.5966 -5.7623 -0.4885
  5534G12c C01N 2839   1.970   1.388   6.536 -0.4663  0.9615 -0.0601
  5534G12c O006 2840   1.876   1.317   6.580  0.6357  1.0565 -1.1589
  5534G12c C01T 2841   1.905   1.187   6.600 -0.3328 -0.1209 -0.6410
  5534G12c H00K 2842   1.822   1.129   6.641  1.0143 -0.1375  2.1255
  5534G12c H00J 2843   2.007   1.154   6.616 -1.0971  0.3636  6.6412
  5534G12c H00I 2844   1.881   1.167   6.495  3.1827 -1.3256 -1.2803
  5534G12c C01M 2845   1.986   1.390   6.398  1.1931 -0.0291  0.5792
  5534G12c C020 2846   2.251   1.551   6.016 -0.2545 -1.7975  0.4264
  5534G12c C021 2847   2.193   1.436   5.956 -1.2342 -0.1300  0.4614
  5534G12c C01L 2848   2.095   1.480   6.351 -2.3345 -0.8070  0.5800
  5534G12c O007 2849   1.909   1.325   6.306 -1.2220 -0.7694 -0.7751
  5534G12c C022 2850   2.105   1.357   5.999 -1.6449  1.1950  1.7004
  5534G12c C023 2851   2.200   1.430   5.811 -0.9413  0.3827  0.0159
  5534G12c C00G 2852   2.102   1.492   5.559  0.8854 -1.2906 -0.9760
  5534G12c C00E 2853   1.943   1.462   5.356 -0.1554 -1.0595 -0.3748
  5534G12c O00A 2854   1.899   1.530   5.238 -0.3509  1.5787  0.5759
  5534G12c C024 2855   1.775   1.556   5.194 -1.3754 -0.7133  0.2112
  5534G12c H00V 2856   1.702   1.510   5.262  3.7245 -4.3228  3.6015
  5534G12c H00U 2857   1.773   1.665   5.199  5.5695 -0.1988 -2.4670
  5534G12c H00T 2858   1.788   1.502   5.100  2.4718 -2.8847  1.8920
  5544G12c C00D 2859   5.424   2.478  11.374 -0.1841  0.5819  0.0522
  5544G12c O00B 2860   5.395   2.421  11.250  0.1718  0.5930  0.7294
  5544G12c C025 2861   5.308   2.470  11.177  1.6583 -0.1254  1.0324
  5544G12c C026 2862   5.170   2.427  11.188 -1.9734  0.6231  0.2712
  5544G12c H00Y 2863   5.099   2.508  11.175 -2.6345 -0.5542 -4.5609
  5544G12c H00X 2864   5.123   2.416  11.285 -1.2955 -0.1991  0.5113
  5544G12c O00C 2865   5.119   2.317  11.094 -0.8015 -0.4447 -0.8485
  5544G12c H00W 2866   5.095   2.236  11.136  2.8375 -3.5747 -4.3878
  5544G12c C027 2867   5.361   2.565  11.089 -0.8928  0.7586  0.7357
  5544G12c O00D 2868   5.500   2.564  11.063  0.9289  0.1486 -1.1602
  5544G12c H00Z 2869   5.525   2.514  11.139 -1.0337  1.5714  0.4827
  5544G12c C028 2870   5.294   2.628  10.973  0.1952  0.2082 -0.7786
  5544G12c C029 2871   5.168   2.613  10.928 -2.0518 -0.8977  1.4183
  5544G12c H010 2872   5.083   2.558  10.966 -2.0724 -2.0078 -0.1997
  5544G12c C02T 2873   5.131   2.630  10.798  0.3984 -1.5318 -0.8059
  5544G12c H01O 2874   5.035   2.607  10.754  0.0225 -4.5977  1.4467
  5544G12c C02S 2875   5.182   2.741  10.724  0.9255  0.5555 -0.8926
  5544G12c O00J 2876   5.107   2.826  10.644  2.2731 -0.1250  0.6748
  5544G12c H01P 2877   5.170   2.896  10.642  2.2482  0.1732 -7.7593
  5544G12c C02R 2878   5.311   2.774  10.776 -0.6931  0.0080 -0.0665
  5544G12c O00I 2879   5.372   2.885  10.713 -0.4049  0.7897 -1.3972
  5544G12c C02Q 2880   5.439   2.844  10.599 -0.0606 -0.0344  0.5810
  5544G12c H01N 2881   5.487   2.930  10.551  1.8990 -1.2744  0.2674
  5544G12c H01R 2882   5.386   2.770  10.539 -1.6042 -3.3978  5.7720
  5544G12c H01Q 2883   5.528   2.807  10.650 -1.2732  1.8168  4.2510
  5544G12c C02A 2884   5.364   2.705  10.878 -1.0691  0.0399 -1.0734
  5544G12c H011 2885   5.469   2.725  10.862 -1.1760 -1.0707 -3.3547
  5544G12c C00C 2886   5.389   2.613  11.415 -1.3577 -1.0963 -0.4398
  5544G12c H012 2887   5.349   2.655  11.324 -4.8999  1.1276  2.0078
  5544G12c C00B 2888   5.390   2.670  11.541  1.3529 -1.0759 -0.1253
  5544G12c C00A 2889   5.331   2.790  11.593  0.3671 -1.0997  0.2993
  5544G12c C009 2890   5.339   2.922  11.537  0.8753 -1.2715 -0.9972
  5544G12c C008 2891   5.376   2.987  11.418 -2.3593 -0.1230 -0.9380
  5544G12c H013 2892   5.422   2.937  11.334 -0.9381 -2.6963  1.2968
  5544G12c C007 2893   5.363   3.128  11.411 -1.6120 -0.6125 -0.4943
  5544G12c H014 2894   5.409   3.167  11.322 -2.3313  4.0114  1.0268
  5544G12c C006 2895   5.345   3.217  11.518  0.2180 -1.3407  0.1716
  5544G12c C005 2896   5.290   3.157  11.629  0.3071 -0.5142  0.0595
  5544G12c C004 2897   5.314   3.233  11.748 -0.1059 -0.3338  0.5461
  5544G12c C003 2898   5.324   3.172  11.864 -2.1329  0.4996  0.5055
  5544G12c C002 2899   5.345   3.242  11.986  2.0925 -1.0765 -0.5015
  5544G12c C001 2900   5.384   3.208  12.116  0.5682  1.5294 -3.0392
  5544G12c C00M 2901   5.472   3.090  12.163  0.9052  1.0970  0.1398
  5544G12c C00L 2902   5.484   2.978  12.071  1.7391  0.5777  0.0875
  5544G12c C00R 2903   5.582   2.880  12.090  0.9824  1.0475  0.1202
  5544G12c C00Q 2904   5.722   2.865  12.138  1.0012  0.1053  0.9641
  5544G12c C00V 2905   5.779   2.746  12.113 -0.6234 -0.9390 -0.7458
  5544G12c C00U 2906   5.745   2.654  12.011  1.1868 -0.0881 -1.1689
  5544G12c C00T 2907   5.625   2.686  11.942  0.0900  1.1801  0.1639
  5544G12c C016 2908   5.578   2.614  11.828  1.4643  0.1824  2.1706
  5544G12c C015 2909   5.652   2.502  11.791  0.4212  0.7909  1.2290
  5544G12c C010 2910   5.771   2.474  11.854 -0.1401 -0.9010  1.2151
  5544G12c C011 2911   5.849   2.371  11.794 -1.4390 -2.3352 -0.5166
  5544G12c H005 2912   5.951   2.373  11.829 -2.3958 -5.5476  2.7283
  5544G12c C012 2913   5.781   2.280  11.719  0.5928  2.3017  0.4192
  5544G12c C017 2914   5.831   2.153  11.679 -0.4152  0.7562 -1.8000
  5544G12c O002 2915   5.848   2.128  11.558 -0.0254  0.8471 -0.6773
  5544G12c H004 2916   5.917   2.066  11.542  1.4170  3.4096 -5.2756
  5544G12c C018 2917   5.874   2.057  11.770  0.2537 -0.2006  0.4635
  5544G12c O001 2918   5.876   2.105  11.902 -1.2841 -0.0741  0.1924
  5544G12c H003 2919   5.945   2.168  11.891 -3.2297  2.0811  0.1336
  5544G12c C019 2920   5.943   1.924  11.732 -0.3039 -0.3834  0.2375
  5544G12c H002 2921   6.045   1.928  11.695 -0.8519  6.0285 -1.0584
  5544G12c H001 2922   5.938   1.856  11.817 -2.2422 -2.5332 -1.5237
  5544G12c O000 2923   5.856   1.854  11.646 -0.0957 -0.8126  0.1200
  5544G12c C01A 2924   5.903   1.751  11.571  1.2221  2.2118  0.4176
  5544G12c C02K 2925   5.807   1.660  11.545  0.3176 -1.0107 -0.3919
  5544G12c O00G 2926   5.686   1.658  11.604  0.6169 -0.1926 -0.4283
  5544G12c C02M 2927   5.607   1.765  11.553 -0.9071 -2.0013 -0.7693
  5544G12c H01G 2928   5.502   1.744  11.531 -0.0306 -5.4495 -2.0998
  5544G12c H01F 2929   5.650   1.845  11.493 -0.0977  1.8777  4.6366
  5544G12c H01E 2930   5.591   1.824  11.644 -4.6775 -2.6522 -0.9286
  5544G12c C02J 2931   5.828   1.532  11.489  0.7798  0.2966  1.6665
  5544G12c H01H 2932   5.775   1.438  11.485  0.1891  0.7174 -2.1504
  5544G12c C02I 2933   5.956   1.516  11.415  1.9784  0.0872 -0.3118
  5544G12c C02N 2934   5.971   1.413  11.313 -1.3895 -1.5352  0.3134
  5544G12c H01M 2935   6.014   1.322  11.351 -0.0774 -3.6380 -5.5917
  5544G12c C02O 2936   5.972   1.448  11.179  0.7391  0.4081  0.1535
  5544G12c H01L 2937   5.950   1.554  11.180  4.3496  1.2544  3.6352
  5544G12c C02P 2938   5.967   1.349  11.066  1.6979 -2.0841 -0.4437
  5544G12c H01K 2939   5.891   1.367  10.990  2.9413 -2.9891 -1.9370
  5544G12c H01J 2940   6.060   1.360  11.009  3.2606 -0.2157  2.3394
  5544G12c O00H 2941   6.006   1.232  11.118 -0.6077 -0.3306  0.4078
  5544G12c H01I 2942   5.942   1.173  11.081 -0.9990  1.3161 -1.6956
  5544G12c C02H 2943   6.072   1.601  11.460  0.1207 -0.8757  1.4168
  5544G12c H01C 2944   6.161   1.582  11.402 -1.3151  3.9865 -2.7203
  5544G12c C02L 2945   6.044   1.718  11.547  0.2843  0.1344 -0.1197
  5544G12c H01D 2946   6.116   1.792  11.578  1.2566  0.5593 -3.2657
  5544G12c C013 2947   5.665   2.300  11.654  0.5340  0.6998  0.5036
  5544G12c H000 2948   5.593   2.229  11.617  3.4374 -4.0979  3.6628
  5544G12c C014 2949   5.604   2.425  11.689  1.9705 -0.4008 -2.0664
  5544G12c C00F 2950   5.507   2.468  11.593 -0.1811 -0.4507  1.4975
  5544G12c C00H 2951   5.471   2.652  11.766  0.2721 -0.8463 -0.2633
  5544G12c C00I 2952   5.405   2.766  11.815 -0.5043 -0.0844  0.8557
  5544G12c C00J 2953   5.429   2.817  11.940 -0.6577 -0.1467  0.9574
  5544G12c C00Z 2954   5.818   2.552  11.965  0.1850 -1.0581 -0.0575
  5544G12c C00Y 2955   5.915   2.517  12.059 -0.0485  0.4009 -0.0246
  5544G12c H006 2956   5.930   2.412  12.037  4.9480  1.3007 -1.5142
  5544G12c C00X 2957   5.958   2.586  12.179 -0.6748  0.3486  1.5389
  5544G12c O003 2958   6.054   2.524  12.254 -0.1346 -1.0385 -0.7752
  5544G12c C01B 2959   6.174   2.461  12.201 -0.0359 -0.3038 -2.1051
  5544G12c H009 2960   6.165   2.385  12.123  0.3298 -0.2874 -2.1627
  5544G12c H008 2961   6.198   2.418  12.299 -0.9401  0.5522 -1.4936
  5544G12c H007 2962   6.252   2.532  12.173 -0.9790  1.6458  0.0575
  5544G12c C00W 2963   5.905   2.714  12.200 -0.3887 -0.9989  0.1633
  5544G12c O004 2964   5.942   2.799  12.294  0.3539 -0.0636  0.3493
  5544G12c C01C 2965   5.926   2.925  12.271 -1.3106 -0.1437  0.1415
  5544G12c H00A 2966   5.944   2.997  12.349 -0.8541 -0.4477  0.3186
  5544G12c C00P 2967   5.799   2.965  12.199  0.6311 -0.0947 -0.1412
  5544G12c C00O 2968   5.730   3.100  12.212 -1.7204 -0.1767 -1.1050
  5544G12c C01D 2969   5.835   3.199  12.227  1.2981  0.3083 -0.6130
  5544G12c H00S 2970   5.934   3.168  12.199 -0.0725 -1.9148 -3.2251
  5544G12c C01E 2971   5.811   3.330  12.216  0.0242 -0.3358 -0.4076
  5544G12c O008 2972   5.898   3.431  12.215  0.7341 -0.3931  0.6007
  5544G12c C01V 2973   6.027   3.378  12.176 -0.2479 -1.1803 -0.1354
  5544G12c C01Z 2974   6.115   3.360  12.311  0.4772  0.8969 -0.7170
  5544G12c H00R 2975   6.125   3.254  12.336  2.3224  1.2535  0.1310
  5544G12c H00Q 2976   6.202   3.415  12.276  2.1399 -0.2368  1.4738
  5544G12c O009 2977   6.055   3.425  12.419  1.2242  0.6306 -0.1963
  5544G12c H00P 2978   5.975   3.433  12.368  2.0244  1.1432 -1.4045
  5544G12c C01W 2979   6.060   3.336  12.041 -3.1858 -1.3728  0.0764
  5544G12c H00O 2980   5.998   3.323  11.953  1.2324  0.0558 -3.4371
  5544G12c C01X 2981   6.198   3.328  11.998  0.6296  0.2679 -0.4017
  5544G12c H00N 2982   6.174   3.285  11.901 -2.3534  4.2474 -1.5409
  5544G12c H00M 2983   6.222   3.431  11.973 -4.0217  1.3089 -0.8709
  5544G12c C01Y 2984   6.302   3.202  12.058 -0.0996 -0.5024 -0.4057
  5544G12c C02D 2985   6.267   3.061  12.033 -0.9944  2.2614  1.9763
  5544G12c H019 2986   6.169   3.020  12.015  0.4795  1.1501 -4.9319
  5544G12c C02C 2987   6.369   2.973  12.059  0.1900 -0.2529  0.2763
  5544G12c H01A 2988   6.343   2.868  12.050 -0.8713  0.1248 -1.3156
  5544G12c C02B 2989   6.493   3.015  12.104  1.1021  0.8599  0.0959
  5544G12c O00E 2990   6.595   2.921  12.092 -0.5032  0.3931  0.4162
  5544G12c H01B 2991   6.676   2.968  12.076 -0.3217 -1.1983 -4.0707
  5544G12c C02F 2992   6.511   3.142  12.163  0.2077  0.1073  0.4128
  5544G12c O00F 2993   6.638   3.160  12.206  0.0018  0.3829  1.1462
  5544G12c C02G 2994   6.679   3.271  12.284  1.1024  0.3868  1.6947
  5544G12c H017 2995   6.650   3.376  12.274  1.9574  0.5904  1.3329
  5544G12c H016 2996   6.783   3.285  12.255 -0.7879 -0.3336 -6.7026
  5544G12c H015 2997   6.687   3.227  12.383  4.1903 -3.2688 -0.0854
  5544G12c C02E 2998   6.415   3.235  12.134 -0.6677 -1.0236  1.3282
  5544G12c H018 2999   6.459   3.331  12.156 -0.7200 -1.6951  4.6712
  5544G12c C01F 3000   5.676   3.369  12.208  1.0470 -1.8503 -1.1081
  5544G12c C01G 3001   5.641   3.505  12.181  0.4603 -0.7712  0.2493
  5544G12c H00L 3002   5.708   3.589  12.193 -3.6768  2.9370 -1.2831
  5544G12c C01H 3003   5.516   3.528  12.111  0.7713  1.0094 -0.8371
  5544G12c H00B 3004   5.523   3.611  12.042 -1.4564 -1.1822 -3.8236
  5544G12c C01I 3005   5.425   3.427  12.091  0.3240  2.0090  0.6536
  5544G12c C01U 3006   5.569   3.279  12.216 -0.7644 -0.2226  0.6656
  5544G12c C00S 3007   5.534   2.772  12.005  1.3190  0.1144  0.2095
  5544G12c C00K 3008   5.394   2.949  11.964 -1.6830 -1.3202 -1.7529
  5544G12c C00N 3009   5.598   3.146  12.213  0.7690  0.2218 -0.3770
  5544G12c C000 3010   5.434   3.324  12.183  0.1821  0.2685 -1.1322
  5544G12c C01J 3011   5.347   3.380  11.975 -0.3941  0.6968  1.0480
  5544G12c C01K 3012   5.357   3.454  11.861 -0.5671  0.7163  1.1173
  5544G12c C01P 3013   5.353   3.589  11.843  0.4542  0.6800 -0.1226
  5544G12c C01Q 3014   5.313   3.689  11.945  1.0702  1.7875 -0.1198
  5544G12c H00G 3015   5.373   3.773  11.979  2.6728  0.1726  1.1449
  5544G12c C01R 3016   5.180   3.692  11.965  0.2937 -0.6348 -1.1806
  5544G12c H00F 3017   5.110   3.625  11.916 -2.8897 -0.3829  2.7258
  5544G12c C01S 3018   5.103   3.800  12.024  0.4310 -1.5056 -1.6059
  5544G12c H00E 3019   5.005   3.768  12.061 -0.9570  1.7104 -2.2668
  5544G12c H00D 3020   5.173   3.810  12.106 -0.0266 -0.4702 -1.3342
  5544G12c O005 3021   5.100   3.939  11.997  1.3575  0.0471  0.0249
  5544G12c H00C 3022   5.023   3.971  12.041  0.6321 -2.1428  0.4081
  5544G12c C01O 3023   5.379   3.632  11.720  0.2470 -0.3544 -1.7791
  5544G12c H00H 3024   5.389   3.738  11.705 -3.7414  0.7004  2.0730
  5544G12c C01N 3025   5.415   3.565  11.612 -0.8387 -1.3346 -0.2805
  5544G12c O006 3026   5.435   3.633  11.492 -1.3877 -0.0020  1.8335
  5544G12c C01T 3027   5.557   3.591  11.417  1.0178 -1.0038 -0.0633
  5544G12c H00K 3028   5.631   3.663  11.383 -1.8281  2.7009  1.2312
  5544G12c H00J 3029   5.586   3.488  11.437  5.2505  0.6342  2.9633
  5544G12c H00I 3030   5.520   3.577  11.315 -3.4731 -8.3646  2.1914
  5544G12c C01M 3031   5.369   3.430  11.616 -1.2781  1.9706  0.7059
  5544G12c C020 3032   5.301   3.022  11.876 -0.3604  0.9687 -0.4437
  5544G12c C021 3033   5.270   2.952  11.753  0.4401  1.6320 -0.1397
  5544G12c C01L 3034   5.341   3.369  11.744 -1.6231  0.0208  0.0140
  5544G12c O007 3035   5.338   3.359  11.497 -0.4240  0.9036 -0.9232
  5544G12c C022 3036   5.276   3.008  11.635 -0.2046  1.8988 -1.3593
  5544G12c C023 3037   5.298   2.819  11.727 -1.5785  0.4824 -1.3617
  5544G12c C00G 3038   5.445   2.591  11.636  0.2908 -0.0615 -1.3800
  5544G12c C00E 3039   5.479   2.404  11.468 -0.0104 -0.3792  2.7411
  5544G12c O00A 3040   5.498   2.292  11.403 -0.2673 -0.2784  1.4177
  5544G12c C024 3041   5.434   2.171  11.432  0.6335  0.1576 -0.3518
  5544G12c H00V 3042   5.412   2.135  11.332  3.4061 -1.7259 -0.3345
  5544G12c H00U 3043   5.336   2.165  11.479 -2.5936 -1.0819 -6.7923
  5544G12c H00T 3044   5.496   2.083  11.448 -1.9786 -1.2237  2.8614
  5554G12c C00D 3045   3.492   7.045  12.107  1.8032 -0.2818  0.5732
  5554G12c O00B 3046   3.467   7.066  11.975  0.7174 -1.0233 -0.1468
  5554G12c C025 3047   3.571   7.102  11.907  0.7862 -1.5091  0.5314
  5554G12c C026 3048   3.623   7.008  11.799  0.2903 -0.0726  1.8113
  5554G12c H00Y 3049   3.556   7.023  11.714 -1.3954 -4.4022  2.2490
  5554G12c H00X 3050   3.599   6.911  11.842 -2.1032  1.1840  3.4040
  5554G12c O00C 3051   3.767   7.028  11.776 -0.4947 -0.0957  0.0761
  5554G12c H00W 3052   3.763   7.100  11.715 -0.5118 -6.0086 -7.7068
  5554G12c C027 3053   3.587   7.233  11.911 -1.2478  0.5219  0.8597
  5554G12c O00D 3054   3.520   7.312  11.984  0.1012 -1.4713 -1.8936
  5554G12c H00Z 3055   3.450   7.328  11.923 -1.2527  5.2350  0.9587
  5554G12c C028 3056   3.675   7.307  11.814 -0.4619  0.0388 -0.8997
  5554G12c C029 3057   3.651   7.315  11.669 -1.8446 -0.9343  1.1160
  5554G12c H010 3058   3.561   7.260  11.645 -3.9864  3.3477 -1.2516
  5554G12c C02T 3059   3.732   7.384  11.582  0.6640 -0.7391 -0.6956
  5554G12c H01O 3060   3.715   7.374  11.476  1.2748 -3.5198 -0.5743
  5554G12c C02S 3061   3.843   7.460  11.626 -1.7275  2.0467 -0.3539
  5554G12c O00J 3062   3.932   7.513  11.550 -0.0005  0.2035 -0.6066
  5554G12c H01P 3063   3.991   7.539  11.619  3.9837  2.8753 -4.6632
  5554G12c C02R 3064   3.889   7.430  11.746 -0.2798 -0.3286  0.1079
  5554G12c O00I 3065   4.012   7.470  11.781 -0.3513 -0.5656  0.3029
  5554G12c C02Q 3066   4.084   7.340  11.821 -0.8000  0.4686  0.3399
  5554G12c H01N 3067   4.125   7.310  11.917  3.8323 -0.4832 -1.8093
  5554G12c H01R 3068   4.171   7.341  11.755 -1.9553 -1.7324 -1.3077
  5554G12c H01Q 3069   4.049   7.240  11.795  2.0893 -1.6337  4.0130
  5554G12c C02A 3070   3.810   7.345  11.842  0.3578  0.2231  1.9421
  5554G12c H011 3071   3.856   7.329  11.938  5.0308 -1.0610 -0.3623
  5554G12c C00C 3072   3.608   7.069  12.168  1.2784 -1.0844 -0.2542
  5554G12c H012 3073   3.685   7.133  12.126 -2.0853  3.9390  0.7960
  5554G12c C00B 3074   3.604   7.054  12.308 -0.7344  0.5476 -0.1262
  5554G12c C00A 3075   3.705   7.079  12.396 -1.2800 -1.1512 -0.9634
  5554G12c C009 3076   3.840   7.034  12.349 -0.8725 -1.0990  0.3268
  5554G12c C008 3077   3.879   6.979  12.238  1.6697  0.5349 -0.2713
  5554G12c H013 3078   3.802   6.962  12.164 -0.9504  0.9875  2.2424
  5554G12c C007 3079   4.003   6.916  12.239  0.3608 -0.1737  0.6395
  5554G12c H014 3080   4.041   6.860  12.155  3.9162  2.2935  0.5358
  5554G12c C006 3081   4.081   6.889  12.359  0.2076  1.5471 -2.3839
  5554G12c C005 3082   4.025   6.952  12.476  0.2314 -0.3414 -2.1800
  5554G12c C004 3083   4.050   6.893  12.608 -1.2433  0.5308 -0.2466
  5554G12c C003 3084   3.971   6.921  12.708  0.0109  1.9183 -0.4333
  5554G12c C002 3085   4.009   6.869  12.834  1.4380 -1.2698 -0.5519
  5554G12c C001 3086   3.944   6.842  12.954  1.5850 -1.0539 -1.2617
  5554G12c C00M 3087   3.795   6.815  12.980 -0.3270  0.0593 -0.8281
  5554G12c C00L 3088   3.696   6.867  12.901  0.1919  0.3962 -0.3779
  5554G12c C00R 3089   3.561   6.801  12.869 -1.2515 -1.3302 -3.1755
  5554G12c C00Q 3090   3.513   6.667  12.907 -0.8882 -0.4913  0.3501
  5554G12c C00V 3091   3.381   6.645  12.860  0.4024 -0.9833  0.8862
  5554G12c C00U 3092   3.349   6.708  12.744  0.2691  0.7531  0.8089
  5554G12c C00T 3093   3.407   6.818  12.692  0.4314 -1.1894  0.0288
  5554G12c C016 3094   3.405   6.854  12.567 -0.5368  0.4329 -0.2460
  5554G12c C015 3095   3.311   6.791  12.480  2.5979  0.0153 -1.6059
  5554G12c C010 3096   3.229   6.692  12.537  1.4285 -0.6147  0.6630
  5554G12c C011 3097   3.133   6.629  12.460  0.4555  0.0859  0.0977
  5554G12c H005 3098   3.090   6.531  12.474 -1.3244  1.5323  6.1522
  5554G12c C012 3099   3.136   6.645  12.328  1.1696 -1.3996 -1.4231
  5554G12c C017 3100   3.085   6.558  12.223 -0.5011  1.0300  0.3885
  5554G12c O002 3101   2.980   6.600  12.170 -0.1692  0.5301 -0.2192
  5554G12c H004 3102   2.950   6.535  12.108  5.7008 -4.0376  1.2377
  5554G12c C018 3103   3.147   6.437  12.199  0.6380  0.2498  0.1731
  5554G12c O001 3104   3.059   6.353  12.135  0.5680 -1.2496 -0.4962
  5554G12c H003 3105   3.100   6.277  12.096 -0.1407 -0.9593 -1.8417
  5554G12c C019 3106   3.290   6.382  12.255 -0.2362  0.8109  1.1424
  5554G12c H002 3107   3.338   6.460  12.314 -2.4051  5.3931 -2.8810
  5554G12c H001 3108   3.255   6.306  12.325  5.0491 -4.1305 -1.2033
  5554G12c O000 3109   3.379   6.343  12.151  0.9822  1.3494 -0.3155
  5554G12c C01A 3110   3.503   6.396  12.173 -2.2189 -0.1025  0.1750
  5554G12c C02K 3111   3.580   6.450  12.064  0.1455  0.6206 -0.2296
  5554G12c O00G 3112   3.516   6.476  11.967  0.5039 -1.3763  0.1747
  5554G12c C02M 3113   3.444   6.596  11.953  0.4450  0.2593  0.8429
  5554G12c H01G 3114   3.347   6.578  11.906  1.2979  4.9182 -3.0927
  5554G12c H01F 3115   3.398   6.637  12.043 -1.0251 -3.8941  2.1054
  5554G12c H01E 3116   3.517   6.661  11.906  2.9815  5.7930 11.0058
  5554G12c C02J 3117   3.710   6.481  12.068 -0.9812 -0.1349 -1.6144
  5554G12c H01H 3118   3.750   6.509  11.972 -8.0347  3.9750 -3.7548
  5554G12c C02I 3119   3.777   6.465  12.182 -0.7867  0.2369  0.4956
  5554G12c C02N 3120   3.922   6.473  12.172 -1.3813 -2.5616 -0.4314
  5554G12c H01M 3121   3.966   6.493  12.269 -1.6072  4.9815 -1.5961
  5554G12c C02O 3122   4.004   6.485  12.066  0.7626  1.2010 -0.0018
  5554G12c H01L 3123   3.973   6.479  11.963  0.8624  5.5950 -0.3499
  5554G12c C02P 3124   4.158   6.491  12.084 -1.0906 -0.6835 -1.0213
  5554G12c H01K 3125   4.213   6.564  12.025 -0.0653 -1.2665 -0.7874
  5554G12c H01J 3126   4.191   6.507  12.187 -0.8681  1.2098 -1.3571
  5554G12c O00H 3127   4.180   6.378  12.013  1.4017 -0.0358  0.3196
  5554G12c H01I 3128   4.098   6.344  11.979  1.5767  0.3877 -0.5408
  5554G12c C02H 3129   3.705   6.415  12.300  0.6717 -0.3448 -1.6941
  5554G12c H01C 3130   3.746   6.441  12.397 -2.5582  1.7599 -0.8181
  5554G12c C02L 3131   3.569   6.384  12.294 -0.8252 -0.7619  0.3974
  5554G12c H01D 3132   3.504   6.387  12.381 -3.0097  0.0349 -1.2232
  5554G12c C013 3133   3.220   6.754  12.281  0.2052  0.5135  0.7630
  5554G12c H000 3134   3.222   6.761  12.173  3.6556  1.6570  0.8216
  5554G12c C014 3135   3.316   6.824  12.349 -0.9817  1.6901 -0.3738
  5554G12c C00F 3136   3.386   6.928  12.298 -0.0641  1.1947  0.9178
  5554G12c C00H 3137   3.495   6.956  12.509 -0.9496 -0.0327 -1.5117
  5554G12c C00I 3138   3.600   7.017  12.600 -1.1876  0.3404 -0.5547
  5554G12c C00J 3139   3.599   6.975  12.730  0.3611 -0.9334 -0.5261
  5554G12c C00Z 3140   3.237   6.656  12.663 -1.2610 -0.6941 -1.7633
  5554G12c C00Y 3141   3.130   6.583  12.730 -0.1811 -0.4731  1.8703
  5554G12c H006 3142   3.034   6.548  12.697  0.5942  2.4414 -4.1914
  5554G12c C00X 3143   3.170   6.536  12.854 -1.1018  0.7666 -0.6346
  5554G12c O003 3144   3.084   6.435  12.917 -0.3140  1.2628 -1.7196
  5554G12c C01B 3145   3.041   6.317  12.849  0.9250 -2.3010 -2.4514
  5554G12c H009 3146   2.997   6.254  12.926  5.8100 -1.1168  1.6403
  5554G12c H008 3147   3.128   6.269  12.802  4.3339 -0.5908  1.7485
  5554G12c H007 3148   2.970   6.344  12.771  3.6345 -0.9839 -4.5498
  5554G12c C00W 3149   3.306   6.546  12.910  1.1204  0.4545 -0.9361
  5554G12c O004 3150   3.340   6.476  13.027 -1.5759  1.1991 -0.6375
  5554G12c C01C 3151   3.459   6.517  13.079 -0.3628  0.0961 -1.5937
  5554G12c H00A 3152   3.447   6.533  13.185 -0.9962  2.0256 -1.9398
  5554G12c C00P 3153   3.557   6.575  13.001  0.0991 -0.3228 -0.7134
  5554G12c C00O 3154   3.688   6.578  13.033 -1.1635 -0.1856  0.4476
  5554G12c C01D 3155   3.720   6.473  13.136 -0.7923  0.3533  0.1178
  5554G12c H00S 3156   3.641   6.422  13.189 -5.7345  2.3496 -4.8311
  5554G12c C01E 3157   3.851   6.445  13.173  0.7820  0.0625  0.2739
  5554G12c O008 3158   3.875   6.344  13.258 -0.3601  0.2678  0.2966
  5554G12c C01V 3159   3.894   6.384  13.381  0.7681 -0.5468 -1.7149
  5554G12c C01Z 3160   3.781   6.377  13.476  0.4655  0.4872 -1.0578
  5554G12c H00R 3161   3.732   6.297  13.420  1.6665 -1.0805  0.0481
  5554G12c H00Q 3162   3.837   6.319  13.550  4.2062  1.5091 -3.0269
  5554G12c O009 3163   3.695   6.495  13.502  0.5599  1.2349 -0.4563
  5554G12c H00P 3164   3.607   6.463  13.512  0.4676  1.7529  0.5158
  5554G12c C01W 3165   4.012   6.443  13.425 -0.9676 -0.9200 -0.2810
  5554G12c H00O 3166   4.084   6.462  13.347 -3.0870  2.6748 -1.4586
  5554G12c C01X 3167   4.057   6.522  13.560 -0.6551  0.6381  0.8967
  5554G12c H00N 3168   3.999   6.481  13.643 -5.5178 -3.2249 -4.1054
  5554G12c H00M 3169   4.161   6.493  13.576  0.6170  1.7859 -4.2426
  5554G12c C01Y 3170   4.032   6.662  13.538  2.0161 -0.2029  0.1474
  5554G12c C02D 3171   3.923   6.709  13.625 -0.1779  0.3653 -0.3334
  5554G12c H019 3172   3.896   6.664  13.720  2.4170  1.8975  1.1628
  5554G12c C02C 3173   3.887   6.846  13.603 -0.9492  1.1199 -1.3718
  5554G12c H01A 3174   3.827   6.863  13.692  0.9078 -2.7197  0.7578
  5554G12c C02B 3175   3.934   6.929  13.494 -1.6494 -0.0945  1.0856
  5554G12c O00E 3176   3.880   7.050  13.463 -0.4796  0.9551 -0.1451
  5554G12c H01B 3177   3.919   7.084  13.385  5.4459  2.9466  3.3393
  5554G12c C02F 3178   4.057   6.892  13.428 -1.0086  0.4330 -0.5931
  5554G12c O00F 3179   4.141   6.981  13.378  1.4575 -0.6638 -0.2526
  5554G12c C02G 3180   4.159   6.986  13.237 -0.1346  0.4505 -0.4746
  5554G12c H017 3181   4.206   6.894  13.204 -1.8052 -1.7256  2.9653
  5554G12c H016 3182   4.055   6.995  13.206 -2.2107  2.5665  6.1454
  5554G12c H015 3183   4.230   7.068  13.234 -0.3578  0.5813 -2.6790
  5554G12c C02E 3184   4.108   6.765  13.461  0.4399  0.9196 -0.3323
  5554G12c H018 3185   4.209   6.753  13.427  0.9317 -2.3628  2.0328
  5554G12c C01F 3186   3.951   6.526  13.105 -0.7675 -0.3490  0.0920
  5554G12c C01G 3187   4.088   6.498  13.098 -0.2538  0.7773 -0.2736
  5554G12c H00L 3188   4.138   6.409  13.131  0.8425  2.2746  2.2807
  5554G12c C01H 3189   4.182   6.587  13.020 -0.7867 -1.1667 -0.0960
  5554G12c H00B 3190   4.286   6.558  13.009  0.1816  2.8578 -2.5586
  5554G12c C01I 3191   4.125   6.706  12.975 -0.9400  0.0209  1.2914
  5554G12c C01U 3192   3.918   6.655  13.057  3.3755 -0.4962 -0.9810
  5554G12c C00S 3193   3.496   6.883  12.778  0.3144 -0.3586  1.8350
  5554G12c C00K 3194   3.727   6.962  12.796  1.4865  0.9775  1.4368
  5554G12c C00N 3195   3.791   6.681  13.015  1.5294 -0.1982  1.3696
  5554G12c C000 3196   4.010   6.758  13.025 -0.9963  0.8598 -0.5188
  5554G12c C01J 3197   4.136   6.789  12.852 -1.0829 -1.9377 -0.6864
  5554G12c C01K 3198   4.217   6.756  12.741  0.2662  0.2073  0.9061
  5554G12c C01P 3199   4.341   6.694  12.735  0.2048  0.1406  0.8430
  5554G12c C01Q 3200   4.436   6.675  12.838 -1.6019 -0.3777 -0.2641
  5554G12c H00G 3201   4.494   6.584  12.848 -2.5166 -1.0031 -0.6015
  5554G12c C01R 3202   4.473   6.754  12.934  0.7722  0.4782 -0.4539
  5554G12c H00F 3203   4.433   6.852  12.913 -4.8611 -1.7197 -0.9821
  5554G12c C01S 3204   4.550   6.728  13.066  1.7995  0.2410  0.4220
  5554G12c H00E 3205   4.659   6.718  13.063  2.2222  3.1297  3.3466
  5554G12c H00D 3206   4.510   6.633  13.102  3.0641 -0.7182 -0.6450
  5554G12c O005 3207   4.498   6.852  13.124  0.4523  0.9906 -0.3539
  5554G12c H00C 3208   4.405   6.834  13.129  1.0426 -3.9070 -3.6113
  5554G12c C01O 3209   4.391   6.653  12.614  1.0035 -2.1642  1.2584
  5554G12c H00H 3210   4.488   6.605  12.614  2.6282  0.9797  2.1617
  5554G12c C01N 3211   4.314   6.655  12.491 -0.0361  1.0576 -0.7373
  5554G12c O006 3212   4.358   6.601  12.376 -1.3896  0.4689 -0.2881
  5554G12c C01T 3213   4.448   6.689  12.308  0.0221 -0.6628  1.5274
  5554G12c H00K 3214   4.541   6.660  12.357  3.5695  4.6521 -1.4397
  5554G12c H00J 3215   4.432   6.787  12.353 -2.5741 -2.0540  3.7523
  5554G12c H00I 3216   4.455   6.669  12.201  3.3313 -1.1544  1.7713
  5554G12c C01M 3217   4.207   6.751  12.498 -0.7284  1.7369  1.2562
  5554G12c C020 3218   3.843   6.987  12.701 -0.7738 -0.8298  1.7927
  5554G12c C021 3219   3.819   7.063  12.580 -0.4093 -0.0557 -0.5689
  5554G12c C01L 3220   4.164   6.808  12.615  0.1908 -0.4202 -1.6500
  5554G12c O007 3221   4.169   6.786  12.367  0.4087  0.8385  0.8449
  5554G12c C022 3222   3.908   7.038  12.468 -1.2152  2.8069  0.3151
  5554G12c C023 3223   3.691   7.099  12.531  0.1946 -2.0666 -1.0333
  5554G12c C00G 3224   3.489   6.976  12.371  0.8440 -1.3315  0.6800
  5554G12c C00E 3225   3.376   6.976  12.165  0.8547  1.1658 -0.7434
  5554G12c O00A 3226   3.265   6.963  12.083  0.0636  0.9641  0.3416
  5554G12c C024 3227   3.173   7.068  12.127 -0.2575  0.6583  0.1091
  5554G12c H00V 3228   3.122   7.058  12.031 -0.0823  1.0141 -0.0198
  5554G12c H00U 3229   3.157   7.166  12.083 -1.7761  0.4208  0.0867
  5554G12c H00T 3230   3.094   7.055  12.201 -0.0262 -3.1917 -0.2178
  5564G12c C00D 3231   1.499  12.327   8.722 -2.6997  0.8266  0.2986
  5564G12c O00B 3232   1.638  12.334   8.715  0.0906  0.4092  1.4025
  5564G12c C025 3233   1.728  12.377   8.814 -1.0577 -0.2119  0.9157
  5564G12c C026 3234   1.691  12.353   8.966 -0.0148 -0.4852 -1.0223
  5564G12c H00Y 3235   1.596  12.404   8.987  0.1462 -0.2893 -0.7651
  5564G12c H00X 3236   1.774  12.401   9.018  0.9346  1.7329 -4.4198
  5564G12c O00C 3237   1.667  12.228   8.997 -0.6030 -0.3534 -0.3990
  5564G12c H00W 3238   1.748  12.203   9.038 -3.1317 -3.5407  2.9036
  5564G12c C027 3239   1.842  12.427   8.776 -0.6719  0.4075 -0.7329
  5564G12c O00D 3240   1.939  12.474   8.880 -0.5450 -0.0890  0.3986
  5564G12c H00Z 3241   1.899  12.559   8.886 -4.4459 -1.7612 -0.2335
  5564G12c C028 3242   1.892  12.434   8.636  0.3832 -0.2852 -1.6416
  5564G12c C029 3243   2.030  12.434   8.623 -0.4615  0.7783  0.0452
  5564G12c H010 3244   2.110  12.427   8.695  1.0401  2.5798 -1.4026
  5564G12c C02T 3245   2.097  12.481   8.509 -0.7806 -2.0222  1.1041
  5564G12c H01O 3246   2.203  12.498   8.500 -1.6935  4.2310 -0.2378
  5564G12c C02S 3247   2.032  12.481   8.391 -1.2096 -1.5965 -0.0364
  5564G12c O00J 3248   2.102  12.537   8.287  0.6131  0.0619 -0.8890
  5564G12c H01P 3249   2.025  12.539   8.232  1.4109  1.2574 -2.0018
  5564G12c C02R 3250   1.896  12.463   8.398  0.6491  0.8193 -0.6141
  5564G12c O00I 3251   1.822  12.503   8.274  0.3746 -0.2326 -0.7600
  5564G12c C02Q 3252   1.720  12.415   8.232 -0.4688 -0.6665  1.4139
  5564G12c H01N 3253   1.798  12.340   8.225  4.9768  4.2599  4.4771
  5564G12c H01R 3254   1.629  12.392   8.286 -2.0318 -2.4939 -1.8426
  5564G12c H01Q 3255   1.685  12.450   8.135  4.4086  1.7103  0.3245
  5564G12c C02A 3256   1.827  12.431   8.515  1.0235 -0.7252  0.4580
  5564G12c H011 3257   1.721  12.412   8.500  1.1083  1.1857 -3.0822
  5564G12c C00C 3258   1.410  12.232   8.669 -0.5343  1.2279  0.1279
  5564G12c H012 3259   1.461  12.168   8.599 -2.7377 -1.2242  0.7028
  5564G12c C00B 3260   1.296  12.192   8.723  1.0019  0.8457 -0.5416
  5564G12c C00A 3261   1.217  12.068   8.694 -0.2152  0.3535 -1.0162
  5564G12c C009 3262   1.209  11.989   8.572  0.7555 -0.2398  0.0786
  5564G12c C008 3263   1.254  11.993   8.436  1.2168 -1.3314 -1.0979
  5564G12c H013 3264   1.353  12.035   8.433  1.0667 -0.6521  1.9793
  5564G12c C007 3265   1.167  11.951   8.335  0.1825 -0.4262  2.1028
  5564G12c H014 3266   1.222  11.955   8.242 -1.4557 -0.8340  1.0996
  5564G12c C006 3267   1.045  11.891   8.350  1.3145 -1.2358 -0.2032
  5564G12c C005 3268   1.007  11.902   8.479 -0.2853  0.3331  1.4111
  5564G12c C004 3269   0.875  11.859   8.501  0.9464  0.0959 -1.0195
  5564G12c C003 3270   0.831  11.857   8.632  0.1361  0.9441  1.2969
  5564G12c C002 3271   0.691  11.833   8.659  1.5071  0.6811  0.1925
  5564G12c C001 3272   0.591  11.855   8.768  0.8057  1.5734  0.4741
  5564G12c C00M 3273   0.582  11.981   8.846 -0.7194  1.0389 -0.3506
  5564G12c C00L 3274   0.697  12.014   8.918  1.3077 -0.4062 -0.3114
  5564G12c C00R 3275   0.709  12.136   8.989 -1.0269 -1.6864 -1.0935
  5564G12c C00Q 3276   0.616  12.252   8.977  0.3322 -0.0293 -0.0812
  5564G12c C00V 3277   0.670  12.386   9.011  0.5988  1.6236  1.5958
  5564G12c C00U 3278   0.806  12.401   9.015  0.5427 -0.9585 -0.8028
  5564G12c C00T 3279   0.896  12.300   8.995  0.4514  0.1748 -0.1124
  5564G12c C016 3280   1.024  12.324   8.961  0.7775  2.4051  0.2647
  5564G12c C015 3281   1.071  12.442   8.974  1.5366  1.3566 -0.9025
  5564G12c C010 3282   0.991  12.545   9.033  0.1320  0.4788  0.9693
  5564G12c C011 3283   1.045  12.645   9.099  0.6987  0.8694 -0.8388
  5564G12c H005 3284   0.992  12.723   9.151  2.6898  1.4700  0.3412
  5564G12c C012 3285   1.181  12.668   9.089 -0.4851 -0.7989  1.7018
  5564G12c C017 3286   1.209  12.807   9.124  0.7768 -1.3719 -1.3382
  5564G12c O002 3287   1.222  12.837   9.253 -0.3088  0.3449 -0.1885
  5564G12c H004 3288   1.212  12.929   9.269  1.3406  0.5030  0.0404
  5564G12c C018 3289   1.192  12.904   9.021  0.3931 -1.0843 -0.8070
  5564G12c O001 3290   1.195  12.877   8.891 -0.2140  0.0009  1.1111
  5564G12c H003 3291   1.137  12.951   8.894 -0.8205 -0.5193  2.8710
  5564G12c C019 3292   1.198  13.054   9.055  0.6084  0.2941 -1.9821
  5564G12c H002 3293   1.270  13.073   9.134 -4.0394  4.5172  1.5462
  5564G12c H001 3294   1.215  13.127   8.976 -2.6317  2.3202 -0.9083
  5564G12c O000 3295   1.066  13.065   9.125  0.6207 -0.7806 -0.2502
  5564G12c C01A 3296   0.965  13.158   9.104 -0.6646  0.2655  0.0526
  5564G12c C02K 3297   0.995  13.291   9.138  1.7032 -0.4527 -0.7045
  5564G12c O00G 3298   1.134  13.322   9.175  0.0049 -0.7686  0.3652
  5564G12c C02M 3299   1.173  13.439   9.236 -1.6048 -1.2398  1.0240
  5564G12c H01G 3300   1.144  13.455   9.340  2.9997  0.9548  2.0795
  5564G12c H01F 3301   1.166  13.540   9.197 -1.5999 -2.2109 -1.5685
  5564G12c H01E 3302   1.266  13.404   9.282 -3.3440 -0.5000  5.3724
  5564G12c C02J 3303   0.902  13.395   9.126 -0.2365 -0.1598  0.5629
  5564G12c H01H 3304   0.929  13.498   9.144  1.7782 -0.6336  0.2720
  5564G12c C02I 3305   0.762  13.370   9.087 -0.1129  0.5497 -1.8497
  5564G12c C02N 3306   0.661  13.465   9.077  0.1924 -0.1284 -0.7324
  5564G12c H01M 3307   0.617  13.489   8.982  3.4647  3.0975 -1.5541
  5564G12c C02O 3308   0.637  13.548   9.179 -0.8259  1.7497  1.2437
  5564G12c H01L 3309   0.555  13.618   9.174 -2.5404 -0.3892 -5.3422
  5564G12c C02P 3310   0.705  13.558   9.319 -0.9345 -0.0088  0.4173
  5564G12c H01K 3311   0.616  13.554   9.382  0.4192  1.7291  2.5207
  5564G12c H01J 3312   0.745  13.466   9.360 -1.7255  1.7058  5.3104
  5564G12c O00H 3313   0.801  13.673   9.297  0.7706 -0.6767  0.2733
  5564G12c H01I 3314   0.879  13.620   9.293  2.4235  1.6519  0.4908
  5564G12c C02H 3315   0.738  13.235   9.042 -1.7558  0.6157 -0.6902
  5564G12c H01C 3316   0.641  13.206   9.004 -0.1732  3.5434 -7.5983
  5564G12c C02L 3317   0.833  13.132   9.052 -0.1419 -0.8439  0.2415
  5564G12c H01D 3318   0.834  13.039   8.998  0.5429 -2.9444  3.7262
  5564G12c C013 3319   1.264  12.580   9.016 -1.6177  0.6882  0.3299
  5564G12c H000 3320   1.364  12.620   9.006 -3.2716  5.0607 -0.0328
  5564G12c C014 3321   1.214  12.469   8.947  0.5548 -0.8339  0.2783
  5564G12c C00F 3322   1.285  12.382   8.854 -1.2570  0.2121 -1.3994
  5564G12c C00H 3323   1.101  12.219   8.895  0.4900 -1.1885  0.2647
  5564G12c C00I 3324   1.050  12.092   8.884  1.0099 -0.2861 -1.5049
  5564G12c C00J 3325   0.922  12.067   8.935 -0.2399  0.5313 -0.8905
  5564G12c C00Z 3326   0.862  12.535   9.029 -0.7296  1.0993  1.5721
  5564G12c C00Y 3327   0.781  12.652   9.038  1.0829  0.5473 -0.0748
  5564G12c H006 3328   0.830  12.745   9.013  2.1728 -0.1587 -0.6438
  5564G12c C00X 3329   0.635  12.630   9.053 -0.0320 -1.4193 -0.8122
  5564G12c O003 3330   0.552  12.718   9.046  1.6203  0.4740 -1.1775
  5564G12c C01B 3331   0.535  12.825   8.948 -2.4229  0.2046 -0.7514
  5564G12c H009 3332   0.632  12.863   8.916 -0.1464 -3.2779  1.6237
  5564G12c H008 3333   0.500  12.766   8.863  3.0892 -5.0431  0.2505
  5564G12c H007 3334   0.453  12.897   8.952 -9.1563 -6.8993  0.7308
  5564G12c C00W 3335   0.590  12.501   9.032  0.5283 -1.5879  0.9438
  5564G12c O004 3336   0.455  12.505   9.030  0.9087 -1.3996  1.0282
  5564G12c C01C 3337   0.397  12.396   8.961  0.4384 -1.0250  0.3206
  5564G12c H00A 3338   0.326  12.337   9.017  0.2396 -3.7174 -2.6879
  5564G12c C00P 3339   0.471  12.290   8.940  1.2319  0.1961 -0.7228
  5564G12c C00O 3340   0.418  12.184   8.852  0.6516 -1.6761 -0.7762
  5564G12c C01D 3341   0.294  12.208   8.791 -0.9974 -0.9802 -0.2741
  5564G12c H00S 3342   0.221  12.285   8.810 -1.8087 -1.1681 -2.4434
  5564G12c C01E 3343   0.233  12.151   8.675 -1.2775 -0.0718 -1.0193
  5564G12c O008 3344   0.129  12.189   8.600 -0.7686 -0.9767 -1.4124
  5564G12c C01V 3345   0.149  12.300   8.509  1.6349 -1.5269  1.0799
  5564G12c C01Z 3346   0.067  12.423   8.565 -0.2181  1.0312  0.5742
  5564G12c H00R 3347   0.082  12.514   8.507  4.3198  5.4202  7.7347
  5564G12c H00Q 3348  -0.031  12.377   8.553  2.8347 -6.3885  1.2439
  5564G12c O009 3349   0.123  12.439   8.688  0.2258  0.0979  0.8062
  5564G12c H00P 3350   0.214  12.433   8.664 -0.5016  3.5440 -3.2555
  5564G12c C01W 3351   0.216  12.288   8.393 -0.2678  1.0419  1.0796
  5564G12c H00O 3352   0.272  12.196   8.389 -0.0198  1.2627 -1.2321
  5564G12c C01X 3353   0.229  12.386   8.280 -0.3805 -0.5484 -0.3535
  5564G12c H00N 3354   0.300  12.341   8.211  0.3470 -0.7387  0.5120
  5564G12c H00M 3355   0.143  12.435   8.233  0.1397  3.1849  2.3866
  5564G12c C01Y 3356   0.333  12.501   8.286  0.1709  0.4233 -1.1422
  5564G12c C02D 3357   0.415  12.489   8.414 -0.9926 -1.4929  0.0945
  5564G12c H019 3358   0.423  12.390   8.456 -1.7420 -2.3137 -1.6728
  5564G12c C02C 3359   0.511  12.592   8.434 -0.4584 -0.0533 -0.2252
  5564G12c H01A 3360   0.570  12.589   8.525  5.8552  6.3945 -3.4937
  5564G12c C02B 3361   0.535  12.698   8.332 -0.6320  0.2242 -1.6890
  5564G12c O00E 3362   0.598  12.815   8.360 -0.4000  1.8513 -0.1362
  5564G12c H01B 3363   0.582  12.860   8.278 -0.6437  2.1250  0.0645
  5564G12c C02F 3364   0.442  12.686   8.231 -0.5651 -0.7488  0.3872
  5564G12c O00F 3365   0.476  12.807   8.158  1.3732  1.4413  0.3360
  5564G12c C02G 3366   0.363  12.905   8.126  0.0369 -0.4855 -0.1792
  5564G12c H017 3367   0.258  12.901   8.155  0.1549 -5.5076 -0.0074
  5564G12c H016 3368   0.411  13.003   8.127  0.2194 -0.5503 -1.4819
  5564G12c H015 3369   0.360  12.901   8.017  2.7528  1.7820 -0.4070
  5564G12c C02E 3370   0.340  12.601   8.205  0.5672  0.6172  0.9153
  5564G12c H018 3371   0.266  12.594   8.127  0.0268 -3.8603  1.6515
  5564G12c C01F 3372   0.294  12.020   8.649  0.8460 -0.3798 -0.9922
  5564G12c C01G 3373   0.275  11.962   8.522  1.1903  2.5842 -0.8017
  5564G12c H00L 3374   0.201  12.012   8.462  2.0520  1.0218 -3.2801
  5564G12c C01H 3375   0.381  11.868   8.491  1.2436 -0.8777 -0.3781
  5564G12c H00B 3376   0.409  11.884   8.388 -4.3854  5.4419 -1.2738
  5564G12c C01I 3377   0.472  11.810   8.579  0.8480 -0.5174 -0.2803
  5564G12c C01U 3378   0.395  11.967   8.738  0.5308  0.6353 -0.2374
  5564G12c C00S 3379   0.842  12.171   8.990  0.3557 -1.7157  1.5871
  5564G12c C00K 3380   0.836  11.978   8.878  0.8966  1.1492 -0.5489
  5564G12c C00N 3381   0.461  12.055   8.825  1.0536  1.4419  1.7423
  5564G12c C000 3382   0.455  11.837   8.726  0.1427  1.0628  1.0240
  5564G12c C01J 3383   0.608  11.760   8.559 -0.2384 -0.0675  0.4537
  5564G12c C01K 3384   0.662  11.756   8.416  0.1439 -0.0482 -0.2139
  5564G12c C01P 3385   0.610  11.690   8.301  0.3709 -0.0330  0.0298
  5564G12c C01Q 3386   0.496  11.615   8.331  0.2473  2.1118  1.4077
  5564G12c H00G 3387   0.430  11.632   8.414 -7.0532  0.9296 -3.6277
  5564G12c C01R 3388   0.466  11.498   8.270  0.2721  0.6623  0.2087
  5564G12c H00F 3389   0.519  11.455   8.186  2.6716  5.6359 -1.0336
  5564G12c C01S 3390   0.342  11.416   8.311 -0.0969  1.1409 -0.5678
  5564G12c H00E 3391   0.273  11.470   8.376  1.5506  5.3893 -2.1637
  5564G12c H00D 3392   0.309  11.360   8.224  0.4392  1.9324 -1.2944
  5564G12c O005 3393   0.435  11.318   8.369 -0.8951 -0.6947 -0.4178
  5564G12c H00C 3394   0.388  11.237   8.382  0.3367 -0.7760  4.1502
  5564G12c C01O 3395   0.677  11.697   8.181  0.0817 -1.2143 -0.2988
  5564G12c H00H 3396   0.610  11.687   8.097 -1.9031  1.1724  0.9081
  5564G12c C01N 3397   0.801  11.737   8.160  0.4247 -0.6701  0.1421
  5564G12c O006 3398   0.867  11.780   8.032  0.2623  0.1118 -0.8163
  5564G12c C01T 3399   0.819  11.913   7.973  0.6052  0.0121  0.9811
  5564G12c H00K 3400   0.818  11.944   7.869  1.7300  1.7129  1.4491
  5564G12c H00J 3401   0.738  11.950   8.037  3.0020  1.0520  3.4793
  5564G12c H00I 3402   0.909  11.973   7.986 -0.1838  2.9471 -5.2604
  5564G12c C01M 3403   0.871  11.775   8.280 -0.9336  1.1807  0.7630
  5564G12c C020 3404   0.898  11.925   8.743 -0.1403  0.6712 -1.2001
  5564G12c C021 3405   1.039  11.921   8.719 -0.1233 -0.4335  0.6783
  5564G12c C01L 3406   0.800  11.795   8.402  0.8689  0.1739 -1.9876
  5564G12c O007 3407   0.969  11.862   8.243  2.4947  1.3588 -0.9771
  5564G12c C022 3408   1.088  11.918   8.587  0.3182  0.7974 -1.8515
  5564G12c C023 3409   1.109  12.018   8.789 -0.9011 -0.5391  1.5179
  5564G12c C00G 3410   1.224  12.271   8.823 -1.0721  0.3564 -0.2307
  5564G12c C00E 3411   1.420  12.416   8.798  0.6970 -1.3154  0.9676
  5564G12c O00A 3412   1.476  12.546   8.820  0.5415  0.1165  1.4124
  5564G12c C024 3413   1.466  12.640   8.715  2.6456  1.0412 -1.0069
  5564G12c H00V 3414   1.471  12.739   8.760 -7.2937  1.3116  0.6507
  5564G12c H00U 3415   1.366  12.647   8.673  1.5518  0.7347  1.4234
  5564G12c H00T 3416   1.556  12.652   8.656  4.0703  0.0307  0.8998
  5574G12c C00D 3417  10.327   2.706   2.066  1.8337  0.6017 -0.5882
  5574G12c O00B 3418  10.396   2.609   1.986 -0.3334 -1.6822 -0.9566
  5574G12c C025 3419  10.472   2.492   2.030 -2.2763 -0.4816  0.4180
  5574G12c C026 3420  10.417   2.351   2.021 -0.8070  1.9594 -0.3901
  5574G12c H00Y 3421  10.479   2.262   2.031 -2.1082  1.2748  1.7941
  5574G12c H00X 3422  10.374   2.340   1.921  0.8578 -2.5316 -0.7430
  5574G12c O00C 3423  10.281   2.329   2.072 -0.5954  1.0895  0.4546
  5574G12c H00W 3424  10.201   2.348   2.026 -0.5856 -1.4804 -0.6785
  5574G12c C027 3425  10.598   2.501   2.060  0.5745 -0.2763  0.9639
  5574G12c O00D 3426  10.648   2.631   2.020 -1.7979 -0.3209  1.0172
  5574G12c H00Z 3427  10.735   2.666   2.025 -2.2234  0.9683 -0.2499
  5574G12c C028 3428  10.668   2.407   2.156 -0.1644 -0.9377  1.1254
  5574G12c C029 3429  10.797   2.376   2.112  2.0223  1.3457  0.8850
  5574G12c H010 3430  10.868   2.426   2.048  5.9038 -4.0347  0.6111
  5574G12c C02T 3431  10.855   2.244   2.141 -0.4056 -1.4588 -0.1956
  5574G12c H01O 3432  10.954   2.220   2.108 -2.4813 -3.3450 -5.6439
  5574G12c C02S 3433  10.783   2.153   2.218 -0.9110  1.0788 -1.6239
  5574G12c O00J 3434  10.828   2.021   2.240 -1.0776 -0.5510 -0.6671
  5574G12c H01P 3435  10.755   1.992   2.291  2.0973 -3.3562  2.5655
  5574G12c C02R 3436  10.653   2.170   2.252 -0.1513 -1.5228  0.4391
  5574G12c O00I 3437  10.566   2.074   2.311  1.0952  1.2919 -0.4605
  5574G12c C02Q 3438  10.583   2.040   2.455  1.1950 -1.3110 -0.3077
  5574G12c H01N 3439  10.583   2.088   2.553 -1.8106 -3.3676  0.7584
  5574G12c H01R 3440  10.484   2.000   2.476 -2.4191  3.1556 -7.2858
  5574G12c H01Q 3441  10.643   1.953   2.485  1.5437 -0.7431  0.6754
  5574G12c C02A 3442  10.610   2.307   2.237  0.0448  0.2760  0.5766
  5574G12c H011 3443  10.521   2.344   2.285 -2.4032 -3.5968 -0.7635
  5574G12c C00C 3444  10.352   2.840   2.028  1.9961 -1.0282 -0.4889
  5574G12c H012 3445  10.440   2.859   1.969  6.0017 -0.1196  5.4178
  5574G12c C00B 3446  10.271   2.946   2.091 -0.8405 -0.2153 -0.0197
  5574G12c C00A 3447  10.284   3.089   2.070  1.0377  0.1481 -0.1546
  5574G12c C009 3448  10.402   3.162   2.020 -0.7128 -1.0436  0.3950
  5574G12c C008 3449  10.533   3.112   1.981  1.5007 -0.4921 -1.4678
  5574G12c H013 3450  10.556   3.008   1.963 -3.6165 -1.2436 -4.8149
  5574G12c C007 3451  10.638   3.214   1.988  0.7310  1.1528 -1.6568
  5574G12c H014 3452  10.729   3.183   1.939  0.5968 -2.3716  0.2240
  5574G12c C006 3453  10.617   3.324   2.054 -1.1867 -0.6877  0.9550
  5574G12c C005 3454  10.494   3.372   2.089 -0.3668 -0.4818  0.8411
  5574G12c C004 3455  10.479   3.466   2.189  0.8379 -0.1446  0.6444
  5574G12c C003 3456  10.345   3.464   2.248  1.6137  1.2036 -0.5855
  5574G12c C002 3457  10.338   3.572   2.329 -0.6469  0.2362 -1.1877
  5574G12c C001 3458  10.260   3.594   2.445 -0.0363 -0.9064  0.9439
  5574G12c C00M 3459  10.190   3.494   2.521 -0.1561  1.1617 -0.6481
  5574G12c C00L 3460  10.108   3.375   2.475 -0.9076  0.3151 -0.5243
  5574G12c C00R 3461  10.046   3.283   2.543 -0.6100 -0.6164 -0.0796
  5574G12c C00Q 3462  10.028   3.263   2.673 -0.7506 -0.0305  1.5479
  5574G12c C00V 3463   9.970   3.140   2.702  0.0206  0.5498  0.4713
  5574G12c C00U 3464   9.968   3.034   2.603 -0.2420  0.7306 -0.6246
  5574G12c C00T 3465  10.025   3.052   2.482  0.8983  0.4885 -0.0916
  5574G12c C016 3466  10.052   2.960   2.387 -1.5154  0.4382 -1.6273
  5574G12c C015 3467  10.005   2.836   2.397  0.9776  0.0562  1.2895
  5574G12c C010 3468   9.934   2.810   2.510  0.0815  0.7633  0.7262
  5574G12c C011 3469   9.865   2.694   2.502 -0.6362  0.8619 -1.1435
  5574G12c H005 3470   9.812   2.641   2.579 -4.3868  2.8328 -2.2468
  5574G12c C012 3471   9.870   2.605   2.398 -0.0368  1.2354 -0.8476
  5574G12c C017 3472   9.771   2.492   2.398 -0.9617 -1.3927  0.4535
  5574G12c O002 3473   9.698   2.476   2.299  0.3575 -0.4000  0.6871
  5574G12c H004 3474   9.664   2.392   2.327  4.1796 -0.9656  4.1797
  5574G12c C018 3475   9.810   2.404   2.486 -1.5634 -0.5292 -1.3213
  5574G12c O001 3476   9.915   2.427   2.587 -0.4917 -0.5943  0.6007
  5574G12c H003 3477   9.976   2.497   2.569  0.1907 -0.2274  4.0103
  5574G12c C019 3478   9.741   2.274   2.521 -0.4741  0.2107 -1.3830
  5574G12c H002 3479   9.804   2.233   2.599  1.2859 -2.9570 -4.3324
  5574G12c H001 3480   9.646   2.281   2.574  4.3896 -0.0461  8.4910
  5574G12c O000 3481   9.757   2.176   2.418  0.8469  0.7663  1.2331
  5574G12c C01A 3482   9.735   2.040   2.459 -0.6724 -0.6680 -0.5533
  5574G12c C02K 3483   9.831   1.940   2.447  2.2544  1.6117  2.2418
  5574G12c O00G 3484   9.957   1.949   2.391 -0.7030 -1.2696  0.6783
  5574G12c C02M 3485   9.989   2.025   2.279  0.1189 -1.5602 -0.5235
  5574G12c H01G 3486  10.013   2.131   2.282 -2.1966 -0.9239 -2.7783
  5574G12c H01F 3487   9.915   2.016   2.199  4.1657 -0.2880 -4.6579
  5574G12c H01E 3488  10.065   1.963   2.231 -1.7689 -4.7238  0.4472
  5574G12c C02J 3489   9.789   1.808   2.468 -0.3169 -1.2460  0.2417
  5574G12c H01H 3490   9.871   1.739   2.477 -0.9250 -1.7941  1.7247
  5574G12c C02I 3491   9.665   1.773   2.541  1.8997 -0.6355 -1.4840
  5574G12c C02N 3492   9.658   1.645   2.597 -0.6992  0.0342 -0.6511
  5574G12c H01M 3493   9.624   1.556   2.545  0.1769 -5.1290  6.8261
  5574G12c C02O 3494   9.608   1.640   2.724  0.9309  0.3650  0.0267
  5574G12c H01L 3495   9.627   1.739   2.763  4.4607  4.1318 -9.6450
  5574G12c C02P 3496   9.645   1.532   2.817 -1.6295  0.1366  1.8908
  5574G12c H01K 3497   9.565   1.459   2.806  0.0569 -1.6158  0.8643
  5574G12c H01J 3498   9.731   1.475   2.782 -3.1683 -1.0860 -0.0180
  5574G12c O00H 3499   9.671   1.599   2.939  2.4859 -0.8212 -0.0847
  5574G12c H01I 3500   9.710   1.685   2.936 -2.9742  2.1675  4.0045
  5574G12c C02H 3501   9.574   1.884   2.560  0.0073  1.4642  0.5017
  5574G12c H01C 3502   9.477   1.880   2.608 -2.4747 -0.2363 -4.2944
  5574G12c C02L 3503   9.596   2.003   2.479 -0.8531 -0.8701 -1.4190
  5574G12c H01D 3504   9.508   2.057   2.510 -3.5200 -1.8026 -6.8578
  5574G12c C013 3505   9.964   2.626   2.303 -0.7090  0.9873 -0.8624
  5574G12c H000 3506   9.950   2.545   2.233  1.6874  3.5933 -4.5608
  5574G12c C014 3507  10.040   2.741   2.303 -1.2865 -2.0610  0.1676
  5574G12c C00F 3508  10.140   2.767   2.212 -0.5621  1.9882 -1.1744
  5574G12c C00H 3509  10.129   2.990   2.273 -0.3174  0.0812 -0.9318
  5574G12c C00I 3510  10.143   3.116   2.232  0.4685 -0.1589 -1.2374
  5574G12c C00J 3511  10.099   3.203   2.336 -0.2331 -0.0167  0.5173
  5574G12c C00Z 3512   9.908   2.901   2.610  0.9456 -0.0949 -0.1404
  5574G12c C00Y 3513   9.836   2.876   2.735  0.8328  1.3600  1.2705
  5574G12c H006 3514   9.788   2.779   2.732 -1.9832  2.7249  1.0023
  5574G12c C00X 3515   9.864   2.977   2.846 -1.1130  0.3943  0.3289
  5574G12c O003 3516   9.811   2.977   2.963 -0.4643  0.3656  0.1318
  5574G12c C01B 3517   9.854   2.868   3.059 -0.4033  0.2171 -0.3786
  5574G12c H009 3518   9.822   2.884   3.161 -3.6202  3.6255 -1.8257
  5574G12c H008 3519   9.961   2.849   3.071 -0.0714 -0.0533 -3.2573
  5574G12c H007 3520   9.808   2.796   2.992 -0.1966 -4.3528  4.1023
  5574G12c C00W 3521   9.915   3.107   2.830  0.3223 -0.3990 -1.1184
  5574G12c O004 3522   9.917   3.202   2.917  1.4647  0.6218 -2.0124
  5574G12c C01C 3523  10.016   3.293   2.914  0.3102  0.1930 -0.8853
  5574G12c H00A 3524  10.095   3.299   2.988  0.5200  1.0638 -1.1732
  5574G12c C00P 3525  10.059   3.354   2.784 -0.3571  0.0689 -0.5819
  5574G12c C00O 3526  10.126   3.468   2.771 -0.2854 -2.1495  0.0962
  5574G12c C01D 3527  10.167   3.552   2.889  0.0069 -0.0648 -1.0651
  5574G12c H00S 3528  10.127   3.523   2.985 -3.6259  0.2063 -2.4085
  5574G12c C01E 3529  10.291   3.629   2.900 -0.1836  0.2653 -0.1048
  5574G12c O008 3530  10.364   3.683   3.004  1.0423  0.1831  0.7470
  5574G12c C01V 3531  10.313   3.656   3.131  0.6808 -0.0813 -0.0897
  5574G12c C01Z 3532  10.429   3.604   3.222  0.4640  0.0718 -0.7294
  5574G12c H00R 3533  10.519   3.634   3.168  2.8977 -1.6012  2.2602
  5574G12c H00Q 3534  10.441   3.667   3.310  0.0335 -1.2191  0.2699
  5574G12c O009 3535  10.446   3.464   3.283  0.3272  0.5873 -0.7119
  5574G12c H00P 3536  10.428   3.429   3.197 -3.5047  7.4021 -3.0663
  5574G12c C01W 3537  10.193   3.690   3.173 -2.3050 -0.2556  0.2183
  5574G12c H00O 3538  10.146   3.762   3.107  1.9257  3.2155  0.7698
  5574G12c C01X 3539  10.122   3.658   3.305  0.6133  0.6241  0.9739
  5574G12c H00N 3540  10.201   3.603   3.356  1.6205 -3.0810 -4.1236
  5574G12c H00M 3541  10.094   3.741   3.369  5.8138  2.2652  1.3660
  5574G12c C01Y 3542   9.999   3.565   3.295 -0.9343 -0.9993 -1.0687
  5574G12c C02D 3543   9.919   3.563   3.181  0.4250 -0.2271  0.1622
  5574G12c H019 3544   9.927   3.627   3.093 -2.7115  0.0841  0.0457
  5574G12c C02C 3545   9.814   3.460   3.165  0.7181 -0.7142 -0.5112
  5574G12c H01A 3546   9.783   3.425   3.068  1.7639 -5.9849  0.8922
  5574G12c C02B 3547   9.786   3.364   3.263 -0.0868 -1.6167 -1.2419
  5574G12c O00E 3548   9.708   3.258   3.249  1.2315 -1.6028 -0.8470
  5574G12c H01B 3549   9.707   3.196   3.320  0.2063 -1.2317 -0.5290
  5574G12c C02F 3550   9.893   3.348   3.365  1.1586 -0.0792 -0.1148
  5574G12c O00F 3551   9.861   3.247   3.460 -0.5626  1.6787  1.1945
  5574G12c C02G 3552   9.948   3.201   3.576 -1.2477  0.3358 -0.4237
  5574G12c H017 3553   9.977   3.100   3.547 -4.9646 -0.4319 -1.7492
  5574G12c H016 3554   9.906   3.195   3.677 -2.0343  1.9075 -0.6476
  5574G12c H015 3555  10.048   3.242   3.571 -0.1146 -2.0821  1.2055
  5574G12c C02E 3556   9.999   3.451   3.383 -0.3207  1.8448 -1.2090
  5574G12c H018 3557  10.043   3.448   3.482  2.7935  2.3295 -2.5187
  5574G12c C01F 3558  10.350   3.676   2.773 -0.8654 -0.2212 -0.5417
  5574G12c C01G 3559  10.471   3.739   2.734  1.2788 -2.5512  0.9776
  5574G12c H00L 3560  10.554   3.744   2.803  2.5548 -1.8541 -0.5764
  5574G12c C01H 3561  10.520   3.734   2.602 -1.5643  0.9333 -0.4821
  5574G12c H00B 3562  10.621   3.759   2.576 -0.9346  3.8625  4.2809
  5574G12c C01I 3563  10.432   3.719   2.496 -2.0712  1.0580 -0.4581
  5574G12c C01U 3564  10.270   3.655   2.660  1.1468  0.2305 -0.3730
  5574G12c C00S 3565  10.060   3.183   2.458  1.6605  0.0656  0.0528
  5574G12c C00K 3566  10.136   3.332   2.337  0.3774 -0.6254  0.2684
  5574G12c C00N 3567  10.183   3.537   2.660  1.1802  1.6404 -0.0351
  5574G12c C000 3568  10.313   3.674   2.532  1.6100 -1.2130 -1.4747
  5574G12c C01J 3569  10.454   3.663   2.359 -0.5948  1.2437  0.2750
  5574G12c C01K 3570  10.566   3.675   2.286  0.3409  0.0560  1.7775
  5574G12c C01P 3571  10.660   3.775   2.252  1.0177  0.5904 -0.6481
  5574G12c C01Q 3572  10.640   3.894   2.328  0.1973 -0.3404  1.0386
  5574G12c H00G 3573  10.702   3.909   2.415  1.3657 -6.6364  1.5399
  5574G12c C01R 3574  10.562   4.000   2.291 -0.2478  1.6619 -0.2644
  5574G12c H00F 3575  10.545   3.996   2.184 -1.9615 -1.8107  0.0955
  5574G12c C01S 3576  10.511   4.105   2.374 -0.3835 -1.5040 -1.6820
  5574G12c H00E 3577  10.574   4.106   2.463  1.0124  5.3538 -2.4692
  5574G12c H00D 3578  10.520   4.208   2.340  3.6248 -1.7382 -1.5663
  5574G12c O005 3579  10.375   4.063   2.440 -0.2937 -0.3958  0.4911
  5574G12c H00C 3580  10.339   4.073   2.527 -1.5733 -1.5080  0.1001
  5574G12c C01O 3581  10.773   3.758   2.170 -2.0180  1.2353 -1.0786
  5574G12c H00H 3582  10.841   3.841   2.155 -3.0400  2.5440  1.1157
  5574G12c C01N 3583  10.799   3.630   2.117  0.0872  1.9197 -1.9133
  5574G12c O006 3584  10.921   3.603   2.055  0.0832  0.0986 -0.5477
  5574G12c C01T 3585  10.908   3.666   1.921 -1.3099  0.5901 -0.0874
  5574G12c H00K 3586  10.805   3.702   1.910 -1.5369  0.3856  1.2432
  5574G12c H00J 3587  10.898   3.585   1.849 -6.6974 -0.6568  1.7936
  5574G12c H00I 3588  10.981   3.746   1.916 -0.9161  0.1009 -5.8237
  5574G12c C01M 3589  10.702   3.528   2.133  0.6440  0.5863  0.3836
  5574G12c C020 3590  10.248   3.358   2.248 -1.1424  0.7139  1.3271
  5574G12c C021 3591  10.266   3.277   2.135  0.5328  0.6584  0.6785
  5574G12c C01L 3592  10.580   3.549   2.208  0.4040 -1.5034  0.6084
  5574G12c O007 3593  10.725   3.397   2.096  1.8268  0.9046  0.4876
  5574G12c C022 3594  10.382   3.295   2.048  0.1309 -0.6670 -0.1880
  5574G12c C023 3595  10.201   3.157   2.124 -0.0874 -1.2416 -0.5730
  5574G12c C00G 3596  10.181   2.899   2.187  0.4487 -0.8470 -0.1972
  5574G12c C00E 3597  10.238   2.668   2.165 -0.1782 -0.5932  0.0765
  5574G12c O00A 3598  10.221   2.536   2.201  0.5915 -0.2669  0.2017
  5574G12c C024 3599  10.285   2.551   2.330 -0.0337  0.6188  1.3190
  5574G12c H00V 3600  10.254   2.649   2.366 -0.5666  2.3044 -3.3557
  5574G12c H00U 3601  10.258   2.467   2.394  2.6135  1.5474  3.7838
  5574G12c H00T 3602  10.390   2.536   2.354  0.2765  2.5365  1.2664
  5584G12c C00D 3603  10.081   5.126   7.171 -0.8699  1.8355  0.6509
  5584G12c O00B 3604   9.984   5.183   7.112  1.2540  0.3049 -0.1692
  5584G12c C025 3605  10.000   5.209   6.974  2.3670  1.1396  1.6230
  5584G12c C026 3606  10.140   5.219   6.909  0.5602 -1.2452  2.9805
  5584G12c H00Y 3607  10.234   5.207   6.963  2.6042 -2.8645 -0.7363
  5584G12c H00X 3608  10.159   5.313   6.858  1.4169 -2.4865  0.9396
  5584G12c O00C 3609  10.156   5.149   6.776 -0.3096  0.9498 -0.8337
  5584G12c H00W 3610  10.220   5.195   6.724  3.1933 -4.0374 -1.3165
  5584G12c C027 3611   9.884   5.204   6.911  0.1767 -1.3136 -0.0308
  5584G12c O00D 3612   9.769   5.177   6.985  0.7518  1.2153  2.1946
  5584G12c H00Z 3613   9.699   5.229   6.950  3.8757  5.9340  2.4751
  5584G12c C028 3614   9.875   5.259   6.773  1.5273 -0.4191  0.1082
  5584G12c C029 3615   9.855   5.168   6.665  1.4952  1.0510 -0.6452
  5584G12c H010 3616   9.815   5.073   6.696  7.7439 -1.4966  0.3555
  5584G12c C02T 3617   9.868   5.221   6.529  1.7138 -1.1335 -0.0739
  5584G12c H01O 3618   9.788   5.181   6.468  1.0932  0.6041 -0.4244
  5584G12c C02S 3619   9.919   5.352   6.522 -1.4381  0.0673  1.4457
  5584G12c O00J 3620   9.894   5.433   6.406  0.3323  0.2808  0.2513
  5584G12c H01P 3621   9.879   5.520   6.441 -1.1441  0.3225 -0.4297
  5584G12c C02R 3622   9.951   5.433   6.634  0.1789 -1.6497 -0.6718
  5584G12c O00I 3623  10.025   5.543   6.636 -1.2990  0.8088  0.3371
  5584G12c C02Q 3624   9.997   5.658   6.684 -0.5417 -1.0195  0.6640
  5584G12c H01N 3625  10.012   5.738   6.612  1.4516 -0.2726  1.9006
  5584G12c H01R 3626  10.088   5.673   6.742 -0.6295  1.8548  0.1334
  5584G12c H01Q 3627   9.953   5.659   6.783 -3.7038  0.2143 -0.6970
  5584G12c C02A 3628   9.906   5.396   6.755  0.5214  0.6456 -0.8033
  5584G12c H011 3629   9.898   5.460   6.841 -7.1850  2.8468 -2.7761
  5584G12c C00C 3630  10.083   4.993   7.134 -0.9310 -0.4944 -0.4854
  5584G12c H012 3631  10.009   4.969   7.060 -2.1565 -3.9404  1.7577
  5584G12c C00B 3632  10.206   4.922   7.169 -0.5926 -1.2410 -0.5721
  5584G12c C00A 3633  10.255   4.808   7.090 -0.0139  0.4057 -0.8974
  5584G12c C009 3634  10.206   4.698   7.005 -0.7620  0.5781  0.3434
  5584G12c C008 3635  10.077   4.665   6.947 -0.3656  0.4773  0.8213
  5584G12c H013 3636   9.989   4.727   6.939  2.4685  4.2741 -2.3486
  5584G12c C007 3637  10.068   4.530   6.921 -0.9790 -0.1491 -0.1059
  5584G12c H014 3638   9.985   4.462   6.904  0.8035 -1.2307 -5.1817
  5584G12c C006 3639  10.185   4.443   6.914 -1.0725 -0.9196  0.5648
  5584G12c C005 3640  10.308   4.485   6.946  0.0179 -0.9112 -1.2509
  5584G12c C004 3641  10.420   4.408   6.957  1.2141 -0.4733 -1.6265
  5584G12c C003 3642  10.544   4.448   7.021  0.4241  0.7269  0.5315
  5584G12c C002 3643  10.615   4.337   7.068 -1.4326 -1.8339 -0.6581
  5584G12c C001 3644  10.744   4.339   7.157  0.8785  0.2489 -0.7581
  5584G12c C00M 3645  10.737   4.431   7.276 -1.1380  1.1580 -0.1513
  5584G12c C00L 3646  10.722   4.570   7.282  0.9009  0.9164 -0.3237
  5584G12c C00R 3647  10.697   4.643   7.403 -0.9431  0.9467  1.6317
  5584G12c C00Q 3648  10.726   4.618   7.541  0.8366  0.0908  1.9684
  5584G12c C00V 3649  10.676   4.736   7.623  0.2125 -0.6130 -0.2471
  5584G12c C00U 3650  10.625   4.856   7.573  0.6823 -0.5047  0.8240
  5584G12c C00T 3651  10.593   4.859   7.441  0.9374  0.1639  0.6363
  5584G12c C016 3652  10.495   4.939   7.392 -0.8956 -0.4549 -0.2529
  5584G12c C015 3653  10.425   5.022   7.488 -0.9489  0.8601  1.2905
  5584G12c C010 3654  10.478   5.051   7.603  2.1063  1.6783  0.7947
  5584G12c C011 3655  10.432   5.130   7.698  0.2265  1.3115 -0.1441
  5584G12c H005 3656  10.477   5.123   7.796 -6.1185  2.7829  3.2012
  5584G12c C012 3657  10.322   5.206   7.672 -0.9084 -0.1139  0.3964
  5584G12c C017 3658  10.273   5.307   7.762 -0.2162 -1.2578  0.0914
  5584G12c O002 3659  10.237   5.423   7.696 -0.0206 -1.4130  0.1432
  5584G12c H004 3660  10.299   5.495   7.693  2.6357 -3.6375  0.1548
  5584G12c C018 3661  10.280   5.286   7.891 -1.3369  0.5484 -0.3709
  5584G12c O001 3662  10.308   5.156   7.940  1.1406 -0.5423  1.0044
  5584G12c H003 3663  10.390   5.181   7.980  0.4827  3.2557  0.1471
  5584G12c C019 3664  10.240   5.388   8.009  0.3466 -0.0422  1.9225
  5584G12c H002 3665  10.186   5.449   7.937  2.3316 -1.3335 -0.7596
  5584G12c H001 3666  10.169   5.326   8.063 -5.1569  2.1233 -2.3631
  5584G12c O000 3667  10.361   5.446   8.072  0.0979 -0.4786 -0.7792
  5584G12c C01A 3668  10.443   5.505   7.985 -0.0237 -0.9076 -0.8157
  5584G12c C02K 3669  10.435   5.626   7.910  0.5411 -0.5756 -0.3235
  5584G12c O00G 3670  10.313   5.690   7.947  0.0312  1.0278  1.2986
  5584G12c C02M 3671  10.323   5.777   8.051 -0.0701  0.8832 -0.5877
  5584G12c H01G 3672  10.227   5.826   8.064  1.8812  6.1423 -4.2827
  5584G12c H01F 3673  10.390   5.859   8.026 -0.2763  2.3704  3.3542
  5584G12c H01E 3674  10.386   5.744   8.133  4.4919  3.6494 -2.7769
  5584G12c C02J 3675  10.518   5.676   7.821  1.1148  1.0348 -0.3964
  5584G12c H01H 3676  10.503   5.777   7.784 -2.5605  2.1779  3.8271
  5584G12c C02I 3677  10.643   5.605   7.810  1.5215  1.0848 -0.6573
  5584G12c C02N 3678  10.746   5.628   7.728  0.4205  0.1843 -0.5555
  5584G12c H01M 3679  10.825   5.686   7.772  5.9309 -7.2138  0.2197
  5584G12c C02O 3680  10.717   5.652   7.594 -1.0011  1.2528 -0.6464
  5584G12c H01L 3681  10.625   5.624   7.546 -1.3357  1.9397 -0.4191
  5584G12c C02P 3682  10.829   5.715   7.542 -0.4003 -0.6923  2.0639
  5584G12c H01K 3683  10.923   5.684   7.588  2.0797 -1.1965 -3.0471
  5584G12c H01J 3684  10.820   5.685   7.438  4.5156 -0.0312  1.3455
  5584G12c O00H 3685  10.815   5.859   7.549  0.1240 -1.1285  0.5686
  5584G12c H01I 3686  10.849   5.881   7.635  4.9800  0.4576 -1.5659
  5584G12c C02H 3687  10.659   5.479   7.875  2.3607 -0.1401  1.3253
  5584G12c H01C 3688  10.739   5.414   7.845 -2.3893 -1.7507-10.4482
  5584G12c C02L 3689  10.550   5.430   7.958 -0.7440 -1.2464 -1.0907
  5584G12c H01D 3690  10.566   5.332   8.001 -0.1521 -0.6966 -0.0368
  5584G12c C013 3691  10.276   5.212   7.541  0.3230  0.7756 -3.0424
  5584G12c H000 3692  10.212   5.285   7.494  2.7026  5.7583  1.0611
  5584G12c C014 3693  10.326   5.114   7.448 -0.1852  0.2815  1.6835
  5584G12c C00F 3694  10.272   5.104   7.324  0.9499  0.6177  0.5347
  5584G12c C00H 3695  10.434   4.934   7.260 -0.1742  0.5704 -1.2396
  5584G12c C00I 3696  10.503   4.836   7.171  0.2630  0.5007  0.3372
  5584G12c C00J 3697  10.632   4.775   7.216  0.1711 -2.4786 -0.0422
  5584G12c C00Z 3698  10.567   4.949   7.660  2.7994  0.0671 -0.3396
  5584G12c C00Y 3699  10.638   4.955   7.795  1.3874  0.8699  1.0750
  5584G12c H006 3700  10.641   5.035   7.867  1.3355 -1.4062  3.6751
  5584G12c C00X 3701  10.668   4.819   7.846  0.0049  0.1437  0.0253
  5584G12c O003 3702  10.715   4.806   7.968  0.0951 -1.3299  1.5624
  5584G12c C01B 3703  10.672   4.894   8.075  1.0413 -0.5573  0.2306
  5584G12c H009 3704  10.708   4.845   8.165 -2.9181  0.8465  2.6931
  5584G12c H008 3705  10.744   4.976   8.081 -3.7588  3.6708  3.6894
  5584G12c H007 3706  10.575   4.941   8.086  1.6434  1.9176 -3.8173
  5584G12c C00W 3707  10.706   4.722   7.759  0.2505  0.8839 -1.0739
  5584G12c O004 3708  10.721   4.602   7.811  0.3506  0.1671 -0.7241
  5584G12c C01C 3709  10.778   4.492   7.744  0.1764  0.0581 -0.1227
  5584G12c H00A 3710  10.799   4.402   7.800  1.9463 -1.3348 -2.9398
  5584G12c C00P 3711  10.766   4.487   7.600  0.2493 -1.8173 -0.5125
  5584G12c C00O 3712  10.753   4.365   7.523 -0.3612 -1.1676 -0.3788
  5584G12c C01D 3713  10.755   4.241   7.592  0.2496  1.2807  0.0883
  5584G12c H00S 3714  10.789   4.251   7.694  5.8540 -0.4426 -1.4345
  5584G12c C01E 3715  10.741   4.101   7.546 -0.5867  0.2700  0.1287
  5584G12c O008 3716  10.783   3.985   7.606  0.5605 -0.3408 -0.3792
  5584G12c C01V 3717  10.855   3.951   7.719  0.7978 -0.4200  1.2285
  5584G12c C01Z 3718  10.775   3.881   7.839  0.9846  0.0845  0.9991
  5584G12c H00R 3719  10.762   3.779   7.802 -4.0850  1.9964 -3.0128
  5584G12c H00Q 3720  10.827   3.871   7.934 -3.0403 -3.1575  3.0577
  5584G12c O009 3721  10.666   3.962   7.881 -0.4659  1.9365 -0.5195
  5584G12c H00P 3722  10.699   4.028   7.940 -1.5608  0.7759  1.4275
  5584G12c C01W 3723  10.976   4.004   7.711 -1.6722 -0.8281  0.0492
  5584G12c H00O 3724  11.021   4.019   7.614 -4.9968 -0.2510 -1.4840
  5584G12c C01X 3725  11.083   4.005   7.833 -0.2824  0.4458 -0.3725
  5584G12c H00N 3726  11.170   4.053   7.788  0.4830 -2.4794 -2.1554
  5584G12c H00M 3727  11.024   4.073   7.894 -0.0702  4.8769 -4.7570
  5584G12c C01Y 3728  11.128   3.866   7.877 -0.9529  0.4722  0.6931
  5584G12c C02D 3729  11.124   3.833   8.014  1.8426 -0.5819  1.0412
  5584G12c H019 3730  11.097   3.922   8.070  5.4687  3.3323 -2.9576
  5584G12c C02C 3731  11.148   3.700   8.050 -0.4428 -1.1408  1.0041
  5584G12c H01A 3732  11.136   3.687   8.157  1.1913  0.9466  1.4886
  5584G12c C02B 3733  11.167   3.599   7.948  0.6416 -0.9174  1.0840
  5584G12c O00E 3734  11.208   3.481   7.982  0.0918  1.6888  0.4814
  5584G12c H01B 3735  11.216   3.442   7.896  3.5490  2.2529  0.4936
  5584G12c C02F 3736  11.169   3.625   7.808 -2.1635 -0.7859 -1.9222
  5584G12c O00F 3737  11.164   3.513   7.733 -0.8031 -1.4728 -0.5302
  5584G12c C02G 3738  11.225   3.515   7.610  0.9673  0.2026 -0.0006
  5584G12c H017 3739  11.216   3.615   7.568  3.8089  0.9489  1.0531
  5584G12c H016 3740  11.201   3.440   7.535 -9.3222 -3.3901  5.9136
  5584G12c H015 3741  11.329   3.498   7.638  0.7168  1.0424  1.4670
  5584G12c C02E 3742  11.159   3.764   7.780  0.9888  0.4560  0.8236
  5584G12c H018 3743  11.180   3.798   7.680 -1.7581  9.2225  2.7994
  5584G12c C01F 3744  10.713   4.084   7.417  1.9150 -0.1940  0.6774
  5584G12c C01G 3745  10.638   3.992   7.351 -0.4471 -0.9711 -2.2022
  5584G12c H00L 3746  10.609   3.910   7.414 -0.4155  2.0916  1.9971
  5584G12c C01H 3747  10.613   4.002   7.204  0.6950  1.5273  0.5757
  5584G12c H00B 3748  10.559   3.916   7.169 -0.4700  2.3109  0.4012
  5584G12c C01I 3749  10.664   4.123   7.143  0.4554  1.3420  0.0982
  5584G12c C01U 3750  10.727   4.198   7.339 -0.5434 -0.4040  0.8979
  5584G12c C00S 3751  10.659   4.775   7.360 -0.4011 -0.8757  1.1276
  5584G12c C00K 3752  10.661   4.636   7.158 -1.2396 -0.0698 -1.5317
  5584G12c C00N 3753  10.746   4.340   7.388  0.7263  1.5049 -1.3415
  5584G12c C000 3754  10.748   4.211   7.203 -1.0302  0.2044 -0.0923
  5584G12c C01J 3755  10.596   4.200   7.046 -0.9152 -0.2562 -0.5862
  5584G12c C01K 3756  10.503   4.165   6.947 -0.0553 -1.0343  1.6152
  5584G12c C01P 3757  10.481   4.034   6.908 -1.1020 -0.3104  0.1232
  5584G12c C01Q 3758  10.600   3.945   6.894  1.5660 -1.9686  0.1918
  5584G12c H00G 3759  10.586   3.846   6.933 -8.1230 -0.1687  2.5799
  5584G12c C01R 3760  10.709   3.977   6.821  0.0498  2.0856 -2.8204
  5584G12c H00F 3761  10.756   4.049   6.756  8.5288 -2.3634 -2.2641
  5584G12c C01S 3762  10.829   3.889   6.802  0.5100 -0.2706 -0.3824
  5584G12c H00E 3763  10.908   3.964   6.801 -1.9642  2.8086  5.2448
  5584G12c H00D 3764  10.853   3.830   6.891  0.6957  3.7012  2.3367
  5584G12c O005 3765  10.858   3.827   6.679 -1.6371  1.1576  0.6722
  5584G12c H00C 3766  10.944   3.796   6.704 -3.1515 -0.5961  4.0155
  5584G12c C01O 3767  10.356   3.996   6.880 -0.2219  0.1317 -0.7998
  5584G12c H00H 3768  10.332   3.891   6.888 -2.5030  0.9152  5.8730
  5584G12c C01N 3769  10.246   4.084   6.899  1.0952  0.6561  0.3486
  5584G12c O006 3770  10.115   4.046   6.898  0.2787 -1.1945 -0.1389
  5584G12c C01T 3771  10.068   3.964   7.014  0.2772  0.4572  0.9750
  5584G12c H00K 3772  10.124   3.873   7.036  3.0094  2.2878  1.8660
  5584G12c H00J 3773  10.087   4.031   7.098 -4.4783 -2.1817  4.4070
  5584G12c H00I 3774   9.973   3.964   6.961 -0.2562 -0.1379  1.9304
  5584G12c C01M 3775  10.273   4.215   6.924  0.4990  1.4491 -0.4077
  5584G12c C020 3776  10.557   4.586   7.076 -0.3872 -0.6278 -1.5753
  5584G12c C021 3777  10.446   4.665   7.035 -1.0167 -0.7346 -1.1238
  5584G12c C01L 3778  10.413   4.273   6.924  0.6149 -0.7730 -0.3332
  5584G12c O007 3779  10.171   4.304   6.898 -1.1812  0.5702  0.5653
  5584G12c C022 3780  10.325   4.623   6.985  0.2421 -0.4561 -0.3254
  5584G12c C023 3781  10.404   4.781   7.099 -0.0824  2.4002  0.4271
  5584G12c C00G 3782  10.308   4.993   7.242 -1.1505 -0.7975  0.1245
  5584G12c C00E 3783  10.170   5.188   7.266  0.0254 -0.4303  1.5716
  5584G12c O00A 3784  10.212   5.303   7.234 -1.1575  0.0700 -0.4592
  5584G12c C024 3785  10.331   5.325   7.171  0.6656  0.8289 -1.6964
  5584G12c H00V 3786  10.401   5.375   7.237  0.7025  0.5351 -1.5100
  5584G12c H00U 3787  10.314   5.350   7.066  2.2492  8.9267 -0.2919
  5584G12c H00T 3788  10.414   5.255   7.173  2.6752  3.1714  2.7265
  5594G12c C00D 3789   1.960   6.370   4.132  0.4459 -0.8326 -2.4016
  5594G12c O00B 3790   1.972   6.433   4.010  0.2091 -0.4553  0.3584
  5594G12c C025 3791   1.880   6.518   3.969 -0.1959  1.0609 -0.1067
  5594G12c C026 3792   1.903   6.661   4.022  0.5295  1.3618  0.6066
  5594G12c H00Y 3793   2.010   6.657   4.040  1.3372  4.2325 -2.9506
  5594G12c H00X 3794   1.885   6.677   4.128 -0.3553 -3.8064  1.3748
  5594G12c O00C 3795   1.877   6.774   3.917 -0.3663 -0.3951 -0.5704
  5594G12c H00W 3796   1.832   6.722   3.852 -1.5451  1.0766 -0.9704
  5594G12c C027 3797   1.765   6.483   3.896 -2.5006 -0.0981  0.3249
  5594G12c O00D 3798   1.744   6.354   3.871 -0.4105  1.1976  1.2475
  5594G12c H00Z 3799   1.827   6.313   3.888 -0.6487  0.5586  0.8731
  5594G12c C028 3800   1.674   6.580   3.827  0.3689 -1.6819 -0.3795
  5594G12c C029 3801   1.534   6.617   3.876  0.5853  1.1174  0.7787
  5594G12c H010 3802   1.484   6.577   3.962  6.6881 -2.9281  2.7196
  5594G12c C02T 3803   1.453   6.681   3.782  1.0663  0.1037  0.2121
  5594G12c H01O 3804   1.350   6.712   3.796  0.6220 -3.7596  8.9203
  5594G12c C02S 3805   1.500   6.711   3.656 -0.6020 -0.5743  1.6812
  5594G12c O00J 3806   1.420   6.775   3.574  0.0308  0.1979 -0.0069
  5594G12c H01P 3807   1.448   6.767   3.483  2.0412  1.2610  0.4701
  5594G12c C02R 3808   1.622   6.671   3.606 -0.6595  0.3739  0.5811
  5594G12c O00I 3809   1.634   6.668   3.476 -0.6079  0.7770 -1.0807
  5594G12c C02Q 3810   1.648   6.545   3.425 -1.1458  0.7047  0.3460
  5594G12c H01N 3811   1.587   6.464   3.466 -5.4542 -0.2458 -6.9844
  5594G12c H01R 3812   1.754   6.520   3.436 -0.5079  3.9042  1.8720
  5594G12c H01Q 3813   1.623   6.584   3.327  2.6635 -3.5817 -2.5884
  5594G12c C02A 3814   1.705   6.615   3.694 -0.3632  0.4648  1.7813
  5594G12c H011 3815   1.801   6.578   3.660 -0.2793 -0.9682  3.4952
  5594G12c C00C 3816   1.837   6.397   4.211 -0.5178  0.3101  1.0818
  5594G12c H012 3817   1.749   6.451   4.181  1.8236  1.4570 -4.4614
  5594G12c C00B 3818   1.799   6.312   4.303 -0.6122  1.3414  1.1981
  5594G12c C00A 3819   1.675   6.305   4.388  0.3837 -0.8896 -0.1926
  5594G12c C009 3820   1.572   6.414   4.406  1.3585  0.5508 -0.1398
  5594G12c C008 3821   1.569   6.548   4.364 -0.5465  0.1191 -0.6901
  5594G12c H013 3822   1.658   6.583   4.314  0.9568  2.7332  3.5516
  5594G12c C007 3823   1.470   6.644   4.433 -1.3405  1.6410 -0.7611
  5594G12c H014 3824   1.466   6.746   4.399  4.9042  1.3546 -2.8711
  5594G12c C006 3825   1.428   6.593   4.568 -0.4938  0.0214 -0.1534
  5594G12c C005 3826   1.443   6.466   4.606 -0.2719 -0.4470 -0.3314
  5594G12c C004 3827   1.411   6.420   4.736 -0.0881 -1.0408 -0.2108
  5594G12c C003 3828   1.457   6.286   4.774 -1.8060  0.8302  0.2639
  5594G12c C002 3829   1.443   6.255   4.919 -0.1844  0.2411 -0.7598
  5594G12c C001 3830   1.468   6.153   4.997  0.4427 -0.1054  0.7905
  5594G12c C00M 3831   1.588   6.070   4.983 -1.5617 -0.6933 -0.3861
  5594G12c C00L 3832   1.657   6.038   4.874  0.8867 -0.0197 -0.3060
  5594G12c C00R 3833   1.799   6.003   4.867  0.2276  2.2522 -0.5163
  5594G12c C00Q 3834   1.905   5.974   4.957  0.7835  1.2191 -2.1014
  5594G12c C00V 3835   2.042   5.974   4.894  1.9922  0.0283 -1.4024
  5594G12c C00U 3836   2.070   6.022   4.766  0.4901  0.5940  1.7245
  5594G12c C00T 3837   1.958   6.031   4.681  0.8314  0.4039 -1.0582
  5594G12c C016 3838   1.979   6.095   4.558  0.1156  0.0876 -0.1187
  5594G12c C015 3839   2.107   6.097   4.498  0.8814 -0.8226 -0.6860
  5594G12c C010 3840   2.215   6.060   4.580  0.8008  1.7343  0.0929
  5594G12c C011 3841   2.340   6.025   4.528 -0.5405 -1.4480 -2.1439
  5594G12c H005 3842   2.423   6.008   4.595 -4.1656 -0.6593  2.8559
  5594G12c C012 3843   2.361   6.063   4.406 -0.2791  0.2116  1.2304
  5594G12c C017 3844   2.500   6.032   4.359 -1.2416 -0.4750 -1.7592
  5594G12c O002 3845   2.606   6.129   4.369  0.5877 -0.0512  0.5342
  5594G12c H004 3846   2.592   6.207   4.421 -0.1309 -1.6046  2.7420
  5594G12c C018 3847   2.538   5.918   4.298 -0.1478  1.2816 -0.1412
  5594G12c O001 3848   2.433   5.856   4.230  1.2181  1.6375 -0.2878
  5594G12c H003 3849   2.361   5.895   4.276  4.3077  0.7032  5.9230
  5594G12c C019 3850   2.672   5.864   4.266 -1.4949  0.1969  0.6861
  5594G12c H002 3851   2.756   5.933   4.265 -1.6446  0.5769 -5.7747
  5594G12c H001 3852   2.683   5.767   4.314 -3.8995  1.9780  5.2290
  5594G12c O000 3853   2.659   5.862   4.120 -0.5730  1.0549 -0.3480
  5594G12c C01A 3854   2.757   5.779   4.064  0.0838  0.5612 -0.2427
  5594G12c C02K 3855   2.720   5.649   4.000 -0.6742 -2.0809  0.1855
  5594G12c O00G 3856   2.605   5.574   3.981 -0.6690  2.0586 -0.3041
  5594G12c C02M 3857   2.526   5.668   3.895  0.4368  1.0089 -1.4152
  5594G12c H01G 3858   2.561   5.678   3.793 -2.8410  3.5523 -2.3941
  5594G12c H01F 3859   2.437   5.613   3.865  1.2247  0.0684 -2.0345
  5594G12c H01E 3860   2.515   5.770   3.932  2.7710  1.4941 -2.0031
  5594G12c C02J 3861   2.827   5.601   3.908  0.5448 -0.7523  1.1169
  5594G12c H01H 3862   2.814   5.513   3.847 -8.7142  0.3065  0.8727
  5594G12c C02I 3863   2.956   5.647   3.920  0.4580 -1.4437 -0.0229
  5594G12c C02N 3864   3.079   5.571   3.866  0.6235  0.9514 -0.4422
  5594G12c H01M 3865   3.175   5.602   3.905  3.4197  0.7937 -6.6367
  5594G12c C02O 3866   3.086   5.489   3.758  0.0449  2.2470  0.5093
  5594G12c H01L 3867   3.006   5.445   3.700 -1.3495  5.4876 -0.0927
  5594G12c C02P 3868   3.222   5.432   3.696 -0.4455 -1.9241 -0.9547
  5594G12c H01K 3869   3.280   5.507   3.642  0.4002 -5.2933 -4.9987
  5594G12c H01J 3870   3.270   5.346   3.742 -2.7007 -0.4710  4.4985
  5594G12c O00H 3871   3.168   5.379   3.572 -0.5588 -1.3843  1.0103
  5594G12c H01I 3872   3.152   5.286   3.579 -2.3252 -0.9804  2.9871
  5594G12c C02H 3873   2.981   5.768   3.983 -0.4556 -1.3869  0.9420
  5594G12c H01C 3874   3.081   5.803   4.002 -1.8907  3.0970  0.8403
  5594G12c C02L 3875   2.886   5.848   4.035  1.8806  0.2414 -0.7231
  5594G12c H01D 3876   2.895   5.945   4.081  0.8873  0.9048 -1.8694
  5594G12c C013 3877   2.257   6.123   4.327 -0.3200  2.6324 -0.5095
  5594G12c H000 3878   2.312   6.153   4.238  2.4994 -0.9537 -0.1193
  5594G12c C014 3879   2.126   6.145   4.372  0.3628  0.5612  2.0850
  5594G12c C00F 3880   2.014   6.206   4.303 -0.3000  0.5997  0.4236
  5594G12c C00H 3881   1.870   6.156   4.486 -0.4294  0.7110  1.2154
  5594G12c C00I 3882   1.742   6.123   4.527 -0.1641 -0.1811  0.8169
  5594G12c C00J 3883   1.726   6.047   4.642 -0.4550 -1.0087 -0.8985
  5594G12c C00Z 3884   2.203   6.034   4.715 -0.5799  0.9274 -1.0357
  5594G12c C00Y 3885   2.296   6.017   4.803  0.5118  1.7591  1.5453
  5594G12c H006 3886   2.399   6.012   4.771 -0.2753  0.3859 -0.9120
  5594G12c C00X 3887   2.267   5.969   4.934  0.3775 -1.9678  0.8202
  5594G12c O003 3888   2.362   5.959   5.039  0.0043  0.9198  0.4712
  5594G12c C01B 3889   2.494   5.991   5.005  2.3668 -1.2205  1.9435
  5594G12c H009 3890   2.505   6.079   4.941 -3.5906 -1.8264 -0.1755
  5594G12c H008 3891   2.560   5.984   5.092  2.0209  1.8452  2.5196
  5594G12c H007 3892   2.544   5.908   4.956 -3.8131 -0.8363 -5.9925
  5594G12c C00W 3893   2.143   5.917   4.960 -0.1333  0.7284  0.5287
  5594G12c O004 3894   2.135   5.909   5.096  1.1782  0.6800 -0.4830
  5594G12c C01C 3895   2.038   5.987   5.152  0.2542  0.1622  1.7976
  5594G12c H00A 3896   2.069   6.077   5.204 -0.5895  1.3831  0.2194
  5594G12c C00P 3897   1.906   6.000   5.097  0.4269  0.2392  2.5907
  5594G12c C00O 3898   1.798   6.054   5.170 -0.3003 -0.2788 -0.9784
  5594G12c C01D 3899   1.841   6.096   5.310 -1.2148 -0.3215  0.3885
  5594G12c H00S 3900   1.936   6.077   5.358 -0.9759  0.5090  0.2494
  5594G12c C01E 3901   1.741   6.181   5.378 -0.6898  0.3546  0.1791
  5594G12c O008 3902   1.800   6.245   5.490  1.0916 -1.5071  0.3423
  5594G12c C01V 3903   1.767   6.249   5.615 -0.9860 -0.5313 -0.0691
  5594G12c C01Z 3904   1.797   6.126   5.692 -0.0283  0.2687 -0.5099
  5594G12c H00R 3905   1.768   6.159   5.792  2.7060  0.2401  0.3380
  5594G12c H00Q 3906   1.741   6.051   5.637 -4.1763  5.4895 -3.9314
  5594G12c O009 3907   1.920   6.063   5.703  0.9361  1.2565  1.3377
  5594G12c H00P 3908   1.918   6.010   5.782  3.5306 -3.1390 -1.3239
  5594G12c C01W 3909   1.741   6.375   5.668 -0.4820 -0.0401  1.3649
  5594G12c H00O 3910   1.720   6.441   5.585 -0.3479  3.4027  3.9717
  5594G12c C01X 3911   1.693   6.414   5.803 -0.9518 -0.5923 -0.5128
  5594G12c H00N 3912   1.604   6.476   5.790  1.5241  2.9518 -1.5323
  5594G12c H00M 3913   1.661   6.327   5.860  1.3389  0.9991  3.4008
  5594G12c C01Y 3914   1.807   6.491   5.861  0.7489  0.7630  0.4726
  5594G12c C02D 3915   1.796   6.619   5.849 -0.0288  0.8697  0.7762
  5594G12c H019 3916   1.703   6.659   5.810 -0.9318 -2.4336 -0.6509
  5594G12c C02C 3917   1.902   6.708   5.872  1.5038 -0.0557  0.3027
  5594G12c H01A 3918   1.873   6.810   5.853 -1.7666 -0.6221  1.9137
  5594G12c C02B 3919   2.027   6.648   5.912 -1.2126  0.5794  1.3101
  5594G12c O00E 3920   2.144   6.709   5.955  0.0208  0.5081 -1.5481
  5594G12c H01B 3921   2.202   6.635   5.967 -3.6563 -2.5073 -1.2106
  5594G12c C02F 3922   2.033   6.507   5.917 -0.4865 -0.7666 -1.1165
  5594G12c O00F 3923   2.151   6.433   5.941 -0.9971  0.7997 -0.0213
  5594G12c C02G 3924   2.229   6.401   5.824  0.0794  1.4250  0.6134
  5594G12c H017 3925   2.326   6.449   5.813  5.3116 -7.2461  3.4769
  5594G12c H016 3926   2.181   6.383   5.728 -0.4083 -3.7352  1.6824
  5594G12c H015 3927   2.297   6.320   5.850 -0.0243  3.0252  6.7915
  5594G12c C02E 3928   1.920   6.424   5.890  0.3412 -1.6898 -0.7843
  5594G12c H018 3929   1.945   6.319   5.891  0.4481 -1.7195 -2.8364
  5594G12c C01F 3930   1.612   6.213   5.322  1.3480 -0.4663 -0.3594
  5594G12c C01G 3931   1.508   6.319   5.359  1.0434  0.4247 -2.3659
  5594G12c H00L 3932   1.508   6.371   5.453  3.8520 -0.6309 -1.7431
  5594G12c C01H 3933   1.428   6.391   5.250 -0.3726  0.5265 -0.4761
  5594G12c H00B 3934   1.398   6.494   5.242 -1.8563  0.4279  2.8333
  5594G12c C01I 3935   1.407   6.325   5.124  1.1088  1.7575  0.2901
  5594G12c C01U 3936   1.563   6.141   5.198  0.8533  0.9115 -0.5843
  5594G12c C00S 3937   1.824   5.994   4.729 -0.5976  0.8392  2.8941
  5594G12c C00K 3938   1.618   6.084   4.746 -0.4962  0.4697  0.4467
  5594G12c C00N 3939   1.656   6.058   5.119  0.0837  1.4571  1.8659
  5594G12c C000 3940   1.456   6.191   5.119 -0.3883  1.6364 -0.3798
  5594G12c C01J 3941   1.390   6.368   4.996  0.5181  1.5701  0.0499
  5594G12c C01K 3942   1.308   6.482   4.945 -0.0406  1.1509 -0.2330
  5594G12c C01P 3943   1.229   6.568   5.012 -0.9005 -1.3792 -0.2911
  5594G12c C01Q 3944   1.154   6.518   5.137 -1.6512  0.2214 -0.3235
  5594G12c H00G 3945   1.113   6.418   5.127 -3.8976  0.8597  2.1534
  5594G12c C01R 3946   1.107   6.593   5.237  0.6730  1.4992 -0.1573
  5594G12c H00F 3947   1.149   6.692   5.254  3.7800 -0.1521  2.4831
  5594G12c C01S 3948   1.005   6.534   5.340 -1.2276  0.7178  1.8449
  5594G12c H00E 3949   0.925   6.605   5.362  1.4060  4.5291 -0.1881
  5594G12c H00D 3950   0.966   6.459   5.271 -3.9195  6.5770 -3.5839
  5594G12c O005 3951   1.078   6.448   5.420  0.1664 -1.1328  0.7072
  5594G12c H00C 3952   1.004   6.396   5.447 -3.7040  1.5304 -3.8688
  5594G12c C01O 3953   1.225   6.702   4.987  2.2620  0.9526  2.1614
  5594G12c H00H 3954   1.154   6.766   5.036  0.2609  2.3665 -2.3074
  5594G12c C01N 3955   1.286   6.758   4.871  0.9011  3.1222  0.2306
  5594G12c O006 3956   1.322   6.885   4.869 -0.8390  0.3489  0.6245
  5594G12c C01T 3957   1.459   6.906   4.923 -1.0314 -0.0302 -0.0063
  5594G12c H00K 3958   1.444   6.927   5.029  1.8885 -0.2770  0.4955
  5594G12c H00J 3959   1.477   7.008   4.891  3.9256 -1.3533 -1.9155
  5594G12c H00I 3960   1.558   6.863   4.907 -0.6953 -1.0362  4.1761
  5594G12c C01M 3961   1.332   6.658   4.768 -0.3114  0.8574  1.0652
  5594G12c C020 3962   1.541   6.200   4.695 -1.3094  0.3934  0.2834
  5594G12c C021 3963   1.535   6.238   4.556 -0.1970  0.2195 -0.9444
  5594G12c C01L 3964   1.349   6.515   4.818  1.8678  0.0986  0.0533
  5594G12c O007 3965   1.386   6.696   4.647 -1.5041  0.7452 -0.0981
  5594G12c C022 3966   1.512   6.368   4.534  1.0691 -1.2442  0.1312
  5594G12c C023 3967   1.632   6.195   4.469 -0.0803  1.2656  0.0143
  5594G12c C00G 3968   1.889   6.221   4.370 -1.6275  0.7336  0.4938
  5594G12c C00E 3969   2.036   6.267   4.181  0.6215 -0.8608  1.5372
  5594G12c O00A 3970   2.151   6.248   4.107  0.7309 -0.7482  0.1746
  5594G12c C024 3971   2.149   6.148   3.994 -0.1569 -0.2466 -0.9492
  5594G12c H00V 3972   2.247   6.116   3.959  1.4289  0.8631  2.2786
  5594G12c H00U 3973   2.075   6.160   3.914  5.1829  2.0255 -5.8570
  5594G12c H00T 3974   2.125   6.053   4.042 -2.2972  0.9031  0.3463
  5604G12c C00D 3975   1.897   1.023  10.319  1.3835 -1.2810 -0.8189
  5604G12c O00B 3976   1.809   0.915  10.327 -0.6351 -0.2232  1.2249
  5604G12c C025 3977   1.700   0.932  10.251 -0.1869 -1.0044 -0.2248
  5604G12c C026 3978   1.696   0.873  10.108 -1.2628 -0.6876 -0.1247
  5604G12c H00Y 3979   1.635   0.783  10.104 -2.6322  0.2137  0.4219
  5604G12c H00X 3980   1.798   0.868  10.069 -1.8213 -0.6544 -1.6440
  5604G12c O00C 3981   1.601   0.953  10.034 -0.3601 -0.8590 -0.4602
  5604G12c H00W 3982   1.584   1.021  10.098  3.0634  3.2972 -3.6590
  5604G12c C027 3983   1.587   0.969  10.320 -0.3303 -0.1442 -2.6351
  5604G12c O00D 3984   1.608   0.992  10.458  0.4907  0.3058  0.1200
  5604G12c H00Z 3985   1.697   0.974  10.485  0.1965 -0.3665  0.6437
  5604G12c C028 3986   1.457   0.929  10.277  0.0138  1.9920 -1.5123
  5604G12c C029 3987   1.417   0.802  10.237 -0.5335 -0.6751  0.7139
  5604G12c H010 3988   1.494   0.727  10.243  0.3721 -0.0582 -2.1195
  5604G12c C02T 3989   1.281   0.791  10.203  0.5760  1.1813  1.7668
  5604G12c H01O 3990   1.240   0.719  10.134  0.3001 -0.8379  3.9699
  5604G12c C02S 3991   1.185   0.897  10.205  0.9948  1.7998  0.1252
  5604G12c O00J 3992   1.068   0.890  10.129 -0.0280 -1.2736  0.1925
  5604G12c H01P 3993   1.019   0.970  10.122  6.6626  3.3071  0.8766
  5604G12c C02R 3994   1.214   1.014  10.281 -0.4074 -2.2439  0.5765
  5604G12c O00I 3995   1.127   1.121  10.324  0.5065 -0.9176 -0.5692
  5604G12c C02Q 3996   1.199   1.228  10.397  0.8443  0.9045 -1.1180
  5604G12c H01N 3997   1.249   1.290  10.324 -1.2853  3.7310 -0.2742
  5604G12c H01R 3998   1.113   1.289  10.425  2.8302  4.8647 -3.3347
  5604G12c H01Q 3999   1.264   1.209  10.483  1.5300 -0.4822 -1.9264
  5604G12c C02A 4000   1.359   1.024  10.307 -1.4532 -0.9568 -0.1802
  5604G12c H011 4001   1.396   1.108  10.364 -2.5535 -2.5303  2.9595
  5604G12c C00C 4002   1.925   1.095  10.209  0.3856  0.4040 -0.5425
  5604G12c H012 4003   1.888   1.091  10.108  1.3044 -0.2760 -0.8596
  5604G12c C00B 4004   2.024   1.179  10.188  1.0081 -0.5108  0.6019
  5604G12c C00A 4005   2.052   1.275  10.069  0.2946 -1.0357 -0.6334
  5604G12c C009 4006   2.006   1.259   9.928  0.5625 -0.2516  1.1674
  5604G12c C008 4007   1.905   1.192   9.843  1.7512 -0.3681  0.0411
  5604G12c H013 4008   1.826   1.175   9.914 -1.3174  3.9879 -2.0789
  5604G12c C007 4009   1.919   1.186   9.697 -0.3989 -1.2833  0.9051
  5604G12c H014 4010   1.831   1.141   9.653 -3.4760  5.0306  0.0843
  5604G12c C006 4011   2.059   1.201   9.657  1.1829  0.9293  0.3641
  5604G12c C005 4012   2.154   1.271   9.738 -0.1688  0.0447  0.6018
  5604G12c C004 4013   2.287   1.275   9.698 -1.4945 -0.9187 -0.5962
  5604G12c C003 4014   2.367   1.363   9.764 -1.0163  0.8094 -0.7331
  5604G12c C002 4015   2.489   1.394   9.706 -2.1987  0.1704 -0.1834
  5604G12c C001 4016   2.623   1.441   9.761 -1.1143 -0.2730  0.0939
  5604G12c C00M 4017   2.671   1.446   9.888 -0.8335  1.0944 -0.4133
  5604G12c C00L 4018   2.593   1.444  10.012  1.1656  2.5986 -0.4569
  5604G12c C00R 4019   2.621   1.362  10.139  0.5634 -0.2941 -1.1842
  5604G12c C00Q 4020   2.746   1.309  10.192  0.7829 -0.6096 -0.7362
  5604G12c C00V 4021   2.724   1.231  10.317  0.7823  1.2433 -0.0511
  5604G12c C00U 4022   2.589   1.217  10.378  0.9967  0.0754 -0.8507
  5604G12c C00T 4023   2.488   1.291  10.334 -1.1376  0.3143  1.0759
  5604G12c C016 4024   2.357   1.234  10.373  1.2645 -0.1821  1.4199
  5604G12c C015 4025   2.334   1.126  10.450 -1.3522 -0.6743 -0.1609
  5604G12c C010 4026   2.446   1.068  10.506 -0.4450  0.5479 -0.4500
  5604G12c C011 4027   2.428   0.958  10.589 -1.8987 -1.2019 -0.7365
  5604G12c H005 4028   2.511   0.901  10.628  0.9048  4.6823  2.7067
  5604G12c C012 4029   2.311   0.953  10.663  0.3000  2.1536 -1.7548
  5604G12c C017 4030   2.315   0.888  10.795 -1.3062  1.5429  0.5654
  5604G12c O002 4031   2.210   0.800  10.821  0.9763 -1.1103  1.2259
  5604G12c H004 4032   2.230   0.751  10.899  2.5839 -4.6823 -1.3184
  5604G12c C018 4033   2.412   0.917  10.886 -1.4924  0.4931 -0.8389
  5604G12c O001 4034   2.524   1.006  10.854  0.0965 -0.0601  0.6455
  5604G12c H003 4035   2.503   1.095  10.827  4.5261  0.6752 -0.7447
  5604G12c C019 4036   2.433   0.822  11.002  0.1239  0.1364  1.4406
  5604G12c H002 4037   2.475   0.730  10.961  1.0454 -1.6746  6.0550
  5604G12c H001 4038   2.505   0.863  11.072  0.0325  2.5076  0.1846
  5604G12c O000 4039   2.315   0.815  11.100 -0.5130  0.4544  0.4215
  5604G12c C01A 4040   2.305   0.738  11.205 -0.2118 -0.8767 -0.3182
  5604G12c C02K 4041   2.418   0.656  11.260  0.8551 -0.1222  0.2510
  5604G12c O00G 4042   2.541   0.650  11.178  1.3711 -1.6684 -0.4012
  5604G12c C02M 4043   2.658   0.571  11.232  0.9606 -0.0190  0.7027
  5604G12c H01G 4044   2.736   0.592  11.160 -4.4258 -0.3739 -5.7326
  5604G12c H01F 4045   2.702   0.604  11.326 -1.0297  1.4442  1.1493
  5604G12c H01E 4046   2.637   0.466  11.252  0.2493 -1.2091 -5.3393
  5604G12c C02J 4047   2.406   0.601  11.390 -0.5944  0.8252 -0.6330
  5604G12c H01H 4048   2.501   0.582  11.437 -0.6133 -0.1520 -0.9796
  5604G12c C02I 4049   2.297   0.621  11.474 -0.1581  0.2381 -0.6666
  5604G12c C02N 4050   2.303   0.567  11.609 -1.4627 -0.1964 -1.4090
  5604G12c H01M 4051   2.340   0.466  11.617  2.2564  1.2677  2.1306
  5604G12c C02O 4052   2.254   0.643  11.721  0.3805  0.2746 -1.1262
  5604G12c H01L 4053   2.244   0.590  11.815  0.1425  3.1359  0.5122
  5604G12c C02P 4054   2.202   0.786  11.742 -0.2417  0.2191 -0.7140
  5604G12c H01K 4055   2.197   0.800  11.850 -3.4895 -3.6924 -0.2276
  5604G12c H01J 4056   2.280   0.849  11.701 -1.5563  3.1534  1.1257
  5604G12c O00H 4057   2.071   0.791  11.696 -0.4127 -1.3157 -1.4065
  5604G12c H01I 4058   2.068   0.878  11.658 -0.1834  2.3681  6.1247
  5604G12c C02H 4059   2.187   0.689  11.427 -0.1326 -0.2303  0.8454
  5604G12c H01C 4060   2.094   0.681  11.481 -0.6426  1.5757  0.2651
  5604G12c C02L 4061   2.184   0.752  11.298  0.5490  0.5946 -1.0344
  5604G12c H01D 4062   2.099   0.815  11.278 -0.2401 -0.7218 -1.8133
  5604G12c C013 4063   2.192   1.001  10.606 -0.2616  0.0257  0.8485
  5604G12c H000 4064   2.115   0.976  10.677 -0.5530  2.8022  1.5741
  5604G12c C014 4065   2.216   1.079  10.492  1.2546  0.4307  0.5523
  5604G12c C00F 4066   2.107   1.114  10.410  0.1891  0.8827  1.0431
  5604G12c C00H 4067   2.252   1.264  10.268  1.0451  1.1471 -0.3699
  5604G12c C00I 4068   2.274   1.344  10.154  2.3444 -1.0196 -0.3022
  5604G12c C00J 4069   2.410   1.387  10.138  1.5230 -0.9027  1.1306
  5604G12c C00Z 4070   2.570   1.100  10.473  0.6048  0.9805  0.1636
  5604G12c C00Y 4071   2.692   1.037  10.536  0.1167 -0.7993  0.6635
  5604G12c H006 4072   2.680   0.967  10.618  2.0757 -3.4949 -1.2502
  5604G12c C00X 4073   2.828   1.071  10.480  0.1675  1.6852 -1.9527
  5604G12c O003 4074   2.959   1.035  10.514 -0.6801 -1.5299  0.4417
  5604G12c C01B 4075   2.983   0.961  10.621 -0.2895 -0.5223  3.6997
  5604G12c H009 4076   2.990   0.857  10.590 -4.5486 -1.3265  5.0884
  5604G12c H008 4077   2.880   0.962  10.656 -2.4812  1.5704 -2.1283
  5604G12c H007 4078   3.056   1.009  10.686 -0.9495 -0.7013  4.5845
  5604G12c C00W 4079   2.837   1.158  10.375 -1.0412  1.3683 -0.6161
  5604G12c O004 4080   2.954   1.171  10.314  0.5724 -2.0193  1.8853
  5604G12c C01C 4081   2.973   1.268  10.204 -2.0359  0.3664  0.2565
  5604G12c H00A 4082   3.070   1.314  10.200 -2.2116  0.8638  1.5416
  5604G12c C00P 4083   2.865   1.300  10.115 -0.2425  0.2419  0.4334
  5604G12c C00O 4084   2.886   1.299   9.977 -1.1556 -0.5620 -0.2237
  5604G12c C01D 4085   3.005   1.239   9.918 -0.5801 -0.2913  0.2112
  5604G12c H00S 4086   3.071   1.215  10.001  0.4199  0.2410 -0.4264
  5604G12c C01E 4087   3.025   1.226   9.774  0.3854  1.6194 -1.1522
  5604G12c O008 4088   3.106   1.133   9.729 -0.2093 -1.8824 -0.3533
  5604G12c C01V 4089   3.198   1.059   9.803  0.2558  0.6569 -0.2317
  5604G12c C01Z 4090   3.314   1.121   9.870  0.6361  0.8897  0.0800
  5604G12c H00R 4091   3.297   1.200   9.942 -8.8081  0.4172 -0.9496
  5604G12c H00Q 4092   3.360   1.037   9.923 -2.3910 -0.9115  0.0349
  5604G12c O009 4093   3.377   1.189   9.751 -1.1650 -0.5464  0.1974
  5604G12c H00P 4094   3.381   1.125   9.682 -6.8535  0.7032 -1.4951
  5604G12c C01W 4095   3.162   0.935   9.840 -1.1259  1.2081 -0.9008
  5604G12c H00O 4096   3.202   0.879   9.923 -0.8497  1.8422 -0.6034
  5604G12c C01X 4097   3.039   0.861   9.768  1.6448 -0.8211 -1.1070
  5604G12c H00N 4098   3.020   0.903   9.669 -3.6151 -3.9355 -1.5950
  5604G12c H00M 4099   3.042   0.753   9.754 -1.7513 -1.1736  0.4667
  5604G12c C01Y 4100   2.905   0.870   9.834  0.1946  1.4648 -1.9601
  5604G12c C02D 4101   2.802   0.839   9.742  1.0574  0.7671 -0.2196
  5604G12c H019 4102   2.802   0.810   9.638  4.8778  5.0511 -1.5781
  5604G12c C02C 4103   2.666   0.821   9.797 -0.9438  0.6783 -1.7304
  5604G12c H01A 4104   2.589   0.820   9.722 -1.8084  1.6213 -0.8631
  5604G12c C02B 4105   2.656   0.837   9.943 -1.2314 -0.5175 -0.8707
  5604G12c O00E 4106   2.529   0.794   9.989  0.2449  1.2443 -1.4480
  5604G12c H01B 4107   2.506   0.825  10.075  0.3556 -7.9047  2.4697
  5604G12c C02F 4108   2.748   0.879  10.038 -0.9240 -0.1610  0.7863
  5604G12c O00F 4109   2.713   0.863  10.165 -0.2718  0.1664 -0.2963
  5604G12c C02G 4110   2.803   0.779  10.244 -0.2724  0.0210  0.2591
  5604G12c H017 4111   2.804   0.808  10.349  1.7865 -1.2048  0.6053
  5604G12c H016 4112   2.788   0.673  10.260 -1.5690  0.6755  3.7557
  5604G12c H015 4113   2.909   0.786  10.221  0.0523  3.1793  2.3575
  5604G12c C02E 4114   2.879   0.886   9.975 -1.3692 -0.1377  0.5113
  5604G12c H018 4115   2.968   0.924  10.023 -2.1031  4.8698 -1.8284
  5604G12c C01F 4116   2.906   1.265   9.693 -1.5195  0.1153 -0.8253
  5604G12c C01G 4117   2.871   1.198   9.582 -0.9478  1.2086  1.0304
  5604G12c H00L 4118   2.930   1.107   9.575 -3.3944 -0.9101  5.5674
  5604G12c C01H 4119   2.755   1.227   9.504 -0.0739  0.2511 -0.1141
  5604G12c H00B 4120   2.751   1.145   9.435  3.8168  1.2575 -1.6720
  5604G12c C01I 4121   2.680   1.337   9.549 -0.6959  0.4321 -0.6636
  5604G12c C01U 4122   2.816   1.361   9.743  1.1156  1.8480  1.1862
  5604G12c C00S 4123   2.511   1.370  10.223  0.3242  0.1568 -0.8003
  5604G12c C00K 4124   2.450   1.419   9.998  2.8713 -0.9352  0.1638
  5604G12c C00N 4125   2.795   1.361   9.885 -0.5309  0.8871  0.6015
  5604G12c C000 4126   2.724   1.418   9.666  1.3426  1.8637  0.4527
  5604G12c C01J 4127   2.533   1.317   9.582  0.1478 -0.0206  0.2253
  5604G12c C01K 4128   2.440   1.249   9.504  0.6748 -1.2764  0.8853
  5604G12c C01P 4129   2.453   1.210   9.374 -0.3649 -0.8750 -0.1441
  5604G12c C01Q 4130   2.563   1.257   9.289 -1.4605 -1.2625  0.2030
  5604G12c H00G 4131   2.640   1.331   9.307  1.2808 -3.5018 -1.9604
  5604G12c C01R 4132   2.586   1.236   9.156 -0.5085  0.6678 -1.5867
  5604G12c H00F 4133   2.546   1.169   9.081  1.0247 -2.0424 -0.0735
  5604G12c C01S 4134   2.727   1.295   9.114  0.4392  0.1752  0.3627
  5604G12c H00E 4135   2.766   1.229   9.036  1.2389  4.5565 -3.0956
  5604G12c H00D 4136   2.784   1.312   9.205 -2.0519  2.3750  1.5809
  5604G12c O005 4137   2.724   1.401   9.013 -1.1542  0.5442  0.4064
  5604G12c H00C 4138   2.747   1.487   9.043  2.5490  0.7753 -2.7292
  5604G12c C01O 4139   2.352   1.146   9.304  0.3445 -0.3447 -0.2193
  5604G12c H00H 4140   2.307   1.170   9.209 -0.5186  3.7812  1.1375
  5604G12c C01N 4141   2.245   1.093   9.383  0.1450  0.9369 -0.3989
  5604G12c O006 4142   2.157   1.038   9.301  0.6115  1.0159  0.3596
  5604G12c C01T 4143   2.159   0.899   9.297  0.9352  0.3101 -0.2611
  5604G12c H00K 4144   2.085   0.878   9.375 -1.6183 -2.9653 -3.4100
  5604G12c H00J 4145   2.117   0.898   9.196 -0.8533 -2.3515  0.4557
  5604G12c H00I 4146   2.265   0.875   9.306  0.4883 -1.6837 -0.2069
  5604G12c C01M 4147   2.218   1.150   9.505  0.2323  0.0457 -1.9843
  5604G12c C020 4148   2.344   1.409   9.900  1.9756 -0.7045 -1.3968
  5604G12c C021 4149   2.198   1.400   9.943 -0.7901  0.1689 -0.3270
  5604G12c C01L 4150   2.321   1.230   9.570 -0.1629  1.0357 -0.0396
  5604G12c O007 4151   2.080   1.159   9.526 -1.5863 -0.2363 -0.5810
  5604G12c C022 4152   2.117   1.331   9.860 -0.5720 -0.0745 -0.9364
  5604G12c C023 4153   2.158   1.359  10.069  1.3445  0.1969 -1.6130
  5604G12c C00G 4154   2.127   1.185  10.281  0.8086  0.4404  0.0238
  5604G12c C00E 4155   1.996   1.036  10.430  1.0284 -0.8204  2.2183
  5604G12c O00A 4156   1.943   0.988  10.551 -1.0252  0.2780  0.6104
  5604G12c C024 4157   1.892   1.095  10.637  0.5776 -0.3985 -1.0494
  5604G12c H00V 4158   1.961   1.176  10.660 -3.5863  3.5834 -1.7003
  5604G12c H00U 4159   1.896   1.051  10.737  2.5529 -1.9468 -1.8026
  5604G12c H00T 4160   1.809   1.162  10.611  5.1835  6.4250  0.4449
  5614G12c C00D 4161  11.665   5.165   6.462  0.1035  1.0114  0.3831
  5614G12c O00B 4162  11.533   5.113   6.479  0.3159  0.5085  0.7151
  5614G12c C025 4163  11.450   5.059   6.372 -2.0629  1.0284 -0.3264
  5614G12c C026 4164  11.312   5.121   6.363  0.1511  0.8521 -0.8396
  5614G12c H00Y 4165  11.262   5.168   6.448  1.2735  4.1014 -1.8963
  5614G12c H00X 4166  11.249   5.035   6.341 -1.8116  0.9636  3.6847
  5614G12c O00C 4167  11.290   5.204   6.276  0.5837  0.2272 -0.4170
  5614G12c H00W 4168  11.199   5.211   6.251 -1.5791 -1.0466  6.0696
  5614G12c C027 4169  11.502   4.956   6.293  0.6078  1.2993  3.0721
  5614G12c O00D 4170  11.625   4.904   6.310  0.1170 -0.1131 -0.7468
  5614G12c H00Z 4171  11.607   4.811   6.314 -2.3670  0.4278  2.9111
  5614G12c C028 4172  11.419   4.896   6.184  0.5362  0.9846 -0.1457
  5614G12c C029 4173  11.380   4.753   6.205 -2.1937  0.7893  1.0078
  5614G12c H010 4174  11.412   4.672   6.269 -1.8749  0.4360  0.4053
  5614G12c C02T 4175  11.296   4.690   6.105 -1.0272 -0.4996 -0.3439
  5614G12c H01O 4176  11.273   4.585   6.105  5.4394 -2.1880  3.3801
  5614G12c C02S 4177  11.275   4.757   5.982  0.6172  3.3310 -0.1030
  5614G12c O00J 4178  11.235   4.688   5.876  0.5509  1.1491 -1.7145
  5614G12c H01P 4179  11.285   4.725   5.805  0.0434  6.0249  0.2348
  5614G12c C02R 4180  11.305   4.905   5.969  1.2151  1.1470 -0.8870
  5614G12c O00I 4181  11.299   4.962   5.851 -0.8508  0.4585  0.2482
  5614G12c C02Q 4182  11.313   5.109   5.848 -1.0299  0.6235 -0.1004
  5614G12c H01N 4183  11.415   5.113   5.809  0.5332  6.4314  3.8877
  5614G12c H01R 4184  11.300   5.167   5.939 -5.2710 -1.8341  0.9945
  5614G12c H01Q 4185  11.226   5.145   5.793 -0.3472  3.9055  0.8549
  5614G12c C02A 4186  11.387   4.962   6.061 -1.1265  0.2751 -0.5919
  5614G12c H011 4187  11.425   5.058   6.029 -1.9257  0.6250 -0.5009
  5614G12c C00C 4188  11.703   5.253   6.372  0.7297 -0.7953 -1.0028
  5614G12c H012 4189  11.625   5.249   6.297  0.4554  4.0909 -1.0993
  5614G12c C00B 4190  11.819   5.336   6.370  0.0416  1.3623  1.6783
  5614G12c C00A 4191  11.849   5.446   6.293  0.0624  0.4904 -2.4930
  5614G12c C009 4192  11.790   5.517   6.178  0.1754  0.5536 -0.2738
  5614G12c C008 4193  11.705   5.445   6.067 -0.6145  0.0640 -0.6282
  5614G12c H013 4194  11.641   5.365   6.101 -1.7125  1.4512  0.6099
  5614G12c C007 4195  11.718   5.489   5.937  0.1830 -0.1730  1.0566
  5614G12c H014 4196  11.667   5.422   5.870  2.0191 -0.2250 -0.3531
  5614G12c C006 4197  11.819   5.584   5.910 -1.7253  0.1652  1.1033
  5614G12c C005 4198  11.916   5.606   6.005 -0.9904 -1.4901  1.3936
  5614G12c C004 4199  12.036   5.684   5.969 -1.1920 -0.6693 -1.1307
  5614G12c C003 4200  12.135   5.704   6.075 -0.0556  0.2006  1.0565
  5614G12c C002 4201  12.273   5.728   6.030 -0.6514 -0.7248 -0.3761
  5614G12c C001 4202  12.405   5.726   6.081 -0.2963 -0.0719 -0.3407
  5614G12c C00M 4203  12.459   5.636   6.169  0.2861  0.5589  0.8434
  5614G12c C00L 4204  12.375   5.567   6.267 -1.3480  0.0981 -1.0625
  5614G12c C00R 4205  12.414   5.465   6.340  0.3946 -0.7655 -0.0689
  5614G12c C00Q 4206  12.531   5.375   6.343  0.7132  0.8295 -1.0581
  5614G12c C00V 4207  12.517   5.289   6.450 -0.5334 -1.3798  0.5138
  5614G12c C00U 4208  12.389   5.254   6.498 -2.2200  1.5678 -1.9127
  5614G12c C00T 4209  12.276   5.311   6.468  0.5853 -1.4377 -1.4904
  5614G12c C016 4210  12.147   5.278   6.512 -0.1805 -0.8941  1.4037
  5614G12c C015 4211  12.138   5.156   6.571  0.3938  0.3129  0.4667
  5614G12c C010 4212  12.242   5.077   6.604  1.0331  0.1058 -0.6086
  5614G12c C011 4213  12.227   4.959   6.694 -0.8600  0.8842  1.0201
  5614G12c H005 4214  12.318   4.915   6.731  1.5703  2.8258 -2.3582
  5614G12c C012 4215  12.098   4.898   6.689 -0.3320  0.3102  0.1142
  5614G12c C017 4216  12.061   4.754   6.710 -1.0111  1.3504 -0.2788
  5614G12c O002 4217  12.152   4.668   6.657 -1.9991 -0.2684  0.0405
  5614G12c H004 4218  12.144   4.576   6.679  2.2306 -1.4629 -2.9070
  5614G12c C018 4219  11.954   4.719   6.786  1.3927 -1.0498  0.5132
  5614G12c O001 4220  11.886   4.806   6.866  0.8359 -0.7410 -0.2481
  5614G12c H003 4221  11.853   4.745   6.930 -2.9292 -2.3928 -3.5413
  5614G12c C019 4222  11.911   4.570   6.821  0.8661 -0.0662  1.7474
  5614G12c H002 4223  11.848   4.570   6.909 -0.3504  2.9822  0.9305
  5614G12c H001 4224  11.863   4.545   6.726  2.5838 -1.9793  1.3411
  5614G12c O000 4225  12.036   4.508   6.826  0.3032 -0.2299 -0.8157
  5614G12c C01A 4226  12.038   4.399   6.891  0.1403  1.3417 -0.1554
  5614G12c C02K 4227  12.068   4.370   7.022 -0.4472  1.6878 -0.0585
  5614G12c O00G 4228  12.099   4.468   7.115 -0.9299  0.0352  0.6086
  5614G12c C02M 4229  12.180   4.565   7.074 -1.4711  0.4091 -0.2861
  5614G12c H01G 4230  12.277   4.590   7.117 -2.5639  6.1187 -0.7630
  5614G12c H01F 4231  12.219   4.518   6.983 -1.8497 -2.5695  1.0240
  5614G12c H01E 4232  12.141   4.665   7.058  3.9326  2.9479  1.3722
  5614G12c C02J 4233  12.067   4.233   7.067 -1.6405 -0.9779  1.1355
  5614G12c H01H 4234  12.082   4.235   7.174 -3.5145 -1.8195  1.4317
  5614G12c C02I 4235  12.002   4.134   6.998  0.7719 -1.0598  0.0621
  5614G12c C02N 4236  11.941   4.022   7.079  0.8486  1.7434 -0.6833
  5614G12c H01M 4237  11.847   4.054   7.122  1.8575 -1.6874  4.5049
  5614G12c C02O 4238  12.020   3.915   7.133 -0.1943 -1.1335 -0.3092
  5614G12c H01L 4239  11.961   3.861   7.205 -4.4556  3.4381 -0.0946
  5614G12c C02P 4240  12.149   3.879   7.085 -1.0090  0.8871 -0.0812
  5614G12c H01K 4241  12.157   3.889   6.977 -0.5446  4.2029  0.1941
  5614G12c H01J 4242  12.210   3.969   7.097  3.8794 -2.2449 -0.0351
  5614G12c O00H 4243  12.198   3.744   7.120 -0.2726  0.1216 -0.4885
  5614G12c H01I 4244  12.286   3.731   7.090 -1.3215 -2.9230 -2.3914
  5614G12c C02H 4245  11.987   4.149   6.859  1.3232 -0.4807  0.6828
  5614G12c H01C 4246  11.935   4.075   6.799  2.5313  3.8529 -6.3741
  5614G12c C02L 4247  12.019   4.282   6.805 -0.7311 -0.0319 -0.6244
  5614G12c H01D 4248  11.993   4.302   6.702 -1.7757  1.4872 -0.0971
  5614G12c C013 4249  11.983   4.982   6.647 -0.6620 -0.6971  1.1577
  5614G12c H000 4250  11.889   4.941   6.615  0.9721 -1.3368 -3.1811
  5614G12c C014 4251  12.001   5.111   6.596  1.6000  1.4510 -0.2733
  5614G12c C00F 4252  11.882   5.177   6.541 -0.8474 -0.8344 -0.2214
  5614G12c C00H 4253  12.043   5.355   6.464 -0.3062 -0.5974  0.4359
  5614G12c C00I 4254  12.067   5.474   6.403  1.0791 -0.8836  1.2427
  5614G12c C00J 4255  12.194   5.518   6.397 -1.6750 -0.5353 -0.9137
  5614G12c C00Z 4256  12.366   5.131   6.577 -0.6178  2.2177 -0.9685
  5614G12c C00Y 4257  12.482   5.042   6.588 -0.0616 -1.6140 -0.0396
  5614G12c H006 4258  12.486   4.970   6.668  1.6911  1.4027  2.7604
  5614G12c C00X 4259  12.609   5.080   6.546  0.1905 -0.4720 -1.1179
  5614G12c O003 4260  12.700   4.989   6.592  0.2014  0.1915  0.0025
  5614G12c C01B 4261  12.797   5.049   6.659  0.4749  0.6209  0.8194
  5614G12c H009 4262  12.838   5.008   6.751  6.2762  2.0850 -0.8373
  5614G12c H008 4263  12.794   5.158   6.663 -8.8670  0.9233 -2.7117
  5614G12c H007 4264  12.866   5.025   6.578  3.4789  3.0906  2.5338
  5614G12c C00W 4265  12.623   5.202   6.474  1.0842  0.9155  1.2653
  5614G12c O004 4266  12.736   5.217   6.396  0.8879 -0.9811  0.2521
  5614G12c C01C 4267  12.707   5.250   6.270  0.2403  0.6315  0.6095
  5614G12c H00A 4268  12.793   5.233   6.208 -2.1686  1.7177 -3.1859
  5614G12c C00P 4269  12.635   5.365   6.253  0.4418  0.8471  0.9498
  5614G12c C00O 4270  12.658   5.463   6.148 -1.3947  0.6589  0.8255
  5614G12c C01D 4271  12.759   5.426   6.038 -0.0373 -0.5702 -0.8062
  5614G12c H00S 4272  12.854   5.377   6.053  0.1385 -0.3515 -1.1995
  5614G12c C01E 4273  12.725   5.453   5.910  0.6450  0.8504  0.9208
  5614G12c O008 4274  12.770   5.393   5.800 -0.1386 -1.7373  0.5853
  5614G12c C01V 4275  12.775   5.277   5.755  1.2541  1.0985  0.1273
  5614G12c C01Z 4276  12.740   5.177   5.851 -1.2347 -0.5750 -2.9940
  5614G12c H00R 4277  12.826   5.131   5.899 -0.3641  0.2373 -3.7502
  5614G12c H00Q 4278  12.664   5.188   5.928 -0.3290 -2.7060 -1.7475
  5614G12c O009 4279  12.673   5.080   5.775  0.3240 -0.1165  0.8447
  5614G12c H00P 4280  12.708   5.078   5.688  1.0090 -0.4991  1.1277
  5614G12c C01W 4281  12.822   5.235   5.642  1.0045  0.1582  1.4857
  5614G12c H00O 4282  12.831   5.128   5.630 -0.0454  0.0246  1.8308
  5614G12c C01X 4283  12.861   5.329   5.536  0.5420 -1.9958  1.6497
  5614G12c H00N 4284  12.835   5.433   5.556 -4.2478 -1.6737 -4.6563
  5614G12c H00M 4285  12.970   5.331   5.525  0.5097  4.1238  0.9002
  5614G12c C01Y 4286  12.790   5.319   5.411  1.0121 -0.4056 -0.4767
  5614G12c C02D 4287  12.817   5.197   5.349  0.2542 -0.2508  0.0395
  5614G12c H019 4288  12.914   5.154   5.326 -0.1518 -1.8457  1.1905
  5614G12c C02C 4289  12.704   5.124   5.295  0.3707  0.2379 -0.8312
  5614G12c H01A 4290  12.697   5.018   5.275 -0.4859 -0.8940  4.6448
  5614G12c C02B 4291  12.600   5.195   5.230  0.7207 -0.7862 -0.4543
  5614G12c O00E 4292  12.524   5.112   5.149  0.3084  0.5436 -0.3311
  5614G12c H01B 4293  12.483   5.178   5.095 -2.7710  1.2563  2.6862
  5614G12c C02F 4294  12.581   5.336   5.258 -0.8684 -0.1267  0.6747
  5614G12c O00F 4295  12.463   5.400   5.198  0.6157  0.2208 -0.7951
  5614G12c C02G 4296  12.465   5.529   5.175  1.1588  0.5663 -0.4956
  5614G12c H017 4297  12.463   5.577   5.273  2.7119  4.5688 -2.2942
  5614G12c H016 4298  12.366   5.552   5.136  0.0620  0.0241  1.9258
  5614G12c H015 4299  12.511   5.567   5.083  2.4768  6.0802  2.2045
  5614G12c C02E 4300  12.665   5.385   5.376 -1.0398 -0.6803 -1.2516
  5614G12c H018 4301  12.661   5.489   5.405  4.2243 -2.1006  6.1269
  5614G12c C01F 4302  12.615   5.538   5.880 -0.5038 -1.6920  0.9285
  5614G12c C01G 4303  12.528   5.543   5.761  0.7001 -1.5284 -1.4029
  5614G12c H00L 4304  12.517   5.454   5.701 -7.3468 -4.8650  4.1045
  5614G12c C01H 4305  12.422   5.639   5.745  0.4069 -1.0391  1.0093
  5614G12c H00B 4306  12.337   5.606   5.688  2.6279 -1.0531 -2.5011
  5614G12c C01I 4307  12.401   5.740   5.849  0.7377  2.1411 -0.1516
  5614G12c C01U 4308  12.594   5.636   5.985 -0.2446 -0.2353  0.5754
  5614G12c C00S 4309  12.303   5.430   6.412  1.3769  0.8791 -0.7096
  5614G12c C00K 4310  12.235   5.601   6.279  0.9132 -1.0515 -0.8624
  5614G12c C00N 4311  12.574   5.570   6.109 -2.0961  1.6811  0.1233
  5614G12c C000 4312  12.489   5.739   5.966 -1.0306 -1.2240 -0.0332
  5614G12c C01J 4313  12.274   5.765   5.888  1.0198  1.7850  0.3977
  5614G12c C01K 4314  12.167   5.762   5.784  0.9817 -1.2220 -1.2073
  5614G12c C01P 4315  12.176   5.805   5.652  1.0369 -0.4268 -0.2280
  5614G12c C01Q 4316  12.299   5.842   5.581  0.8741 -1.1369  0.2195
  5614G12c H00G 4317  12.341   5.762   5.523  2.9457  2.6167 -3.6836
  5614G12c C01R 4318  12.308   5.971   5.593 -1.6607  0.3829  0.9900
  5614G12c H00F 4319  12.234   6.028   5.646  2.3325  4.1164  2.8003
  5614G12c C01S 4320  12.406   6.061   5.553 -0.6225 -0.7898 -0.6352
  5614G12c H00E 4321  12.464   6.051   5.461 -2.7263  0.5698 -2.1477
  5614G12c H00D 4322  12.362   6.143   5.498 -8.2390 -5.1330 -1.6595
  5614G12c O005 4323  12.518   6.086   5.640  1.9744 -0.3809 -0.1470
  5614G12c H00C 4324  12.601   6.121   5.612  3.4892  0.2716  4.6920
  5614G12c C01O 4325  12.066   5.783   5.557 -0.7477  1.2076 -0.3168
  5614G12c H00H 4326  12.051   5.790   5.450 -0.7530 10.9887 -0.1138
  5614G12c C01N 4327  11.952   5.719   5.611 -0.9835 -0.6922  0.0283
  5614G12c O006 4328  11.852   5.672   5.523 -0.5624 -1.0637 -0.6038
  5614G12c C01T 4329  11.741   5.755   5.515  1.4788 -1.2640 -0.2871
  5614G12c H00K 4330  11.768   5.841   5.576  4.3381  0.9487 -4.4165
  5614G12c H00J 4331  11.652   5.692   5.516  2.8130 -3.2155 -0.3843
  5614G12c H00I 4332  11.715   5.780   5.412  0.4510 -0.2618  0.2120
  5614G12c C01M 4333  11.933   5.704   5.752 -0.3134  1.3219  1.1842
  5614G12c C020 4334  12.125   5.648   6.210  0.5875 -0.6337  0.4292
  5614G12c C021 4335  11.990   5.621   6.236 -0.9939 -1.4718 -0.7774
  5614G12c C01L 4336  12.041   5.730   5.833  0.0256 -0.1654 -0.6777
  5614G12c O007 4337  11.817   5.647   5.800  0.2769  0.4066  1.0888
  5614G12c C022 4338  11.888   5.608   6.150  0.2563 -2.9625 -1.6381
  5614G12c C023 4339  11.953   5.538   6.348  1.2893 -1.4337 -0.0609
  5614G12c C00G 4340  11.912   5.296   6.462 -0.6372 -1.8125  0.5379
  5614G12c C00E 4341  11.744   5.144   6.567 -1.2682 -1.0325 -0.0399
  5614G12c O00A 4342  11.704   5.035   6.642  0.3757 -2.1981  0.0179
  5614G12c C024 4343  11.618   5.073   6.749 -0.0293  0.0187 -1.9401
  5614G12c H00V 4344  11.525   5.091   6.695  0.2367  4.5805 -1.0882
  5614G12c H00U 4345  11.595   5.000   6.827  0.5363  5.2361  3.4695
  5614G12c H00T 4346  11.625   5.161   6.814  0.2133  0.5141 -2.6374
  5624G12c C00D 4347   4.159  10.433   6.617  0.1886  0.4907 -0.3475
  5624G12c O00B 4348   4.122  10.476   6.492  0.5751 -0.3005 -1.3402
  5624G12c C025 4349   4.128  10.617   6.462 -0.4174  0.1619  0.1459
  5624G12c C026 4350   4.000  10.694   6.461  0.7464  0.4704  0.2042
  5624G12c H00Y 4351   3.965  10.682   6.359 -2.9930 -3.6821  1.7924
  5624G12c H00X 4352   4.002  10.803   6.462  0.4608  0.7047 -6.0068
  5624G12c O00C 4353   3.924  10.671   6.570  0.9334 -1.4418 -0.5931
  5624G12c H00W 4354   3.845  10.720   6.585 -1.4077 -3.4782 -5.2490
  5624G12c C027 4355   4.248  10.652   6.409 -0.2121  0.1648 -0.3408
  5624G12c O00D 4356   4.334  10.551   6.386  1.0541  1.4912 -0.8325
  5624G12c H00Z 4357   4.286  10.475   6.415  5.0312 -0.5231  0.7211
  5624G12c C028 4358   4.288  10.789   6.361  0.3188 -0.3455 -2.3693
  5624G12c C029 4359   4.258  10.892   6.442  0.8947 -0.3055 -1.1751
  5624G12c H010 4360   4.180  10.895   6.517  2.7483  3.1552  0.7323
  5624G12c C02T 4361   4.353  10.983   6.459  0.4532 -1.7670 -0.1087
  5624G12c H01O 4362   4.322  11.071   6.513 -1.4808 -4.5371  3.6039
  5624G12c C02S 4363   4.467  10.995   6.374 -2.0980  0.5782  0.7902
  5624G12c O00J 4364   4.529  11.116   6.391 -0.1261 -0.2427 -1.3268
  5624G12c H01P 4365   4.560  11.170   6.320  0.7060  2.0299  0.6925
  5624G12c C02R 4366   4.500  10.898   6.269 -1.0404  0.7913  0.4127
  5624G12c O00I 4367   4.594  10.921   6.157 -0.1403 -1.2020  1.6306
  5624G12c C02Q 4368   4.519  10.886   6.054 -0.4708 -1.0998 -0.0335
  5624G12c H01N 4369   4.594  10.881   5.975  1.7733  2.1596  1.7707
  5624G12c H01R 4370   4.475  10.977   6.013 -2.0785 -3.1224 -2.9475
  5624G12c H01Q 4371   4.497  10.780   6.045  1.8904 -1.6401  0.1135
  5624G12c C02A 4372   4.402  10.786   6.277  0.4489 -1.1440 -0.6400
  5624G12c H011 4373   4.385  10.716   6.196  1.8540  2.4004 -4.1819
  5624G12c C00C 4374   4.138  10.520   6.724 -1.6325 -1.6251 -0.9804
  5624G12c H012 4375   4.135  10.625   6.697  0.7858 -1.7121 -1.6207
  5624G12c C00B 4376   4.176  10.484   6.857 -0.4057  1.0771  0.7990
  5624G12c C00A 4377   4.155  10.557   6.981  1.3506  1.6656  0.2284
  5624G12c C009 4378   4.161  10.699   7.009  1.1701  1.0398 -1.2786
  5624G12c C008 4379   4.228  10.807   6.954 -0.4823 -0.9429 -0.4902
  5624G12c H013 4380   4.224  10.814   6.846 -0.6655  2.7673 -0.3047
  5624G12c C007 4381   4.280  10.913   7.029  0.4210 -0.2147  0.5085
  5624G12c H014 4382   4.293  11.003   6.970 -1.9120 -2.0856 -3.0478
  5624G12c C006 4383   4.287  10.904   7.181 -2.1643  1.0472 -0.5292
  5624G12c C005 4384   4.223  10.790   7.235  1.0033  0.1683  0.4040
  5624G12c C004 4385   4.220  10.766   7.373  1.4158  0.1083  0.1909
  5624G12c C003 4386   4.175  10.637   7.429 -0.5538  0.0710  1.4786
  5624G12c C002 4387   4.198  10.616   7.566 -0.9584 -0.6995 -0.3841
  5624G12c C001 4388   4.174  10.501   7.656  0.2243 -0.8671 -0.9772
  5624G12c C00M 4389   4.244  10.375   7.616  0.5838  0.6334 -0.4848
  5624G12c C00L 4390   4.194  10.303   7.497  1.1125  1.4539 -0.7155
  5624G12c C00R 4391   4.272  10.214   7.424 -1.4835  0.3389 -1.0907
  5624G12c C00Q 4392   4.392  10.139   7.462  0.0491  0.1440  1.6652
  5624G12c C00V 4393   4.432  10.056   7.346  0.1842 -0.5759  0.1632
  5624G12c C00U 4394   4.360  10.032   7.217 -0.8309 -0.2284 -0.3673
  5624G12c C00T 4395   4.271  10.125   7.182 -0.6690 -0.6995 -0.5074
  5624G12c C016 4396   4.231  10.156   7.046  2.2732  0.5008 -0.6163
  5624G12c C015 4397   4.298  10.087   6.950  0.4632 -1.2726 -0.3844
  5624G12c C010 4398   4.365   9.971   6.987 -0.2793 -0.7395  0.5673
  5624G12c C011 4399   4.412   9.884   6.876 -0.7823 -1.9050 -2.2474
  5624G12c H005 4400   4.459   9.791   6.904  3.4753  1.1109  1.3766
  5624G12c C012 4401   4.388   9.914   6.739 -1.4148  1.0178 -0.5081
  5624G12c C017 4402   4.451   9.822   6.647  1.7749  0.0844 -2.0895
  5624G12c O002 4403   4.496   9.713   6.685 -0.3944 -0.2602  0.5342
  5624G12c H004 4404   4.439   9.686   6.755 -0.7139  4.4580  2.2190
  5624G12c C018 4405   4.472   9.855   6.519 -1.5492  0.1497 -0.2662
  5624G12c O001 4406   4.518   9.742   6.440 -0.1089 -1.4168 -1.0120
  5624G12c H003 4407   4.564   9.703   6.513  1.7137  1.1112 -0.7137
  5624G12c C019 4408   4.455   9.978   6.417  1.2656  0.4994  0.1034
  5624G12c H002 4409   4.500  10.071   6.449 -0.9840 -0.8948  8.6054
  5624G12c H001 4410   4.484   9.949   6.316  4.3734  1.8762  0.5585
  5624G12c O000 4411   4.312  10.001   6.395 -0.3670  0.3812  1.4282
  5624G12c C01A 4412   4.241   9.905   6.328  1.7026  0.3895  1.3799
  5624G12c C02K 4413   4.167   9.800   6.386 -0.8826 -0.2677 -0.3667
  5624G12c O00G 4414   4.173   9.786   6.534  0.8545  0.5555 -1.5672
  5624G12c C02M 4415   4.090   9.710   6.612 -0.4915  3.2841 -1.7434
  5624G12c H01G 4416   4.048   9.810   6.624 -5.2939  1.8713 -5.1799
  5624G12c H01F 4417   4.154   9.661   6.685 -2.3150 -0.8245 -2.7898
  5624G12c H01E 4418   4.029   9.636   6.560 -1.9628  4.0233 -1.1195
  5624G12c C02J 4419   4.105   9.699   6.324  0.5565 -0.6327 -0.9998
  5624G12c H01H 4420   4.055   9.611   6.361  1.9253 -0.9714  0.0866
  5624G12c C02I 4421   4.096   9.705   6.178 -0.3997 -0.3721  1.0183
  5624G12c C02N 4422   4.019   9.606   6.103 -2.1767 -1.3000  1.5351
  5624G12c H01M 4423   3.915   9.590   6.127 -3.0341  0.4533 -0.9144
  5624G12c C02O 4424   4.103   9.525   6.033 -0.0376  2.1096  1.2721
  5624G12c H01L 4425   4.211   9.524   6.035  0.2773 -6.5858 -1.6473
  5624G12c C02P 4426   4.053   9.425   5.916 -0.7751 -1.6610 -2.0214
  5624G12c H01K 4427   4.108   9.456   5.827  4.1915 -0.5277  1.2163
  5624G12c H01J 4428   3.945   9.426   5.905 -0.8829  0.0902 -1.1233
  5624G12c O00H 4429   4.091   9.279   5.923  2.3242  0.9891  0.6874
  5624G12c H01I 4430   4.097   9.276   6.018  0.9131 -3.8497  0.7463
  5624G12c C02H 4431   4.165   9.812   6.113 -0.0253 -0.8642 -0.2223
  5624G12c H01C 4432   4.180   9.807   6.006  3.4940 -0.7997  0.2157
  5624G12c C02L 4433   4.224   9.911   6.183  1.1634 -0.5321 -1.4991
  5624G12c H01D 4434   4.285   9.999   6.167  1.5153 -1.3471 -4.8293
  5624G12c C013 4435   4.328  10.038   6.727  1.6557  0.9162 -0.3164
  5624G12c H000 4436   4.329  10.085   6.630 -0.1065  1.7720  0.0473
  5624G12c C014 4437   4.283  10.135   6.824 -0.4018  0.6570 -0.8861
  5624G12c C00F 4438   4.226  10.256   6.784  0.9757  0.7090  1.0776
  5624G12c C00H 4439   4.187  10.295   7.014 -0.5589  0.8479  0.3351
  5624G12c C00I 4440   4.146  10.366   7.125  0.4246  0.4900 -0.9862
  5624G12c C00J 4441   4.143  10.310   7.260  1.2291  0.9974 -0.4062
  5624G12c C00Z 4442   4.404   9.937   7.121  0.0065  0.2963 -1.4104
  5624G12c C00Y 4443   4.493   9.837   7.165 -0.5289 -2.0631  0.5915
  5624G12c H006 4444   4.538   9.760   7.103 -1.5691  0.4333 -3.4801
  5624G12c C00X 4445   4.569   9.851   7.282  0.9891  0.4473  1.5977
  5624G12c O003 4446   4.673   9.764   7.289 -0.1120  0.3416 -0.4956
  5624G12c C01B 4447   4.796   9.831   7.259 -0.7567  0.2317 -0.5711
  5624G12c H009 4448   4.882   9.769   7.283 -2.7317 -2.5058 -0.2616
  5624G12c H008 4449   4.804   9.912   7.331 -4.1290 -0.2771  0.4772
  5624G12c H007 4450   4.795   9.869   7.157  0.2810 -0.0847 -0.7014
  5624G12c C00W 4451   4.533   9.956   7.367  0.9459  1.1916  2.1374
  5624G12c O004 4452   4.624   9.989   7.455  0.8266  0.7908  0.0540
  5624G12c C01C 4453   4.585  10.045   7.577  0.6272 -1.2854 -0.7912
  5624G12c H00A 4454   4.606  10.025   7.681 -1.8466 -0.5831 -0.1262
  5624G12c C00P 4455   4.467  10.126   7.588 -1.2623  1.8473  0.1636
  5624G12c C00O 4456   4.456  10.237   7.688 -0.8361 -0.2930  0.3542
  5624G12c C01D 4457   4.560  10.251   7.785  2.5779 -0.7993  0.7996
  5624G12c H00S 4458   4.658  10.216   7.755  4.1780  4.4537 -0.6349
  5624G12c C01E 4459   4.553  10.346   7.897  1.6597  0.1335  0.4706
  5624G12c O008 4460   4.641  10.375   7.986  0.4853 -1.0631 -0.8405
  5624G12c C01V 4461   4.755  10.294   8.026  0.6466 -0.3809  1.4882
  5624G12c C01Z 4462   4.722  10.199   8.144 -0.3269 -1.0014 -1.7161
  5624G12c H00R 4463   4.778  10.237   8.230 -3.3506  3.7903 -1.6649
  5624G12c H00Q 4464   4.613  10.198   8.149 -0.2972  0.9408  0.6788
  5624G12c O009 4465   4.798  10.085   8.111 -1.3050 -0.1610 -0.1030
  5624G12c H00P 4466   4.813  10.085   8.018 -0.1083 -3.8989 -0.0098
  5624G12c C01W 4467   4.875  10.321   7.984  1.3707  0.1440 -0.5055
  5624G12c H00O 4468   4.931  10.254   8.048 -7.3927 -4.1626  3.5542
  5624G12c C01X 4469   4.910  10.411   7.870  0.6587  0.8983 -2.6596
  5624G12c H00N 4470   4.813  10.442   7.831  2.1244  2.2977 -5.3437
  5624G12c H00M 4471   4.953  10.495   7.925 -2.5477  1.2073 -0.5345
  5624G12c C01Y 4472   5.026  10.351   7.777 -3.3248 -0.7298  0.4079
  5624G12c C02D 4473   5.154  10.316   7.837 -0.7827 -0.9466 -1.4190
  5624G12c H019 4474   5.190  10.361   7.929  0.5004 -4.3787 -0.1489
  5624G12c C02C 4475   5.226  10.206   7.787  0.4783 -0.7140 -1.0891
  5624G12c H01A 4476   5.271  10.132   7.851 -3.8075 -1.7103  0.9658
  5624G12c C02B 4477   5.197  10.159   7.657  0.8363 -0.7581 -0.3495
  5624G12c O00E 4478   5.233  10.041   7.607  0.8043  0.0086  1.1679
  5624G12c H01B 4479   5.157   9.986   7.600 -0.6959  2.0206  0.9953
  5624G12c C02F 4480   5.075  10.207   7.595 -1.0008  0.9578  0.0947
  5624G12c O00F 4481   5.027  10.147   7.473 -1.3365  0.1710  0.1916
  5624G12c C02G 4482   4.915  10.162   7.393 -0.8457 -1.0060 -0.0082
  5624G12c H017 4483   4.833  10.115   7.447 -6.2870  7.4263  0.0381
  5624G12c H016 4484   4.865  10.259   7.396  3.6112  1.7068 -5.0577
  5624G12c H015 4485   4.933  10.112   7.298 -1.7073  3.8679 -2.9435
  5624G12c C02E 4486   4.985  10.279   7.679 -0.9084 -0.7898  0.2285
  5624G12c H018 4487   4.903  10.331   7.633  1.5621  2.6403 -0.5340
  5624G12c C01F 4488   4.466  10.460   7.872  0.6075 -0.3579 -0.4232
  5624G12c C01G 4489   4.492  10.594   7.908  1.0550 -0.0894 -0.1347
  5624G12c H00L 4490   4.566  10.604   7.986  3.8288  2.0801 -2.8967
  5624G12c C01H 4491   4.430  10.701   7.837  2.3474  0.4455  3.1760
  5624G12c H00B 4492   4.487  10.793   7.828  9.0211 -3.5276  1.3660
  5624G12c C01I 4493   4.314  10.675   7.760  0.2162 -0.0657 -1.1421
  5624G12c C01U 4494   4.348  10.448   7.786 -1.1216  0.6792  0.9804
  5624G12c C00S 4495   4.226  10.208   7.289 -0.5044 -0.4310 -1.5406
  5624G12c C00K 4496   4.140  10.392   7.389  1.0213 -0.3942  1.6249
  5624G12c C00N 4497   4.353  10.332   7.701  0.3378 -1.2292 -0.5148
  5624G12c C000 4498   4.234  10.548   7.776 -0.8806  0.0345  0.8038
  5624G12c C01J 4499   4.264  10.719   7.629 -0.0972 -0.9082  0.2896
  5624G12c C01K 4500   4.274  10.846   7.589  1.6374 -2.3770  0.2651
  5624G12c C01P 4501   4.303  10.977   7.657  0.5004  0.4065  0.6113
  5624G12c C01Q 4502   4.251  10.996   7.796 -0.8400 -0.4819  1.2408
  5624G12c H00G 4503   4.210  10.907   7.843  4.2530 -2.5996  1.9425
  5624G12c C01R 4504   4.265  11.108   7.868 -0.6123  0.2879 -0.1735
  5624G12c H00F 4505   4.300  11.192   7.810  1.3195 -2.0897 -2.5710
  5624G12c C01S 4506   4.221  11.119   8.017  0.4906  0.9487  0.9540
  5624G12c H00E 4507   4.172  11.217   8.010  1.3879  1.2448 -1.4067
  5624G12c H00D 4508   4.154  11.039   8.048 -0.8248  0.0638 -3.7490
  5624G12c O005 4509   4.316  11.171   8.103  0.2272 -0.7094  0.8107
  5624G12c H00C 4510   4.395  11.209   8.068 -0.3302  0.5483  0.8874
  5624G12c C01O 4511   4.378  11.081   7.605 -1.1315 -0.1974  1.1492
  5624G12c H00H 4512   4.415  11.164   7.663  4.2799 -1.8846  0.3748
  5624G12c C01N 4513   4.394  11.088   7.468  0.2273  0.8540 -0.2852
  5624G12c O006 4514   4.425  11.197   7.378  0.1144 -1.1873  0.1527
  5624G12c C01T 4515   4.515  11.301   7.419 -0.6300 -0.1346  0.3338
  5624G12c H00K 4516   4.496  11.370   7.501  3.3004 -1.2949  2.3583
  5624G12c H00J 4517   4.572  11.364   7.351  4.7395  0.0958  4.6989
  5624G12c H00I 4518   4.592  11.233   7.455 -2.7693 -0.1746  5.2354
  5624G12c C01M 4519   4.333  10.974   7.395  2.0758  0.0650  0.2214
  5624G12c C020 4520   4.142  10.527   7.341  0.3137  0.3562 -2.0448
  5624G12c C021 4521   4.112  10.573   7.198 -2.4930 -0.6601 -0.4058
  5624G12c C01L 4522   4.285  10.857   7.450 -1.1111 -0.2955 -1.1511
  5624G12c O007 4523   4.311  11.005   7.269  0.1006  0.6906 -0.8006
  5624G12c C022 4524   4.143  10.704   7.152  0.2202 -0.5426 -0.0574
  5624G12c C023 4525   4.122  10.478   7.093  2.4470 -0.3238  0.2548
  5624G12c C00G 4526   4.194  10.345   6.884  0.1026  1.9698  0.8361
  5624G12c C00E 4527   4.193  10.296   6.644 -1.7888  0.9342 -0.3748
  5624G12c O00A 4528   4.222  10.240   6.528  0.5937  1.2725 -0.0736
  5624G12c C024 4529   4.115  10.226   6.432 -0.0580 -1.4852  0.2171
  5624G12c H00V 4530   4.028  10.259   6.489  0.7598 -0.3692  0.8392
  5624G12c H00U 4531   4.115  10.117   6.423 -0.3327 -1.3478 -1.7162
  5624G12c H00T 4532   4.135  10.280   6.340  0.3224 -3.8429 -1.1433
  5634G12c C00D 4533   3.241   6.275   3.417  1.0863 -1.3615 -0.5466
  5634G12c O00B 4534   3.215   6.254   3.286  1.3027 -0.8931 -1.2127
  5634G12c C025 4535   3.143   6.150   3.240  0.9965  0.1956  0.4475
  5634G12c C026 4536   3.251   6.081   3.153 -0.8117 -0.4846 -0.3991
  5634G12c H00Y 4537   3.349   6.077   3.200  0.4107  3.9347 -2.3459
  5634G12c H00X 4538   3.244   6.129   3.056 -0.7612 -2.9150 -1.6630
  5634G12c O00C 4539   3.243   5.926   3.130 -0.7496  0.6678 -2.0715
  5634G12c H00W 4540   3.293   5.884   3.062  1.2005 -2.4553  1.1258
  5634G12c C027 4541   3.004   6.127   3.241 -1.2172 -0.6723 -0.7042
  5634G12c O00D 4542   2.912   6.219   3.285  0.2235 -0.7194 -0.2678
  5634G12c H00Z 4543   2.944   6.307   3.271 -3.1931  0.5729 -0.4244
  5634G12c C028 4544   2.923   6.005   3.210 -0.6525 -0.1218  1.7692
  5634G12c C029 4545   2.955   5.882   3.265  0.9428  0.8558 -0.5044
  5634G12c H010 4546   3.056   5.865   3.299 -0.2412 -6.6392  0.2226
  5634G12c C02T 4547   2.876   5.767   3.278  2.5311  0.9908  1.1992
  5634G12c H01O 4548   2.904   5.683   3.339  2.1220  1.3645  1.9023
  5634G12c C02S 4549   2.747   5.768   3.204  0.5216  0.0813 -0.9950
  5634G12c O00J 4550   2.651   5.681   3.211 -1.7658  1.1929 -0.1525
  5634G12c H01P 4551   2.587   5.748   3.228 -6.6076 -3.7490  2.6649
  5634G12c C02R 4552   2.699   5.902   3.172 -0.5871 -1.2513  2.7501
  5634G12c O00I 4553   2.566   5.950   3.120  1.5113  1.6362 -0.2226
  5634G12c C02Q 4554   2.442   5.954   3.199 -0.6997 -1.0518  1.9142
  5634G12c H01N 4555   2.421   5.869   3.264  0.2339 -0.8310  2.5189
  5634G12c H01R 4556   2.340   5.950   3.162 -1.0561  2.7448  2.2429
  5634G12c H01Q 4557   2.450   6.008   3.293  1.3149 -1.8778  2.2424
  5634G12c C02A 4558   2.791   6.009   3.178  2.3332 -0.0685  0.8394
  5634G12c H011 4559   2.774   6.110   3.143  3.0013  0.6441  2.4926
  5634G12c C00C 4560   3.146   6.232   3.525  0.2360  0.9213  0.2242
  5634G12c H012 4561   3.071   6.160   3.494  0.7965 -0.8325  2.7671
  5634G12c C00B 4562   3.169   6.280   3.658  0.4911  0.9930  1.0726
  5634G12c C00A 4563   3.079   6.238   3.764 -0.3026 -1.6445 -0.0237
  5634G12c C009 4564   2.946   6.296   3.743  0.0050 -0.9011 -1.7791
  5634G12c C008 4565   2.860   6.307   3.631 -0.4255 -1.2227  0.8276
  5634G12c H013 4566   2.886   6.286   3.528 -7.9050 -8.5580 -0.1083
  5634G12c C007 4567   2.724   6.368   3.648  1.6840  0.4285 -0.8686
  5634G12c H014 4568   2.654   6.376   3.566  1.2890 -2.8164 -0.9196
  5634G12c C006 4569   2.670   6.423   3.765 -1.0203 -0.2603  1.2347
  5634G12c C005 4570   2.766   6.399   3.876  0.7900  0.3244  1.8475
  5634G12c C004 4571   2.778   6.502   3.970 -0.2772 -0.4950 -1.2615
  5634G12c C003 4572   2.893   6.509   4.062 -0.3088  1.1168  0.6205
  5634G12c C002 4573   2.888   6.630   4.150 -1.1767  1.2533  1.7848
  5634G12c C001 4574   2.959   6.645   4.269 -1.2379  1.5095 -0.2687
  5634G12c C00M 4575   3.097   6.664   4.284  0.0740  1.1376  2.2547
  5634G12c C00L 4576   3.192   6.581   4.205  0.0837 -1.7344 -1.0374
  5634G12c C00R 4577   3.320   6.617   4.166 -2.0057  0.3504  0.2108
  5634G12c C00Q 4578   3.393   6.738   4.208 -0.2911  0.7350  0.8687
  5634G12c C00V 4579   3.492   6.760   4.097 -0.5245 -0.0016  1.1619
  5634G12c C00U 4580   3.507   6.675   3.982  2.7365  0.1876 -2.8228
  5634G12c C00T 4581   3.431   6.559   3.968  1.3923  0.1188 -0.3394
  5634G12c C016 4582   3.423   6.500   3.846 -0.4754 -0.8620 -1.7485
  5634G12c C015 4583   3.512   6.534   3.742 -0.4292  0.5841 -0.2086
  5634G12c C010 4584   3.618   6.623   3.768  0.9271  1.7319  0.6554
  5634G12c C011 4585   3.711   6.653   3.663 -0.2585  1.1759 -0.1102
  5634G12c H005 4586   3.795   6.718   3.681  3.1463 -2.7877 -0.9905
  5634G12c C012 4587   3.711   6.582   3.547  1.4963  0.9575 -2.2312
  5634G12c C017 4588   3.816   6.585   3.461  0.7262  0.3082 -0.4422
  5634G12c O002 4589   3.797   6.623   3.324  0.2514  1.8606 -0.3405
  5634G12c H004 4590   3.891   6.617   3.316  0.5483 -0.4978  3.4864
  5634G12c C018 4591   3.953   6.586   3.479  0.3074  0.5444  1.0054
  5634G12c O001 4592   4.039   6.639   3.392 -0.1398 -0.7104 -0.8188
  5634G12c H003 4593   4.126   6.639   3.429 -1.4684  0.7173  2.4966
  5634G12c C019 4594   4.002   6.542   3.611 -0.4925  0.5670 -0.4109
  5634G12c H002 4595   3.973   6.618   3.684 -1.2070  0.5134 -0.6284
  5634G12c H001 4596   3.956   6.443   3.615  0.0636  0.1296 -3.9011
  5634G12c O000 4597   4.150   6.488   3.598 -1.1466 -1.3008 -1.2254
  5634G12c C01A 4598   4.165   6.375   3.536  1.5268 -0.4356  0.5479
  5634G12c C02K 4599   4.136   6.251   3.605 -1.8292  0.7335  1.0151
  5634G12c O00G 4600   4.108   6.250   3.741 -0.0413  0.0384 -0.8556
  5634G12c C02M 4601   4.207   6.165   3.803  0.5792  0.9197 -0.4794
  5634G12c H01G 4602   4.169   6.064   3.816  2.3050  0.7009  3.9711
  5634G12c H01F 4603   4.200   6.169   3.912  5.6625  4.1811 -0.0810
  5634G12c H01E 4604   4.311   6.173   3.773  1.4786  1.9388  2.6745
  5634G12c C02J 4605   4.116   6.144   3.521  1.0487 -2.9091  0.0361
  5634G12c H01H 4606   4.094   6.046   3.558 -0.1920 -1.1125  4.3234
  5634G12c C02I 4607   4.116   6.162   3.373  0.7455  0.4764  0.1187
  5634G12c C02N 4608   4.055   6.057   3.293  0.3882  0.4417 -1.6561
  5634G12c H01M 4609   4.100   5.963   3.266  1.5666 -0.4683  3.0311
  5634G12c C02O 4610   3.948   6.109   3.211 -0.4013 -0.2604 -0.3735
  5634G12c H01L 4611   3.910   6.210   3.210 -0.8543 -0.3783  2.0186
  5634G12c C02P 4612   3.913   6.018   3.088 -0.0044  0.3133 -0.1499
  5634G12c H01K 4613   3.833   5.957   3.128  3.3181  0.5489  7.8538
  5634G12c H01J 4614   3.984   5.942   3.055  0.4150  0.6474 -0.0274
  5634G12c O00H 4615   3.897   6.102   2.982 -0.4776  0.1766  0.0192
  5634G12c H01I 4616   3.825   6.151   3.018 -3.2247 -1.4281 -3.0318
  5634G12c C02H 4617   4.165   6.283   3.321  0.2106  0.7544  2.0378
  5634G12c H01C 4618   4.179   6.299   3.215 -0.9675 -0.2150  1.7307
  5634G12c C02L 4619   4.197   6.384   3.405 -2.2027  0.3384 -0.5097
  5634G12c H01D 4620   4.219   6.474   3.349  0.2759  1.9564  2.8565
  5634G12c C013 4621   3.596   6.507   3.525  1.8222  1.1507  0.0114
  5634G12c H000 4622   3.594   6.447   3.436 -8.6696  0.1514  0.2094
  5634G12c C014 4623   3.494   6.488   3.614  1.5275  0.7772 -0.5160
  5634G12c C00F 4624   3.376   6.402   3.600  0.8012 -0.0244 -0.7460
  5634G12c C00H 4625   3.321   6.400   3.823 -1.0165 -0.5988 -1.7470
  5634G12c C00I 4626   3.232   6.362   3.921 -1.8860 -1.1016  0.6739
  5634G12c C00J 4627   3.251   6.427   4.050 -0.1318  0.3411  0.0606
  5634G12c C00Z 4628   3.603   6.704   3.879 -0.5238 -1.0212 -0.8432
  5634G12c C00Y 4629   3.687   6.818   3.900 -1.6338  0.9930 -0.3056
  5634G12c H006 4630   3.764   6.844   3.829  0.3349 -1.5175  0.8290
  5634G12c C00X 4631   3.651   6.913   3.985  0.8939 -0.7292 -0.3853
  5634G12c O003 4632   3.725   7.028   3.971  1.4888 -0.0023 -0.0127
  5634G12c C01B 4633   3.802   7.076   4.087  0.2730  0.9224 -1.7572
  5634G12c H009 4634   3.756   7.075   4.186  1.2489 -1.6419 -1.2943
  5634G12c H008 4635   3.775   7.181   4.074  2.0555  2.1342  3.2057
  5634G12c H007 4636   3.899   7.025   4.081  0.8813  1.5608  1.5129
  5634G12c C00W 4637   3.560   6.890   4.096 -0.3479 -0.5768  0.9938
  5634G12c O004 4638   3.547   6.998   4.187  2.1222 -0.1262 -0.8158
  5634G12c C01C 4639   3.476   6.946   4.297 -0.0926 -0.5959 -1.2513
  5634G12c H00A 4640   3.524   6.955   4.393  2.3194  2.8801 -2.6847
  5634G12c C00P 4641   3.375   6.840   4.286 -0.1415  0.1361 -1.1221
  5634G12c C00O 4642   3.258   6.859   4.360 -1.5378 -0.4360 -1.5882
  5634G12c C01D 4643   3.249   6.991   4.422  0.5775  0.4989  1.8419
  5634G12c H00S 4644   3.318   7.070   4.448  3.1747 -0.6373 -1.2471
  5634G12c C01E 4645   3.121   7.057   4.446  1.8987 -0.3405 -0.4353
  5634G12c O008 4646   3.099   7.185   4.488 -1.6096  1.2839 -0.9092
  5634G12c C01V 4647   3.161   7.303   4.438 -0.2701 -0.5251 -0.5304
  5634G12c C01Z 4648   3.054   7.405   4.435  0.9733 -0.6427  0.5002
  5634G12c H00R 4649   2.965   7.407   4.372 -1.8375 -0.9264  4.3181
  5634G12c H00Q 4650   3.037   7.440   4.537 -0.9703 -7.9657  2.9657
  5634G12c O009 4651   3.095   7.537   4.385  0.0134 -0.4996  0.6043
  5634G12c H00P 4652   3.046   7.555   4.307  6.9512 -0.3791 -4.1619
  5634G12c C01W 4653   3.285   7.342   4.476  1.8193  0.2991 -0.3548
  5634G12c H00O 4654   3.328   7.275   4.549  5.4431 -4.4236 -6.3071
  5634G12c C01X 4655   3.369   7.473   4.439 -1.5078 -0.3392 -0.6467
  5634G12c H00N 4656   3.473   7.442   4.449 -2.1476 -3.0395 -1.8147
  5634G12c H00M 4657   3.329   7.518   4.348  4.9864  4.1302 -1.6468
  5634G12c C01Y 4658   3.369   7.587   4.551 -0.4743 -0.2600  0.4289
  5634G12c C02D 4659   3.371   7.535   4.688  1.6708 -0.1145 -0.0268
  5634G12c H019 4660   3.356   7.432   4.716  0.5866  0.3685  1.2574
  5634G12c C02C 4661   3.371   7.630   4.786  0.6558 -0.6130  0.3098
  5634G12c H01A 4662   3.341   7.583   4.878 -8.7645 -4.0931 -3.9058
  5634G12c C02B 4663   3.374   7.765   4.769  0.2522  0.4965 -2.0947
  5634G12c O00E 4664   3.381   7.850   4.864  0.9924  0.9237 -2.2321
  5634G12c H01B 4665   3.433   7.929   4.867  3.5069 -0.6908  0.4357
  5634G12c C02F 4666   3.390   7.822   4.634 -0.4702 -0.3309 -0.5070
  5634G12c O00F 4667   3.388   7.955   4.609  0.6242  2.3520  0.0581
  5634G12c C02G 4668   3.253   8.011   4.600 -0.2974 -0.0362  0.7945
  5634G12c H017 4669   3.240   8.056   4.502  0.0991  0.3207  0.9041
  5634G12c H016 4670   3.244   8.083   4.682 -0.4865 -5.8226  6.1991
  5634G12c H015 4671   3.170   7.943   4.614 -4.3615  3.8369 -2.9771
  5634G12c C02E 4672   3.382   7.728   4.527 -0.6667 -0.3212 -0.6031
  5634G12c H018 4673   3.390   7.777   4.431  4.7570 -3.0641 -1.7671
  5634G12c C01F 4674   3.010   6.977   4.378  0.2335 -0.2520 -0.4275
  5634G12c C01G 4675   2.876   7.041   4.336 -0.2634 -0.8575 -1.0570
  5634G12c H00L 4676   2.884   7.149   4.337  2.7318 -1.0109 -3.0256
  5634G12c C01H 4677   2.769   6.969   4.279  1.0735  0.9917  1.0188
  5634G12c H00B 4678   2.674   7.019   4.265 -3.5216 -7.2999 -0.5776
  5634G12c C01I 4679   2.803   6.837   4.234 -1.1458 -0.5839  0.2092
  5634G12c C01U 4680   3.012   6.843   4.385 -1.2204  0.7937 -0.9603
  5634G12c C00S 4681   3.353   6.527   4.068 -0.2268 -1.2372  0.2471
  5634G12c C00K 4682   3.138   6.473   4.124  1.6207  0.3359  0.1719
  5634G12c C00N 4683   3.139   6.780   4.355  0.6048 -0.8186  0.4492
  5634G12c C000 4684   2.902   6.775   4.307 -0.1325 -0.1889 -1.9848
  5634G12c C01J 4685   2.788   6.719   4.142 -0.4822  0.7591  0.2297
  5634G12c C01K 4686   2.658   6.673   4.088 -0.9472 -0.1791  0.5228
  5634G12c C01P 4687   2.530   6.691   4.129  0.0497 -1.0763  0.5844
  5634G12c C01Q 4688   2.498   6.740   4.257  0.1221 -0.9827  0.3770
  5634G12c H00G 4689   2.498   6.681   4.348 -0.9546  0.5466  1.4155
  5634G12c C01R 4690   2.409   6.844   4.278 -0.6295  0.2957  0.6306
  5634G12c H00F 4691   2.367   6.833   4.376 -0.6022 -2.9919  0.3186
  5634G12c C01S 4692   2.361   6.957   4.181 -1.1598  2.5759 -0.6162
  5634G12c H00E 4693   2.430   6.975   4.098  3.3664  3.5296  3.1345
  5634G12c H00D 4694   2.259   6.953   4.145  0.6280  0.2803 -5.9494
  5634G12c O005 4695   2.378   7.074   4.277 -0.2440 -0.1505  0.5747
  5634G12c H00C 4696   2.406   7.048   4.363 -1.1467  6.2408  3.0605
  5634G12c C01O 4697   2.425   6.674   4.049  0.3512 -0.1406  0.9898
  5634G12c H00H 4698   2.328   6.699   4.090 -0.7465  1.9344 -2.6793
  5634G12c C01N 4699   2.421   6.604   3.920  0.4511 -0.8862  0.9922
  5634G12c O006 4700   2.318   6.564   3.848 -0.9590 -0.2467  1.4708
  5634G12c C01T 4701   2.270   6.445   3.891 -1.5989 -0.4625 -1.8373
  5634G12c H00K 4702   2.195   6.455   3.970  8.2933  4.7467  8.4437
  5634G12c H00J 4703   2.346   6.372   3.920 -1.0700  3.2593  8.2132
  5634G12c H00I 4704   2.221   6.383   3.816 -6.1457  3.1826 -2.0925
  5634G12c C01M 4705   2.541   6.541   3.905 -0.8155  0.9737  1.2077
  5634G12c C020 4706   3.016   6.425   4.062  1.8105  2.5334  0.3407
  5634G12c C021 4707   2.994   6.319   3.970 -1.3648  0.0226  1.1641
  5634G12c C01L 4708   2.663   6.578   3.986  2.1725 -0.4695 -1.1934
  5634G12c O007 4709   2.560   6.496   3.777 -0.4799  0.4576  0.8306
  5634G12c C022 4710   2.891   6.318   3.879 -0.0223 -0.2657 -2.1311
  5634G12c C023 4711   3.112   6.298   3.890 -1.5041 -0.1366 -0.7244
  5634G12c C00G 4712   3.283   6.363   3.689  0.6331 -0.3385  0.3728
  5634G12c C00E 4713   3.339   6.365   3.457  0.0420  1.5466  0.4115
  5634G12c O00A 4714   3.399   6.445   3.350  2.2672 -0.0593 -0.3049
  5634G12c C024 4715   3.320   6.539   3.300 -0.3181  0.9228  0.5581
  5634G12c H00V 4716   3.340   6.556   3.194  8.4069 -1.4278  1.4966
  5634G12c H00U 4717   3.343   6.637   3.340  2.7159 -0.9649  3.6974
  5634G12c H00T 4718   3.211   6.533   3.288  0.1231  0.0735 -4.2381
  5644G12c C00D 4719  -0.004  12.303   2.389 -0.3504 -1.4118 -0.6343
  5644G12c O00B 4720   0.125  12.289   2.364 -0.8828 -0.8839 -0.2253
  5644G12c C025 4721   0.188  12.162   2.352  0.7993 -0.1324 -0.9031
  5644G12c C026 4722   0.226  12.097   2.483  0.4849 -1.7097  0.0646
  5644G12c H00Y 4723   0.281  12.004   2.492  3.6915  0.4730  6.7357
  5644G12c H00X 4724   0.150  12.051   2.546  2.6762 -7.6573 -1.3615
  5644G12c O00C 4725   0.311  12.189   2.551 -0.1161  0.9178 -1.1087
  5644G12c H00W 4726   0.351  12.261   2.504  0.0083  2.0761  0.7308
  5644G12c C027 4727   0.205  12.116   2.229 -0.7668  2.9567  1.0574
  5644G12c O00D 4728   0.133  12.157   2.123 -0.7132  0.3587 -0.6394
  5644G12c H00Z 4729   0.068  12.210   2.166  1.7648  4.9420 -2.1745
  5644G12c C028 4730   0.234  11.983   2.233  0.3552 -1.1811 -0.8137
  5644G12c C029 4731   0.370  11.960   2.238 -0.4946  1.5884 -1.0699
  5644G12c H010 4732   0.447  12.030   2.210  1.7695 -0.0606  0.8476
  5644G12c C02T 4733   0.410  11.832   2.279  1.3133  0.5032 -0.2607
  5644G12c H01O 4734   0.515  11.811   2.290  1.2345 -3.0495 -4.4713
  5644G12c C02S 4735   0.323  11.728   2.290 -0.3732 -0.2327  0.3095
  5644G12c O00J 4736   0.349  11.585   2.314 -1.9565 -1.5970  0.2129
  5644G12c H01P 4737   0.271  11.540   2.341 -4.6266 -0.1843 -4.5576
  5644G12c C02R 4738   0.178  11.748   2.266 -1.4301  0.5347  0.9391
  5644G12c O00I 4739   0.091  11.691   2.334  0.3553 -0.7232  0.3141
  5644G12c C02Q 4740   0.069  11.553   2.351 -0.2439 -0.1485 -0.9523
  5644G12c H01N 4741   0.090  11.503   2.257 -0.3115  5.5306 -4.1841
  5644G12c H01R 4742  -0.023  11.529   2.404 -0.9926 -1.6423 -2.8846
  5644G12c H01Q 4743   0.129  11.518   2.436  1.5159  1.6597 -1.3989
  5644G12c C02A 4744   0.130  11.885   2.235 -0.7801 -1.3368 -0.4838
  5644G12c H011 4745   0.045  11.951   2.235  4.4306  6.0937 -1.1102
  5644G12c C00C 4746  -0.047  12.259   2.510  1.3534  1.4289 -2.2306
  5644G12c H012 4747   0.025  12.245   2.589  2.9455 -1.4135 -4.0843
  5644G12c C00B 4748  -0.183  12.262   2.545  1.2873 -0.7700  1.7357
  5644G12c C00A 4749  -0.253  12.255   2.669  0.5287  0.6647 -0.6199
  5644G12c C009 4750  -0.203  12.209   2.797 -0.8083  0.7807 -0.0148
  5644G12c C008 4751  -0.101  12.144   2.866 -0.1841 -0.7084 -0.4460
  5644G12c H013 4752  -0.001  12.146   2.825  1.7839 -7.6557  3.3251
  5644G12c C007 4753  -0.118  12.048   2.949 -0.6659  1.0985  1.0947
  5644G12c H014 4754  -0.040  12.003   3.008 -1.9651  0.5435  2.4279
  5644G12c C006 4755  -0.259  12.008   2.984  0.6147  1.6687 -2.5974
  5644G12c C005 4756  -0.364  12.089   2.934 -0.0622 -0.1481  0.2682
  5644G12c C004 4757  -0.503  12.065   2.965  1.6100  0.2264  0.7678
  5644G12c C003 4758  -0.607  12.131   2.912 -1.1371  0.4198  1.4036
  5644G12c C002 4759  -0.735  12.086   2.935 -0.5468  0.3885 -0.3629
  5644G12c C001 4760  -0.867  12.127   2.889  0.2162  0.8764  0.1405
  5644G12c C00M 4761  -0.889  12.144   2.752 -0.6697 -0.9521  0.0714
  5644G12c C00L 4762  -0.806  12.210   2.663 -0.5306  0.2028 -0.3834
  5644G12c C00R 4763  -0.812  12.214   2.525  0.4269 -2.9485  1.0384
  5644G12c C00Q 4764  -0.893  12.162   2.417  1.7956  0.1203 -1.3072
  5644G12c C00V 4765  -0.838  12.174   2.284  0.8947 -1.4047 -0.7142
  5644G12c C00U 4766  -0.718  12.228   2.240 -0.1429 -1.8987  0.0226
  5644G12c C00T 4767  -0.647  12.287   2.344 -0.8398  1.8568  0.2354
  5644G12c C016 4768  -0.504  12.301   2.345 -1.2853  0.4698  1.9838
  5644G12c C015 4769  -0.455  12.300   2.206 -0.9681 -0.1133 -0.6425
  5644G12c C010 4770  -0.550  12.285   2.092  1.5327 -1.0738  1.3907
  5644G12c C011 4771  -0.479  12.263   1.975  1.0381  0.5400  1.5112
  5644G12c H005 4772  -0.528  12.233   1.883 -1.6950 -3.0582  3.9883
  5644G12c C012 4773  -0.342  12.258   1.959 -0.2457  1.8716  0.1013
  5644G12c C017 4774  -0.262  12.250   1.837  0.9187  0.9833  0.0342
  5644G12c O002 4775  -0.155  12.343   1.820 -0.4237 -0.2762  0.3627
  5644G12c H004 4776  -0.138  12.385   1.902  1.7485  1.7535 -1.0654
  5644G12c C018 4777  -0.261  12.131   1.763 -0.5709  0.1926 -0.1166
  5644G12c O001 4778  -0.328  12.019   1.778  0.5484  1.2487 -0.2095
  5644G12c H003 4779  -0.256  11.970   1.743 -3.9390 -5.1532 -1.5361
  5644G12c C019 4780  -0.142  12.102   1.669 -1.1804 -0.3633 -0.5054
  5644G12c H002 4781  -0.185  12.139   1.576  3.2862 -0.9754 -2.9289
  5644G12c H001 4782  -0.047  12.150   1.692  1.1928 -4.2022 -1.8591
  5644G12c O000 4783  -0.107  11.964   1.657  0.5481 -0.6224  0.0002
  5644G12c C01A 4784  -0.085  11.937   1.525  0.6663 -0.2879  1.1807
  5644G12c C02K 4785  -0.069  11.804   1.508 -0.1503  0.3710  0.3187
  5644G12c O00G 4786  -0.064  11.708   1.610 -0.3940  0.2435  0.7747
  5644G12c C02M 4787   0.049  11.724   1.704  0.8323 -1.1310 -0.7034
  5644G12c H01G 4788   0.129  11.663   1.663 -2.9115 -2.5376 -6.4061
  5644G12c H01F 4789   0.029  11.675   1.800  0.2503 -3.2809 -1.8989
  5644G12c H01E 4790   0.061  11.829   1.731 -2.0094 -1.5573  2.7490
  5644G12c C02J 4791  -0.053  11.750   1.379 -0.9331 -1.8679  0.9189
  5644G12c H01H 4792  -0.038  11.643   1.385  1.4935 -1.5090  1.8482
  5644G12c C02I 4793  -0.022  11.828   1.254  1.0536 -1.4830  0.0564
  5644G12c C02N 4794  -0.022  11.778   1.118  3.2067  0.1793 -1.5012
  5644G12c H01M 4795   0.064  11.797   1.055  5.0109  0.6603  1.0182
  5644G12c C02O 4796  -0.146  11.724   1.074 -1.5761 -0.3083  0.7688
  5644G12c H01L 4797  -0.217  11.718   1.155 -0.8283  3.2069  1.7654
  5644G12c C02P 4798  -0.175  11.693   0.922 -1.8351  0.4891 -1.0600
  5644G12c H01K 4799  -0.153  11.589   0.898 -8.0411 -0.6757 -2.6310
  5644G12c H01J 4800  -0.281  11.705   0.902 -1.3238 -0.6202 -4.7716
  5644G12c O00H 4801  -0.090  11.737   0.822 -0.0250  0.0011  0.1123
  5644G12c H01I 4802  -0.025  11.801   0.845 -2.0401  2.2142 -0.1532
  5644G12c C02H 4803   0.003  11.958   1.289  1.5138 -0.0508  0.7267
  5644G12c H01C 4804   0.037  12.031   1.217 -0.0721  2.2099  2.2281
  5644G12c C02L 4805  -0.035  12.017   1.421 -1.1300 -0.2843  1.8407
  5644G12c H01D 4806  -0.039  12.121   1.449  5.2901  0.8490 -0.3791
  5644G12c C013 4807  -0.270  12.260   2.067 -0.1570  0.5863  1.7117
  5644G12c H000 4808  -0.164  12.258   2.045 -0.3198 -0.5256  1.0062
  5644G12c C014 4809  -0.322  12.288   2.195  0.1866 -0.4193  1.8913
  5644G12c C00F 4810  -0.232  12.294   2.307 -0.7733 -0.7906  0.9549
  5644G12c C00H 4811  -0.418  12.289   2.451 -0.8586 -0.3336 -0.0926
  5644G12c C00I 4812  -0.473  12.303   2.577 -1.0986  0.2367  0.4209
  5644G12c C00J 4813  -0.612  12.330   2.598  0.3137  0.8987 -0.1292
  5644G12c C00Z 4814  -0.672  12.227   2.110 -0.7132 -2.5028  2.3895
  5644G12c C00Y 4815  -0.769  12.207   2.010 -0.4666 -0.1762 -0.5906
  5644G12c H006 4816  -0.752  12.213   1.904  0.4290  1.4249 -0.3636
  5644G12c C00X 4817  -0.887  12.144   2.041 -0.6862 -0.6619 -0.6952
  5644G12c O003 4818  -0.954  12.074   1.951 -1.2342 -0.7407  1.0861
  5644G12c C01B 4819  -0.890  11.932   1.973  0.3943  1.5358  1.6092
  5644G12c H009 4820  -0.837  11.939   1.878 -0.4312 -4.3447  0.5327
  5644G12c H008 4821  -0.847  11.891   2.065 -1.6972  2.4018  3.0202
  5644G12c H007 4822  -0.975  11.864   1.963  2.6975 -0.8134 -3.2829
  5644G12c C00W 4823  -0.918  12.119   2.182  0.6373  1.0094  0.6629
  5644G12c O004 4824  -1.023  12.028   2.202  1.1333  0.8934  0.0527
  5644G12c C01C 4825  -1.062  12.010   2.333  0.1932 -0.2310  0.5104
  5644G12c H00A 4826  -1.073  11.906   2.357 -1.0086  0.9278  5.5517
  5644G12c C00P 4827  -0.996  12.075   2.442  0.8817  0.0176 -1.6867
  5644G12c C00O 4828  -1.010  12.009   2.567 -1.9000 -1.6034 -1.0717
  5644G12c C01D 4829  -1.087  11.896   2.573  0.2795 -0.0909 -0.4819
  5644G12c H00S 4830  -1.168  11.872   2.506  0.0330 -4.1186  1.1243
  5644G12c C01E 4831  -1.090  11.797   2.669  1.1622  0.0202 -0.0982
  5644G12c O008 4832  -1.133  11.671   2.635 -2.3848 -1.4245 -0.7498
  5644G12c C01V 4833  -1.102  11.593   2.524  0.3739  1.8153 -0.5952
  5644G12c C01Z 4834  -0.948  11.593   2.460 -0.4978 -1.2749 -1.5297
  5644G12c H00R 4835  -0.899  11.592   2.557 -2.7416 -4.2501 -0.3636
  5644G12c H00Q 4836  -0.939  11.487   2.441 -2.7965 -0.6176 -7.4470
  5644G12c O009 4837  -0.927  11.646   2.336  0.0982 -1.1533  1.1074
  5644G12c H00P 4838  -0.845  11.680   2.304 -0.1882  1.2421  2.8121
  5644G12c C01W 4839  -1.205  11.550   2.442 -0.7632 -1.2718  0.4546
  5644G12c H00O 4840  -1.175  11.516   2.343 -2.0215  2.6061 -1.3580
  5644G12c C01X 4841  -1.337  11.574   2.445  0.2714  0.5894 -0.2632
  5644G12c H00N 4842  -1.350  11.671   2.493 -0.7052 -0.7742  2.3287
  5644G12c H00M 4843  -1.382  11.530   2.356 -2.2589  4.0447 -0.7926
  5644G12c C01Y 4844  -1.404  11.475   2.547  2.1499 -0.4882  0.9461
  5644G12c C02D 4845  -1.450  11.507   2.680 -0.0563  0.6817 -0.0691
  5644G12c H019 4846  -1.417  11.609   2.674  2.0900 -0.0493 -1.3203
  5644G12c C02C 4847  -1.546  11.424   2.742 -0.4830  0.7188  0.2388
  5644G12c H01A 4848  -1.606  11.473   2.818 -0.4141 -1.1948  1.5714
  5644G12c C02B 4849  -1.531  11.280   2.725 -0.4980  0.1828 -0.2059
  5644G12c O00E 4850  -1.606  11.209   2.816 -0.1602  0.1510 -0.6547
  5644G12c H01B 4851  -1.621  11.117   2.803  3.3747 -0.2124 -2.5652
  5644G12c C02F 4852  -1.464  11.238   2.609 -1.6749  1.1399  0.0206
  5644G12c O00F 4853  -1.435  11.102   2.614  0.2485  0.0529 -0.5910
  5644G12c C02G 4854  -1.410  11.056   2.488  1.4163 -1.2270  0.4760
  5644G12c H017 4855  -1.337  11.114   2.432 -1.6326  1.6049 -0.7355
  5644G12c H016 4856  -1.352  10.965   2.498  6.4855  1.8056  0.4360
  5644G12c H015 4857  -1.507  11.052   2.439  2.2957 -5.9045 -1.1365
  5644G12c C02E 4858  -1.387  11.336   2.527  0.1529  1.4180 -0.3595
  5644G12c H018 4859  -1.340  11.304   2.435 -1.3528  3.9199 -2.0545
  5644G12c C01F 4860  -1.027  11.837   2.783 -0.6308  0.0336 -1.5801
  5644G12c C01G 4861  -0.981  11.757   2.885 -0.4510  0.3495  1.2755
  5644G12c H00L 4862  -1.003  11.652   2.888  1.1717 -0.0309  0.6324
  5644G12c C01H 4863  -0.919  11.810   3.001  0.2882  0.6643  0.5308
  5644G12c H00B 4864  -0.922  11.727   3.070 -4.6998 -4.9146 -5.6227
  5644G12c C01I 4865  -0.888  11.936   3.003  0.4529 -0.0662 -0.7345
  5644G12c C01U 4866  -1.016  11.980   2.803 -0.2675  0.0543 -1.2306
  5644G12c C00S 4867  -0.698  12.296   2.481  1.6317  0.2859  0.9059
  5644G12c C00K 4868  -0.680  12.273   2.706 -0.4104  0.4529  1.8089
  5644G12c C00N 4869  -0.966  12.036   2.697 -1.9458 -0.9722 -0.9132
  5644G12c C000 4870  -0.963  12.030   2.931 -0.4341  0.2905  1.2565
  5644G12c C01J 4871  -0.758  11.995   3.039 -1.7121 -0.7405 -0.6293
  5644G12c C01K 4872  -0.659  11.925   3.118 -1.1484  0.2878  0.6917
  5644G12c C01P 4873  -0.671  11.838   3.222 -1.7079 -0.0788 -1.0616
  5644G12c C01Q 4874  -0.796  11.804   3.274 -0.4120 -0.7372 -1.1756
  5644G12c H00G 4875  -0.888  11.842   3.231 -2.1759  2.9139  5.1818
  5644G12c C01R 4876  -0.812  11.727   3.377  0.3469 -0.8232 -0.6408
  5644G12c H00F 4877  -0.736  11.662   3.418  0.9356  1.4207  1.9642
  5644G12c C01S 4878  -0.948  11.677   3.413 -0.0903  0.7167  1.4933
  5644G12c H00E 4879  -0.982  11.737   3.497 -3.0252  7.5345 -3.9483
  5644G12c H00D 4880  -1.024  11.701   3.338 -0.3362  4.3132  2.8002
  5644G12c O005 4881  -0.928  11.534   3.419  0.5803 -0.7213  0.0092
  5644G12c H00C 4882  -0.990  11.485   3.473 -1.0417  1.2431  0.0027
  5644G12c C01O 4883  -0.552  11.771   3.272  1.0683  1.0259  0.0186
  5644G12c H00H 4884  -0.541  11.724   3.369 -2.7397 -4.2563 -1.9373
  5644G12c C01N 4885  -0.424  11.807   3.244 -0.6101  0.4897  2.0691
  5644G12c O006 4886  -0.318  11.763   3.319 -1.5981 -0.2945  1.2040
  5644G12c C01T 4887  -0.275  11.868   3.409  0.7604 -2.0112  1.6077
  5644G12c H00K 4888  -0.284  11.813   3.503 -3.4490  1.7687  3.5708
  5644G12c H00J 4889  -0.333  11.919   3.486 -2.8653 -1.7600 -1.1664
  5644G12c H00I 4890  -0.206  11.950   3.390 -0.2508  0.3439  7.0462
  5644G12c C01M 4891  -0.420  11.896   3.132 -1.2159  0.1319 -0.0190
  5644G12c C020 4892  -0.587  12.239   2.816 -0.5023 -0.0751  1.6811
  5644G12c C021 4893  -0.445  12.265   2.804 -2.0528  0.2339 -1.2759
  5644G12c C01L 4894  -0.525  11.955   3.066 -0.2658 -0.9234 -0.3259
  5644G12c O007 4895  -0.292  11.928   3.106  1.5160  0.1070  0.3405
  5644G12c C022 4896  -0.340  12.208   2.865 -1.6568 -1.1715 -0.3680
  5644G12c C023 4897  -0.390  12.296   2.680 -0.7512  0.9239 -2.8060
  5644G12c C00G 4898  -0.275  12.277   2.435 -0.9202 -0.4282 -1.3858
  5644G12c C00E 4899  -0.102  12.344   2.282  0.5892  0.5912 -0.6541
  5644G12c O00A 4900  -0.059  12.410   2.165 -0.8504  0.4821  0.8787
  5644G12c C024 4901  -0.029  12.544   2.203 -0.5072 -0.4508  0.6844
  5644G12c H00V 4902   0.005  12.572   2.104 -1.0078 -2.2164 -0.0055
  5644G12c H00U 4903   0.066  12.582   2.241  0.4980 -3.1539  0.9800
  5644G12c H00T 4904  -0.097  12.624   2.231  0.9664  0.7719  0.7822
  5654G12c C00D 4905   1.016  11.861   3.690 -0.4431  0.7783  0.2335
  5654G12c O00B 4906   0.961  11.977   3.690  0.5500 -0.3705  0.4930
  5654G12c C025 4907   0.984  12.085   3.775  1.0195  0.5727 -1.4154
  5654G12c C026 4908   1.037  12.210   3.707 -0.3610 -0.5707 -0.3461
  5654G12c H00Y 4909   1.103  12.238   3.788 -1.3117 -1.9345  0.9155
  5654G12c H00X 4910   0.957  12.282   3.687  2.5348  3.2181  1.0313
  5654G12c O00C 4911   1.091  12.164   3.586 -0.2846 -0.6362 -1.3501
  5654G12c H00W 4912   1.045  12.159   3.504  1.1536 -2.4258 -2.0713
  5654G12c C027 4913   0.920  12.079   3.888 -0.4960 -0.3048 -0.5944
  5654G12c O00D 4914   0.834  11.990   3.910  0.2204  1.0418 -0.6095
  5654G12c H00Z 4915   0.867  11.915   3.864  3.9135  0.8343  2.2008
  5654G12c C028 4916   0.899  12.185   3.985  1.1549 -0.6849  0.9120
  5654G12c C029 4917   0.902  12.164   4.138  0.6525 -0.8837  0.9049
  5654G12c H010 4918   0.925  12.067   4.180 -2.8299 -1.1808  2.3027
  5654G12c C02T 4919   0.908  12.292   4.219  0.5452 -1.2811 -0.5922
  5654G12c H01O 4920   0.928  12.262   4.321 -2.4358 -5.1784 -1.0286
  5654G12c C02S 4921   0.913  12.421   4.162 -1.0204  0.0465 -0.3520
  5654G12c O00J 4922   0.941  12.520   4.242  0.2711 -1.0107 -0.1430
  5654G12c H01P 4923   1.004  12.571   4.193  1.0972 -3.4247 -1.6738
  5654G12c C02R 4924   0.883  12.427   4.023 -0.1480 -1.1644 -0.0868
  5654G12c O00I 4925   0.900  12.557   3.959  0.2585  1.0582 -0.5935
  5654G12c C02Q 4926   0.770  12.620   3.927  0.2853  1.0086  1.1265
  5654G12c H01N 4927   0.693  12.550   3.895 -4.9002  6.2711  1.3423
  5654G12c H01R 4928   0.781  12.695   3.848 -3.4948  3.4331  2.7556
  5654G12c H01Q 4929   0.732  12.668   4.017 -2.3504 -3.7370  2.7220
  5654G12c C02A 4930   0.855  12.315   3.957  0.2611 -1.1051 -2.4806
  5654G12c H011 4931   0.823  12.357   3.863 -4.3879  0.6782 -0.2301
  5654G12c C00C 4932   1.122  11.826   3.777 -1.1527  0.9247 -0.3623
  5654G12c H012 4933   1.166  11.891   3.851 -0.1233 -1.9264  1.6164
  5654G12c C00B 4934   1.182  11.706   3.787  0.0920  1.1406  0.3580
  5654G12c C00A 4935   1.279  11.671   3.882 -0.0547  0.8817  1.1128
  5654G12c C009 4936   1.376  11.742   3.948 -0.4813  0.7334  0.5454
  5654G12c C008 4937   1.420  11.878   3.975  0.0470 -0.4491  0.8237
  5654G12c H013 4938   1.351  11.940   3.919 -0.9615 -1.6439  0.7081
  5654G12c C007 4939   1.552  11.887   4.003  0.1601 -0.3911 -0.1177
  5654G12c H014 4940   1.597  11.985   3.999  1.3447 -0.9790 -2.0219
  5654G12c C006 4941   1.650  11.786   4.031  0.9865 -0.1988 -0.6384
  5654G12c C005 4942   1.580  11.651   4.036  0.5516 -0.8144 -0.6802
  5654G12c C004 4943   1.669  11.539   4.037 -0.5462  0.4011 -0.6136
  5654G12c C003 4944   1.620  11.415   4.002 -1.2470 -0.4922  0.9769
  5654G12c C002 4945   1.724  11.311   3.995  0.7633 -2.2214  2.4595
  5654G12c C001 4946   1.700  11.168   3.965 -1.0279 -0.1703  0.3235
  5654G12c C00M 4947   1.641  11.109   3.867  0.6566 -0.8922  0.8419
  5654G12c C00L 4948   1.511  11.162   3.820  0.4981 -0.3950  0.3649
  5654G12c C00R 4949   1.448  11.137   3.695  0.3078 -0.4376 -0.5316
  5654G12c C00Q 4950   1.486  11.051   3.587  0.6620 -0.7569  0.8050
  5654G12c C00V 4951   1.409  11.097   3.464 -1.1273 -0.1683 -0.2953
  5654G12c C00U 4952   1.325  11.206   3.456 -1.9190 -0.0915 -0.0791
  5654G12c C00T 4953   1.295  11.280   3.569 -0.3522  1.4981 -0.0840
  5654G12c C016 4954   1.233  11.408   3.572  0.8739 -1.3307 -0.6211
  5654G12c C015 4955   1.190  11.468   3.451 -0.7561  0.3456 -0.6050
  5654G12c C010 4956   1.201  11.391   3.344 -0.3088  1.7212  0.9474
  5654G12c C011 4957   1.156  11.436   3.210 -0.0433  0.0100 -2.3734
  5654G12c H005 4958   1.154  11.365   3.128 -2.4676 -0.6166 -1.8077
  5654G12c C012 4959   1.096  11.559   3.200 -0.2670  0.3771 -0.3539
  5654G12c C017 4960   1.072  11.631   3.082 -0.5864  0.3127 -0.8697
  5654G12c O002 4961   0.980  11.727   3.065 -0.1311  0.5507 -0.9403
  5654G12c H004 4962   0.981  11.789   2.994  4.3972  3.6308  1.6390
  5654G12c C018 4963   1.171  11.623   2.977  0.0822 -1.4247  1.4584
  5654G12c O001 4964   1.292  11.558   2.998 -0.2038  1.3693  0.5570
  5654G12c H003 4965   1.299  11.554   3.093  0.0515 -0.4926  0.4755
  5654G12c C019 4966   1.146  11.696   2.838 -0.3524  0.0776 -0.3967
  5654G12c H002 4967   1.237  11.717   2.782  1.3565  9.0342  4.7532
  5654G12c H001 4968   1.084  11.624   2.785  1.3717 -0.2889 -1.9600
  5654G12c O000 4969   1.094  11.830   2.851  1.2652 -1.2231 -1.7852
  5654G12c C01A 4970   1.022  11.856   2.733 -0.5821 -0.2001  1.2438
  5654G12c C02K 4971   0.958  11.985   2.721 -0.1602  1.2806 -0.0206
  5654G12c O00G 4972   0.917  12.068   2.813  0.7033  0.2863  0.2917
  5654G12c C02M 4973   0.974  12.123   2.934 -0.1729  0.3611  0.1338
  5654G12c H01G 4974   1.032  12.192   2.873 -0.8382 -1.2860 -2.4296
  5654G12c H01F 4975   1.036  12.060   2.998 -2.6616 -4.5158 -1.9734
  5654G12c H01E 4976   0.898  12.165   3.000 -0.9640  0.2736 -0.7108
  5654G12c C02J 4977   0.902  12.017   2.600  0.7838 -0.5108  0.2191
  5654G12c H01H 4978   0.860  12.113   2.574  4.0977  1.6688  2.4328
  5654G12c C02I 4979   0.911  11.932   2.494  1.5385 -1.1266 -1.0817
  5654G12c C02N 4980   0.849  11.961   2.374 -0.1031  1.0832  0.2382
  5654G12c H01M 4981   0.742  11.948   2.367 -0.2312  2.4135 -0.5911
  5654G12c C02O 4982   0.932  11.996   2.277 -0.2815 -1.0251 -0.6729
  5654G12c H01L 4983   1.026  11.991   2.329  0.3249 -2.0818 -1.8510
  5654G12c C02P 4984   0.912  12.049   2.127  0.0826 -1.5728  0.7203
  5654G12c H01K 4985   0.957  12.144   2.101 -1.5366  0.6350  5.5097
  5654G12c H01J 4986   0.959  11.987   2.050 -0.0482 -0.5345 -0.2008
  5654G12c O00H 4987   0.775  12.046   2.112  0.1455 -0.9808  0.7880
  5654G12c H01I 4988   0.731  11.977   2.158 -4.4190  4.3705  5.3150
  5654G12c C02H 4989   0.987  11.817   2.502 -0.1765 -0.8603 -0.7593
  5654G12c H01C 4990   0.995  11.772   2.405 -1.5308  0.1514 -1.3479
  5654G12c C02L 4991   1.049  11.777   2.621  0.2683 -0.5969 -0.9393
  5654G12c H01D 4992   1.134  11.716   2.596  1.7152  2.3537 -3.6609
  5654G12c C013 4993   1.081  11.625   3.330 -0.7136 -1.9717  0.0855
  5654G12c H000 4994   1.043  11.726   3.333  0.1551 -1.6709  4.4181
  5654G12c C014 4995   1.103  11.566   3.455  0.0704 -1.5519 -0.2903
  5654G12c C00F 4996   1.082  11.640   3.582  1.5065  0.5662 -0.2998
  5654G12c C00H 4997   1.229  11.483   3.681  1.2726  1.8521 -2.3427
  5654G12c C00I 4998   1.289  11.438   3.802  0.0689  0.5872 -0.5893
  5654G12c C00J 4999   1.338  11.312   3.798 -0.1059 -1.4798 -1.4632
  5654G12c C00Z 5000   1.280  11.263   3.347  1.2283 -0.1618  0.6649
  5654G12c C00Y 5001   1.327  11.210   3.219 -0.4635 -0.5693 -1.5259
  5654G12c H006 5002   1.329  11.275   3.133 -2.0992  1.6537  0.0495
  5654G12c C00X 5003   1.411  11.089   3.225  0.7449  0.7758  0.3222
  5654G12c O003 5004   1.480  11.045   3.120  0.6693 -1.6962  0.0735
  5654G12c C01B 5005   1.579  11.133   3.088  0.1545  2.3236  0.9456
  5654G12c H009 5006   1.585  11.175   2.987 -0.8978 -0.3828 -0.2975
  5654G12c H008 5007   1.677  11.097   3.120  0.3010 -0.7991 -2.6536
  5654G12c H007 5008   1.576  11.232   3.133 -4.4038  3.0585 -0.7377
  5654G12c C00W 5009   1.430  11.020   3.344 -0.3710  1.7319  0.0798
  5654G12c O004 5010   1.481  10.885   3.338 -0.5277 -0.4076  0.2701
  5654G12c C01C 5011   1.546  10.856   3.459  0.1652  1.3567 -0.6524
  5654G12c H00A 5012   1.576  10.754   3.478 -6.2282 -0.1848  2.3396
  5654G12c C00P 5013   1.581  10.954   3.559  0.0025 -1.0114  1.0143
  5654G12c C00O 5014   1.705  10.967   3.637  1.5885  0.0856  1.4118
  5654G12c C01D 5015   1.813  10.897   3.577  1.6005  0.4517  0.7386
  5654G12c H00S 5016   1.818  10.851   3.479  0.2016 -5.2512  3.1226
  5654G12c C01E 5017   1.949  10.938   3.616 -0.2723  0.7395  1.1627
  5654G12c O008 5018   2.058  10.899   3.551  0.1555 -0.8649 -1.4609
  5654G12c C01V 5019   2.087  10.769   3.572  1.0872  0.3677  0.4396
  5654G12c C01Z 5020   2.214  10.771   3.651  1.8112  1.4757 -1.7329
  5654G12c H00R 5021   2.182  10.796   3.752 -3.2293 -0.8838 -2.6153
  5654G12c H00Q 5022   2.243  10.667   3.668  3.3491  2.2246  0.4775
  5654G12c O009 5023   2.324  10.844   3.618  0.2310 -0.8843 -0.7424
  5654G12c H00P 5024   2.382  10.789   3.568 -0.8477  0.3502 -3.3950
  5654G12c C01W 5025   2.010  10.661   3.554  1.1601  1.0511 -0.9993
  5654G12c H00O 5026   1.917  10.683   3.504  1.3741  4.8413  0.0513
  5654G12c C01X 5027   2.060  10.511   3.523  0.7177  0.2988  0.1418
  5654G12c H00N 5028   2.122  10.473   3.604 -4.9674 -3.9857  2.7900
  5654G12c H00M 5029   1.972  10.447   3.525  0.2324  0.2015 -7.5426
  5654G12c C01Y 5030   2.115  10.482   3.389 -2.0106 -0.1387 -0.0632
  5654G12c C02D 5031   2.210  10.568   3.325  0.2633  0.8096 -0.5460
  5654G12c H019 5032   2.229  10.666   3.366 -1.4947  1.3257 -0.9027
  5654G12c C02C 5033   2.296  10.534   3.221 -0.9489 -0.2776  1.1932
  5654G12c H01A 5034   2.373  10.594   3.174 -3.6306 -1.0250 -4.5697
  5654G12c C02B 5035   2.268  10.406   3.157 -0.0997  1.1180 -1.8873
  5654G12c O00E 5036   2.336  10.387   3.040  0.8146 -0.3423 -0.4145
  5654G12c H01B 5037   2.338  10.292   3.046  5.8971 -1.1377 -7.6841
  5654G12c C02F 5038   2.180  10.316   3.216  1.1902  1.5261  0.7275
  5654G12c O00F 5039   2.152  10.198   3.168  0.3543  1.2147 -1.3394
  5654G12c C02G 5040   2.030  10.172   3.084 -0.1148 -1.0166  0.3850
  5654G12c H017 5041   1.934  10.224   3.084  0.6040  0.6120  4.9006
  5654G12c H016 5042   2.052  10.155   2.979  0.9265  0.1019  0.4188
  5654G12c H015 5043   2.010  10.072   3.124  5.2139 -1.3965  2.5992
  5654G12c C02E 5044   2.106  10.358   3.332  0.6086 -0.0370  0.1229
  5654G12c H018 5045   2.047  10.286   3.387  1.7227 -1.9607 -1.1416
  5654G12c C01F 5046   1.964  11.018   3.730  1.0360  0.1749  0.0388
  5654G12c C01G 5047   2.068  11.109   3.770 -1.7013  1.7040 -1.5676
  5654G12c H00L 5048   2.158  11.110   3.711 -1.4380  4.6804 -1.1956
  5654G12c C01H 5049   2.041  11.209   3.868  0.4501  0.4743 -0.9140
  5654G12c H00B 5050   2.117  11.286   3.870  1.1764  0.0087 -5.0141
  5654G12c C01I 5051   1.919  11.217   3.947 -1.7373 -0.1560 -0.4364
  5654G12c C01U 5052   1.846  11.033   3.819 -1.7354  1.0863 -0.4910
  5654G12c C00S 5053   1.331  11.219   3.682  0.0203 -0.2933 -1.3225
  5654G12c C00K 5054   1.456  11.280   3.875  1.4434 -0.7195  0.9807
  5654G12c C00N 5055   1.729  11.056   3.750  0.5298 -1.2214  1.2633
  5654G12c C000 5056   1.836  11.115   3.937  0.8109  0.7897  1.8531
  5654G12c C01J 5057   1.860  11.333   4.004 -0.1236  0.4379 -0.8637
  5654G12c C01K 5058   1.895  11.458   4.057 -0.3749  1.5970 -0.2785
  5654G12c C01P 5059   2.033  11.478   4.095  0.0974  1.2179 -1.1351
  5654G12c C01Q 5060   2.094  11.356   4.152  0.9079 -0.5837  0.5978
  5654G12c H00G 5061   2.041  11.285   4.214 -3.2976  0.2899 -1.7697
  5654G12c C01R 5062   2.224  11.348   4.122  0.3714 -1.3487 -1.5379
  5654G12c H00F 5063   2.254  11.439   4.073  0.5282  0.0150  0.9883
  5654G12c C01S 5064   2.322  11.230   4.128 -0.7609 -0.2172 -0.1801
  5654G12c H00E 5065   2.416  11.282   4.150  0.1949 -0.7528 -2.8340
  5654G12c H00D 5066   2.293  11.185   4.223  0.8687  0.1764  0.5329
  5654G12c O005 5067   2.339  11.131   4.049 -0.1623 -0.2610  0.8067
  5654G12c H00C 5068   2.343  11.162   3.960  0.6595  3.7638  2.1702
  5654G12c C01O 5069   2.073  11.608   4.134 -0.0735  0.1478  0.5919
  5654G12c H00H 5070   2.167  11.639   4.177 -1.3871  1.0066  2.9554
  5654G12c C01N 5071   1.997  11.718   4.117 -1.2808 -1.0668  0.4111
  5654G12c O006 5072   2.074  11.837   4.115  0.6984 -2.0310 -0.4575
  5654G12c C01T 5073   2.170  11.829   4.004 -0.7547  1.4621 -0.3057
  5654G12c H00K 5074   2.191  11.935   4.015  8.3270 -0.2799  3.7809
  5654G12c H00J 5075   2.120  11.785   3.918  2.4658  0.3131 -1.6496
  5654G12c H00I 5076   2.260  11.783   4.044 -2.5906 -1.1857  0.9480
  5654G12c C01M 5077   1.857  11.693   4.087 -0.6471  0.7879 -0.4204
  5654G12c C020 5078   1.482  11.396   3.974 -1.0902 -1.6289  0.1558
  5654G12c C021 5079   1.386  11.512   3.996 -1.6609  0.0097 -0.7275
  5654G12c C01L 5080   1.804  11.564   4.071 -0.5437 -1.1913  0.0170
  5654G12c O007 5081   1.780  11.798   4.074  1.5115 -1.4239  0.2197
  5654G12c C022 5082   1.445  11.634   4.014  2.5548 -0.1112 -0.8793
  5654G12c C023 5083   1.279  11.530   3.908  0.8133 -0.6914 -0.2497
  5654G12c C00G 5084   1.164  11.614   3.689  0.2085 -0.4637  0.6046
  5654G12c C00E 5085   1.006  11.767   3.586  0.3014 -0.7098  0.8725
  5654G12c O00A 5086   0.950  11.809   3.471  1.8216  1.9174  0.7812
  5654G12c C024 5087   0.959  11.957   3.416  0.6288  0.4527  0.3345
  5654G12c H00V 5088   0.947  11.961   3.308 -0.5121 -0.9969  0.3826
  5654G12c H00U 5089   1.067  11.959   3.430  0.7536 -1.3969 -0.1478
  5654G12c H00T 5090   0.895  12.026   3.471  3.6901  3.6759 -0.0196
  5664G12c C00D 5091  10.994  11.364   3.941 -0.3040 -0.3213  0.8572
  5664G12c O00B 5092  10.874  11.417   3.923  0.5463 -0.7653  0.7349
  5664G12c C025 5093  10.788  11.424   4.034 -0.3528  1.0071  0.6405
  5664G12c C026 5094  10.808  11.545   4.130 -0.8526  1.1530  0.6998
  5664G12c H00Y 5095  10.727  11.590   4.188 -3.7054 -3.2839  0.3837
  5664G12c H00X 5096  10.847  11.634   4.081 -5.6960  3.2978  0.3752
  5664G12c O00C 5097  10.868  11.475   4.233  1.2618 -0.3004 -0.5494
  5664G12c H00W 5098  10.941  11.418   4.216  1.4975  0.8683 -3.8862
  5664G12c C027 5099  10.674  11.358   4.038 -0.0796  0.8473 -0.6479
  5664G12c O00D 5100  10.634  11.270   3.947 -0.5722  0.0893 -0.1508
  5664G12c H00Z 5101  10.591  11.194   3.983 -3.1683  2.8285  2.7382
  5664G12c C028 5102  10.595  11.363   4.152 -2.9373 -0.0457  0.3607
  5664G12c C029 5103  10.462  11.365   4.133 -0.3370 -1.2386  0.5375
  5664G12c H010 5104  10.438  11.401   4.034 -1.7627 -1.0185  0.9459
  5664G12c C02T 5105  10.384  11.385   4.249  0.8383  0.4699 -0.6568
  5664G12c H01O 5106  10.287  11.427   4.228 -1.4375 -4.5297 -0.8564
  5664G12c C02S 5107  10.437  11.349   4.376  0.2704  0.7797  0.0561
  5664G12c O00J 5108  10.385  11.396   4.490  0.1690  1.4065 -1.6106
  5664G12c H01P 5109  10.325  11.468   4.498  1.7943  2.3824  3.6740
  5664G12c C02R 5110  10.576  11.286   4.381 -1.6358  0.4326  1.5189
  5664G12c O00I 5111  10.632  11.265   4.499 -0.8202 -0.4611 -0.4777
  5664G12c C02Q 5112  10.703  11.132   4.513 -0.0456 -0.0987  1.2413
  5664G12c H01N 5113  10.763  11.133   4.421  2.3941  1.3305  2.7840
  5664G12c H01R 5114  10.620  11.061   4.511  1.9822 -2.5749 -3.0666
  5664G12c H01Q 5115  10.766  11.120   4.601 -0.2895 -3.3998  1.0312
  5664G12c C02A 5116  10.647  11.264   4.250 -0.5157  0.1338  2.2270
  5664G12c H011 5117  10.750  11.234   4.244 -0.2103  1.5518 -5.6400
  5664G12c C00C 5118  11.046  11.302   4.057 -0.9013  1.0019  1.2945
  5664G12c H012 5119  10.973  11.258   4.123  1.7629  0.6600  4.1097
  5664G12c C00B 5120  11.181  11.271   4.086  0.7090  0.9558 -0.8387
  5664G12c C00A 5121  11.252  11.181   4.182 -1.4714  0.6611 -0.8401
  5664G12c C009 5122  11.197  11.121   4.297 -2.0969  0.9697  0.3343
  5664G12c C008 5123  11.085  11.122   4.369  1.4765  2.5576 -2.0941
  5664G12c H013 5124  10.992  11.132   4.314 -0.4579 -0.6831  0.3751
  5664G12c C007 5125  11.107  11.090   4.518 -1.2515 -0.0017  1.6368
  5664G12c H014 5126  11.032  11.072   4.594 -1.4457 -3.7501  0.6658
  5664G12c C006 5127  11.226  11.053   4.577 -0.2351  0.9806 -0.7294
  5664G12c C005 5128  11.322  11.049   4.486 -0.1503 -0.3173 -0.4930
  5664G12c C004 5129  11.452  11.020   4.530 -1.9215 -0.8937  0.8545
  5664G12c C003 5130  11.562  11.048   4.435 -1.3618  0.2370  0.7942
  5664G12c C002 5131  11.689  11.061   4.485 -1.1330 -0.4453 -0.6936
  5664G12c C001 5132  11.830  11.078   4.435 -0.9564  0.9260 -0.1954
  5664G12c C00M 5133  11.866  11.177   4.336  0.0282  0.4119  1.0895
  5664G12c C00L 5134  11.806  11.166   4.216  0.4136 -2.5089 -0.5201
  5664G12c C00R 5135  11.807  11.281   4.122  1.3271  0.8386  1.0208
  5664G12c C00Q 5136  11.885  11.413   4.132 -2.7412  1.3684 -0.6650
  5664G12c C00V 5137  11.849  11.501   4.033 -0.7668  0.2082  0.0066
  5664G12c C00U 5138  11.739  11.492   3.955  0.3373  1.6277 -0.3852
  5664G12c C00T 5139  11.652  11.384   3.966  0.9173  0.6317 -2.5159
  5664G12c C016 5140  11.507  11.383   3.928 -0.4544 -1.2482 -0.2666
  5664G12c C015 5141  11.480  11.481   3.834 -1.2126  1.5436 -0.2481
  5664G12c C010 5142  11.587  11.563   3.784  1.4537  0.8458 -0.4971
  5664G12c C011 5143  11.542  11.630   3.668  0.2224 -0.1747 -0.7466
  5664G12c H005 5144  11.615  11.691   3.617 -1.3499  1.7606 -0.7394
  5664G12c C012 5145  11.423  11.631   3.615 -0.8819  0.9971 -0.8993
  5664G12c C017 5146  11.398  11.695   3.477  0.8207 -1.2537 -0.0127
  5664G12c O002 5147  11.412  11.826   3.462 -1.2961  0.5806  0.2347
  5664G12c H004 5148  11.412  11.866   3.547 -0.0715  3.5413 -1.1154
  5664G12c C018 5149  11.357  11.626   3.364  0.3152 -0.0162 -1.3934
  5664G12c O001 5150  11.353  11.701   3.247 -1.2803 -0.4328 -0.0601
  5664G12c H003 5151  11.385  11.785   3.276 -5.5011  0.7788  1.4938
  5664G12c C019 5152  11.318  11.485   3.344  0.3132 -1.6316 -0.3820
  5664G12c H002 5153  11.381  11.428   3.276  2.4012 -3.1721  2.7334
  5664G12c H001 5154  11.341  11.455   3.446 -0.8780  1.6268  0.8796
  5664G12c O000 5155  11.176  11.479   3.336 -0.6219  0.8682  0.8698
  5664G12c C01A 5156  11.144  11.508   3.201  0.6199 -1.7768 -0.8414
  5664G12c C02K 5157  11.198  11.453   3.092 -0.0088  0.6372 -3.1972
  5664G12c O00G 5158  11.275  11.354   3.107  1.2254  0.0862 -0.6959
  5664G12c C02M 5159  11.208  11.253   3.042  0.6071  0.0757  0.7218
  5664G12c H01G 5160  11.305  11.208   3.062  0.0976 -3.0620 -3.1959
  5664G12c H01F 5161  11.184  11.257   2.936  0.2853  2.3042  0.8514
  5664G12c H01E 5162  11.124  11.203   3.091  2.3174 -1.5071  2.1032
  5664G12c C02J 5163  11.205  11.515   2.968  0.9255 -0.3277 -0.2170
  5664G12c H01H 5164  11.301  11.496   2.922 -0.6798  0.9270 -4.3409
  5664G12c C02I 5165  11.107  11.622   2.965  1.6120 -0.2549 -0.7951
  5664G12c C02N 5166  11.097  11.699   2.838  0.5397 -0.6571 -0.3551
  5664G12c H01M 5167  10.998  11.734   2.813 -0.0925 -1.7666  0.5343
  5664G12c C02O 5168  11.195  11.699   2.756 -1.3981  0.3608 -1.6161
  5664G12c H01L 5169  11.290  11.649   2.762 -2.2280 -0.9360  2.7521
  5664G12c C02P 5170  11.160  11.740   2.606  1.2089 -1.4681  0.8262
  5664G12c H01K 5171  11.263  11.761   2.574  1.3679 -2.6149  0.5729
  5664G12c H01J 5172  11.123  11.666   2.536  4.4115 -3.5288  1.1904
  5664G12c O00H 5173  11.090  11.856   2.609  1.7423  0.2535 -0.6482
  5664G12c H01I 5174  11.154  11.905   2.658  3.6883 -3.4613  0.7802
  5664G12c C02H 5175  11.037  11.666   3.080 -0.9153 -1.2245 -1.1258
  5664G12c H01C 5176  10.958  11.739   3.068  3.0825  3.8924  1.7393
  5664G12c C02L 5177  11.071  11.618   3.205 -0.6409 -0.5633  0.1136
  5664G12c H01D 5178  11.033  11.666   3.293  0.7039  2.8622 -1.0672
  5664G12c C013 5179  11.317  11.565   3.684 -1.8186 -0.4773  1.0006
  5664G12c H000 5180  11.227  11.556   3.626 -0.4627 -1.9094 -0.9526
  5664G12c C014 5181  11.342  11.483   3.807 -0.3917  0.7605 -0.8853
  5664G12c C00F 5182  11.238  11.402   3.881 -0.7610 -0.5095 -0.3648
  5664G12c C00H 5183  11.409  11.305   3.999 -0.7129  1.5339  0.7403
  5664G12c C00I 5184  11.459  11.187   4.072  0.1871 -1.2535 -1.5568
  5664G12c C00J 5185  11.609  11.188   4.084 -0.7972  1.5420 -0.5131
  5664G12c C00Z 5186  11.704  11.583   3.845 -0.8964  1.0845  0.4924
  5664G12c C00Y 5187  11.813  11.649   3.782  0.6253  1.3117  0.4619
  5664G12c H006 5188  11.830  11.686   3.682 -2.1201 -4.7934 -2.5903
  5664G12c C00X 5189  11.940  11.651   3.857 -0.1841 -0.9396  0.1466
  5664G12c O003 5190  12.047  11.678   3.782 -0.5262 -1.1086 -1.3570
  5664G12c C01B 5191  12.144  11.756   3.823 -0.6080 -0.6779  0.3797
  5664G12c H009 5192  12.212  11.785   3.743  1.4369 -1.8135  1.6604
  5664G12c H008 5193  12.209  11.702   3.892  3.3571  1.3274 -1.6608
  5664G12c H007 5194  12.111  11.830   3.897  0.4245  0.7621 -0.5891
  5664G12c C00W 5195  11.952  11.599   3.980 -0.2273 -0.2886  0.6928
  5664G12c O004 5196  12.077  11.603   4.041  2.6444  1.0303  0.3134
  5664G12c C01C 5197  12.082  11.571   4.172  1.1368  0.3399 -0.3258
  5664G12c H00A 5198  12.155  11.619   4.236  2.9988  2.2645 -3.7239
  5664G12c C00P 5199  11.999  11.455   4.214 -0.8973 -0.3017 -0.2228
  5664G12c C00O 5200  12.017  11.405   4.355 -0.2807 -1.1244 -0.5068
  5664G12c C01D 5201  12.074  11.485   4.456 -0.4608  0.5967  0.3922
  5664G12c H00S 5202  12.141  11.566   4.429 -1.7101  1.7814  0.7905
  5664G12c C01E 5203  12.085  11.434   4.587  0.9101 -0.1291 -0.3257
  5664G12c O008 5204  12.163  11.510   4.690 -0.1926 -0.8252  0.4393
  5664G12c C01V 5205  12.220  11.431   4.767 -0.7114  0.5034 -0.8622
  5664G12c C01Z 5206  12.190  11.465   4.917  0.2093  1.8191 -0.2252
  5664G12c H00R 5207  12.268  11.531   4.955  0.3348  0.4255  2.0341
  5664G12c H00Q 5208  12.090  11.508   4.927 -1.8405 -2.4294 -1.1782
  5664G12c O009 5209  12.197  11.343   4.997  0.4699  0.2897  0.0308
  5664G12c H00P 5210  12.235  11.268   4.953  1.9807  1.3789 -0.5942
  5664G12c C01W 5211  12.307  11.328   4.743  0.1757 -0.5946  1.1235
  5664G12c H00O 5212  12.348  11.295   4.837 -4.3369  2.3311  4.2953
  5664G12c C01X 5213  12.334  11.267   4.614 -0.3087  0.6208  1.2563
  5664G12c H00N 5214  12.364  11.171   4.657 -3.4519 -0.1502  1.9190
  5664G12c H00M 5215  12.259  11.251   4.536 -0.3101  0.2850  1.3227
  5664G12c C01Y 5216  12.461  11.326   4.565  1.0892 -1.0135  0.5721
  5664G12c C02D 5217  12.488  11.459   4.602 -0.0588  0.7235 -1.3584
  5664G12c H019 5218  12.436  11.513   4.679 -0.2423  1.8462 -2.2563
  5664G12c C02C 5219  12.612  11.515   4.538 -1.9817 -0.1815  0.0821
  5664G12c H01A 5220  12.650  11.604   4.587  0.5147 -1.7001  0.9777
  5664G12c C02B 5221  12.683  11.426   4.449  0.5970 -2.1218 -0.7735
  5664G12c O00E 5222  12.807  11.471   4.419 -1.1274 -0.2753 -1.2868
  5664G12c H01B 5223  12.817  11.486   4.327  3.1458 -0.1955 -0.9089
  5664G12c C02F 5224  12.632  11.295   4.406  1.3983  0.7924  0.1238
  5664G12c O00F 5225  12.680  11.257   4.280  0.7625 -1.5094 -0.2338
  5664G12c C02G 5226  12.691  11.113   4.258 -0.3344  1.0890 -1.4330
  5664G12c H017 5227  12.774  11.099   4.326 -5.4457  3.9011  6.0341
  5664G12c H016 5228  12.588  11.077   4.258  1.1271 -3.5618  1.1971
  5664G12c H015 5229  12.742  11.079   4.168 -1.6992 -3.5507 -0.6165
  5664G12c C02E 5230  12.511  11.253   4.460 -1.2432 -2.7429 -1.4860
  5664G12c H018 5231  12.465  11.188   4.387 -2.7875 -2.0347 -1.1696
  5664G12c C01F 5232  11.995  11.322   4.613  0.3395 -0.8851  0.2515
  5664G12c C01G 5233  11.953  11.287   4.750  0.1145 -0.1419 -0.5607
  5664G12c H00L 5234  11.958  11.320   4.852  0.5401 -0.8888 -0.3353
  5664G12c C01H 5235  11.864  11.186   4.764 -0.2357  1.1029 -0.8255
  5664G12c H00B 5236  11.798  11.196   4.849 -0.3738 -7.0856  0.4253
  5664G12c C01I 5237  11.842  11.088   4.657  1.0418  0.1616 -0.0025
  5664G12c C01U 5238  11.975  11.219   4.513  0.9248 -0.2140  0.2995
  5664G12c C00S 5239  11.698  11.275   4.033  1.7103 -0.3798  1.2457
  5664G12c C00K 5240  11.660  11.125   4.208  0.3850 -0.5466  0.1716
  5664G12c C00N 5241  11.954  11.281   4.386 -0.0520  0.4325 -1.1060
  5664G12c C000 5242  11.921  11.094   4.543 -0.8919 -1.1433  0.2839
  5664G12c C01J 5243  11.703  11.059   4.625  0.4375 -0.5003  1.3311
  5664G12c C01K 5244  11.602  11.006   4.720 -0.1723 -0.1697 -0.8483
  5664G12c C01P 5245  11.618  10.947   4.855  0.2290 -0.4241 -0.3201
  5664G12c C01Q 5246  11.751  10.922   4.891  1.1315  1.3105 -0.4523
  5664G12c H00G 5247  11.824  10.977   4.948  2.0205 -2.3306  2.1061
  5664G12c C01R 5248  11.806  10.813   4.820 -0.5062 -0.5034 -0.5425
  5664G12c H00F 5249  11.911  10.812   4.842 -0.7057  0.3416  0.5214
  5664G12c C01S 5250  11.723  10.701   4.751  0.9118  1.3495  2.0016
  5664G12c H00E 5251  11.652  10.692   4.833 -3.9097  2.6589 -1.8061
  5664G12c H00D 5252  11.672  10.739   4.662 -0.1384 -5.4671 -0.6349
  5664G12c O005 5253  11.829  10.600   4.733  0.4950 -0.9613  0.9355
  5664G12c H00C 5254  11.817  10.533   4.799  3.4116 -3.2256 -0.7176
  5664G12c C01O 5255  11.512  10.910   4.937  0.2023  0.7394 -0.8419
  5664G12c H00H 5256  11.532  10.887   5.041 -7.4191  0.7534  0.9514
  5664G12c C01N 5257  11.383  10.935   4.878 -0.1236 -1.4443 -1.4987
  5664G12c O006 5258  11.278  10.963   4.966 -0.7492  1.0583  0.4317
  5664G12c C01T 5259  11.227  10.833   4.995 -2.1111  0.5913  0.2710
  5664G12c H00K 5260  11.121  10.852   4.985 -2.3561  0.1261  1.7853
  5664G12c H00J 5261  11.222  10.808   5.101  3.7502 -2.4195  0.0226
  5664G12c H00I 5262  11.250  10.755   4.923  4.2989 -1.1715  3.7901
  5664G12c C01M 5263  11.367  10.999   4.756  0.9967 -0.2774 -1.2064
  5664G12c C020 5264  11.547  11.066   4.288 -0.8838 -1.0791 -0.7517
  5664G12c C021 5265  11.409  11.044   4.249  0.5475 -0.3864 -0.3009
  5664G12c C01L 5266  11.478  11.018   4.661  0.9507  1.2001 -2.3986
  5664G12c O007 5267  11.233  11.033   4.709  0.7938 -0.2852 -0.1527
  5664G12c C022 5268  11.308  11.069   4.348 -0.5705  1.3406 -0.2420
  5664G12c C023 5269  11.360  11.107   4.133  1.1063  0.2772 -1.5733
  5664G12c C00G 5270  11.275  11.317   3.989  1.3285 -0.4762 -1.3266
  5664G12c C00E 5271  11.097  11.423   3.857  0.9640  0.7630  0.1466
  5664G12c O00A 5272  11.039  11.477   3.742 -0.2307 -0.2236  0.7224
  5664G12c C024 5273  10.981  11.376   3.648  1.8323  1.6235 -0.0574
  5664G12c H00V 5274  11.041  11.365   3.558  7.5620  2.3552  3.4410
  5664G12c H00U 5275  10.981  11.292   3.717  0.5748  5.6156  5.1474
  5664G12c H00T 5276  10.879  11.405   3.624  1.7635 -0.0043 -1.8435
  5674G12c C00D 5277   0.174   4.014  10.527  0.6258 -0.2147 -0.3025
  5674G12c O00B 5278   0.107   4.111  10.592  0.0840 -0.2783 -1.1466
  5674G12c C025 5279   0.160   4.236  10.548 -0.1729  0.8149 -1.2919
  5674G12c C026 5280   0.160   4.241  10.381  0.5301 -2.1020 -0.7656
  5674G12c H00Y 5281   0.113   4.339  10.371 -1.3190 -2.5148  3.1520
  5674G12c H00X 5282   0.091   4.164  10.348  2.7859 -5.0350  1.1343
  5674G12c O00C 5283   0.273   4.215  10.301 -0.1311 -1.0016  0.5124
  5674G12c H00W 5284   0.274   4.306  10.273 -1.8935 -1.3717 -0.8127
  5674G12c C027 5285   0.188   4.338  10.624  0.5512 -0.9197  1.0327
  5674G12c O00D 5286   0.185   4.297  10.749 -0.1263 -1.3436 -1.3088
  5674G12c H00Z 5287   0.222   4.216  10.718  2.6637  1.4683 -5.7743
  5674G12c C028 5288   0.238   4.473  10.563 -0.4901  1.8699 -1.1711
  5674G12c C029 5289   0.381   4.470  10.574 -0.2987 -0.9598  0.4082
  5674G12c H010 5290   0.422   4.371  10.565  5.0974  0.7212  4.0553
  5674G12c C02T 5291   0.441   4.604  10.579 -0.1785  0.6379 -0.8244
  5674G12c H01O 5292   0.549   4.606  10.584 -0.2404  1.4857  0.4590
  5674G12c C02S 5293   0.363   4.707  10.546 -0.4479  0.5067 -0.4541
  5674G12c O00J 5294   0.427   4.838  10.564  0.6389 -0.7739 -0.7105
  5674G12c H01P 5295   0.366   4.893  10.517 -1.8419 -0.2814  2.8738
  5674G12c C02R 5296   0.221   4.717  10.513 -0.5237 -1.0851 -0.9122
  5674G12c O00I 5297   0.149   4.833  10.524 -1.7979  0.2890  0.2761
  5674G12c C02Q 5298   0.073   4.855  10.633  0.0763 -0.3767 -0.8067
  5674G12c H01N 5299   0.013   4.766  10.649  3.6650 -3.0100 -1.3699
  5674G12c H01R 5300   0.147   4.855  10.713  1.8052 -3.6706 -2.3181
  5674G12c H01Q 5301   0.006   4.941  10.626 -1.2666 -0.4503  7.1090
  5674G12c C02A 5302   0.163   4.591  10.528  2.1781  1.2965 -0.7149
  5674G12c H011 5303   0.057   4.597  10.547  2.2880 -0.3258  0.5347
  5674G12c C00C 5304   0.129   3.908  10.444 -0.6821 -2.2853 -0.0722
  5674G12c H012 5305   0.028   3.939  10.425 -0.4096  1.3996  3.8656
  5674G12c C00B 5306   0.210   3.794  10.405 -1.8575 -0.1636  1.4619
  5674G12c C00A 5307   0.155   3.680  10.349  0.5344 -1.4341 -0.9654
  5674G12c C009 5308   0.028   3.635  10.391 -1.3687  0.4985 -0.3896
  5674G12c C008 5309  -0.071   3.674  10.478 -0.3121 -0.2724 -0.4278
  5674G12c H013 5310  -0.076   3.779  10.502  1.1541 -1.1872  4.4760
  5674G12c C007 5311  -0.138   3.566  10.561  2.1104  0.9702  1.5762
  5674G12c H014 5312  -0.180   3.560  10.660 -0.9392 -0.4668  0.2641
  5674G12c C006 5313  -0.118   3.421  10.519  0.2928 -0.0366  0.5176
  5674G12c C005 5314  -0.012   3.398  10.434 -0.5304  0.4081 -1.2766
  5674G12c C004 5315   0.038   3.263  10.427 -0.7815  0.0859 -0.1117
  5674G12c C003 5316   0.164   3.242  10.392  0.3944 -0.2745  0.1733
  5674G12c C002 5317   0.209   3.105  10.396 -0.6350  1.0748  0.4080
  5674G12c C001 5318   0.338   3.037  10.371  0.2914 -0.0053  0.9034
  5674G12c C00M 5319   0.469   3.099  10.395  0.8493 -0.6985 -0.1016
  5674G12c C00L 5320   0.484   3.236  10.396  2.1844  2.0758 -0.5842
  5674G12c C00R 5321   0.587   3.313  10.452  0.9500 -0.8141 -0.3185
  5674G12c C00Q 5322   0.706   3.290  10.513 -0.4020 -0.8322 -0.9727
  5674G12c C00V 5323   0.782   3.403  10.557  0.3335  1.6598 -0.2837
  5674G12c C00U 5324   0.734   3.531  10.517 -0.2820 -0.6047 -1.6073
  5674G12c C00T 5325   0.616   3.560  10.456 -2.1889 -0.2066  1.7425
  5674G12c C016 5326   0.555   3.692  10.456 -0.1758  1.4449  0.4451
  5674G12c C015 5327   0.611   3.792  10.523  0.6407  1.4624  0.8968
  5674G12c C010 5328   0.745   3.786  10.551  0.6796  1.0641 -0.2580
  5674G12c C011 5329   0.804   3.906  10.593 -0.7047 -0.2086 -1.5191
  5674G12c H005 5330   0.910   3.913  10.579 -0.3878  1.0383  1.1212
  5674G12c C012 5331   0.745   4.023  10.608 -1.4330  0.0689 -0.3568
  5674G12c C017 5332   0.818   4.144  10.655  2.0842 -0.5171  0.2392
  5674G12c O002 5333   0.837   4.195  10.781  0.6237 -1.1310 -0.2937
  5674G12c H004 5334   0.906   4.260  10.774  3.4557 -3.5062  3.5928
  5674G12c C018 5335   0.863   4.227  10.558 -0.2688  1.1880 -0.5764
  5674G12c O001 5336   0.933   4.338  10.582 -0.3933  0.5268 -0.3515
  5674G12c H003 5337   1.012   4.295  10.552  1.1270  1.2013  2.5136
  5674G12c C019 5338   0.888   4.192  10.404 -0.5635 -1.0402  0.4002
  5674G12c H002 5339   0.829   4.105  10.375 -2.6689  1.4730 -3.4342
  5674G12c H001 5340   0.869   4.289  10.358  5.7382 -0.9969 -2.5672
  5674G12c O000 5341   1.030   4.152  10.394 -0.3922  0.3428 -0.3530
  5674G12c C01A 5342   1.066   4.143  10.270  1.4172 -0.2965  1.0461
  5674G12c C02K 5343   1.181   4.201  10.229  1.1694  0.8801  0.8071
  5674G12c O00G 5344   1.221   4.277  10.328 -0.2703 -1.6622 -0.1016
  5674G12c C02M 5345   1.343   4.242  10.402  0.9062  0.0207  1.8565
  5674G12c H01G 5346   1.414   4.307  10.454  2.2929  3.7219 -4.2378
  5674G12c H01F 5347   1.417   4.183  10.348  4.8099  8.0111 -2.4485
  5674G12c H01E 5348   1.323   4.181  10.490  4.2203 -2.1531  1.1851
  5674G12c C02J 5349   1.256   4.158  10.119 -0.6658 -0.3815  1.2389
  5674G12c H01H 5350   1.352   4.205  10.104  0.2205 -2.1915  1.0717
  5674G12c C02I 5351   1.204   4.092  10.002  0.6279  0.6701  0.6800
  5674G12c C02N 5352   1.277   4.051   9.888  0.1136 -1.1457  0.0147
  5674G12c H01M 5353   1.268   3.981   9.806  5.1305  0.3282 -1.9829
  5674G12c C02O 5354   1.372   4.153   9.860 -2.1631  1.5019 -0.2880
  5674G12c H01L 5355   1.387   4.237   9.925 -3.8010  4.6086 -3.7303
  5674G12c C02P 5356   1.450   4.163   9.739 -0.5560 -0.3673 -0.6622
  5674G12c H01K 5357   1.438   4.101   9.651  4.2296 -3.6919  0.8153
  5674G12c H01J 5358   1.505   4.257   9.741  1.1800 -1.3837  1.3768
  5674G12c O00H 5359   1.561   4.076   9.785  0.2019  1.1022  1.6248
  5674G12c H01I 5360   1.628   4.049   9.725  0.3257 -0.0401  2.2599
  5674G12c C02H 5361   1.079   4.033  10.045 -0.7103  0.6193  0.1193
  5674G12c H01C 5362   1.042   3.959   9.975 -0.6419  1.8299 -1.2405
  5674G12c C02L 5363   1.004   4.068  10.159 -0.2924  1.0123 -0.1004
  5674G12c H01D 5364   0.898   4.051  10.162 -0.9751  4.5725 -1.7892
  5674G12c C013 5365   0.613   4.032  10.561 -1.2088  1.4600 -2.0660
  5674G12c H000 5366   0.558   4.123  10.581 -1.5117  0.4564  2.1148
  5674G12c C014 5367   0.542   3.915  10.528 -0.5014 -0.4869 -0.7759
  5674G12c C00F 5368   0.416   3.912  10.508  1.7372 -0.5034  0.4896
  5674G12c C00H 5369   0.423   3.695  10.415  0.6427  0.3330  0.9375
  5674G12c C00I 5370   0.370   3.583  10.361  0.1909 -0.7556  0.5112
  5674G12c C00J 5371   0.436   3.457  10.369 -1.0865  0.7154  1.2066
  5674G12c C00Z 5372   0.807   3.653  10.557  1.0344  0.1638 -0.7921
  5674G12c C00Y 5373   0.933   3.622  10.623  0.4993 -0.7529 -0.0042
  5674G12c H006 5374   1.005   3.702  10.633 -3.2532  2.9619 -1.4118
  5674G12c C00X 5375   0.978   3.499  10.676  0.6984 -0.5230 -1.5842
  5674G12c O003 5376   1.105   3.473  10.726 -0.3265  0.4902 -1.4391
  5674G12c C01B 5377   1.173   3.558  10.814  1.8003 -0.1024 -0.9158
  5674G12c H009 5378   1.185   3.657  10.772 -0.2571  1.2890  1.6405
  5674G12c H008 5379   1.111   3.554  10.904 -0.7629 -2.7995 -2.7030
  5674G12c H007 5380   1.268   3.516  10.848  2.5195  2.9402  0.9717
  5674G12c C00W 5381   0.902   3.388  10.630  1.1225  0.2096 -0.2488
  5674G12c O004 5382   0.966   3.270  10.637 -0.2178 -0.6780 -0.5135
  5674G12c C01C 5383   0.902   3.164  10.610  0.2895  1.1524 -0.5531
  5674G12c H00A 5384   0.966   3.078  10.602  0.8304  1.1660  3.0117
  5674G12c C00P 5385   0.753   3.173  10.567 -0.1347  1.0558 -0.0909
  5674G12c C00O 5386   0.652   3.057  10.586  0.6013  0.7277 -1.5323
  5674G12c C01D 5387   0.674   2.957  10.693 -0.1527 -1.2367 -0.7182
  5674G12c H00S 5388   0.756   2.972  10.762 -3.0159 -0.9046  2.7349
  5674G12c C01E 5389   0.595   2.847  10.722  0.3427 -0.6797  1.5446
  5674G12c O008 5390   0.615   2.793  10.851 -0.3148 -1.5693 -0.4048
  5674G12c C01V 5391   0.573   2.854  10.969 -0.9353  0.1234  1.2101
  5674G12c C01Z 5392   0.592   2.737  11.066 -0.1021  1.0190  0.3878
  5674G12c H00R 5393   0.493   2.695  11.081  0.8007 -2.7660 -3.4391
  5674G12c H00Q 5394   0.651   2.650  11.038 -0.4968 -0.0583  2.8176
  5674G12c O009 5395   0.661   2.753  11.194 -1.0789 -1.6433 -0.6491
  5674G12c H00P 5396   0.657   2.686  11.261 -1.2938 -3.0362 -2.0181
  5674G12c C01W 5397   0.547   2.983  10.999  1.3685  0.4226 -2.0714
  5674G12c H00O 5398   0.541   3.045  10.911  1.2176  0.1842 -2.2302
  5674G12c C01X 5399   0.523   3.058  11.137 -0.0219 -0.3012  0.4108
  5674G12c H00N 5400   0.559   3.001  11.222  0.1827 -6.3431 -3.3887
  5674G12c H00M 5401   0.544   3.164  11.142 -0.8681  0.2138 -4.5626
  5674G12c C01Y 5402   0.378   3.058  11.152  2.0103 -0.5727  1.3403
  5674G12c C02D 5403   0.326   3.044  11.284  1.4347 -0.8460  0.0353
  5674G12c H019 5404   0.392   3.059  11.368  5.2691  1.3948 -3.2160
  5674G12c C02C 5405   0.186   3.051  11.304  0.4122  0.5794  1.6369
  5674G12c H01A 5406   0.142   3.042  11.402 -4.1531  2.7705 -0.0817
  5674G12c C02B 5407   0.109   3.062  11.192 -1.4117 -0.3067  0.9580
  5674G12c O00E 5408  -0.020   3.114  11.181  0.2451  0.2556 -0.3682
  5674G12c H01B 5409  -0.034   3.105  11.088  2.3854  3.9045 -1.1547
  5674G12c C02F 5410   0.158   3.063  11.059  1.1083 -1.7717 -1.8984
  5674G12c O00F 5411   0.087   3.099  10.944 -0.8260 -0.4638  0.7542
  5674G12c C02G 5412   0.115   3.234  10.885 -0.6849  1.6799 -1.2717
  5674G12c H017 5413   0.208   3.240  10.829  1.2197 -6.7600  0.2191
  5674G12c H016 5414   0.100   3.319  10.951 -1.1566  2.3112 -2.1937
  5674G12c H015 5415   0.037   3.240  10.809 -1.5944  3.8829 -0.1852
  5674G12c C02E 5416   0.300   3.045  11.031 -0.2922  1.2382  0.4519
  5674G12c H018 5417   0.338   3.045  10.930 -4.9780 -2.6987 -1.5942
  5674G12c C01F 5418   0.479   2.839  10.653  1.7475  0.3648 -0.9746
  5674G12c C01G 5419   0.359   2.778  10.707 -1.2692 -0.3788  0.5267
  5674G12c H00L 5420   0.377   2.731  10.802 -1.0410 -1.2348  0.0692
  5674G12c C01H 5421   0.234   2.822  10.641 -0.5775 -0.4477 -0.7675
  5674G12c H00B 5422   0.137   2.803  10.686  1.2614  1.9617  4.6532
  5674G12c C01I 5423   0.242   2.909  10.536 -0.5748 -1.2241  0.0447
  5674G12c C01U 5424   0.469   2.917  10.531  0.2139  1.1726  0.4077
  5674G12c C00S 5425   0.544   3.448  10.423  0.1528  0.3520 -0.4121
  5674G12c C00K 5426   0.387   3.328  10.342  0.7167 -0.2109  0.4961
  5674G12c C00N 5427   0.543   3.040  10.510  0.1371  1.3343 -1.1573
  5674G12c C000 5428   0.349   2.917  10.457 -0.3012 -0.6665 -1.7148
  5674G12c C01J 5429   0.142   3.021  10.493  0.8486 -0.9470  0.6292
  5674G12c C01K 5430   0.002   3.017  10.514  1.4668  0.7442  0.8946
  5674G12c C01P 5431  -0.090   2.917  10.578  0.9069 -0.3582 -0.7834
  5674G12c C01Q 5432  -0.076   2.762  10.553 -0.4145 -0.5588  0.0134
  5674G12c H00G 5433  -0.096   2.704  10.643  0.5688  1.2018  1.3981
  5674G12c C01R 5434  -0.003   2.725  10.443  2.1452 -1.1640 -1.4491
  5674G12c H00F 5435  -0.017   2.798  10.365  7.0637 -1.1120 -2.4578
  5674G12c C01S 5436   0.062   2.588  10.419  0.3446 -0.4575  1.9482
  5674G12c H00E 5437   0.014   2.528  10.343  3.8460 -1.0635  0.1308
  5674G12c H00D 5438   0.162   2.610  10.381 -1.8025 -2.5975 -5.6142
  5674G12c O005 5439   0.077   2.498  10.521  0.0016  1.2637 -0.6183
  5674G12c H00C 5440   0.016   2.499  10.593  3.5213 -0.5831  2.5846
  5674G12c C01O 5441  -0.213   2.975  10.618 -1.1941  0.1482  2.0313
  5674G12c H00H 5442  -0.293   2.906  10.644  2.0216 -5.3382 -1.5992
  5674G12c C01N 5443  -0.242   3.107  10.615 -1.4210 -0.4066  0.8833
  5674G12c O006 5444  -0.380   3.139  10.650 -0.8442  0.1761 -0.6853
  5674G12c C01T 5445  -0.401   3.189  10.778 -0.3266  1.9171 -0.1343
  5674G12c H00K 5446  -0.356   3.287  10.791 -5.4274  4.6591 -1.9333
  5674G12c H00J 5447  -0.507   3.214  10.777 -0.1265  4.1204 -8.8716
  5674G12c H00I 5448  -0.359   3.125  10.856 -5.2438 -1.5206 -0.0624
  5674G12c C01M 5449  -0.159   3.199  10.571 -0.2863  0.5420 -0.4275
  5674G12c C020 5450   0.247   3.343  10.328 -0.9349 -0.3074  2.9691
  5674G12c C021 5451   0.178   3.455  10.296 -0.5944 -0.3235  0.5813
  5674G12c C01L 5452  -0.051   3.155  10.487 -1.1593  1.1663  0.1733
  5674G12c O007 5453  -0.189   3.326  10.579  0.0491 -0.5083 -0.5755
  5674G12c C022 5454   0.053   3.499  10.360 -0.6310  0.0822  0.6098
  5674G12c C023 5455   0.245   3.582  10.307 -1.0575 -0.6304  0.9652
  5674G12c C00G 5456   0.349   3.805  10.439  0.4772  0.1291 -0.3367
  5674G12c C00E 5457   0.317   3.993  10.564  0.1527 -1.1196 -0.5512
  5674G12c O00A 5458   0.354   4.089  10.660  1.0628  1.1281  1.0179
  5674G12c C024 5459   0.404   4.046  10.790  0.0845 -0.3277  0.2581
  5674G12c H00V 5460   0.388   3.943  10.822  4.1093 -1.4929 -1.2064
  5674G12c H00U 5461   0.356   4.111  10.864  4.4517  0.7036  2.3559
  5674G12c H00T 5462   0.512   4.057  10.798  0.4823 -2.2982 -2.0644
  5684G12c C00D 5463  12.301   8.895   5.297 -0.0212  1.0177  1.0388
  5684G12c O00B 5464  12.420   8.881   5.222  0.3201  0.6378 -1.1387
  5684G12c C025 5465  12.553   8.895   5.257  1.2060 -2.4813 -0.2666
  5684G12c C026 5466  12.591   8.996   5.364  1.2408 -1.6208 -0.6640
  5684G12c H00Y 5467  12.656   8.928   5.420 -1.6696 -0.1171  4.9647
  5684G12c H00X 5468  12.516   9.028   5.436  3.3155  3.8805 -0.7232
  5684G12c O00C 5469  12.647   9.105   5.310  1.4272  0.7297 -0.5679
  5684G12c H00W 5470  12.726   9.122   5.358  2.6986  1.5964 -2.9198
  5684G12c C027 5471  12.640   8.831   5.164 -0.9955  1.0857  0.9017
  5684G12c O00D 5472  12.585   8.772   5.046  0.5238 -1.1863  0.4136
  5684G12c H00Z 5473  12.493   8.780   5.065  1.4107  1.7045  4.0767
  5684G12c C028 5474  12.788   8.815   5.178 -0.3422  0.1146 -1.5900
  5684G12c C029 5475  12.860   8.733   5.269 -1.1747  0.4022  0.4928
  5684G12c H010 5476  12.815   8.652   5.323  0.2125 -4.5404 -5.2629
  5684G12c C02T 5477  13.000   8.745   5.255 -1.0684 -1.3296 -2.2143
  5684G12c H01O 5478  13.088   8.697   5.294  0.8984  1.2064 -3.3506
  5684G12c C02S 5479  13.075   8.834   5.174  0.0820  0.4622 -0.5457
  5684G12c O00J 5480  13.199   8.851   5.187 -0.3395 -0.7068 -1.4508
  5684G12c H01P 5481  13.211   8.924   5.128  1.9476 -2.8097 -3.7351
  5684G12c C02R 5482  12.995   8.908   5.089  0.3784  0.7124 -0.3260
  5684G12c O00I 5483  13.067   8.993   5.016  0.1216 -1.5456  0.2585
  5684G12c C02Q 5484  12.975   9.086   4.937 -1.0879 -0.1109 -0.4474
  5684G12c H01N 5485  12.920   9.162   4.993  6.5951  8.1782 -2.9101
  5684G12c H01R 5486  13.035   9.161   4.886 -6.1843  3.6435 -1.3112
  5684G12c H01Q 5487  12.906   9.045   4.863  2.0447  1.1256 -4.2047
  5684G12c C02A 5488  12.854   8.890   5.084  0.0881 -0.5892 -0.2287
  5684G12c H011 5489  12.800   8.932   5.000  2.0084  0.5630 -0.9037
  5684G12c C00C 5490  12.315   8.863   5.435  0.7821 -0.9263 -0.1809
  5684G12c H012 5491  12.408   8.876   5.488  1.7941 -5.6571 -0.5919
  5684G12c C00B 5492  12.225   8.895   5.527  0.3538  0.9374 -2.2267
  5684G12c C00A 5493  12.247   8.930   5.670 -0.4830 -0.1740 -0.2361
  5684G12c C009 5494  12.314   8.829   5.753 -0.7612  1.3852 -0.6273
  5684G12c C008 5495  12.407   8.716   5.729  0.2378  0.0567 -0.4606
  5684G12c H013 5496  12.453   8.730   5.633  0.4305  0.7371 -0.2714
  5684G12c C007 5497  12.422   8.618   5.836  0.2599  0.4749 -2.5025
  5684G12c H014 5498  12.468   8.527   5.802 -1.6958 -2.1058  1.4580
  5684G12c C006 5499  12.338   8.617   5.946  0.4426 -1.2278  0.7976
  5684G12c C005 5500  12.242   8.729   5.973 -0.7527 -0.4614 -0.1147
  5684G12c C004 5501  12.131   8.701   6.050 -0.7416  1.1788  1.0391
  5684G12c C003 5502  12.016   8.778   6.048 -2.2302 -0.9092 -1.0448
  5684G12c C002 5503  11.903   8.736   6.130 -0.1881  0.0303  1.2676
  5684G12c C001 5504  11.761   8.789   6.144  0.4288  0.6061  0.5743
  5684G12c C00M 5505  11.689   8.848   6.045  1.0440  1.0721 -0.8374
  5684G12c C00L 5506  11.741   8.936   5.948  0.8567  1.8655 -1.2997
  5684G12c C00R 5507  11.670   8.947   5.825 -0.3183 -1.1734  0.6988
  5684G12c C00Q 5508  11.541   8.910   5.789  1.1005  1.4436  1.0074
  5684G12c C00V 5509  11.525   8.927   5.654  0.2184 -1.8053 -0.5315
  5684G12c C00U 5510  11.621   8.970   5.555 -0.2412 -0.1564 -0.1588
  5684G12c C00T 5511  11.747   8.996   5.587  0.5039  0.3489  1.0124
  5684G12c C016 5512  11.863   8.981   5.499 -0.5202  0.1335  1.6919
  5684G12c C015 5513  11.836   8.940   5.365  0.2150 -1.6428 -0.8229
  5684G12c C010 5514  11.708   8.940   5.321  0.4553  1.5688  1.7435
  5684G12c C011 5515  11.684   8.903   5.182  1.8182 -2.0543  0.7741
  5684G12c H005 5516  11.581   8.893   5.149  2.3144 -1.8623 -0.8847
  5684G12c C012 5517  11.790   8.859   5.104 -0.9351  0.9658  0.2117
  5684G12c C017 5518  11.776   8.778   4.987 -2.2041  0.0716 -0.7823
  5684G12c O002 5519  11.788   8.835   4.871  0.2005  0.5022 -1.1625
  5684G12c H004 5520  11.780   8.757   4.817 -6.9736 -1.4089  2.1008
  5684G12c C018 5521  11.750   8.646   5.002 -0.4363 -0.0013 -1.2859
  5684G12c O001 5522  11.707   8.605   5.117 -0.6874  1.7347 -0.2285
  5684G12c H003 5523  11.705   8.670   5.186 -0.9196  0.0802  1.3584
  5684G12c C019 5524  11.786   8.532   4.914 -0.3432 -0.0993 -0.9100
  5684G12c H002 5525  11.882   8.487   4.939 -0.4162  0.7078  0.8854
  5684G12c H001 5526  11.735   8.457   4.976 -0.0901  6.2573  7.9345
  5684G12c O000 5527  11.744   8.552   4.783  0.3016  0.9221  1.7485
  5684G12c C01A 5528  11.840   8.469   4.709  1.0637  2.5409  0.5204
  5684G12c C02K 5529  11.956   8.523   4.644 -0.3291  1.2419 -1.6166
  5684G12c O00G 5530  11.937   8.662   4.641 -1.5840 -0.2550  0.1830
  5684G12c C02M 5531  12.039   8.720   4.555  1.4334 -1.2079 -0.1971
  5684G12c H01G 5532  12.108   8.770   4.624  4.7212 -3.0514 -2.0387
  5684G12c H01F 5533  12.073   8.691   4.456 -2.2769  0.7419 -2.1502
  5684G12c H01E 5534  12.012   8.824   4.536  6.6597 -0.0365 -2.0491
  5684G12c C02J 5535  12.060   8.442   4.593  1.2413 -2.0296  0.2366
  5684G12c H01H 5536  12.148   8.487   4.549  2.2937 -5.5702 -1.4305
  5684G12c C02I 5537  12.051   8.300   4.607 -0.4429 -0.1837  0.0749
  5684G12c C02N 5538  12.164   8.231   4.542  0.2370 -0.0935 -0.3644
  5684G12c H01M 5539  12.230   8.289   4.480  0.8309 -3.7225 -3.3168
  5684G12c C02O 5540  12.181   8.101   4.561  0.5940  0.6461 -0.4316
  5684G12c H01L 5541  12.137   8.066   4.653  0.9606 -1.1668 -0.9189
  5684G12c C02P 5542  12.202   7.997   4.455 -1.8970  0.7001 -0.9036
  5684G12c H01K 5543  12.262   8.045   4.378  1.6791 -0.8656  0.7689
  5684G12c H01J 5544  12.266   7.909   4.469  1.7098  2.9360 -2.5974
  5684G12c O00H 5545  12.076   7.981   4.407  0.1836 -1.0557  0.2590
  5684G12c H01I 5546  12.050   8.033   4.333  1.3802  0.2981  0.7798
  5684G12c C02H 5547  11.927   8.245   4.645 -0.6738 -0.0833 -0.5606
  5684G12c H01C 5548  11.904   8.139   4.648  2.3851 -0.8290 -1.3475
  5684G12c C02L 5549  11.826   8.325   4.709 -1.0963  0.8414 -0.3496
  5684G12c H01D 5550  11.729   8.288   4.739 -2.0647  3.9379  0.5542
  5684G12c C013 5551  11.920   8.855   5.153  1.9802  1.1758  1.1387
  5684G12c H000 5552  11.990   8.802   5.089  2.7442 -1.1682  3.8503
  5684G12c C014 5553  11.938   8.922   5.280 -1.2252 -0.5126  0.9502
  5684G12c C00F 5554  12.069   8.919   5.330  0.5738 -2.1124 -1.6219
  5684G12c C00H 5555  11.993   8.974   5.556  0.7965 -0.6658 -0.2987
  5684G12c C00I 5556  11.995   8.978   5.699  0.2594 -0.4340 -0.9813
  5684G12c C00J 5557  11.885   8.964   5.788  0.8284 -1.5212 -0.4834
  5684G12c C00Z 5558  11.606   8.957   5.419 -0.5058 -1.0577  0.2580
  5684G12c C00Y 5559  11.469   8.956   5.382  0.1129 -0.0870  0.1546
  5684G12c H006 5560  11.471   8.975   5.276 -0.9315  4.7590  0.9012
  5684G12c C00X 5561  11.366   8.976   5.475  2.5692  0.4229  1.7961
  5684G12c O003 5562  11.241   9.019   5.426  0.6986  1.1637  0.2265
  5684G12c C01B 5563  11.225   9.044   5.292 -1.3689  0.1322 -0.6075
  5684G12c H009 5564  11.234   8.944   5.249 -4.7191 -0.2316 -0.5915
  5684G12c H008 5565  11.121   9.076   5.283 -2.9378 -1.5368  7.6178
  5684G12c H007 5566  11.305   9.099   5.242  0.4536 -3.2629 -1.6479
  5684G12c C00W 5567  11.392   8.940   5.602 -0.6444 -1.1612 -2.3175
  5684G12c O004 5568  11.284   8.922   5.679  0.3821  1.3260  1.2242
  5684G12c C01C 5569  11.291   8.908   5.816  1.5400  0.7633 -1.2033
  5684G12c H00A 5570  11.248   8.985   5.878 -4.3852 -2.7735 -0.5098
  5684G12c C00P 5571  11.423   8.866   5.857 -0.4155 -0.9766  0.0804
  5684G12c C00O 5572  11.430   8.793   5.976  0.9207  0.5685  0.6585
  5684G12c C01D 5573  11.336   8.678   5.996 -0.8673 -2.2518  1.5794
  5684G12c H00S 5574  11.242   8.680   5.944 -1.4071  8.0856  1.8668
  5684G12c C01E 5575  11.375   8.547   6.059 -0.4119 -1.7856 -0.5162
  5684G12c O008 5576  11.319   8.428   6.032  0.6719 -2.0967 -0.4748
  5684G12c C01V 5577  11.359   8.362   5.915  0.1205 -0.0105  0.6593
  5684G12c C01Z 5578  11.279   8.238   5.871 -0.8577  1.1679 -0.7869
  5684G12c H00R 5579  11.202   8.214   5.944  2.3886 -1.3218  1.9729
  5684G12c H00Q 5580  11.235   8.239   5.771  2.2288  1.2766 -2.1977
  5684G12c O009 5581  11.362   8.109   5.864 -0.5610  0.9296  0.3625
  5684G12c H00P 5582  11.322   8.030   5.898  6.4056 -4.1003 -1.8280
  5684G12c C01W 5583  11.464   8.418   5.827 -0.4596 -1.6513 -0.6894
  5684G12c H00O 5584  11.532   8.497   5.853 -6.6068  4.9313 -3.1299
  5684G12c C01X 5585  11.502   8.357   5.687  0.7641 -0.1560 -1.9477
  5684G12c H00N 5586  11.608   8.337   5.671  1.0738  0.4279 -0.6446
  5684G12c H00M 5587  11.449   8.263   5.676  3.1326 -1.2715 -4.5879
  5684G12c C01Y 5588  11.421   8.440   5.587 -0.0837  1.2619 -0.0416
  5684G12c C02D 5589  11.497   8.549   5.543 -1.6414  1.2666  0.8303
  5684G12c H019 5590  11.596   8.575   5.576 -1.1325  2.2628 -1.4047
  5684G12c C02C 5591  11.463   8.638   5.440  0.3976  0.8488 -0.7034
  5684G12c H01A 5592  11.548   8.684   5.392  3.5831 -6.5570 -2.7562
  5684G12c C02B 5593  11.340   8.601   5.380 -0.4522 -1.1047  1.0365
  5684G12c O00E 5594  11.279   8.671   5.275  0.3515  1.8546 -1.3018
  5684G12c H01B 5595  11.198   8.623   5.273  0.9546  0.1771  4.7473
  5684G12c C02F 5596  11.251   8.488   5.417 -1.1538 -0.1145 -0.4244
  5684G12c O00F 5597  11.139   8.453   5.352  0.7869 -0.7037 -1.0538
  5684G12c C02G 5598  11.176   8.388   5.228 -0.6524 -1.2196  0.5962
  5684G12c H017 5599  11.105   8.313   5.194 -0.7999 -1.1773  0.8001
  5684G12c H016 5600  11.176   8.479   5.168 -0.4634 -1.5081  0.1653
  5684G12c H015 5601  11.278   8.356   5.245  2.9351  5.8865 -4.7805
  5684G12c C02E 5602  11.301   8.395   5.514  0.1101 -1.4800  0.1888
  5684G12c H018 5603  11.263   8.307   5.562 -3.3062 -0.1625  0.0445
  5684G12c C01F 5604  11.491   8.560   6.137 -0.8946  0.4359  1.5180
  5684G12c C01G 5605  11.551   8.438   6.177 -1.0113 -1.0112  1.0474
  5684G12c H00L 5606  11.513   8.344   6.139 -4.8648  1.7212 -2.3560
  5684G12c C01H 5607  11.689   8.458   6.244 -0.7899 -0.4336 -1.2721
  5684G12c H00B 5608  11.746   8.370   6.271  0.8734  2.0679  3.8302
  5684G12c C01I 5609  11.757   8.584   6.228  1.2166  1.2622  0.4926
  5684G12c C01U 5610  11.559   8.679   6.148  0.8719  0.9764 -0.1253
  5684G12c C00S 5611  11.763   8.986   5.721 -2.6535 -0.9731 -0.1498
  5684G12c C00K 5612  11.881   8.949   5.925  0.5173  1.8847  0.2634
  5684G12c C00N 5613  11.553   8.786   6.044  0.7939  0.4633 -0.2411
  5684G12c C000 5614  11.685   8.691   6.208  1.8207 -0.0622  1.3030
  5684G12c C01J 5615  11.908   8.609   6.202  0.6860 -1.9481  0.4570
  5684G12c C01K 5616  12.034   8.535   6.209 -1.2911 -0.1437 -0.2185
  5684G12c C01P 5617  12.049   8.416   6.290  0.1289 -0.6409 -0.1541
  5684G12c C01Q 5618  11.953   8.371   6.409  0.8149 -0.1554  0.2165
  5684G12c H00G 5619  11.876   8.437   6.446  3.5851  2.9306  0.6979
  5684G12c C01R 5620  11.952   8.248   6.458  1.9000  1.8316  0.6832
  5684G12c H00F 5621  12.037   8.188   6.432  1.4461 -0.1878  3.6883
  5684G12c C01S 5622  11.842   8.178   6.524  1.0051 -1.2860  0.8550
  5684G12c H00E 5623  11.754   8.241   6.509 -0.9467 -2.7710  5.1042
  5684G12c H00D 5624  11.823   8.082   6.476 -3.0709  1.3360 -3.2575
  5684G12c O005 5625  11.857   8.176   6.679  1.1044  0.9703 -1.4647
  5684G12c H00C 5626  11.771   8.183   6.717 -0.0426  0.8627 -3.9325
  5684G12c C01O 5627  12.165   8.337   6.282  0.4996  1.5390 -1.0660
  5684G12c H00H 5628  12.180   8.270   6.365  1.1509 -0.7499 -2.9599
  5684G12c C01N 5629  12.274   8.390   6.209  2.6362  1.7740  0.2717
  5684G12c O006 5630  12.388   8.323   6.221 -1.2948 -0.9643 -0.9303
  5684G12c C01T 5631  12.503   8.377   6.291  0.5926 -0.1544 -1.5893
  5684G12c H00K 5632  12.604   8.340   6.274 -0.1143 -2.9482 -0.0356
  5684G12c H00J 5633  12.498   8.325   6.387 -0.8850  0.4773 -1.3165
  5684G12c H00I 5634  12.514   8.486   6.294  7.1063 -0.5620  4.2215
  5684G12c C01M 5635  12.251   8.491   6.117 -0.4446 -0.2616 -0.4049
  5684G12c C020 5636  12.019   8.900   5.971  1.3736  1.4385  1.9322
  5684G12c C021 5637  12.137   8.921   5.893 -2.0075  0.3798  0.4265
  5684G12c C01L 5638  12.139   8.585   6.125  1.4892 -0.5153  1.5521
  5684G12c O007 5639  12.349   8.510   6.022  1.2460 -0.8697 -0.1517
  5684G12c C022 5640  12.252   8.842   5.897 -0.7276 -1.1855 -0.5218
  5684G12c C023 5641  12.133   8.967   5.754 -0.3556 -0.5769 -0.1182
  5684G12c C00G 5642  12.100   8.931   5.469 -0.6785  0.5740 -1.2260
  5684G12c C00E 5643  12.190   8.935   5.248  0.4421 -0.4898  0.9615
  5684G12c O00A 5644  12.195   8.958   5.103 -0.1247 -0.2815 -0.6158
  5684G12c C024 5645  12.159   9.091   5.057 -1.4007  1.1523 -0.9853
  5684G12c H00V 5646  12.232   9.172   5.061 -1.4995  1.2859 -1.8075
  5684G12c H00U 5647  12.077   9.136   5.113  2.8059  2.3870  4.5960
  5684G12c H00T 5648  12.133   9.080   4.952 -0.5919 -0.0198 -1.0704
  5694G12c C00D 5649  10.321   3.009   5.643  0.1664 -2.1416  1.1049
  5694G12c O00B 5650  10.327   2.888   5.687 -1.2927  1.3438  0.4263
  5694G12c C025 5651  10.239   2.789   5.629  2.0643  1.0110  1.3016
  5694G12c C026 5652  10.107   2.814   5.675 -0.1107  0.2095 -2.2582
  5694G12c H00Y 5653  10.060   2.837   5.580 -4.1387  1.1339 -0.1761
  5694G12c H00X 5654  10.107   2.913   5.723  1.0337  0.1376 -2.0905
  5694G12c O00C 5655  10.028   2.723   5.751 -1.7105 -0.2768  1.0725
  5694G12c H00W 5656  10.042   2.764   5.835  1.4183  2.8490 -0.8498
  5694G12c C027 5657  10.272   2.687   5.547  1.4534 -0.0997  0.2536
  5694G12c O00D 5658  10.157   2.624   5.494  0.0844  0.4673 -1.1494
  5694G12c H00Z 5659  10.136   2.649   5.405  1.1382 -1.1006 -1.8627
  5694G12c C028 5660  10.406   2.638   5.534 -1.0854 -0.5331  0.1081
  5694G12c C029 5661  10.516   2.715   5.563 -0.4958 -1.1957  0.1152
  5694G12c H010 5662  10.508   2.812   5.609  1.9757 -2.0715  2.5682
  5694G12c C02T 5663  10.644   2.661   5.560  0.6699 -1.2102 -1.5696
  5694G12c H01O 5664  10.735   2.720   5.567  2.5742 -3.7965 -3.4561
  5694G12c C02S 5665  10.670   2.532   5.502 -1.1239 -0.7692  0.3534
  5694G12c O00J 5666  10.785   2.470   5.471  0.2986  1.0385  0.2828
  5694G12c H01P 5667  10.852   2.529   5.503  4.8420 -3.2876 -0.6485
  5694G12c C02R 5668  10.558   2.451   5.482 -0.1474  0.6829  0.1606
  5694G12c O00I 5669  10.554   2.319   5.458 -1.4740  0.6853 -0.6760
  5694G12c C02Q 5670  10.621   2.282   5.333 -0.6349  0.2219 -0.3904
  5694G12c H01N 5671  10.541   2.235   5.276 -0.7485  0.9906 -0.8637
  5694G12c H01R 5672  10.697   2.204   5.343 -3.5749 -2.4413  2.3013
  5694G12c H01Q 5673  10.639   2.350   5.250  1.4110 -4.2905 -3.8676
  5694G12c C02A 5674  10.432   2.500   5.498  0.5475  0.5476  1.7873
  5694G12c H011 5675  10.359   2.421   5.482  3.5032 -2.1736  1.1187
  5694G12c C00C 5676  10.395   3.109   5.719  1.0995 -1.1773 -1.6376
  5694G12c H012 5677  10.407   3.094   5.825 -6.5492  0.0459 -0.3103
  5694G12c C00B 5678  10.437   3.232   5.670 -1.4904 -0.0896  0.4058
  5694G12c C00A 5679  10.528   3.339   5.734 -0.7409  0.1729 -0.3464
  5694G12c C009 5680  10.534   3.406   5.861 -0.8368 -0.1591 -0.5993
  5694G12c C008 5681  10.471   3.389   5.977  0.0080 -0.2844  0.1212
  5694G12c H013 5682  10.427   3.290   5.972 -4.8685  1.7935 -2.6517
  5694G12c C007 5683  10.472   3.466   6.090 -0.9997 -0.8451  0.0138
  5694G12c H014 5684  10.404   3.467   6.174 -0.4037 -1.6682  0.5114
  5694G12c C006 5685  10.510   3.596   6.067 -0.9472 -1.5995  0.8476
  5694G12c C005 5686  10.564   3.622   5.936 -0.3128 -0.4233 -0.9217
  5694G12c C004 5687  10.608   3.751   5.901  1.6947  0.1431 -1.5437
  5694G12c C003 5688  10.647   3.779   5.763 -0.0262 -1.7467  1.0298
  5694G12c C002 5689  10.666   3.918   5.737  1.0624 -1.2561 -0.2783
  5694G12c C001 5690  10.660   3.992   5.610 -1.6020 -0.3460  0.2409
  5694G12c C00M 5691  10.568   3.957   5.518 -0.1955  0.5533  2.2298
  5694G12c C00L 5692  10.561   3.832   5.451 -0.4953 -0.7489 -2.3088
  5694G12c C00R 5693  10.436   3.786   5.387 -0.6860  0.4486 -0.6468
  5694G12c C00Q 5694  10.344   3.862   5.300 -0.0641 -0.2082 -1.0590
  5694G12c C00V 5695  10.260   3.775   5.237  0.1069 -1.2095  1.0807
  5694G12c C00U 5696  10.255   3.629   5.235  0.2233  0.5028  0.6657
  5694G12c C00T 5697  10.339   3.566   5.331 -0.1539 -0.7387 -0.3643
  5694G12c C016 5698  10.318   3.439   5.392 -0.5746 -0.5505 -0.3734
  5694G12c C015 5699  10.217   3.354   5.333 -0.6073 -0.8453 -0.5550
  5694G12c C010 5700  10.142   3.412   5.227  0.0481 -0.0536  0.8268
  5694G12c C011 5701  10.018   3.347   5.220  0.8594  0.5338 -0.3874
  5694G12c H005 5702   9.938   3.393   5.164 -1.1666 -0.3757  1.6623
  5694G12c C012 5703   9.968   3.231   5.295 -0.0490  0.8335  0.0708
  5694G12c C017 5704   9.835   3.175   5.312 -0.2760 -0.1073 -1.3989
  5694G12c O002 5705   9.747   3.226   5.407 -0.9473 -0.1236 -1.2172
  5694G12c H004 5706   9.790   3.278   5.474  2.2195 -0.4272 -2.8938
  5694G12c C018 5707   9.796   3.078   5.219 -0.9093 -0.3249  1.4544
  5694G12c O001 5708   9.854   3.043   5.082 -0.3790  0.6342 -0.6164
  5694G12c H003 5709   9.944   3.038   5.113 -0.7913 -6.6179  0.3960
  5694G12c C019 5710   9.666   3.009   5.227  1.3940  0.4111  1.9401
  5694G12c H002 5711   9.617   3.001   5.324 -1.9274 -1.1995  0.1969
  5694G12c H001 5712   9.610   3.069   5.155  4.6339 -1.4527 -2.3812
  5694G12c O000 5713   9.657   2.894   5.145  1.6591 -0.4467 -0.7767
  5694G12c C01A 5714   9.643   2.776   5.206  0.8756  0.3297 -0.7457
  5694G12c C02K 5715   9.530   2.757   5.295 -0.3963  0.3708 -0.0789
  5694G12c O00G 5716   9.413   2.835   5.306  1.3046  0.6984 -0.2551
  5694G12c C02M 5717   9.389   2.891   5.435 -0.0613 -0.8939 -0.7743
  5694G12c H01G 5718   9.296   2.940   5.405  0.6028  2.6377  2.5609
  5694G12c H01F 5719   9.380   2.822   5.519 -0.9694 -1.1683 -1.0852
  5694G12c H01E 5720   9.440   2.985   5.455  3.1733 -2.6492 -0.4933
  5694G12c C02J 5721   9.500   2.633   5.355  0.1476 -1.4539  0.1786
  5694G12c H01H 5722   9.412   2.618   5.417  1.4941 -2.4476  1.9135
  5694G12c C02I 5723   9.566   2.523   5.307 -0.2339  0.8860  0.3755
  5694G12c C02N 5724   9.517   2.389   5.350  0.4924  1.4032  2.6783
  5694G12c H01M 5725   9.442   2.329   5.301 -0.1271  2.8701  1.7937
  5694G12c C02O 5726   9.593   2.295   5.403 -0.0676 -0.1346 -0.9557
  5694G12c H01L 5727   9.538   2.204   5.421  7.2853 -4.6290  1.3004
  5694G12c C02P 5728   9.736   2.315   5.448 -0.1144 -0.3196 -1.3081
  5694G12c H01K 5729   9.786   2.246   5.380 -0.3776 -1.3053 -0.5076
  5694G12c H01J 5730   9.771   2.416   5.427  1.0616 -2.1161 -9.9385
  5694G12c O00H 5731   9.750   2.296   5.582  0.9871 -0.2161  0.0344
  5694G12c H01I 5732   9.842   2.276   5.590  1.7743  0.4822 -5.2216
  5694G12c C02H 5733   9.673   2.542   5.220 -0.2250 -0.8407  1.0273
  5694G12c H01C 5734   9.746   2.471   5.185  2.1944  1.3255  1.5325
  5694G12c C02L 5735   9.703   2.657   5.164 -1.9157 -0.8204 -0.6277
  5694G12c H01D 5736   9.765   2.659   5.075  0.0900  1.7042  0.7445
  5694G12c C013 5737  10.073   3.172   5.357  1.1504 -2.0431  1.4020
  5694G12c H000 5738  10.043   3.087   5.416  3.6375 -3.4197  0.7729
  5694G12c C014 5739  10.199   3.235   5.381 -1.0388  0.7582  1.7800
  5694G12c C00F 5740  10.276   3.191   5.479 -1.8057  0.1676  0.6071
  5694G12c C00H 5741  10.399   3.391   5.497 -0.9603  0.1964  0.3229
  5694G12c C00I 5742  10.507   3.474   5.537  0.3618 -0.2352  1.1380
  5694G12c C00J 5743  10.507   3.604   5.488 -0.0144 -2.7367 -0.7054
  5694G12c C00Z 5744  10.160   3.548   5.180  0.1756  0.8244  0.7999
  5694G12c C00Y 5745  10.083   3.608   5.080 -0.2704 -0.6085  0.6398
  5694G12c H006 5746  10.022   3.532   5.031  1.2846  0.3499 -2.9743
  5694G12c C00X 5747  10.081   3.738   5.048 -1.6067 -0.0611  1.6929
  5694G12c O003 5748   9.992   3.776   4.938 -0.2867  1.8471 -0.0209
  5694G12c C01B 5749  10.041   3.883   4.850  1.2580 -1.0079 -0.3335
  5694G12c H009 5750  10.143   3.863   4.820  0.3274  0.7793 -5.0644
  5694G12c H008 5751  10.073   3.973   4.903  4.2341 -2.0881 -0.2104
  5694G12c H007 5752   9.979   3.902   4.763 -3.5749  3.8967  3.7769
  5694G12c C00W 5753  10.175   3.819   5.126  0.4077 -0.0569  0.8365
  5694G12c O004 5754  10.140   3.956   5.116  0.5076  1.0263  0.3867
  5694G12c C01C 5755  10.204   4.046   5.209  0.2115 -0.7909  0.4361
  5694G12c H00A 5756  10.178   4.150   5.192 -2.9844 -1.1430  2.8632
  5694G12c C00P 5757  10.323   4.000   5.282  0.8703  0.2281  2.4144
  5694G12c C00O 5758  10.368   4.093   5.383 -0.6631 -1.6952  0.3389
  5694G12c C01D 5759  10.307   4.221   5.409  0.5380 -0.1379  0.1236
  5694G12c H00S 5760  10.223   4.256   5.351  2.0006  4.0304  0.3324
  5694G12c C01E 5761  10.304   4.291   5.540  1.1619 -0.6538 -0.4534
  5694G12c O008 5762  10.221   4.397   5.572 -0.0390 -1.1045 -0.5308
  5694G12c C01V 5763  10.207   4.509   5.494  0.1931  0.0477  0.0456
  5694G12c C01Z 5764  10.102   4.607   5.549  0.5327 -0.0345  0.5862
  5694G12c H00R 5765  10.080   4.655   5.454  9.6658 -2.4101 -3.3526
  5694G12c H00Q 5766  10.040   4.518   5.564 -0.4613  0.9408  2.3715
  5694G12c O009 5767  10.189   4.658   5.651  0.8914  0.0486 -0.1761
  5694G12c H00P 5768  10.187   4.597   5.723  1.5685 -1.0379 -1.0587
  5694G12c C01W 5769  10.279   4.522   5.383  0.8687 -0.4817  0.7127
  5694G12c H00O 5770  10.344   4.448   5.339  0.8646 -1.9754  3.1276
  5694G12c C01X 5771  10.294   4.665   5.322  0.2550  0.9473 -1.0643
  5694G12c H00N 5772  10.322   4.715   5.415  1.4638  1.1869 -1.5500
  5694G12c H00M 5773  10.387   4.706   5.283  1.3788 -0.9372 -0.4043
  5694G12c C01Y 5774  10.201   4.731   5.229 -0.4574 -1.1488  1.1110
  5694G12c C02D 5775  10.214   4.868   5.204  1.1987  0.3326 -1.0800
  5694G12c H019 5776  10.293   4.931   5.241  1.1241 -0.5853  0.7173
  5694G12c C02C 5777  10.103   4.940   5.148 -0.4228  2.1478 -1.2334
  5694G12c H01A 5778  10.077   5.042   5.172  3.1838  3.0364 -0.8812
  5694G12c C02B 5779   9.996   4.874   5.097 -0.2427  0.6375 -2.2681
  5694G12c O00E 5780   9.881   4.937   5.085 -0.1469  0.3187  1.1460
  5694G12c H01B 5781   9.897   5.029   5.068  1.0537  0.2499  1.8929
  5694G12c C02F 5782   9.986   4.736   5.102 -0.0196 -0.0153  0.2813
  5694G12c O00F 5783   9.889   4.658   5.047 -0.4968  0.5743 -2.4957
  5694G12c C02G 5784   9.768   4.693   5.077 -0.2764 -0.2528  0.6714
  5694G12c H017 5785   9.745   4.654   5.177  3.6155  0.4366  1.9021
  5694G12c H016 5786   9.715   4.630   5.006 -3.2606 -0.7291  3.1790
  5694G12c H015 5787   9.719   4.786   5.051  0.6711  0.1954  0.4682
  5694G12c C02E 5788  10.091   4.670   5.160  1.9788  0.7805 -2.2683
  5694G12c H018 5789  10.075   4.563   5.169  1.9519  0.8637 -1.2302
  5694G12c C01F 5790  10.407   4.236   5.629  0.1557 -1.2361 -0.1774
  5694G12c C01G 5791  10.407   4.265   5.762  0.3546 -0.1284 -1.5872
  5694G12c H00L 5792  10.337   4.314   5.828  4.9937  5.7785 -0.6487
  5694G12c C01H 5793  10.523   4.226   5.833  0.1133 -1.0712 -1.5866
  5694G12c H00B 5794  10.518   4.231   5.940 -4.9506 -0.2386 -1.7566
  5694G12c C01I 5795  10.622   4.140   5.788  1.4395 -0.7343  0.3374
  5694G12c C01U 5796  10.511   4.175   5.584 -0.2934 -0.3671  0.7756
  5694G12c C00S 5797  10.426   3.647   5.398 -0.6342 -1.6058 -1.3585
  5694G12c C00K 5798  10.578   3.714   5.529  2.0076  0.5366 -0.1527
  5694G12c C00N 5799  10.481   4.075   5.474 -0.6025 -1.1417  1.6953
  5694G12c C000 5800  10.627   4.132   5.659  0.7436 -1.6240 -0.0608
  5694G12c C01J 5801  10.618   4.002   5.832  1.4981 -1.9616 -1.8303
  5694G12c C01K 5802  10.623   3.988   5.980  0.4583  0.0152 -0.5099
  5694G12c C01P 5803  10.640   4.071   6.091 -0.1945 -2.4007  0.7643
  5694G12c C01Q 5804  10.714   4.198   6.092 -0.1267  2.6669 -1.1849
  5694G12c H00G 5805  10.740   4.226   6.193  4.3901 -0.4297 -1.3641
  5694G12c C01R 5806  10.811   4.237   6.004  0.5449 -1.5426  0.0936
  5694G12c H00F 5807  10.848   4.204   5.907  0.4400 -3.8923  0.8255
  5694G12c C01S 5808  10.901   4.356   6.044 -1.0547 -1.0871 -0.6606
  5694G12c H00E 5809  10.956   4.384   5.954 -1.3643 -3.0894 -1.4906
  5694G12c H00D 5810  10.854   4.452   6.068 -1.7177 -0.6824 -3.3804
  5694G12c O005 5811  11.030   4.322   6.117 -0.1188 -0.3882  0.6912
  5694G12c H00C 5812  11.041   4.399   6.171  4.4125 -1.5098  1.5556
  5694G12c C01O 5813  10.568   4.036   6.204 -1.4435  1.1610  0.5247
  5694G12c H00H 5814  10.553   4.110   6.282  3.6495 -2.0852  4.8990
  5694G12c C01N 5815  10.533   3.907   6.236  0.7435 -0.8925 -1.3089
  5694G12c O006 5816  10.503   3.888   6.372  0.2702  2.0603 -0.3210
  5694G12c C01T 5817  10.619   3.828   6.459  0.2167 -0.9550 -0.2874
  5694G12c H00K 5818  10.720   3.827   6.418 -0.7609 -4.4740 -2.8929
  5694G12c H00J 5819  10.572   3.739   6.499 -4.0689  1.4234  0.3067
  5694G12c H00I 5820  10.627   3.895   6.544 -4.2277  0.2517 -0.7035
  5694G12c C01M 5821  10.540   3.808   6.132  0.2185 -1.0066  0.2569
  5694G12c C020 5822  10.625   3.673   5.662  0.3488 -0.7871 -1.0455
  5694G12c C021 5823  10.629   3.541   5.717 -0.0554 -0.5524  1.0695
  5694G12c C01L 5824  10.588   3.852   6.012  1.5040  1.1256  0.8856
  5694G12c O007 5825  10.514   3.691   6.167  0.0034  0.6630 -1.5436
  5694G12c C022 5826  10.582   3.524   5.838  2.2493  0.6399  0.1538
  5694G12c C023 5827  10.574   3.426   5.643 -0.8008 -1.1226 -1.0016
  5694G12c C00G 5828  10.377   3.275   5.545  0.1385 -0.9397 -0.5641
  5694G12c C00E 5829  10.277   3.049   5.513  0.7833 -0.0191  0.0748
  5694G12c O00A 5830  10.222   2.956   5.432 -1.2268 -0.1741 -0.8008
  5694G12c C024 5831  10.285   2.935   5.300  1.7758  1.5296  0.1697
  5694G12c H00V 5832  10.391   2.913   5.297  1.8447  2.1576 -3.7970
  5694G12c H00U 5833  10.239   2.848   5.252  4.8901  1.5379 -3.0026
  5694G12c H00T 5834  10.225   2.975   5.219  6.0983  2.6265 -2.6464
  5704G12c C00D 5835  11.094   1.529   9.438  1.1531  0.4713 -0.7205
  5704G12c O00B 5836  11.196   1.531   9.516 -0.0803 -0.4169  0.7157
  5704G12c C025 5837  11.191   1.499   9.660 -0.4504  0.8046  1.0770
  5704G12c C026 5838  11.186   1.355   9.695  0.0146  0.7903  0.7100
  5704G12c H00Y 5839  11.098   1.324   9.639 -0.7064  6.2283 -1.4121
  5704G12c H00X 5840  11.150   1.328   9.794 -4.3064  5.3652  0.5880
  5704G12c O00C 5841  11.296   1.277   9.643 -1.5961  0.2020  0.6967
  5704G12c H00W 5842  11.357   1.337   9.604 -2.6567 -2.3802 -5.6040
  5704G12c C027 5843  11.232   1.592   9.740  0.1461  0.2975  2.0011
  5704G12c O00D 5844  11.257   1.718   9.680  0.7114  1.1847  0.5339
  5704G12c H00Z 5845  11.207   1.677   9.611  0.7593  0.4866  0.9089
  5704G12c C028 5846  11.298   1.567   9.862  1.7515 -0.1337  0.2094
  5704G12c C029 5847  11.357   1.452   9.909  1.6598  1.2660 -0.2866
  5704G12c H010 5848  11.389   1.370   9.847  3.0571  4.2243 -3.6333
  5704G12c C02T 5849  11.419   1.448  10.029 -1.5295  0.2603  0.0373
  5704G12c H01O 5850  11.464   1.356  10.066  2.5549  1.0278 -2.7365
  5704G12c C02S 5851  11.416   1.556  10.118 -0.1464  0.7074 -0.9969
  5704G12c O00J 5852  11.480   1.547  10.236 -1.3202  1.2591 -0.3258
  5704G12c H01P 5853  11.525   1.622  10.271 -5.7871  3.1240  1.9119
  5704G12c C02R 5854  11.351   1.677  10.083 -0.0434 -1.1246 -2.2382
  5704G12c O00I 5855  11.375   1.799  10.141 -0.9253 -0.6593 -0.3448
  5704G12c C02Q 5856  11.351   1.811  10.285 -0.1424 -0.8649 -0.3347
  5704G12c H01N 5857  11.377   1.714  10.327 -1.0067 -2.8902 -4.2385
  5704G12c H01R 5858  11.260   1.858  10.321  1.1732 -1.1746  3.5661
  5704G12c H01Q 5859  11.419   1.878  10.338  1.2530 -4.3030  2.4007
  5704G12c C02A 5860  11.292   1.678   9.955  0.2888 -0.4492  0.3606
  5704G12c H011 5861  11.263   1.778   9.928  0.4651  0.4088  3.1908
  5704G12c C00C 5862  11.059   1.403   9.389  0.7209  1.1460  1.7759
  5704G12c H012 5863  11.120   1.313   9.396  1.3721  1.2554 -1.3224
  5704G12c C00B 5864  10.928   1.370   9.341 -0.5256  1.5350 -0.1053
  5704G12c C00A 5865  10.871   1.236   9.323 -0.2629  0.8828 -1.1225
  5704G12c C009 5866  10.901   1.132   9.224  1.8161 -0.8439  1.3739
  5704G12c C008 5867  11.015   1.115   9.132  0.7561 -1.6442 -0.0457
  5704G12c H013 5868  11.104   1.174   9.147 -2.8630  3.4545  3.2233
  5704G12c C007 5869  11.026   1.016   9.029 -0.4971 -1.3407 -0.1007
  5704G12c H014 5870  11.114   1.000   8.968  1.7825  6.0265  0.7472
  5704G12c C006 5871  10.914   0.957   8.988 -0.8733  0.3300  0.5403
  5704G12c C005 5872  10.790   0.980   9.076 -1.4906  0.6837  2.3187
  5704G12c C004 5873  10.662   0.953   9.032  0.2755  1.4009 -0.2288
  5704G12c C003 5874  10.550   1.016   9.094  0.4584 -2.0855  1.1500
  5704G12c C002 5875  10.419   1.003   9.029 -0.4900  0.0421 -1.3088
  5704G12c C001 5876  10.295   1.059   9.059  1.1929 -1.9838 -0.7489
  5704G12c C00M 5877  10.270   1.208   9.067 -0.7154  0.5412  0.6268
  5704G12c C00L 5878  10.355   1.272   9.131 -1.2557 -0.6010  0.8710
  5704G12c C00R 5879  10.320   1.404   9.165  1.0946 -0.8946  0.1257
  5704G12c C00Q 5880  10.265   1.504   9.084  0.4638 -0.8783  1.4939
  5704G12c C00V 5881  10.313   1.645   9.113 -1.4752 -0.9186  0.4035
  5704G12c C00U 5882  10.427   1.674   9.178 -0.2643  0.4924 -0.6203
  5704G12c C00T 5883  10.497   1.565   9.229 -0.1030  1.3406 -0.4995
  5704G12c C016 5884  10.621   1.579   9.294  0.2754  0.2473 -0.5419
  5704G12c C015 5885  10.675   1.701   9.292  0.0137  0.6141 -0.1393
  5704G12c C010 5886  10.609   1.818   9.233  0.4059  0.4438 -1.5501
  5704G12c C011 5887  10.659   1.951   9.246  0.7786 -0.1956 -1.8298
  5704G12c H005 5888  10.627   2.053   9.230 -2.9030 -0.3448  3.2287
  5704G12c C012 5889  10.780   1.965   9.329  1.2499 -0.9901 -0.2616
  5704G12c C017 5890  10.837   2.099   9.360 -1.3816 -1.2887 -1.4360
  5704G12c O002 5891  10.877   2.130   9.502 -1.5557 -1.2832  0.0792
  5704G12c H004 5892  10.855   2.218   9.526 -3.1125 -2.7088  4.4001
  5704G12c C018 5893  10.852   2.193   9.256 -0.5310 -1.2328  0.2603
  5704G12c O001 5894  10.840   2.147   9.128  0.1171  0.6486  0.4560
  5704G12c H003 5895  10.877   2.061   9.136 -1.6677 -0.3893 -1.7965
  5704G12c C019 5896  10.855   2.348   9.258  1.1523  0.7187  0.1289
  5704G12c H002 5897  10.788   2.334   9.174 -2.0618 -4.1890  3.2895
  5704G12c H001 5898  10.778   2.396   9.319  1.8070 -2.6423  3.8507
  5704G12c O000 5899  10.951   2.433   9.194 -0.8460  0.6187 -3.0456
  5704G12c C01A 5900  11.050   2.464   9.286 -0.6792  1.2263 -0.0273
  5704G12c C02K 5901  11.021   2.557   9.400  0.0528  0.0842 -1.1826
  5704G12c O00G 5902  10.891   2.615   9.437 -0.0805  0.6313  0.6823
  5704G12c C02M 5903  10.851   2.582   9.575 -0.4057 -1.1468 -1.6840
  5704G12c H01G 5904  10.919   2.630   9.645 -2.1895 -4.6717  2.7051
  5704G12c H01F 5905  10.783   2.659   9.612  1.4713 -1.2196  2.0957
  5704G12c H01E 5906  10.835   2.474   9.571 -4.7434 -0.5705 -3.3686
  5704G12c C02J 5907  11.132   2.566   9.478 -0.1734  0.7656 -0.8865
  5704G12c H01H 5908  11.114   2.606   9.576 -4.0369  5.0204 -3.1280
  5704G12c C02I 5909  11.244   2.495   9.486 -0.1116 -0.3556 -0.2785
  5704G12c C02N 5910  11.359   2.543   9.567 -0.6561 -1.3702  1.0299
  5704G12c H01M 5911  11.351   2.514   9.671  5.7132 -2.6777  1.3712
  5704G12c C02O 5912  11.455   2.620   9.508 -1.6159  0.0129  0.2511
  5704G12c H01L 5913  11.451   2.645   9.403  0.5761  0.4020  0.2314
  5704G12c C02P 5914  11.560   2.708   9.576 -0.5129 -0.4212 -0.7047
  5704G12c H01K 5915  11.574   2.783   9.497 -4.6642 -0.6132 -1.7539
  5704G12c H01J 5916  11.659   2.664   9.577  0.9099  2.0498  7.7316
  5704G12c O00H 5917  11.550   2.772   9.697  0.4204 -0.0183  1.5820
  5704G12c H01I 5918  11.476   2.831   9.693  0.2895  0.0684  4.6552
  5704G12c C02H 5919  11.251   2.381   9.385  0.5560 -1.5687 -0.5452
  5704G12c H01C 5920  11.319   2.298   9.397 11.5546  6.3421 -0.5701
  5704G12c C02L 5921  11.162   2.393   9.288  1.1383  0.3743 -0.3827
  5704G12c H01D 5922  11.173   2.318   9.211  1.8601 -2.7164  2.6320
  5704G12c C013 5923  10.839   1.842   9.387  0.8533 -1.4291  1.0078
  5704G12c H000 5924  10.883   1.846   9.485 -1.9623 -1.9857  2.3381
  5704G12c C014 5925  10.798   1.710   9.351  0.9410 -1.3059  1.1782
  5704G12c C00F 5926  10.886   1.605   9.388 -0.2496  0.6412 -0.2168
  5704G12c C00H 5927  10.694   1.464   9.317 -0.4342 -0.2287  0.5893
  5704G12c C00I 5928  10.639   1.332   9.324  1.5778 -0.0492 -0.7111
  5704G12c C00J 5929  10.504   1.325   9.293 -0.4945 -0.0662  0.6872
  5704G12c C00Z 5930  10.482   1.801   9.183 -0.3200  0.1589 -0.5395
  5704G12c C00Y 5931  10.408   1.916   9.142  0.1115  0.8505 -0.4851
  5704G12c H006 5932  10.432   2.016   9.176  4.0728 -0.8208  2.0866
  5704G12c C00X 5933  10.299   1.897   9.063 -0.6591 -0.9094  0.8710
  5704G12c O003 5934  10.227   2.012   9.040 -0.0125  0.7027  0.4888
  5704G12c C01B 5935  10.183   2.047   8.907 -0.3840 -0.3952  1.3099
  5704G12c H009 5936  10.257   2.018   8.832 -2.4771 -5.5404  1.0335
  5704G12c H008 5937  10.094   2.000   8.865 -4.3979  7.7509 -0.3784
  5704G12c H007 5938  10.149   2.148   8.883 -2.8420 -1.1495  1.4797
  5704G12c C00W 5939  10.248   1.762   9.042 -2.1728  0.6238 -0.4341
  5704G12c O004 5940  10.138   1.746   8.962 -0.3448  1.2174 -0.8546
  5704G12c C01C 5941  10.141   1.621   8.897  0.9314  0.5078 -2.5710
  5704G12c H00A 5942  10.097   1.618   8.799 -4.1894 -1.2920 -0.3580
  5704G12c C00P 5943  10.171   1.500   8.961  0.5919 -0.8353 -1.1011
  5704G12c C00O 5944  10.154   1.372   8.889 -0.5827 -0.3752  0.5103
  5704G12c C01D 5945  10.072   1.363   8.766  0.4947 -0.7919  1.9515
  5704G12c H00S 5946  10.011   1.452   8.766  3.4323  1.3215  4.7494
  5704G12c C01E 5947  10.076   1.248   8.694  0.0648  1.3636  1.0572
  5704G12c O008 5948  10.016   1.271   8.574  0.6215 -0.3410  0.2435
  5704G12c C01V 5949  10.063   1.222   8.462  0.0500  0.4742 -1.6548
  5704G12c C01Z 5950   9.980   1.114   8.397  0.0696  1.0328  0.0540
  5704G12c H00R 5951  10.012   1.078   8.299 -7.4499  1.6704 -3.0190
  5704G12c H00Q 5952   9.956   1.047   8.479  1.1767 -2.0149 -2.0227
  5704G12c O009 5953   9.839   1.164   8.367 -1.6731 -1.5808 -1.6735
  5704G12c H00P 5954   9.817   1.199   8.452 -5.4004 -5.7821 -0.7514
  5704G12c C01W 5955  10.169   1.284   8.405 -0.3037 -0.6172  0.0753
  5704G12c H00O 5956  10.204   1.364   8.468 -0.0292  0.7488 -1.7824
  5704G12c C01X 5957  10.222   1.248   8.264  0.5671  1.1361  0.8227
  5704G12c H00N 5958  10.153   1.259   8.180 -1.4354 -1.3550  2.0579
  5704G12c H00M 5959  10.282   1.337   8.245 -4.8535  4.5004 -1.7634
  5704G12c C01Y 5960  10.295   1.118   8.249  1.6791 -1.7181  1.5203
  5704G12c C02D 5961  10.325   1.048   8.357 -0.9828  0.6396  0.1013
  5704G12c H019 5962  10.292   1.086   8.452 -5.1137 -4.7805  1.0913
  5704G12c C02C 5963  10.386   0.925   8.330  0.3106 -0.1119 -1.2154
  5704G12c H01A 5964  10.423   0.876   8.420 -3.6054  2.2781  1.8686
  5704G12c C02B 5965  10.432   0.879   8.204  0.4592 -1.2408 -1.2431
  5704G12c O00E 5966  10.548   0.819   8.207  1.4746  0.4957 -0.3539
  5704G12c H01B 5967  10.544   0.732   8.171 -0.4045  0.6308 -0.5227
  5704G12c C02F 5968  10.414   0.954   8.084 -1.2805 -0.6209  0.8221
  5704G12c O00F 5969  10.451   0.911   7.967  1.9725  0.6323 -0.7201
  5704G12c C02G 5970  10.375   0.930   7.851 -0.7871  0.5363  2.2234
  5704G12c H017 5971  10.437   0.873   7.781 -0.1894  1.9292  1.6143
  5704G12c H016 5972  10.275   0.894   7.826 -1.0173  1.1783  2.2048
  5704G12c H015 5973  10.369   1.038   7.842 -0.3288  0.5473  2.0526
  5704G12c C02E 5974  10.335   1.080   8.109  1.3722 -1.4846  0.1574
  5704G12c H018 5975  10.309   1.157   8.039 -3.1430 -3.2254 -0.2278
  5704G12c C01F 5976  10.152   1.135   8.739  0.0593  0.0269  0.6870
  5704G12c C01G 5977  10.158   1.005   8.679  0.4352  0.4722 -0.3235
  5704G12c H00L 5978  10.094   1.004   8.592 -6.3959  1.9624  4.2471
  5704G12c C01H 5979  10.240   0.903   8.727 -1.1976 -0.4118 -0.7296
  5704G12c H00B 5980  10.274   0.822   8.663  4.5678  2.8912 -2.2229
  5704G12c C01I 5981  10.273   0.921   8.866  1.4810 -0.2000 -0.2190
  5704G12c C01U 5982  10.173   1.130   8.876  0.7739 -0.4832  1.5735
  5704G12c C00S 5983  10.429   1.440   9.246 -1.1113  1.2541  0.6843
  5704G12c C00K 5984  10.456   1.225   9.202 -1.8664  0.5305 -1.8072
  5704G12c C00N 5985  10.195   1.255   8.947  0.3467  0.1860 -1.0448
  5704G12c C000 5986  10.211   1.025   8.953  0.2938 -0.0683  1.2806
  5704G12c C01J 5987  10.401   0.919   8.917  1.1248 -0.6180  0.4379
  5704G12c C01K 5988  10.507   0.840   8.856 -1.3192 -0.8350  1.0085
  5704G12c C01P 5989  10.520   0.730   8.756 -1.2900  1.5528 -0.5008
  5704G12c C01Q 5990  10.408   0.629   8.747 -0.1592  0.4307 -0.8906
  5704G12c H00G 5991  10.303   0.656   8.748 -0.5996 -1.0594  2.3285
  5704G12c C01R 5992  10.441   0.506   8.745  1.2098 -0.1454  1.4088
  5704G12c H00F 5993  10.536   0.464   8.713  0.5192  2.4323 -4.8273
  5704G12c C01S 5994  10.348   0.383   8.764 -0.8525  2.2732  0.7959
  5704G12c H00E 5995  10.318   0.357   8.866 -2.4247  3.0145  0.5449
  5704G12c H00D 5996  10.246   0.402   8.730  0.3011 -0.8347 -5.0639
  5704G12c O005 5997  10.382   0.268   8.726 -0.5987 -0.5883 -0.0890
  5704G12c H00C 5998  10.372   0.244   8.635  1.0594 -4.3775  0.6269
  5704G12c C01O 5999  10.638   0.703   8.696  0.4441 -0.6168 -0.2670
  5704G12c H00H 6000  10.625   0.644   8.606  0.7323  3.7843 -3.3198
  5704G12c C01N 6001  10.752   0.764   8.731 -0.3352  0.0426 -0.4254
  5704G12c O006 6002  10.845   0.768   8.632 -0.8115  1.0520  0.2701
  5704G12c C01T 6003  10.841   0.704   8.506  0.4025  2.0296 -0.4522
  5704G12c H00K 6004  10.757   0.700   8.436  0.3015  3.2012 -0.4093
  5704G12c H00J 6005  10.854   0.608   8.556  8.0686  4.7505  3.5899
  5704G12c H00I 6006  10.938   0.693   8.458 -1.2283  1.7370 -3.8071
  5704G12c C01M 6007  10.764   0.837   8.852 -0.8026 -0.1814  0.3202
  5704G12c C020 6008  10.559   1.119   9.186  1.0259 -0.7470 -1.9828
  5704G12c C021 6009  10.678   1.123   9.250  1.9672  2.5450  0.3442
  5704G12c C01L 6010  10.640   0.869   8.918  0.7955 -0.4953  0.6439
  5704G12c O007 6011  10.896   0.854   8.895 -0.0474  0.5372 -0.7997
  5704G12c C022 6012  10.779   1.083   9.175 -0.9174  0.5150  0.2701
  5704G12c C023 6013  10.734   1.238   9.312 -2.1874 -0.4440  0.3436
  5704G12c C00G 6014  10.830   1.482   9.365 -0.4299 -0.4351 -1.6063
  5704G12c C00E 6015  11.027   1.642   9.413  1.2890 -0.9617  1.2687
  5704G12c O00A 6016  11.073   1.772   9.386  0.2116  0.4753  0.6266
  5704G12c C024 6017  11.210   1.775   9.383  1.0163 -0.4838 -0.1127
  5704G12c H00V 6018  11.275   1.692   9.411 -3.3693 -3.9687  0.3166
  5704G12c H00U 6019  11.244   1.825   9.474 -3.2325  3.0670 -0.3175
  5704G12c H00T 6020  11.217   1.849   9.304  0.9623 -5.4574 -5.1018
  5714G12c C00D 6021   9.298   3.244  11.772  0.9888  0.3095 -0.4509
  5714G12c O00B 6022   9.174   3.291  11.747 -1.1741  0.2779  0.2164
  5714G12c C025 6023   9.160   3.405  11.698  1.2007 -0.9125  0.8895
  5714G12c C026 6024   9.072   3.508  11.780 -0.1389 -0.1455  1.1931
  5714G12c H00Y 6025   9.134   3.587  11.824  3.3819 -1.7903 -0.5622
  5714G12c H00X 6026   9.074   3.437  11.862  9.6601  3.5226  4.8816
  5714G12c O00C 6027   8.949   3.522  11.739  0.4943  0.4539  0.5802
  5714G12c H00W 6028   8.925   3.431  11.736  1.4744  0.2278 -1.2345
  5714G12c C027 6029   9.199   3.439  11.560  2.0538 -0.9631 -0.9375
  5714G12c O00D 6030   9.256   3.353  11.461  0.0131  0.3716 -1.8119
  5714G12c H00Z 6031   9.254   3.259  11.465  2.5285  0.3294 -0.3082
  5714G12c C028 6032   9.183   3.564  11.513  1.6132 -0.4718 -0.2857
  5714G12c C029 6033   9.115   3.585  11.387  1.7165 -1.0198  0.0502
  5714G12c H010 6034   9.080   3.504  11.325  1.8283  0.3164 -1.7900
  5714G12c C02T 6035   9.077   3.723  11.354 -0.2573  0.2740  0.4481
  5714G12c H01O 6036   9.035   3.761  11.262  3.8059 -2.4196 -2.6548
  5714G12c C02S 6037   9.059   3.815  11.474 -0.4282  0.5907  0.5056
  5714G12c O00J 6038   9.024   3.946  11.447 -1.3984 -0.4429  0.7987
  5714G12c H01P 6039   9.105   3.981  11.480 -1.2551  0.9718 -0.9872
  5714G12c C02R 6040   9.155   3.803  11.572 -1.1712  1.5575 -0.2237
  5714G12c O00I 6041   9.178   3.919  11.630 -0.3081 -0.8549 -0.8471
  5714G12c C02Q 6042   9.257   3.897  11.751  0.2465  1.1919 -2.2989
  5714G12c H01N 6043   9.340   3.961  11.780 -1.0072  2.2167 -0.8975
  5714G12c H01R 6044   9.177   3.916  11.822  3.0304 -0.8726  1.5565
  5714G12c H01Q 6045   9.285   3.804  11.801 -0.8372  1.0089 -2.0280
  5714G12c C02A 6046   9.230   3.682  11.581 -0.0027  1.2409  1.9060
  5714G12c H011 6047   9.317   3.667  11.644 -0.0815 -8.7019  0.4206
  5714G12c C00C 6048   9.416   3.325  11.765 -0.9144 -0.4906 -0.7163
  5714G12c H012 6049   9.405   3.432  11.750 -7.0745 -1.3904 -4.3656
  5714G12c C00B 6050   9.542   3.272  11.781  1.1136  0.1502 -1.9222
  5714G12c C00A 6051   9.672   3.347  11.782 -0.6581  0.9394 -1.4936
  5714G12c C009 6052   9.696   3.469  11.698  1.3827 -0.3455 -0.7204
  5714G12c C008 6053   9.603   3.533  11.592 -0.7414 -0.8696  1.6435
  5714G12c H013 6054   9.496   3.529  11.603 -1.5748  5.3432 -1.9882
  5714G12c C007 6055   9.666   3.590  11.474  0.1810  0.0269 -1.6132
  5714G12c H014 6056   9.635   3.631  11.379  5.5792 -2.7831 -4.8860
  5714G12c C006 6057   9.808   3.591  11.468  0.6331 -2.3013  1.5635
  5714G12c C005 6058   9.882   3.521  11.579  0.0759 -0.0365  1.6367
  5714G12c C004 6059  10.009   3.482  11.546 -0.3267  2.0825 -0.1843
  5714G12c C003 6060  10.069   3.387  11.624 -0.7152 -0.3737  1.0869
  5714G12c C002 6061  10.199   3.343  11.581 -0.8261  0.7656  1.5278
  5714G12c C001 6062  10.297   3.238  11.617 -0.1789  0.3394  0.1278
  5714G12c C00M 6063  10.253   3.101  11.640  1.2392 -0.3372 -0.3074
  5714G12c C00L 6064  10.121   3.064  11.707  0.9869 -1.1082  0.3337
  5714G12c C00R 6065  10.028   2.961  11.690  1.2401 -0.6255  0.5927
  5714G12c C00Q 6066  10.060   2.832  11.635 -0.5258 -0.6972  0.1274
  5714G12c C00V 6067   9.943   2.744  11.651 -0.3398  1.4663  2.4022
  5714G12c C00U 6068   9.831   2.783  11.736  0.0848  0.8220  0.0426
  5714G12c C00T 6069   9.820   2.896  11.807 -0.4170 -0.4603  1.1344
  5714G12c C016 6070   9.701   2.956  11.829 -1.6267  1.4096  1.5347
  5714G12c C015 6071   9.592   2.873  11.808 -1.4034  0.7991  0.3540
  5714G12c C010 6072   9.603   2.736  11.796  0.2092 -0.3177 -1.0708
  5714G12c C011 6073   9.515   2.648  11.869 -2.0910 -0.1075  0.6063
  5714G12c H005 6074   9.546   2.545  11.871 -4.0406 -0.7118  1.4689
  5714G12c C012 6075   9.389   2.702  11.919 -0.1255  1.8346  0.8787
  5714G12c C017 6076   9.330   2.603  12.008  1.0210 -0.3654  0.7457
  5714G12c O002 6077   9.298   2.632  12.148  0.2436  0.1780 -0.1275
  5714G12c H004 6078   9.359   2.581  12.198  2.4312  4.3835  1.7802
  5714G12c C018 6079   9.288   2.479  11.965  2.7528  0.5163 -0.9227
  5714G12c O001 6080   9.309   2.417  11.840  0.0023  0.4719  0.5526
  5714G12c H003 6081   9.293   2.327  11.861  5.8878 -0.9536 -0.1962
  5714G12c C019 6082   9.235   2.374  12.072 -2.8601 -0.3831  1.6779
  5714G12c H002 6083   9.216   2.427  12.165 -2.3689  4.7490 -0.9805
  5714G12c H001 6084   9.159   2.297  12.060 -0.2396 -2.2589 -6.4378
  5714G12c O000 6085   9.362   2.291  12.097 -1.5512 -1.2306  0.1770
  5714G12c C01A 6086   9.388   2.245  12.224 -0.3396  0.3999  0.7883
  5714G12c C02K 6087   9.288   2.179  12.295  0.9071  0.7785  0.8656
  5714G12c O00G 6088   9.191   2.119  12.202 -0.9443 -1.2772  0.1929
  5714G12c C02M 6089   9.209   1.984  12.169  0.2673  0.3268  0.4051
  5714G12c H01G 6090   9.166   1.917  12.244  2.2343 -4.0635 -2.1852
  5714G12c H01F 6091   9.303   1.943  12.205  3.8506  2.9240 -5.3300
  5714G12c H01E 6092   9.208   1.956  12.064  3.0085  0.2504  0.3623
  5714G12c C02J 6093   9.296   2.129  12.430 -0.7871 -1.5205 -0.6346
  5714G12c H01H 6094   9.215   2.063  12.458 -0.7367 -1.4248 -0.2529
  5714G12c C02I 6095   9.432   2.136  12.479  0.8945  0.3596 -0.1835
  5714G12c C02N 6096   9.485   2.035  12.572 -0.6272 -0.2702  0.4303
  5714G12c H01M 6097   9.485   2.056  12.678 -1.3622  4.2265 -0.3685
  5714G12c C02O 6098   9.558   1.938  12.509 -0.5355 -1.0231  1.0288
  5714G12c H01L 6099   9.576   1.940  12.402 -3.7702 -1.5470  0.4130
  5714G12c C02P 6100   9.633   1.822  12.578 -0.7759  1.2054 -0.8976
  5714G12c H01K 6101   9.554   1.777  12.638 -0.2235 -2.4551 -2.7799
  5714G12c H01J 6102   9.661   1.748  12.502  0.5959 -0.9970  1.6707
  5714G12c O00H 6103   9.743   1.856  12.644 -1.0987 -0.2836  2.9081
  5714G12c H01I 6104   9.811   1.796  12.673 -0.7761 -4.5057 -5.1111
  5714G12c C02H 6105   9.526   2.217  12.420 -0.4499 -0.1953 -0.6461
  5714G12c H01C 6106   9.628   2.224  12.454 -0.5046 -0.4495 -0.4220
  5714G12c C02L 6107   9.505   2.269  12.279 -0.1337 -0.9851 -0.5604
  5714G12c H01D 6108   9.573   2.350  12.255 -0.9483 -0.4581 -1.0995
  5714G12c C013 6109   9.365   2.836  11.906 -0.2612 -0.1682 -0.9163
  5714G12c H000 6110   9.284   2.882  11.961  3.2937  0.9900  3.7137
  5714G12c C014 6111   9.468   2.924  11.853  0.7653 -0.2048 -0.1598
  5714G12c C00F 6112   9.453   3.059  11.838 -1.0595  2.0071  0.1245
  5714G12c C00H 6113   9.691   3.093  11.855 -0.5953 -0.3194  0.3530
  5714G12c C00I 6114   9.813   3.167  11.840  0.6490  0.4867  0.3132
  5714G12c C00J 6115   9.935   3.098  11.827  1.8247 -0.0502  1.3834
  5714G12c C00Z 6116   9.723   2.692  11.740  0.9415  0.1391  1.1837
  5714G12c C00Y 6117   9.743   2.557  11.692 -0.7485 -1.0151 -1.0645
  5714G12c H006 6118   9.652   2.503  11.714 -2.1208  2.4091  2.1899
  5714G12c C00X 6119   9.847   2.516  11.614  0.4117 -0.1732  1.2629
  5714G12c O003 6120   9.851   2.397  11.557 -1.2968  0.1606  0.2662
  5714G12c C01B 6121   9.738   2.332  11.551  1.0353  0.2781 -0.4572
  5714G12c H009 6122   9.695   2.318  11.650 -0.9076 -2.5354 -1.6640
  5714G12c H008 6123   9.758   2.247  11.486 -1.9407 -4.0170  3.9610
  5714G12c H007 6124   9.683   2.404  11.490 -0.8263 -2.7453 -2.4746
  5714G12c C00W 6125   9.960   2.609  11.596 -1.1526 -1.6354  0.1302
  5714G12c O004 6126  10.054   2.568  11.517 -0.0203 -1.3017  0.5819
  5714G12c C01C 6127  10.155   2.654  11.491  0.6592 -0.8462 -0.6204
  5714G12c H00A 6128  10.213   2.613  11.410 -1.6259  2.7332 -4.2768
  5714G12c C00P 6129  10.152   2.796  11.532  1.0560 -0.3699 -1.1520
  5714G12c C00O 6130  10.259   2.883  11.488 -0.1680 -1.4845  1.2328
  5714G12c C01D 6131  10.332   2.842  11.365  1.4217  0.6815  0.3421
  5714G12c H00S 6132  10.322   2.746  11.316 -2.0765  2.3502 -2.4847
  5714G12c C01E 6133  10.388   2.931  11.272  0.3549 -0.9748 -0.1555
  5714G12c O008 6134  10.440   2.869  11.165  1.2860 -0.6392  0.0634
  5714G12c C01V 6135  10.527   2.768  11.179 -1.3230 -0.0008 -0.6940
  5714G12c C01Z 6136  10.605   2.773  11.312  0.3028  0.5906  0.6780
  5714G12c H00R 6137  10.693   2.721  11.275  0.8402  2.0620 -0.1263
  5714G12c H00Q 6138  10.618   2.878  11.338  2.3906  0.5022  0.0587
  5714G12c O009 6139  10.576   2.722  11.442 -0.7615  0.6193  0.2715
  5714G12c H00P 6140  10.660   2.722  11.485 -0.4042 -0.4450 -0.4208
  5714G12c C01W 6141  10.569   2.706  11.061  1.6286 -0.9470 -0.9750
  5714G12c H00O 6142  10.652   2.638  11.076 -2.0675 -4.5557  4.8194
  5714G12c C01X 6143  10.508   2.686  10.932 -1.0254  0.4395 -0.5638
  5714G12c H00N 6144  10.453   2.592  10.930 -2.9355  1.5680 -1.7918
  5714G12c H00M 6145  10.430   2.760  10.945 -2.7788 -1.4979  0.2634
  5714G12c C01Y 6146  10.568   2.737  10.810  0.5307 -1.4497  0.1090
  5714G12c C02D 6147  10.520   2.852  10.746  1.6620  2.4725  1.6185
  5714G12c H019 6148  10.442   2.914  10.785 -3.3096 -1.1449 -1.9180
  5714G12c C02C 6149  10.521   2.876  10.605 -1.4077 -0.6330  0.9396
  5714G12c H01A 6150  10.454   2.951  10.567 -2.0422 -1.6303  0.0647
  5714G12c C02B 6151  10.572   2.764  10.535  1.3902 -1.1078 -0.1404
  5714G12c O00E 6152  10.555   2.742  10.401  0.0384  2.0708  0.4346
  5714G12c H01B 6153  10.581   2.656  10.372  0.4870  1.3986  2.6733
  5714G12c C02F 6154  10.623   2.643  10.592  0.2429 -0.3058  1.1386
  5714G12c O00F 6155  10.670   2.543  10.519 -1.8335  0.3244 -0.5538
  5714G12c C02G 6156  10.824   2.574  10.512  2.0901 -2.9842  1.1290
  5714G12c H017 6157  10.817   2.683  10.514 -6.2963 -3.1752  5.8451
  5714G12c H016 6158  10.874   2.560  10.607 -2.8171  1.8567  4.7561
  5714G12c H015 6159  10.882   2.532  10.430  0.1273  2.0474 -3.2108
  5714G12c C02E 6160  10.630   2.631  10.735 -1.0144 -0.9688 -0.9482
  5714G12c H018 6161  10.677   2.546  10.781 -1.6260  3.0921  8.3342
  5714G12c C01F 6162  10.392   3.064  11.315  1.2527 -0.6647  0.2772
  5714G12c C01G 6163  10.417   3.176  11.230  0.1244 -0.9907 -0.9372
  5714G12c H00L 6164  10.434   3.172  11.124  1.4876 -0.3374 -0.7548
  5714G12c C01H 6165  10.388   3.315  11.277  0.9612 -1.0531  0.3220
  5714G12c H00B 6166  10.355   3.384  11.201  1.2708 -1.1444  0.1035
  5714G12c C01I 6167  10.373   3.342  11.422 -0.1902 -0.8390 -0.9362
  5714G12c C01U 6168  10.361   3.104  11.450  1.0576 -0.4744  0.5890
  5714G12c C00S 6169   9.921   2.980  11.769  0.2333  0.1216  0.1499
  5714G12c C00K 6170  10.049   3.170  11.778 -1.5806 -0.8629  1.2038
  5714G12c C00N 6171  10.286   3.018  11.523  0.1359  1.6132  0.3995
  5714G12c C000 6172  10.390   3.227  11.508  0.7759 -0.2975 -0.4180
  5714G12c C01J 6173  10.249   3.409  11.469  0.3401 -1.6917  1.1556
  5714G12c C01K 6174  10.213   3.531  11.406 -1.5710 -0.0055 -1.4451
  5714G12c C01P 6175  10.298   3.623  11.339  0.0245  0.2529 -0.0542
  5714G12c C01Q 6176  10.438   3.613  11.334 -0.8251  1.0801  0.2143
  5714G12c H00G 6177  10.490   3.583  11.244 -1.5038  1.5067 -0.3225
  5714G12c C01R 6178  10.485   3.631  11.449 -1.5651  0.9591 -1.4603
  5714G12c H00F 6179  10.422   3.647  11.535  2.4930 -1.2009  2.0893
  5714G12c C01S 6180  10.638   3.592  11.494  0.6776  0.9365  1.3297
  5714G12c H00E 6181  10.620   3.499  11.547 -2.4274 -4.4840 -8.1194
  5714G12c H00D 6182  10.725   3.572  11.432  1.0118  1.2138  1.7024
  5714G12c O005 6183  10.692   3.701  11.580  0.2107  1.6890 -1.4187
  5714G12c H00C 6184  10.729   3.661  11.657  2.9464  1.0770 -2.9609
  5714G12c C01O 6185  10.224   3.729  11.309 -0.8111  0.6000  0.4614
  5714G12c H00H 6186  10.265   3.817  11.261 -1.7277  0.0495 -1.3483
  5714G12c C01N 6187  10.088   3.753  11.316  0.2388  0.9630 -0.0266
  5714G12c O006 6188  10.055   3.867  11.270  1.1448 -0.3414 -0.2697
  5714G12c C01T 6189   9.948   3.925  11.347 -1.2903 -0.2006 -0.8708
  5714G12c H00K 6190   9.952   3.921  11.456  9.3444  3.6760 -0.5754
  5714G12c H00J 6191   9.852   3.904  11.300 -0.2650 -5.7007 -0.8177
  5714G12c H00I 6192   9.936   4.030  11.321 -2.6356 -1.0071 -3.7635
  5714G12c C01M 6193  10.014   3.657  11.370 -0.3701  0.4104 -1.5481
  5714G12c C020 6194  10.014   3.309  11.737  0.4792  0.1513  0.6315
  5714G12c C021 6195   9.901   3.389  11.789  0.2955 -0.1724 -0.1407
  5714G12c C01L 6196  10.082   3.552  11.447 -0.6368 -0.2071 -1.5639
  5714G12c O007 6197   9.879   3.637  11.360 -0.7523 -0.1163  0.1131
  5714G12c C022 6198   9.832   3.479  11.699  1.5206  1.0476  1.0325
  5714G12c C023 6199   9.792   3.312  11.840  1.4315  0.2605  1.0043
  5714G12c C00G 6200   9.562   3.144  11.837  0.0740  0.1727 -0.1504
  5714G12c C00E 6201   9.317   3.105  11.825 -0.8416 -0.5428  1.2369
  5714G12c O00A 6202   9.211   3.027  11.795 -0.3553  0.2304  0.3654
  5714G12c C024 6203   9.233   2.984  11.649 -0.5575  0.2977 -0.2506
  5714G12c H00V 6204   9.326   2.942  11.612 -2.0601 -4.8242  1.3084
  5714G12c H00U 6205   9.178   3.027  11.565 -1.6269 -1.6177 -0.5459
  5714G12c H00T 6206   9.198   2.882  11.660  3.0125 -1.2501 -2.4385
  5724G12c C00D 6207  12.473   8.244   0.048 -1.2085 -0.9094 -1.3728
  5724G12c O00B 6208  12.559   8.142   0.105 -1.3126 -1.1319  0.9308
  5724G12c C025 6209  12.580   8.031   0.030  0.0143 -1.4072 -0.1473
  5724G12c C026 6210  12.666   8.036  -0.075 -1.0297  0.0532 -0.7251
  5724G12c H00Y 6211  12.760   8.044  -0.021 -0.4124 -4.4465 -0.9043
  5724G12c H00X 6212  12.661   8.098  -0.164  4.2173 -1.7857 -2.4973
  5724G12c O00C 6213  12.693   7.941  -0.174 -0.7635 -0.4694  0.6197
  5724G12c H00W 6214  12.759   7.973  -0.234 -1.5233 -6.7892 -4.1346
  5724G12c C027 6215  12.530   7.916   0.066 -0.0369  1.5267 -0.8717
  5724G12c O00D 6216  12.448   7.883   0.181  1.0629 -0.5166  1.2767
  5724G12c H00Z 6217  12.473   7.917   0.265  7.4694  0.0037 -0.5534
  5724G12c C028 6218  12.528   7.796  -0.021  0.1572  0.3761  1.6030
  5724G12c C029 6219  12.404   7.764  -0.086 -0.9233  0.9260 -0.3069
  5724G12c H010 6220  12.323   7.826  -0.050  0.8528  2.4095  1.3120
  5724G12c C02T 6221  12.402   7.653  -0.172 -0.4205 -0.1626  0.2652
  5724G12c H01O 6222  12.324   7.652  -0.248  0.1603  4.0519 -0.4717
  5724G12c C02S 6223  12.516   7.560  -0.176  0.9397 -0.2669 -0.5513
  5724G12c O00J 6224  12.499   7.451  -0.244 -0.3913 -0.6932  0.1211
  5724G12c H01P 6225  12.582   7.426  -0.280 -1.6133 -0.4256 -3.0127
  5724G12c C02R 6226  12.629   7.591  -0.113  1.3281 -1.4555  1.8176
  5724G12c O00I 6227  12.719   7.499  -0.083 -1.1377 -0.7679  0.7267
  5724G12c C02Q 6228  12.848   7.529  -0.143  0.6153  1.1480  0.5794
  5724G12c H01N 6229  12.937   7.477  -0.108 -1.5802 -2.8508  0.4601
  5724G12c H01R 6230  12.879   7.622  -0.094 -2.0909  3.8528 -2.6012
  5724G12c H01Q 6231  12.842   7.574  -0.242 -6.0779 -1.5486 -0.4528
  5724G12c C02A 6232  12.634   7.696  -0.035 -0.0080  0.8555 -0.2752
  5724G12c H011 6233  12.717   7.721   0.030 -2.1922 -4.0124  4.8002
  5724G12c C00C 6234  12.364   8.197  -0.022  0.0105  1.3576  1.5787
  5724G12c H012 6235  12.352   8.090  -0.030  0.0334  1.2901  2.4958
  5724G12c C00B 6236  12.289   8.275  -0.113  0.1382 -1.8868  0.6697
  5724G12c C00A 6237  12.201   8.225  -0.216  0.2730  0.0075 -1.9416
  5724G12c C009 6238  12.227   8.143  -0.325 -1.4084 -1.7494 -1.4493
  5724G12c C008 6239  12.306   8.030  -0.349 -1.0695 -1.3587 -0.0538
  5724G12c H013 6240  12.334   7.973  -0.262  4.2012  3.4113  1.7429
  5724G12c C007 6241  12.325   7.987  -0.490  0.7413 -0.7817  0.7400
  5724G12c H014 6242  12.372   7.893  -0.515 -0.5128 -1.5248  1.0949
  5724G12c C006 6243  12.262   8.063  -0.599 -2.0083  1.1042 -0.5306
  5724G12c C005 6244  12.179   8.159  -0.562  0.7771 -1.3571  1.0818
  5724G12c C004 6245  12.130   8.250  -0.660 -0.6660  0.0024  0.5845
  5724G12c C003 6246  12.030   8.353  -0.630  0.4268 -1.6417 -2.3116
  5724G12c C002 6247  11.986   8.447  -0.729 -0.1532  0.5253  0.0775
  5724G12c C001 6248  11.881   8.549  -0.727  2.0118  0.2473  1.2563
  5724G12c C00M 6249  11.924   8.663  -0.640  1.8046  1.3991  0.5890
  5724G12c C00L 6250  11.950   8.655  -0.514  0.5018 -0.0664 -0.5590
  5724G12c C00R 6251  12.001   8.752  -0.423  1.5749  0.7532  0.3987
  5724G12c C00Q 6252  12.016   8.900  -0.445  0.0921  0.8585 -1.3742
  5724G12c C00V 6253  12.101   8.946  -0.337 -1.2415 -0.4743  0.3144
  5724G12c C00U 6254  12.179   8.858  -0.248 -2.5153  1.2431  0.4085
  5724G12c C00T 6255  12.138   8.734  -0.224  0.7145 -0.1903  1.3917
  5724G12c C016 6256  12.218   8.642  -0.151 -0.1022 -0.2875 -1.4729
  5724G12c C015 6257  12.334   8.690  -0.090  0.5146 -0.3142  1.6353
  5724G12c C010 6258  12.363   8.827  -0.084 -1.4585 -0.7145  0.8600
  5724G12c C011 6259  12.473   8.870  -0.012 -0.1757  0.1573 -0.3067
  5724G12c H005 6260  12.513   8.969  -0.029  1.2119 -0.9252 -3.7377
  5724G12c C012 6261  12.558   8.791   0.070 -0.1493 -0.8306 -1.7126
  5724G12c C017 6262  12.674   8.854   0.137 -0.7386 -0.9448 -0.2346
  5724G12c O002 6263  12.659   8.978   0.139 -0.7172  0.2581  1.3623
  5724G12c H004 6264  12.692   8.995   0.226 -1.7683  6.6643  0.7909
  5724G12c C018 6265  12.772   8.795   0.189 -1.1179  0.6190 -0.0595
  5724G12c O001 6266  12.808   8.667   0.196  0.8460 -0.5070 -1.4818
  5724G12c H003 6267  12.733   8.638   0.147  1.3379  0.4766 -2.8393
  5724G12c C019 6268  12.895   8.869   0.236  0.8420  1.2538  1.5500
  5724G12c H002 6269  12.921   8.832   0.335  1.0092  0.8176  1.3414
  5724G12c H001 6270  12.989   8.830   0.199 -0.5733  1.9942 -3.0882
  5724G12c O000 6271  12.905   8.997   0.226  0.2897  0.5305 -1.0089
  5724G12c C01A 6272  13.006   9.079   0.202  0.6601  0.0882  0.4461
  5724G12c C02K 6273  12.990   9.214   0.222 -0.7132  1.7117 -0.6137
  5724G12c O00G 6274  12.859   9.243   0.233 -0.1523  1.0693 -0.1287
  5724G12c C02M 6275  12.812   9.367   0.284  0.1406  1.4238  0.3753
  5724G12c H01G 6276  12.903   9.394   0.336  1.7674 -2.2929 -0.4090
  5724G12c H01F 6277  12.725   9.358   0.349 -3.2213  4.8804 -3.3495
  5724G12c H01E 6278  12.773   9.430   0.204 -6.5577  0.6803  2.6777
  5724G12c C02J 6279  13.097   9.293   0.202 -0.7635  0.5547  0.6043
  5724G12c H01H 6280  13.085   9.385   0.257 -4.0397 -2.6523  5.6392
  5724G12c C02I 6281  13.222   9.245   0.150 -2.8750  0.8715  0.2393
  5724G12c C02N 6282  13.326   9.337   0.139  0.9360 -0.9733 -0.5749
  5724G12c H01M 6283  13.374   9.389   0.222  1.6862 -1.0972 -0.9247
  5724G12c C02O 6284  13.380   9.373   0.015 -0.4962 -0.1338 -1.3899
  5724G12c H01L 6285  13.355   9.327  -0.080  1.2524  3.7029 -3.8342
  5724G12c C02P 6286  13.498   9.481   0.015 -1.7688 -0.1663  0.5146
  5724G12c H01K 6287  13.601   9.467   0.047 -3.6426 -3.5373  5.8257
  5724G12c H01J 6288  13.533   9.485  -0.088 -1.9589 -1.8013  0.3685
  5724G12c O00H 6289  13.490   9.614  -0.006  0.0884  0.3026 -1.2746
  5724G12c H01I 6290  13.398   9.624   0.012  0.0753 -0.1031 -1.1145
  5724G12c C02H 6291  13.234   9.109   0.118  2.1503  0.7651  1.1469
  5724G12c H01C 6292  13.321   9.057   0.082  1.1768 -2.9645  3.8143
  5724G12c C02L 6293  13.129   9.027   0.159  0.1745 -1.6635  1.5852
  5724G12c H01D 6294  13.149   8.925   0.130 -5.5210 -1.1727 -5.6054
  5724G12c C013 6295  12.495   8.661   0.083 -0.6534 -0.2425 -0.5394
  5724G12c H000 6296  12.543   8.599   0.157  0.9032  3.6951  1.8917
  5724G12c C014 6297  12.397   8.610  -0.009  0.5662  2.4383  0.4166
  5724G12c C00F 6298  12.394   8.465  -0.032  1.5372  2.0615  0.8733
  5724G12c C00H 6299  12.205   8.492  -0.169 -0.4943  0.3948  0.3799
  5724G12c C00I 6300  12.097   8.451  -0.247  0.5481 -1.6739 -0.6627
  5724G12c C00J 6301  12.027   8.545  -0.332  1.0783 -1.4173 -1.7279
  5724G12c C00Z 6302  12.273   8.913  -0.157 -1.1459  0.8818  0.5078
  5724G12c C00Y 6303  12.271   9.056  -0.148 -1.1440  0.5751 -1.3054
  5724G12c H006 6304  12.322   9.121  -0.077 -1.5982 -3.2108  2.7159
  5724G12c C00X 6305  12.195   9.143  -0.218  2.5679 -0.2678  1.4317
  5724G12c O003 6306  12.234   9.278  -0.224 -0.7855  0.9993  0.6579
  5724G12c C01B 6307  12.189   9.351  -0.119 -0.6905 -0.1919  0.2268
  5724G12c H009 6308  12.192   9.293  -0.027  3.6107  2.9123  2.1683
  5724G12c H008 6309  12.088   9.391  -0.127  0.5316  3.3190  1.6617
  5724G12c H007 6310  12.260   9.433  -0.114 -0.8694 -0.1133  1.4698
  5724G12c C00W 6311  12.112   9.094  -0.327 -2.4722  0.7607 -0.0351
  5724G12c O004 6312  12.095   9.182  -0.429 -0.3329 -1.0707  2.3296
  5724G12c C01C 6313  12.036   9.126  -0.535  1.0944  0.8805  1.0049
  5724G12c H00A 6314  12.012   9.189  -0.619 -1.0973 -4.9980 -3.1204
  5724G12c C00P 6315  12.016   8.982  -0.557  0.1974  0.4513  0.1606
  5724G12c C00O 6316  12.018   8.906  -0.682 -0.8837 -0.8925  1.3275
  5724G12c C01D 6317  12.079   8.967  -0.802  0.5535  0.0760 -0.1273
  5724G12c H00S 6318  12.134   9.056  -0.776  2.0664  0.0056 -2.9515
  5724G12c C01E 6319  12.125   8.910  -0.921  1.1091 -0.4991 -0.2186
  5724G12c O008 6320  12.211   8.987  -1.009 -1.3378 -0.3775 -0.3317
  5724G12c C01V 6321  12.281   9.100  -0.979 -0.3169 -0.1804  0.6379
  5724G12c C01Z 6322  12.221   9.234  -1.053  0.6955 -1.7631 -1.2530
  5724G12c H00R 6323  12.204   9.226  -1.160 -3.5455  3.2829 -1.1472
  5724G12c H00Q 6324  12.127   9.279  -1.022 -0.6857 -1.8640 -5.0640
  5724G12c O009 6325  12.299   9.343  -1.076 -0.3140 -1.5765  1.5356
  5724G12c H00P 6326  12.269   9.412  -1.132  2.9585 -1.6869 -0.5174
  5724G12c C01W 6327  12.392   9.095  -0.911 -1.6368  0.7923  0.4396
  5724G12c H00O 6328  12.461   9.170  -0.873  0.6242 -1.4646  0.9013
  5724G12c C01X 6329  12.461   8.973  -0.847 -0.9776  0.1546  1.2823
  5724G12c H00N 6330  12.440   8.874  -0.887 -1.1281  1.2780 -1.4840
  5724G12c H00M 6331  12.565   8.987  -0.877 -1.9087  5.9920  0.1374
  5724G12c C01Y 6332  12.469   8.893  -0.714  0.4981 -0.6141 -0.1071
  5724G12c C02D 6333  12.370   8.921  -0.627 -1.0008  1.9304  0.6884
  5724G12c H019 6334  12.293   8.997  -0.637  0.6356  3.3143 -2.3389
  5724G12c C02C 6335  12.373   8.849  -0.510 -0.2407 -0.5678  0.4965
  5724G12c H01A 6336  12.284   8.837  -0.450 -0.0299 -3.1793  0.3337
  5724G12c C02B 6337  12.450   8.738  -0.499 -0.9597 -0.7100 -0.7886
  5724G12c O00E 6338  12.472   8.659  -0.385 -0.6678 -1.1807 -0.3782
  5724G12c H01B 6339  12.400   8.665  -0.324 -0.6655 -1.7122 -0.3161
  5724G12c C02F 6340  12.548   8.715  -0.601 -2.2209  0.5736  0.3278
  5724G12c O00F 6341  12.597   8.569  -0.622 -1.5515  1.5870  0.3920
  5724G12c C02G 6342  12.744   8.564  -0.635  0.5589  1.1807 -0.5120
  5724G12c H017 6343  12.791   8.660  -0.615  1.6100  2.0006 -5.9755
  5724G12c H016 6344  12.782   8.537  -0.537 -2.1766  3.8080  1.3505
  5724G12c H015 6345  12.765   8.472  -0.691  2.6624 -1.7397  4.6956
  5724G12c C02E 6346  12.579   8.814  -0.699 -1.9971 -0.5226  0.3554
  5724G12c H018 6347  12.637   8.804  -0.790  4.7869  6.9732  3.2793
  5724G12c C01F 6348  12.064   8.783  -0.953 -1.5945  0.0654  0.4796
  5724G12c C01G 6349  12.089   8.705  -1.060 -1.0093  1.9562  0.0810
  5724G12c H00L 6350  12.160   8.725  -1.139 -4.2701 -3.7701 -4.7591
  5724G12c C01H 6351  12.052   8.568  -1.047 -0.5622  0.7620  1.9620
  5724G12c H00B 6352  12.123   8.510  -1.104 -1.4920  0.0469  1.5155
  5724G12c C01I 6353  11.978   8.508  -0.944 -2.0721 -0.5802 -1.1091
  5724G12c C01U 6354  11.961   8.731  -0.859 -0.8235 -0.2924  0.8533
  5724G12c C00S 6355  12.055   8.683  -0.322  0.4994  0.2766  1.3320
  5724G12c C00K 6356  11.960   8.522  -0.457  1.3065 -0.3653  1.1834
  5724G12c C00N 6357  11.952   8.781  -0.722 -1.6575  0.1066 -0.2880
  5724G12c C000 6358  11.915   8.598  -0.868 -1.3782 -1.7653  0.6147
  5724G12c C01J 6359  12.028   8.411  -0.862 -0.5655 -1.9259 -1.6385
  5724G12c C01K 6360  12.117   8.300  -0.894 -0.5595 -0.7396  1.2096
  5724G12c C01P 6361  12.157   8.251  -1.023  0.5827 -1.5904 -0.2054
  5724G12c C01Q 6362  12.076   8.236  -1.138 -0.5081 -1.3436 -0.7277
  5724G12c H00G 6363  12.135   8.202  -1.223  4.9371  4.5595  0.3380
  5724G12c C01R 6364  11.937   8.275  -1.134  0.5260  0.8850  0.0147
  5724G12c H00F 6365  11.870   8.324  -1.064 -1.4912  2.5662 -2.9761
  5724G12c C01S 6366  11.839   8.210  -1.216  0.1592  0.6605  0.3068
  5724G12c H00E 6367  11.755   8.280  -1.212  1.6368  2.4016  2.3994
  5724G12c H00D 6368  11.869   8.227  -1.319 -0.1157  0.8506  0.2576
  5724G12c O005 6369  11.824   8.076  -1.172  0.2783  1.8376  1.0250
  5724G12c H00C 6370  11.899   8.024  -1.196  1.7872 -1.0947 10.4149
  5724G12c C01O 6371  12.288   8.201  -1.037  1.6550 -0.3980  1.1307
  5724G12c H00H 6372  12.320   8.173  -1.136  2.1027  1.5992  0.6797
  5724G12c C01N 6373  12.356   8.146  -0.925  0.9731  0.2956  1.6182
  5724G12c O006 6374  12.436   8.036  -0.934 -0.5583 -0.5053  0.3796
  5724G12c C01T 6375  12.398   7.934  -1.014  0.1737  0.6156 -0.3538
  5724G12c H00K 6376  12.405   7.831  -0.977 -3.3372 -1.0499 -3.9436
  5724G12c H00J 6377  12.461   7.934  -1.103  3.8335  2.9807  2.0896
  5724G12c H00I 6378  12.296   7.947  -1.051 -3.6714  4.9035  9.7640
  5724G12c C01M 6379  12.295   8.176  -0.809 -0.5588  0.4535 -0.5447
  5724G12c C020 6380  11.982   8.384  -0.493 -1.0886  0.5555 -0.8303
  5724G12c C021 6381  12.064   8.298  -0.403  1.5809 -1.1408  0.1866
  5724G12c C01L 6382  12.184   8.257  -0.777  1.3243  1.4144  0.3840
  5724G12c O007 6383  12.325   8.066  -0.730 -0.6087  0.5097  0.1194
  5724G12c C022 6384  12.152   8.197  -0.429 -2.1450  2.1106  0.1831
  5724G12c C023 6385  12.097   8.315  -0.269  0.2377  0.0042  1.8169
  5724G12c C00G 6386  12.281   8.411  -0.102 -0.9108  0.4414 -2.7877
  5724G12c C00E 6387  12.499   8.385   0.013 -1.8371 -0.3141 -0.7424
  5724G12c O00A 6388  12.618   8.429   0.073 -0.9941 -0.6090  0.2635
  5724G12c C024 6389  12.693   8.467  -0.036 -0.0633 -0.6661  0.8517
  5724G12c H00V 6390  12.781   8.426   0.013  0.9198  2.4057  1.7576
  5724G12c H00U 6391  12.672   8.568  -0.073 -2.7907  1.1022  6.6695
  5724G12c H00T 6392  12.701   8.391  -0.113  3.0519  0.7066 -0.2673
  5734G12c C00D 6393  10.185   5.824  13.067 -0.1068  0.6080  0.3476
  5734G12c O00B 6394  10.072   5.883  13.098 -0.3813  1.8208  0.7804
  5734G12c C025 6395  10.016   6.008  13.075 -0.2234  1.5629  0.5741
  5734G12c C026 6396  10.060   6.117  13.178  0.5097  0.7989 -0.1693
  5734G12c H00Y 6397  10.059   6.199  13.106 -6.3234  1.6179  0.5339
  5734G12c H00X 6398  10.162   6.099  13.213 -1.3931 -8.6900  1.6913
  5734G12c O00C 6399   9.980   6.135  13.290 -0.1938 -0.0431  1.4531
  5734G12c H00W 6400  10.009   6.193  13.359  0.5271 -4.4570  5.0770
  5734G12c C027 6401   9.942   6.037  12.958 -0.2949 -0.3070 -0.1482
  5734G12c O00D 6402   9.896   5.943  12.881 -0.4843 -0.2246  0.6274
  5734G12c H00Z 6403   9.947   5.868  12.908  0.1395  0.3588  1.1096
  5734G12c C028 6404   9.914   6.178  12.914  0.3920 -0.7537 -0.4452
  5734G12c C029 6405   9.895   6.300  12.973  0.1392 -2.0847 -0.8485
  5734G12c H010 6406   9.881   6.303  13.080  4.1012 -0.7152 -0.2775
  5734G12c C02T 6407   9.877   6.428  12.905  0.7465 -0.3807  0.9427
  5734G12c H01O 6408   9.826   6.486  12.981  1.7001 -2.7161  3.4511
  5734G12c C02S 6409   9.900   6.426  12.764  0.2566 -0.0290 -0.0340
  5734G12c O00J 6410   9.872   6.544  12.725  0.1035  0.6350 -0.1464
  5734G12c H01P 6411   9.786   6.541  12.686  1.3644  2.4416 -3.2201
  5734G12c C02R 6412   9.892   6.311  12.693 -0.2167  0.8873 -1.5290
  5734G12c O00I 6413   9.906   6.337  12.560  1.3385 -0.3029 -1.0425
  5734G12c C02Q 6414   9.846   6.237  12.462 -1.3077 -1.9802  0.4641
  5734G12c H01N 6415   9.921   6.182  12.405  3.9635  2.5520  2.6299
  5734G12c H01R 6416   9.820   6.304  12.380 -4.2673 -0.7929  2.3041
  5734G12c H01Q 6417   9.751   6.186  12.481 -3.6955  2.8325  2.3136
  5734G12c C02A 6418   9.886   6.191  12.768  1.0423 -1.1987  0.4453
  5734G12c H011 6419   9.911   6.093  12.730 -1.6107 -3.9304  5.3529
  5734G12c C00C 6420  10.301   5.888  13.032 -0.5965 -1.1108  1.6832
  5734G12c H012 6421  10.310   5.995  13.018  2.9853 -1.4987  0.4828
  5734G12c C00B 6422  10.417   5.813  13.042  0.8464 -1.1094  0.1000
  5734G12c C00A 6423  10.553   5.866  12.999 -0.1943  0.6400  0.1475
  5734G12c C009 6424  10.546   5.923  12.870  1.3433 -2.0548 -0.2692
  5734G12c C008 6425  10.456   6.006  12.798  0.1538 -0.1292 -0.2248
  5734G12c H013 6426  10.374   6.045  12.856  3.4078  5.8396  0.8633
  5734G12c C007 6427  10.499   6.046  12.671  0.3722  1.0279  1.2186
  5734G12c H014 6428  10.440   6.116  12.615 -1.2650 -1.7896 -0.6993
  5734G12c C006 6429  10.591   5.965  12.597  0.0789 -0.2319 -0.9785
  5734G12c C005 6430  10.684   5.887  12.680  1.7444  2.1196 -0.3296
  5734G12c C004 6431  10.780   5.821  12.619  0.3746  0.6629 -0.3409
  5734G12c C003 6432  10.849   5.725  12.700  0.8591 -0.6098  1.0036
  5734G12c C002 6433  10.936   5.642  12.632 -1.2573 -1.6606  0.4322
  5734G12c C001 6434  11.007   5.516  12.653  2.0014 -0.3977 -0.2349
  5734G12c C00M 6435  10.980   5.403  12.734  1.7870 -0.9338 -2.5710
  5734G12c C00L 6436  10.889   5.430  12.843  0.4944 -1.8226  0.2500
  5734G12c C00R 6437  10.804   5.333  12.894  0.0275  1.8137 -0.6192
  5734G12c C00Q 6438  10.777   5.192  12.865  0.0719 -1.0045 -1.0345
  5734G12c C00V 6439  10.667   5.143  12.927  0.4571  1.1865 -1.6253
  5734G12c C00U 6440  10.583   5.217  13.010  0.1147 -0.6766 -0.4897
  5734G12c C00T 6441  10.606   5.346  13.018  0.2797 -0.4672 -0.5188
  5734G12c C016 6442  10.519   5.446  13.059 -0.0430 -0.0605 -1.2861
  5734G12c C015 6443  10.397   5.394  13.107 -0.2971  0.0705 -0.0098
  5734G12c C010 6444  10.374   5.259  13.108  1.2127  1.9341  1.3055
  5734G12c C011 6445  10.267   5.199  13.180 -2.1179 -0.7633 -0.7062
  5734G12c H005 6446  10.242   5.096  13.205 -7.4871  0.0886 -1.7928
  5734G12c C012 6447  10.187   5.279  13.263 -0.0855  1.1187  1.1362
  5734G12c C017 6448  10.088   5.204  13.358  1.2461 -0.1709 -0.3545
  5734G12c O002 6449  10.018   5.112  13.300 -0.5027 -0.7586  0.4797
  5734G12c H004 6450   9.928   5.141  13.299 -1.9618 -4.8241  1.3553
  5734G12c C018 6451  10.049   5.240  13.485 -0.6061  0.2306  0.0485
  5734G12c O001 6452  10.068   5.374  13.522  0.2842 -2.5143 -2.6837
  5734G12c H003 6453  10.143   5.414  13.482 -2.6730  0.6077 -5.4192
  5734G12c C019 6454   9.955   5.177  13.571 -0.0774  0.0791 -0.9190
  5734G12c H002 6455   9.930   5.072  13.553  4.3209 -2.5472  6.0993
  5734G12c H001 6456   9.983   5.175  13.676 -6.2430 -0.4790  0.9275
  5734G12c O000 6457   9.836   5.266  13.588 -0.4227 -0.8670  1.8993
  5734G12c C01A 6458   9.720   5.197  13.613 -0.8543  0.2320 -0.4844
  5734G12c C02K 6459   9.648   5.206  13.731  1.5569  0.7808 -1.0563
  5734G12c O00G 6460   9.713   5.263  13.844 -0.8374 -1.3595 -0.6122
  5734G12c C02M 6461   9.682   5.403  13.840 -0.3410 -1.2672  0.8536
  5734G12c H01G 6462   9.619   5.407  13.929 -3.9253  0.2541 -1.6580
  5734G12c H01F 6463   9.601   5.429  13.772  3.2316 -0.6166 -3.3811
  5734G12c H01E 6464   9.763   5.475  13.854  2.0191 -2.8135 -3.7914
  5734G12c C02J 6465   9.512   5.152  13.745  0.6836  0.8313  0.1948
  5734G12c H01H 6466   9.467   5.158  13.843  0.5453  2.4142  0.0547
  5734G12c C02I 6467   9.448   5.105  13.639 -1.0406  0.0396 -1.7833
  5734G12c C02N 6468   9.302   5.087  13.633 -0.3131 -0.5252 -0.6551
  5734G12c H01M 6469   9.257   5.012  13.696 -0.2427  0.5699  0.7009
  5734G12c C02O 6470   9.214   5.115  13.523 -0.9777 -1.0495 -0.4373
  5734G12c H01L 6471   9.225   5.167  13.429 -2.4649 -0.4549 -0.3020
  5734G12c C02P 6472   9.067   5.062  13.493  0.8998  0.5684  0.4521
  5734G12c H01K 6473   9.012   5.147  13.533 -1.5687 -0.9712  0.4313
  5734G12c H01J 6474   9.067   5.042  13.385  1.0526  3.7479 -0.1742
  5734G12c O00H 6475   9.024   4.948  13.563 -1.2312 -1.0654 -0.7622
  5734G12c H01I 6476   9.083   4.938  13.637  2.0614 -3.9059 -3.6078
  5734G12c C02H 6477   9.517   5.099  13.513 -0.1974 -0.2919  0.1143
  5734G12c H01C 6478   9.461   5.043  13.440  1.0330 -0.2234 -0.8816
  5734G12c C02L 6479   9.647   5.142  13.515  0.7756 -0.0594  0.0370
  5734G12c H01D 6480   9.700   5.148  13.422 -1.8526  2.0619 -1.3959
  5734G12c C013 6481  10.203   5.419  13.240  1.3589  0.9597  0.4496
  5734G12c H000 6482  10.124   5.476  13.285  1.4632 -1.9277  4.6318
  5734G12c C014 6483  10.308   5.483  13.165 -0.8002 -0.8703  1.2561
  5734G12c C00F 6484  10.307   5.614  13.110  0.6097  0.7559 -1.1194
  5734G12c C00H 6485  10.533   5.589  13.064  0.8411 -2.5270 -0.6661
  5734G12c C00I 6486  10.656   5.634  13.033 -0.0713  1.5072 -0.1294
  5734G12c C00J 6487  10.761   5.530  13.006 -0.5054 -0.3496 -0.9105
  5734G12c C00Z 6488  10.465   5.170  13.045 -0.0465 -1.1320 -0.9654
  5734G12c C00Y 6489  10.439   5.039  13.006 -0.5179  0.8172  0.1437
  5734G12c H006 6490  10.334   5.019  13.019 -0.3111 -4.2259 -4.2971
  5734G12c C00X 6491  10.528   4.946  12.946 -0.1858  0.4988  0.4747
  5734G12c O003 6492  10.490   4.821  12.913 -0.0021  0.2194  0.8723
  5734G12c C01B 6493  10.381   4.775  12.997  2.3803 -0.8119 -0.7546
  5734G12c H009 6494  10.370   4.819  13.096  0.6290  1.9544 -2.1118
  5734G12c H008 6495  10.281   4.802  12.963  2.4641  0.3896 -0.0564
  5734G12c H007 6496  10.384   4.667  13.011 -1.5673 -0.5793  2.7924
  5734G12c C00W 6497  10.636   5.012  12.903  0.0693 -0.8934  0.7274
  5734G12c O004 6498  10.694   4.946  12.804 -0.5492  0.7641  0.3144
  5734G12c C01C 6499  10.818   4.959  12.782  0.0215 -0.1040  0.0977
  5734G12c H00A 6500  10.874   4.867  12.777  0.6247  0.2430  0.5178
  5734G12c C00P 6501  10.849   5.108  12.768 -2.4413  0.8455 -1.6739
  5734G12c C00O 6502  10.908   5.146  12.652 -0.2108  0.5449 -1.6323
  5734G12c C01D 6503  10.876   5.081  12.534 -0.4617 -0.8758  0.7832
  5734G12c H00S 6504  10.819   4.990  12.521 -2.2093  0.8461 -5.3146
  5734G12c C01E 6505  10.892   5.150  12.409 -0.5682 -0.0534 -0.3279
  5734G12c O008 6506  10.880   5.086  12.288 -0.1528 -1.6903 -1.0495
  5734G12c C01V 6507  10.954   4.968  12.293  0.4829 -0.8155  3.0987
  5734G12c C01Z 6508  11.094   4.970  12.343  0.7555 -0.5116 -1.4901
  5734G12c H00R 6509  11.097   5.046  12.420 -0.2552  0.9229 -2.8354
  5734G12c H00Q 6510  11.124   4.880  12.397  3.6307 -0.0272 -2.2540
  5734G12c O009 6511  11.173   5.022  12.233  0.6956 -1.0166 -0.8198
  5734G12c H00P 6512  11.150   5.101  12.186  0.4258 -1.6085 -1.6980
  5734G12c C01W 6513  10.911   4.852  12.236 -0.9025 -0.9670 -0.1467
  5734G12c H00O 6514  10.963   4.760  12.259  4.5130  0.9775 -3.5188
  5734G12c C01X 6515  10.776   4.845  12.176 -0.3016  1.0048 -1.8054
  5734G12c H00N 6516  10.736   4.749  12.209 -3.5386  1.5073 -3.9870
  5734G12c H00M 6517  10.697   4.906  12.220 -0.3740  1.7068 -2.8986
  5734G12c C01Y 6518  10.743   4.848  12.024 -0.3094 -0.1316  0.4764
  5734G12c C02D 6519  10.629   4.786  11.955  0.2600  1.0846  2.1183
  5734G12c H019 6520  10.526   4.769  11.981 -1.6996  2.7196 -3.7326
  5734G12c C02C 6521  10.629   4.764  11.809  0.4630 -1.0215  0.5231
  5734G12c H01A 6522  10.538   4.717  11.776  0.5989 -1.3788  0.6490
  5734G12c C02B 6523  10.733   4.813  11.733 -0.9579 -0.2256  3.1777
  5734G12c O00E 6524  10.725   4.821  11.603 -0.2639 -0.1659 -0.7776
  5734G12c H01B 6525  10.795   4.866  11.559  3.8448 -5.5706 -0.2558
  5734G12c C02F 6526  10.843   4.868  11.794  0.6213 -0.4412  0.7748
  5734G12c O00F 6527  10.941   4.917  11.702  0.9105 -2.0270 -0.4967
  5734G12c C02G 6528  11.077   4.921  11.746  0.4774 -1.9762 -0.4415
  5734G12c H017 6529  11.116   4.978  11.661 -0.8361  0.5509  0.5962
  5734G12c H016 6530  11.091   4.999  11.820  0.4400  0.2677 -2.7045
  5734G12c H015 6531  11.124   4.823  11.743  2.6048 -1.0057  0.2213
  5734G12c C02E 6532  10.839   4.890  11.939  0.4802 -0.7881  0.3205
  5734G12c H018 6533  10.907   4.972  11.957  0.9081  0.4984 -5.9211
  5734G12c C01F 6534  10.937   5.283  12.408  0.6893  0.9499 -0.0001
  5734G12c C01G 6535  10.944   5.358  12.295  0.3892  0.0129  0.8250
  5734G12c H00L 6536  10.930   5.322  12.195 -3.5167  4.8975 -0.5579
  5734G12c C01H 6537  10.952   5.502  12.304 -0.6924 -2.1901 -1.2012
  5734G12c H00B 6538  10.913   5.553  12.216 -3.0421 -3.4191 -0.9230
  5734G12c C01I 6539  11.000   5.550  12.417 -0.9923 -1.2527 -1.4354
  5734G12c C01U 6540  10.989   5.340  12.522  0.2256  0.5753  0.9537
  5734G12c C00S 6541  10.741   5.386  13.009  1.2673 -0.1836 -0.1726
  5734G12c C00K 6542  10.833   5.557  12.881 -0.6210  1.4667 -0.6200
  5734G12c C00N 6543  10.956   5.278  12.648 -0.2622 -1.3044 -1.2780
  5734G12c C000 6544  11.049   5.464  12.525 -0.0744  0.8278  1.4204
  5734G12c C01J 6545  10.945   5.661  12.486  1.9725 -0.6620 -0.3995
  5734G12c C01K 6546  10.918   5.790  12.424  0.9555 -2.0304  1.6043
  5734G12c C01P 6547  10.957   5.837  12.300  0.3469  0.8140 -0.6242
  5734G12c C01Q 6548  11.091   5.794  12.268  0.5761 -1.1534 -0.3678
  5734G12c H00G 6549  11.165   5.781  12.346  1.2013 -5.5014 -1.5152
  5734G12c C01R 6550  11.132   5.774  12.136 -1.3229  0.5766 -0.1175
  5734G12c H00F 6551  11.233   5.740  12.115 -1.1213  0.1313  1.4700
  5734G12c C01S 6552  11.063   5.800  11.999  1.5891 -1.7714 -1.3207
  5734G12c H00E 6553  11.020   5.899  11.983  4.4123 -0.3713 -0.6595
  5734G12c H00D 6554  11.131   5.789  11.914  1.6395  0.0382 -1.5355
  5734G12c O005 6555  11.000   5.671  11.996  1.5260 -2.6103  0.7562
  5734G12c H00C 6556  10.982   5.634  12.081 -2.4263  5.0705  3.8022
  5734G12c C01O 6557  10.875   5.921  12.223 -0.3745 -0.7883  0.2548
  5734G12c H00H 6558  10.894   5.938  12.118 -5.5316 -1.9028 -0.9870
  5734G12c C01N 6559  10.752   5.972  12.279 -1.0915  1.4158  0.4234
  5734G12c O006 6560  10.671   6.068  12.213  0.4697  0.4936  0.8417
  5734G12c C01T 6561  10.736   6.155  12.116 -0.1388  0.3069  0.7829
  5734G12c H00K 6562  10.752   6.126  12.012  3.0555 -6.5108  2.8622
  5734G12c H00J 6563  10.830   6.198  12.150 -2.6115  5.1593  1.8672
  5734G12c H00I 6564  10.656   6.228  12.104 -1.2521 -0.8861  0.8877
  5734G12c C01M 6565  10.727   5.936  12.414 -0.7331 -0.6236  0.7612
  5734G12c C020 6566  10.827   5.691  12.839 -1.7111 -1.6031  0.1907
  5734G12c C021 6567  10.744   5.794  12.891  0.8543  3.3844 -0.4715
  5734G12c C01L 6568  10.805   5.839  12.492  0.4460  0.0778  1.4443
  5734G12c O007 6569  10.634   5.995  12.479 -0.2108  1.8570 -0.9083
  5734G12c C022 6570  10.665   5.868  12.816 -0.0632 -0.6726  0.6548
  5734G12c C023 6571  10.665   5.770  13.008  0.1461 -0.0318 -0.4155
  5734G12c C00G 6572  10.427   5.669  13.079  2.4214 -0.8528  1.7622
  5734G12c C00E 6573  10.193   5.684  13.081  1.8143  0.0756  0.3411
  5734G12c O00A 6574  10.082   5.622  13.133  0.5706 -0.3707 -1.4924
  5734G12c C024 6575  10.017   5.540  13.035  0.0595  0.6666  0.2821
  5734G12c H00V 6576   9.953   5.624  13.008  4.0778  2.3373 -4.7912
  5734G12c H00U 6577   9.968   5.476  13.108  2.3319  1.7541  2.8779
  5734G12c H00T 6578  10.063   5.497  12.947  1.6137  2.9823 -0.0739
  5744G12c C00D 6579  12.411   0.961   6.981 -0.3968  0.0050 -0.9346
  5744G12c O00B 6580  12.339   1.034   7.084 -0.2489 -0.7546 -0.5954
  5744G12c C025 6581  12.343   0.963   7.207  1.8712  0.1839 -1.1376
  5744G12c C026 6582  12.215   0.937   7.271 -0.6524  0.4408  0.8513
  5744G12c H00Y 6583  12.232   0.946   7.378  1.6274  0.7730  0.4765
  5744G12c H00X 6584  12.197   0.830   7.255 -0.8119  0.4824  0.7543
  5744G12c O00C 6585  12.100   1.023   7.224 -0.5272  1.1119 -1.4588
  5744G12c H00W 6586  12.094   1.100   7.278 -4.4738  0.6132 -1.0394
  5744G12c C027 6587  12.447   0.931   7.279  0.2196  0.3957 -1.0121
  5744G12c O00D 6588  12.563   0.954   7.243 -0.8909 -0.4146  1.2877
  5744G12c H00Z 6589  12.601   0.938   7.328 -4.7545  2.0082  3.5599
  5744G12c C028 6590  12.433   0.834   7.381 -1.0717 -0.5384  0.1141
  5744G12c C029 6591  12.438   0.706   7.329  0.0752 -0.0930 -0.5132
  5744G12c H010 6592  12.434   0.674   7.226 -4.8053  1.0271 -0.7579
  5744G12c C02T 6593  12.416   0.605   7.423 -0.6097  0.0452 -0.7947
  5744G12c H01O 6594  12.414   0.501   7.396 -6.9036 -0.6664  1.3875
  5744G12c C02S 6595  12.406   0.638   7.566  0.0723  0.5376  0.9854
  5744G12c O00J 6596  12.404   0.545   7.656 -1.6791  2.3568  0.6290
  5744G12c H01P 6597  12.369   0.559   7.743 -3.5797  0.4139  0.2194
  5744G12c C02R 6598  12.430   0.764   7.617 -0.5827 -0.8621 -0.1465
  5744G12c O00I 6599  12.492   0.764   7.746 -0.6100  1.9202  1.9726
  5744G12c C02Q 6600  12.547   0.891   7.794  1.1022  1.0369 -1.0383
  5744G12c H01N 6601  12.633   0.943   7.753  2.0048  3.3843  3.5587
  5744G12c H01R 6602  12.583   0.869   7.894  0.2319  7.2676  0.8466
  5744G12c H01Q 6603  12.462   0.960   7.801  0.3943  0.0273  0.6443
  5744G12c C02A 6604  12.438   0.872   7.518  0.6625 -1.7968  0.4429
  5744G12c H011 6605  12.444   0.968   7.569 -6.9210 -1.7231  1.7292
  5744G12c C00C 6606  12.496   1.021   6.885 -0.5833 -1.0905  0.6382
  5744G12c H012 6607  12.529   1.123   6.893  0.9069 -1.7831  4.6978
  5744G12c C00B 6608  12.570   0.942   6.795  1.0843  1.2607 -0.2310
  5744G12c C00A 6609  12.653   0.993   6.674  0.5816 -0.1949 -0.1062
  5744G12c C009 6610  12.633   1.129   6.607  0.6557  0.7606  0.0335
  5744G12c C008 6611  12.552   1.232   6.634  0.4288  1.1229 -1.2709
  5744G12c H013 6612  12.534   1.245   6.739 -1.6495  1.0638 -1.6017
  5744G12c C007 6613  12.571   1.336   6.526 -0.3061 -0.1903  1.0439
  5744G12c H014 6614  12.561   1.443   6.540  1.3572  0.0101  0.7122
  5744G12c C006 6615  12.616   1.310   6.389  1.2111  0.4933  0.1338
  5744G12c C005 6616  12.652   1.174   6.361 -1.4334  0.3820  1.1789
  5744G12c C004 6617  12.700   1.135   6.237  0.0205  0.1116 -1.2145
  5744G12c C003 6618  12.745   1.003   6.242 -1.2558 -0.2071 -0.3884
  5744G12c C002 6619  12.772   0.959   6.111 -1.1442 -0.1618 -0.6056
  5744G12c C001 6620  12.791   0.822   6.052 -0.9505  0.5239  0.2256
  5744G12c C00M 6621  12.705   0.706   6.097  1.3872 -1.0735 -0.0841
  5744G12c C00L 6622  12.686   0.693   6.233 -2.6794  0.8177  0.9842
  5744G12c C00R 6623  12.613   0.571   6.287 -0.7022  0.1042  0.4016
  5744G12c C00Q 6624  12.516   0.478   6.233  0.0482 -1.3139  1.7161
  5744G12c C00V 6625  12.465   0.393   6.335 -0.9907 -2.5257  0.1663
  5744G12c C00U 6626  12.459   0.436   6.467  0.9346 -0.1157  0.1458
  5744G12c C00T 6627  12.526   0.539   6.506 -0.8792 -0.6115  0.1478
  5744G12c C016 6628  12.516   0.602   6.627  0.5758 -0.2714 -1.2693
  5744G12c C015 6629  12.434   0.541   6.729  1.5206  1.0596  1.3245
  5744G12c C010 6630  12.362   0.420   6.694 -1.2053 -1.0815  0.2429
  5744G12c C011 6631  12.277   0.353   6.786  0.1869 -0.6059  0.2006
  5744G12c H005 6632  12.236   0.255   6.764  3.0894 -2.4312  2.5327
  5744G12c C012 6633  12.287   0.407   6.923  2.1190  0.1968  0.3268
  5744G12c C017 6634  12.281   0.322   7.035  0.2140  0.9130  1.6847
  5744G12c O002 6635  12.340   0.199   7.032  1.1915 -0.7401 -1.3998
  5744G12c H004 6636  12.375   0.216   6.947  0.7047 -4.0954 -2.3344
  5744G12c C018 6637  12.173   0.329   7.128 -0.8757 -0.6641  0.3355
  5744G12c O001 6638  12.176   0.237   7.227  0.5499 -1.1680 -0.2518
  5744G12c H003 6639  12.085   0.232   7.250  0.5377 -3.8034 -0.7370
  5744G12c C019 6640  12.079   0.441   7.137  2.0188  1.0657  1.2847
  5744G12c H002 6641  12.055   0.458   7.242 -2.6446  0.4860  0.4249
  5744G12c H001 6642  12.119   0.531   7.090  1.0557  1.4480  1.1803
  5744G12c O000 6643  11.977   0.379   7.099 -0.1350  0.8577  0.6593
  5744G12c C01A 6644  11.853   0.435   7.068  0.5489 -0.8030  2.0203
  5744G12c C02K 6645  11.788   0.534   7.147 -0.3359  0.1919 -0.2644
  5744G12c O00G 6646  11.844   0.598   7.271  0.0695 -2.0902  0.9078
  5744G12c C02M 6647  11.870   0.732   7.227  0.0498  0.9738  0.4160
  5744G12c H01G 6648  11.946   0.799   7.266  1.6479 -0.3219 -0.4197
  5744G12c H01F 6649  11.842   0.739   7.122 -1.4180 -1.2363  0.6210
  5744G12c H01E 6650  11.793   0.768   7.295  3.3609  3.9883  2.7341
  5744G12c C02J 6651  11.657   0.565   7.123  1.0015  1.0929  0.4075
  5744G12c H01H 6652  11.597   0.617   7.196  1.4767 -0.5822  2.0420
  5744G12c C02I 6653  11.578   0.510   7.021 -0.4801 -1.1510  1.0763
  5744G12c C02N 6654  11.441   0.527   6.999  2.3561  0.2826  0.9320
  5744G12c H01M 6655  11.395   0.528   6.901  6.2643  3.8317 -1.0026
  5744G12c C02O 6656  11.344   0.506   7.092  0.7007  0.3351 -0.6711
  5744G12c H01L 6657  11.243   0.489   7.058 -0.3281 -0.4089  2.5731
  5744G12c C02P 6658  11.350   0.481   7.246  2.4022 -0.1016 -0.0413
  5744G12c H01K 6659  11.456   0.488   7.271  2.6357  1.4472 -1.3869
  5744G12c H01J 6660  11.301   0.563   7.301  2.3485  0.7852 -1.3936
  5744G12c O00H 6661  11.297   0.347   7.244 -1.3043  0.6027  0.0149
  5744G12c H01I 6662  11.207   0.343   7.274 -2.6480 -3.1878 -3.9653
  5744G12c C02H 6663  11.660   0.461   6.914  0.3901  0.8485 -0.7389
  5744G12c H01C 6664  11.620   0.448   6.815 -0.1617 -2.9769 -0.0734
  5744G12c C02L 6665  11.799   0.428   6.932  0.4037  0.1207 -0.4421
  5744G12c H01D 6666  11.875   0.389   6.866  2.3510 -1.0430  2.3931
  5744G12c C013 6667  12.330   0.539   6.960 -0.6721  0.2201  0.6488
  5744G12c H000 6668  12.319   0.587   7.056 -4.8478 -3.7860  2.3224
  5744G12c C014 6669  12.393   0.606   6.843  1.0860 -1.7485 -0.0296
  5744G12c C00F 6670  12.437   0.742   6.870  0.3691  0.0748  0.4099
  5744G12c C00H 6671  12.582   0.730   6.661  1.0718  0.7231  0.6065
  5744G12c C00I 6672  12.669   0.781   6.565 -1.6379 -0.8950 -0.9533
  5744G12c C00J 6673  12.680   0.712   6.450 -0.6528 -0.9113  1.2275
  5744G12c C00Z 6674  12.382   0.368   6.565  0.9072 -0.0928  1.2508
  5744G12c C00Y 6675  12.323   0.239   6.517  1.3571  0.4675  2.4591
  5744G12c H006 6676  12.309   0.158   6.586 -1.8103 -4.1519 -3.1952
  5744G12c C00X 6677  12.315   0.204   6.386  1.2064  0.7974 -0.0913
  5744G12c O003 6678  12.231   0.124   6.329  0.1906 -0.2262  0.2198
  5744G12c C01B 6679  12.157   0.041   6.413 -0.8158  1.4476 -2.2999
  5744G12c H009 6680  12.092  -0.018   6.348 -8.0940  6.1931 -0.0192
  5744G12c H008 6681  12.067   0.083   6.459  1.3287  7.9381 -3.4617
  5744G12c H007 6682  12.188  -0.019   6.499 -1.4318  0.8341 -2.4989
  5744G12c C00W 6683  12.391   0.277   6.280  0.6262 -0.0825 -1.1308
  5744G12c O004 6684  12.370   0.266   6.134  0.4268 -0.1620  0.3260
  5744G12c C01C 6685  12.376   0.385   6.069 -0.4277  0.8099 -0.5177
  5744G12c H00A 6686  12.309   0.424   5.994 -4.1305  4.4345  4.2856
  5744G12c C00P 6687  12.484   0.465   6.093 -1.3541 -0.3231  1.3788
  5744G12c C00O 6688  12.517   0.564   5.993 -0.9958 -0.2326  0.8004
  5744G12c C01D 6689  12.449   0.568   5.863  0.4775  0.4056 -1.2779
  5744G12c H00S 6690  12.368   0.500   5.842  0.1583 -0.4643  2.2982
  5744G12c C01E 6691  12.463   0.666   5.757  2.0833 -0.1121 -0.8344
  5744G12c O008 6692  12.409   0.673   5.631  0.4644  0.7831 -0.9245
  5744G12c C01V 6693  12.383   0.549   5.577  0.4550 -1.2380 -1.5144
  5744G12c C01Z 6694  12.516   0.498   5.528  0.4980  0.2419 -0.2812
  5744G12c H00R 6695  12.586   0.450   5.596  4.5343 -0.9394 -4.9851
  5744G12c H00Q 6696  12.499   0.426   5.448 -2.2640  3.0049 -2.2765
  5744G12c O009 6697  12.599   0.601   5.477 -0.2195  1.4609  1.0976
  5744G12c H00P 6698  12.559   0.681   5.507  2.7582  3.3767  0.1557
  5744G12c C01W 6699  12.280   0.465   5.587 -2.2042 -0.1743 -1.5810
  5744G12c H00O 6700  12.193   0.525   5.611 -2.3000 -1.1418  0.6098
  5744G12c C01X 6701  12.252   0.333   5.527  1.8093 -0.6232  1.6949
  5744G12c H00N 6702  12.152   0.353   5.489  0.9042 -2.2949  3.1320
  5744G12c H00M 6703  12.337   0.304   5.465  2.8599 -0.7239  3.1608
  5744G12c C01Y 6704  12.246   0.211   5.619  1.0196 -1.6130  0.5307
  5744G12c C02D 6705  12.170   0.090   5.598  0.3662 -0.4888  0.4404
  5744G12c H019 6706  12.096   0.069   5.522 -2.7159 -3.4690  4.0505
  5744G12c C02C 6707  12.158  -0.013   5.681 -0.8185  1.2428  0.4823
  5744G12c H01A 6708  12.086  -0.093   5.694  0.7488 -0.9073 -3.2178
  5744G12c C02B 6709  12.244   0.013   5.787 -1.1222 -0.2909  0.5408
  5744G12c O00E 6710  12.218  -0.061   5.889 -0.8375 -1.0772  0.0273
  5744G12c H01B 6711  12.230  -0.008   5.967  2.1915 -1.0273 -0.3780
  5744G12c C02F 6712  12.350   0.096   5.792  0.9953  0.4597 -0.5751
  5744G12c O00F 6713  12.421   0.109   5.926  0.1080  0.6481  0.0438
  5744G12c C02G 6714  12.533   0.032   5.942 -1.3595  0.4692 -0.9783
  5744G12c H017 6715  12.578  -0.022   5.858 -2.0486  0.1788 -1.1622
  5744G12c H016 6716  12.558   0.129   5.985  1.4731 -0.3605 -0.6557
  5744G12c H015 6717  12.473  -0.028   6.010 -9.8473  7.6285 -1.3438
  5744G12c C02E 6718  12.345   0.210   5.714  0.9106 -0.3546  0.0557
  5744G12c H018 6719  12.420   0.277   5.754  0.7900 -1.4733  2.2350
  5744G12c C01F 6720  12.573   0.761   5.781 -0.4707 -2.8015 -1.0000
  5744G12c C01G 6721  12.584   0.892   5.712  1.1924  0.5295  0.3564
  5744G12c H00L 6722  12.503   0.908   5.643 -1.0829  1.9330  3.2268
  5744G12c C01H 6723  12.657   1.012   5.763  0.4050  0.0552 -1.2188
  5744G12c H00B 6724  12.623   1.115   5.760 -0.8055 -0.2693  0.6581
  5744G12c C01I 6725  12.744   0.981   5.860 -0.1388 -0.2147  0.0002
  5744G12c C01U 6726  12.659   0.741   5.888 -0.7757  0.1133  0.3746
  5744G12c C00S 6727  12.624   0.582   6.417  0.0794 -1.3352 -0.8625
  5744G12c C00K 6728  12.730   0.780   6.333 -0.8169 -1.8610 -0.9909
  5744G12c C00N 6729  12.610   0.668   5.997 -0.1512  2.6676  0.5558
  5744G12c C000 6730  12.751   0.840   5.915 -1.0616  0.4480  0.6358
  5744G12c C01J 6731  12.750   1.048   5.994  0.4347  0.1774 -0.0944
  5744G12c C01K 6732  12.774   1.184   6.015  0.8313 -0.3893  0.0939
  5744G12c C01P 6733  12.819   1.290   5.915  0.6284  1.6778 -0.5066
  5744G12c C01Q 6734  12.850   1.273   5.768 -0.6182  1.9516 -0.5919
  5744G12c H00G 6735  12.771   1.283   5.695 -4.5207 -5.1386  2.1774
  5744G12c C01R 6736  12.950   1.203   5.703 -2.1846 -0.5076 -0.2957
  5744G12c H00F 6737  12.943   1.198   5.595  0.8595 -5.9580 -0.4506
  5744G12c C01S 6738  13.061   1.124   5.742  2.3868 -0.0276 -1.6114
  5744G12c H00E 6739  13.014   1.037   5.696  9.8191 -3.0326 -4.2535
  5744G12c H00D 6740  13.159   1.166   5.721  2.9675  2.4276  4.8770
  5744G12c O005 6741  13.034   1.043   5.858 -0.0561 -0.4474 -0.4906
  5744G12c H00C 6742  13.046   0.959   5.817  2.3426 -0.1287 -0.4965
  5744G12c C01O 6743  12.802   1.428   5.958  1.3784 -0.1264 -0.6239
  5744G12c H00H 6744  12.818   1.503   5.883 -2.8993  3.1941  1.5608
  5744G12c C01N 6745  12.749   1.473   6.085  1.2125 -0.7068  0.3236
  5744G12c O006 6746  12.673   1.584   6.104 -0.1710 -3.0121  0.3865
  5744G12c C01T 6747  12.728   1.699   6.030 -0.2997  0.7878  1.2694
  5744G12c H00K 6748  12.684   1.723   5.933  0.0418 -0.2911  0.8376
  5744G12c H00J 6749  12.828   1.710   5.987 -0.7420 -3.1328 -1.0159
  5744G12c H00I 6750  12.700   1.795   6.073 -0.5487  1.8126 -1.0988
  5744G12c C01M 6751  12.717   1.376   6.175 -0.6099  0.7413  1.2496
  5744G12c C020 6752  12.758   0.911   6.339 -0.7332  0.4703  1.3571
  5744G12c C021 6753  12.755   0.979   6.466  0.2320 -0.7782  0.5599
  5744G12c C01L 6754  12.726   1.227   6.138 -0.8609 -0.4923  0.8099
  5744G12c O007 6755  12.637   1.405   6.287 -0.5272  0.7121  0.8987
  5744G12c C022 6756  12.667   1.088   6.474  0.8091  0.4366  1.1617
  5744G12c C023 6757  12.717   0.907   6.584 -0.9035  0.7769  0.9054
  5744G12c C00G 6758  12.541   0.804   6.781 -0.7977  0.5288 -0.1218
  5744G12c C00E 6759  12.360   0.822   6.961  1.5341  0.1776 -0.2444
  5744G12c O00A 6760  12.232   0.787   7.007  0.1033 -0.0720  0.0756
  5744G12c C024 6761  12.131   0.854   6.926 -1.1954  0.6361 -1.5377
  5744G12c H00V 6762  12.148   0.851   6.818 -2.9024  1.9102 -1.8658
  5744G12c H00U 6763  12.143   0.960   6.946 -1.2044  0.1631  1.1158
  5744G12c H00T 6764  12.025   0.831   6.915 -0.9720 -3.0669  2.7179
  5754G12c C00D 6765   5.504   5.739  12.594  0.3404  0.7201  1.2419
  5754G12c O00B 6766   5.494   5.862  12.669 -0.9573 -1.1066  0.4380
  5754G12c C025 6767   5.399   5.883  12.761  0.8114 -1.0315  0.7727
  5754G12c C026 6768   5.334   6.010  12.760  1.1857 -0.2773 -2.9639
  5754G12c H00Y 6769   5.240   6.002  12.814  0.6896  0.5762 -3.6893
  5754G12c H00X 6770   5.295   6.044  12.664 -3.6116 -4.4704 -2.6836
  5754G12c O00C 6771   5.425   6.103  12.817  0.4298 -0.6680  0.4472
  5754G12c H00W 6772   5.501   6.046  12.810  0.1378 -1.4932  3.4722
  5754G12c C027 6773   5.386   5.784  12.858  0.3016  1.2741 -1.1712
  5754G12c O00D 6774   5.494   5.699  12.867 -0.1892  0.0434  0.1676
  5754G12c H00Z 6775   5.540   5.722  12.787 -1.3043 -0.2017 -0.5542
  5754G12c C028 6776   5.274   5.757  12.957 -1.8179  0.6376  0.9708
  5754G12c C029 6777   5.279   5.685  13.074 -0.6349  0.4464 -1.0587
  5754G12c H010 6778   5.373   5.655  13.119  0.1267 -2.7000 -4.5330
  5754G12c C02T 6779   5.175   5.624  13.139 -0.9044 -0.0944  0.2973
  5754G12c H01O 6780   5.201   5.553  13.216  2.3107  0.0157 -0.6063
  5754G12c C02S 6781   5.059   5.652  13.104 -0.6226 -1.4173  0.9176
  5754G12c O00J 6782   4.956   5.589  13.161 -0.4380  0.4682  0.9502
  5754G12c H01P 6783   4.867   5.595  13.130 -1.0398  2.6684  3.0220
  5754G12c C02R 6784   5.026   5.715  12.983  0.7539 -1.5695  0.2593
  5754G12c O00I 6785   4.899   5.718  12.929  0.0339 -0.4301  1.0245
  5754G12c C02Q 6786   4.859   5.744  12.805 -0.9633  1.5259 -1.1362
  5754G12c H01N 6787   4.830   5.661  12.741  2.7036  1.3463 -2.6854
  5754G12c H01R 6788   4.913   5.803  12.731 -2.8968 -0.0881 -3.9461
  5754G12c H01Q 6789   4.760   5.788  12.822 -0.3627  2.1615  0.8559
  5754G12c C02A 6790   5.139   5.757  12.912  0.5902 -0.5399  0.0918
  5754G12c H011 6791   5.121   5.776  12.807  4.2803 -1.9483 -0.8905
  5754G12c C00C 6792   5.380   5.681  12.550  0.9396 -0.8033  0.1748
  5754G12c H012 6793   5.289   5.722  12.592 -0.7592 -2.9053 -1.3078
  5754G12c C00B 6794   5.372   5.579  12.452  0.1926 -1.6824 -1.2024
  5754G12c C00A 6795   5.253   5.504  12.421 -0.8934  0.1628  0.5306
  5754G12c C009 6796   5.134   5.467  12.490 -1.2691 -0.7344  0.1638
  5754G12c C008 6797   5.089   5.527  12.612 -0.0379 -1.4271  0.4230
  5754G12c H013 6798   5.117   5.625  12.649  4.0585 -1.1927 -3.0216
  5754G12c C007 6799   5.015   5.433  12.694 -0.9077  0.7856  0.7478
  5754G12c H014 6800   5.010   5.459  12.798  3.8873 -0.2823  1.3621
  5754G12c C006 6801   4.983   5.295  12.659  0.5671 -0.1138  1.4084
  5754G12c C005 6802   5.034   5.258  12.529 -0.2335  1.6272 -0.3983
  5754G12c C004 6803   5.025   5.120  12.478  2.0402 -0.2817 -0.5416
  5754G12c C003 6804   5.098   5.068  12.364 -0.6994  0.4384 -0.4547
  5754G12c C002 6805   5.112   4.931  12.341  0.5830  0.7843 -0.4003
  5754G12c C001 6806   5.200   4.861  12.264 -1.0409 -0.7363  0.2531
  5754G12c C00M 6807   5.332   4.880  12.222 -0.0035  0.5620 -1.7096
  5754G12c C00L 6808   5.372   5.006  12.171 -1.1279  0.6949  1.4606
  5754G12c C00R 6809   5.515   5.038  12.154  2.0357 -0.9884 -0.3380
  5754G12c C00Q 6810   5.639   4.959  12.132 -0.7807  0.1268  0.7950
  5754G12c C00V 6811   5.758   5.032  12.160 -0.5720 -0.8116  2.0116
  5754G12c C00U 6812   5.759   5.165  12.217  1.3383  1.9804 -0.5389
  5754G12c C00T 6813   5.642   5.231  12.229 -0.3551 -0.6749 -1.3266
  5754G12c C016 6814   5.630   5.358  12.294  2.1942 -1.2093 -0.0538
  5754G12c C015 6815   5.747   5.400  12.351 -1.1735 -0.8848 -0.6232
  5754G12c C010 6816   5.865   5.340  12.308  1.4302 -1.1738  1.0865
  5754G12c C011 6817   5.988   5.376  12.378  0.1851 -0.9128  1.4632
  5754G12c H005 6818   6.088   5.337  12.388  0.3508 -0.9209 -0.1242
  5754G12c C012 6819   6.000   5.489  12.465  0.6593  1.4119 -1.5931
  5754G12c C017 6820   6.117   5.498  12.558  0.2081 -0.6225  1.2721
  5754G12c O002 6821   6.141   5.418  12.655 -2.0573  2.0806 -0.5440
  5754G12c H004 6822   6.235   5.424  12.652 -2.0989  2.7732 -0.6320
  5754G12c C018 6823   6.214   5.575  12.515  0.7932 -0.3418  0.1802
  5754G12c O001 6824   6.198   5.611  12.370  0.4342 -0.9354 -0.2896
  5754G12c H003 6825   6.270   5.671  12.363  3.7468 -4.4783  1.7320
  5754G12c C019 6826   6.336   5.641  12.578 -0.9429 -1.1582 -1.7298
  5754G12c H002 6827   6.416   5.573  12.607  0.8100  3.0766  4.3423
  5754G12c H001 6828   6.375   5.687  12.487 -2.2445  1.6765 -0.9323
  5754G12c O000 6829   6.291   5.732  12.679  0.8011  0.2130 -0.0112
  5754G12c C01A 6830   6.357   5.845  12.706 -0.2015 -0.4429 -0.8254
  5754G12c C02K 6831   6.343   5.911  12.822 -0.8234  0.4240  0.1994
  5754G12c O00G 6832   6.274   5.840  12.906 -0.3504  0.2593 -0.5179
  5754G12c C02M 6833   6.131   5.845  12.886  0.4830 -1.0333 -0.0491
  5754G12c H01G 6834   6.059   5.927  12.879 -0.0278 -1.5562 -0.9993
  5754G12c H01F 6835   6.110   5.836  12.993 -2.1240  5.6562  0.2960
  5754G12c H01E 6836   6.064   5.773  12.840 -1.5564  0.1569  0.9905
  5754G12c C02J 6837   6.403   6.040  12.846  0.8796  0.4560  0.1092
  5754G12c H01H 6838   6.397   6.062  12.951 -1.8590  1.2524 -0.1800
  5754G12c C02I 6839   6.460   6.118  12.758  2.0733 -0.1805  0.7766
  5754G12c C02N 6840   6.477   6.256  12.806 -1.0522 -0.1290  0.4200
  5754G12c H01M 6841   6.454   6.271  12.910  3.1464 -7.0532  2.6537
  5754G12c C02O 6842   6.515   6.354  12.715  1.0924 -0.2883 -0.8424
  5754G12c H01L 6843   6.511   6.326  12.611 -4.8637  1.1115 -1.1539
  5754G12c C02P 6844   6.550   6.507  12.737 -0.4461 -0.4739  0.8229
  5754G12c H01K 6845   6.479   6.590  12.735 -3.0288 -2.5907 -3.1536
  5754G12c H01J 6846   6.563   6.512  12.845  0.6670 -1.2411  0.7285
  5754G12c O00H 6847   6.679   6.570  12.695 -0.0652 -0.1084  2.0978
  5754G12c H01I 6848   6.723   6.599  12.774 -0.0293  1.7320  1.4361
  5754G12c C02H 6849   6.459   6.060  12.623  1.0202  0.2742  1.9198
  5754G12c H01C 6850   6.481   6.097  12.523  3.2638 -4.2614  0.5943
  5754G12c C02L 6851   6.437   5.919  12.612  0.2760 -1.6406  0.3732
  5754G12c H01D 6852   6.429   5.903  12.505  1.0043  2.0531 -0.2839
  5754G12c C013 6853   5.884   5.578  12.445 -0.4108  0.3200 -0.4210
  5754G12c H000 6854   5.899   5.685  12.456  1.0760  0.1072 -0.2925
  5754G12c C014 6855   5.750   5.536  12.405  0.4911 -0.1086 -0.1320
  5754G12c C00F 6856   5.629   5.598  12.439  0.3886  0.6314  0.6449
  5754G12c C00H 6857   5.500   5.419  12.326  0.1471  2.1932 -0.2954
  5754G12c C00I 6858   5.392   5.347  12.291  0.9287 -1.0293  0.6358
  5754G12c C00J 6859   5.414   5.227  12.198 -1.7034 -0.2790  1.0860
  5754G12c C00Z 6860   5.875   5.221  12.240 -0.6912  0.0427  0.0311
  5754G12c C00Y 6861   5.988   5.151  12.241  0.2549  0.3327  0.2932
  5754G12c H006 6862   6.070   5.158  12.311 -2.9961 -1.6090  4.5288
  5754G12c C00X 6863   5.997   5.029  12.170 -0.0839  0.5486  1.8175
  5754G12c O003 6864   6.130   4.965  12.173  0.6225  0.3151  0.8765
  5754G12c C01B 6865   6.195   4.902  12.065  0.0817  0.0382  0.0568
  5754G12c H009 6866   6.257   4.835  12.124 -3.5006 -2.3914  1.2196
  5754G12c H008 6867   6.239   4.988  12.014 -1.7390  4.8395  5.9052
  5754G12c H007 6868   6.127   4.829  12.022 -3.3501  2.9393  0.2844
  5754G12c C00W 6869   5.881   4.967  12.127 -1.4076 -0.9836 -0.7842
  5754G12c O004 6870   5.871   4.835  12.090 -1.4908  0.0528  0.9356
  5754G12c C01C 6871   5.778   4.764  12.151  0.7641  0.2520  0.1082
  5754G12c H00A 6872   5.818   4.686  12.213 -1.5832 -1.9715 -1.0794
  5754G12c C00P 6873   5.651   4.815  12.156 -0.7666  0.6966 -1.5591
  5754G12c C00O 6874   5.547   4.740  12.224  1.0287 -1.1265  0.8735
  5754G12c C01D 6875   5.594   4.621  12.288  0.1663 -0.9797 -1.4221
  5754G12c H00S 6876   5.665   4.548  12.250  0.2321 -0.4320 -2.3752
  5754G12c C01E 6877   5.508   4.537  12.373 -0.4882  1.3731  0.9255
  5754G12c O008 6878   5.549   4.436  12.449 -0.2534 -0.6318 -1.1719
  5754G12c C01V 6879   5.692   4.447  12.472 -0.5167  2.7065 -0.9117
  5754G12c C01Z 6880   5.714   4.514  12.603  0.3553  0.5433 -1.2595
  5754G12c H00R 6881   5.649   4.488  12.687  2.0047  4.6831  1.4746
  5754G12c H00Q 6882   5.817   4.482  12.608  1.2164  1.3336 -8.2768
  5754G12c O009 6883   5.697   4.648  12.605 -0.6537 -0.5646 -0.4275
  5754G12c H00P 6884   5.693   4.667  12.512  0.3705  0.9162 -0.1899
  5754G12c C01W 6885   5.781   4.379  12.413 -0.0257  1.3625 -0.1450
  5754G12c H00O 6886   5.734   4.312  12.342  0.6890 -2.6468  2.9598
  5754G12c C01X 6887   5.934   4.374  12.421  0.9539 -1.7659 -1.9647
  5754G12c H00N 6888   5.994   4.338  12.338  2.1361 -3.9572 -0.1964
  5754G12c H00M 6889   5.957   4.481  12.417  0.8600 -1.3496  3.9870
  5754G12c C01Y 6890   5.982   4.297  12.544  0.9023  0.5184 -1.1822
  5754G12c C02D 6891   5.916   4.167  12.564 -1.0613  0.2542  0.6193
  5754G12c H019 6892   5.850   4.126  12.489  3.9332 -1.8274 -2.9258
  5754G12c C02C 6893   5.930   4.092  12.674  1.8923  0.4431  1.0828
  5754G12c H01A 6894   5.872   4.001  12.684  0.0208  1.5600  0.5672
  5754G12c C02B 6895   6.017   4.124  12.775 -2.0469 -0.1447 -0.1393
  5754G12c O00E 6896   6.047   4.036  12.873  0.0281 -1.4170  0.0690
  5754G12c H01B 6897   6.135   4.069  12.878 -1.3691  2.9339 -1.6984
  5754G12c C02F 6898   6.085   4.246  12.748 -1.5495 -1.0379  0.0488
  5754G12c O00F 6899   6.180   4.251  12.834  0.2769 -0.1496  1.5017
  5754G12c C02G 6900   6.150   4.330  12.945 -0.6326 -1.0675 -0.0185
  5754G12c H017 6901   6.112   4.432  12.936 -0.8598 -1.0857  0.6785
  5754G12c H016 6902   6.050   4.326  12.988  0.3853 -1.4119  2.3992
  5754G12c H015 6903   6.230   4.301  13.013  0.0143 -1.6285 -1.0121
  5754G12c C02E 6904   6.065   4.348  12.650 -0.7601  0.3197 -0.0364
  5754G12c H018 6905   6.118   4.438  12.677  1.2118 -2.4063  6.1156
  5754G12c C01F 6906   5.375   4.588  12.401  0.8092  0.8551  1.2529
  5754G12c C01G 6907   5.274   4.546  12.510 -0.2353  1.8247  0.4283
  5754G12c H00L 6908   5.293   4.466  12.580  4.0324  1.5988 -0.8226
  5754G12c C01H 6909   5.150   4.605  12.531  1.2408 -1.0270  1.1931
  5754G12c H00B 6910   5.116   4.591  12.633  1.2004  2.2796  1.6716
  5754G12c C01I 6911   5.127   4.714  12.438 -0.9398  0.2472 -0.6917
  5754G12c C01U 6912   5.329   4.674  12.318  0.7499 -0.9048  1.0937
  5754G12c C00S 6913   5.538   5.175  12.167  1.0399  0.1710  1.9741
  5754G12c C00K 6914   5.311   5.126  12.223  0.3368  0.2196  0.3115
  5754G12c C00N 6915   5.413   4.770  12.262  0.2179  1.2329 -1.8191
  5754G12c C000 6916   5.205   4.732  12.322 -0.0017  0.5225 -0.0221
  5754G12c C01J 6917   5.056   4.847  12.444 -0.0316  1.8707 -1.4289
  5754G12c C01K 6918   4.966   4.896  12.543  0.8909  0.2368  0.4454
  5754G12c C01P 6919   4.885   4.810  12.631 -0.7590  0.1334 -0.5302
  5754G12c C01Q 6920   4.854   4.673  12.623  0.5855  0.3083  1.1211
  5754G12c H00G 6921   4.917   4.586  12.634 -2.3911 -1.5779  4.5186
  5754G12c C01R 6922   4.730   4.647  12.562 -0.4133  0.6233 -0.6134
  5754G12c H00F 6923   4.685   4.549  12.555 -7.2107  3.1338  3.1919
  5754G12c C01S 6924   4.615   4.723  12.540 -0.1226 -1.0244 -0.2923
  5754G12c H00E 6925   4.640   4.825  12.509  5.0648 -3.3564 -4.5735
  5754G12c H00D 6926   4.567   4.674  12.455 -0.5520 -3.7915  1.4847
  5754G12c O005 6927   4.501   4.687  12.602  1.3966 -0.1153  0.5407
  5754G12c H00C 6928   4.461   4.603  12.585  1.9521  0.2346 -2.8928
  5754G12c C01O 6929   4.850   4.864  12.760  0.3601  0.4349  0.8174
  5754G12c H00H 6930   4.825   4.783  12.827  3.6566  0.6822  2.4372
  5754G12c C01N 6931   4.881   4.991  12.808 -1.0762  0.3053  1.4958
  5754G12c O006 6932   4.872   5.036  12.940  0.8561  1.3671 -0.0897
  5754G12c C01T 6933   4.974   5.114  12.986 -0.0667  0.1118  0.8501
  5754G12c H00K 6934   5.063   5.063  13.023 -1.1422 -2.8293 -0.5248
  5754G12c H00J 6935   5.026   5.206  12.957  3.1020 -1.2889  1.8384
  5754G12c H00I 6936   4.937   5.140  13.085  2.4490  3.9497  0.9066
  5754G12c C01M 6937   4.935   5.073  12.698  0.8349  0.6633 -0.2382
  5754G12c C020 6938   5.192   5.171  12.295  0.9328 -1.7819  0.0238
  5754G12c C021 6939   5.168   5.300  12.335 -0.8482 -1.8396  1.0605
  5754G12c C01L 6940   4.957   5.031  12.559  0.3388 -0.3010  0.5738
  5754G12c O007 6941   4.925   5.203  12.736  0.2883  1.0041 -1.5530
  5754G12c C022 6942   5.095   5.348  12.439  0.7151 -1.0118 -2.4415
  5754G12c C023 6943   5.266   5.405  12.317 -0.0055 -0.4186 -0.5891
  5754G12c C00G 6944   5.498   5.532  12.405 -1.7869  1.1730  0.6185
  5754G12c C00E 6945   5.614   5.694  12.542 -1.0384  0.5538 -0.3601
  5754G12c O00A 6946   5.737   5.743  12.599 -0.3306  2.0701 -0.3652
  5754G12c C024 6947   5.749   5.834  12.710  0.3106 -0.0522 -0.7302
  5754G12c H00V 6948   5.727   5.822  12.816 -3.5657  0.3767 -1.4094
  5754G12c H00U 6949   5.854   5.863  12.714 -0.1922  2.2620 -2.9053
  5754G12c H00T 6950   5.718   5.938  12.694  1.2641  0.0126 -2.1654
  5764G12c C00D 6951   4.515   5.668   0.552 -0.3014  1.1608  0.5515
  5764G12c O00B 6952   4.410   5.753   0.537  0.6393 -0.8090  0.4357
  5764G12c C025 6953   4.313   5.755   0.630 -0.2668  0.0491 -0.0360
  5764G12c C026 6954   4.279   5.900   0.685  0.1080  1.0706  0.7755
  5764G12c H00Y 6955   4.323   5.882   0.783  4.7799 -5.8925 -2.1860
  5764G12c H00X 6956   4.184   5.954   0.679  2.5599  5.4292 -2.5917
  5764G12c O00C 6957   4.352   6.013   0.634  0.4418 -1.5854 -0.8967
  5764G12c H00W 6958   4.411   6.040   0.702  0.4679  1.0082 -1.8989
  5764G12c C027 6959   4.268   5.643   0.689  0.1431 -2.0443  1.1042
  5764G12c O00D 6960   4.286   5.535   0.629  0.9203  0.8288 -0.0933
  5764G12c H00Z 6961   4.363   5.484   0.647 -1.0870 -1.6892  1.8368
  5764G12c C028 6962   4.188   5.624   0.800  0.1333 -1.9601 -0.0054
  5764G12c C029 6963   4.186   5.500   0.878 -0.7112 -0.0901  0.7345
  5764G12c H010 6964   4.254   5.417   0.880 -1.2821 -0.5371  1.4829
  5764G12c C02T 6965   4.099   5.504   0.986 -1.6559  0.4403 -0.5251
  5764G12c H01O 6966   4.072   5.405   1.019  5.3434 -1.1308  1.0996
  5764G12c C02S 6967   4.027   5.616   1.028 -0.6545 -0.7348  0.4761
  5764G12c O00J 6968   3.972   5.600   1.149  0.4441 -0.7222  0.7771
  5764G12c H01P 6969   3.926   5.523   1.178  1.0928 -1.4295 -0.0371
  5764G12c C02R 6970   4.028   5.729   0.952 -1.4730 -0.9831  1.2387
  5764G12c O00I 6971   3.954   5.828   0.988 -0.4914  0.1332  0.1489
  5764G12c C02Q 6972   3.812   5.791   0.968 -0.4498  0.4185 -2.1201
  5764G12c H01N 6973   3.769   5.888   0.992  2.9708  3.1420 -6.2966
  5764G12c H01R 6974   3.819   5.752   0.867 -4.5011 -5.5968 -0.3626
  5764G12c H01Q 6975   3.772   5.703   1.019 -1.4317  0.3708 -2.9673
  5764G12c C02A 6976   4.100   5.726   0.847 -0.1198 -0.9002  0.0037
  5764G12c H011 6977   4.115   5.822   0.800 -0.7270 -1.3446 -1.1137
  5764G12c C00C 6978   4.571   5.645   0.677  0.5537  0.1822  0.0601
  5764G12c H012 6979   4.520   5.678   0.766 -3.4523 -0.7077 -1.7734
  5764G12c C00B 6980   4.660   5.535   0.708 -0.4405 -0.0037  0.3337
  5764G12c C00A 6981   4.697   5.456   0.835 -1.2093 -0.3050  0.4321
  5764G12c C009 6982   4.720   5.515   0.973 -0.8019  0.3739  0.8103
  5764G12c C008 6983   4.665   5.628   1.048 -0.5488 -1.2478 -1.0335
  5764G12c H013 6984   4.567   5.668   1.026 -0.9494 -1.7959 -0.2745
  5764G12c C007 6985   4.740   5.661   1.162 -0.6625  0.1386 -0.1150
  5764G12c H014 6986   4.703   5.748   1.214 -0.2850  1.7491 -2.4576
  5764G12c C006 6987   4.854   5.581   1.198  0.4732  1.5337 -0.0736
  5764G12c C005 6988   4.880   5.468   1.130  1.3577  1.0338 -0.0024
  5764G12c C004 6989   4.987   5.396   1.155 -0.1323 -1.2435 -0.2248
  5764G12c C003 6990   5.019   5.273   1.078 -0.1619  0.5812  0.6816
  5764G12c C002 6991   5.153   5.213   1.103 -0.1733  0.2877 -2.3408
  5764G12c C001 6992   5.248   5.133   1.019 -1.5845  0.2068 -0.2362
  5764G12c C00M 6993   5.267   5.126   0.880  0.1685  1.7548  0.5802
  5764G12c C00L 6994   5.157   5.143   0.790  0.8082  1.6249 -0.8503
  5764G12c C00R 6995   5.185   5.176   0.671  0.8216 -0.2687 -0.7375
  5764G12c C00Q 6996   5.298   5.197   0.578  0.5769  0.0064  0.4094
  5764G12c C00V 6997   5.252   5.232   0.440 -0.3862  0.1822 -0.6936
  5764G12c C00U 6998   5.120   5.275   0.400  2.1310  0.7346 -0.6796
  5764G12c C00T 6999   5.019   5.262   0.502 -0.1853 -0.0304 -0.7094
  5764G12c C016 7000   4.902   5.339   0.492  0.2051  1.1870  1.6285
  5764G12c C015 7001   4.874   5.415   0.372 -1.1143  1.0516 -0.4971
  5764G12c C010 7002   4.965   5.386   0.259 -0.3934  0.0491 -0.7939
  5764G12c C011 7003   4.938   5.464   0.152 -0.0127  0.6008  0.8025
  5764G12c H005 7004   4.992   5.445   0.060 -2.5362 -0.3648 -0.5431
  5764G12c C012 7005   4.815   5.522   0.118 -0.3114  0.4712  0.9525
  5764G12c C017 7006   4.804   5.581  -0.016 -1.2182 -1.9060  1.6762
  5764G12c O002 7007   4.911   5.678  -0.029  1.9624 -0.5299 -0.5047
  5764G12c H004 7008   4.929   5.751   0.028  5.6444 -1.8206  0.0844
  5764G12c C018 7009   4.718   5.540  -0.094  0.7733  1.9390  0.1258
  5764G12c O001 7010   4.639   5.438  -0.096  0.3198  0.5852  0.8957
  5764G12c H003 7011   4.696   5.398  -0.032 -0.0883 -4.7203 -1.7478
  5764G12c C019 7012   4.724   5.620  -0.233 -0.5213  1.2201  0.1409
  5764G12c H002 7013   4.801   5.697  -0.238  1.7169 -0.4865  4.7079
  5764G12c H001 7014   4.725   5.555  -0.321  1.5064  1.7700 -0.2694
  5764G12c O000 7015   4.623   5.694  -0.277  0.4441 -0.6769  1.0702
  5764G12c C01A 7016   4.545   5.659  -0.386 -0.2811  0.7205  1.1871
  5764G12c C02K 7017   4.532   5.741  -0.502 -1.1050 -0.9902 -0.1623
  5764G12c O00G 7018   4.592   5.868  -0.506  0.6481  0.0655 -0.5934
  5764G12c C02M 7019   4.596   5.933  -0.637  2.0591 -1.6698  0.2335
  5764G12c H01G 7020   4.503   5.948  -0.691  0.2900 -1.2262  3.2638
  5764G12c H01F 7021   4.671   5.886  -0.701  0.1787  1.2709 -4.3999
  5764G12c H01E 7022   4.623   6.032  -0.600 -0.4201 -0.3950 -1.2533
  5764G12c C02J 7023   4.446   5.693  -0.615 -0.2057  0.6130  0.3213
  5764G12c H01H 7024   4.425   5.760  -0.697  0.4719  1.2166  0.6337
  5764G12c C02I 7025   4.409   5.552  -0.641  0.2818 -0.2619  1.0019
  5764G12c C02N 7026   4.316   5.491  -0.729  0.4674  0.9598  0.8465
  5764G12c H01M 7027   4.351   5.389  -0.735 -0.6283  0.6083  0.3125
  5764G12c C02O 7028   4.217   5.543  -0.804 -0.3120  0.5756 -1.6617
  5764G12c H01L 7029   4.198   5.650  -0.803  6.4938  2.1913  4.9105
  5764G12c C02P 7030   4.104   5.464  -0.861 -1.4936  0.8905  2.1299
  5764G12c H01K 7031   4.086   5.357  -0.859 -0.2026  0.5378  9.2259
  5764G12c H01J 7032   4.028   5.498  -0.792 -0.1076 -3.2417  5.9657
  5764G12c O00H 7033   4.100   5.484  -0.998 -0.1253 -1.5764 -1.1466
  5764G12c H01I 7034   4.133   5.572  -1.008  0.1847 -1.5092  0.4230
  5764G12c C02H 7035   4.441   5.477  -0.521  0.8824  1.0016  0.5771
  5764G12c H01C 7036   4.401   5.378  -0.505  6.7904 -1.9295 -1.0921
  5764G12c C02L 7037   4.485   5.539  -0.392  0.7815  0.1407 -0.1447
  5764G12c H01D 7038   4.474   5.467  -0.313  4.2245 -3.0146 -2.3756
  5764G12c C013 7039   4.734   5.538   0.231 -0.8999 -1.2349 -0.2049
  5764G12c H000 7040   4.643   5.595   0.224  0.3712  0.8577 -0.1370
  5764G12c C014 7041   4.752   5.491   0.354 -0.8746 -0.1474  0.4520
  5764G12c C00F 7042   4.697   5.525   0.470  0.8129  0.9439 -1.0827
  5764G12c C00H 7043   4.825   5.368   0.607 -2.4337 -0.0376  1.3914
  5764G12c C00I 7044   4.856   5.310   0.727 -1.0143  0.0065  0.5221
  5764G12c C00J 7045   4.976   5.237   0.726  1.0763 -1.7167 -1.4539
  5764G12c C00Z 7046   5.092   5.320   0.272  0.8714  0.4865  0.4888
  5764G12c C00Y 7047   5.209   5.342   0.187 -0.5369  0.2215 -0.7448
  5764G12c H006 7048   5.195   5.408   0.102  0.0871  0.8666 -0.3532
  5764G12c C00X 7049   5.328   5.290   0.211 -0.5991  1.2212  0.1321
  5764G12c O003 7050   5.449   5.279   0.119  0.1202 -1.6937 -0.4839
  5764G12c C01B 7051   5.440   5.186   0.002  0.5848  1.0125 -0.2433
  5764G12c H009 7052   5.399   5.231  -0.088 -1.2561  3.5696  1.8017
  5764G12c H008 7053   5.357   5.127   0.041  3.4385 -0.6378  3.6600
  5764G12c H007 7054   5.509   5.109  -0.033  6.6150  3.1987  5.7572
  5764G12c C00W 7055   5.351   5.235   0.344  1.6333  0.2147  3.1827
  5764G12c O004 7056   5.480   5.227   0.367  0.7876  1.2171  0.0108
  5764G12c C01C 7057   5.529   5.221   0.497  0.4125  2.0512  0.3584
  5764G12c H00A 7058   5.632   5.198   0.520 -0.5341 -6.0550 -1.8165
  5764G12c C00P 7059   5.435   5.219   0.607 -0.0263 -0.2632  1.3720
  5764G12c C00O 7060   5.472   5.205   0.738  0.3915  0.4970  0.3665
  5764G12c C01D 7061   5.611   5.258   0.759  0.1772  0.0415  0.2053
  5764G12c H00S 7062   5.681   5.299   0.688 -1.2183 -4.2637 -3.9398
  5764G12c C01E 7063   5.660   5.282   0.896  1.7178 -1.1814 -1.0676
  5764G12c O008 7064   5.783   5.335   0.919  2.2154  1.4535  1.0413
  5764G12c C01V 7065   5.862   5.293   0.815 -0.1784 -0.3942 -1.5303
  5764G12c C01Z 7066   5.903   5.149   0.812 -0.0324 -0.6357  0.8137
  5764G12c H00R 7067   5.981   5.132   0.886 -0.6835 -4.0646  0.8111
  5764G12c H00Q 7068   5.818   5.083   0.831 -0.1979 -1.6039 -2.8533
  5764G12c O009 7069   5.962   5.080   0.697  0.3860 -0.4648 -0.7737
  5764G12c H00P 7070   5.949   4.987   0.712  1.6408 -0.0311  3.3800
  5764G12c C01W 7071   5.938   5.378   0.762  0.3088 -0.3026 -0.7086
  5764G12c H00O 7072   6.018   5.332   0.705 -2.4901 -2.4687 -3.0582
  5764G12c C01X 7073   5.945   5.522   0.772  0.4587 -0.3757  0.3098
  5764G12c H00N 7074   5.972   5.552   0.671 -0.0296  6.4073  1.9932
  5764G12c H00M 7075   5.845   5.554   0.800 -0.5008 -5.8900  4.0173
  5764G12c C01Y 7076   6.059   5.571   0.867 -1.8074 -0.5513 -1.5447
  5764G12c C02D 7077   6.177   5.644   0.821 -0.2029 -0.3214  0.1907
  5764G12c H019 7078   6.200   5.676   0.721 -7.1058  2.3910 -0.8013
  5764G12c C02C 7079   6.231   5.720   0.913  0.8495 -0.8390 -1.7542
  5764G12c H01A 7080   6.302   5.796   0.885 -0.4374  1.1563  0.2107
  5764G12c C02B 7081   6.214   5.709   1.053 -1.5802  0.3874 -0.1324
  5764G12c O00E 7082   6.306   5.758   1.142  0.2211 -1.5031  0.0066
  5764G12c H01B 7083   6.261   5.788   1.219 -1.3733 -4.4327  0.2848
  5764G12c C02F 7084   6.105   5.629   1.104 -0.5611  1.1080 -0.0467
  5764G12c O00F 7085   6.073   5.604   1.227  1.4701  0.2171 -1.0489
  5764G12c C02G 7086   5.983   5.656   1.289  1.2373  0.1685 -0.6594
  5764G12c H017 7087   5.937   5.601   1.370 -7.4298 -1.9993 -6.4044
  5764G12c H016 7088   5.898   5.677   1.224 -2.7385  4.2589  5.3593
  5764G12c H015 7089   6.029   5.748   1.326 -1.8602  2.9900 -3.4935
  5764G12c C02E 7090   6.029   5.569   1.007  0.7678  0.7674  1.3644
  5764G12c H018 7091   5.941   5.508   1.006  2.2283 -1.4118 -1.0224
  5764G12c C01F 7092   5.573   5.251   0.999  0.1092  0.1484 -0.9569
  5764G12c C01G 7093   5.589   5.311   1.138  2.0077 -0.2032 -0.7668
  5764G12c H00L 7094   5.658   5.374   1.192  1.0081 -1.1829  1.7693
  5764G12c C01H 7095   5.469   5.306   1.225 -0.8793 -1.1549 -0.6983
  5764G12c H00B 7096   5.479   5.354   1.321 -2.1970 -4.5415  1.2050
  5764G12c C01I 7097   5.362   5.223   1.201  1.6111 -0.5293  0.1892
  5764G12c C01U 7098   5.452   5.187   0.986 -2.0128  0.1123 -0.9332
  5764G12c C00S 7099   5.060   5.201   0.620  1.2571  1.1128  0.5220
  5764G12c C00K 7100   5.035   5.195   0.841  1.1868 -0.8274 -1.7913
  5764G12c C00N 7101   5.401   5.163   0.856 -0.0754  0.1812 -0.0714
  5764G12c C000 7102   5.366   5.143   1.088 -0.9901  0.7193 -0.2883
  5764G12c C01J 7103   5.223   5.254   1.228 -0.5220 -0.8501 -1.4630
  5764G12c C01K 7104   5.174   5.358   1.321  0.0872  0.2693 -0.7612
  5764G12c C01P 7105   5.220   5.374   1.446 -1.1968 -0.3911  1.1611
  5764G12c C01Q 7106   5.313   5.261   1.518  0.0794 -1.5631 -1.0746
  5764G12c H00G 7107   5.417   5.231   1.519  1.1986  1.6983 -4.6865
  5764G12c C01R 7108   5.261   5.183   1.622 -0.0568  0.1873 -0.2382
  5764G12c H00F 7109   5.297   5.082   1.635 -7.4734 -3.2362 -3.2953
  5764G12c C01S 7110   5.128   5.194   1.677 -0.9005 -0.3069 -1.4082
  5764G12c H00E 7111   5.050   5.259   1.637 -0.4281 -0.2538 -2.2563
  5764G12c H00D 7112   5.060   5.111   1.663 -2.0588  0.9300 -3.2811
  5764G12c O005 7113   5.143   5.221   1.817  0.1797  1.6054 -1.0019
  5764G12c H00C 7114   5.183   5.139   1.839  0.6889  1.6297 -1.8119
  5764G12c C01O 7115   5.191   5.505   1.502 -0.8291  0.0365 -1.2512
  5764G12c H00H 7116   5.213   5.520   1.607 -5.9954  0.7840 -0.1431
  5764G12c C01N 7117   5.090   5.583   1.475 -0.4603 -0.1269  1.0665
  5764G12c O006 7118   5.062   5.704   1.554  0.0040  1.1846  0.7421
  5764G12c C01T 7119   4.981   5.825   1.514  1.3343 -1.2314  1.5788
  5764G12c H00K 7120   4.908   5.804   1.436 -0.8276  2.5229  2.4542
  5764G12c H00J 7121   5.043   5.911   1.488  5.2638 -4.2982  0.3490
  5764G12c H00I 7122   4.910   5.839   1.596 -1.6306 -3.9854 -0.4183
  5764G12c C01M 7123   5.036   5.560   1.340 -0.7617  1.0452 -1.1618
  5764G12c C020 7124   4.959   5.249   0.961 -1.3168 -0.8413  0.0906
  5764G12c C021 7125   4.842   5.321   0.949  0.0572  1.0783  0.5486
  5764G12c C01L 7126   5.066   5.440   1.266  0.6478 -1.1885  0.6265
  5764G12c O007 7127   4.931   5.636   1.301 -0.2892  0.5592  0.7830
  5764G12c C022 7128   4.807   5.424   1.025 -0.4449 -1.1292  0.1190
  5764G12c C023 7129   4.790   5.356   0.841  0.2069 -2.0290  0.5527
  5764G12c C00G 7130   4.732   5.477   0.602 -2.2913  0.0053  0.9076
  5764G12c C00E 7131   4.567   5.581   0.455  0.7855  2.3657  1.1409
  5764G12c O00A 7132   4.468   5.539   0.369  0.3344  0.8213  0.1926
  5764G12c C024 7133   4.406   5.649   0.285  0.9407  0.4911 -0.4585
  5764G12c H00V 7134   4.356   5.730   0.338 -5.5558 -0.8713 -3.9708
  5764G12c H00U 7135   4.338   5.612   0.208 -1.3410  0.0209  1.7180
  5764G12c H00T 7136   4.479   5.724   0.257 -0.6061  1.3132 -2.3473
  5774G12c C00D 7137   9.765   1.725   0.054  1.1594  0.9136 -1.9393
  5774G12c O00B 7138   9.755   1.594   0.071  0.5845 -0.9592 -0.7942
  5774G12c C025 7139   9.815   1.504  -0.020 -0.9087  1.1469 -0.0075
  5774G12c C026 7140   9.956   1.551  -0.054 -1.3564 -0.8113 -0.0312
  5774G12c H00Y 7141   9.991   1.594   0.040 -3.8647  4.0209 -1.1856
  5774G12c H00X 7142   9.943   1.618  -0.139 -1.9194 -1.2285 -0.2766
  5774G12c O00C 7143  10.026   1.439  -0.103  0.5092  2.2858  0.6549
  5774G12c H00W 7144   9.984   1.367  -0.146  0.4105  1.8799  1.4112
  5774G12c C027 7145   9.741   1.398  -0.075 -1.4584  0.5213 -0.1669
  5774G12c O00D 7146   9.757   1.294  -0.163 -0.9779  1.0936 -0.2797
  5774G12c H00Z 7147   9.668   1.271  -0.144 -1.6763  3.6102 -0.3270
  5774G12c C028 7148   9.617   1.387  -0.013  0.1117  0.1577  0.1576
  5774G12c C029 7149   9.499   1.438  -0.076  0.9465 -0.2693 -1.1269
  5774G12c H010 7150   9.496   1.507  -0.159  4.7383  2.9110  1.2026
  5774G12c C02T 7151   9.367   1.403  -0.052  2.0049  2.3219  1.2858
  5774G12c H01O 7152   9.279   1.448  -0.095  3.8410  0.1391 -5.2777
  5774G12c C02S 7153   9.355   1.328   0.084  0.4303  0.9999  1.6445
  5774G12c O00J 7154   9.223   1.253   0.102 -0.6301  0.4634  0.3447
  5774G12c H01P 7155   9.226   1.213   0.188 -4.2650 -0.4170  0.1283
  5774G12c C02R 7156   9.471   1.277   0.144  0.6567  0.2663 -0.9853
  5774G12c O00I 7157   9.434   1.182   0.246 -0.2110  0.6922  0.2632
  5774G12c C02Q 7158   9.456   1.240   0.370  0.5388 -0.9916 -1.1170
  5774G12c H01N 7159   9.561   1.263   0.385  0.9722 -4.5239  2.2663
  5774G12c H01R 7160   9.450   1.171   0.455 -4.9928 -0.7635 -1.1149
  5774G12c H01Q 7161   9.373   1.304   0.399  3.7259  3.8902 -2.2787
  5774G12c C02A 7162   9.605   1.294   0.111 -0.6239 -0.6642  2.2053
  5774G12c H011 7163   9.695   1.251   0.152 -0.1029  0.7782  2.6141
  5774G12c C00C 7164   9.844   1.808   0.119  0.1583  0.0644  1.1683
  5774G12c H012 7165   9.912   1.772   0.194  1.7824 -1.6029 -1.0215
  5774G12c C00B 7166   9.882   1.942   0.075  3.7959  1.4498 -0.7068
  5774G12c C00A 7167   9.955   2.047   0.147 -0.6191  1.3173  0.2495
  5774G12c C009 7168  10.001   2.049   0.288  0.0366  0.4283 -1.0041
  5774G12c C008 7169   9.965   1.984   0.406 -1.4237  0.9386 -2.3779
  5774G12c H013 7170   9.888   1.910   0.420 -2.0795  1.6514 -2.2060
  5774G12c C007 7171  10.025   2.034   0.528  0.6441 -0.1534  1.0004
  5774G12c H014 7172  10.015   1.971   0.615 -2.6139  0.3476  1.0308
  5774G12c C006 7173  10.097   2.153   0.532 -0.2761  0.5438 -1.7025
  5774G12c C005 7174  10.091   2.233   0.411 -0.3630  1.4248 -0.8324
  5774G12c C004 7175  10.095   2.371   0.411 -0.5555 -1.0139 -0.5987
  5774G12c C003 7176  10.086   2.447   0.292 -0.7151 -0.8147  0.7645
  5774G12c C002 7177  10.064   2.600   0.302  0.4617  0.2710 -0.4042
  5774G12c C001 7178  10.033   2.709   0.211  0.9694  0.3073 -0.3623
  5774G12c C00M 7179   9.938   2.694   0.099  0.4248 -0.8129 -0.8308
  5774G12c C00L 7180   9.929   2.581   0.009  1.1915 -0.8174  3.0125
  5774G12c C00R 7181   9.825   2.545  -0.104  0.0250 -0.6489  0.6059
  5774G12c C00Q 7182   9.714   2.629  -0.119  0.8974 -0.0619  1.2688
  5774G12c C00V 7183   9.610   2.554  -0.183 -0.5163 -1.5892  0.1599
  5774G12c C00U 7184   9.609   2.415  -0.193 -0.6795  1.5447  0.4489
  5774G12c C00T 7185   9.712   2.343  -0.144 -1.8267  1.5919  0.1024
  5774G12c C016 7186   9.713   2.199  -0.126 -0.5599  0.3439 -1.7289
  5774G12c C015 7187   9.600   2.135  -0.162 -0.1220  1.2811 -0.6615
  5774G12c C010 7188   9.490   2.209  -0.219  0.3798 -0.2633  0.6479
  5774G12c C011 7189   9.375   2.134  -0.245 -1.4162 -1.9381 -0.5629
  5774G12c H005 7190   9.295   2.181  -0.301  1.2547 -3.7220 -6.3440
  5774G12c C012 7191   9.366   2.001  -0.226  1.2477  1.5909 -0.1865
  5774G12c C017 7192   9.246   1.932  -0.250 -0.0692  0.2009 -0.4128
  5774G12c O002 7193   9.232   1.845  -0.359  0.1248  1.4820 -0.3614
  5774G12c H004 7194   9.284   1.845  -0.438 -1.9793  0.9875 -1.7616
  5774G12c C018 7195   9.155   1.922  -0.147  0.1552 -0.6809  1.3158
  5774G12c O001 7196   9.065   1.830  -0.145 -1.6118 -0.2451 -0.0843
  5774G12c H003 7197   9.119   1.764  -0.184 -2.1193 -1.3566  1.0841
  5774G12c C019 7198   9.180   2.026  -0.045 -0.9940 -1.0996 -0.1890
  5774G12c H002 7199   9.116   1.994   0.037 -2.4633  6.2431  1.9299
  5774G12c H001 7200   9.273   2.055   0.004  0.3720  0.1417 -3.3166
  5774G12c O000 7201   9.110   2.153  -0.063 -0.3295 -0.5507 -1.0670
  5774G12c C01A 7202   9.113   2.254   0.022 -1.2786  0.8951  0.4090
  5774G12c C02K 7203   9.011   2.344   0.053 -0.6498  1.6594  0.3404
  5774G12c O00G 7204   8.872   2.322   0.040 -0.0623 -0.3459  0.2627
  5774G12c C02M 7205   8.819   2.253  -0.074  1.7133  2.0942  0.2811
  5774G12c H01G 7206   8.778   2.152  -0.069  3.2548  1.3305 -1.5349
  5774G12c H01F 7207   8.873   2.287  -0.163  3.0962  7.0518  2.8470
  5774G12c H01E 7208   8.719   2.295  -0.081  0.2426 -0.7958  2.6254
  5774G12c C02J 7209   9.047   2.452   0.123  1.2576 -0.8482  0.3774
  5774G12c H01H 7210   8.972   2.528   0.140 -4.5370 -6.0098 -0.3952
  5774G12c C02I 7211   9.176   2.498   0.148 -1.1884  0.9200  0.2683
  5774G12c C02N 7212   9.208   2.634   0.155  1.0221 -0.1054 -0.6368
  5774G12c H01M 7213   9.116   2.689   0.149  0.2199 -1.4185 -0.5712
  5774G12c C02O 7214   9.303   2.691   0.239  0.1340 -1.0564  0.1984
  5774G12c H01L 7215   9.384   2.622   0.258  1.4911  1.1786  2.8281
  5774G12c C02P 7216   9.292   2.792   0.332  0.0925  0.6815  0.2122
  5774G12c H01K 7217   9.324   2.887   0.290  3.0137 -0.6622 -0.7969
  5774G12c H01J 7218   9.205   2.787   0.397  0.5770 -0.0235  0.8075
  5774G12c O00H 7219   9.389   2.785   0.440 -0.7687  1.4225 -1.7264
  5774G12c H01I 7220   9.468   2.751   0.402 -2.0738 -4.2250  0.1392
  5774G12c C02H 7221   9.283   2.413   0.129  0.0676 -1.4170 -0.0065
  5774G12c H01C 7222   9.383   2.429   0.167  2.1480 -6.3803 -2.8711
  5774G12c C02L 7223   9.259   2.306   0.044  0.6833  0.9044  0.3077
  5774G12c H01D 7224   9.344   2.279  -0.016  3.1174 -0.3317  4.1613
  5774G12c C013 7225   9.463   1.942  -0.154 -4.0078 -1.0432  0.6837
  5774G12c H000 7226   9.447   1.846  -0.106 -4.9634 -1.0928  0.2628
  5774G12c C014 7227   9.589   2.002  -0.142  1.3002 -1.5204 -0.5296
  5774G12c C00F 7228   9.690   1.926  -0.069 -0.1479  0.1393  0.5473
  5774G12c C00H 7229   9.822   2.133  -0.059  1.5060 -0.3881  1.8070
  5774G12c C00I 7230   9.932   2.210  -0.017  0.6061  0.6971 -0.4281
  5774G12c C00J 7231   9.913   2.354  -0.032  0.6324 -1.0890 -0.1608
  5774G12c C00Z 7232   9.500   2.349  -0.233  1.4140 -1.0870 -0.9731
  5774G12c C00Y 7233   9.389   2.425  -0.278 -0.1275 -0.5633 -0.7358
  5774G12c H006 7234   9.330   2.383  -0.358  3.5644  3.3244 -5.8264
  5774G12c C00X 7235   9.363   2.550  -0.234  1.3230  2.0528 -0.1549
  5774G12c O003 7236   9.238   2.605  -0.266  0.7955 -1.8370 -0.8704
  5774G12c C01B 7237   9.209   2.618  -0.392  0.3143  0.1691  2.0256
  5774G12c H009 7238   9.187   2.529  -0.452 -5.5137  4.0905 -2.2249
  5774G12c H008 7239   9.306   2.647  -0.433  0.3275  1.2755  2.8437
  5774G12c H007 7240   9.112   2.661  -0.416 -1.3034 -2.8996  2.7457
  5774G12c C00W 7241   9.475   2.629  -0.184 -2.1632 -0.2120 -1.3927
  5774G12c O004 7242   9.467   2.768  -0.184 -0.0078  0.5672  0.4329
  5774G12c C01C 7243   9.585   2.822  -0.170  0.3825  0.4483  1.8060
  5774G12c H00A 7244   9.639   2.899  -0.224 -6.2477  5.3835  1.5564
  5774G12c C00P 7245   9.676   2.766  -0.080 -0.3046 -0.5342  0.5687
  5774G12c C00O 7246   9.716   2.828   0.045  0.0848  0.3215 -1.8137
  5774G12c C01D 7247   9.629   2.924   0.102  0.0251 -0.8157  0.2500
  5774G12c H00S 7248   9.546   2.970   0.051 -0.6900 -1.7566  0.5420
  5774G12c C01E 7249   9.623   2.950   0.234 -1.5625  0.8155  1.9512
  5774G12c O008 7250   9.525   3.017   0.297 -0.4324 -1.2626  1.2513
  5774G12c C01V 7251   9.538   3.146   0.316  2.1391 -0.7763  0.2725
  5774G12c C01Z 7252   9.396   3.197   0.297 -1.6369 -0.5774 -0.5678
  5774G12c H00R 7253   9.350   3.099   0.285  1.4678 -2.1505 -0.2133
  5774G12c H00Q 7254   9.338   3.263   0.360  2.0657  5.0204 -2.6448
  5774G12c O009 7255   9.398   3.265   0.173  0.2932  0.8557  0.3650
  5774G12c H00P 7256   9.438   3.195   0.123  2.1035 -0.9826  4.1873
  5774G12c C01W 7257   9.651   3.216   0.331 -0.0320  2.6752  0.8064
  5774G12c H00O 7258   9.754   3.184   0.336 -0.3370  1.3280 -0.8754
  5774G12c C01X 7259   9.642   3.354   0.351  0.1987  0.0027  0.6740
  5774G12c H00N 7260   9.548   3.388   0.395  0.1682  0.5269  0.2073
  5774G12c H00M 7261   9.701   3.405   0.427  0.4803 -1.8512  1.7221
  5774G12c C01Y 7262   9.683   3.425   0.210 -2.1494  0.1002 -0.1739
  5774G12c C02D 7263   9.808   3.382   0.148 -1.8817 -1.8916 -0.9642
  5774G12c H019 7264   9.869   3.303   0.189  4.8434  1.6182 -3.4591
  5774G12c C02C 7265   9.879   3.455   0.050  0.6559 -1.3460  0.9600
  5774G12c H01A 7266   9.981   3.443   0.083 -1.4396 -2.5071  7.7996
  5774G12c C02B 7267   9.852   3.592   0.029  1.1132 -0.7816  0.7601
  5774G12c O00E 7268   9.872   3.644  -0.092  1.5340 -1.1003  0.4937
  5774G12c H01B 7269   9.820   3.721  -0.111 -2.1309 -2.7739  2.9779
  5774G12c C02F 7270   9.727   3.630   0.096  0.6161  1.1986 -0.9331
  5774G12c O00F 7271   9.642   3.743   0.042 -1.3957  0.5610  0.3157
  5774G12c C02G 7272   9.633   3.855   0.114  0.4974 -2.6731 -0.5693
  5774G12c H017 7273   9.615   3.913   0.023 -0.6884 -5.6461 -2.2906
  5774G12c H016 7274   9.552   3.872   0.184 -2.5100 -0.5987 -4.3866
  5774G12c H015 7275   9.725   3.869   0.171  0.6990 -2.6882 -0.8915
  5774G12c C02E 7276   9.647   3.550   0.183  0.0973  1.0274 -1.0784
  5774G12c H018 7277   9.561   3.593   0.233 -0.7614 -1.9611  0.1492
  5774G12c C01F 7278   9.736   2.902   0.316  0.1878 -1.0689 -0.3529
  5774G12c C01G 7279   9.735   2.889   0.455 -0.6045 -0.7834 -0.3750
  5774G12c H00L 7280   9.638   2.890   0.503  0.1001  5.9414  1.4522
  5774G12c C01H 7281   9.858   2.816   0.520  0.2833  0.3280  0.0712
  5774G12c H00B 7282   9.852   2.773   0.619 -7.7388  0.2300 -0.0949
  5774G12c C01I 7283   9.963   2.767   0.438 -1.4283 -1.3006  0.4205
  5774G12c C01U 7284   9.845   2.868   0.244  0.7646  0.6084  0.4957
  5774G12c C00S 7285   9.822   2.415  -0.121 -1.0955  0.1437  0.1366
  5774G12c C00K 7286   9.970   2.451   0.054  1.2243 -1.0906  0.2620
  5774G12c C00N 7287   9.823   2.785   0.130 -0.1784 -0.2625  0.6087
  5774G12c C000 7288   9.956   2.803   0.298 -0.7965 -0.4854  0.7197
  5774G12c C01J 7289  10.064   2.663   0.440  0.4573  0.5587  0.4597
  5774G12c C01K 7290  10.110   2.581   0.558 -0.8084 -0.9662 -1.5762
  5774G12c C01P 7291  10.101   2.619   0.694  0.9955 -0.3777 -0.4384
  5774G12c C01Q 7292  10.112   2.764   0.735 -0.9671 -0.4423  1.3996
  5774G12c H00G 7293  10.049   2.798   0.815  0.0578  0.6183  1.7693
  5774G12c C01R 7294  10.205   2.849   0.682 -0.2157 -0.6351 -0.0325
  5774G12c H00F 7295  10.289   2.838   0.615  0.4557  2.5963  0.1831
  5774G12c C01S 7296  10.162   2.985   0.712 -0.0390  0.4373  0.4488
  5774G12c H00E 7297  10.095   3.025   0.636 -1.0246 -2.0966 -0.0460
  5774G12c H00D 7298  10.097   3.013   0.795  0.5809  3.6648 -0.0971
  5774G12c O005 7299  10.258   3.068   0.718 -0.0154 -1.0715 -0.3999
  5774G12c H00C 7300  10.309   3.018   0.780  1.4836  0.8724 -0.0261
  5774G12c C01O 7301  10.135   2.545   0.801 -0.1211  0.1334 -0.7297
  5774G12c H00H 7302  10.133   2.567   0.907  7.6804  3.8848 -0.9944
  5774G12c C01N 7303  10.178   2.419   0.785  0.0560 -0.6840  0.5203
  5774G12c O006 7304  10.212   2.357   0.898 -0.8824 -1.4628  0.6919
  5774G12c C01T 7305  10.114   2.258   0.938 -0.8124  1.6342 -0.4519
  5774G12c H00K 7306  10.072   2.184   0.869  0.1126  1.4510 -0.8317
  5774G12c H00J 7307  10.162   2.190   1.009  0.2256  1.2000 -1.5379
  5774G12c H00I 7308  10.020   2.300   0.972  0.1290 -0.3787  5.1603
  5774G12c C01M 7309  10.163   2.362   0.652  1.0342  0.8442 -0.5580
  5774G12c C020 7310  10.042   2.381   0.169 -0.6577 -1.5770  0.6851
  5774G12c C021 7311  10.068   2.240   0.169  0.9241 -0.9823 -0.1671
  5774G12c C01L 7312  10.112   2.439   0.541 -2.0403 -0.1100  1.4021
  5774G12c O007 7313  10.170   2.217   0.647  0.6270  0.7301 -0.5395
  5774G12c C022 7314  10.044   2.172   0.296 -1.4746  0.2142  0.4255
  5774G12c C023 7315  10.009   2.147   0.071  0.6936 -1.0587 -0.0578
  5774G12c C00G 7316   9.810   1.998  -0.025 -0.5607  0.0111 -1.6513
  5774G12c C00E 7317   9.685   1.787  -0.045 -0.3060 -0.6914 -0.7034
  5774G12c O00A 7318   9.616   1.699  -0.126 -1.2926 -0.2809  0.9138
  5774G12c C024 7319   9.664   1.714  -0.264  0.2081 -0.0748  0.3624
  5774G12c H00V 7320   9.693   1.621  -0.314 -2.3589  2.9231 -7.4353
  5774G12c H00U 7321   9.619   1.799  -0.314  2.0417  0.4776 -0.3910
  5774G12c H00T 7322   9.765   1.754  -0.278 -0.6923  3.2539  2.7117
  5784G12c C00D 7323   9.107   3.976   3.883  0.5947 -0.5319  0.3587
  5784G12c O00B 7324   9.204   4.064   3.866 -1.0842  0.1113  1.7049
  5784G12c C025 7325   9.329   4.032   3.824 -1.9311  0.1693 -0.3826
  5784G12c C026 7326   9.339   4.019   3.672  0.4839 -0.3303  0.0218
  5784G12c H00Y 7327   9.446   4.006   3.655  0.2627 -3.0348  0.4052
  5784G12c H00X 7328   9.282   4.094   3.619 -0.0296  0.5299  1.7557
  5784G12c O00C 7329   9.319   3.888   3.648 -0.4459  0.4542 -1.2330
  5784G12c H00W 7330   9.305   3.838   3.727  6.8534  2.4141  1.7237
  5784G12c C027 7331   9.427   3.995   3.908  2.0015 -0.7811  0.5237
  5784G12c O00D 7332   9.383   3.989   4.041 -0.2994  0.7574 -0.1488
  5784G12c H00Z 7333   9.300   4.023   4.011 -0.7117 -0.1415 -0.0621
  5784G12c C028 7334   9.563   3.955   3.887  0.5622 -0.7384  2.3107
  5784G12c C029 7335   9.665   4.032   3.948  0.4042 -0.6106  0.9271
  5784G12c H010 7336   9.656   4.136   3.974  7.2305  2.7086 -7.4978
  5784G12c C02T 7337   9.800   3.985   3.945  0.1107  2.1308 -1.4573
  5784G12c H01O 7338   9.879   4.041   3.993  2.9709 -2.6028 -0.4188
  5784G12c C02S 7339   9.821   3.852   3.910  1.3511 -0.2971 -0.5401
  5784G12c O00J 7340   9.943   3.805   3.928 -0.4403 -0.8095 -0.1092
  5784G12c H01P 7341   9.906   3.719   3.915 -7.7276  1.9325 -0.0852
  5784G12c C02R 7342   9.732   3.770   3.856  0.9116  0.8247  0.9316
  5784G12c O00I 7343   9.784   3.646   3.797 -1.5659 -0.8788  0.6367
  5784G12c C02Q 7344   9.803   3.663   3.654 -0.5728 -1.8087 -1.4505
  5784G12c H01N 7345   9.909   3.684   3.641 -0.1448 -2.3615  0.9889
  5784G12c H01R 7346   9.765   3.753   3.606  3.7499  0.2198 -1.2912
  5784G12c H01Q 7347   9.764   3.578   3.597  3.7381 -1.2911 -5.5359
  5784G12c C02A 7348   9.592   3.821   3.837 -1.1305  0.3619 -0.6547
  5784G12c H011 7349   9.527   3.745   3.796  1.0882 -3.0105  1.7148
  5784G12c C00C 7350   9.118   3.839   3.911  0.3496 -1.0499 -1.7942
  5784G12c H012 7351   9.214   3.791   3.907 -0.8118 -3.3293 -3.2506
  5784G12c C00B 7352   9.016   3.760   3.977 -1.5276 -0.5911 -1.1149
  5784G12c C00A 7353   9.024   3.623   3.992 -2.1773 -0.6479  1.0664
  5784G12c C009 7354   9.082   3.517   3.890 -0.9022  0.0302 -1.2282
  5784G12c C008 7355   9.146   3.493   3.766 -2.0273 -0.7098 -1.2519
  5784G12c H013 7356   9.173   3.574   3.700  2.1706  1.9222  3.4261
  5784G12c C007 7357   9.155   3.365   3.698 -0.5660  0.4656 -1.5740
  5784G12c H014 7358   9.212   3.364   3.606 -0.0639 -4.3859 -1.3443
  5784G12c C006 7359   9.079   3.267   3.758 -1.2910  0.0053  2.3395
  5784G12c C005 7360   8.993   3.294   3.869  0.1120 -0.0808  0.0310
  5784G12c C004 7361   8.890   3.207   3.901 -0.7000 -0.4749 -0.1295
  5784G12c C003 7362   8.808   3.228   4.020  0.6887 -1.4149  1.7444
  5784G12c C002 7363   8.703   3.140   4.046  0.2397  0.5419 -0.3728
  5784G12c C001 7364   8.593   3.144   4.134 -0.6415  1.2186 -1.2241
  5784G12c C00M 7365   8.507   3.261   4.147 -0.4427  2.5684 -0.4791
  5784G12c C00L 7366   8.574   3.382   4.168  0.7088  1.1244  0.7225
  5784G12c C00R 7367   8.490   3.492   4.168  1.3048  0.5779  0.6621
  5784G12c C00Q 7368   8.339   3.514   4.142 -0.2189  0.9594  0.6299
  5784G12c C00V 7369   8.308   3.648   4.130 -1.7521 -1.1033  1.1822
  5784G12c C00U 7370   8.409   3.750   4.112 -0.3003 -0.0971  0.1687
  5784G12c C00T 7371   8.547   3.724   4.119 -0.8580 -0.0653  1.4614
  5784G12c C016 7372   8.653   3.803   4.075  0.5932  0.1300 -0.3513
  5784G12c C015 7373   8.626   3.930   4.021 -0.0084 -1.1346 -0.0062
  5784G12c C010 7374   8.485   3.970   4.037 -0.5453 -0.0985 -2.0946
  5784G12c C011 7375   8.464   4.101   3.995  1.6048 -0.2941 -1.5268
  5784G12c H005 7376   8.367   4.144   4.017  4.4159  4.2482  3.4238
  5784G12c C012 7377   8.561   4.189   3.957  0.0542 -0.5835 -1.9048
  5784G12c C017 7378   8.556   4.331   3.982  2.0517  2.2936  0.9894
  5784G12c O002 7379   8.620   4.375   4.087  0.4360 -0.6769 -1.2162
  5784G12c H004 7380   8.660   4.455   4.055  0.0553 -0.7351 -1.8576
  5784G12c C018 7381   8.455   4.380   3.918  0.2963 -1.0265  0.6285
  5784G12c O001 7382   8.354   4.314   3.842 -0.7569 -1.2570  0.5371
  5784G12c H003 7383   8.349   4.325   3.749 -1.3550 -1.4690  0.5412
  5784G12c C019 7384   8.445   4.528   3.915 -1.1094  0.4365  0.5024
  5784G12c H002 7385   8.394   4.574   3.999 -1.4573 -3.1541  2.3397
  5784G12c H001 7386   8.542   4.561   3.952 -1.1353 -0.3876  1.3239
  5784G12c O000 7387   8.408   4.601   3.786  0.9889  1.3391 -0.3977
  5784G12c C01A 7388   8.277   4.651   3.790 -0.8614 -0.0448  0.5873
  5784G12c C02K 7389   8.246   4.785   3.850  0.1397  0.1678 -1.5023
  5784G12c O00G 7390   8.338   4.835   3.941 -0.8428  0.0125 -1.1537
  5784G12c C02M 7391   8.296   4.948   4.010 -0.7103 -2.1482 -0.2872
  5784G12c H01G 7392   8.239   5.014   3.944 -3.9038 -3.7269  0.7834
  5784G12c H01F 7393   8.210   4.919   4.071  2.4128 -3.2340  3.8451
  5784G12c H01E 7394   8.388   5.002   4.033 -2.3860  0.4407  0.5308
  5784G12c C02J 7395   8.128   4.855   3.813  0.7896  0.0315  1.1204
  5784G12c H01H 7396   8.097   4.939   3.873  7.1500  1.3216  2.9778
  5784G12c C02I 7397   8.038   4.807   3.722 -1.7003  1.7412 -0.0202
  5784G12c C02N 7398   7.922   4.899   3.720 -1.5202  0.2695  0.1686
  5784G12c H01M 7399   7.949   5.002   3.706 -1.3118  1.0544  5.4224
  5784G12c C02O 7400   7.805   4.847   3.717 -1.2652 -0.9981  1.6246
  5784G12c H01L 7401   7.790   4.740   3.723  1.5869 -1.9988 -4.9488
  5784G12c C02P 7402   7.686   4.943   3.686 -1.5726  0.9204  0.3393
  5784G12c H01K 7403   7.583   4.907   3.692 -2.4817  1.1989 -7.9512
  5784G12c H01J 7404   7.700   5.048   3.711  6.3449  0.6666 -1.8399
  5784G12c O00H 7405   7.669   4.942   3.554  1.2670 -0.1744 -0.4363
  5784G12c H01I 7406   7.716   4.878   3.503 -3.5230 -5.4572  1.2084
  5784G12c C02H 7407   8.072   4.674   3.668  0.0234 -0.5503  1.4643
  5784G12c H01C 7408   8.025   4.637   3.578 -0.9707  0.6363  1.4732
  5784G12c C02L 7409   8.190   4.608   3.697 -0.6592  1.2096 -0.7550
  5784G12c H01D 7410   8.200   4.513   3.647 -0.3754 -1.1021  3.5282
  5784G12c C013 7411   8.683   4.143   3.928  0.1822  1.6322 -0.4718
  5784G12c H000 7412   8.756   4.215   3.894  0.9685 -1.3064 -5.4930
  5784G12c C014 7413   8.727   4.009   3.975  0.2211 -0.6959  0.3341
  5784G12c C00F 7414   8.864   3.952   3.964  1.1501  1.1563 -0.2629
  5784G12c C00H 7415   8.781   3.745   4.057  0.0155  1.3285  0.4656
  5784G12c C00I 7416   8.816   3.617   4.116  0.7470  2.9434 -1.6284
  5784G12c C00J 7417   8.708   3.549   4.175 -2.9144 -1.8932  0.1356
  5784G12c C00Z 7418   8.373   3.881   4.076 -2.4096  0.9740 -1.6727
  5784G12c C00Y 7419   8.238   3.904   4.056  1.3253  1.4539  2.2294
  5784G12c H006 7420   8.217   4.005   4.025 -4.7595 -1.5200 -4.5395
  5784G12c C00X 7421   8.140   3.813   4.088 -0.1818  0.7530  0.6858
  5784G12c O003 7422   8.016   3.850   4.109 -0.0999  0.6642  0.8306
  5784G12c C01B 7423   7.962   3.981   4.097  1.6885 -0.2471 -0.2813
  5784G12c H009 7424   7.878   3.985   4.167  2.4941 -1.7233  0.7939
  5784G12c H008 7425   7.926   3.973   3.994 -4.7974 -0.7323  1.7605
  5784G12c H007 7426   8.025   4.062   4.134  3.5000 -0.6620 -2.3665
  5784G12c C00W 7427   8.176   3.692   4.127 -0.8816  1.2109 -2.4763
  5784G12c O004 7428   8.075   3.606   4.138 -0.2613 -0.7412 -0.2724
  5784G12c C01C 7429   8.120   3.495   4.064  0.6832 -0.4539  0.2881
  5784G12c H00A 7430   8.071   3.448   3.979  1.5159  0.8895 -0.9658
  5784G12c C00P 7431   8.230   3.425   4.129  1.0876 -1.1996  0.2830
  5784G12c C00O 7432   8.236   3.294   4.118  0.1102  0.5064 -1.5629
  5784G12c C01D 7433   8.135   3.202   4.077  0.0724 -1.5120  1.0073
  5784G12c H00S 7434   8.040   3.222   4.124 -0.5820  2.2216 -1.6733
  5784G12c C01E 7435   8.155   3.081   4.010 -0.1761  0.5424 -1.4392
  5784G12c O008 7436   8.029   3.024   3.966  1.1881  0.2467  0.5528
  5784G12c C01V 7437   7.971   2.894   3.976  2.3876 -0.9046 -0.1945
  5784G12c C01Z 7438   7.932   2.809   3.843  0.0816 -0.6096  1.6113
  5784G12c H00R 7439   8.004   2.726   3.845  1.0218  0.1729  0.8423
  5784G12c H00Q 7440   7.833   2.776   3.813 -1.8969 -1.2504  8.0555
  5784G12c O009 7441   8.002   2.907   3.755 -0.2872 -1.1486 -0.7206
  5784G12c H00P 7442   8.014   2.984   3.809 -5.0180 -1.2259  0.7009
  5784G12c C01W 7443   7.892   2.874   4.082 -0.0221 -0.6309 -0.0797
  5784G12c H00O 7444   7.811   2.803   4.077 -1.0985 -0.1759  6.1529
  5784G12c C01X 7445   7.900   2.941   4.206 -0.3051  0.5719 -0.9218
  5784G12c H00N 7446   8.007   2.923   4.221  0.4390  0.8595 -5.1056
  5784G12c H00M 7447   7.864   2.879   4.288 -0.7062  2.4573  0.3381
  5784G12c C01Y 7448   7.814   3.058   4.267 -0.9860 -0.3913 -0.7447
  5784G12c C02D 7449   7.690   3.084   4.181 -0.6818 -0.3507  1.4272
  5784G12c H019 7450   7.650   3.025   4.100  3.1457  0.6051 -1.3538
  5784G12c C02C 7451   7.603   3.175   4.246 -0.9077  0.5970  0.4833
  5784G12c H01A 7452   7.495   3.179   4.243 -1.5047 -7.1381  1.1131
  5784G12c C02B 7453   7.644   3.241   4.371 -0.2668  0.7229  0.2325
  5784G12c O00E 7454   7.553   3.302   4.447 -0.8358  1.5113  0.8123
  5784G12c H01B 7455   7.594   3.352   4.517  7.2552  2.1782 -3.8093
  5784G12c C02F 7456   7.768   3.233   4.415 -0.9610 -0.4308  1.6050
  5784G12c O00F 7457   7.819   3.342   4.501 -0.5288 -1.3055  0.7127
  5784G12c C02G 7458   7.911   3.433   4.444  1.1477 -0.0945  0.1144
  5784G12c H017 7459   7.894   3.434   4.336  0.2704 -1.9011  0.2190
  5784G12c H016 7460   7.862   3.519   4.490-11.3312 -2.5926 -6.2053
  5784G12c H015 7461   8.011   3.471   4.464  0.4847  1.1029  1.2805
  5784G12c C02E 7462   7.864   3.137   4.370 -0.4435  0.2753  0.1805
  5784G12c H018 7463   7.932   3.119   4.452 -3.5381  0.3725  2.8956
  5784G12c C01F 7464   8.277   3.034   4.009  1.4668  0.1390  0.7175
  5784G12c C01G 7465   8.322   2.940   3.903  0.7306  0.6224 -0.4820
  5784G12c H00L 7466   8.248   2.919   3.827  0.6159  1.7425 -0.6930
  5784G12c C01H 7467   8.463   2.897   3.891 -1.1295 -0.6414 -0.7181
  5784G12c H00B 7468   8.482   2.823   3.814  1.3478  0.7109 -1.4517
  5784G12c C01I 7469   8.555   2.957   3.991 -0.7741  0.6751  0.9264
  5784G12c C01U 7470   8.385   3.094   4.084  1.4238 -0.7677  1.5364
  5784G12c C00S 7471   8.584   3.599   4.178  1.2108 -0.9690  1.3300
  5784G12c C00K 7472   8.709   3.411   4.164  0.3466  1.8548  1.4085
  5784G12c C00N 7473   8.363   3.220   4.137  0.3469 -0.4950  0.9757
  5784G12c C000 7474   8.507   3.027   4.103 -0.1495 -0.3280  0.7384
  5784G12c C01J 7475   8.684   3.021   3.959  0.0620 -1.2207  1.2836
  5784G12c C01K 7476   8.769   2.983   3.845  1.2328 -1.0166 -0.6201
  5784G12c C01P 7477   8.761   2.847   3.776 -0.8954 -0.2790  0.8185
  5784G12c C01Q 7478   8.712   2.711   3.827  1.1787  0.0221  0.0762
  5784G12c H00G 7479   8.679   2.703   3.929  3.6999 -5.1313  0.6423
  5784G12c C01R 7480   8.734   2.596   3.778  0.8706 -0.6683  0.5234
  5784G12c H00F 7481   8.772   2.588   3.677 -1.7107  2.1617 -0.7537
  5784G12c C01S 7482   8.692   2.469   3.854 -0.0041 -1.7940 -0.4577
  5784G12c H00E 7483   8.594   2.490   3.898  1.5678  0.1408  2.3466
  5784G12c H00D 7484   8.730   2.457   3.956  7.0361 -1.0435 -2.7419
  5784G12c O005 7485   8.711   2.368   3.773 -0.5085 -0.4647 -1.6636
  5784G12c H00C 7486   8.804   2.353   3.780  0.1316  3.7819  0.9708
  5784G12c C01O 7487   8.879   2.829   3.685 -0.4262  0.0931  0.3440
  5784G12c H00H 7488   8.905   2.729   3.652  6.4013  1.7393 -0.1105
  5784G12c C01N 7489   8.973   2.930   3.671 -1.4696  1.2616  1.1391
  5784G12c O006 7490   9.077   2.889   3.583  1.6741  0.9410  0.2922
  5784G12c C01T 7491   9.186   2.812   3.647 -0.6556 -0.7034 -0.3812
  5784G12c H00K 7492   9.280   2.833   3.596 -0.7637  0.7773 -0.0016
  5784G12c H00J 7493   9.199   2.705   3.632  2.2171 -0.6728  1.5583
  5784G12c H00I 7494   9.223   2.841   3.745  0.5396  3.8970 -2.0579
  5784G12c C01M 7495   8.977   3.064   3.725  0.7523 -0.3227  0.2707
  5784G12c C020 7496   8.814   3.349   4.089  1.1674  0.2382  1.1353
  5784G12c C021 7497   8.921   3.433   4.043  0.7295 -0.2719  0.9091
  5784G12c C01L 7498   8.874   3.089   3.821 -0.8399 -0.1240 -0.4605
  5784G12c O007 7499   9.085   3.141   3.700  0.0140 -0.3676 -1.4314
  5784G12c C022 7500   9.011   3.406   3.941 -0.4554 -0.9626  1.5885
  5784G12c C023 7501   8.935   3.568   4.090  0.6911  1.3725 -0.4499
  5784G12c C00G 7502   8.891   3.820   4.005  0.0973  1.1543 -0.1726
  5784G12c C00E 7503   8.975   4.032   3.892  0.1500  0.2578 -0.2070
  5784G12c O00A 7504   8.960   4.167   3.850 -1.2178  0.3448  0.0401
  5784G12c C024 7505   9.043   4.244   3.933  0.3923  0.1536  0.0147
  5784G12c H00V 7506   9.036   4.214   4.037  4.1383  5.0900  1.8940
  5784G12c H00U 7507   8.977   4.326   3.958 -0.1014 -1.4479  4.2744
  5784G12c H00T 7508   9.150   4.254   3.916  0.6828 -2.3129  0.1418
  5794G12c C00D 7509  10.084   2.138   3.726  0.3335 -0.5878 -1.2071
  5794G12c O00B 7510   9.956   2.114   3.805 -0.8881 -0.2368 -1.1160
  5794G12c C025 7511   9.847   2.174   3.731  0.3476  0.2105  0.9107
  5794G12c C026 7512   9.805   2.137   3.588 -0.2560  0.6991  0.5505
  5794G12c H00Y 7513   9.874   2.122   3.505 -3.0105 -2.3311 -1.2944
  5794G12c H00X 7514   9.742   2.225   3.581  1.5342  2.0366  0.7693
  5794G12c O00C 7515   9.706   2.040   3.587  0.4865  0.0611 -1.4809
  5794G12c H00W 7516   9.744   1.986   3.654  2.4358 -4.7599 -6.1570
  5794G12c C027 7517   9.785   2.250   3.827 -0.6689  0.3088 -0.1729
  5794G12c O00D 7518   9.818   2.213   3.958 -0.8330  1.5587 -1.4427
  5794G12c H00Z 7519   9.759   2.250   4.022 -0.4417  1.2116 -0.8727
  5794G12c C028 7520   9.667   2.329   3.785  1.4348  0.2691  0.4303
  5794G12c C029 7521   9.551   2.261   3.754  0.8728 -0.1755  0.2917
  5794G12c H010 7522   9.536   2.155   3.746  0.6929  0.0576 -2.9619
  5794G12c C02T 7523   9.438   2.338   3.776  0.0803  0.6285 -0.0742
  5794G12c H01O 7524   9.344   2.284   3.781  2.9660 -4.4986  2.0500
  5794G12c C02S 7525   9.420   2.466   3.805 -0.2912 -1.9984  0.7413
  5794G12c O00J 7526   9.293   2.523   3.838 -0.3366  1.1787  1.2227
  5794G12c H01P 7527   9.320   2.609   3.868  2.9933 -0.4142  3.0389
  5794G12c C02R 7528   9.540   2.537   3.828 -0.6866 -1.6641  0.1048
  5794G12c O00I 7529   9.529   2.670   3.843  1.6827  1.4276 -1.1052
  5794G12c C02Q 7530   9.635   2.738   3.789 -0.2172  1.7746 -1.7339
  5794G12c H01N 7531   9.637   2.716   3.682 -5.6360  2.4613 -2.1207
  5794G12c H01R 7532   9.593   2.836   3.810  0.0783  0.9029  3.8797
  5794G12c H01Q 7533   9.733   2.749   3.834  3.2563 -1.6206 -7.7794
  5794G12c C02A 7534   9.660   2.468   3.802  0.4340 -1.9749 -1.0972
  5794G12c H011 7535   9.740   2.526   3.847 -1.2471 -0.7711  0.4358
  5794G12c C00C 7536  10.147   2.263   3.713  0.7016  1.8906  0.0835
  5794G12c H012 7537  10.114   2.363   3.735 -4.2812  0.2226  0.8029
  5794G12c C00B 7538  10.255   2.294   3.646 -0.0873  0.1454  1.0730
  5794G12c C00A 7539  10.345   2.410   3.664  1.2108 -0.4893 -0.6597
  5794G12c C009 7540  10.339   2.543   3.722 -0.4278 -0.8405  0.0987
  5794G12c C008 7541  10.253   2.616   3.798 -0.9215  0.2584 -0.3812
  5794G12c H013 7542  10.178   2.565   3.856 -0.9669  1.5214  0.6995
  5794G12c C007 7543  10.272   2.756   3.791 -1.8491 -0.2841  0.3601
  5794G12c H014 7544  10.210   2.838   3.824 -2.4079  0.6542 -2.8689
  5794G12c C006 7545  10.370   2.826   3.714  1.4009 -1.9856 -1.5521
  5794G12c C005 7546  10.465   2.745   3.663  1.6493 -0.0268  1.5170
  5794G12c C004 7547  10.529   2.795   3.548  1.3252 -1.0120 -1.1257
  5794G12c C003 7548  10.606   2.715   3.462 -0.3462  0.9774 -0.4292
  5794G12c C002 7549  10.667   2.775   3.356  2.6542 -0.4276  0.1101
  5794G12c C001 7550  10.723   2.733   3.226 -0.1645  1.1857  1.1158
  5794G12c C00M 7551  10.671   2.626   3.144 -0.7980  1.7059 -1.7040
  5794G12c C00L 7552  10.651   2.506   3.202 -0.4776 -0.1382 -1.5243
  5794G12c C00R 7553  10.579   2.403   3.126  0.0258 -1.7891 -1.0126
  5794G12c C00Q 7554  10.535   2.392   2.984 -0.5113 -1.0375 -1.4805
  5794G12c C00V 7555  10.481   2.268   2.971 -2.2435  0.4494  0.3611
  5794G12c C00U 7556  10.403   2.203   3.071 -1.4903  0.9265  2.1541
  5794G12c C00T 7557  10.432   2.211   3.203 -2.0762  0.0468 -0.4415
  5794G12c C016 7558  10.364   2.175   3.326  1.0215  1.2059  1.4873
  5794G12c C015 7559  10.265   2.081   3.296  0.2555  0.8969  0.3369
  5794G12c C010 7560  10.257   2.028   3.177 -0.2897 -0.0692  0.5576
  5794G12c C011 7561  10.166   1.927   3.142  0.4865  0.5688  0.7456
  5794G12c H005 7562  10.130   1.890   3.047 -2.1487  3.0199  0.7092
  5794G12c C012 7563  10.096   1.845   3.245  0.9421  0.5430  0.0887
  5794G12c C017 7564  10.005   1.717   3.236  0.0058 -1.5737 -0.1923
  5794G12c O002 7565  10.036   1.602   3.180 -1.1098  0.7309 -0.0176
  5794G12c H004 7566   9.998   1.519   3.204 -1.7176  0.4183 -1.9552
  5794G12c C018 7567   9.868   1.734   3.250 -0.3039  1.3937 -0.2156
  5794G12c O001 7568   9.808   1.832   3.321  1.2570 -0.1178  0.5427
  5794G12c H003 7569   9.736   1.821   3.381  2.5565  2.9253  2.8311
  5794G12c C019 7570   9.763   1.637   3.227 -1.5192  1.0087 -0.7502
  5794G12c H002 7571   9.666   1.679   3.199 -0.0046  1.7904 -5.2861
  5794G12c H001 7572   9.800   1.567   3.152 -1.0497  1.6980 -1.1609
  5794G12c O000 7573   9.750   1.570   3.358 -1.4576  1.1177 -1.5374
  5794G12c C01A 7574   9.815   1.459   3.391  0.0668  0.2303 -1.9372
  5794G12c C02K 7575   9.744   1.333   3.377  2.9162  0.5293  0.3427
  5794G12c O00G 7576   9.625   1.334   3.296  0.0898  1.2485  0.8297
  5794G12c C02M 7577   9.525   1.220   3.297  1.5085  0.2512  2.0113
  5794G12c H01G 7578   9.458   1.239   3.380 -4.6357 -3.1761 -1.7487
  5794G12c H01F 7579   9.576   1.125   3.316  0.0487 -1.1019 -0.5521
  5794G12c H01E 7580   9.461   1.222   3.208  2.6824 -0.0880  1.1428
  5794G12c C02J 7581   9.820   1.221   3.409 -0.6542  1.6499 -0.4961
  5794G12c H01H 7582   9.787   1.119   3.396 -3.2548  2.2578  1.0053
  5794G12c C02I 7583   9.962   1.224   3.448 -0.3841  0.4748  1.0903
  5794G12c C02N 7584  10.054   1.118   3.445  3.0273  0.0427 -0.8008
  5794G12c H01M 7585  10.043   1.025   3.392  1.9662  0.8296 -1.9691
  5794G12c C02O 7586  10.183   1.124   3.481  1.3498  0.5082 -0.3661
  5794G12c H01L 7587  10.218   1.221   3.514  0.8758  0.4484  0.3357
  5794G12c C02P 7588  10.292   1.026   3.461  1.0920  2.1629  0.7783
  5794G12c H01K 7589  10.377   1.093   3.460  5.0915 -2.1572  8.0456
  5794G12c H01J 7590  10.284   0.949   3.538 10.3141  0.3071  0.4019
  5794G12c O00H 7591  10.284   0.968   3.327 -0.3667  0.4222 -0.9839
  5794G12c H01I 7592  10.374   0.961   3.299  0.1545  0.7292  0.5229
  5794G12c C02H 7593  10.014   1.350   3.455 -1.0904  0.0961  0.2628
  5794G12c H01C 7594  10.106   1.379   3.503  0.1568 -2.4426 -0.5239
  5794G12c C02L 7595   9.931   1.457   3.450  1.0820 -0.0412  0.5969
  5794G12c H01D 7596   9.970   1.556   3.462  4.0174 -1.5440  4.2274
  5794G12c C013 7597  10.121   1.908   3.367 -0.3463 -0.9731  0.8465
  5794G12c H000 7598  10.050   1.872   3.440  1.0823  2.7818  4.2967
  5794G12c C014 7599  10.189   2.033   3.403  0.6891  0.7211  1.2968
  5794G12c C00F 7600  10.192   2.084   3.533 -1.1981  0.8350  1.7469
  5794G12c C00H 7601  10.375   2.232   3.449  0.7705  1.0343  1.4106
  5794G12c C00I 7602  10.474   2.326   3.462 -1.2186 -0.3112  2.8436
  5794G12c C00J 7603  10.557   2.354   3.351 -1.4033 -1.0067 -0.8257
  5794G12c C00Z 7604  10.318   2.097   3.057 -0.8782 -1.0580 -1.7220
  5794G12c C00Y 7605  10.274   2.094   2.921  0.4680 -1.2458 -1.2076
  5794G12c H006 7606  10.177   2.047   2.922 -0.9366  1.4618 -3.3373
  5794G12c C00X 7607  10.336   2.135   2.816 -0.1571 -0.5449 -0.5189
  5794G12c O003 7608  10.267   2.124   2.687 -0.3840  0.4678 -1.2857
  5794G12c C01B 7609  10.177   2.231   2.638  0.9349  0.2324 -1.8990
  5794G12c H009 7610  10.128   2.221   2.541  1.0848 -0.7800 -1.8750
  5794G12c H008 7611  10.213   2.332   2.655  0.3379  0.3194 -1.1285
  5794G12c H007 7612  10.082   2.225   2.692  2.1137  6.3633  1.2430
  5794G12c C00W 7613  10.441   2.217   2.837  1.0225  1.0247  0.4252
  5794G12c O004 7614  10.480   2.287   2.734 -0.2118 -0.2279  0.2054
  5794G12c C01C 7615  10.510   2.419   2.743 -0.2927  0.6628  0.4280
  5794G12c H00A 7616  10.493   2.471   2.650 -0.8674 -1.5732 -0.7644
  5794G12c C00P 7617  10.545   2.477   2.876 -0.4864 -0.3801  2.6242
  5794G12c C00O 7618  10.576   2.617   2.898  1.3355 -2.0000 -0.8988
  5794G12c C01D 7619  10.503   2.693   2.804 -0.5908 -0.0798 -0.7645
  5794G12c H00S 7620  10.434   2.652   2.731 -3.7691  2.1283  0.8939
  5794G12c C01E 7621  10.481   2.841   2.833 -1.2438 -1.9643 -1.2789
  5794G12c O008 7622  10.400   2.921   2.775  0.3791  0.1576 -0.1031
  5794G12c C01V 7623  10.449   2.983   2.660 -1.0586 -1.1010 -0.5345
  5794G12c C01Z 7624  10.397   2.921   2.536  0.5244 -0.4155  0.6899
  5794G12c H00R 7625  10.305   2.976   2.516  2.9557  5.4591  4.4204
  5794G12c H00Q 7626  10.470   2.922   2.455 -2.8710 -4.7444 -2.6856
  5794G12c O009 7627  10.349   2.767   2.536 -2.2635  0.1354  0.6995
  5794G12c H00P 7628  10.382   2.739   2.620 -2.4939 -6.2096 -1.0401
  5794G12c C01W 7629  10.558   3.057   2.661  0.4959  0.2892  0.3162
  5794G12c H00O 7630  10.577   3.087   2.763  3.0372  0.4357 -0.1677
  5794G12c C01X 7631  10.671   3.095   2.569  0.7829 -0.8160  1.7739
  5794G12c H00N 7632  10.720   3.191   2.589  5.3490 -1.3249 -5.2045
  5794G12c H00M 7633  10.642   3.113   2.466 -1.8521 -0.1558  2.5966
  5794G12c C01Y 7634  10.792   3.007   2.618 -0.7582  1.1136 -1.8265
  5794G12c C02D 7635  10.799   2.951   2.748  0.3574  0.2227  0.5173
  5794G12c H019 7636  10.737   3.003   2.819  1.4499 -2.2451  3.3844
  5794G12c C02C 7637  10.898   2.862   2.781 -0.0196  0.1146 -0.6571
  5794G12c H01A 7638  10.927   2.832   2.881 -4.5250  3.7578  1.9344
  5794G12c C02B 7639  10.987   2.813   2.681  0.5316  1.4397  1.3557
  5794G12c O00E 7640  11.070   2.709   2.690  0.5439  0.1000 -1.9449
  5794G12c H01B 7641  11.048   2.622   2.721  2.7524  0.3038  0.3457
  5794G12c C02F 7642  10.949   2.838   2.544 -0.9527 -2.0435  1.8219
  5794G12c O00F 7643  10.994   2.774   2.430  0.7763  0.0139  0.4665
  5794G12c C02G 7644  10.895   2.684   2.384 -0.9398  1.0476  0.1699
  5794G12c H017 7645  10.812   2.646   2.442 -0.1642 -5.1280 -2.3877
  5794G12c H016 7646  10.842   2.738   2.305 -3.0327 -2.2639 -0.8180
  5794G12c H015 7647  10.949   2.595   2.351 -7.5039 -4.5830  3.3792
  5794G12c C02E 7648  10.849   2.939   2.509  0.1283 -0.7823  0.5655
  5794G12c H018 7649  10.842   2.978   2.409 -0.9040 -1.2082  0.4641
  5794G12c C01F 7650  10.563   2.886   2.953  0.1852 -1.4805  0.0341
  5794G12c C01G 7651  10.549   3.034   2.997 -1.9593 -0.2727 -0.3351
  5794G12c H00L 7652  10.476   3.103   2.955 -4.5854 -2.0253  1.1759
  5794G12c C01H 7653  10.609   3.055   3.131 -0.6075 -0.4021  0.0422
  5794G12c H00B 7654  10.573   3.147   3.175  3.1037 -1.1776  5.1754
  5794G12c C01I 7655  10.685   2.956   3.206 -0.4588  1.2288 -0.6073
  5794G12c C01U 7656  10.651   2.810   3.022  0.2482  1.1412 -0.6795
  5794G12c C00S 7657  10.532   2.309   3.220  0.0584 -0.0036 -0.4211
  5794G12c C00K 7658  10.619   2.491   3.347  0.9977  0.8642  0.8385
  5794G12c C00N 7659  10.631   2.671   3.015 -0.1610  0.1579  1.4988
  5794G12c C000 7660  10.716   2.857   3.132 -0.2278 -0.6761 -2.0462
  5794G12c C01J 7661  10.679   2.928   3.344  0.1466 -0.9723  0.5137
  5794G12c C01K 7662  10.622   3.014   3.440  0.3813  0.1412 -0.6643
  5794G12c C01P 7663  10.649   3.155   3.470 -0.2414  0.7724  1.6717
  5794G12c C01Q 7664  10.731   3.211   3.365  0.3537  0.7146 -1.4086
  5794G12c H00G 7665  10.800   3.149   3.309 -1.8672 -3.0476 -0.1654
  5794G12c C01R 7666  10.737   3.341   3.340 -0.3896  0.0452 -0.5528
  5794G12c H00F 7667  10.692   3.412   3.407  2.7261  4.9299 -3.3296
  5794G12c C01S 7668  10.806   3.402   3.221 -0.6382  0.7397  0.7180
  5794G12c H00E 7669  10.768   3.501   3.247 -2.4030  0.0012  1.0539
  5794G12c H00D 7670  10.914   3.411   3.218 -0.6418  2.9262  4.2320
  5794G12c O005 7671  10.754   3.373   3.084 -0.5133  1.5422  1.0136
  5794G12c H00C 7672  10.827   3.387   3.026 -4.0660  3.0111 -3.3577
  5794G12c C01O 7673  10.572   3.216   3.562  0.0511  0.3250  0.6680
  5794G12c H00H 7674  10.549   3.322   3.568  1.5914  0.6130  1.9868
  5794G12c C01N 7675  10.448   3.159   3.614  2.0840  1.8024 -2.5714
  5794G12c O006 7676  10.396   3.232   3.719  0.0112  1.2252 -0.4298
  5794G12c C01T 7677  10.280   3.314   3.668  0.6346  0.8243 -1.5012
  5794G12c H00K 7678  10.190   3.316   3.730  2.6727 -1.9292  1.7156
  5794G12c H00J 7679  10.278   3.315   3.559 -3.2821  1.2758 -1.5008
  5794G12c H00I 7680  10.333   3.410   3.666 -0.5712  1.6107  1.5917
  5794G12c C01M 7681  10.441   3.011   3.620 -0.1817 -1.2801 -0.2150
  5794G12c C020 7682  10.594   2.575   3.467 -1.0527  0.6805 -0.3992
  5794G12c C021 7683  10.527   2.526   3.588  0.4709 -1.8504 -0.9816
  5794G12c C01L 7684  10.533   2.936   3.537  1.2295  0.5510  1.0181
  5794G12c O007 7685  10.346   2.961   3.705 -0.1303 -0.1833  0.4786
  5794G12c C022 7686  10.459   2.609   3.657 -0.4819  0.8334 -0.8773
  5794G12c C023 7687  10.459   2.405   3.579  0.0320 -0.4825  1.0790
  5794G12c C00G 7688  10.285   2.198   3.548 -0.3416  0.0342 -0.7731
  5794G12c C00E 7689  10.114   2.043   3.637 -0.2356  1.2370 -0.0499
  5794G12c O00A 7690  10.025   1.939   3.654  0.4873  0.2469  0.9266
  5794G12c C024 7691  10.088   1.855   3.745 -2.1291 -0.6986  0.6549
  5794G12c H00V 7692  10.015   1.782   3.780 -0.3400 -2.9662 -0.2186
  5794G12c H00U 7693  10.117   1.880   3.847 -7.0029 -3.9345  2.9954
  5794G12c H00T 7694  10.146   1.786   3.683  3.7518  2.1473  2.6064
  5804G12c C00D 7695   0.203   6.952   0.651  0.5850 -1.0361 -0.3270
  5804G12c O00B 7696   0.284   6.843   0.603  1.9022  1.0347  0.3751
  5804G12c C025 7697   0.319   6.738   0.694 -0.0842  0.1195  0.9261
  5804G12c C026 7698   0.214   6.617   0.692 -0.3245 -1.1113 -0.7479
  5804G12c H00Y 7699   0.110   6.650   0.693 -0.5825 -1.8626  3.6298
  5804G12c H00X 7700   0.226   6.562   0.785  0.1871 -1.8573 -1.2511
  5804G12c O00C 7701   0.223   6.530   0.580  0.6740  0.1408  0.1248
  5804G12c H00W 7702   0.264   6.581   0.512 -0.1728 -2.3238 -2.3500
  5804G12c C027 7703   0.439   6.752   0.770  0.8100  1.5038  0.4454
  5804G12c O00D 7704   0.507   6.869   0.771  1.1980 -0.0788  0.7597
  5804G12c H00Z 7705   0.548   6.849   0.854 -6.9348 -0.5945  5.1417
  5804G12c C028 7706   0.481   6.672   0.876  0.5032  1.9539 -0.9551
  5804G12c C029 7707   0.531   6.548   0.834  0.7700  1.0923 -0.5433
  5804G12c H010 7708   0.531   6.495   0.740  5.7950 -0.8971  0.4283
  5804G12c C02T 7709   0.569   6.452   0.924 -0.3643  0.9271 -0.0944
  5804G12c H01O 7710   0.590   6.348   0.904  0.7376  1.1326 -0.0320
  5804G12c C02S 7711   0.597   6.488   1.067 -1.0762  0.6339  0.1965
  5804G12c O00J 7712   0.687   6.413   1.140  0.0301  1.3643  1.2765
  5804G12c H01P 7713   0.740   6.337   1.119 -1.1554  1.0797 -0.9677
  5804G12c C02R 7714   0.569   6.622   1.103 -1.5271 -0.4620  0.0933
  5804G12c O00I 7715   0.602   6.666   1.229  1.4292  0.1139 -0.0573
  5804G12c C02Q 7716   0.490   6.771   1.287  1.5955  0.6504  0.0150
  5804G12c H01N 7717   0.403   6.710   1.259  5.9205 -5.6747 -0.7781
  5804G12c H01R 7718   0.506   6.861   1.228 -2.4393  1.0093 -0.6684
  5804G12c H01Q 7719   0.458   6.788   1.389  6.0720 -2.2285  2.0662
  5804G12c C02A 7720   0.510   6.702   1.016  1.2533  1.4003 -0.0975
  5804G12c H011 7721   0.469   6.797   1.045 -0.5299 -1.2157  6.9927
  5804G12c C00C 7722   0.215   7.017   0.762 -0.6679 -0.8839 -2.3660
  5804G12c H012 7723   0.301   6.997   0.825  0.4759  0.8890 -3.3128
  5804G12c C00B 7724   0.124   7.106   0.825  0.1810 -0.4626 -1.5769
  5804G12c C00A 7725   0.097   7.147   0.960 -0.4970 -0.2254  0.0501
  5804G12c C009 7726   0.136   7.072   1.066  0.1076  0.0888 -0.3428
  5804G12c C008 7727   0.186   6.938   1.083  1.9841 -0.8313  0.0135
  5804G12c H013 7728   0.261   6.884   1.027  6.7290  7.2416 -2.2883
  5804G12c C007 7729   0.146   6.875   1.203 -0.1826  0.0696  1.6174
  5804G12c H014 7730   0.186   6.777   1.227 -1.3821 -0.5794  1.0179
  5804G12c C006 7731   0.053   6.933   1.295  1.0648 -0.4725  0.6103
  5804G12c C005 7732  -0.001   7.055   1.258 -0.1794 -0.6328  0.1628
  5804G12c C004 7733  -0.099   7.120   1.334  0.4362 -0.7586 -1.3896
  5804G12c C003 7734  -0.152   7.246   1.293 -1.1616  0.9397  0.3605
  5804G12c C002 7735  -0.258   7.317   1.375  0.1264  0.9844 -2.6189
  5804G12c C001 7736  -0.361   7.418   1.334 -0.5507  1.5106  0.4872
  5804G12c C00M 7737  -0.416   7.418   1.195  1.0321 -0.5202  0.9042
  5804G12c C00L 7738  -0.343   7.357   1.087 -0.0308 -1.7727 -0.2802
  5804G12c C00R 7739  -0.392   7.413   0.968  0.9572  0.1366  0.5089
  5804G12c C00Q 7740  -0.531   7.397   0.918  1.3984  0.8693  0.2089
  5804G12c C00V 7741  -0.540   7.379   0.775  0.0036 -0.6577 -1.2266
  5804G12c C00U 7742  -0.422   7.334   0.706  1.4167 -1.1232 -0.7085
  5804G12c C00T 7743  -0.289   7.331   0.759 -0.9302  0.9115 -0.1449
  5804G12c C016 7744  -0.181   7.273   0.698 -0.0618  0.9527 -0.7209
  5804G12c C015 7745  -0.205   7.202   0.583  1.1891 -2.6685  2.1435
  5804G12c C010 7746  -0.343   7.209   0.525 -1.5915 -0.1980 -0.6247
  5804G12c C011 7747  -0.360   7.119   0.406  1.3212 -0.9725 -1.1866
  5804G12c H005 7748  -0.452   7.151   0.359  0.8255 -0.9523 -0.2100
  5804G12c C012 7749  -0.248   7.054   0.344 -0.5240 -2.7225 -0.5391
  5804G12c C017 7750  -0.282   6.980   0.208  1.0146  0.9779  1.6744
  5804G12c O002 7751  -0.393   7.022   0.124 -0.8284  0.5719  1.3035
  5804G12c H004 7752  -0.371   6.970   0.048  4.4478 -1.0399  3.6557
  5804G12c C018 7753  -0.209   6.871   0.184  0.3425 -0.2501  0.1194
  5804G12c O001 7754  -0.136   6.824   0.294 -0.1062 -0.4700  0.2676
  5804G12c H003 7755  -0.149   6.732   0.281 -0.7269 -0.4753  0.9086
  5804G12c C019 7756  -0.260   6.760   0.082 -0.2058 -0.0751  1.4873
  5804G12c H002 7757  -0.367   6.770   0.061  0.3222 -3.0126 -3.1422
  5804G12c H001 7758  -0.198   6.739  -0.004  6.1419  1.6536  5.3184
  5804G12c O000 7759  -0.294   6.641   0.147  0.6047 -0.0441  1.0207
  5804G12c C01A 7760  -0.383   6.556   0.093  0.6921  1.3689 -1.1069
  5804G12c C02K 7761  -0.505   6.537   0.166 -1.2132  0.6268  0.7380
  5804G12c O00G 7762  -0.529   6.656   0.232 -0.2367  1.4151 -0.7483
  5804G12c C02M 7763  -0.575   6.680   0.345 -0.3656 -0.2758 -2.5789
  5804G12c H01G 7764  -0.516   6.657   0.434  0.9534 -0.6695 -3.5291
  5804G12c H01F 7765  -0.683   6.668   0.352 -1.3883  4.9216 -6.3747
  5804G12c H01E 7766  -0.541   6.780   0.323 -3.5562  0.7021 -3.3603
  5804G12c C02J 7767  -0.593   6.426   0.148 -2.4556  0.3198  0.4751
  5804G12c H01H 7768  -0.683   6.439   0.207 -4.3323 -0.9387 -2.0720
  5804G12c C02I 7769  -0.568   6.341   0.041 -0.6652 -0.1051  0.0740
  5804G12c C02N 7770  -0.671   6.230   0.022  0.5634  0.8001 -1.0552
  5804G12c H01M 7771  -0.624   6.136  -0.002  2.4844  0.7245  2.6067
  5804G12c C02O 7772  -0.801   6.211   0.064  1.5215 -1.7064  1.5133
  5804G12c H01L 7773  -0.842   6.292   0.122  0.3436  2.2210 -4.2896
  5804G12c C02P 7774  -0.892   6.104   0.036 -0.0693 -0.5080  0.8115
  5804G12c H01K 7775  -0.954   6.077   0.121 -5.9872  4.4142 -1.5847
  5804G12c H01J 7776  -0.857   6.002   0.021  6.2668  1.6451 -0.7614
  5804G12c O00H 7777  -0.962   6.140  -0.081 -1.7250  0.2280  0.6894
  5804G12c H01I 7778  -0.906   6.191  -0.138  2.8336 -5.0561  0.0658
  5804G12c C02H 7779  -0.451   6.355  -0.020 -1.7098 -0.4129 -0.2044
  5804G12c H01C 7780  -0.449   6.265  -0.082  4.1694  0.6161 -1.8158
  5804G12c C02L 7781  -0.349   6.460   0.002  1.3300  1.5419 -0.6327
  5804G12c H01D 7782  -0.273   6.472  -0.074  0.4707  0.2734 -1.7157
  5804G12c C013 7783  -0.120   7.078   0.400 -0.0976 -0.0927  0.3745
  5804G12c H000 7784  -0.033   7.066   0.337  0.2439 -2.4817  1.2552
  5804G12c C014 7785  -0.104   7.140   0.527 -1.1253  0.0479  0.2526
  5804G12c C00F 7786   0.016   7.108   0.603 -1.0346 -1.3524  1.2563
  5804G12c C00H 7787  -0.069   7.258   0.784 -0.1716  1.2632  0.2768
  5804G12c C00I 7788  -0.066   7.332   0.907 -0.2756  0.3936  1.3342
  5804G12c C00J 7789  -0.176   7.408   0.951 -0.8013 -0.3249 -0.0739
  5804G12c C00Z 7790  -0.441   7.310   0.570  0.6594 -0.0357  0.2165
  5804G12c C00Y 7791  -0.558   7.344   0.503  0.8785 -0.0946  0.5418
  5804G12c H006 7792  -0.574   7.317   0.400 -1.0320 -6.4579  2.2894
  5804G12c C00X 7793  -0.675   7.399   0.565  0.5929 -1.3396  2.6725
  5804G12c O003 7794  -0.780   7.447   0.488  0.0518  0.1519 -0.3699
  5804G12c C01B 7795  -0.768   7.403   0.358  1.1677  1.1731  1.5718
  5804G12c H009 7796  -0.776   7.294   0.362  2.9295  0.9758  0.2778
  5804G12c H008 7797  -0.867   7.431   0.322 -1.4917 -1.7822  5.9723
  5804G12c H007 7798  -0.699   7.469   0.307 -2.6415  3.8522 -0.3202
  5804G12c C00W 7799  -0.671   7.407   0.707 -1.3086  1.6405  0.5942
  5804G12c O004 7800  -0.789   7.415   0.773  0.1147 -0.3033 -0.4423
  5804G12c C01C 7801  -0.772   7.383   0.906  0.2384  1.4459 -1.2944
  5804G12c H00A 7802  -0.863   7.368   0.961 -0.7185  5.6522 -1.5256
  5804G12c C00P 7803  -0.652   7.391   0.993  0.0987  0.2169 -2.3337
  5804G12c C00O 7804  -0.668   7.389   1.140  1.1022  0.6697  0.1434
  5804G12c C01D 7805  -0.794   7.358   1.191  1.6160  1.5886 -1.3218
  5804G12c H00S 7806  -0.886   7.335   1.137 -0.1802 -0.3353  2.3857
  5804G12c C01E 7807  -0.816   7.297   1.313 -2.2363 -0.5677 -2.2602
  5804G12c O008 7808  -0.903   7.195   1.323 -0.4635  0.0480 -0.4870
  5804G12c C01V 7809  -0.949   7.121   1.207 -0.4493 -0.2647  2.8360
  5804G12c C01Z 7810  -1.097   7.075   1.197  0.4549 -0.4000  0.2100
  5804G12c H00R 7811  -1.152   7.108   1.109 -6.2249 -0.8200  3.8701
  5804G12c H00Q 7812  -1.097   6.966   1.186  2.0923 -0.6509  2.4326
  5804G12c O009 7813  -1.145   7.089   1.325  0.2152 -0.7165 -1.3205
  5804G12c H00P 7814  -1.103   7.034   1.390  1.5648 -0.2682 -1.7823
  5804G12c C01W 7815  -0.866   7.041   1.149 -2.0859 -0.2434  0.4119
  5804G12c H00O 7816  -0.762   7.048   1.176 -3.4147  5.4045  4.9314
  5804G12c C01X 7817  -0.893   6.926   1.046  3.0414 -2.2268 -0.0663
  5804G12c H00N 7818  -0.867   6.837   1.103  5.6872 -0.0303  2.3058
  5804G12c H00M 7819  -1.000   6.918   1.030  3.1362  0.7899 -2.5419
  5804G12c C01Y 7820  -0.802   6.957   0.919  1.3485  0.2221 -0.4606
  5804G12c C02D 7821  -0.863   6.945   0.784  1.4205  0.1936 -2.2699
  5804G12c H019 7822  -0.965   6.923   0.758  1.5308 -2.3165 -0.7274
  5804G12c C02C 7823  -0.793   6.967   0.663  0.0042  1.0093 -0.4953
  5804G12c H01A 7824  -0.869   6.942   0.590 -5.6245 -1.6209  5.7574
  5804G12c C02B 7825  -0.655   7.001   0.671 -0.4272  2.0418 -1.2099
  5804G12c O00E 7826  -0.587   7.018   0.552  0.8606  0.9579  0.0626
  5804G12c H01B 7827  -0.493   7.025   0.549  0.8726  0.7521 -0.0689
  5804G12c C02F 7828  -0.592   7.013   0.799  1.0504  0.3864 -1.6411
  5804G12c O00F 7829  -0.471   7.060   0.778 -0.0382  0.5840  0.3251
  5804G12c C02G 7830  -0.366   6.962   0.779  0.5344 -0.1871 -0.3007
  5804G12c H017 7831  -0.314   6.946   0.873  1.5789  1.1675 -0.6286
  5804G12c H016 7832  -0.280   7.016   0.740  1.5641  1.1646  3.6632
  5804G12c H015 7833  -0.422   6.869   0.776 -1.5725  0.9843  1.5399
  5804G12c C02E 7834  -0.669   6.996   0.920 -0.6309 -1.4324 -0.3629
  5804G12c H018 7835  -0.633   7.014   1.020 -2.2487 -1.1314  0.1814
  5804G12c C01F 7836  -0.705   7.313   1.402  1.0153  1.0103  0.2612
  5804G12c C01G 7837  -0.688   7.228   1.514  0.3477 -1.0352  1.3551
  5804G12c H00L 7838  -0.765   7.216   1.588  5.1898 -0.3650  6.8593
  5804G12c C01H 7839  -0.550   7.197   1.562  0.6506  0.6707 -1.5713
  5804G12c H00B 7840  -0.540   7.111   1.625  0.0620  2.4078  0.9800
  5804G12c C01I 7841  -0.436   7.290   1.526 -0.1230 -1.5261 -1.1558
  5804G12c C01U 7842  -0.588   7.373   1.368 -0.3826  2.2653  1.4294
  5804G12c C00S 7843  -0.281   7.419   0.864  1.2746  1.2602  1.4308
  5804G12c C00K 7844  -0.211   7.378   1.094 -0.8699 -0.4801  0.9859
  5804G12c C00N 7845  -0.565   7.407   1.231 -0.4743 -1.0062 -0.4683
  5804G12c C000 7846  -0.474   7.400   1.425  1.2447 -0.6629  1.9231
  5804G12c C01J 7847  -0.302   7.243   1.495 -0.1428  0.1036  1.2784
  5804G12c C01K 7848  -0.229   7.119   1.549 -0.3932 -0.1647 -1.2028
  5804G12c C01P 7849  -0.242   7.066   1.679 -0.2110 -0.1268 -0.0715
  5804G12c C01Q 7850  -0.332   7.123   1.781  1.1617  0.6748  0.4396
  5804G12c H00G 7851  -0.332   7.227   1.755  9.0384  1.4782  2.2602
  5804G12c C01R 7852  -0.375   7.064   1.890 -0.2440  1.8687 -0.8231
  5804G12c H00F 7853  -0.370   6.958   1.911 -3.6174  2.9359  7.1906
  5804G12c C01S 7854  -0.476   7.137   1.979 -0.6349  1.3816 -0.9296
  5804G12c H00E 7855  -0.447   7.158   2.082  1.3997 -3.6397 -0.3347
  5804G12c H00D 7856  -0.436   7.236   1.957  2.6586 -0.0418 -1.5855
  5804G12c O005 7857  -0.621   7.147   1.959  0.2929  0.7777  0.1408
  5804G12c H00C 7858  -0.653   7.059   1.970 -3.7843  1.7269 -2.8485
  5804G12c C01O 7859  -0.167   6.949   1.721  0.5752  1.0249 -0.9615
  5804G12c H00H 7860  -0.183   6.927   1.826 -2.2189  2.4911 -1.0285
  5804G12c C01N 7861  -0.089   6.896   1.628  1.1640 -0.2193 -1.0439
  5804G12c O006 7862  -0.045   6.774   1.668 -0.2328  0.5540 -0.1393
  5804G12c C01T 7863  -0.014   6.719   1.803 -1.1624  0.8141 -0.9970
  5804G12c H00K 7864  -0.092   6.724   1.878 -1.2934 -0.7323 -1.0193
  5804G12c H00J 7865   0.026   6.622   1.776-10.3210 -2.1924 -5.8033
  5804G12c H00I 7866   0.080   6.771   1.824 -1.5209 -0.0333  3.1362
  5804G12c C01M 7867  -0.060   6.947   1.506  0.2686  0.7719  0.2982
  5804G12c C020 7868  -0.122   7.296   1.158 -0.5399  0.4377 -0.7361
  5804G12c C021 7869   0.002   7.258   1.117 -0.9977 -1.0981  0.9776
  5804G12c C01L 7870  -0.132   7.067   1.457  1.2588 -0.6479 -0.4487
  5804G12c O007 7871   0.030   6.876   1.418  0.7398  0.1843 -1.9192
  5804G12c C022 7872   0.064   7.141   1.156  0.0876 -0.3782  1.3875
  5804G12c C023 7873   0.043   7.289   0.986 -0.1879 -0.3140  1.2181
  5804G12c C00G 7874   0.030   7.166   0.737 -1.0095 -0.1644  0.0922
  5804G12c C00E 7875   0.110   7.004   0.562 -0.8458 -0.0714  0.7209
  5804G12c O00A 7876   0.104   6.936   0.445  0.7382  1.0352 -0.8255
  5804G12c C024 7877   0.215   6.951   0.372  0.7162  0.3643 -0.1634
  5804G12c H00V 7878   0.286   7.022   0.413  4.0785 -2.0948 -1.4866
  5804G12c H00U 7879   0.179   7.006   0.286  3.0180 -0.7760 -1.9064
  5804G12c H00T 7880   0.254   6.854   0.340 -1.8435 -1.8304  3.0383
  5814G12c C00D 7881  12.712   3.028   1.533 -0.1555  0.1254 -1.1736
  5814G12c O00B 7882  12.624   3.062   1.630  2.0042  0.1489 -1.1081
  5814G12c C025 7883  12.504   2.974   1.617 -1.8172  0.6942  1.3804
  5814G12c C026 7884  12.381   3.022   1.560  0.2383 -0.1205 -0.5615
  5814G12c H00Y 7885  12.309   3.050   1.637  0.1030  3.1037 -1.7494
  5814G12c H00X 7886  12.440   3.070   1.482  1.8571 -5.4897 -2.8724
  5814G12c O00C 7887  12.317   2.926   1.477 -0.7106 -0.0609 -1.2271
  5814G12c H00W 7888  12.318   2.841   1.517 -4.8164 -0.4991 -1.7673
  5814G12c C027 7889  12.506   2.864   1.699  1.8714 -1.6774 -1.8680
  5814G12c O00D 7890  12.609   2.834   1.781  0.3811 -0.3366 -0.2326
  5814G12c H00Z 7891  12.674   2.900   1.760 -1.1769  2.4539  3.1239
  5814G12c C028 7892  12.393   2.782   1.725 -0.8400  1.3070 -1.6621
  5814G12c C029 7893  12.285   2.818   1.812 -0.9140 -1.1094  0.4560
  5814G12c H010 7894  12.284   2.920   1.848 -1.4747  0.6930 -4.2731
  5814G12c C02T 7895  12.192   2.729   1.840 -0.3701  0.9780  0.2147
  5814G12c H01O 7896  12.123   2.744   1.922  0.4227 -1.2341  1.3359
  5814G12c C02S 7897  12.177   2.593   1.791  1.6007  0.2210 -0.4424
  5814G12c O00J 7898  12.066   2.527   1.816 -1.7876  1.3680  0.6707
  5814G12c H01P 7899  12.024   2.485   1.743 -2.4086  6.2680 -1.9865
  5814G12c C02R 7900  12.262   2.580   1.671  0.7353 -2.3999  0.2528
  5814G12c O00I 7901  12.234   2.476   1.581 -1.1746 -0.2329 -1.1651
  5814G12c C02Q 7902  12.101   2.413   1.545  0.2362  0.3012  0.2854
  5814G12c H01N 7903  12.067   2.372   1.640 -2.7529  9.4017  3.6678
  5814G12c H01R 7904  12.103   2.328   1.477  2.1440 -1.1413  2.0550
  5814G12c H01Q 7905  12.016   2.480   1.558 -3.5248 -4.3071  0.6301
  5814G12c C02A 7906  12.366   2.675   1.639  0.0105 -0.0885 -0.6346
  5814G12c H011 7907  12.449   2.692   1.572 -1.6143 -3.5758 -3.7071
  5814G12c C00C 7908  12.766   2.901   1.528 -1.3257  0.5048 -0.2393
  5814G12c H012 7909  12.715   2.817   1.573 -1.9477  0.3059 -1.3105
  5814G12c C00B 7910  12.830   2.866   1.415 -0.2590 -1.2379  1.0031
  5814G12c C00A 7911  12.834   2.757   1.317  0.4690 -2.0982 -1.6375
  5814G12c C009 7912  12.815   2.619   1.380 -1.3907 -0.1285 -0.3487
  5814G12c C008 7913  12.740   2.569   1.479 -0.5633  0.6395 -1.2644
  5814G12c H013 7914  12.669   2.646   1.505  4.6999  4.7880  1.7684
  5814G12c C007 7915  12.769   2.422   1.495 -0.0846 -0.6046  1.3336
  5814G12c H014 7916  12.723   2.384   1.585 -1.6975  1.8590  1.5870
  5814G12c C006 7917  12.886   2.352   1.463 -0.2929 -0.1332 -0.0934
  5814G12c C005 7918  12.950   2.417   1.355  0.0945 -0.2461  0.2644
  5814G12c C004 7919  13.071   2.377   1.303 -2.2896  0.7469  0.0108
  5814G12c C003 7920  13.150   2.466   1.220 -1.8367  0.3127 -0.1116
  5814G12c C002 7921  13.287   2.403   1.170  1.5871  1.6267 -1.7865
  5814G12c C001 7922  13.378   2.473   1.085 -2.0262  0.6329  0.4970
  5814G12c C00M 7923  13.425   2.618   1.096 -0.3707  0.4847 -0.5719
  5814G12c C00L 7924  13.352   2.715   1.126  0.8355 -0.7095  1.0968
  5814G12c C00R 7925  13.391   2.837   1.178 -0.8157 -0.4140  2.1977
  5814G12c C00Q 7926  13.508   2.911   1.191 -0.2572  1.6381  2.0601
  5814G12c C00V 7927  13.486   3.046   1.237 -0.0887 -0.1554 -0.4824
  5814G12c C00U 7928  13.360   3.100   1.265  0.4045 -0.2938 -1.2911
  5814G12c C00T 7929  13.252   3.017   1.262 -0.3931 -1.8050 -0.0667
  5814G12c C016 7930  13.117   3.050   1.284 -0.7874  0.9512  0.2387
  5814G12c C015 7931  13.100   3.177   1.335  0.6367 -1.9325 -0.5119
  5814G12c C010 7932  13.201   3.277   1.327 -1.6063 -0.8876 -1.6155
  5814G12c C011 7933  13.182   3.402   1.380  0.6669 -0.8644 -1.8117
  5814G12c H005 7934  13.260   3.476   1.391 -1.0450  0.6055  0.7663
  5814G12c C012 7935  13.058   3.453   1.419 -1.1252 -0.3637  0.3284
  5814G12c C017 7936  13.038   3.591   1.453 -1.3514  1.1764 -2.0649
  5814G12c O002 7937  12.991   3.654   1.346 -1.0004 -1.3374 -0.0360
  5814G12c H004 7938  12.977   3.744   1.372 -4.0847 -0.5689 -3.8823
  5814G12c C018 7939  13.105   3.658   1.542  0.4513 -2.0827 -0.3806
  5814G12c O001 7940  13.189   3.595   1.630 -0.9458  0.2902 -1.1991
  5814G12c H003 7941  13.196   3.507   1.596  0.3488 -1.1144  2.3763
  5814G12c C019 7942  13.081   3.812   1.579  0.7579 -0.4618 -1.1829
  5814G12c H002 7943  13.064   3.801   1.686 -2.1978 -3.5595 -1.8665
  5814G12c H001 7944  13.180   3.856   1.588  3.0816 -5.8187  2.1435
  5814G12c O000 7945  12.952   3.862   1.543  0.0789  0.1874 -0.2907
  5814G12c C01A 7946  12.941   3.997   1.553  0.3976 -1.1310  0.5528
  5814G12c C02K 7947  12.903   4.071   1.436  0.6135  0.8647  0.6771
  5814G12c O00G 7948  12.936   4.011   1.311 -0.8371  0.3014  0.7218
  5814G12c C02M 7949  12.858   4.039   1.193  1.0566 -0.5388  1.4966
  5814G12c H01G 7950  12.883   3.955   1.128  0.5852  1.5028 -1.4747
  5814G12c H01F 7951  12.908   4.129   1.156  7.4006 -4.7290 -0.8616
  5814G12c H01E 7952  12.749   4.039   1.198  0.7708 -1.7548 -2.7251
  5814G12c C02J 7953  12.815   4.186   1.448  0.3303  0.7259 -0.4641
  5814G12c H01H 7954  12.770   4.230   1.361 -1.4021  1.4052  0.7420
  5814G12c C02I 7955  12.809   4.255   1.561  0.6309  0.5098 -0.1911
  5814G12c C02N 7956  12.762   4.394   1.567  1.1050 -0.4482  0.8972
  5814G12c H01M 7957  12.667   4.405   1.618  2.5368  1.7599  3.2183
  5814G12c C02O 7958  12.779   4.501   1.471  0.3935  0.7397  0.1543
  5814G12c H01L 7959  12.707   4.582   1.476  2.5570  3.5210 -7.2769
  5814G12c C02P 7960  12.876   4.518   1.355 -1.2125 -0.4636 -0.9959
  5814G12c H01K 7961  12.985   4.511   1.357 -0.9973  2.1660 -1.8643
  5814G12c H01J 7962  12.849   4.435   1.289 -6.3226 -0.8225  1.2884
  5814G12c O00H 7963  12.845   4.639   1.286  1.3603 -0.6429 -0.3192
  5814G12c H01I 7964  12.882   4.634   1.200  1.5507  1.7355 -0.4006
  5814G12c C02H 7965  12.885   4.220   1.682  2.1433 -0.5232 -1.1266
  5814G12c H01C 7966  12.913   4.296   1.753  3.1585 -0.3347 -1.7194
  5814G12c C02L 7967  12.943   4.089   1.679 -0.0597  1.2953 -0.2264
  5814G12c H01D 7968  13.005   4.054   1.760  0.9179  6.2652  1.3316
  5814G12c C013 7969  12.957   3.359   1.416  1.9970 -0.0789  0.5004
  5814G12c H000 7970  12.856   3.396   1.408  0.5144 -3.1383  3.4430
  5814G12c C014 7971  12.983   3.225   1.394  2.5814 -0.8561  0.5587
  5814G12c C00F 7972  12.894   3.128   1.416 -0.1048  1.5803 -0.3130
  5814G12c C00H 7973  13.020   2.961   1.296 -0.4132  2.6608 -0.0643
  5814G12c C00I 7974  13.044   2.832   1.243 -0.1573 -0.2433 -0.0326
  5814G12c C00J 7975  13.173   2.802   1.197  0.6580 -0.4829  0.4106
  5814G12c C00Z 7976  13.340   3.224   1.314  0.7470 -0.6560  1.3957
  5814G12c C00Y 7977  13.454   3.308   1.356 -0.4202  0.6443  0.0636
  5814G12c H006 7978  13.441   3.406   1.399  4.5252  1.6191 -0.3738
  5814G12c C00X 7979  13.576   3.268   1.307 -0.3583 -0.6168 -1.4069
  5814G12c O003 7980  13.674   3.361   1.292  0.4897  0.9847 -0.6062
  5814G12c C01B 7981  13.649   3.500   1.309  1.0195 -0.2537 -1.3275
  5814G12c H009 7982  13.642   3.544   1.409  4.9012  1.9969 -1.9360
  5814G12c H008 7983  13.580   3.541   1.236  0.9153  5.1690  1.5567
  5814G12c H007 7984  13.734   3.541   1.255  1.3044 -2.5596 -2.6765
  5814G12c C00W 7985  13.601   3.137   1.253 -0.4104 -0.9549 -1.1704
  5814G12c O004 7986  13.723   3.089   1.234  0.7206 -0.3792  0.4398
  5814G12c C01C 7987  13.754   2.965   1.188  0.2656  0.1846 -1.2744
  5814G12c H00A 7988  13.834   2.957   1.115  3.1707 -6.2337  2.1078
  5814G12c C00P 7989  13.647   2.868   1.164  1.4437 -1.3536  2.2571
  5814G12c C00O 7990  13.656   2.735   1.139  0.8067 -1.9348 -0.8817
  5814G12c C01D 7991  13.783   2.691   1.185  0.1491 -1.5327  0.2880
  5814G12c H00S 7992  13.876   2.746   1.181  0.6830 -2.5308 -6.8720
  5814G12c C01E 7993  13.800   2.570   1.247 -1.2381 -0.2914  0.9570
  5814G12c O008 7994  13.919   2.564   1.320 -0.3679 -0.7819  0.9944
  5814G12c C01V 7995  13.940   2.499   1.440  0.1898  0.7277 -1.7981
  5814G12c C01Z 7996  13.819   2.523   1.544 -0.6798  1.2460  0.2408
  5814G12c H00R 7997  13.836   2.563   1.644 -3.5943  0.2887  1.1907
  5814G12c H00Q 7998  13.745   2.555   1.471 -4.4528 -1.7880  2.4914
  5814G12c O009 7999  13.744   2.423   1.611  1.6303 -0.5797 -0.9907
  5814G12c H00P 8000  13.667   2.466   1.644 -0.6396 -1.7923 -4.4392
  5814G12c C01W 8001  14.047   2.415   1.473 -0.0306  0.2454  0.2458
  5814G12c H00O 8002  14.114   2.411   1.389  0.8158 -1.3096  0.9783
  5814G12c C01X 8003  14.083   2.344   1.606  0.6484 -0.0465  0.6262
  5814G12c H00N 8004  13.995   2.289   1.641  1.0026 -1.0727 -0.0832
  5814G12c H00M 8005  14.116   2.246   1.570 -0.0010  0.5542 -1.7074
  5814G12c C01Y 8006  14.194   2.386   1.704  1.7382 -0.8403  0.6070
  5814G12c C02D 8007  14.310   2.452   1.653 -0.1252 -1.5134  0.0014
  5814G12c H019 8008  14.331   2.404   1.558  0.8988 -0.9382 -0.0680
  5814G12c C02C 8009  14.410   2.511   1.738  0.4117  1.9373  1.3953
  5814G12c H01A 8010  14.493   2.575   1.712  5.7461 -4.6154  0.8982
  5814G12c C02B 8011  14.379   2.520   1.874  1.3723  0.5089  2.0299
  5814G12c O00E 8012  14.468   2.593   1.950  0.1123  0.3084 -0.2566
  5814G12c H01B 8013  14.412   2.657   1.991 -2.7474 -3.8068  2.7498
  5814G12c C02F 8014  14.240   2.501   1.919  0.4501  0.6962 -0.8199
  5814G12c O00F 8015  14.161   2.550   2.022 -1.1845 -0.1032 -1.0038
  5814G12c C02G 8016  14.224   2.663   2.086 -0.0141  1.1038 -1.6916
  5814G12c H017 8017  14.264   2.751   2.035 -2.3386  1.7731 -2.4470
  5814G12c H016 8018  14.281   2.620   2.169 -3.2752  3.1822  1.8295
  5814G12c H015 8019  14.156   2.686   2.169  0.8657 -0.5451 -0.4977
  5814G12c C02E 8020  14.164   2.419   1.840  1.9955 -1.2612 -1.6137
  5814G12c H018 8021  14.063   2.422   1.879  1.8462 -1.0187 -2.0208
  5814G12c C01F 8022  13.704   2.470   1.239 -0.6267 -0.5139  0.0364
  5814G12c C01G 8023  13.704   2.334   1.295 -1.4516  0.3807  2.8948
  5814G12c H00L 8024  13.778   2.277   1.350 -5.6852 -2.8670  5.4957
  5814G12c C01H 8025  13.587   2.259   1.306 -1.5793 -0.6487 -1.0826
  5814G12c H00B 8026  13.598   2.163   1.356 -1.6329 -0.4762 -0.7337
  5814G12c C01I 8027  13.479   2.292   1.215  1.0551  0.8757  0.6610
  5814G12c C01U 8028  13.589   2.487   1.158 -0.7412 -0.6410 -0.7755
  5814G12c C00S 8029  13.274   2.904   1.201  0.2177 -1.4039  1.4274
  5814G12c C00K 8030  13.213   2.680   1.136 -0.6052 -1.7979 -0.5146
  5814G12c C00N 8031  13.561   2.620   1.128 -0.8405 -0.4219 -0.5720
  5814G12c C000 8032  13.495   2.397   1.117 -0.9155 -0.3754  0.2863
  5814G12c C01J 8033  13.327   2.285   1.226 -0.0021 -0.7955 -1.0633
  5814G12c C01K 8034  13.255   2.196   1.321 -1.0275  0.2291 -1.1676
  5814G12c C01P 8035  13.288   2.066   1.388  0.1729  0.3795  1.0862
  5814G12c C01Q 8036  13.415   2.006   1.394  0.1753 -0.8922  0.4371
  5814G12c H00G 8037  13.486   2.038   1.470 -0.6090 -2.5418  1.8913
  5814G12c C01R 8038  13.454   1.932   1.289 -0.4293  0.2037 -0.9601
  5814G12c H00F 8039  13.561   1.920   1.293  0.2559  5.6296  3.7826
  5814G12c C01S 8040  13.376   1.887   1.170 -1.5630 -1.3546 -1.1762
  5814G12c H00E 8041  13.362   1.781   1.189  1.3937 -1.7395 -0.8912
  5814G12c H00D 8042  13.273   1.918   1.155 -2.8994 -1.8182  5.7581
  5814G12c O005 8043  13.429   1.912   1.034  0.4976  1.1491  0.1688
  5814G12c H00C 8044  13.428   1.831   0.985 -1.8547  2.1308 -1.5287
  5814G12c C01O 8045  13.178   1.988   1.448 -0.8548 -0.0420 -1.7953
  5814G12c H00H 8046  13.201   1.885   1.472 -2.9823  0.6295  3.8624
  5814G12c C01N 8047  13.064   2.048   1.499  0.5565 -1.1608 -0.5292
  5814G12c O006 8048  12.995   2.002   1.612  0.2001  0.8436  0.2847
  5814G12c C01T 8049  12.990   2.071   1.729 -0.1843  0.0772  1.1925
  5814G12c H00K 8050  12.891   2.116   1.725  0.7277  2.0188 -0.1013
  5814G12c H00J 8051  12.981   2.010   1.819 -4.1978 -3.5838 -1.5044
  5814G12c H00I 8052  13.070   2.139   1.760  0.5315 -1.4260  2.7243
  5814G12c C01M 8053  13.026   2.180   1.436  0.1432  1.5453  1.4030
  5814G12c C020 8054  13.112   2.585   1.158 -1.1787  0.6862  0.8512
  5814G12c C021 8055  12.979   2.605   1.185 -0.1314  0.4232  1.0544
  5814G12c C01L 8056  13.124   2.247   1.344  0.4581  0.5424 -1.5785
  5814G12c O007 8057  12.898   2.223   1.481 -0.2738  1.0821 -0.2892
  5814G12c C022 8058  12.913   2.537   1.303 -0.3776  2.2554  0.8332
  5814G12c C023 8059  12.930   2.747   1.213 -1.4234 -1.3174 -0.7523
  5814G12c C00G 8060  12.909   2.983   1.373 -0.2496  0.4533  1.8676
  5814G12c C00E 8061  12.765   3.138   1.473  0.7665  0.3382 -0.0474
  5814G12c O00A 8062  12.714   3.257   1.494  0.2644 -1.2569  0.3267
  5814G12c C024 8063  12.737   3.304   1.630  0.3613 -0.2262 -0.6705
  5814G12c H00V 8064  12.742   3.411   1.610 -1.6240  0.5334  2.5233
  5814G12c H00U 8065  12.818   3.250   1.677 -0.4836  4.6480  7.4033
  5814G12c H00T 8066  12.637   3.283   1.668  1.2905 -0.3958  1.7376
  5824G12c C00D 8067   5.117  11.568  12.806  0.6451  0.3118 -0.4107
  5824G12c O00B 8068   5.004  11.599  12.886 -0.3414  0.2945 -1.5708
  5824G12c C025 8069   4.885  11.635  12.821 -0.2253 -0.2936 -0.3213
  5824G12c C026 8070   4.845  11.778  12.806 -0.7355  0.3390 -0.3965
  5824G12c H00Y 8071   4.776  11.810  12.883  1.7920  5.1756  0.0720
  5824G12c H00X 8072   4.851  11.829  12.709  0.7567 -0.1104 -0.5539
  5824G12c O00C 8073   4.928  11.863  12.884  0.6870  0.2083 -0.1722
  5824G12c H00W 8074   5.013  11.852  12.845  2.9425  2.1202  3.8831
  5824G12c C027 8075   4.806  11.543  12.758 -0.7072  0.0125 -0.0318
  5824G12c O00D 8076   4.814  11.405  12.774 -0.5426  0.8579  0.4573
  5824G12c H00Z 8077   4.886  11.403  12.835  2.9147 -0.9814 -3.4144
  5824G12c C028 8078   4.727  11.582  12.655  1.4719  1.1115 -0.1922
  5824G12c C029 8079   4.605  11.649  12.689  1.0108  0.5263  0.1972
  5824G12c H010 8080   4.579  11.686  12.788  3.0447  8.5907 -1.9222
  5824G12c C02T 8081   4.507  11.649  12.590 -0.9504 -1.6035  0.1861
  5824G12c H01O 8082   4.410  11.693  12.605  1.2055  3.0074  1.4625
  5824G12c C02S 8083   4.534  11.599  12.465 -0.9072  0.2612  0.2132
  5824G12c O00J 8084   4.423  11.590  12.379  0.7040  0.2172 -0.8510
  5824G12c H01P 8085   4.440  11.532  12.306 -2.4040 -1.7042 -0.1459
  5824G12c C02R 8086   4.659  11.562  12.428 -0.6907  1.0070 -0.8499
  5824G12c O00I 8087   4.667  11.515  12.298 -0.0024 -1.9749 -0.2367
  5824G12c C02Q 8088   4.785  11.448  12.259 -0.7939  1.4589  0.9462
  5824G12c H01N 8089   4.875  11.509  12.266  1.8790 -2.2577  0.4878
  5824G12c H01R 8090   4.766  11.393  12.167  0.1076  2.6178  0.0495
  5824G12c H01Q 8091   4.812  11.394  12.350  0.3667  6.5210  3.8171
  5824G12c C02A 8092   4.765  11.570  12.518 -0.1207  1.0401  0.4864
  5824G12c H011 8093   4.860  11.528  12.488 -2.2145 -3.2756 -0.5380
  5824G12c C00C 8094   5.098  11.516  12.679  0.0111  0.6050 -0.6566
  5824G12c H012 8095   5.002  11.495  12.633 -1.8198  1.3824  2.6537
  5824G12c C00B 8096   5.214  11.472  12.599 -1.2924 -0.3114  0.8224
  5824G12c C00A 8097   5.219  11.406  12.473  1.2318 -0.7797  1.2554
  5824G12c C009 8098   5.117  11.316  12.394 -1.0925  0.5038 -0.2898
  5824G12c C008 8099   5.016  11.220  12.431 -0.6012  2.6246 -0.8601
  5824G12c H013 8100   4.954  11.222  12.520 -1.8657 -0.0583 -1.6077
  5824G12c C007 8101   4.963  11.126  12.330  1.3072 -0.0813  1.2022
  5824G12c H014 8102   4.871  11.070  12.332  2.3034 -2.1609 -4.1079
  5824G12c C006 8103   5.048  11.102  12.217  0.0541  1.0847 -2.6807
  5824G12c C005 8104   5.171  11.176  12.207 -0.1682  0.4383 -0.1351
  5824G12c C004 8105   5.283  11.128  12.128 -0.4645  1.5570 -1.3656
  5824G12c C003 8106   5.410  11.191  12.147  0.0117  0.0331 -0.0293
  5824G12c C002 8107   5.525  11.108  12.094  0.3509  0.2431  0.4444
  5824G12c C001 8108   5.664  11.133  12.075  0.1562  0.4369 -0.6897
  5824G12c C00M 8109   5.742  11.177  12.185  2.1864 -0.2418 -1.4235
  5824G12c C00L 8110   5.729  11.294  12.264 -0.2907  0.0276 -0.0813
  5824G12c C00R 8111   5.800  11.299  12.385 -0.8944 -0.3782 -0.6483
  5824G12c C00Q 8112   5.903  11.230  12.460 -0.0621 -0.2676  0.5189
  5824G12c C00V 8113   5.902  11.243  12.597  0.9302 -0.7287  0.5664
  5824G12c C00U 8114   5.780  11.293  12.665 -0.3030 -0.3475  1.9819
  5824G12c C00T 8115   5.673  11.344  12.591 -0.4701  0.7940  1.5495
  5824G12c C016 8116   5.565  11.398  12.664  1.0051  1.1752  2.2570
  5824G12c C015 8117   5.576  11.423  12.805 -0.4936  1.7445  1.2479
  5824G12c C010 8118   5.684  11.377  12.870 -0.2437  0.3826  2.3911
  5824G12c C011 8119   5.682  11.369  13.016 -0.1698 -1.7842  0.5386
  5824G12c H005 8120   5.744  11.338  13.099  1.3711  0.1706  0.1322
  5824G12c C012 8121   5.585  11.454  13.077 -1.3040  0.5854  0.5519
  5824G12c C017 8122   5.597  11.490  13.214 -1.3669 -0.7840  1.3838
  5824G12c O002 8123   5.511  11.421  13.299 -0.2837  1.6070  0.2561
  5824G12c H004 8124   5.465  11.360  13.244  6.2953 -3.6824  0.0246
  5824G12c C018 8125   5.684  11.568  13.269  0.1512 -0.0619  1.5001
  5824G12c O001 8126   5.699  11.540  13.408  0.4914  0.0812  0.0319
  5824G12c H003 8127   5.621  11.487  13.409  1.7577 -1.8646  2.6945
  5824G12c C019 8128   5.781  11.662  13.199 -0.2633 -0.9522 -1.1154
  5824G12c H002 8129   5.731  11.686  13.106 -1.1753 -5.3879 -1.8591
  5824G12c H001 8130   5.803  11.747  13.265  3.5727 -1.5224 -1.5832
  5824G12c O000 8131   5.899  11.574  13.171  0.9380  0.0265  0.8308
  5824G12c C01A 8132   6.007  11.637  13.115 -0.2166  0.1098  1.0231
  5824G12c C02K 8133   6.111  11.679  13.195 -1.6978  0.2368 -0.9711
  5824G12c O00G 8134   6.105  11.617  13.304 -0.7929 -0.8289  1.6545
  5824G12c C02M 8135   6.230  11.552  13.339 -0.1666  0.4936  0.1411
  5824G12c H01G 8136   6.298  11.637  13.352 -1.1503  0.7719  4.0448
  5824G12c H01F 8137   6.205  11.458  13.387  0.6012  2.8613  5.6027
  5824G12c H01E 8138   6.274  11.496  13.256  0.4106 -4.5594  3.6833
  5824G12c C02J 8139   6.204  11.782  13.145  0.8612  2.6611  0.4813
  5824G12c H01H 8140   6.294  11.826  13.185  4.3473 -4.2721  1.0453
  5824G12c C02I 8141   6.162  11.839  13.018  0.5496 -1.3035 -0.8349
  5824G12c C02N 8142   6.220  11.949  12.952 -0.8164 -0.3590 -0.4316
  5824G12c H01M 8143   6.216  12.046  12.998 -4.0875 -1.5783  2.0636
  5824G12c C02O 8144   6.280  11.934  12.823  1.3226 -0.5623  0.2804
  5824G12c H01L 8145   6.246  11.846  12.770  6.9114 -4.7409  3.0432
  5824G12c C02P 8146   6.305  12.075  12.750 -1.2548  0.9643  0.3758
  5824G12c H01K 8147   6.364  12.030  12.670  0.5082  4.7481 -0.6007
  5824G12c H01J 8148   6.213  12.117  12.710  0.8768  2.8855 -2.8304
  5824G12c O00H 8149   6.369  12.193  12.824 -0.0348 -0.3709 -1.3368
  5824G12c H01I 8150   6.421  12.145  12.885 -1.4730 -2.9668 -2.0925
  5824G12c C02H 8151   6.044  11.804  12.950 -1.3819  1.1342  1.1843
  5824G12c H01C 8152   6.013  11.845  12.854  4.3724  2.2178 -0.3724
  5824G12c C02L 8153   5.986  11.688  12.993  1.1166  0.4191  0.4351
  5824G12c H01D 8154   5.913  11.642  12.928  0.9711  5.5245 -3.2662
  5824G12c C013 8155   5.460  11.486  13.012  1.5204  0.6088 -0.7487
  5824G12c H000 8156   5.397  11.550  13.071 -2.3999 -2.2357 -1.6398
  5824G12c C014 8157   5.459  11.468  12.866  0.0529 -0.9999 -0.7841
  5824G12c C00F 8158   5.346  11.506  12.796  1.9373  0.7051  0.2934
  5824G12c C00H 8159   5.463  11.445  12.587  1.0753 -0.6016  0.2178
  5824G12c C00I 8160   5.464  11.411  12.451  0.2433 -0.1851 -0.4511
  5824G12c C00J 8161   5.588  11.415  12.379  0.5404 -0.5998 -0.6873
  5824G12c C00Z 8162   5.786  11.313  12.801  1.0455  0.8457  1.1380
  5824G12c C00Y 8163   5.913  11.311  12.872 -0.1514  0.0662  0.5956
  5824G12c H006 8164   5.919  11.345  12.974  2.5887  1.0096  0.1817
  5824G12c C00X 8165   6.033  11.260  12.823  1.2692  1.8764  0.7216
  5824G12c O003 8166   6.156  11.224  12.889  0.6642  0.1348 -0.1459
  5824G12c C01B 8167   6.142  11.244  13.033 -3.1273 -0.5310  0.7160
  5824G12c H009 8168   6.105  11.345  13.049 -2.3885 -0.1604  0.1287
  5824G12c H008 8169   6.082  11.159  13.067 -1.9284 -1.8594 -0.4453
  5824G12c H007 8170   6.244  11.250  13.072 -2.9216 -3.5973  0.7433
  5824G12c C00W 8171   6.024  11.214  12.689  1.2090  1.0104  1.4646
  5824G12c O004 8172   6.140  11.147  12.615  1.1789 -1.0817 -0.5945
  5824G12c C01C 8173   6.109  11.087  12.501  0.0428  1.0708  0.6162
  5824G12c H00A 8174   6.127  10.981  12.503  2.0021  1.4165  2.6025
  5824G12c C00P 8175   5.985  11.124  12.424 -0.0179  0.1392  0.0649
  5824G12c C00O 8176   5.933  11.023  12.327  0.5802  0.6433 -1.3442
  5824G12c C01D 8177   5.944  10.879  12.337 -0.4684  0.3662 -0.5996
  5824G12c H00S 8178   5.973  10.838  12.433  3.4892  2.5192 -0.7661
  5824G12c C01E 8179   5.916  10.789  12.230  0.9870 -0.0586  1.1890
  5824G12c O008 8180   5.932  10.654  12.242  1.1641 -0.4416  0.3769
  5824G12c C01V 8181   6.059  10.613  12.215 -1.6101 -0.9436  0.1154
  5824G12c C01Z 8182   6.092  10.589  12.060  0.8585  0.1591  0.4764
  5824G12c H00R 8183   6.107  10.687  12.014 -2.6049  2.1196  3.2479
  5824G12c H00Q 8184   6.191  10.558  12.028  0.7397  3.8498 -4.0743
  5824G12c O009 8185   5.994  10.516  12.016 -0.8760  0.7502 -0.4510
  5824G12c H00P 8186   5.962  10.507  12.105 -5.1876  0.5302 -1.9416
  5824G12c C01W 8187   6.132  10.561  12.319  1.1637  2.2268 -1.1025
  5824G12c H00O 8188   6.094  10.572  12.419 -1.3233 -5.0570 -0.9433
  5824G12c C01X 8189   6.251  10.468  12.316  1.5978 -0.0831 -1.2638
  5824G12c H00N 8190   6.194  10.387  12.360  1.1912  0.6752 -0.3643
  5824G12c H00M 8191   6.290  10.438  12.218  0.2853  0.1910 -1.8800
  5824G12c C01Y 8192   6.348  10.510  12.409 -0.3440 -0.7197  0.3349
  5824G12c C02D 8193   6.440  10.607  12.390 -0.6228 -0.0504 -0.9544
  5824G12c H019 8194   6.433  10.662  12.297  1.3521  4.3474  1.3378
  5824G12c C02C 8195   6.559  10.614  12.466  1.1338 -0.6699 -2.4337
  5824G12c H01A 8196   6.656  10.641  12.429 -0.9482  4.8061 -4.4521
  5824G12c C02B 8197   6.551  10.530  12.594  0.1861 -1.5822  0.8178
  5824G12c O00E 8198   6.635  10.542  12.706  0.6528  0.3149  0.4558
  5824G12c H01B 8199   6.583  10.518  12.781 -4.5180  1.9693 -2.3595
  5824G12c C02F 8200   6.432  10.463  12.617 -1.2144  3.6902  0.2656
  5824G12c O00F 8201   6.427  10.394  12.737  0.1672  0.6485 -0.9617
  5824G12c C02G 8202   6.453  10.249  12.728 -1.8022  1.0895  0.4666
  5824G12c H017 8203   6.474  10.219  12.625 -1.3578 -1.4386  1.2615
  5824G12c H016 8204   6.533  10.203  12.787  1.6355  4.8240 -1.0534
  5824G12c H015 8205   6.360  10.198  12.753 -0.6271  1.1577  5.6054
  5824G12c C02E 8206   6.344  10.431  12.524 -0.0277  0.7893  0.3479
  5824G12c H018 8207   6.258  10.374  12.554  1.2719 -1.2747  0.3011
  5824G12c C01F 8208   5.852  10.842  12.118 -0.2678  2.0998  0.0875
  5824G12c C01G 8209   5.771  10.751  12.041 -1.0171  0.8993 -0.5856
  5824G12c H00L 8210   5.780  10.643  12.037  5.8134  1.1842  1.1674
  5824G12c C01H 8211   5.636  10.793  12.001 -0.0058  2.0006 -0.4411
  5824G12c H00B 8212   5.553  10.736  11.960  1.6824 -2.6985  2.2736
  5824G12c C01I 8213   5.628  10.935  11.996 -0.8443  0.0978  0.2972
  5824G12c C01U 8214   5.830  10.978  12.093 -2.0383 -0.6433 -0.4628
  5824G12c C00S 8215   5.699  11.361  12.454  0.4261  0.2612  0.1352
  5824G12c C00K 8216   5.585  11.346  12.265 -0.6695 -0.3286  0.9735
  5824G12c C00N 8217   5.835  11.062  12.216  1.4847 -1.4995  1.4635
  5824G12c C000 8218   5.736  11.028  12.005 -1.3408  0.3685 -1.0567
  5824G12c C01J 8219   5.495  11.002  12.007 -1.4002 -1.6300  1.0335
  5824G12c C01K 8220   5.369  10.947  11.977  0.4420 -0.4082 -1.2116
  5824G12c C01P 8221   5.317  10.835  11.905 -0.5876  0.8940 -1.0498
  5824G12c C01Q 8222   5.394  10.810  11.785  0.0480  1.2615  0.1279
  5824G12c H00G 8223   5.452  10.719  11.794 -4.1200 -2.1633 -4.8380
  5824G12c C01R 8224   5.345  10.799  11.667 -0.1380 -0.5083  1.3200
  5824G12c H00F 8225   5.241  10.825  11.653  0.1551 -0.9971 -2.3654
  5824G12c C01S 8226   5.419  10.769  11.532  0.7668  0.1640 -1.1796
  5824G12c H00E 8227   5.374  10.823  11.448 -1.4054  4.2024  2.3958
  5824G12c H00D 8228   5.524  10.744  11.518  0.8896 -1.5203  2.3764
  5824G12c O005 8229   5.369  10.646  11.472  0.3856  0.0252  0.2135
  5824G12c H00C 8230   5.339  10.675  11.387  4.2875  1.2064 -0.8631
  5824G12c C01O 8231   5.188  10.779  11.910  0.7163  0.8566  0.5345
  5824G12c H00H 8232   5.151  10.693  11.856  0.6977 -0.8634  3.2015
  5824G12c C01N 8233   5.099  10.836  11.996  0.0194  0.7192 -0.1529
  5824G12c O006 8234   5.025  10.731  12.044  0.6993 -1.1786 -0.4419
  5824G12c C01T 8235   4.975  10.712  12.180  0.0234 -0.7264  0.3110
  5824G12c H00K 8236   4.921  10.617  12.183  1.6780 -1.7920 -1.9806
  5824G12c H00J 8237   4.895  10.778  12.214  0.7966 -1.9310  4.7466
  5824G12c H00I 8238   5.048  10.740  12.255  1.5880  3.3203 -2.5154
  5824G12c C01M 8239   5.136  10.957  12.056 -0.6104  0.4461  0.3192
  5824G12c C020 8240   5.448  11.304  12.224  0.1559 -1.0843  1.3754
  5824G12c C021 8241   5.323  11.350  12.284  0.5360  1.1172  0.4686
  5824G12c C01L 8242   5.271  11.007  12.062 -1.6289  0.2999 -0.1944
  5824G12c O007 8243   5.030  11.002  12.130 -0.0591 -0.5283  0.7349
  5824G12c C022 8244   5.200  11.292  12.279 -0.1653 -1.3144  1.7521
  5824G12c C023 8245   5.328  11.430  12.390 -0.3596 -0.4242  0.8949
  5824G12c C00G 8246   5.339  11.483  12.654 -0.9259 -0.0815 -0.0720
  5824G12c C00E 8247   5.238  11.578  12.867  0.1917 -0.2087 -0.0125
  5824G12c O00A 8248   5.266  11.670  12.967 -0.9353  0.7562 -0.4210
  5824G12c C024 8249   5.298  11.790  12.921 -0.1775  1.0906  1.3709
  5824G12c H00V 8250   5.373  11.831  12.988  3.9057 -3.8043  0.1133
  5824G12c H00U 8251   5.319  11.815  12.818 -4.2514 -0.5941  0.0311
  5824G12c H00T 8252   5.210  11.854  12.926 -0.3046  1.9996 -6.5383
  5834G12c C00D 8253   2.447   8.231   5.041 -0.2845  1.0522 -0.3942
  5834G12c O00B 8254   2.362   8.341   5.053  1.1461 -0.5356 -0.3678
  5834G12c C025 8255   2.248   8.344   5.145  0.2468 -0.0978 -0.9265
  5834G12c C026 8256   2.280   8.393   5.276 -1.3585  0.9639  0.3247
  5834G12c H00Y 8257   2.336   8.303   5.301 -2.2125 -0.7095 -3.4330
  5834G12c H00X 8258   2.209   8.412   5.357 -0.7529  2.0262  0.6171
  5834G12c O00C 8259   2.378   8.479   5.245  0.4712 -0.0998  0.1215
  5834G12c H00W 8260   2.399   8.447   5.159 -4.4345 -0.6392 -0.9997
  5834G12c C027 8261   2.142   8.368   5.079 -0.8851  1.0441  1.0279
  5834G12c O00D 8262   2.152   8.339   4.939  0.6410 -0.5260  0.3682
  5834G12c H00Z 8263   2.189   8.409   4.888 -5.3719 -0.0471 -3.9718
  5834G12c C028 8264   2.023   8.391   5.141 -0.7829  0.5851 -0.7881
  5834G12c C029 8265   1.915   8.339   5.065  2.6841 -1.1845 -1.2503
  5834G12c H010 8266   1.930   8.292   4.969 -2.8921 -2.8622 -1.4468
  5834G12c C02T 8267   1.790   8.374   5.103  0.1908 -0.9943  0.5992
  5834G12c H01O 8268   1.715   8.316   5.051  4.5683 -5.3409 -1.2770
  5834G12c C02S 8269   1.754   8.453   5.211 -0.9681 -2.3833 -1.1065
  5834G12c O00J 8270   1.628   8.481   5.251 -0.0447  1.8053  0.5575
  5834G12c H01P 8271   1.621   8.521   5.336 -2.4708  2.7354 -0.0675
  5834G12c C02R 8272   1.855   8.519   5.279  0.1406  2.1014 -0.8110
  5834G12c O00I 8273   1.835   8.606   5.374 -0.1241  0.2016 -1.1580
  5834G12c C02Q 8274   1.796   8.540   5.494  0.4010  0.7414 -0.0939
  5834G12c H01N 8275   1.749   8.448   5.461 -8.2348  3.2639  3.7540
  5834G12c H01R 8276   1.886   8.524   5.553 -2.0256  2.8696  4.3645
  5834G12c H01Q 8277   1.754   8.596   5.577  1.6122  0.8053  0.4790
  5834G12c C02A 8278   1.989   8.477   5.250  1.1093  0.3238  0.9143
  5834G12c H011 8279   2.070   8.532   5.295 -1.4410  4.8128  0.3670
  5834G12c C00C 8280   2.365   8.117   5.039 -0.2640  1.1443  0.8222
  5834G12c H012 8281   2.276   8.123   4.977 -1.6024 -1.6661  2.3810
  5834G12c C00B 8282   2.410   8.007   5.111 -0.7861 -1.9235  0.8987
  5834G12c C00A 8283   2.326   7.892   5.113 -0.4241  0.7261 -0.2814
  5834G12c C009 8284   2.182   7.880   5.121  1.0638 -0.7506  0.7395
  5834G12c C008 8285   2.064   7.950   5.083  0.0606 -0.4527 -0.8937
  5834G12c H013 8286   2.107   8.018   5.011  3.0100  3.9452  4.5604
  5834G12c C007 8287   1.941   7.921   5.149  1.1354  0.7578 -0.4213
  5834G12c H014 8288   1.854   7.983   5.133  1.7890  1.5996 -0.7836
  5834G12c C006 8289   1.924   7.800   5.229  0.6156 -0.3941  0.6609
  5834G12c C005 8290   2.051   7.713   5.240 -0.1334 -0.1984 -1.5464
  5834G12c C004 8291   2.049   7.595   5.330  0.2479 -1.1457 -0.0214
  5834G12c C003 8292   2.183   7.561   5.371  0.0924  0.2504  0.8774
  5834G12c C002 8293   2.180   7.462   5.474 -0.0278 -0.6963  0.6585
  5834G12c C001 8294   2.288   7.380   5.532 -0.5313 -0.7631 -0.1696
  5834G12c C00M 8295   2.408   7.441   5.587 -0.3045  0.3400  0.3456
  5834G12c C00L 8296   2.477   7.547   5.515 -1.1742  0.2944 -1.5338
  5834G12c C00R 8297   2.595   7.622   5.552 -1.9653 -0.8268  1.4160
  5834G12c C00Q 8298   2.679   7.620   5.668 -0.3533  1.7448 -1.4190
  5834G12c C00V 8299   2.782   7.708   5.649  1.5994  2.5779  0.4825
  5834G12c C00U 8300   2.795   7.794   5.529  0.7283 -0.7123  0.6998
  5834G12c C00T 8301   2.699   7.791   5.436 -0.2500  1.0105 -0.0037
  5834G12c C016 8302   2.679   7.893   5.347 -0.9907 -1.0377 -2.6255
  5834G12c C015 8303   2.768   7.997   5.346  0.8296  0.0133  2.5365
  5834G12c C010 8304   2.871   8.009   5.433 -0.7918  2.9193  0.0536
  5834G12c C011 8305   2.969   8.112   5.418  0.4944  0.2776  0.2101
  5834G12c H005 8306   3.066   8.127   5.464 -0.2994  0.7877  1.7742
  5834G12c C012 8307   2.936   8.229   5.334 -1.8450  0.7691 -0.3000
  5834G12c C017 8308   3.011   8.351   5.355  1.5911  0.3285 -0.3068
  5834G12c O002 8309   3.109   8.388   5.268  0.7279  0.0698 -0.8231
  5834G12c H004 8310   3.175   8.405   5.334  1.1362 -0.2933 -1.1308
  5834G12c C018 8311   2.975   8.419   5.474  1.2665  0.4147  0.4988
  5834G12c O001 8312   2.890   8.366   5.558 -0.5959 -0.3000  0.3557
  5834G12c H003 8313   2.879   8.282   5.517  4.2210  0.2563 -2.3441
  5834G12c C019 8314   3.021   8.550   5.531  0.0879  2.6010 -0.0913
  5834G12c H002 8315   2.919   8.590   5.537 -3.5554 -5.7336 -0.1375
  5834G12c H001 8316   3.076   8.554   5.625 -4.2569 -1.4952  2.8569
  5834G12c O000 8317   3.048   8.633   5.421 -1.5852  0.2856 -0.2514
  5834G12c C01A 8318   3.138   8.725   5.437 -0.0379  0.1434  1.2236
  5834G12c C02K 8319   3.116   8.836   5.343 -1.6753 -0.2597 -0.3398
  5834G12c O00G 8320   3.003   8.862   5.276  0.6600  1.1058 -0.6092
  5834G12c C02M 8321   2.886   8.781   5.278  1.1157  0.6624  1.1215
  5834G12c H01G 8322   2.864   8.677   5.254 -1.3246  1.3321  0.2681
  5834G12c H01F 8323   2.830   8.774   5.372 -0.8485 -0.8635 -0.1127
  5834G12c H01E 8324   2.857   8.844   5.194  4.2074  1.4213  0.5641
  5834G12c C02J 8325   3.217   8.936   5.340  0.3132 -1.6528 -0.4815
  5834G12c H01H 8326   3.204   9.027   5.283  4.2531  0.6779  2.1075
  5834G12c C02I 8327   3.332   8.932   5.443 -1.9853 -0.8777  0.7297
  5834G12c C02N 8328   3.389   9.063   5.474 -2.4666 -0.6284 -2.7343
  5834G12c H01M 8329   3.476   9.120   5.446  0.8743 -2.5513  2.9014
  5834G12c C02O 8330   3.344   9.106   5.603 -0.4212  0.6631  0.0056
  5834G12c H01L 8331   3.402   9.189   5.642 -2.1412  2.0982 -0.4463
  5834G12c C02P 8332   3.220   9.058   5.681  0.5619  1.6224  0.2379
  5834G12c H01K 8333   3.151   9.138   5.653 -1.2790 -0.1382 -0.3827
  5834G12c H01J 8334   3.203   8.962   5.632  2.0655  0.1287  2.5646
  5834G12c O00H 8335   3.275   9.016   5.803  1.0360 -0.0586 -1.4086
  5834G12c H01I 8336   3.208   8.985   5.863 -1.1033  4.3428 -1.3293
  5834G12c C02H 8337   3.354   8.819   5.512 -0.2604  1.5342 -2.0706
  5834G12c H01C 8338   3.448   8.811   5.565 -3.5037 -4.1404  3.5450
  5834G12c C02L 8339   3.255   8.716   5.502 -0.0565 -1.3107 -0.8728
  5834G12c H01D 8340   3.268   8.634   5.571  2.4420  1.5047  2.2035
  5834G12c C013 8341   2.814   8.225   5.259  0.7831 -0.4703 -0.9169
  5834G12c H000 8342   2.800   8.322   5.213  3.7977  2.5062  4.0200
  5834G12c C014 8343   2.736   8.115   5.261  1.2288 -0.6255 -0.4453
  5834G12c C00F 8344   2.620   8.121   5.190  1.1213  0.6919  0.5151
  5834G12c C00H 8345   2.579   7.892   5.257 -0.3930  0.2313 -0.7910
  5834G12c C00I 8346   2.505   7.773   5.247  0.5532  0.6306 -3.1945
  5834G12c C00J 8347   2.534   7.676   5.336  0.3516  0.2020 -0.1858
  5834G12c C00Z 8348   2.892   7.893   5.520 -0.7818  0.3632 -1.8065
  5834G12c C00Y 8349   2.994   7.905   5.623  1.4511  0.7676 -0.1789
  5834G12c H006 8350   3.086   7.962   5.624  0.7961  1.8360  1.7122
  5834G12c C00X 8351   2.983   7.829   5.737  0.3066  1.7489  0.3875
  5834G12c O003 8352   3.053   7.875   5.845  0.3687 -0.6689  1.5316
  5834G12c C01B 8353   3.023   8.016   5.855  0.3785 -1.1864  0.1679
  5834G12c H009 8354   3.043   8.097   5.785  4.8826 -0.2724  2.3673
  5834G12c H008 8355   3.122   8.008   5.899 -1.3277  0.8558  4.7292
  5834G12c H007 8356   2.982   8.061   5.946 -1.9351 -0.0967 -1.3383
  5834G12c C00W 8357   2.879   7.735   5.755  1.0428 -0.1760 -0.3671
  5834G12c O004 8358   2.845   7.697   5.875 -1.7471 -0.1830  0.6120
  5834G12c C01C 8359   2.735   7.620   5.901 -0.2726 -0.6537  0.2728
  5834G12c H00A 8360   2.743   7.624   6.009 -0.3360 -2.2790  0.3584
  5834G12c C00P 8361   2.645   7.570   5.796 -2.0471 -0.8144 -0.5734
  5834G12c C00O 8362   2.512   7.512   5.811 -0.7646  1.3717  2.1511
  5834G12c C01D 8363   2.449   7.553   5.929  0.2350  0.6564 -0.4262
  5834G12c H00S 8364   2.488   7.629   5.994 -4.0274  2.6067 -0.0080
  5834G12c C01E 8365   2.331   7.499   5.973  0.4186  1.0239 -0.4796
  5834G12c O008 8366   2.277   7.534   6.092 -0.2563 -0.2763  1.1512
  5834G12c C01V 8367   2.340   7.484   6.212  1.4691  0.0529  0.1659
  5834G12c C01Z 8368   2.443   7.581   6.261  0.1450  0.8614  2.5111
  5834G12c H00R 8369   2.430   7.689   6.271  5.1183  1.5868  2.0553
  5834G12c H00Q 8370   2.473   7.541   6.358  3.5651 -3.7395 -0.2586
  5834G12c O009 8371   2.564   7.555   6.215  0.1490  1.5801  0.9916
  5834G12c H00P 8372   2.624   7.512   6.275 -1.7662  2.6073  3.7579
  5834G12c C01W 8373   2.275   7.391   6.291  0.5442  2.1932 -1.0296
  5834G12c H00O 8374   2.197   7.327   6.253  0.8333  0.0362  1.8666
  5834G12c C01X 8375   2.301   7.377   6.460  0.1798  0.0286  0.3522
  5834G12c H00N 8376   2.227   7.297   6.465 -0.3572  0.5517  0.8707
  5834G12c H00M 8377   2.401   7.335   6.475  0.3237 -1.4094 -3.9307
  5834G12c C01Y 8378   2.265   7.508   6.527 -1.5523  1.5976  0.5789
  5834G12c C02D 8379   2.158   7.591   6.493  0.5120 -1.4784 -0.2766
  5834G12c H019 8380   2.060   7.565   6.457 -0.6291  1.1020  0.8155
  5834G12c C02C 8381   2.183   7.728   6.515 -1.6887  0.0173  0.1027
  5834G12c H01A 8382   2.107   7.797   6.482 -1.3030 -0.2713 -1.4433
  5834G12c C02B 8383   2.294   7.777   6.586 -0.0562  0.1564 -0.9592
  5834G12c O00E 8384   2.322   7.902   6.561 -0.1569  1.1130  0.4830
  5834G12c H01B 8385   2.285   7.946   6.485 -4.0272 -4.8557 -1.3835
  5834G12c C02F 8386   2.376   7.682   6.660 -0.6220 -1.6863  2.0102
  5834G12c O00F 8387   2.499   7.741   6.686  0.1522  1.9143  0.5329
  5834G12c C02G 8388   2.579   7.714   6.567  0.6691 -0.5614  0.4782
  5834G12c H017 8389   2.529   7.750   6.477  1.0646  0.5736  0.7146
  5834G12c H016 8390   2.628   7.617   6.556 -0.0797 -0.8304 -0.5754
  5834G12c H015 8391   2.662   7.782   6.552  1.5668 -1.6294  0.5400
  5834G12c C02E 8392   2.353   7.537   6.646  0.8458  0.6683 -0.6575
  5834G12c H018 8393   2.423   7.456   6.665  1.4600  1.0452 -1.2716
  5834G12c C01F 8394   2.257   7.418   5.886  1.6464 -0.4973 -0.0351
  5834G12c C01G 8395   2.118   7.418   5.903 -0.7442  0.0373  0.2492
  5834G12c H00L 8396   2.081   7.460   5.995 -3.3123 -3.5628  0.9715
  5834G12c C01H 8397   2.034   7.376   5.801  2.7912 -0.1505 -0.7218
  5834G12c H00B 8398   1.936   7.410   5.772  5.2792  5.7858 -2.9270
  5834G12c C01I 8399   2.089   7.361   5.675 -0.3382 -2.3586 -0.2255
  5834G12c C01U 8400   2.300   7.365   5.766 -0.5862 -0.3588 -0.2366
  5834G12c C00S 8401   2.635   7.674   5.435  2.0244  0.8097  0.0803
  5834G12c C00K 8402   2.437   7.578   5.377 -0.2270  0.3559 -0.9365
  5834G12c C00N 8403   2.421   7.439   5.723 -0.9991 -0.4812  2.1027
  5834G12c C000 8404   2.229   7.322   5.654  1.0748 -0.7803  1.0192
  5834G12c C01J 8405   2.057   7.420   5.542  0.6909 -1.7023  0.3876
  5834G12c C01K 8406   1.916   7.458   5.494  0.3233 -1.0524 -0.8355
  5834G12c C01P 8407   1.780   7.423   5.540 -1.3105 -0.7578  0.4335
  5834G12c C01Q 8408   1.767   7.313   5.626  0.3363  0.7451  0.5914
  5834G12c H00G 8409   1.693   7.312   5.705  2.1690 -2.8286  2.3900
  5834G12c C01R 8410   1.836   7.205   5.600 -0.0953  0.2616  2.0263
  5834G12c H00F 8411   1.909   7.193   5.522  1.7346 -1.8813  4.0075
  5834G12c C01S 8412   1.819   7.078   5.694  0.5820  0.8755 -0.8330
  5834G12c H00E 8413   1.764   7.002   5.639 -0.1891 -0.4049  1.6775
  5834G12c H00D 8414   1.758   7.088   5.784 -1.1874  4.4202 -2.2818
  5834G12c O005 8415   1.948   7.026   5.715 -0.0274  0.0513  0.4146
  5834G12c H00C 8416   2.006   7.086   5.671 -0.1913  4.3666  5.5368
  5834G12c C01O 8417   1.667   7.502   5.504 -0.8473  0.5537  0.9060
  5834G12c H00H 8418   1.582   7.466   5.560  0.6927 -3.4661  0.8342
  5834G12c C01N 8419   1.677   7.582   5.382  0.6742  0.7386  0.2747
  5834G12c O006 8420   1.557   7.642   5.321  0.0080 -0.1703 -0.0587
  5834G12c C01T 8421   1.568   7.788   5.336 -0.2760  0.4289  1.4004
  5834G12c H00K 8422   1.610   7.866   5.273  4.8992 -2.6521  0.7437
  5834G12c H00J 8423   1.586   7.834   5.433  2.2097  2.3563  0.0660
  5834G12c H00I 8424   1.466   7.825   5.343  0.5328  2.5064  2.5576
  5834G12c C01M 8425   1.804   7.620   5.335  1.0299  1.5774 -0.1262
  5834G12c C020 8426   2.305   7.597   5.303 -1.2304  0.7107 -0.1573
  5834G12c C021 8427   2.294   7.687   5.194 -0.0355  0.2576  0.0235
  5834G12c C01L 8428   1.923   7.555   5.391  0.1362 -0.8119 -0.1323
  5834G12c O007 8429   1.801   7.737   5.246  0.7298  0.9981 -0.0166
  5834G12c C022 8430   2.169   7.750   5.176 -0.2052  0.3385  0.5348
  5834G12c C023 8431   2.391   7.780   5.169 -2.0392 -0.8917 -0.2327
  5834G12c C00G 8432   2.526   8.017   5.201 -0.7169 -1.5788 -1.3691
  5834G12c C00E 8433   2.584   8.227   5.092 -0.2523 -0.2627  0.7161
  5834G12c O00A 8434   2.667   8.306   5.019  0.6118 -0.5712  0.5800
  5834G12c C024 8435   2.731   8.234   4.916  0.3693  0.0711 -0.0880
  5834G12c H00V 8436   2.793   8.303   4.860  0.2667 -1.7281 -2.5153
  5834G12c H00U 8437   2.656   8.201   4.843 -2.4531  2.1015  1.7602
  5834G12c H00T 8438   2.804   8.153   4.916  0.8794  0.3107 -5.6402
  5844G12c C00D 8439   5.193   9.514  11.688  1.3226  0.9307 -0.6032
  5844G12c O00B 8440   5.218   9.624  11.601  1.6830  1.3281 -0.5386
  5844G12c C025 8441   5.107   9.700  11.573  1.2790  2.6632  0.1340
  5844G12c C026 8442   5.113   9.823  11.664 -0.4632 -0.0221  1.3606
  5844G12c H00Y 8443   5.085   9.900  11.592  0.3944  4.8369  5.8677
  5844G12c H00X 8444   5.220   9.838  11.671 -0.5123  0.0658  1.9219
  5844G12c O00C 8445   5.051   9.815  11.783  0.5448  0.3683 -0.9366
  5844G12c H00W 8446   5.100   9.832  11.863 -0.6787  2.2589 -0.5440
  5844G12c C027 8447   5.054   9.691  11.441  0.6524  0.1219  0.3999
  5844G12c O00D 8448   5.089   9.595  11.349  0.3075 -1.2005 -0.4247
  5844G12c H00Z 8449   5.005   9.590  11.305  0.5820  5.3764 -2.1970
  5844G12c C028 8450   4.934   9.772  11.416  1.2178  0.1461 -0.2187
  5844G12c C029 8451   4.936   9.880  11.320  0.9532 -0.6427 -0.9115
  5844G12c H010 8452   5.029   9.920  11.283  2.2779 -3.6529 -0.9221
  5844G12c C02T 8453   4.808   9.919  11.273  0.4510 -1.6578  0.5339
  5844G12c H01O 8454   4.797  10.004  11.207 -1.5637 -1.2274  1.4041
  5844G12c C02S 8455   4.693   9.882  11.344 -1.7461 -0.9963 -0.8459
  5844G12c O00J 8456   4.576   9.937  11.299  1.3896  1.0789 -1.4368
  5844G12c H01P 8457   4.575   9.880  11.223  0.8264  1.2625 -1.5718
  5844G12c C02R 8458   4.681   9.777  11.439 -1.4985  0.7328 -0.4292
  5844G12c O00I 8459   4.563   9.703  11.450 -0.6539  0.1579  1.4120
  5844G12c C02Q 8460   4.493   9.734  11.559  1.3397 -1.3071  1.2115
  5844G12c H01N 8461   4.572   9.714  11.631  0.1569  2.4975  3.7234
  5844G12c H01R 8462   4.493   9.843  11.558 -1.5006 -1.2925  1.1456
  5844G12c H01Q 8463   4.410   9.669  11.583 -0.8253 -0.1927 -2.8798
  5844G12c C02A 8464   4.807   9.712  11.463  0.3094 -1.6588 -1.2288
  5844G12c H011 8465   4.813   9.632  11.535 -0.7370  1.6175  2.6945
  5844G12c C00C 8466   5.064   9.467  11.724  0.1183 -0.5501  0.9059
  5844G12c H012 8467   4.973   9.523  11.709 -3.1160 -4.8232  3.3544
  5844G12c C00B 8468   5.060   9.332  11.795  1.3242 -1.2106  0.2930
  5844G12c C00A 8469   4.956   9.235  11.816  0.6781 -0.0019  0.8494
  5844G12c C009 8470   4.823   9.262  11.772  1.1414 -1.2875  1.3290
  5844G12c C008 8471   4.745   9.379  11.729 -0.5148  1.3899  0.7499
  5844G12c H013 8472   4.787   9.473  11.696 -1.8338  4.6291  7.3670
  5844G12c C007 8473   4.605   9.346  11.741 -0.5666 -1.3061 -1.2458
  5844G12c H014 8474   4.546   9.425  11.698 -1.1396 -2.1231 -1.9821
  5844G12c C006 8475   4.554   9.258  11.833 -0.5635  0.3267 -0.4659
  5844G12c C005 8476   4.643   9.177  11.903 -0.5443 -0.5775  1.2886
  5844G12c C004 8477   4.606   9.072  11.989 -0.6749 -0.3261 -0.8306
  5844G12c C003 8478   4.712   8.997  12.045  1.2462 -0.4181  1.5672
  5844G12c C002 8479   4.658   8.887  12.135  0.9700 -0.7094 -1.8132
  5844G12c C001 8480   4.717   8.787  12.230  1.4289  0.6171 -1.4140
  5844G12c C00M 8481   4.846   8.819  12.291 -0.6101 -0.9801  1.3838
  5844G12c C00L 8482   4.953   8.875  12.215 -1.7585 -0.2600  1.5037
  5844G12c C00R 8483   5.071   8.938  12.268  0.8838  0.0733  0.3036
  5844G12c C00Q 8484   5.099   8.965  12.396 -1.3766 -0.4639  1.0685
  5844G12c C00V 8485   5.213   9.070  12.402 -0.0133 -0.2874  0.1131
  5844G12c C00U 8486   5.285   9.112  12.285 -0.4291 -1.5445 -1.2741
  5844G12c C00T 8487   5.239   9.098  12.163  0.1999 -0.2190  2.3919
  5844G12c C016 8488   5.263   9.185  12.064  0.6113 -0.0354 -1.1940
  5844G12c C015 8489   5.346   9.296  12.077  0.6903 -1.1522  0.0651
  5844G12c C010 8490   5.416   9.309  12.196 -1.4261 -0.9828 -0.0571
  5844G12c C011 8491   5.506   9.405  12.227  0.2015  0.4228  0.7418
  5844G12c H005 8492   5.567   9.409  12.316  5.2008 -6.3297 -1.9849
  5844G12c C012 8493   5.508   9.508  12.132  0.1169  1.0633 -0.7328
  5844G12c C017 8494   5.588   9.621  12.166  0.9980 -0.5991  1.7330
  5844G12c O002 8495   5.559   9.675  12.289  0.3618 -0.9266  0.3261
  5844G12c H004 8496   5.467   9.656  12.300 -0.5729  3.0091 -0.1385
  5844G12c C018 8497   5.656   9.694  12.071  0.8564  1.7363  1.1253
  5844G12c O001 8498   5.678   9.660  11.958 -1.9578  0.0745 -0.1376
  5844G12c H003 8499   5.653   9.743  11.922 -4.8543 -0.2342  1.1009
  5844G12c C019 8500   5.714   9.834  12.074  1.1553 -0.2749  0.9796
  5844G12c H002 8501   5.699   9.845  12.182 -4.9196  3.5952 -0.0280
  5844G12c H001 8502   5.823   9.837  12.080  1.0768  3.0381  1.9855
  5844G12c O000 8503   5.633   9.884  11.979  0.2001 -0.2870  0.0428
  5844G12c C01A 8504   5.639   9.954  11.878 -0.2219 -0.8662  1.0126
  5844G12c C02K 8505   5.729  10.066  11.864  0.1091 -0.0621  0.3383
  5844G12c O00G 8506   5.836  10.075  11.959  0.5830 -0.8697 -0.3594
  5844G12c C02M 8507   5.858  10.191  12.043  1.5740  1.5040  0.3551
  5844G12c H01G 8508   5.755  10.200  12.076 -0.3885  5.0673 -5.8486
  5844G12c H01F 8509   5.852  10.288  11.993 -0.5647  1.6827  0.9304
  5844G12c H01E 8510   5.941  10.173  12.111  1.0958  1.9420  1.0616
  5844G12c C02J 8511   5.740  10.132  11.730  0.0896 -0.9284 -0.4975
  5844G12c H01H 8512   5.808  10.215  11.716 -5.6100  4.0524 -0.4948
  5844G12c C02I 8513   5.640  10.100  11.640  1.0453  1.8457 -0.4346
  5844G12c C02N 8514   5.628  10.166  11.518 -1.4049  0.2143 -0.3330
  5844G12c H01M 8515   5.541  10.224  11.492  1.5240  5.9077  1.5291
  5844G12c C02O 8516   5.725  10.137  11.423  0.0960  0.9972  0.3707
  5844G12c H01L 8517   5.703  10.194  11.334 -0.3145 -2.1289 -1.6374
  5844G12c C02P 8518   5.872  10.069  11.444  0.9598  0.4286 -0.0498
  5844G12c H01K 8519   5.899  10.155  11.382 -6.0919  2.5744 -0.6951
  5844G12c H01J 8520   5.936  10.061  11.531  0.6148  2.6360  0.4553
  5844G12c O00H 8521   5.860   9.950  11.362  0.4746  0.8602  0.9230
  5844G12c H01I 8522   5.781   9.900  11.375 -0.9680  1.3070 -5.0376
  5844G12c C02H 8523   5.541   9.997  11.659 -0.7092  0.6205 -0.5373
  5844G12c H01C 8524   5.465   9.957  11.594  0.4064  4.4920 -4.4751
  5844G12c C02L 8525   5.551   9.920  11.774  1.3128 -0.3608 -0.2212
  5844G12c H01D 8526   5.495   9.829  11.790  0.0910  0.0599 -2.0155
  5844G12c C013 8527   5.430   9.516  12.004 -1.7757 -0.1559  1.5301
  5844G12c H000 8528   5.390   9.608  11.964  2.5237  2.5716  3.1709
  5844G12c C014 8529   5.356   9.397  11.977 -0.1294  2.1734  0.2906
  5844G12c C00F 8530   5.287   9.379  11.861 -0.0362 -0.2372  0.2785
  5844G12c C00H 8531   5.183   9.178  11.955 -0.5348 -1.0988  0.5526
  5844G12c C00I 8532   5.080   9.089  11.953  0.1629 -1.0814 -0.5321
  5844G12c C00J 8533   5.073   8.977  12.046 -0.3314  0.3052  1.5424
  5844G12c C00Z 8534   5.388   9.220  12.303 -1.0537  0.9309  0.1036
  5844G12c C00Y 8535   5.436   9.233  12.442  0.5600  0.5266 -0.2393
  5844G12c H006 8536   5.501   9.317  12.461 -3.2469  4.4543 -3.4537
  5844G12c C00X 8537   5.381   9.172  12.551  0.1310  1.4028 -1.3997
  5844G12c O003 8538   5.449   9.176  12.672 -0.6143  1.1875 -0.2473
  5844G12c C01B 8539   5.590   9.149  12.687 -0.6521 -0.1492  0.4429
  5844G12c H009 8540   5.651   9.191  12.607  0.9472  4.9948  4.0906
  5844G12c H008 8541   5.648   9.182  12.774 -0.5929 -2.3196  1.2549
  5844G12c H007 8542   5.603   9.041  12.675 -2.5087 -0.0970 -2.4343
  5844G12c C00W 8543   5.277   9.094  12.527 -0.3246  0.8815 -0.8818
  5844G12c O004 8544   5.230   9.042  12.647 -0.5129 -0.1380 -0.3694
  5844G12c C01C 8545   5.130   8.945  12.637  0.0174  1.1426 -0.1450
  5844G12c H00A 8546   5.130   8.853  12.694 -2.4433 -2.5762 -5.7443
  5844G12c C00P 8547   5.054   8.916  12.521  0.8042 -0.9275 -0.4076
  5844G12c C00O 8548   4.928   8.838  12.529  0.3143 -1.4826 -0.6538
  5844G12c C01D 8549   4.886   8.789  12.665  0.4431  0.2596 -1.5781
  5844G12c H00S 8550   4.929   8.792  12.764  1.2931 -3.0359 -1.7840
  5844G12c C01E 8551   4.757   8.744  12.691  1.6652 -0.7095 -0.6175
  5844G12c O008 8552   4.705   8.765  12.819  0.8612  0.3764  0.4993
  5844G12c C01V 8553   4.617   8.668  12.863 -1.8169  0.7517 -1.2882
  5844G12c C01Z 8554   4.480   8.711  12.929 -1.3439 -1.1722  0.0029
  5844G12c H00R 8555   4.414   8.640  12.879 -5.1442  0.7410  2.0951
  5844G12c H00Q 8556   4.481   8.724  13.037  3.7030  7.0492 -0.5797
  5844G12c O009 8557   4.478   8.855  12.899  0.5381  0.6374  0.9643
  5844G12c H00P 8558   4.541   8.850  12.829 -3.4917 -2.6232 -2.6846
  5844G12c C01W 8559   4.672   8.544  12.888  0.4272  0.6768 -0.1547
  5844G12c H00O 8560   4.776   8.530  12.865  0.7267 -2.6347  2.7339
  5844G12c C01X 8561   4.598   8.444  12.971  0.2147  0.0960 -0.5274
  5844G12c H00N 8562   4.675   8.421  13.045 -5.6021 -2.9780  5.1007
  5844G12c H00M 8563   4.502   8.457  13.022  1.1348 -3.6866  2.4136
  5844G12c C01Y 8564   4.555   8.319  12.889  0.3086 -0.2016 -0.4101
  5844G12c C02D 8565   4.603   8.312  12.755  0.9440  0.4054  0.2217
  5844G12c H019 8566   4.662   8.382  12.698  2.9125 -2.2449 -1.0958
  5844G12c C02C 8567   4.564   8.222  12.667  2.6508  1.1707  0.4888
  5844G12c H01A 8568   4.609   8.200  12.572 -6.8178 -5.1841 -3.2113
  5844G12c C02B 8569   4.455   8.126  12.706  0.8849 -0.7385 -1.3428
  5844G12c O00E 8570   4.396   8.031  12.630 -2.0612 -0.3863  0.9039
  5844G12c H01B 8571   4.359   7.953  12.666  0.0811 -2.4094 -1.1104
  5844G12c C02F 8572   4.401   8.123  12.835  1.3527 -0.8317 -0.8317
  5844G12c O00F 8573   4.318   8.024  12.882 -0.5526 -0.1559 -0.5363
  5844G12c C02G 8574   4.304   7.984  13.011 -0.8574 -0.7172 -0.7420
  5844G12c H017 8575   4.412   7.969  13.025 -0.5113  1.3871 -0.9722
  5844G12c H016 8576   4.244   7.894  13.020  2.6475 -3.1811 -0.8250
  5844G12c H015 8577   4.273   8.054  13.089  1.0444  2.2408 -2.5418
  5844G12c C02E 8578   4.453   8.225  12.919  2.8673 -0.3984 -1.2511
  5844G12c H018 8579   4.406   8.257  13.011  2.5134  2.6000 -2.4184
  5844G12c C01F 8580   4.668   8.761  12.575 -0.7584 -0.1998  0.4740
  5844G12c C01G 8581   4.528   8.813  12.577  0.2046  0.2006 -0.3704
  5844G12c H00L 8582   4.462   8.829  12.661  4.1898 -4.2843  3.9498
  5844G12c C01H 8583   4.471   8.865  12.456 -0.7087  0.2415 -0.0672
  5844G12c H00B 8584   4.385   8.929  12.458 -1.6751 -1.0483  0.6554
  5844G12c C01I 8585   4.528   8.834  12.325  0.5133  0.0016 -1.6765
  5844G12c C01U 8586   4.715   8.741  12.444  0.5579 -0.5933  0.7017
  5844G12c C00S 8587   5.152   8.992  12.164  1.8026 -0.5241  2.0164
  5844G12c C00K 8588   4.943   8.943  12.094  1.0181 -1.5201 -1.1126
  5844G12c C00N 8589   4.843   8.798  12.425 -0.6166  0.2434  0.0281
  5844G12c C000 8590   4.632   8.753  12.336  0.1199  0.7434  0.5616
  5844G12c C01J 8591   4.527   8.909  12.194  0.3140 -2.1112  0.5240
  5844G12c C01K 8592   4.413   8.981  12.132 -0.4918 -1.4167  0.1878
  5844G12c C01P 8593   4.269   8.987  12.160 -0.9645  0.2310  0.3148
  5844G12c C01Q 8594   4.223   8.891  12.253 -0.2584  2.1098 -0.9149
  5844G12c H00G 8595   4.246   8.786  12.251-10.0648 -0.5682  0.9743
  5844G12c C01R 8596   4.100   8.900  12.312  1.1449  0.1747  1.3361
  5844G12c H00F 8597   4.038   8.984  12.340 -0.0208 -0.3154  0.3040
  5844G12c C01S 8598   4.009   8.798  12.363 -0.7471  1.6447 -0.6625
  5844G12c H00E 8599   4.019   8.726  12.282 -3.2225 -2.1023  2.2175
  5844G12c H00D 8600   3.900   8.803  12.365 -0.7693  0.9114  1.1377
  5844G12c O005 8601   4.049   8.692  12.443  0.2500 -0.9456 -0.0553
  5844G12c H00C 8602   4.066   8.721  12.531 -3.3383 -0.4930  0.5370
  5844G12c C01O 8603   4.182   9.074  12.100  0.5207  1.9018 -1.3528
  5844G12c H00H 8604   4.074   9.071  12.098  0.4646  1.3035 -7.1303
  5844G12c C01N 8605   4.249   9.160  11.997 -1.9961 -1.4133  0.0910
  5844G12c O006 8606   4.191   9.271  11.935 -1.7682  0.0765  0.7827
  5844G12c C01T 8607   4.094   9.236  11.849 -0.1773 -0.4072  0.2481
  5844G12c H00K 8608   4.000   9.190  11.878  0.2925 -3.0616 -2.2000
  5844G12c H00J 8609   4.154   9.182  11.776 -1.4243 -5.5415  2.7991
  5844G12c H00I 8610   4.078   9.340  11.818 -0.3855  0.8421  4.3135
  5844G12c C01M 8611   4.380   9.148  11.958 -1.8131  2.4474 -1.3866
  5844G12c C020 8612   4.841   8.985  11.998 -0.0281  0.4011  0.8334
  5844G12c C021 8613   4.854   9.068  11.890  1.2055 -1.3353  1.4631
  5844G12c C01L 8614   4.462   9.063  12.024 -0.0748  0.1176 -1.1550
  5844G12c O007 8615   4.430   9.242  11.870 -0.6156 -0.3627 -0.2862
  5844G12c C022 8616   4.761   9.141  11.831 -0.8679 -0.1143  0.3562
  5844G12c C023 8617   4.986   9.107  11.856 -0.6039  0.5702  2.0373
  5844G12c C00G 8618   5.187   9.288  11.856  1.5348  0.9883  1.2640
  5844G12c C00E 8619   5.305   9.467  11.745 -0.9732 -0.3777 -1.0842
  5844G12c O00A 8620   5.394   9.570  11.744  1.6821  0.4069 -0.8725
  5844G12c C024 8621   5.486   9.587  11.653 -0.0020 -0.7400 -0.1829
  5844G12c H00V 8622   5.458   9.554  11.553  2.8016 -9.9221  1.6169
  5844G12c H00U 8623   5.513   9.686  11.616  0.3111 -0.6277  0.3507
  5844G12c H00T 8624   5.565   9.517  11.680 -1.3774 -3.3718 -2.7176
  5854G12c C00D 8625   8.271   9.970   5.970  1.5426  0.6605 -1.0943
  5854G12c O00B 8626   8.310  10.096   5.956 -0.0003  0.6443  0.4888
  5854G12c C025 8627   8.392  10.106   5.843  0.8645  0.7514  0.8173
  5854G12c C026 8628   8.533  10.095   5.875 -0.4676 -0.7392  1.0104
  5854G12c H00Y 8629   8.601  10.015   5.843  2.3234  0.2192  4.2308
  5854G12c H00X 8630   8.549  10.071   5.980 -3.9343  1.2443  2.0759
  5854G12c O00C 8631   8.566  10.245   5.871  0.1309 -0.7583  0.2004
  5854G12c H00W 8632   8.489  10.274   5.917 -2.1372 -5.4212 -0.3595
  5854G12c C027 8633   8.337  10.157   5.733 -0.6396 -0.2299  1.6969
  5854G12c O00D 8634   8.200  10.184   5.750  1.1009 -0.2242 -0.7264
  5854G12c H00Z 8635   8.171  10.197   5.840 -2.6141 -4.9077 -1.0760
  5854G12c C028 8636   8.407  10.186   5.601  0.6614  0.9195  0.0715
  5854G12c C029 8637   8.337  10.257   5.497 -1.1935 -1.4679  0.5526
  5854G12c H010 8638   8.235  10.289   5.508 -0.5524  1.3420 -1.1932
  5854G12c C02T 8639   8.426  10.327   5.395  2.5128 -0.3977  1.0282
  5854G12c H01O 8640   8.376  10.367   5.308 -3.9058 -2.9123  3.2254
  5854G12c C02S 8641   8.553  10.290   5.374  1.9836 -1.8642 -0.5336
  5854G12c O00J 8642   8.620  10.314   5.258  1.8415 -0.9575  0.0044
  5854G12c H01P 8643   8.696  10.262   5.234  0.3009 -1.5127 -3.9707
  5854G12c C02R 8644   8.608  10.190   5.455 -2.0219  1.8846  0.0002
  5854G12c O00I 8645   8.720  10.151   5.416  0.9396  0.3254 -2.1700
  5854G12c C02Q 8646   8.834  10.171   5.509 -0.5213 -0.6473 -1.2871
  5854G12c H01N 8647   8.806  10.140   5.610  4.8715  2.6028  1.3879
  5854G12c H01R 8648   8.888  10.265   5.520  5.2963 -3.6469 -2.3018
  5854G12c H01Q 8649   8.910  10.106   5.467 -0.1180 -0.8968 -0.1825
  5854G12c C02A 8650   8.534  10.130   5.565 -0.6818 -0.4550  1.5692
  5854G12c H011 8651   8.588  10.057   5.623 -2.1474 -2.5340  0.3872
  5854G12c C00C 8652   8.172   9.901   5.890 -0.5829  1.4698  1.1398
  5854G12c H012 8653   8.101   9.949   5.824  4.1443  2.0023 -3.9216
  5854G12c C00B 8654   8.174   9.759   5.902  0.0202  1.4975  0.3315
  5854G12c C00A 8655   8.114   9.660   5.800 -0.1190 -1.4784  1.4811
  5854G12c C009 8656   8.023   9.679   5.686 -0.6250 -0.5674 -1.8880
  5854G12c C008 8657   7.971   9.807   5.618  0.3774  1.9733  0.9034
  5854G12c H013 8658   8.010   9.908   5.622 -4.0725  3.8655 -1.2831
  5854G12c C007 8659   7.868   9.761   5.523 -0.0101 -0.5089 -1.4389
  5854G12c H014 8660   7.836   9.842   5.460 -1.0944  2.3135  2.5418
  5854G12c C006 8661   7.800   9.642   5.526 -0.8942  1.2177  0.8038
  5854G12c C005 8662   7.853   9.536   5.605 -1.2559  0.7615  1.4879
  5854G12c C004 8663   7.796   9.403   5.622  2.2588 -0.3073 -0.2101
  5854G12c C003 8664   7.863   9.307   5.710  0.8554  0.0026 -1.0292
  5854G12c C002 8665   7.780   9.180   5.728  2.0094 -1.5947 -0.8543
  5854G12c C001 8666   7.793   9.063   5.818 -0.2723 -0.8752 -0.9701
  5854G12c C00M 8667   7.844   9.067   5.951  1.0689  0.4059 -0.4684
  5854G12c C00L 8668   7.948   9.158   5.980  0.4530 -0.5811 -1.1032
  5854G12c C00R 8669   7.982   9.184   6.110 -0.1619 -0.2452 -1.4112
  5854G12c C00Q 8670   7.965   9.129   6.243 -0.8901 -0.1066  0.4530
  5854G12c C00V 8671   8.045   9.190   6.348 -0.1241 -0.3758 -1.9384
  5854G12c C00U 8672   8.128   9.313   6.321 -0.1683 -0.4414 -1.3559
  5854G12c C00T 8673   8.150   9.366   6.199 -1.0659 -0.7037 -1.2008
  5854G12c C016 8674   8.185   9.498   6.170  0.3496  0.5129 -0.1464
  5854G12c C015 8675   8.216   9.585   6.285 -1.0757  0.2150  1.6121
  5854G12c C010 8676   8.228   9.518   6.408 -0.5978 -0.6779  0.1837
  5854G12c C011 8677   8.301   9.592   6.508 -0.0704  0.4340  0.8724
  5854G12c H005 8678   8.336   9.554   6.603 -0.5312 -5.7838 -1.2243
  5854G12c C012 8679   8.325   9.736   6.495 -0.8054  0.7499  0.1637
  5854G12c C017 8680   8.378   9.814   6.605 -2.2744 -0.5732  1.3635
  5854G12c O002 8681   8.514   9.782   6.641 -0.8827  0.5778  1.2678
  5854G12c H004 8682   8.556   9.799   6.725 -2.4019  0.8184  1.9835
  5854G12c C018 8683   8.290   9.889   6.676  1.0914  2.2874  0.1899
  5854G12c O001 8684   8.160   9.889   6.642 -1.4358  0.9810 -0.5423
  5854G12c H003 8685   8.156   9.797   6.621  6.3846  0.4041 -1.0617
  5854G12c C019 8686   8.317   9.960   6.811  0.4479 -0.2632 -0.8817
  5854G12c H002 8687   8.291   9.924   6.911 -2.0158 -2.2005 -2.1789
  5854G12c H001 8688   8.416   9.915   6.808  0.5322 -0.8226  4.8783
  5854G12c O000 8689   8.329  10.102   6.801 -0.9128  1.0033  0.3259
  5854G12c C01A 8690   8.456  10.137   6.797 -1.4001 -0.4963  0.5338
  5854G12c C02K 8691   8.579  10.103   6.858 -1.0692 -0.4141  1.3159
  5854G12c O00G 8692   8.584   9.981   6.934 -0.6235 -1.1603 -0.4459
  5854G12c C02M 8693   8.688   9.896   6.994 -1.2311 -0.4833 -1.3008
  5854G12c H01G 8694   8.639   9.814   7.046  3.5512 -6.6380 -5.7488
  5854G12c H01F 8695   8.751   9.958   7.058  0.3967 -2.8084 -0.5972
  5854G12c H01E 8696   8.750   9.866   6.910 -1.0421  4.1064 -2.9536
  5854G12c C02J 8697   8.698  10.178   6.858  0.3871 -0.0867 -0.0631
  5854G12c H01H 8698   8.786  10.137   6.905  0.8881 -0.8628 -1.6407
  5854G12c C02I 8699   8.714  10.291   6.777 -0.9947 -0.1624  1.4702
  5854G12c C02N 8700   8.842  10.355   6.759  1.2921 -1.4626 -0.2122
  5854G12c H01M 8701   8.886  10.435   6.817  3.5053 -1.8953 -1.2383
  5854G12c C02O 8702   8.925  10.300   6.655  0.9620 -1.2052 -0.7377
  5854G12c H01L 8703   9.013  10.361   6.655  2.7544 -3.6312  2.5431
  5854G12c C02P 8704   8.893  10.230   6.527  1.9951 -1.1335 -0.2245
  5854G12c H01K 8705   8.860  10.323   6.481  3.3801 -1.9825 -3.0410
  5854G12c H01J 8706   8.990  10.207   6.483  6.3367  8.0005  3.1657
  5854G12c O00H 8707   8.776  10.134   6.545 -0.9769  1.5254  0.3418
  5854G12c H01I 8708   8.733  10.133   6.461  0.9753 -1.3473 -0.7338
  5854G12c C02H 8709   8.592  10.315   6.709 -0.6659 -0.0306  0.6951
  5854G12c H01C 8710   8.626  10.406   6.663 -3.9600 -0.8892 -3.7542
  5854G12c C02L 8711   8.478  10.241   6.707  0.6800  0.9308 -0.7875
  5854G12c H01D 8712   8.400  10.296   6.658  2.3781  1.0157 -3.4763
  5854G12c C013 8713   8.296   9.792   6.365  0.5963  2.6579 -1.2473
  5854G12c H000 8714   8.304   9.898   6.382  1.3362  1.9307  3.9708
  5854G12c C014 8715   8.255   9.721   6.252  0.4422  0.5920 -0.2694
  5854G12c C00F 8716   8.261   9.778   6.123  0.6671 -0.3639  0.3610
  5854G12c C00H 8717   8.163   9.559   6.046 -0.1131 -0.1938  1.2303
  5854G12c C00I 8718   8.127   9.478   5.948  0.4385  2.4673  1.2071
  5854G12c C00J 8719   8.092   9.339   5.969 -0.1135 -0.2398 -0.2161
  5854G12c C00Z 8720   8.157   9.397   6.433  0.2769 -0.5438  0.5406
  5854G12c C00Y 8721   8.129   9.346   6.551 -1.7445 -0.2021  1.1753
  5854G12c H006 8722   8.178   9.412   6.621  1.8839 -1.1399 -0.3514
  5854G12c C00X 8723   8.084   9.219   6.577  0.6313 -1.3899  0.7132
  5854G12c O003 8724   8.125   9.170   6.689 -0.6878 -1.2269 -1.2416
  5854G12c C01B 8725   8.133   9.036   6.721 -0.9654  0.4010 -0.5397
  5854G12c H009 8726   8.159   8.975   6.634 -4.4945 -3.8407  1.2392
  5854G12c H008 8727   8.197   8.992   6.798  2.8744 -2.9815 -5.2929
  5854G12c H007 8728   8.042   8.984   6.747 -0.7930 -1.7348 -3.8990
  5854G12c C00W 8729   8.020   9.150   6.488  0.6969  0.3428 -0.2786
  5854G12c O004 8730   7.922   9.062   6.528 -1.0660  0.2933  0.5436
  5854G12c C01C 8731   7.871   8.976   6.421 -1.9683 -0.8152 -0.4789
  5854G12c H00A 8732   7.903   8.873   6.419 -4.3994 -1.5858 -0.9487
  5854G12c C00P 8733   7.872   9.031   6.279  1.0246 -1.9597 -0.8385
  5854G12c C00O 8734   7.752   9.022   6.189 -0.1308 -1.5088 -1.1255
  5854G12c C01D 8735   7.618   8.987   6.238 -1.1050  2.2740 -0.0420
  5854G12c H00S 8736   7.616   8.922   6.325  1.5640 -3.1835 -3.7589
  5854G12c C01E 8737   7.508   9.009   6.160  1.3398  0.1494  0.1255
  5854G12c O008 8738   7.376   9.030   6.205 -0.9251  0.6682 -0.0918
  5854G12c C01V 8739   7.354   9.038   6.339  0.0100 -1.1312  0.7577
  5854G12c C01Z 8740   7.338   8.907   6.413  1.2663 -0.6039  0.1007
  5854G12c H00R 8741   7.423   8.894   6.479  1.6772 -2.9420 -0.8412
  5854G12c H00Q 8742   7.250   8.927   6.474  1.8970  0.4283  0.6799
  5854G12c O009 8743   7.352   8.797   6.334  0.0547 -1.1356 -0.4256
  5854G12c H00P 8744   7.413   8.808   6.263 -3.1085  2.8754 -2.7407
  5854G12c C01W 8745   7.380   9.162   6.403 -0.4838  0.7353 -0.0387
  5854G12c H00O 8746   7.385   9.154   6.511 -1.1749 -1.9071 -0.1567
  5854G12c C01X 8747   7.354   9.297   6.340  0.4911  1.1351 -0.2169
  5854G12c H00N 8748   7.439   9.365   6.354  0.5089  1.3407 -1.3353
  5854G12c H00M 8749   7.348   9.293   6.232 -5.3212  2.8843 -0.1543
  5854G12c C01Y 8750   7.207   9.349   6.351  1.5026 -2.2426 -0.6931
  5854G12c C02D 8751   7.182   9.464   6.422 -0.2557 -0.9770 -1.4429
  5854G12c H019 8752   7.236   9.518   6.498 -4.7472  2.3975 -0.4832
  5854G12c C02C 8753   7.046   9.529   6.413 -1.1883  1.2319  0.7497
  5854G12c H01A 8754   7.045   9.612   6.482 -4.0707 -1.2030  3.7706
  5854G12c C02B 8755   6.949   9.466   6.338  0.8438 -0.1619  0.3758
  5854G12c O00E 8756   6.837   9.546   6.329  0.1816  1.4434  0.9878
  5854G12c H01B 8757   6.772   9.505   6.273  1.8496  0.3662 -0.2400
  5854G12c C02F 8758   6.977   9.354   6.260 -0.0253 -0.9898  0.4706
  5854G12c O00F 8759   6.892   9.316   6.169 -0.5101  0.0701  0.1196
  5854G12c C02G 8760   6.837   9.184   6.182  0.0942 -1.5297 -0.7279
  5854G12c H017 8761   6.730   9.177   6.204  0.8444 -2.2587  3.0155
  5854G12c H016 8762   6.858   9.128   6.273  0.7387  1.2629  0.9067
  5854G12c H015 8763   6.853   9.141   6.083  5.2063 -3.1464  0.6518
  5854G12c C02E 8764   7.101   9.300   6.272  0.1902 -1.5937  0.7126
  5854G12c H018 8765   7.124   9.223   6.200  0.2017  0.0655 -1.1135
  5854G12c C01F 8766   7.529   9.019   6.019 -1.5690  0.2802  1.7075
  5854G12c C01G 8767   7.426   9.075   5.942  1.7744 -0.9994 -0.0542
  5854G12c H00L 8768   7.336   9.091   6.000  0.1548 -1.3925 -2.3777
  5854G12c C01H 8769   7.439   9.116   5.804  0.2498  0.6580  1.0145
  5854G12c H00B 8770   7.372   9.176   5.745  3.3267  0.8362 -2.4349
  5854G12c C01I 8771   7.566   9.090   5.749  0.5596 -0.7085 -0.9473
  5854G12c C01U 8772   7.646   8.989   5.954 -0.4259  1.7482  1.9825
  5854G12c C00S 8773   8.078   9.292   6.102  0.8830  0.0742  0.9482
  5854G12c C00K 8774   8.002   9.258   5.892  0.0407 -0.6558 -0.1089
  5854G12c C00N 8775   7.753   9.004   6.049 -0.1882  0.2957  2.2062
  5854G12c C000 8776   7.665   9.012   5.826 -0.4415  0.3967 -0.6268
  5854G12c C01J 8777   7.640   9.188   5.682  0.6007 -0.4614 -0.2356
  5854G12c C01K 8778   7.582   9.266   5.571 -0.5187  0.0558 -0.0824
  5854G12c C01P 8779   7.465   9.260   5.479 -0.2764 -0.7931 -0.0932
  5854G12c C01Q 8780   7.421   9.145   5.437  0.9680 -0.0889  1.7279
  5854G12c H00G 8781   7.476   9.054   5.415  3.5196  2.3334 -2.5829
  5854G12c C01R 8782   7.296   9.121   5.461  1.4382  0.8689  1.2433
  5854G12c H00F 8783   7.225   9.202   5.470 -5.9364 -4.5956 -1.8420
  5854G12c C01S 8784   7.233   8.983   5.448 -0.2053  0.2822  0.4963
  5854G12c H00E 8785   7.162   8.972   5.366  2.9234  7.1821 -3.6032
  5854G12c H00D 8786   7.315   8.913   5.432 -3.6453 -3.3121 -2.7753
  5854G12c O005 8787   7.200   8.971   5.575  0.4573  0.8285  0.0217
  5854G12c H00C 8788   7.172   8.880   5.579 -4.9464  1.9556 -4.7945
  5854G12c C01O 8789   7.443   9.362   5.385 -0.9625 -2.6007  0.3003
  5854G12c H00H 8790   7.360   9.373   5.318 -1.2967  5.6049  1.5471
  5854G12c C01N 8791   7.511   9.473   5.387  0.5177 -0.7749  0.0611
  5854G12c O006 8792   7.465   9.576   5.320 -1.0695  0.6531  1.0509
  5854G12c C01T 8793   7.504   9.612   5.184  1.1362 -0.4230 -1.7428
  5854G12c H00K 8794   7.494   9.538   5.105 -3.1467 -1.0051 -0.8101
  5854G12c H00J 8795   7.610   9.635   5.190  1.4124 -1.5909 -2.0051
  5854G12c H00I 8796   7.428   9.687   5.162  2.8309  0.4580 -5.0311
  5854G12c C01M 8797   7.624   9.486   5.470  0.2045  0.6248 -1.0569
  5854G12c C020 8798   7.985   9.324   5.769 -2.2325 -0.7908  0.7009
  5854G12c C021 8799   8.041   9.448   5.735  0.2554 -0.3096 -1.2035
  5854G12c C01L 8800   7.663   9.378   5.556  0.9597 -1.1961  0.8805
  5854G12c O007 8801   7.679   9.614   5.466  0.2498  0.2249 -0.4084
  5854G12c C022 8802   7.979   9.550   5.654  0.4570  0.2008 -0.0669
  5854G12c C023 8803   8.125   9.523   5.820 -1.0340 -1.5664  0.6906
  5854G12c C00G 8804   8.188   9.702   6.020 -1.2409  1.0341 -1.5708
  5854G12c C00E 8805   8.310   9.913   6.088 -0.3882  1.7871 -0.1978
  5854G12c O00A 8806   8.392   9.969   6.183  0.3065  0.2918 -0.5688
  5854G12c C024 8807   8.346  10.098   6.231  0.0078 -0.0002  1.3473
  5854G12c H00V 8808   8.328  10.103   6.339 -2.3726  5.9610  0.8638
  5854G12c H00U 8809   8.434  10.162   6.225 -0.2423  0.0874 -1.8361
  5854G12c H00T 8810   8.286  10.168   6.173  2.7245  1.1147 -0.2100
  5864G12c C00D 8811   7.629   3.086   6.775  1.2013 -0.4232 -1.8724
  5864G12c O00B 8812   7.545   3.162   6.690 -0.6293  1.5111  1.6156
  5864G12c C025 8813   7.566   3.292   6.702  0.6978 -0.4417 -0.3066
  5864G12c C026 8814   7.466   3.334   6.817  1.1912 -0.8097  0.1736
  5864G12c H00Y 8815   7.456   3.440   6.839  1.3709 -1.6276  4.8075
  5864G12c H00X 8816   7.478   3.298   6.919 -0.1026 -0.7945  0.3419
  5864G12c O00C 8817   7.331   3.296   6.778  0.2098 -0.9018 -0.0170
  5864G12c H00W 8818   7.336   3.245   6.699 -0.4816  3.9061 -3.4240
  5864G12c C027 8819   7.641   3.369   6.632  0.0332  0.7404 -0.0725
  5864G12c O00D 8820   7.746   3.318   6.582  1.1583  0.0923 -0.8773
  5864G12c H00Z 8821   7.784   3.241   6.622 -0.5741  0.3223  1.2411
  5864G12c C028 8822   7.604   3.497   6.638 -0.7050 -2.0947  1.0624
  5864G12c C029 8823   7.469   3.564   6.654  1.8515  1.1395  0.6590
  5864G12c H010 8824   7.380   3.521   6.610 -2.5488  6.8048  3.3447
  5864G12c C02T 8825   7.442   3.687   6.702  0.1032 -2.3747  0.0038
  5864G12c H01O 8826   7.341   3.711   6.730  2.2054  6.5849  1.3842
  5864G12c C02S 8827   7.557   3.757   6.733  0.0253  1.1647 -0.1791
  5864G12c O00J 8828   7.549   3.883   6.782  0.7488  0.6896  0.4057
  5864G12c H01P 8829   7.617   3.901   6.845  0.3989  2.5484  0.2897
  5864G12c C02R 8830   7.688   3.709   6.682 -0.3423  1.5847 -0.7475
  5864G12c O00I 8831   7.798   3.777   6.720  0.6040 -0.7356  1.4264
  5864G12c C02Q 8832   7.815   3.882   6.629  1.6591 -0.7060  0.0955
  5864G12c H01N 8833   7.747   3.965   6.644  3.9546  1.3622 -0.6917
  5864G12c H01R 8834   7.797   3.869   6.523  0.4864 -3.0060  0.5451
  5864G12c H01Q 8835   7.909   3.936   6.619 -0.0398  2.3650  0.1940
  5864G12c C02A 8836   7.694   3.590   6.629 -1.0369  0.2033 -2.4679
  5864G12c H011 8837   7.795   3.577   6.592 -1.8582 -1.0851 -4.3111
  5864G12c C00C 8838   7.744   3.146   6.840 -0.0669 -0.6944 -0.0674
  5864G12c H012 8839   7.774   3.250   6.834 -1.7367  0.2455  4.8301
  5864G12c C00B 8840   7.842   3.057   6.891 -0.8114 -0.1768  0.8290
  5864G12c C00A 8841   7.978   3.090   6.923 -0.5131 -0.6904  0.6406
  5864G12c C009 8842   8.075   3.187   6.875 -0.6093 -0.0059 -2.1944
  5864G12c C008 8843   8.094   3.281   6.772  0.5421  0.8823  1.1919
  5864G12c H013 8844   8.008   3.314   6.717  0.2390  2.5394  2.6056
  5864G12c C007 8845   8.223   3.296   6.739  1.5748 -1.8835 -2.2685
  5864G12c H014 8846   8.248   3.361   6.656  2.4133  0.0013 -0.5737
  5864G12c C006 8847   8.342   3.237   6.799 -0.4510  1.9569 -1.9791
  5864G12c C005 8848   8.323   3.156   6.908 -0.7879 -2.1931  0.7012
  5864G12c C004 8849   8.423   3.066   6.960  1.6578  0.0334 -0.4300
  5864G12c C003 8850   8.393   2.974   7.062 -1.0990  0.9357 -0.4456
  5864G12c C002 8851   8.498   2.890   7.114 -1.0564  1.2568 -0.3198
  5864G12c C001 8852   8.504   2.780   7.215  0.7415  0.1815 -1.4842
  5864G12c C00M 8853   8.403   2.694   7.254 -0.6647 -1.1841  0.0174
  5864G12c C00L 8854   8.255   2.714   7.250 -0.1932 -0.3485 -0.8480
  5864G12c C00R 8855   8.164   2.611   7.216  0.9650  0.6069  0.4427
  5864G12c C00Q 8856   8.163   2.470   7.209  0.9090 -1.0955 -0.1844
  5864G12c C00V 8857   8.049   2.407   7.142  0.6154  0.0119 -0.5240
  5864G12c C00U 8858   7.930   2.477   7.095 -1.2553  1.0656 -0.1455
  5864G12c C00T 8859   7.935   2.623   7.098  0.5344  0.1591 -1.1558
  5864G12c C016 8860   7.862   2.705   7.016  0.0372  0.5517 -0.7264
  5864G12c C015 8861   7.742   2.653   6.977 -2.3707 -0.9433 -1.5965
  5864G12c C010 8862   7.714   2.518   7.000  1.3388 -1.0519 -0.5043
  5864G12c C011 8863   7.603   2.459   6.932  1.4188 -0.6150 -0.1061
  5864G12c H005 8864   7.583   2.354   6.944  1.1826 -0.3880  1.6079
  5864G12c C012 8865   7.500   2.539   6.883 -1.4893  1.0431 -2.9796
  5864G12c C017 8866   7.411   2.455   6.815  0.5042 -1.3579  1.1791
  5864G12c O002 8867   7.433   2.432   6.688 -0.1653 -0.5145 -0.9120
  5864G12c H004 8868   7.397   2.509   6.646 -5.3037 -3.5493 -2.5414
  5864G12c C018 8869   7.305   2.409   6.893 -0.3371 -1.0948  0.0826
  5864G12c O001 8870   7.267   2.463   7.015 -2.2860  0.1268 -0.6578
  5864G12c H003 8871   7.292   2.555   7.018  5.6692 -1.5142 -3.1914
  5864G12c C019 8872   7.231   2.276   6.856  0.3541  0.5084  0.9696
  5864G12c H002 8873   7.125   2.275   6.879  0.0710 -1.6214 -0.2730
  5864G12c H001 8874   7.267   2.219   6.770 -2.6504 -3.4173  2.1394
  5864G12c O000 8875   7.296   2.193   6.954 -0.7617 -0.5130 -0.0216
  5864G12c C01A 8876   7.251   2.068   6.971  0.2639  0.0049  1.5603
  5864G12c C02K 8877   7.285   2.008   7.094 -0.6246 -0.4508 -1.0167
  5864G12c O00G 8878   7.316   2.099   7.199 -0.5269 -0.9802 -0.6252
  5864G12c C02M 8879   7.195   2.195   7.211 -0.4780  2.4815 -1.2594
  5864G12c H01G 8880   7.116   2.166   7.142 -4.4342  2.4566  3.0100
  5864G12c H01F 8881   7.145   2.190   7.308 -0.7768  1.3516 -1.4622
  5864G12c H01E 8882   7.194   2.291   7.160 -0.9931  2.8521 -0.5681
  5864G12c C02J 8883   7.220   1.875   7.125  0.4018  1.1974 -0.9048
  5864G12c H01H 8884   7.237   1.813   7.211 -1.5852 -0.5342 -1.7285
  5864G12c C02I 8885   7.171   1.795   7.013 -1.0132  0.4915 -0.5886
  5864G12c C02N 8886   7.190   1.657   7.026 -0.4441 -1.6052  0.1557
  5864G12c H01M 8887   7.146   1.580   7.089 -1.5283 -2.8122 -2.0255
  5864G12c C02O 8888   7.272   1.600   6.934  0.4063 -0.7235  0.0343
  5864G12c H01L 8889   7.313   1.664   6.857 -3.0567  0.3588 -1.0077
  5864G12c C02P 8890   7.332   1.447   6.940 -0.9191  0.4069 -0.8301
  5864G12c H01K 8891   7.381   1.431   6.843  1.2430  1.2464  0.0838
  5864G12c H01J 8892   7.409   1.426   7.014  1.7756  1.1727 -3.2861
  5864G12c O00H 8893   7.221   1.365   6.916  0.0018 -0.2386  1.4326
  5864G12c H01I 8894   7.245   1.286   6.963  6.8610  1.8016  1.8860
  5864G12c C02H 8895   7.146   1.863   6.886 -0.0810 -0.0243  0.0277
  5864G12c H01C 8896   7.152   1.804   6.796  2.2444 -1.6415  1.1899
  5864G12c C02L 8897   7.185   2.001   6.867  0.9658  2.1527 -0.3602
  5864G12c H01D 8898   7.147   2.012   6.766 -1.6260 -2.0501 -0.0229
  5864G12c C013 8899   7.513   2.678   6.886  0.6392  0.9256  0.2360
  5864G12c H000 8900   7.442   2.755   6.861  1.5191  3.6850  5.3535
  5864G12c C014 8901   7.651   2.727   6.901  1.9489 -1.0770 -0.1623
  5864G12c C00F 8902   7.693   2.856   6.882 -0.2609 -1.5476  0.2736
  5864G12c C00H 8903   7.895   2.831   7.000  0.4234 -0.4648 -0.5655
  5864G12c C00I 8904   8.002   2.890   7.079 -0.4688  1.4211  0.5367
  5864G12c C00J 8905   8.079   2.802   7.146 -0.8424  0.0862 -1.0474
  5864G12c C00Z 8906   7.815   2.427   7.047  1.0828 -0.7630 -0.0513
  5864G12c C00Y 8907   7.784   2.293   7.077  1.7902 -1.0222  0.3605
  5864G12c H006 8908   7.680   2.263   7.067  1.6468 -1.6412  3.1603
  5864G12c C00X 8909   7.883   2.221   7.139 -0.9303  0.5624  0.1975
  5864G12c O003 8910   7.844   2.087   7.136 -0.5354 -0.4191 -0.3643
  5864G12c C01B 8911   7.711   2.042   7.178 -0.8629 -0.5786 -1.3433
  5864G12c H009 8912   7.620   2.098   7.200  2.6823  3.9725  3.2789
  5864G12c H008 8913   7.710   1.962   7.252  1.3062  4.1540  4.2273
  5864G12c H007 8914   7.658   2.001   7.093 -1.1527  3.6121 -3.3209
  5864G12c C00W 8915   8.024   2.268   7.154 -0.0572  0.9385 -0.7193
  5864G12c O004 8916   8.118   2.183   7.223 -1.1365 -1.2899  0.9125
  5864G12c C01C 8917   8.240   2.247   7.249  0.1281 -0.2292  0.9192
  5864G12c H00A 8918   8.324   2.178   7.253 -2.7702 -3.8170  4.1132
  5864G12c C00P 8919   8.269   2.390   7.213  0.7858  0.1949  1.1175
  5864G12c C00O 8920   8.394   2.434   7.199 -0.5581  1.3043 -1.2231
  5864G12c C01D 8921   8.496   2.340   7.151 -0.1499  0.8277 -0.0427
  5864G12c H00S 8922   8.453   2.251   7.107 -0.7110  2.5776 -3.1804
  5864G12c C01E 8923   8.625   2.373   7.095 -0.7186 -0.2957  1.7017
  5864G12c O008 8924   8.685   2.280   7.018  0.2441 -0.0604 -0.2481
  5864G12c C01V 8925   8.685   2.148   7.066 -1.2719 -0.9175  1.5451
  5864G12c C01Z 8926   8.653   2.045   6.962 -0.3239 -0.4854  0.2743
  5864G12c H00R 8927   8.716   2.071   6.876 -2.7630  3.8751 -0.3213
  5864G12c H00Q 8928   8.679   1.939   6.968  4.9926  0.6987  0.7545
  5864G12c O009 8929   8.516   2.083   6.929 -1.7727  0.6991 -0.2573
  5864G12c H00P 8930   8.511   2.177   6.932  2.3261  1.0090 -0.5240
  5864G12c C01W 8931   8.748   2.118   7.179 -0.8462 -1.0607 -0.5883
  5864G12c H00O 8932   8.728   2.020   7.219  1.5802  0.1530  3.9687
  5864G12c C01X 8933   8.819   2.202   7.276  2.4432 -0.3691  0.6611
  5864G12c H00N 8934   8.857   2.298   7.241 -1.8207  1.9818  2.2001
  5864G12c H00M 8935   8.728   2.224   7.331  3.6596  1.0692  2.1359
  5864G12c C01Y 8936   8.948   2.149   7.341 -0.4565  1.1685 -0.6777
  5864G12c C02D 8937   8.937   2.048   7.445  0.1236 -0.1765  1.2245
  5864G12c H019 8938   8.848   1.988   7.460  0.8986 -1.6290  0.1367
  5864G12c C02C 8939   9.040   1.997   7.513  0.0844  0.8711 -1.2412
  5864G12c H01A 8940   9.007   1.924   7.585  1.0608 -1.2421 -2.9072
  5864G12c C02B 8941   9.162   2.063   7.490 -0.1382  0.2523  0.3517
  5864G12c O00E 8942   9.263   2.010   7.578 -1.2427  1.4537  0.8082
  5864G12c H01B 8943   9.347   2.053   7.573 -0.0637 -0.6297  2.0597
  5864G12c C02F 8944   9.186   2.154   7.387 -0.8340 -1.0590 -0.4400
  5864G12c O00F 8945   9.289   2.219   7.322 -0.5593  0.2560  0.4135
  5864G12c C02G 8946   9.390   2.135   7.294  0.2186 -0.5626 -0.5094
  5864G12c H017 8947   9.461   2.157   7.374  0.8782 -1.0025 -0.9718
  5864G12c H016 8948   9.440   2.185   7.211 -2.3492 -2.7830 -3.5271
  5864G12c H015 8949   9.341   2.043   7.263 -0.0217 -0.2941 -0.9400
  5864G12c C02E 8950   9.078   2.200   7.321  0.8691  1.2287  0.1601
  5864G12c H018 8951   9.102   2.287   7.261  1.4047  2.6151  2.3350
  5864G12c C01F 8952   8.671   2.497   7.098 -1.4290  1.1066  1.0121
  5864G12c C01G 8953   8.786   2.557   7.028 -0.9184  2.0959  2.1278
  5864G12c H00L 8954   8.854   2.509   6.960  3.2092  1.7443  6.2848
  5864G12c C01H 8955   8.790   2.700   7.007  1.3620 -1.3043  0.2239
  5864G12c H00B 8956   8.848   2.734   6.922 -0.6244  1.3846 -0.1570
  5864G12c C01I 8957   8.709   2.778   7.089  1.5375 -0.3441 -0.9007
  5864G12c C01U 8958   8.597   2.583   7.186 -1.5506 -0.3160  0.7765
  5864G12c C00S 8959   8.040   2.666   7.179 -1.5746 -1.1690  1.8135
  5864G12c C00K 8960   8.204   2.829   7.187 -0.0520  1.5075  1.2714
  5864G12c C00N 8961   8.462   2.559   7.216  1.1535 -1.1825 -0.7521
  5864G12c C000 8962   8.627   2.714   7.189 -0.1233 -1.9350 -1.7778
  5864G12c C01J 8963   8.627   2.898   7.058  1.4227  0.2433 -0.1127
  5864G12c C01K 8964   8.666   3.009   6.969  1.0807 -1.5302 -2.2066
  5864G12c C01P 8965   8.798   3.050   6.915  0.4548  0.7011 -0.5532
  5864G12c C01Q 8966   8.910   3.044   7.000 -1.3468 -0.9519 -0.6867
  5864G12c H00G 8967   8.885   3.008   7.099 -5.2736  0.4392 -1.0870
  5864G12c C01R 8968   9.016   2.985   6.945 -0.2817 -0.5715  0.9715
  5864G12c H00F 8969   9.025   2.989   6.838 -2.2651 -3.3319  0.6685
  5864G12c C01S 8970   9.122   2.924   7.028 -0.8137  0.7785  1.1349
  5864G12c H00E 8971   9.186   2.960   6.948 -1.1145 -5.0255 -1.9215
  5864G12c H00D 8972   9.145   2.978   7.120  4.4981  2.0876 -0.8026
  5864G12c O005 8973   9.118   2.793   7.074  0.3344  2.7403  0.4474
  5864G12c H00C 8974   9.205   2.802   7.111  2.2445 -0.6998 -2.8151
  5864G12c C01O 8975   8.802   3.147   6.807 -1.6439  0.0618 -0.8245
  5864G12c H00H 8976   8.898   3.195   6.800  1.0750 -3.5761  6.2567
  5864G12c C01N 8977   8.692   3.221   6.755 -2.2085 -0.5627 -0.8091
  5864G12c O006 8978   8.698   3.322   6.649  0.2281 -0.2079 -0.4514
  5864G12c C01T 8979   8.803   3.322   6.542  0.9602  0.0551 -0.0779
  5864G12c H00K 8980   8.876   3.402   6.556 -0.0104  0.4750  3.0137
  5864G12c H00J 8981   8.777   3.361   6.444 -6.6930  1.3092  2.1448
  5864G12c H00I 8982   8.862   3.233   6.520 -2.9203 -2.4359 -0.8950
  5864G12c C01M 8983   8.577   3.187   6.806 -0.7315  0.8755 -0.7226
  5864G12c C020 8984   8.259   2.955   7.113  0.2068  1.0815 -0.0406
  5864G12c C021 8985   8.172   3.040   7.039  1.0207 -0.4155  2.0992
  5864G12c C01L 8986   8.558   3.085   6.916  0.7693 -1.2876  1.5063
  5864G12c O007 8987   8.472   3.265   6.766 -1.8146  0.3491  0.2486
  5864G12c C022 8988   8.199   3.130   6.940  0.6878  0.2814  0.6252
  5864G12c C023 8989   8.033   3.018   7.028 -1.2523  0.8429 -1.0745
  5864G12c C00G 8990   7.819   2.919   6.920  1.9644  0.9630  0.0793
  5864G12c C00E 8991   7.613   2.945   6.801 -1.4164 -0.4164 -0.1137
  5864G12c O00A 8992   7.544   2.878   6.692 -0.7398 -0.8466  0.0529
  5864G12c C024 8993   7.398   2.909   6.686 -0.1749 -0.4031  0.9157
  5864G12c H00V 8994   7.382   2.916   6.794  2.6932 -3.6367  1.6622
  5864G12c H00U 8995   7.332   2.839   6.635 -2.3457  4.1766 -2.9490
  5864G12c H00T 8996   7.354   3.009   6.683  4.0871  1.5784 -4.7628
  5874G12c C00D 8997   9.448   5.318   8.078 -0.5192  0.8799 -0.6097
  5874G12c O00B 8998   9.432   5.429   7.982 -0.9962  1.2382  1.3956
  5874G12c C025 8999   9.539   5.481   7.919  1.3566  0.6488 -0.9227
  5874G12c C026 9000   9.604   5.622   7.942  1.8195 -0.3109 -1.5315
  5874G12c H00Y 9001   9.652   5.640   7.846  0.0616  0.3042 -2.3270
  5874G12c H00X 9002   9.677   5.631   8.023 -1.8460 -0.5760  1.9725
  5874G12c O00C 9003   9.493   5.718   7.992 -2.4127  0.5055 -0.7942
  5874G12c H00W 9004   9.446   5.695   7.913 -7.0064 -6.0796  3.3271
  5874G12c C027 9005   9.599   5.397   7.828  0.0540  0.2370  1.4258
  5874G12c O00D 9006   9.530   5.286   7.769  0.0679  1.4030 -0.1247
  5874G12c H00Z 9007   9.579   5.255   7.694 -3.1985 -3.8101 -0.3751
  5874G12c C028 9008   9.719   5.429   7.758 -1.3168 -1.8725  0.5472
  5874G12c C029 9009   9.857   5.459   7.799  1.1369  0.4165  0.5639
  5874G12c H010 9010   9.888   5.474   7.901 -1.3195  1.9157  1.1224
  5874G12c C02T 9011   9.951   5.502   7.706  0.6966 -1.0126  2.0307
  5874G12c H01O 9012  10.047   5.517   7.752  1.3236 -0.5073  0.5708
  5874G12c C02S 9013   9.928   5.474   7.572 -0.4579  0.7405  0.1291
  5874G12c O00J 9014  10.030   5.480   7.490 -0.9830 -1.3783 -0.5448
  5874G12c H01P 9015  10.096   5.412   7.490  3.4674  2.6646  0.3464
  5874G12c C02R 9016   9.792   5.461   7.527  1.2899 -0.2850  1.9130
  5874G12c O00I 9017   9.773   5.476   7.395 -1.6749  0.2496 -0.3220
  5874G12c C02Q 9018   9.693   5.380   7.316 -2.6782 -0.4021 -1.5198
  5874G12c H01N 9019   9.710   5.306   7.238  0.2697  0.4592 -1.7761
  5874G12c H01R 9020   9.657   5.311   7.392  4.6054 -6.9295 -3.3402
  5874G12c H01Q 9021   9.621   5.444   7.266  3.0995  2.9134 -6.2643
  5874G12c C02A 9022   9.685   5.464   7.620 -1.8557 -0.5094 -0.2933
  5874G12c H011 9023   9.585   5.467   7.580 -1.5903  2.8014 -0.9030
  5874G12c C00C 9024   9.568   5.247   8.081  0.9787  0.9085 -1.2312
  5874G12c H012 9025   9.658   5.286   8.036  2.1799  2.9169  2.6767
  5874G12c C00B 9026   9.608   5.168   8.185  0.5821  0.2925 -0.4422
  5874G12c C00A 9027   9.734   5.107   8.222  0.9463  0.6709  0.1102
  5874G12c C009 9028   9.834   5.060   8.127  0.1586  0.4128 -1.4440
  5874G12c C008 9029   9.866   5.072   7.989  0.1467 -0.5248 -0.1380
  5874G12c H013 9030   9.814   5.132   7.915  0.1534 -2.6349 -1.8968
  5874G12c C007 9031   9.988   4.997   7.951  1.4834 -1.6190 -0.9579
  5874G12c H014 9032  10.044   5.050   7.875 -1.8150  1.3173 -1.4959
  5874G12c C006 9033  10.062   4.906   8.028  0.8687 -0.8420  1.1984
  5874G12c C005 9034  10.006   4.887   8.165 -0.7101  0.9881  0.1447
  5874G12c C004 9035  10.051   4.790   8.248 -2.0009 -0.7906 -0.6340
  5874G12c C003 9036   9.986   4.775   8.384  1.4811 -0.5554 -0.3058
  5874G12c C002 9037  10.041   4.660   8.462  1.2241 -0.1330 -0.6319
  5874G12c C001 9038   9.989   4.591   8.577  0.0806 -0.5331  1.7494
  5874G12c C00M 9039   9.831   4.575   8.587  1.7912 -1.5753  0.6508
  5874G12c C00L 9040   9.738   4.664   8.544 -2.0190  0.7062  0.5118
  5874G12c C00R 9041   9.596   4.646   8.511 -0.4825 -1.1383 -0.0928
  5874G12c C00Q 9042   9.523   4.525   8.502 -0.3100 -0.2076 -1.9197
  5874G12c C00V 9043   9.389   4.548   8.465  1.0868 -0.7549  0.0565
  5874G12c C00U 9044   9.341   4.673   8.412 -0.8378 -0.3708  0.0701
  5874G12c C00T 9045   9.415   4.793   8.432 -1.0617  0.1963 -0.7705
  5874G12c C016 9046   9.408   4.916   8.366  2.2280  0.2662 -0.2949
  5874G12c C015 9047   9.288   4.929   8.312  2.7775 -1.0254  0.1635
  5874G12c C010 9048   9.189   4.827   8.308  1.9757 -0.3615 -1.3500
  5874G12c C011 9049   9.060   4.868   8.316  0.6610 -0.4747  0.5368
  5874G12c H005 9050   8.973   4.805   8.325 -2.2479  3.3143  0.2121
  5874G12c C012 9051   9.020   5.006   8.318  0.3712 -0.5689  1.4594
  5874G12c C017 9052   8.896   5.047   8.338  0.6579 -0.0420  0.0518
  5874G12c O002 9053   8.860   5.129   8.437  2.5259 -1.0987  0.7884
  5874G12c H004 9054   8.825   5.201   8.386  3.3789  0.8873  2.9471
  5874G12c C018 9055   8.788   5.006   8.253  1.1089 -1.5755 -0.9226
  5874G12c O001 9056   8.649   5.042   8.266  0.7078  0.0948 -1.1985
  5874G12c H003 9057   8.592   4.970   8.291 -5.4798  5.1347  0.4538
  5874G12c C019 9058   8.779   4.905   8.141 -1.1605 -0.8663  0.3672
  5874G12c H002 9059   8.736   4.963   8.058  0.3180  0.4029  0.4654
  5874G12c H001 9060   8.885   4.888   8.121 -1.8898 -3.5884 -1.4387
  5874G12c O000 9061   8.698   4.787   8.176 -1.0786 -1.3019  0.1944
  5874G12c C01A 9062   8.672   4.684   8.093  0.4808 -0.0802 -0.6420
  5874G12c C02K 9063   8.537   4.633   8.119 -0.0023  1.0688  0.4783
  5874G12c O00G 9064   8.466   4.688   8.221  0.6645 -0.3041  1.2358
  5874G12c C02M 9065   8.358   4.619   8.289  1.4830  0.4590  0.0043
  5874G12c H01G 9066   8.385   4.537   8.356 -6.8987 -1.0328  2.2109
  5874G12c H01F 9067   8.312   4.612   8.190 -2.5010 -3.0112  1.9065
  5874G12c H01E 9068   8.295   4.677   8.357  1.1779 -0.3343  0.4079
  5874G12c C02J 9069   8.501   4.523   8.036 -0.3604  2.3111  2.2983
  5874G12c H01H 9070   8.407   4.470   8.038 -2.1213  4.8311 -2.8893
  5874G12c C02I 9071   8.580   4.479   7.928  0.6370 -0.1934  1.1120
  5874G12c C02N 9072   8.529   4.379   7.828  0.1067 -0.6284 -0.5974
  5874G12c H01M 9073   8.478   4.378   7.733  2.4049 -3.8697 -1.8630
  5874G12c C02O 9074   8.509   4.264   7.893  0.7451 -1.0007 -0.3578
  5874G12c H01L 9075   8.550   4.245   7.991 -7.2597 -4.8786  2.6579
  5874G12c C02P 9076   8.425   4.153   7.821  0.7826 -3.3902 -1.4353
  5874G12c H01K 9077   8.518   4.097   7.814  5.0725  2.1128  5.8170
  5874G12c H01J 9078   8.392   4.165   7.717  2.1316 -5.6524 -2.1567
  5874G12c O00H 9079   8.339   4.092   7.904  0.7200  0.8241 -0.3334
  5874G12c H01I 9080   8.382   4.022   7.950  1.0948 -0.0992 -2.0920
  5874G12c C02H 9081   8.694   4.550   7.887 -0.8949  0.1207 -0.5242
  5874G12c H01C 9082   8.752   4.524   7.800  2.5611 -1.2301  2.0897
  5874G12c C02L 9083   8.754   4.637   7.995  1.3539 -1.1107 -0.2394
  5874G12c H01D 9084   8.848   4.691   7.993  0.8560 -0.1492  1.7865
  5874G12c C013 9085   9.127   5.104   8.287 -0.8839  0.0438  0.8928
  5874G12c H000 9086   9.094   5.207   8.287  2.5966  1.2751  3.1317
  5874G12c C014 9087   9.268   5.056   8.269  0.2876 -0.6587  0.3340
  5874G12c C00F 9088   9.367   5.145   8.219  1.6280 -1.0809  1.3318
  5874G12c C00H 9089   9.517   5.014   8.356 -0.0536  0.5841  0.7313
  5874G12c C00I 9090   9.648   4.984   8.417 -0.1646  0.1791  0.2475
  5874G12c C00J 9091   9.649   4.865   8.503  0.3091 -0.5213 -0.7046
  5874G12c C00Z 9092   9.225   4.684   8.337  2.2963  0.1995 -1.6853
  5874G12c C00Y 9093   9.156   4.573   8.285  1.4261  1.8143 -1.6596
  5874G12c H006 9094   9.077   4.580   8.212 -2.0224 -1.4148  1.4760
  5874G12c C00X 9095   9.214   4.452   8.322  0.3762  0.4008 -0.0402
  5874G12c O003 9096   9.191   4.342   8.275 -0.3643  0.3319  0.7536
  5874G12c C01B 9097   9.134   4.319   8.149 -1.0209 -0.5490 -0.3506
  5874G12c H009 9098   9.193   4.388   8.088  4.1921 -4.0190  0.4436
  5874G12c H008 9099   9.137   4.211   8.137 -0.7632 -1.1108  4.0173
  5874G12c H007 9100   9.033   4.359   8.140  0.7572  4.2783 -0.7104
  5874G12c C00W 9101   9.301   4.441   8.433 -1.0119 -0.9842 -0.2915
  5874G12c O004 9102   9.338   4.311   8.475 -0.9338  0.4163 -1.2299
  5874G12c C01C 9103   9.469   4.297   8.530  0.0300 -0.4824  0.8816
  5874G12c H00A 9104   9.468   4.196   8.567 -1.1540 -0.6466  0.4143
  5874G12c C00P 9105   9.576   4.387   8.517  0.5957  1.5820  0.3967
  5874G12c C00O 9106   9.719   4.345   8.518  1.3534  1.7703 -2.2121
  5874G12c C01D 9107   9.723   4.203   8.494 -1.6068  1.4718 -0.4630
  5874G12c H00S 9108   9.643   4.151   8.444 -3.8485  3.0755  1.3130
  5874G12c C01E 9109   9.847   4.157   8.436  0.1105 -0.6716  0.0114
  5874G12c O008 9110   9.867   4.030   8.391 -0.0599  0.0535  0.0974
  5874G12c C01V 9111   9.955   3.950   8.457  0.7408  1.3303 -0.9893
  5874G12c C01Z 9112   9.895   3.890   8.593  0.3346 -1.1665 -1.5873
  5874G12c H00R 9113   9.947   3.956   8.662 -0.0233 -0.6817 -1.7801
  5874G12c H00Q 9114   9.790   3.903   8.618  1.9444 -1.8090  6.8415
  5874G12c O009 9115   9.948   3.758   8.641 -0.4015  0.5991 -0.5176
  5874G12c H00P 9116   9.911   3.671   8.640  3.9777 -1.5030  2.2151
  5874G12c C01W 9117  10.085   3.929   8.415  0.4157  1.5752  0.7937
  5874G12c H00O 9118  10.091   3.922   8.307  3.2043  1.4289  0.9314
  5874G12c C01X 9119  10.183   3.834   8.476  0.0514  1.4712 -0.2341
  5874G12c H00N 9120  10.205   3.896   8.563 -3.8834  6.0292 -2.2386
  5874G12c H00M 9121  10.153   3.731   8.495  0.4429  0.3323 -5.0447
  5874G12c C01Y 9122  10.300   3.821   8.364 -2.1897  0.0372 -1.3448
  5874G12c C02D 9123  10.286   3.722   8.265  0.6644  3.0625  1.0531
  5874G12c H019 9124  10.203   3.654   8.271  1.1385  2.7343  5.2336
  5874G12c C02C 9125  10.405   3.707   8.178 -0.7168  0.8976  0.6377
  5874G12c H01A 9126  10.371   3.640   8.101 -0.0569  5.9941 -4.4356
  5874G12c C02B 9127  10.526   3.784   8.184  0.7755  2.1254  1.0417
  5874G12c O00E 9128  10.626   3.744   8.097  0.5047  0.7965 -0.0998
  5874G12c H01B 9129  10.704   3.795   8.109  6.0285 -6.2492 -2.6628
  5874G12c C02F 9130  10.534   3.864   8.292 -0.3101  0.2003  2.1254
  5874G12c O00F 9131  10.662   3.896   8.320 -0.0088  0.4343 -0.2518
  5874G12c C02G 9132  10.697   4.036   8.358  0.9491 -1.3944  0.4611
  5874G12c H017 9133  10.617   4.075   8.420 -4.3455 -2.1066 -5.3876
  5874G12c H016 9134  10.783   4.012   8.420  3.5156 -2.9355 -3.5040
  5874G12c H015 9135  10.735   4.099   8.278  4.4377  2.7254  5.1157
  5874G12c C02E 9136  10.426   3.896   8.383 -2.5488 -1.5725 -0.3381
  5874G12c H018 9137  10.420   3.956   8.473  0.8998 -2.7363  0.7312
  5874G12c C01F 9138   9.961   4.249   8.456  1.0596 -0.4173  0.6083
  5874G12c C01G 9139  10.081   4.253   8.375 -0.1848 -0.2182  0.9998
  5874G12c H00L 9140  10.062   4.165   8.315  0.3168  2.7054 -3.7568
  5874G12c C01H 9141  10.184   4.323   8.398 -0.6390  0.7706  0.2589
  5874G12c H00B 9142  10.242   4.327   8.307  4.7094 -4.4068  3.1218
  5874G12c C01I 9143  10.157   4.456   8.462 -0.4059  2.1302 -0.6535
  5874G12c C01U 9144   9.949   4.368   8.542  0.0686 -0.0154  0.5301
  5874G12c C00S 9145   9.540   4.771   8.498  0.1737  0.9843 -0.2618
  5874G12c C00K 9146   9.770   4.784   8.496 -0.4631  1.2153  0.9284
  5874G12c C00N 9147   9.828   4.430   8.560 -0.1806  0.5903  1.3889
  5874G12c C000 9148  10.056   4.463   8.560 -0.4888 -0.2276 -2.1356
  5874G12c C01J 9149  10.155   4.586   8.411 -1.1354 -0.5124  1.2567
  5874G12c C01K 9150  10.223   4.624   8.289 -0.6700  0.6640 -0.3439
  5874G12c C01P 9151  10.332   4.542   8.241 -0.4291  0.2734 -0.4271
  5874G12c C01Q 9152  10.419   4.496   8.337  1.1603  0.4380 -0.6715
  5874G12c H00G 9153  10.389   4.480   8.440 -3.4559  1.6559 -1.6976
  5874G12c C01R 9154  10.550   4.470   8.324  0.4906 -0.3719  1.8692
  5874G12c H00F 9155  10.579   4.438   8.423 -0.7111 -0.8172  2.0852
  5874G12c C01S 9156  10.643   4.484   8.210 -0.1242 -0.7308 -0.8206
  5874G12c H00E 9157  10.725   4.503   8.278 -2.2818  2.7943  0.9277
  5874G12c H00D 9158  10.661   4.562   8.136  6.9047  0.5951  1.9136
  5874G12c O005 9159  10.694   4.354   8.173 -1.9602  0.4885  1.3383
  5874G12c H00C 9160  10.697   4.363   8.079  1.0283 -0.2843  1.2941
  5874G12c C01O 9161  10.371   4.549   8.105 -0.5850  0.1882  1.3923
  5874G12c H00H 9162  10.455   4.488   8.075 -2.4143 -2.7093  1.9599
  5874G12c C01N 9163  10.290   4.642   8.021  0.2798 -0.2305 -0.4536
  5874G12c O006 9164  10.318   4.627   7.882  0.2502 -0.1456 -0.3758
  5874G12c C01T 9165  10.213   4.551   7.833 -1.0331 -0.0660  0.9813
  5874G12c H00K 9166  10.275   4.497   7.761 -1.7086  2.0615 -1.2569
  5874G12c H00J 9167  10.154   4.478   7.888  0.4466  0.2932  3.0693
  5874G12c H00I 9168  10.165   4.628   7.772 -0.8891 -3.7588 -4.1278
  5874G12c C01M 9169  10.206   4.749   8.063 -1.2746 -1.7161  1.0796
  5874G12c C020 9170   9.881   4.856   8.439 -1.2108 -0.4503  0.0934
  5874G12c C021 9171   9.881   4.972   8.354 -0.4922 -0.8447 -0.7466
  5874G12c C01L 9172  10.169   4.723   8.209  0.5407 -0.4574 -0.1933
  5874G12c O007 9173  10.167   4.829   7.964  2.4242 -1.5816 -0.3893
  5874G12c C022 9174   9.907   4.969   8.221 -0.5821 -0.1330 -1.0025
  5874G12c C023 9175   9.746   5.034   8.345  1.2508 -1.6285  1.1695
  5874G12c C00G 9176   9.501   5.115   8.260  1.7470 -0.0812  0.3658
  5874G12c C00E 9177   9.337   5.264   8.149 -0.1315 -0.9414 -1.3784
  5874G12c O00A 9178   9.206   5.329   8.170  0.1325  1.0298 -0.1335
  5874G12c C024 9179   9.190   5.435   8.076 -0.5716  2.0546  2.4437
  5874G12c H00V 9180   9.088   5.471   8.067 -0.6044  1.2613 -1.2041
  5874G12c H00U 9181   9.235   5.511   8.139  1.6008 -1.3147  5.1492
  5874G12c H00T 9182   9.218   5.418   7.972 -1.7061  4.0858  1.7884
  5884G12c C00D 9183   7.335   5.671   5.303 -0.7359 -0.9172 -1.2798
  5884G12c O00B 9184   7.362   5.554   5.244  0.0839  0.4477  0.9619
  5884G12c C025 9185   7.456   5.540   5.146  1.0296 -0.4311  0.9116
  5884G12c C026 9186   7.384   5.488   5.010 -0.1293  1.2168 -0.3755
  5884G12c H00Y 9187   7.437   5.485   4.914 -1.2263 -4.0751 -0.9218
  5884G12c H00X 9188   7.288   5.539   5.002  1.1685  3.2198 -5.3092
  5884G12c O00C 9189   7.376   5.359   5.065  0.2199  0.6929 -0.0891
  5884G12c H00W 9190   7.292   5.337   5.102  1.8059  6.3808  8.3874
  5884G12c C027 9191   7.587   5.555   5.164 -0.2652 -0.3780  0.3310
  5884G12c O00D 9192   7.634   5.578   5.296 -1.3654  0.1405  0.8445
  5884G12c H00Z 9193   7.620   5.523   5.372  2.3435  2.6715  3.5747
  5884G12c C028 9194   7.663   5.556   5.047  0.1575 -1.2967  0.6411
  5884G12c C029 9195   7.781   5.474   5.038  0.5008  1.5176 -0.6690
  5884G12c H010 9196   7.793   5.397   5.112  4.0270  1.3451 -1.3028
  5884G12c C02T 9197   7.881   5.481   4.942 -1.7250  1.4373  0.5514
  5884G12c H01O 9198   7.965   5.414   4.933 -2.1522  0.9795 -0.1507
  5884G12c C02S 9199   7.879   5.589   4.852 -0.7801 -0.0101  1.2323
  5884G12c O00J 9200   7.985   5.633   4.756 -1.4342  0.5989 -0.0971
  5884G12c H01P 9201   8.069   5.649   4.796  0.5235 -2.4548 -2.8010
  5884G12c C02R 9202   7.770   5.685   4.873  1.5593 -2.2835 -0.2177
  5884G12c O00I 9203   7.781   5.812   4.828 -1.0163 -1.6439  0.6569
  5884G12c C02Q 9204   7.905   5.873   4.883  0.9853 -0.2515  1.2590
  5884G12c H01N 9205   7.950   5.931   4.803 -1.2158 -0.0257  0.1435
  5884G12c H01R 9206   7.878   5.953   4.952 -4.1163  1.4964 -2.4081
  5884G12c H01Q 9207   7.976   5.798   4.918  4.4615 -0.6615 -5.8568
  5884G12c C02A 9208   7.654   5.658   4.951 -1.8090 -0.3393  1.6614
  5884G12c H011 9209   7.561   5.710   4.936 -3.9980 -4.8972 -1.9734
  5884G12c C00C 9210   7.398   5.791   5.248 -0.0388  0.2453 -0.7600
  5884G12c H012 9211   7.492   5.791   5.195  2.1137  2.2601  2.8766
  5884G12c C00B 9212   7.376   5.917   5.300  1.7939 -1.7621 -0.1577
  5884G12c C00A 9213   7.445   6.036   5.278 -1.5017 -1.5689 -1.0775
  5884G12c C009 9214   7.592   6.065   5.239  1.4830  1.1503 -1.1280
  5884G12c C008 9215   7.700   5.987   5.208 -1.7713  2.2024  0.8014
  5884G12c H013 9216   7.698   5.880   5.200  2.1874  1.4672  6.7663
  5884G12c C007 9217   7.822   6.063   5.202 -1.0401  0.1097 -0.5083
  5884G12c H014 9218   7.907   6.017   5.153  0.0602  2.8986 -1.3388
  5884G12c C006 9219   7.839   6.198   5.261 -0.0172 -1.0479 -0.8429
  5884G12c C005 9220   7.727   6.260   5.308 -0.4120  0.5407  0.6887
  5884G12c C004 9221   7.729   6.386   5.372  2.2873  0.4070  0.8386
  5884G12c C003 9222   7.600   6.440   5.427 -1.1060  0.7369  0.6259
  5884G12c C002 9223   7.620   6.552   5.514 -0.1698  0.9755 -0.5903
  5884G12c C001 9224   7.528   6.618   5.616  0.6051  0.2274 -2.0434
  5884G12c C00M 9225   7.428   6.562   5.698 -1.1403 -0.6827  0.7028
  5884G12c C00L 9226   7.337   6.453   5.653  0.0602  1.8165 -0.0749
  5884G12c C00R 9227   7.268   6.371   5.742 -0.1954  0.9832 -0.3714
  5884G12c C00Q 9228   7.241   6.359   5.886  1.4926 -0.7858 -0.1714
  5884G12c C00V 9229   7.164   6.256   5.931 -0.5500  0.6380  2.1139
  5884G12c C00U 9230   7.128   6.156   5.834  1.4554  2.6013 -0.9217
  5884G12c C00T 9231   7.172   6.148   5.697 -0.7833 -0.5353  0.6174
  5884G12c C016 9232   7.173   6.039   5.604  0.1591  0.6086  0.7721
  5884G12c C015 9233   7.110   5.926   5.655 -0.1919 -0.5020 -0.0734
  5884G12c C010 9234   7.063   5.929   5.787  0.4418  1.0054  0.2678
  5884G12c C011 9235   6.978   5.817   5.826 -0.2278 -0.6483 -0.7410
  5884G12c H005 9236   6.917   5.832   5.914  0.3207 -0.0759 -0.4480
  5884G12c C012 9237   6.981   5.688   5.756  1.2311 -0.0075 -1.5866
  5884G12c C017 9238   6.886   5.572   5.772  0.5146 -0.7781  0.8876
  5884G12c O002 9239   6.850   5.483   5.663  0.5786  0.3023  0.0013
  5884G12c H004 9240   6.772   5.432   5.683 -1.2210  0.8124 -4.9751
  5884G12c C018 9241   6.850   5.541   5.891  2.9355 -0.2920 -0.4838
  5884G12c O001 9242   6.756   5.440   5.908 -0.3163 -1.0541 -0.8330
  5884G12c H003 9243   6.786   5.412   5.993 -1.0786  2.7884  0.8172
  5884G12c C019 9244   6.904   5.589   6.026 -1.1309  0.3327  0.3607
  5884G12c H002 9245   7.009   5.607   6.001  0.4693 -3.5792  3.5454
  5884G12c H001 9246   6.866   5.687   6.054  3.4590  1.9793  1.2439
  5884G12c O000 9247   6.859   5.506   6.123  0.8263  0.0278  0.7842
  5884G12c C01A 9248   6.948   5.505   6.233 -0.6501 -2.2697 -1.6367
  5884G12c C02K 9249   7.061   5.598   6.267 -1.6665  0.8824  0.4545
  5884G12c O00G 9250   7.102   5.704   6.183  1.3856 -0.2428 -0.3098
  5884G12c C02M 9251   7.234   5.752   6.174 -0.5231 -0.3066  0.8919
  5884G12c H01G 9252   7.313   5.697   6.225  2.3205 -0.7161 -3.6667
  5884G12c H01F 9253   7.249   5.849   6.222 -4.3317  0.5415  0.5361
  5884G12c H01E 9254   7.245   5.763   6.066 -6.1130 -4.9815 -0.3694
  5884G12c C02J 9255   7.109   5.586   6.395 -0.3307 -0.5523 -0.1258
  5884G12c H01H 9256   7.187   5.658   6.414 -0.3426  1.1444 -5.7383
  5884G12c C02I 9257   7.078   5.493   6.503  0.1154 -1.3743  0.2328
  5884G12c C02N 9258   7.129   5.495   6.645  1.2498 -0.1800  0.4256
  5884G12c H01M 9259   7.058   5.459   6.718  1.3422 -1.5078 -0.1310
  5884G12c C02O 9260   7.248   5.518   6.671  0.5471 -0.6754  0.5448
  5884G12c H01L 9261   7.325   5.515   6.595  2.0488 -1.0273  2.0505
  5884G12c C02P 9262   7.321   5.498   6.803  0.2448 -0.4868 -1.3611
  5884G12c H01K 9263   7.234   5.487   6.868 -1.8468 -2.9109 -4.3776
  5884G12c H01J 9264   7.368   5.400   6.811  7.9343  3.0682  5.2629
  5884G12c O00H 9265   7.457   5.561   6.829  0.1043 -0.5734  0.8118
  5884G12c H01I 9266   7.454   5.630   6.894  3.4032 -2.5294  3.2013
  5884G12c C02H 9267   6.980   5.406   6.448  0.9149  2.1799 -0.6382
  5884G12c H01C 9268   6.936   5.336   6.516  5.4652 -0.2877 -0.0632
  5884G12c C02L 9269   6.925   5.415   6.325 -2.1905  0.3016 -1.2440
  5884G12c H01D 9270   6.847   5.342   6.307 -0.3317 -3.5907  4.8341
  5884G12c C013 9271   7.061   5.701   5.641 -1.1428  0.0294  0.5490
  5884G12c H000 9272   7.016   5.626   5.578  0.0446  2.2647 -3.1767
  5884G12c C014 9273   7.132   5.815   5.591 -0.5490 -1.1671 -0.5802
  5884G12c C00F 9274   7.215   5.804   5.475 -0.4840  0.2811 -0.6898
  5884G12c C00H 9275   7.255   6.042   5.489  0.1912 -1.0421  0.3674
  5884G12c C00I 9276   7.306   6.163   5.440  2.4059  0.6176  0.4493
  5884G12c C00J 9277   7.287   6.278   5.522 -0.4276 -0.8496 -1.4539
  5884G12c C00Z 9278   7.080   6.031   5.882  0.5414  0.6256 -0.1213
  5884G12c C00Y 9279   7.024   6.025   6.018  1.4888  0.9177  1.1487
  5884G12c H006 9280   6.963   5.944   6.057 -3.8398  1.5737 -4.9998
  5884G12c C00X 9281   7.027   6.141   6.104  0.5526  1.3828  0.7522
  5884G12c O003 9282   6.961   6.106   6.229  0.2885 -1.3459 -0.1273
  5884G12c C01B 9283   7.047   6.029   6.326  0.8417 -1.8984  0.3382
  5884G12c H009 9284   6.994   5.948   6.374 -1.6522  1.2020  3.0093
  5884G12c H008 9285   7.080   6.079   6.417 -2.3349 -2.1277  1.6466
  5884G12c H007 9286   7.138   5.985   6.285  2.8984  4.4643 -2.6125
  5884G12c C00W 9287   7.120   6.247   6.066  1.0347  0.3097 -0.5284
  5884G12c O004 9288   7.157   6.350   6.151 -1.0869  0.9012 -0.6474
  5884G12c C01C 9289   7.263   6.427   6.125 -0.6963 -1.3672  0.2994
  5884G12c H00A 9290   7.342   6.432   6.198 -1.4986  4.6151  1.0185
  5884G12c C00P 9291   7.290   6.450   5.987 -0.7219 -0.9379  0.4710
  5884G12c C00O 9292   7.412   6.540   5.967  0.8883 -1.1301  2.2188
  5884G12c C01D 9293   7.515   6.559   6.070  0.6495 -0.5620 -0.1537
  5884G12c H00S 9294   7.533   6.504   6.161  9.1329  2.2141  0.2920
  5884G12c C01E 9295   7.648   6.621   6.063 -1.2494  0.2548 -0.3504
  5884G12c O008 9296   7.736   6.630   6.169 -0.5731 -0.7678  0.8144
  5884G12c C01V 9297   7.702   6.570   6.292 -1.7646  0.7173  1.3361
  5884G12c C01Z 9298   7.692   6.415   6.289  0.4996  0.3278  0.6505
  5884G12c H00R 9299   7.589   6.395   6.318  0.4844  0.6207  0.7970
  5884G12c H00Q 9300   7.735   6.368   6.201  0.3669  5.8481 -2.5711
  5884G12c O009 9301   7.760   6.343   6.385  1.0035 -0.5151 -0.5307
  5884G12c H00P 9302   7.750   6.404   6.457 -2.9917 -1.1942 -0.4161
  5884G12c C01W 9303   7.678   6.638   6.415 -0.2131  1.0689 -0.7686
  5884G12c H00O 9304   7.628   6.597   6.502  1.8063 -9.5762 -3.9171
  5884G12c C01X 9305   7.672   6.785   6.433  0.5649  1.6181  0.6931
  5884G12c H00N 9306   7.705   6.810   6.332  4.6336  4.5872  2.6099
  5884G12c H00M 9307   7.575   6.829   6.456  1.2046  0.4585  6.5850
  5884G12c C01Y 9308   7.784   6.799   6.528 -0.4102 -0.6211  0.5174
  5884G12c C02D 9309   7.901   6.840   6.466  0.4974 -0.9050  0.1162
  5884G12c H019 9310   7.935   6.841   6.363-11.0185  0.1186 -4.4594
  5884G12c C02C 9311   8.018   6.882   6.540 -0.7397  2.1751  0.4674
  5884G12c H01A 9312   8.110   6.911   6.490 -3.1387  5.0127 -2.5098
  5884G12c C02B 9313   8.014   6.884   6.686 -0.0902  0.6519  0.8052
  5884G12c O00E 9314   8.110   6.948   6.748 -0.0484 -1.5057 -1.3801
  5884G12c H01B 9315   8.051   7.009   6.789  1.7929 -2.7721  3.5017
  5884G12c C02F 9316   7.886   6.890   6.749 -1.3189 -1.3847  2.2675
  5884G12c O00F 9317   7.881   6.947   6.880  0.4852 -2.2836 -1.7219
  5884G12c C02G 9318   7.769   6.947   6.963 -0.4271 -1.1134 -0.0788
  5884G12c H017 9319   7.830   7.003   7.035 -4.6356 -1.8452  4.2865
  5884G12c H016 9320   7.737   6.857   7.015 -0.8786 -0.5206  0.6918
  5884G12c H015 9321   7.687   7.015   6.940 -2.7475 -3.2205  1.6844
  5884G12c C02E 9322   7.787   6.846   6.662 -0.2115  1.6517  0.6643
  5884G12c H018 9323   7.714   6.787   6.715  2.0846 -2.2944 -0.3714
  5884G12c C01F 9324   7.681   6.660   5.928 -1.4460  0.5196  1.3840
  5884G12c C01G 9325   7.823   6.690   5.899  1.9794 -0.2151  0.6958
  5884G12c H00L 9326   7.892   6.684   5.981  4.2852  2.1318 -0.9856
  5884G12c C01H 9327   7.847   6.676   5.758 -0.6252 -0.8379 -0.3916
  5884G12c H00B 9328   7.953   6.691   5.742 -0.4928 -2.8593 -1.5274
  5884G12c C01I 9329   7.750   6.673   5.659 -0.3042  0.2493 -0.5848
  5884G12c C01U 9330   7.580   6.662   5.832  1.0191 -0.4898  1.8307
  5884G12c C00S 9331   7.242   6.267   5.649 -0.0742 -2.1155  0.5126
  5884G12c C00K 9332   7.381   6.391   5.530 -0.6150 -0.8119 -0.2545
  5884G12c C00N 9333   7.457   6.584   5.836 -0.9368  0.7780 -0.2328
  5884G12c C000 9334   7.613   6.702   5.700 -2.6910  0.9086 -0.3148
  5884G12c C01J 9335   7.747   6.614   5.529 -1.2597  0.5244 -0.0298
  5884G12c C01K 9336   7.881   6.570   5.460 -1.0297 -0.0798  0.4894
  5884G12c C01P 9337   8.010   6.641   5.458 -1.2871 -0.8715 -0.5675
  5884G12c C01Q 9338   8.033   6.786   5.504 -1.5512 -0.5977 -0.3213
  5884G12c H00G 9339   8.122   6.846   5.493 -2.2564  0.4319 -0.5537
  5884G12c C01R 9340   7.933   6.870   5.520 -0.3001  2.2356  0.0995
  5884G12c H00F 9341   7.834   6.829   5.505  0.1983 -2.4611  7.3666
  5884G12c C01S 9342   7.919   7.001   5.611 -1.2773 -0.9824 -1.2951
  5884G12c H00E 9343   7.827   7.042   5.569 -6.9827 -5.9957  5.2446
  5884G12c H00D 9344   7.931   6.974   5.716 -3.5178 -6.2397 -2.2404
  5884G12c O005 9345   8.031   7.078   5.619 -1.1457 -0.2077 -0.9969
  5884G12c H00C 9346   8.039   7.124   5.537 -5.5575  5.7915  1.6043
  5884G12c C01O 9347   8.116   6.575   5.419  0.8261  0.1170  1.7089
  5884G12c H00H 9348   8.218   6.611   5.425  2.1648 -3.3871  1.0966
  5884G12c C01N 9349   8.104   6.449   5.359  0.4066 -0.0771  0.1531
  5884G12c O006 9350   8.185   6.369   5.288 -0.2755  0.4171  0.5268
  5884G12c C01T 9351   8.321   6.428   5.258 -0.5778 -0.3982 -0.1872
  5884G12c H00K 9352   8.332   6.536   5.269  5.6028 -0.1194 -5.7601
  5884G12c H00J 9353   8.383   6.381   5.335  0.0606  5.2813  2.9892
  5884G12c H00I 9354   8.385   6.395   5.177  6.3807 -6.5760  6.9333
  5884G12c C01M 9355   7.980   6.383   5.355  1.2097 -0.7273 -0.2442
  5884G12c C020 9356   7.477   6.378   5.425 -0.0207  0.1311 -0.5070
  5884G12c C021 9357   7.479   6.265   5.333  2.0117 -1.4836 -0.2735
  5884G12c C01L 9358   7.857   6.457   5.392 -0.0736  1.4514 -1.3123
  5884G12c O007 9359   7.962   6.247   5.287 -1.3608 -0.3877 -0.6714
  5884G12c C022 9360   7.600   6.204   5.285 -0.8417 -1.5921  0.4806
  5884G12c C023 9361   7.391   6.154   5.334  1.0042 -0.7023 -0.0176
  5884G12c C00G 9362   7.276   5.924   5.406  1.2736  0.8540  1.4675
  5884G12c C00E 9363   7.249   5.665   5.412 -0.4921  0.0769 -0.2562
  5884G12c O00A 9364   7.200   5.548   5.468 -0.8775  0.9391  0.4563
  5884G12c C024 9365   7.291   5.475   5.532  0.5319 -0.8430  1.1852
  5884G12c H00V 9366   7.364   5.461   5.453 -0.5366 -2.1133  0.4090
  5884G12c H00U 9367   7.261   5.370   5.536  3.6930 -2.0853 -3.8827
  5884G12c H00T 9368   7.350   5.525   5.610  0.3575  1.1326  0.0813
  5894G12c C00D 9369   8.260  11.788  13.182 -1.7254 -0.9515  2.5857
  5894G12c O00B 9370   8.298  11.755  13.315  0.1288  0.8840  0.0058
  5894G12c C025 9371   8.265  11.635  13.374 -0.5516 -1.1670  0.1236
  5894G12c C026 9372   8.378  11.549  13.401  1.8556 -0.7740  2.6484
  5894G12c H00Y 9373   8.427  11.539  13.304 -1.5466  0.1603  0.7345
  5894G12c H00X 9374   8.324  11.462  13.438  1.8923 -0.4570  3.4571
  5894G12c O00C 9375   8.474  11.629  13.479  1.1186  0.8071  0.3150
  5894G12c H00W 9376   8.537  11.683  13.432 -2.7189  3.7199 -1.8151
  5894G12c C027 9377   8.127  11.636  13.401  0.7646  0.2588  0.1434
  5894G12c O00D 9378   8.066  11.762  13.396 -0.2224  0.2277 -0.8257
  5894G12c H00Z 9379   8.122  11.827  13.437  1.1762 -2.1386  1.1846
  5894G12c C028 9380   8.057  11.520  13.452  1.3185  0.5812  1.5781
  5894G12c C029 9381   8.055  11.397  13.373 -0.2129 -1.0477 -1.5428
  5894G12c H010 9382   8.123  11.355  13.300 -2.7379 -4.6661 -1.9503
  5894G12c C02T 9383   7.972  11.311  13.422 -0.6539  0.2027  0.2188
  5894G12c H01O 9384   7.993  11.216  13.375 -5.1590 -0.9667  0.3375
  5894G12c C02S 9385   7.875  11.313  13.529 -0.1853 -0.7824  1.6646
  5894G12c O00J 9386   7.761  11.227  13.537 -1.2049  0.9507  0.1470
  5894G12c H01P 9387   7.712  11.298  13.576 -0.9065  2.9400 -2.9737
  5894G12c C02R 9388   7.879  11.437  13.603 -0.9397 -3.0910  0.1251
  5894G12c O00I 9389   7.791  11.454  13.701  0.5098 -0.3917  0.1971
  5894G12c C02Q 9390   7.736  11.579  13.698  0.1188 -1.2224  1.9753
  5894G12c H01N 9391   7.794  11.667  13.723 -3.4355  1.8985 -0.1824
  5894G12c H01R 9392   7.652  11.582  13.768 -0.4405 -2.4598  1.3780
  5894G12c H01Q 9393   7.700  11.621  13.604  3.2432  3.6548  2.7735
  5894G12c C02A 9394   7.974  11.527  13.563  1.1457 -0.5008 -0.1600
  5894G12c H011 9395   7.992  11.621  13.612 -0.5526  1.0330 -2.3564
  5894G12c C00C 9396   8.238  11.686  13.105  0.9668  0.7515 -0.6418
  5894G12c H012 9397   8.281  11.588  13.120  3.4766  2.2332  2.3408
  5894G12c C00B 9398   8.166  11.698  12.978 -0.0648 -1.3693 -0.4862
  5894G12c C00A 9399   8.140  11.583  12.884 -0.0284  1.3162  1.4980
  5894G12c C009 9400   8.207  11.448  12.878 -0.4559 -0.1827 -0.1125
  5894G12c C008 9401   8.292  11.381  12.957  0.0003 -0.1599 -0.9680
  5894G12c H013 9402   8.338  11.418  13.047  2.0188 -2.1008 -1.1684
  5894G12c C007 9403   8.341  11.262  12.893 -0.5247 -0.6686 -0.1626
  5894G12c H014 9404   8.414  11.204  12.948 -1.7641 -5.0497 -2.8410
  5894G12c C006 9405   8.331  11.229  12.744  1.3934 -0.3487  0.3681
  5894G12c C005 9406   8.260  11.323  12.677  1.8640  1.4312 -0.8749
  5894G12c C004 9407   8.263  11.338  12.536  0.8790  0.3854 -0.7383
  5894G12c C003 9408   8.193  11.444  12.457 -0.4911  0.4859  1.3030
  5894G12c C002 9409   8.216  11.447  12.310 -0.3669  0.3271 -1.3116
  5894G12c C001 9410   8.169  11.529  12.204  1.3690  1.6996 -1.8498
  5894G12c C00M 9411   8.129  11.664  12.208 -1.5085  1.0994  1.3806
  5894G12c C00L 9412   8.091  11.732  12.327  0.3457 -1.2886 -0.9965
  5894G12c C00R 9413   8.095  11.873  12.375 -0.9606 -0.8930  0.5100
  5894G12c C00Q 9414   8.146  11.992  12.324 -0.1265 -0.4000 -0.6425
  5894G12c C00V 9415   8.120  12.111  12.397  1.6244  0.1888 -1.1199
  5894G12c C00U 9416   8.092  12.109  12.527 -1.6005 -0.8515 -1.4923
  5894G12c C00T 9417   8.074  11.990  12.592  2.6168  0.8241 -0.9491
  5894G12c C016 9418   8.077  11.981  12.730 -0.3293 -0.0709 -0.8519
  5894G12c C015 9419   8.109  12.093  12.809 -1.1461  0.4380  0.8878
  5894G12c C010 9420   8.121  12.216  12.745  0.6830  1.0638 -1.7649
  5894G12c C011 9421   8.104  12.326  12.841  0.7355  0.7927 -1.2839
  5894G12c H005 9422   8.060  12.423  12.824  2.8871  1.4592 -3.4079
  5894G12c C012 9423   8.160  12.327  12.959 -2.2269  2.1136  0.0971
  5894G12c C017 9424   8.175  12.459  13.030  0.8492 -0.3853  1.1285
  5894G12c O002 9425   8.279  12.474  13.107 -0.9600 -0.1426  0.4482
  5894G12c H004 9426   8.285  12.383  13.131  2.7842  0.7964  3.4344
  5894G12c C018 9427   8.070  12.549  13.053  1.4051 -0.0869  0.5361
  5894G12c O001 9428   8.087  12.629  13.162 -1.4754  0.9867 -0.2668
  5894G12c H003 9429   8.178  12.604  13.159 -1.1096  1.8857  1.8607
  5894G12c C019 9430   7.920  12.524  13.001  0.1901 -2.1077  0.8514
  5894G12c H002 9431   7.869  12.554  13.092  1.6906  2.4744  0.3342
  5894G12c H001 9432   7.932  12.595  12.919  0.7069 -1.1675  1.7380
  5894G12c O000 9433   7.827  12.409  12.964  0.5035  1.2356 -1.1609
  5894G12c C01A 9434   7.696  12.420  12.957 -0.7201  2.4541  0.1856
  5894G12c C02K 9435   7.609  12.337  12.880  0.4396  2.7664 -0.5820
  5894G12c O00G 9436   7.666  12.235  12.814 -0.5675  1.3275  0.2622
  5894G12c C02M 9437   7.680  12.267  12.680  1.3105  1.3619  0.0242
  5894G12c H01G 9438   7.725  12.365  12.664  1.6749  0.3682 -6.3392
  5894G12c H01F 9439   7.606  12.254  12.601  2.8768  2.1246 -1.6106
  5894G12c H01E 9440   7.741  12.180  12.654 -0.8107 -0.1541  0.0341
  5894G12c C02J 9441   7.481  12.357  12.846 -1.5927 -0.2352 -0.4004
  5894G12c H01H 9442   7.423  12.273  12.812  0.9225 -0.7477 -3.7161
  5894G12c C02I 9443   7.406  12.465  12.878 -0.3988  0.5215 -1.0214
  5894G12c C02N 9444   7.263  12.458  12.856 -2.6443 -0.4161 -0.1809
  5894G12c H01M 9445   7.215  12.376  12.907  2.7838 -7.1513 -4.8991
  5894G12c C02O 9446   7.214  12.550  12.767  1.7999  0.4308 -0.0341
  5894G12c H01L 9447   7.106  12.542  12.757  1.3346  2.7387  2.4762
  5894G12c C02P 9448   7.276  12.629  12.650 -0.3678 -0.7370 -1.0362
  5894G12c H01K 9449   7.357  12.665  12.712 -0.3423  0.5764 -1.8132
  5894G12c H01J 9450   7.314  12.562  12.573 -4.0879 -6.0998  1.4265
  5894G12c O00H 9451   7.197  12.731  12.591 -1.0276 -0.4104  0.8172
  5894G12c H01I 9452   7.208  12.730  12.497 -1.8885 -2.2650  0.7052
  5894G12c C02H 9453   7.473  12.559  12.971 -0.5990  1.5946  1.0173
  5894G12c H01C 9454   7.429  12.642  13.025  1.9038  7.4782 -5.3083
  5894G12c C02L 9455   7.611  12.523  13.010 -0.0454  1.8892  0.9936
  5894G12c H01D 9456   7.673  12.562  13.090  0.8962  0.6318  0.8976
  5894G12c C013 9457   8.173  12.193  13.015 -1.7534  0.1438  1.2364
  5894G12c H000 9458   8.188  12.174  13.120  2.5823 -5.6069 -0.1814
  5894G12c C014 9459   8.139  12.072  12.939  0.1304  1.1233 -0.4829
  5894G12c C00F 9460   8.151  11.945  13.003 -1.8335 -0.0377 -1.1121
  5894G12c C00H 9461   8.095  11.840  12.791  0.7434  0.1550 -0.1681
  5894G12c C00I 9462   8.058  11.737  12.709 -0.6080 -1.3074  0.6197
  5894G12c C00J 9463   8.050  11.759  12.567 -0.8651  0.5591  1.8687
  5894G12c C00Z 9464   8.101  12.228  12.605  1.1189 -1.1592 -0.3263
  5894G12c C00Y 9465   8.106  12.357  12.540 -0.1701 -1.9375  1.8633
  5894G12c H006 9466   8.088  12.447  12.598 -1.0394 -0.1097 -1.1249
  5894G12c C00X 9467   8.134  12.353  12.401 -0.3308  0.8759  0.0725
  5894G12c O003 9468   8.152  12.476  12.339  1.3690 -0.5153 -0.0459
  5894G12c C01B 9469   8.091  12.484  12.216 -0.5777 -0.2648 -1.2337
  5894G12c H009 9470   7.999  12.541  12.230 -1.3142 -1.3944 -1.3495
  5894G12c H008 9471   8.055  12.392  12.171  2.1399  0.3945 -4.9283
  5894G12c H007 9472   8.122  12.550  12.135 -1.6071 -2.4756 -3.4889
  5894G12c C00W 9473   8.161  12.243  12.340 -0.7040 -0.2374  1.2499
  5894G12c O004 9474   8.206  12.245  12.209 -0.3818  1.0398 -0.1168
  5894G12c C01C 9475   8.261  12.126  12.154 -1.0003  1.5658  1.2847
  5894G12c H00A 9476   8.368  12.120  12.142 -1.2378  0.1461 -0.2961
  5894G12c C00P 9477   8.225  11.996  12.194 -1.9583  0.1546  1.6336
  5894G12c C00O 9478   8.274  11.878  12.117  0.8296 -1.7445 -1.4357
  5894G12c C01D 9479   8.393  11.895  12.030  0.9889  0.5952 -1.0070
  5894G12c H00S 9480   8.418  11.997  12.006 -2.7071  3.0462  4.5593
  5894G12c C01E 9481   8.491  11.802  12.018 -0.6934  0.4449  0.5153
  5894G12c O008 9482   8.612  11.821  11.966 -1.3419  0.6423  0.6958
  5894G12c C01V 9483   8.638  11.776  11.833 -1.9659  0.7151  0.0804
  5894G12c C01Z 9484   8.565  11.850  11.718  0.8246 -1.8011  0.1684
  5894G12c H00R 9485   8.503  11.784  11.657 -0.9117 -0.4313  0.4230
  5894G12c H00Q 9486   8.642  11.900  11.660 -0.9243 -1.6534 -2.0732
  5894G12c O009 9487   8.455  11.930  11.754 -0.2607  0.2894 -1.6951
  5894G12c H00P 9488   8.383  11.909  11.696  2.9961 -1.1018 -5.5028
  5894G12c C01W 9489   8.724  11.665  11.816 -0.2898 -0.5968  0.3457
  5894G12c H00O 9490   8.746  11.637  11.917  5.1590  4.5165  0.9304
  5894G12c C01X 9491   8.759  11.606  11.678  0.3895 -0.9806 -0.3276
  5894G12c H00N 9492   8.836  11.662  11.626 -1.4753  3.3351  1.2646
  5894G12c H00M 9493   8.795  11.504  11.692 -4.0840 -2.3351  2.2693
  5894G12c C01Y 9494   8.639  11.547  11.605 -0.6568  0.3540  1.2881
  5894G12c C02D 9495   8.627  11.583  11.461  1.0531  0.1825  0.7240
  5894G12c H019 9496   8.709  11.634  11.413 -0.8310 -2.7973 -6.2987
  5894G12c C02C 9497   8.506  11.559  11.399  0.8453  1.4654 -0.7735
  5894G12c H01A 9498   8.504  11.577  11.293 -4.2948  0.1334 -1.0207
  5894G12c C02B 9499   8.403  11.478  11.452 -0.5244 -1.6377 -1.0367
  5894G12c O00E 9500   8.315  11.429  11.363  0.1192 -0.5114  0.2645
  5894G12c H01B 9501   8.266  11.384  11.430 -1.0971  4.4143  2.9350
  5894G12c C02F 9502   8.425  11.418  11.577 -0.9016 -0.9021 -0.3335
  5894G12c O00F 9503   8.330  11.323  11.605 -0.2091 -1.3681  0.2945
  5894G12c C02G 9504   8.372  11.229  11.704 -1.1793 -0.2608 -1.9599
  5894G12c H017 9505   8.272  11.187  11.719 -6.5044 10.6280 -1.4422
  5894G12c H016 9506   8.383  11.282  11.799 -4.4318 -0.7248 -1.2402
  5894G12c H015 9507   8.458  11.173  11.670  2.4486  6.3013 -4.4698
  5894G12c C02E 9508   8.533  11.467  11.666  0.3509  0.5019 -0.2019
  5894G12c H018 9509   8.534  11.421  11.763  2.4395 -0.8901 -0.8573
  5894G12c C01F 9510   8.450  11.676  12.062 -0.9136 -0.1157 -1.1891
  5894G12c C01G 9511   8.549  11.563  12.080  0.1894 -0.4289  2.3211
  5894G12c H00L 9512   8.646  11.606  12.064 -1.2306  2.2391  0.4691
  5894G12c C01H 9513   8.523  11.438  12.109  3.4995  1.5806 -1.1447
  5894G12c H00B 9514   8.602  11.369  12.135  0.9450  0.2300  3.5902
  5894G12c C01I 9515   8.376  11.417  12.151 -0.4765 -0.1020  0.7857
  5894G12c C01U 9516   8.320  11.643  12.088 -2.1952 -0.4891 -0.0991
  5894G12c C00S 9517   8.046  11.881  12.511 -0.8366 -1.2018 -0.1168
  5894G12c C00K 9518   8.068  11.672  12.460 -1.5061  0.3904  2.3756
  5894G12c C00N 9519   8.229  11.741  12.121  0.5637 -0.9438  0.9815
  5894G12c C000 9520   8.271  11.506  12.105 -1.0657 -2.2445 -0.1338
  5894G12c C01J 9521   8.306  11.348  12.254 -0.9405 -0.4436 -0.9719
  5894G12c C01K 9522   8.345  11.232  12.332  0.3636  0.6692 -0.4528
  5894G12c C01P 9523   8.403  11.129  12.267  0.6455  1.5393 -1.2275
  5894G12c C01Q 9524   8.402  11.109  12.122  1.3461  0.5616 -2.0158
  5894G12c H00G 9525   8.389  11.184  12.045 -1.5008 -1.3289 -3.4576
  5894G12c C01R 9526   8.418  10.977  12.074  1.0697 -1.2189  0.4624
  5894G12c H00F 9527   8.409  10.888  12.135 -3.1084  3.4399  7.3207
  5894G12c C01S 9528   8.447  10.970  11.926  0.2400 -0.4637  1.2030
  5894G12c H00E 9529   8.500  11.053  11.879 -1.1460 -0.9067 -1.2369
  5894G12c H00D 9530   8.501  10.882  11.891  3.8077  3.6150 -4.4602
  5894G12c O005 9531   8.328  10.974  11.846  0.3686 -0.5735 -0.3486
  5894G12c H00C 9532   8.365  10.966  11.759  0.2134  0.6940 -0.5545
  5894G12c C01O 9533   8.496  11.051  12.353 -0.0323  0.7461 -1.2388
  5894G12c H00H 9534   8.556  10.985  12.293  2.8029  0.8722  1.3648
  5894G12c C01N 9535   8.500  11.054  12.491 -2.2426  0.1297 -0.0094
  5894G12c O006 9536   8.571  10.974  12.561  1.0177 -1.2947  0.0057
  5894G12c C01T 9537   8.673  11.034  12.632 -0.3560 -1.3674  1.1854
  5894G12c H00K 9538   8.764  10.975  12.636  1.4347  1.3790  2.3669
  5894G12c H00J 9539   8.633  11.046  12.732  0.6247 -3.5895  1.8773
  5894G12c H00I 9540   8.731  11.119  12.597 -2.5671 -1.2447 -2.5003
  5894G12c C01M 9541   8.407  11.139  12.539  0.8108  0.1485  0.2718
  5894G12c C020 9542   8.127  11.552  12.523  0.6834 -1.1436  0.9900
  5894G12c C021 9543   8.105  11.504  12.664  0.3313  0.5006 -0.8824
  5894G12c C01L 9544   8.339  11.238  12.468  0.5401  1.8247  0.9517
  5894G12c O007 9545   8.395  11.135  12.675 -0.3038 -0.9616 -0.1349
  5894G12c C022 9546   8.189  11.424  12.736 -0.5836  0.2643  0.3752
  5894G12c C023 9547   8.082  11.606  12.759 -1.6274  0.1900 -0.4152
  5894G12c C00G 9548   8.137  11.825  12.928 -1.6732  1.3112 -0.9189
  5894G12c C00E 9549   8.214  11.917  13.146 -0.4071  0.1053 -1.1588
  5894G12c O00A 9550   8.204  12.017  13.234 -0.0552  0.5811 -1.0499
  5894G12c C024 9551   8.327  12.018  13.332 -0.1563 -1.9018 -0.3865
  5894G12c H00V 9552   8.409  11.960  13.290  2.0389  1.8318 -1.4595
  5894G12c H00U 9553   8.379  12.109  13.361 -0.8501 -1.8864  0.8635
  5894G12c H00T 9554   8.315  11.987  13.436  6.7945 -3.3232  0.2335
  5904G12c C00D 9555   7.911   5.029   5.428 -0.9306  2.3180  1.1317
  5904G12c O00B 9556   7.871   5.135   5.367 -1.2765 -0.0661  0.9886
  5904G12c C025 9557   7.770   5.116   5.260  1.7131 -2.4217  1.0547
  5904G12c C026 9558   7.609   5.113   5.293  0.4777  1.5218  1.6896
  5904G12c H00Y 9559   7.611   5.204   5.353 -3.4049  3.1230 -0.3686
  5904G12c H00X 9560   7.564   5.023   5.335 -6.5065 -1.1782 -9.4240
  5904G12c O00C 9561   7.517   5.152   5.185  0.3470  0.7158  0.0271
  5904G12c H00W 9562   7.498   5.244   5.171 -0.1076  0.3209 -2.2601
  5904G12c C027 9563   7.817   5.109   5.127 -0.5583  0.2596 -1.5504
  5904G12c O00D 9564   7.743   5.123   5.018 -0.0722  0.3819 -0.5977
  5904G12c H00Z 9565   7.677   5.056   5.007  1.5818 -1.3601 -0.2279
  5904G12c C028 9566   7.959   5.120   5.118 -1.1129 -0.4042 -0.4101
  5904G12c C029 9567   8.007   5.044   5.015 -1.8570 -0.4991  0.1690
  5904G12c H010 9568   7.921   5.005   4.962 -2.8377  4.0937 -1.8880
  5904G12c C02T 9569   8.130   5.061   4.941 -0.5577 -0.0140  1.1070
  5904G12c H01O 9570   8.137   5.024   4.840  1.6031  2.2119  0.4050
  5904G12c C02S 9571   8.211   5.169   5.000  1.4849 -0.3419 -0.3324
  5904G12c O00J 9572   8.336   5.214   4.942  1.1013 -0.1182 -0.4594
  5904G12c H01P 9573   8.388   5.280   4.984 -1.9879 -0.5912  4.5604
  5904G12c C02R 9574   8.151   5.257   5.104  0.1595  0.4744 -0.0123
  5904G12c O00I 9575   8.205   5.382   5.102 -1.0183 -0.2941 -0.2529
  5904G12c C02Q 9576   8.175   5.485   5.204 -0.9122  0.3773 -0.2646
  5904G12c H01N 9577   8.244   5.461   5.284 -4.9577  1.0690  3.5936
  5904G12c H01R 9578   8.075   5.504   5.244  0.1538 -0.2710  2.7820
  5904G12c H01Q 9579   8.223   5.577   5.171  0.3703 -1.3527 -3.5504
  5904G12c C02A 9580   8.035   5.234   5.167 -1.1501 -0.2580 -0.4767
  5904G12c H011 9581   7.996   5.309   5.234 -2.5215 -3.8395  2.8843
  5904G12c C00C 9582   7.920   4.891   5.379  0.3391  0.3288  1.1067
  5904G12c H012 9583   7.875   4.873   5.282  0.5007  2.9070  0.5126
  5904G12c C00B 9584   7.997   4.790   5.435 -2.3042 -1.1993  0.2102
  5904G12c C00A 9585   8.046   4.671   5.346 -0.4292 -1.2945  0.3142
  5904G12c C009 9586   7.983   4.601   5.230  0.6561 -0.0889  1.3094
  5904G12c C008 9587   7.863   4.631   5.153  2.1896  0.8093 -0.1280
  5904G12c H013 9588   7.775   4.690   5.173 -1.5754 -3.1144 -3.9155
  5904G12c C007 9589   7.822   4.507   5.084  0.4124  1.4571 -0.0903
  5904G12c H014 9590   7.751   4.513   5.003 -5.6398  4.0104  5.0412
  5904G12c C006 9591   7.878   4.368   5.103 -0.7342 -0.8865  0.7205
  5904G12c C005 9592   7.959   4.360   5.210 -1.5055  1.5171 -0.2312
  5904G12c C004 9593   7.991   4.246   5.282  0.0283 -0.7357  0.2949
  5904G12c C003 9594   8.092   4.244   5.388 -1.1291  2.1884  0.4661
  5904G12c C002 9595   8.088   4.119   5.458 -0.7152  0.6950  0.8613
  5904G12c C001 9596   8.177   4.060   5.550  1.7181 -1.3623  0.8476
  5904G12c C00M 9597   8.234   4.125   5.681  0.3175  2.3142  0.8765
  5904G12c C00L 9598   8.275   4.268   5.680  0.1790  0.7363 -0.3024
  5904G12c C00R 9599   8.273   4.358   5.793 -1.5467  0.5783  0.0007
  5904G12c C00Q 9600   8.231   4.332   5.923 -0.8065 -0.8660 -1.8944
  5904G12c C00V 9601   8.211   4.439   6.012  0.8058  0.1152  0.8403
  5904G12c C00U 9602   8.185   4.563   5.963 -0.0963 -0.6461 -0.5998
  5904G12c C00T 9603   8.191   4.585   5.821  0.1518 -0.0154 -0.6229
  5904G12c C016 9604   8.155   4.704   5.764 -0.2886  0.5564  2.0428
  5904G12c C015 9605   8.117   4.813   5.832 -0.1765 -1.1487 -0.3056
  5904G12c C010 9606   8.124   4.803   5.979  1.2376 -0.0822 -0.7512
  5904G12c C011 9607   8.071   4.914   6.050 -1.8805 -1.2899 -0.8099
  5904G12c H005 9608   8.018   4.897   6.142  0.3917 -3.1551  0.2100
  5904G12c C012 9609   8.061   5.045   5.995 -0.1432 -0.4182  1.5572
  5904G12c C017 9610   8.012   5.155   6.078 -1.3644 -1.0267  1.2233
  5904G12c O002 9611   7.934   5.258   6.040 -0.1773  0.1973 -0.0435
  5904G12c H004 9612   7.863   5.236   5.981 -1.0516 -0.8128  1.3445
  5904G12c C018 9613   8.080   5.162   6.201  0.3809  1.1454 -0.0621
  5904G12c O001 9614   8.196   5.086   6.220  0.2973 -0.0817  0.4675
  5904G12c H003 9615   8.133   5.016   6.229  6.5556 -7.1236 -4.4178
  5904G12c C019 9616   8.053   5.299   6.277 -0.5518 -0.8127  0.4619
  5904G12c H002 9617   7.948   5.327   6.289 -0.5729 -2.7162  6.5922
  5904G12c H001 9618   8.116   5.314   6.364  3.2716 -1.9961 -1.9985
  5904G12c O000 9619   8.126   5.391   6.194  0.6370  0.3084 -0.5850
  5904G12c C01A 9620   8.175   5.495   6.239 -1.2928  0.1815  1.5325
  5904G12c C02K 9621   8.255   5.559   6.129  1.2870  0.5419 -0.8990
  5904G12c O00G 9622   8.272   5.526   5.995  0.0200 -0.6420 -0.6794
  5904G12c C02M 9623   8.149   5.496   5.921  0.3039  0.0228  0.4048
  5904G12c H01G 9624   8.081   5.581   5.926 -3.5680 -2.3334 -5.9232
  5904G12c H01F 9625   8.078   5.427   5.966  2.2500 -0.7402  2.3829
  5904G12c H01E 9626   8.175   5.508   5.816 -1.1813  3.8573  0.4044
  5904G12c C02J 9627   8.282   5.698   6.149 -1.1245  1.3549 -1.4663
  5904G12c H01H 9628   8.329   5.765   6.079 -2.6856  5.1219  0.8856
  5904G12c C02I 9629   8.268   5.758   6.277 -0.8517  0.5128  1.3049
  5904G12c C02N 9630   8.328   5.904   6.311  0.1267  1.2284  1.1073
  5904G12c H01M 9631   8.359   5.926   6.412  1.7721  8.8146 -0.7323
  5904G12c C02O 9632   8.354   6.003   6.225 -0.4540  0.6820  1.5311
  5904G12c H01L 9633   8.315   6.002   6.125 -5.5922  1.4279  3.3820
  5904G12c C02P 9634   8.444   6.140   6.242  1.3941  1.3588 -0.7359
  5904G12c H01K 9635   8.517   6.165   6.319 -2.5378  3.7346  2.3797
  5904G12c H01J 9636   8.479   6.145   6.138 -0.4258 -4.8500 -1.8615
  5904G12c O00H 9637   8.347   6.248   6.236 -1.0212 -0.4904  0.2716
  5904G12c H01I 9638   8.264   6.224   6.199 -3.1266  3.3419  2.2548
  5904G12c C02H 9639   8.177   5.700   6.371  2.3365  1.2827 -0.3278
  5904G12c H01C 9640   8.132   5.762   6.446  0.9846 -1.5682  1.2936
  5904G12c C02L 9641   8.136   5.562   6.345  0.1896 -1.1525 -1.5433
  5904G12c H01D 9642   8.048   5.516   6.387 -1.8659  0.8196 -3.5198
  5904G12c C013 9643   8.029   5.041   5.850  1.2508 -0.0385 -0.4217
  5904G12c H000 9644   7.963   5.123   5.825 -1.2331 -2.5597 -2.4909
  5904G12c C014 9645   8.064   4.923   5.764 -1.5659  0.1298 -1.3937
  5904G12c C00F 9646   8.032   4.915   5.628  0.4182  0.8371 -0.7389
  5904G12c C00H 9647   8.137   4.698   5.620  0.0133 -1.2956 -0.1197
  5904G12c C00I 9648   8.176   4.589   5.537 -0.7714  0.0637 -1.1018
  5904G12c C00J 9649   8.230   4.487   5.610  0.2984 -0.5477  0.2950
  5904G12c C00Z 9650   8.153   4.685   6.046 -0.6736  1.7398  0.3040
  5904G12c C00Y 9651   8.143   4.654   6.180 -0.0678 -0.2890 -0.7185
  5904G12c H006 9652   8.137   4.717   6.268  0.4891  2.8836 -2.8815
  5904G12c C00X 9653   8.179   4.525   6.225  0.3040 -0.3116  1.6528
  5904G12c O003 9654   8.160   4.523   6.359  1.7430  0.1863  0.1844
  5904G12c C01B 9655   8.280   4.547   6.444  0.9254  0.7990  1.1258
  5904G12c H009 9656   8.298   4.652   6.466 -0.7671  2.6138 -5.0304
  5904G12c H008 9657   8.293   4.479   6.528  6.7636  4.6614  3.6660
  5904G12c H007 9658   8.371   4.530   6.387 -0.2406  4.9086 -2.2799
  5904G12c C00W 9659   8.206   4.413   6.141  0.5099  0.1251 -1.1950
  5904G12c O004 9660   8.264   4.304   6.203 -1.0021  0.7207 -0.6081
  5904G12c C01C 9661   8.241   4.183   6.134 -0.6184  0.8163 -2.1592
  5904G12c H00A 9662   8.246   4.083   6.175  2.1704  0.9113 -2.1444
  5904G12c C00P 9663   8.229   4.202   5.994 -1.3858  1.8612  0.6623
  5904G12c C00O 9664   8.167   4.084   5.934 -1.2717  0.2366  1.1727
  5904G12c C01D 9665   8.058   4.012   6.000  1.4444  0.4509 -0.4732
  5904G12c H00S 9666   8.042   4.026   6.106  5.8240 -0.1550  0.3914
  5904G12c C01E 9667   7.960   3.924   5.931  0.1480  0.0367 -1.4509
  5904G12c O008 9668   7.859   3.855   5.994 -0.8057 -2.0537  1.0002
  5904G12c C01V 9669   7.856   3.845   6.130 -0.9653  0.3261  1.9727
  5904G12c C01Z 9670   7.720   3.909   6.170 -1.4159 -0.6671 -0.0971
  5904G12c H00R 9671   7.722   3.982   6.251  2.8539  3.2843 -3.4839
  5904G12c H00Q 9672   7.681   3.966   6.085  0.8671 -0.3774 -0.9933
  5904G12c O009 9673   7.657   3.792   6.202 -0.9208 -0.0320  0.0041
  5904G12c H00P 9674   7.637   3.727   6.136 -6.7581 -0.3232  1.7741
  5904G12c C01W 9675   7.940   3.799   6.220 -0.2290  0.4788  1.0094
  5904G12c H00O 9676   7.918   3.769   6.321 -5.3520 -4.6128 -1.3365
  5904G12c C01X 9677   8.062   3.743   6.158  0.9859  0.8002 -0.1839
  5904G12c H00N 9678   8.044   3.673   6.076 -3.0278  0.0895  1.1942
  5904G12c H00M 9679   8.109   3.835   6.124 -6.0964  3.3572 -4.1489
  5904G12c C01Y 9680   8.156   3.693   6.259  1.1410  0.3392 -0.2455
  5904G12c C02D 9681   8.162   3.709   6.404  0.9111  0.8677  1.4151
  5904G12c H019 9682   8.091   3.738   6.480  0.2315  0.6486  0.8718
  5904G12c C02C 9683   8.294   3.678   6.480  1.1397 -0.4553 -0.8032
  5904G12c H01A 9684   8.314   3.694   6.585  4.3670  0.1182 -1.4578
  5904G12c C02B 9685   8.404   3.664   6.407 -1.5541  0.2993  0.5988
  5904G12c O00E 9686   8.528   3.667   6.464  0.5567 -0.6575 -0.8070
  5904G12c H01B 9687   8.575   3.625   6.394  0.1350 -0.2374 -1.3398
  5904G12c C02F 9688   8.397   3.639   6.261 -1.0482  0.4949  0.2463
  5904G12c O00F 9689   8.527   3.612   6.214  1.4846 -0.5776 -0.5505
  5904G12c C02G 9690   8.538   3.568   6.057 -0.4420  0.1461 -1.8374
  5904G12c H017 9691   8.459   3.519   5.998  0.9704 -7.1982  1.8767
  5904G12c H016 9692   8.563   3.650   5.990  1.1611  4.7727  4.1198
  5904G12c H015 9693   8.596   3.476   6.064 -2.2660 -0.8054  1.9335
  5904G12c C02E 9694   8.275   3.644   6.204 -0.2728 -0.5919 -0.0856
  5904G12c H018 9695   8.258   3.614   6.102  1.5750 -1.6972 -0.0833
  5904G12c C01F 9696   7.988   3.895   5.797 -0.2857 -0.2632 -1.0263
  5904G12c C01G 9697   7.917   3.804   5.726 -0.8009  1.8146 -0.6792
  5904G12c H00L 9698   7.841   3.756   5.786  3.0914 -0.4840  2.6722
  5904G12c C01H 9699   7.916   3.827   5.585 -1.0798 -0.9424  0.7843
  5904G12c H00B 9700   7.848   3.763   5.530 -1.2847  2.8865 -3.6615
  5904G12c C01I 9701   8.016   3.912   5.521 -0.0329 -1.3597 -0.7316
  5904G12c C01U 9702   8.085   3.972   5.730  0.1927 -0.2060 -1.0569
  5904G12c C00S 9703   8.249   4.490   5.750 -0.1040  1.5746 -0.2369
  5904G12c C00K 9704   8.221   4.349   5.563 -1.3314 -1.1736  0.8339
  5904G12c C00N 9705   8.162   4.079   5.791  0.2077 -0.2747  0.3377
  5904G12c C000 9706   8.115   3.948   5.594 -2.2581  1.6879  0.8036
  5904G12c C01J 9707   8.013   3.998   5.402 -0.5753 -0.7584 -0.7794
  5904G12c C01K 9708   7.915   4.003   5.302  0.2564  2.6295  1.1140
  5904G12c C01P 9709   7.850   3.878   5.234 -0.6595  0.3752 -0.4828
  5904G12c C01Q 9710   7.874   3.747   5.267  1.8500  1.5040 -0.1109
  5904G12c H00G 9711   7.961   3.689   5.297 -1.0554 -1.2512  3.4477
  5904G12c C01R 9712   7.764   3.662   5.264  0.0978  0.7110 -1.1205
  5904G12c H00F 9713   7.678   3.725   5.252  5.2632  7.6602 -6.6852
  5904G12c C01S 9714   7.738   3.519   5.296  0.3813  1.8130  0.8216
  5904G12c H00E 9715   7.746   3.489   5.191  9.7358 -1.2939  1.8815
  5904G12c H00D 9716   7.831   3.481   5.339  1.3375  2.3411 -0.7373
  5904G12c O005 9717   7.627   3.503   5.368 -1.7738 -0.2670  0.3102
  5904G12c H00C 9718   7.643   3.522   5.459 -1.1902  1.3633 -0.1292
  5904G12c C01O 9719   7.737   3.910   5.145 -0.3176 -0.5036 -0.3325
  5904G12c H00H 9720   7.700   3.824   5.090  1.8987  4.1030-10.0246
  5904G12c C01N 9721   7.725   4.041   5.094  1.1274  2.7472 -0.5721
  5904G12c O006 9722   7.626   4.068   5.004 -0.2702 -0.0406 -0.8032
  5904G12c C01T 9723   7.494   4.041   5.072 -0.1079 -0.0233 -0.1034
  5904G12c H00K 9724   7.451   4.133   5.112  0.0511 -0.1401  0.3377
  5904G12c H00J 9725   7.430   4.021   4.985 -0.8896 -2.4063  0.9672
  5904G12c H00I 9726   7.499   3.984   5.164  1.9045 -2.9005 -1.9075
  5904G12c C01M 9727   7.820   4.143   5.123 -0.4779 -0.2249  0.3557
  5904G12c C020 9728   8.171   4.347   5.424 -0.3483 -0.2344 -0.3315
  5904G12c C021 9729   8.135   4.456   5.341 -0.4605  0.9096  0.5453
  5904G12c C01L 9730   7.915   4.131   5.245  0.4659 -0.3709  1.2262
  5904G12c O007 9731   7.806   4.260   5.055  0.4010 -0.1174  0.2998
  5904G12c C022 9732   8.030   4.470   5.258  1.1169 -1.5592  0.3788
  5904G12c C023 9733   8.140   4.581   5.409  0.5280 -2.2976 -1.8965
  5904G12c C00G 9734   8.052   4.797   5.558 -0.5106  0.1816  1.5830
  5904G12c C00E 9735   7.984   5.044   5.554  0.0631 -0.8023  0.1330
  5904G12c O00A 9736   7.998   5.162   5.608 -1.2939 -1.9444 -0.2364
  5904G12c C024 9737   8.103   5.239   5.602  0.3335  0.7657  1.1936
  5904G12c H00V 9738   8.193   5.207   5.655  0.9449  2.2684  1.0887
  5904G12c H00U 9739   8.154   5.225   5.507  0.6485 -0.2428  1.5046
  5904G12c H00T 9740   8.100   5.348   5.609 -4.6448  0.6485  2.4687
  5914G12c C00D 9741   4.431   5.724   4.753 -2.0087  0.3337  0.1845
  5914G12c O00B 9742   4.400   5.598   4.823 -1.5289  0.3055  0.5748
  5914G12c C025 9743   4.480   5.551   4.919 -0.3268  0.1528 -0.4483
  5914G12c C026 9744   4.591   5.463   4.857 -0.9045  1.6063 -1.2171
  5914G12c H00Y 9745   4.659   5.434   4.937 -0.7663  2.6457 -0.9448
  5914G12c H00X 9746   4.668   5.528   4.816  4.3842 -3.9338 -0.7667
  5914G12c O00C 9747   4.597   5.393   4.737  0.2867  0.1077 -0.1255
  5914G12c H00W 9748   4.577   5.459   4.673  1.2041 -1.7587 -2.4113
  5914G12c C027 9749   4.463   5.598   5.046  1.3008  0.7766 -1.2362
  5914G12c O00D 9750   4.567   5.598   5.138 -0.0292 -0.4958 -0.2787
  5914G12c H00Z 9751   4.635   5.534   5.127 -0.1142 -1.6815  4.6312
  5914G12c C028 9752   4.333   5.661   5.106 -1.6396  0.2766 -0.2726
  5914G12c C029 9753   4.269   5.621   5.221 -0.4818  0.8662  0.5667
  5914G12c H010 9754   4.284   5.518   5.250 -0.5068 -0.8941 -5.2073
  5914G12c C02T 9755   4.162   5.697   5.264  0.3809 -0.8341  1.5566
  5914G12c H01O 9756   4.116   5.624   5.330  1.1671  0.0574  3.0857
  5914G12c C02S 9757   4.129   5.829   5.218  0.2662 -0.3470 -0.3796
  5914G12c O00J 9758   4.016   5.879   5.278  0.5577 -0.9299  1.1115
  5914G12c H01P 9759   3.957   5.900   5.207 -3.7262  4.5319  5.8854
  5914G12c C02R 9760   4.175   5.868   5.094  2.7810 -0.4200 -1.2880
  5914G12c O00I 9761   4.106   5.980   5.034  0.4272 -0.6237  0.3055
  5914G12c C02Q 9762   4.034   6.087   5.115 -0.2247  0.1423  0.4987
  5914G12c H01N 9763   4.016   6.186   5.073  4.0242  0.0185 -1.9156
  5914G12c H01R 9764   4.056   6.123   5.215 -0.5315  3.7404 -0.6627
  5914G12c H01Q 9765   3.931   6.053   5.121 -0.5570  0.8389 -1.0217
  5914G12c C02A 9766   4.273   5.778   5.046  1.4963 -0.9146  0.9215
  5914G12c H011 9767   4.324   5.791   4.952 -0.8298 -5.4127 -1.1167
  5914G12c C00C 9768   4.523   5.829   4.801 -0.5104 -0.4418  0.7755
  5914G12c H012 9769   4.526   5.830   4.909  1.1735  2.4154  0.7572
  5914G12c C00B 9770   4.573   5.921   4.703  1.3391 -0.4445  0.1325
  5914G12c C00A 9771   4.660   6.016   4.743 -1.7828 -0.0998  1.0687
  5914G12c C009 9772   4.710   6.069   4.876  0.2431 -0.0773 -1.0075
  5914G12c C008 9773   4.715   6.032   5.011 -0.8527  0.8038 -0.6310
  5914G12c H013 9774   4.700   5.926   5.025 -1.1961 -0.0925 -6.2782
  5914G12c C007 9775   4.757   6.130   5.100 -1.1502 -0.2588  0.4601
  5914G12c H014 9776   4.742   6.099   5.203 -1.8253  3.0628  1.4110
  5914G12c C006 9777   4.784   6.271   5.065  0.0960  0.9182  0.3879
  5914G12c C005 9778   4.791   6.295   4.928  0.0364 -1.2254 -0.5303
  5914G12c C004 9779   4.790   6.428   4.867  0.9128  0.2744  1.3038
  5914G12c C003 9780   4.795   6.440   4.723 -0.5442 -1.9639 -1.3458
  5914G12c C002 9781   4.778   6.576   4.678  1.2411  0.3709  2.1229
  5914G12c C001 9782   4.786   6.639   4.553 -0.2080 -0.2299 -0.2248
  5914G12c C00M 9783   4.701   6.610   4.447  0.0001 -1.5897  0.1456
  5914G12c C00L 9784   4.667   6.478   4.432 -0.0148  0.2771 -0.1365
  5914G12c C00R 9785   4.547   6.446   4.354  0.1272 -0.1295  0.2441
  5914G12c C00Q 9786   4.448   6.513   4.276  0.4043 -1.6466  1.1935
  5914G12c C00V 9787   4.343   6.416   4.223 -0.6144 -1.1259  1.0441
  5914G12c C00U 9788   4.332   6.279   4.278 -2.0826 -0.1400 -0.2957
  5914G12c C00T 9789   4.436   6.225   4.347 -0.2577 -0.1517 -0.5781
  5914G12c C016 9790   4.418   6.099   4.413 -0.0530 -0.5199 -0.5002
  5914G12c C015 9791   4.314   6.019   4.379 -0.3740 -0.0686 -1.8942
  5914G12c C010 9792   4.215   6.073   4.295  0.2929  0.6447  0.1114
  5914G12c C011 9793   4.111   5.985   4.262  1.4236 -1.1729  0.4926
  5914G12c H005 9794   4.028   6.016   4.200  0.4614 -2.5305  1.0763
  5914G12c C012 9795   4.106   5.851   4.317  1.9499 -1.1381 -0.6270
  5914G12c C017 9796   3.992   5.787   4.275  0.2359  1.8736 -0.0174
  5914G12c O002 9797   3.972   5.746   4.147 -1.0185  0.3034 -1.0193
  5914G12c H004 9798   4.055   5.760   4.105  0.0264 -7.0335 -2.0814
  5914G12c C018 9799   3.894   5.755   4.374 -0.4785  0.6213  0.3512
  5914G12c O001 9800   3.924   5.803   4.496  1.1953 -0.8707 -0.8406
  5914G12c H003 9801   3.850   5.775   4.548  0.8667 -0.2008 -0.9435
  5914G12c C019 9802   3.768   5.674   4.378  1.2676 -0.7493  0.1582
  5914G12c H002 9803   3.675   5.722   4.410  3.3382  2.2041  1.9818
  5914G12c H001 9804   3.749   5.634   4.278 -3.1222  2.0808 -0.3167
  5914G12c O000 9805   3.746   5.583   4.478 -0.1715  0.9773  2.0996
  5914G12c C01A 9806   3.625   5.523   4.505  0.7834  2.5021  0.5750
  5914G12c C02K 9807   3.615   5.391   4.511 -1.0378  1.5053 -0.9129
  5914G12c O00G 9808   3.732   5.316   4.505  0.1283 -0.2229  0.7238
  5914G12c C02M 9809   3.746   5.191   4.555 -0.2337  1.7785 -0.2186
  5914G12c H01G 9810   3.690   5.171   4.645 -0.2944  0.1861 -0.5997
  5914G12c H01F 9811   3.741   5.101   4.493 -8.2666  7.2171 -8.7384
  5914G12c H01E 9812   3.836   5.166   4.611 -1.2540  0.6010  0.9172
  5914G12c C02J 9813   3.499   5.306   4.514  0.0700  0.3150  0.1321
  5914G12c H01H 9814   3.493   5.203   4.546  1.0990  1.0092  2.7012
  5914G12c C02I 9815   3.384   5.376   4.517 -0.3137 -1.5117 -0.2626
  5914G12c C02N 9816   3.260   5.326   4.501  0.1522 -0.5139  1.6261
  5914G12c H01M 9817   3.175   5.358   4.443  1.2194 -0.1026  0.2553
  5914G12c C02O 9818   3.255   5.184   4.525  0.3179 -1.6439 -0.2503
  5914G12c H01L 9819   3.323   5.157   4.605 -2.3374  0.7504  2.9646
  5914G12c C02P 9820   3.164   5.082   4.462 -0.9932 -2.2761 -0.9687
  5914G12c H01K 9821   3.061   5.094   4.430 -1.7970  8.6897  3.5972
  5914G12c H01J 9822   3.232   5.068   4.377 -2.8200  5.5868 -4.1638
  5914G12c O00H 9823   3.143   4.973   4.531  0.2659  0.0123  0.2277
  5914G12c H01I 9824   3.133   4.899   4.473  2.7549  1.5966 -2.3569
  5914G12c C02H 9825   3.390   5.524   4.524  0.2535  0.2637 -1.3931
  5914G12c H01C 9826   3.306   5.586   4.552 -0.5062 -3.3003  5.1755
  5914G12c C02L 9827   3.504   5.596   4.535 -1.7271  0.0210  0.1874
  5914G12c H01D 9828   3.485   5.699   4.562  0.8529 -0.1388  2.9178
  5914G12c C013 9829   4.196   5.820   4.422  1.3873  1.3811 -0.2034
  5914G12c H000 9830   4.169   5.716   4.431 -5.5880  3.2243  4.9731
  5914G12c C014 9831   4.299   5.902   4.459 -0.2508  0.8200 -1.3193
  5914G12c C00F 9832   4.392   5.866   4.553  0.5613  1.7818  0.7108
  5914G12c C00H 9833   4.506   6.068   4.510  0.0743  2.3907 -1.3140
  5914G12c C00I 9834   4.626   6.135   4.523 -0.8093  1.8333  0.1007
  5914G12c C00J 9835   4.645   6.253   4.446 -0.2226  0.7358  1.1966
  5914G12c C00Z 9836   4.221   6.199   4.257  0.9145  0.9106  1.3186
  5914G12c C00Y 9837   4.109   6.259   4.193 -0.5394  1.7026  0.0563
  5914G12c H006 9838   4.008   6.231   4.166  0.1170  2.3409 -3.3383
  5914G12c C00X 9839   4.117   6.394   4.133  0.3869 -0.3323  1.0758
  5914G12c O003 9840   3.997   6.435   4.083 -0.7960  0.4837  0.6138
  5914G12c C01B 9841   3.950   6.392   3.955 -0.1934  0.2327  0.6942
  5914G12c H009 9842   3.843   6.380   3.940  1.0198 -3.6474 -6.7592
  5914G12c H008 9843   3.999   6.298   3.931 -3.3172 -1.6626  1.4706
  5914G12c H007 9844   3.992   6.451   3.874  0.8031 -2.6588 -0.9184
  5914G12c C00W 9845   4.233   6.460   4.139  1.7084  0.1301  0.7863
  5914G12c O004 9846   4.236   6.589   4.094 -0.2776 -0.4695 -0.4623
  5914G12c C01C 9847   4.334   6.668   4.146 -0.4762 -1.3861 -0.4386
  5914G12c H00A 9848   4.331   6.767   4.103 -1.3428 -0.1757  2.2380
  5914G12c C00P 9849   4.430   6.648   4.251 -1.2016  2.5859  1.1083
  5914G12c C00O 9850   4.473   6.734   4.353  1.0430 -2.2707  0.3760
  5914G12c C01D 9851   4.412   6.861   4.348 -0.2485 -0.2800 -1.6019
  5914G12c H00S 9852   4.331   6.892   4.284 -2.1044 -8.0101 -3.5273
  5914G12c C01E 9853   4.461   6.951   4.453 -0.6179 -0.1100 -0.0030
  5914G12c O008 9854   4.381   7.068   4.480  0.7477 -0.4925  1.3630
  5914G12c C01V 9855   4.361   7.130   4.350 -0.2730 -0.4465 -0.7127
  5914G12c C01Z 9856   4.465   7.228   4.342  0.6205 -1.6724 -0.0924
  5914G12c H00R 9857   4.535   7.214   4.260 -1.1629  3.7303 -2.7879
  5914G12c H00Q 9858   4.429   7.330   4.326  3.6768  0.1242  3.5752
  5914G12c O009 9859   4.512   7.274   4.473 -0.4806 -0.8034  0.4756
  5914G12c H00P 9860   4.457   7.281   4.549 -0.4270  6.5733  0.1405
  5914G12c C01W 9861   4.246   7.141   4.276 -0.2288  0.0397 -0.2700
  5914G12c H00O 9862   4.178   7.059   4.295 -1.4858  0.1320 -3.9069
  5914G12c C01X 9863   4.237   7.218   4.136 -0.2192 -1.2270  0.6534
  5914G12c H00N 9864   4.153   7.288   4.139  0.2348 -0.6716  0.4242
  5914G12c H00M 9865   4.321   7.287   4.142  2.4083 -4.5154  3.3118
  5914G12c C01Y 9866   4.275   7.137   4.018  0.8026 -0.2074 -0.3472
  5914G12c C02D 9867   4.185   7.091   3.912  0.2046  0.7549 -2.4681
  5914G12c H019 9868   4.080   7.113   3.928 -0.2261 -4.0105  2.8383
  5914G12c C02C 9869   4.230   6.980   3.821 -1.2737 -0.2448  0.6054
  5914G12c H01A 9870   4.135   6.930   3.803 -1.5765  1.8085 -4.5002
  5914G12c C02B 9871   4.367   6.959   3.838 -0.7618  0.7033  0.8034
  5914G12c O00E 9872   4.412   6.837   3.794  0.3617 -0.5244 -1.0223
  5914G12c H01B 9873   4.494   6.883   3.784 -0.0509  1.9688  4.8778
  5914G12c C02F 9874   4.470   7.006   3.932  0.8845  1.1963 -0.3021
  5914G12c O00F 9875   4.605   6.986   3.934 -0.5924 -0.1065 -1.6891
  5914G12c C02G 9876   4.715   7.069   3.930  0.8665 -0.1163  1.0872
  5914G12c H017 9877   4.671   7.168   3.939 -3.2094 -1.6205 -0.6236
  5914G12c H016 9878   4.790   7.015   3.988  0.1756 -5.2650 -2.4699
  5914G12c H015 9879   4.736   7.104   3.829 -3.3656 -0.7136 -0.0985
  5914G12c C02E 9880   4.410   7.087   4.025 -0.1970 -0.8960 -0.4975
  5914G12c H018 9881   4.469   7.100   4.115  0.4311  5.3963 -1.5434
  5914G12c C01F 9882   4.546   6.910   4.547  1.2201  1.0095 -0.3045
  5914G12c C01G 9883   4.562   6.976   4.675  1.1804 -0.3116 -0.1440
  5914G12c H00L 9884   4.508   7.063   4.709 -1.2291 -1.2505 -1.4047
  5914G12c C01H 9885   4.649   6.911   4.758 -0.2425  0.6784 -1.3995
  5914G12c H00B 9886   4.623   6.948   4.856  0.0505 -0.3220 -0.9314
  5914G12c C01I 9887   4.719   6.797   4.725 -0.5645 -0.7136 -0.6147
  5914G12c C01U 9888   4.629   6.806   4.521 -1.5330  0.0826  0.1881
  5914G12c C00S 9889   4.528   6.316   4.399  0.6617  0.6523  0.2457
  5914G12c C00K 9890   4.706   6.363   4.514 -0.8954  1.0505 -0.9887
  5914G12c C00N 9891   4.602   6.722   4.419 -2.2643  0.3278 -0.4298
  5914G12c C000 9892   4.732   6.769   4.595  0.0383  0.7901  1.2565
  5914G12c C01J 9893   4.794   6.692   4.786 -0.4005  0.4849 -0.4559
  5914G12c C01K 9894   4.801   6.667   4.929  1.1895 -0.7763  0.0196
  5914G12c C01P 9895   4.806   6.771   5.046 -1.9678  0.9503  1.4121
  5914G12c C01Q 9896   4.862   6.909   5.020 -0.6662 -1.8835 -0.1902
  5914G12c H00G 9897   4.886   6.943   4.921  6.4783  0.9590  2.1921
  5914G12c C01R 9898   4.904   6.988   5.113  1.0997  0.7951 -0.2083
  5914G12c H00F 9899   4.914   6.975   5.220 -2.3258  2.6948  0.4220
  5914G12c C01S 9900   4.979   7.124   5.109 -0.7972  0.2409 -0.5823
  5914G12c H00E 9901   5.068   7.116   5.046 -1.8570 -4.0387 -1.7095
  5914G12c H00D 9902   4.919   7.210   5.078  3.8196  3.6106 -0.6605
  5914G12c O005 9903   5.025   7.156   5.245  1.5177  0.5705  1.3017
  5914G12c H00C 9904   5.109   7.120   5.269  3.5695  4.5845  0.6504
  5914G12c C01O 9905   4.777   6.728   5.179  2.0646 -0.6553 -0.8154
  5914G12c H00H 9906   4.782   6.799   5.260 -3.1785  0.4880 -1.3571
  5914G12c C01N 9907   4.784   6.604   5.209 -0.5086 -1.5425 -1.2259
  5914G12c O006 9908   4.754   6.556   5.343  1.0420 -0.0770 -0.6804
  5914G12c C01T 9909   4.779   6.634   5.457 -0.2503 -0.0919  1.0059
  5914G12c H00K 9910   4.765   6.557   5.533 -3.2511  1.6205  2.2689
  5914G12c H00J 9911   4.704   6.710   5.481  3.6710  3.8422  1.5027
  5914G12c H00I 9912   4.835   6.727   5.452 -0.8977  0.3987  2.6350
  5914G12c C01M 9913   4.807   6.500   5.104 -0.4456  1.0523 -0.3037
  5914G12c C020 9914   4.773   6.324   4.634  0.5603 -1.9016 -0.0111
  5914G12c C021 9915   4.781   6.200   4.691  0.5325 -2.0579  0.7593
  5914G12c C01L 9916   4.806   6.530   4.955  1.6750 -0.5836  0.0048
  5914G12c O007 9917   4.774   6.370   5.149 -0.3247 -0.3212 -0.5179
  5914G12c C022 9918   4.762   6.199   4.831  0.0672 -0.8043 -1.0174
  5914G12c C023 9919   4.705   6.092   4.635 -1.1284  1.3113  0.7367
  5914G12c C00G 9920   4.480   5.954   4.592  1.3042 -0.8167  0.1393
  5914G12c C00E 9921   4.370   5.738   4.634  1.9139 -0.4791  0.1933
  5914G12c O00A 9922   4.259   5.660   4.606 -1.0653  0.8670  0.5831
  5914G12c C024 9923   4.153   5.675   4.700  2.2795 -0.5718  0.9409
  5914G12c H00V 9924   4.164   5.632   4.799  6.8880  4.1523  2.7413
  5914G12c H00U 9925   4.147   5.782   4.723  3.5918 -0.4226  0.6430
  5914G12c H00T 9926   4.063   5.622   4.672  1.9123 -0.3440  1.6835
  5924G12c C00D 9927  12.992   0.201   6.430  2.2674  0.1149 -0.1294
  5924G12c O00B 9928  13.049   0.179   6.306 -0.6905 -0.3753  0.8217
  5924G12c C025 9929  13.021   0.272   6.207 -1.0612  0.1791  1.1504
  5924G12c C026 9930  12.879   0.296   6.151  0.9414 -1.6273  0.5878
  5924G12c H00Y 9931  12.829   0.370   6.214  1.7411  1.6605 -2.4840
  5924G12c H00X 9932  12.852   0.191   6.152 -0.0553 -1.5584 -4.7154
  5924G12c O00C 9933  12.876   0.364   6.015  0.1307  0.7799 -1.2261
  5924G12c H00W 9934  12.909   0.453   6.013  1.0644  0.4315 -2.3632
  5924G12c C027 9935  13.121   0.351   6.163 -1.4742 -1.2822 -2.9281
  5924G12c O00D 9936  13.246   0.336   6.215  0.3602  0.3463 -0.2182
  5924G12c H00Z 9937  13.227   0.295   6.298  5.0086 -1.6006  0.0278
  5924G12c C028 9938  13.130   0.445   6.055 -0.8851 -0.8661  0.6967
  5924G12c C029 9939  13.047   0.562   6.034 -0.4504 -0.1309 -0.3994
  5924G12c H010 9940  12.948   0.559   6.078  0.0361  3.4190  1.1294
  5924G12c C02T 9941  13.070   0.646   5.935 -1.9182 -0.0809  0.5334
  5924G12c H01O 9942  13.022   0.738   5.907 -0.7066 -0.2688 -2.3399
  5924G12c C02S 9943  13.185   0.628   5.860 -0.0219 -2.3900  0.0198
  5924G12c O00J 9944  13.201   0.746   5.796 -1.2951  0.4750  0.1295
  5924G12c H01P 9945  13.247   0.740   5.714 -0.0593 -2.5604  0.9628
  5924G12c C02R 9946  13.262   0.518   5.864  0.4987  0.0523 -0.6982
  5924G12c O00I 9947  13.364   0.523   5.767  1.1362  0.2004 -0.1597
  5924G12c C02Q 9948  13.493   0.505   5.803 -0.1728  0.3732  0.1184
  5924G12c H01N 9949  13.559   0.582   5.844  0.3782  1.9516 -3.5585
  5924G12c H01R 9950  13.547   0.475   5.713  2.7894 -4.4825  3.2914
  5924G12c H01Q 9951  13.503   0.429   5.881  5.3942  0.4771 -0.2890
  5924G12c C02A 9952  13.217   0.412   5.951  0.8467  0.6090 -0.6909
  5924G12c H011 9953  13.301   0.350   5.980  3.1801  5.4514  3.6507
  5924G12c C00C 9954  13.013   0.337   6.484  0.3416 -0.9871  0.6711
  5924G12c H012 9955  13.064   0.425   6.447  4.3974 -1.9195  3.6740
  5924G12c C00B 9956  12.951   0.358   6.602 -1.6161 -0.1922 -0.4626
  5924G12c C00A 9957  12.962   0.485   6.672  0.5951 -1.5588 -2.3326
  5924G12c C009 9958  13.070   0.572   6.700  1.3903 -0.3005  1.9190
  5924G12c C008 9959  13.194   0.569   6.667 -2.1070 -0.8221  0.1124
  5924G12c H013 9960  13.210   0.505   6.582  2.0270  3.9112 -2.9041
  5924G12c C007 9961  13.287   0.657   6.731  0.7671  0.5602  0.9196
  5924G12c H014 9962  13.381   0.678   6.684 -1.3665  3.5888 -2.2661
  5924G12c C006 9963  13.249   0.752   6.827  3.4468 -1.0175 -0.2775
  5924G12c C005 9964  13.108   0.725   6.854  0.6254  0.0874 -0.6767
  5924G12c C004 9965  13.062   0.779   6.974  1.1555 -1.3281 -0.4305
  5924G12c C003 9966  12.930   0.750   7.031 -2.4838 -1.3654  0.7814
  5924G12c C002 9967  12.897   0.784   7.162  1.5627  0.1561  0.1489
  5924G12c C001 9968  12.793   0.749   7.247 -0.9321  0.6252 -0.2652
  5924G12c C00M 9969  12.751   0.606   7.268 -1.3016  0.4830 -0.1563
  5924G12c C00L 9970  12.696   0.530   7.149 -0.6018 -0.8054  0.2282
  5924G12c C00R 9971  12.678   0.393   7.158 -0.8392 -1.0218 -0.3412
  5924G12c C00Q 9972  12.657   0.312   7.271  0.7758 -2.3526  0.5370
  5924G12c C00V 9973  12.642   0.178   7.230 -0.0783  0.8013 -0.4740
  5924G12c C00U 9974  12.669   0.144   7.100 -0.8081 -0.9183  1.3779
  5924G12c C00T 9975  12.690   0.231   6.990  0.8155 -1.8279 -0.7163
  5924G12c C016 9976  12.742   0.194   6.867  1.3729 -1.2236  0.8979
  5924G12c C015 9977  12.753   0.069   6.846 -0.6372 -0.9444 -0.3867
  5924G12c C010 9978  12.703  -0.017   6.944 -0.8958  1.3455 -0.5281
  5924G12c C011 9979  12.679  -0.146   6.891 -0.4926 -0.4812 -0.0577
  5924G12c H005 9980  12.625  -0.220   6.948 -4.6063  0.3792 -2.6046
  5924G12c C012 9981  12.728  -0.202   6.761  1.1336  0.2460  1.3751
  5924G12c C017 9982  12.687  -0.323   6.714  0.6793  0.3710 -1.0217
  5924G12c O002 9983  12.780  -0.423   6.670 -1.4445  0.3634  0.7859
  5924G12c H004 9984  12.714  -0.487   6.647 -4.3085  1.4725  5.3012
  5924G12c C018 9985  12.555  -0.358   6.676 -0.1101 -0.2197  0.5318
  5924G12c O001 9986  12.454  -0.258   6.676  0.9936  0.9494 -1.0350
  5924G12c H003 9987  12.472  -0.203   6.750 -2.6523  4.2048 -2.3276
  5924G12c C019 9988  12.514  -0.509   6.641 -0.3428  2.3372 -0.1413
  5924G12c H002 9989  12.552  -0.584   6.710 -8.3388  0.1973  2.5255
  5924G12c H001 9990  12.421  -0.522   6.584 -2.7249 -3.9345  4.6228
  5924G12c O000 9991  12.605  -0.595   6.555 -0.1337  0.4720 -0.4788
  5924G12c C01A 9992  12.655  -0.534   6.437  0.0745  1.2976  0.6893
  5924G12c C02K 9993  12.775  -0.543   6.373 -0.5709  0.0736  2.0598
  5924G12c O00G 9994  12.885  -0.595   6.433  1.2943 -1.3505  0.1188
  5924G12c C02M 9995  13.004  -0.534   6.417  0.1336 -0.6216 -0.2134
  5924G12c H01G 9996  13.045  -0.560   6.319 -3.5791 -3.1445 -1.2257
  5924G12c H01F 9997  13.021  -0.444   6.476 -3.8862  3.3172 -4.6358
  5924G12c H01E 9998  13.068  -0.616   6.449  1.0062  1.3460  3.3145
  5924G12c C02J 9999  12.808  -0.492   6.245 -0.3459  2.2540  0.1103
  5924G12c H01H10000  12.894  -0.495   6.180  1.9486  0.6444  3.1113
  5924G12c C02I10001  12.705  -0.439   6.162 -0.7955  0.8184  0.8258
  5924G12c C02N10002  12.729  -0.374   6.054 -1.3590 -1.5445 -1.2493
  5924G12c H01M10003  12.678  -0.385   5.960 -3.2855 -3.5535 -0.0199
  5924G12c C02O10004  12.809  -0.268   6.049  2.2896  0.3334  0.9607
  5924G12c H01L10005  12.876  -0.247   6.130 -5.3009 -0.0561  8.0036
  5924G12c C02P10006  12.813  -0.183   5.920 -1.7099 -0.1427 -1.1502
  5924G12c H01K10007  12.892  -0.228   5.860  0.2303 -3.0542  3.2526
  5924G12c H01J10008  12.733  -0.152   5.853 -0.7319  3.1464 -0.8703
  5924G12c O00H10009  12.872  -0.080   5.995  1.3573  0.7194 -0.0491
  5924G12c H01I10010  12.903  -0.010   5.939 -0.6760  3.7772  2.4612
  5924G12c C02H10011  12.579  -0.456   6.212 -0.1341  0.3020 -2.1131
  5924G12c H01C10012  12.496  -0.405   6.165 -3.4769  2.4731  5.3535
  5924G12c C02L10013  12.548  -0.475   6.358 -0.2328  1.2379  0.7247
  5924G12c H01D10014  12.452  -0.464   6.405 -0.3211  2.6741  0.2415
  5924G12c C01310015  12.805  -0.122   6.680 -0.0126 -0.5061  0.4552
  5924G12c H00010016  12.825  -0.182   6.593 -2.9230 -2.5492  1.1252
  5924G12c C01410017  12.815   0.028   6.723  1.3181  1.1450  0.5089
  5924G12c C00F10018  12.884   0.118   6.635 -1.3845 -0.1497 -0.4502
  5924G12c C00H10019  12.810   0.285   6.784 -0.5873 -0.1565  0.1749
  5924G12c C00I10020  12.798   0.425   6.821 -0.4525 -1.0529  0.7285
  5924G12c C00J10021  12.710   0.450   6.931  2.0411 -1.8740 -0.7052
  5924G12c C00Z10022  12.666   0.009   7.067  0.3259  0.8462  0.6230
  5924G12c C00Y10023  12.649  -0.095   7.159  0.8000  0.1447 -1.2987
  5924G12c H00610024  12.688  -0.190   7.126 -2.5019 -0.9405 -2.2809
  5924G12c C00X10025  12.618  -0.063   7.301  0.0866 -0.4817  0.6315
  5924G12c O00310026  12.622  -0.178   7.359 -0.0208  0.3215  0.8460
  5924G12c C01B10027  12.499  -0.220   7.402 -0.4282  0.6375  0.5001
  5924G12c H00910028  12.467  -0.167   7.492 -5.7313  1.5856 -1.7612
  5924G12c H00810029  12.451  -0.316   7.424  0.8450  1.3883  7.5256
  5924G12c H00710030  12.422  -0.190   7.331 -0.6163 -0.3910  0.2545
  5924G12c C00W10031  12.607   0.082   7.334 -0.1283 -0.2823 -0.9863
  5924G12c O00410032  12.607   0.111   7.477  1.2544 -0.6220  1.9485
  5924G12c C01C10033  12.643   0.254   7.504  0.1229  0.6014  1.5234
  5924G12c H00A10034  12.644   0.277   7.609-10.0893 -1.4847  2.5463
  5924G12c C00P10035  12.691   0.339   7.410 -1.9030  0.5147  0.6720
  5924G12c C00O10036  12.766   0.451   7.460  0.8373  0.5530 -0.2473
  5924G12c C01D10037  12.844   0.426   7.581  0.0120  0.9174 -0.6289
  5924G12c H00S10038  12.865   0.321   7.594 -0.3236 -0.0445 -6.3010
  5924G12c C01E10039  12.951   0.515   7.605 -0.2321 -0.0549 -0.2939
  5924G12c O00810040  13.031   0.507   7.715  0.0031  1.9445 -0.0316
  5924G12c C01V10041  13.153   0.443   7.713  1.1696 -0.2665 -0.7406
  5924G12c C01Z10042  13.219   0.427   7.569 -0.3307  0.8537 -0.1094
  5924G12c H00R10043  13.263   0.328   7.585  4.7657  2.9258 -0.3462
  5924G12c H00Q10044  13.160   0.444   7.479  5.1831 -0.6646 -4.3639
  5924G12c O00910045  13.327   0.522   7.547 -0.0037  1.9335 -1.7354
  5924G12c H00P10046  13.409   0.496   7.507  0.1225 -2.9567  1.3273
  5924G12c C01W10047  13.185   0.409   7.846 -1.2083 -1.2673 -0.5187
  5924G12c H00O10048  13.129   0.440   7.933  6.7645  5.0850  2.9804
  5924G12c C01X10049  13.316   0.343   7.874 -0.3149  0.9982  0.4146
  5924G12c H00N10050  13.292   0.250   7.926 -4.6245  0.0355 -3.0748
  5924G12c H00M10051  13.352   0.329   7.772  0.2275  3.4056  0.2388
  5924G12c C01Y10052  13.396   0.426   7.971 -1.8113  0.8270  0.2737
  5924G12c C02D10053  13.445   0.554   7.940 -0.1050 -0.1827  0.1811
  5924G12c H01910054  13.416   0.577   7.839 -2.5714 -0.9311  0.6795
  5924G12c C02C10055  13.488   0.642   8.036  0.4611 -1.1850 -1.2461
  5924G12c H01A10056  13.492   0.747   8.011 -2.5401  0.4910  4.4117
  5924G12c C02B10057  13.500   0.604   8.170  0.9235  0.1654 -0.1799
  5924G12c O00E10058  13.559   0.665   8.279  0.0179  0.2165  1.3795
  5924G12c H01B10059  13.643   0.626   8.298  3.4866  6.5689  0.2848
  5924G12c C02F10060  13.452   0.478   8.200 -1.1218  0.7886 -0.5431
  5924G12c O00F10061  13.433   0.448   8.334 -1.0974 -0.8680  0.4192
  5924G12c C02G10062  13.314   0.395   8.384  0.2254  0.3030  0.1672
  5924G12c H01710063  13.341   0.327   8.465  3.4007 -1.5491 -2.3024
  5924G12c H01610064  13.245   0.330   8.330 -5.9983  0.4691  7.1744
  5924G12c H01510065  13.239   0.470   8.409  1.3254  1.7746 -0.8080
  5924G12c C02E10066  13.398   0.396   8.103  0.7793  1.3397 -1.7236
  5924G12c H01810067  13.362   0.312   8.161  4.0327  4.3193  5.1906
  5924G12c C01F10068  12.946   0.648   7.545  1.4295  1.7375  0.2297
  5924G12c C01G10069  13.061   0.730   7.529 -0.4027 -0.2071  0.0813
  5924G12c H00L10070  13.159   0.686   7.544 -0.4889  0.2651  2.1279
  5924G12c C01H10071  13.067   0.848   7.439 -0.7899 -1.8452  0.0512
  5924G12c H00B10072  13.163   0.897   7.450 -0.3698 -2.6857  0.2188
  5924G12c C01I10073  12.953   0.864   7.344 -1.8368 -0.7437  1.3382
  5924G12c C01U10074  12.846   0.673   7.451 -0.5957  0.7189 -0.1066
  5924G12c C00S10075  12.674   0.356   7.022 -2.0246 -0.3086  0.9064
  5924G12c C00K10076  12.744   0.564   7.017 -0.5905  1.0874 -0.1813
  5924G12c C00N10077  12.781   0.562   7.402 -0.7066 -1.6635  0.1669
  5924G12c C00010078  12.835   0.787   7.372  0.7874 -0.4268 -0.3614
  5924G12c C01J10079  12.964   0.904   7.214 -0.2583 -0.0371  1.3511
  5924G12c C01K10080  13.100   0.946   7.169  1.8140 -1.0982 -0.5620
  5924G12c C01P10081  13.193   1.038   7.220 -1.2840 -1.1746  0.8163
  5924G12c C01Q10082  13.162   1.145   7.322  0.4507  1.9817  0.0511
  5924G12c H00G10083  13.242   1.141   7.394 -1.0179 -6.0232  1.6867
  5924G12c C01R10084  13.059   1.222   7.329  0.4912  0.1852 -1.8424
  5924G12c H00F10085  12.971   1.200   7.270 -0.7424  0.0460 -0.0133
  5924G12c C01S10086  13.003   1.331   7.425 -0.3586 -3.4791 -1.2013
  5924G12c H00E10087  13.081   1.360   7.495  4.1248  1.3678 -7.5988
  5924G12c H00D10088  12.988   1.410   7.352 -3.5569 -3.5152 -0.6209
  5924G12c O00510089  12.877   1.267   7.465 -0.3651  0.2524 -0.1484
  5924G12c H00C10090  12.921   1.194   7.505  1.3998  3.5458  4.3783
  5924G12c C01O10091  13.317   1.065   7.160 -1.0379  1.8088  2.3058
  5924G12c H00H10092  13.369   1.157   7.183 -0.1247  1.3777  2.0220
  5924G12c C01N10093  13.357   1.001   7.053  0.4658 -0.0985 -1.6863
  5924G12c O00610094  13.485   0.997   7.004  0.7160  0.0806  0.3939
  5924G12c C01T10095  13.580   1.036   7.108  0.7101 -2.0636  0.6910
  5924G12c H00K10096  13.676   0.991   7.082  1.6582 -1.4202  2.9862
  5924G12c H00J10097  13.564   1.143   7.117  2.6724 -1.5008 -2.0506
  5924G12c H00I10098  13.586   1.000   7.210  1.6260 -0.2427  1.2986
  5924G12c C01M10099  13.264   0.904   6.998  0.5390 -0.1879 -1.0341
  5924G12c C02010100  12.850   0.660   6.958 -2.5279  2.0846 -0.7992
  5924G12c C02110101  12.882   0.654   6.818  1.0938  1.9863 -1.2146
  5924G12c C01L10102  13.137   0.876   7.049  1.2126  0.5762  0.6268
  5924G12c O00710103  13.319   0.841   6.897  0.4054  0.9716 -0.0786
  5924G12c C02210104  13.008   0.669   6.775  0.9384 -1.4883 -0.1707
  5924G12c C02310105  12.874   0.525   6.758  2.0342 -0.0243 -0.7605
  5924G12c C00G10106  12.874   0.253   6.670 -1.8523  0.7454 -0.5278
  5924G12c C00E10107  12.919   0.095   6.508 -1.0480 -1.3055  2.3616
  5924G12c O00A10108  12.867  -0.012   6.449 -1.4769  0.7820 -0.4000
  5924G12c C02410109  12.983  -0.102   6.423  1.1826  0.3939 -0.3676
  5924G12c H00V10110  12.975  -0.073   6.318 -0.7403 -2.3917 -1.0631
  5924G12c H00U10111  12.956  -0.205   6.401 -4.5230  1.3068  1.4378
  5924G12c H00T10112  13.085  -0.071   6.447 -0.2402  3.9115  1.4798
  5934G12c C00D10113   0.404  11.609   4.846  0.0341  1.2098 -0.2858
  5934G12c O00B10114   0.520  11.668   4.770  1.0571 -0.6490  0.3907
  5934G12c C02510115   0.516  11.714   4.641 -0.5360  1.6354  0.0099
  5934G12c C02610116   0.450  11.865   4.645 -0.2828  1.1221  1.1660
  5934G12c H00Y10117   0.450  11.909   4.744 -2.3501  2.0244  0.7788
  5934G12c H00X10118   0.349  11.826   4.636  0.6209 -0.9195 -0.6803
  5934G12c O00C10119   0.499  11.943   4.529  0.0060  2.3778  0.5687
  5934G12c H00W10120   0.500  11.877   4.462 -4.3894 -1.7865  4.1720
  5934G12c C02710121   0.553  11.637   4.541  0.0799 -0.0179  1.8434
  5934G12c O00D10122   0.617  11.519   4.571  0.7682 -0.5919  0.0251
  5934G12c H00Z10123   0.620  11.509   4.665  2.2673  2.1382  0.2829
  5934G12c C02810124   0.593  11.662   4.403  0.6371  0.0721  0.5474
  5934G12c C02910125   0.485  11.724   4.338 -1.5187 -0.2160  1.0854
  5934G12c H01010126   0.390  11.755   4.376 -1.1544 -2.2925  3.8927
  5934G12c C02T10127   0.524  11.744   4.203  0.6863 -0.1624 -0.5646
  5934G12c H01O10128   0.472  11.825   4.153  0.8853  1.2803  1.5441
  5934G12c C02S10129   0.644  11.709   4.142  0.9703 -0.0319  1.7938
  5934G12c O00J10130   0.658  11.756   4.022  0.2943  0.5701  2.4514
  5934G12c H01P10131   0.727  11.709   3.979 -1.4440 -1.0004  1.2731
  5934G12c C02R10132   0.730  11.629   4.217  0.1288 -0.6183  3.1715
  5934G12c O00I10133   0.833  11.582   4.136 -0.1745 -0.2284 -0.3959
  5934G12c C02Q10134   0.953  11.617   4.174 -2.0239  0.0692 -0.8155
  5934G12c H01N10135   0.967  11.720   4.207 -9.4042  1.1817 -0.1951
  5934G12c H01R10136   0.985  11.574   4.269  1.7463 -2.1009 -2.9414
  5934G12c H01Q10137   1.040  11.606   4.110 -0.6818  5.1290 -0.0978
  5934G12c C02A10138   0.712  11.606   4.349 -0.4283  1.0265  0.1802
  5934G12c H01110139   0.767  11.531   4.405 -1.8429  0.5228  0.9169
  5934G12c C00C10140   0.459  11.533   4.949  0.8804  0.8361 -0.5233
  5934G12c H01210141   0.550  11.565   4.996  0.2659  2.1164 -0.1757
  5934G12c C00B10142   0.390  11.441   5.013  0.7704 -1.8745  0.4512
  5934G12c C00A10143   0.429  11.341   5.105 -2.4275 -0.6822 -0.0156
  5934G12c C00910144   0.568  11.310   5.150  0.0054  1.6340  0.1812
  5934G12c C00810145   0.689  11.347   5.098 -1.0727  0.4656  1.8208
  5934G12c H01310146   0.718  11.442   5.054  0.7233 -1.2153 -0.7766
  5934G12c C00710147   0.792  11.250   5.110  0.2963 -0.3306 -0.2985
  5934G12c H01410148   0.896  11.255   5.083  1.4917 -5.2797  2.7400
  5934G12c C00610149   0.758  11.107   5.150 -0.0918 -0.7712 -0.1271
  5934G12c C00510150   0.631  11.069   5.180 -0.1205 -1.6114  1.5814
  5934G12c C00410151   0.574  10.940   5.216  0.8666 -1.4962  0.9391
  5934G12c C00310152   0.429  10.920   5.230 -0.2168 -2.0237 -0.3309
  5934G12c C00210153   0.398  10.789   5.224 -1.9164 -0.6610  0.9010
  5934G12c C00110154   0.265  10.730   5.194 -0.4071 -1.2169  2.5184
  5934G12c C00M10155   0.160  10.787   5.105  1.4157 -0.2601 -0.8953
  5934G12c C00L10156   0.094  10.903   5.149  0.7304  0.4279  0.0276
  5934G12c C00R10157  -0.010  10.968   5.063 -0.1102  1.3776 -0.1088
  5934G12c C00Q10158  -0.059  10.924   4.929 -0.8908 -1.1462  0.2372
  5934G12c C00V10159  -0.149  11.030   4.875  1.2125  0.1288  1.0004
  5934G12c C00U10160  -0.132  11.162   4.913 -0.0102  1.1780 -1.9612
  5934G12c C00T10161  -0.012  11.185   4.967  0.1765 -0.6675  1.5422
  5934G12c C01610162   0.035  11.319   4.973  0.3106  0.6622  1.2913
  5934G12c C01510163  -0.019  11.404   4.883 -0.5010 -0.3525  1.2042
  5934G12c C01010164  -0.143  11.384   4.827 -0.0052 -0.7822  0.9561
  5934G12c C01110165  -0.206  11.503   4.765  0.5611 -1.5308  0.4421
  5934G12c H00510166  -0.301  11.488   4.717  3.3895 -4.5992 -4.6676
  5934G12c C01210167  -0.156  11.626   4.757 -2.3556 -1.4637  1.3027
  5934G12c C01710168  -0.243  11.738   4.703  0.6189 -1.5368  0.7196
  5934G12c O00210169  -0.366  11.795   4.754 -1.2556 -1.3787 -0.0957
  5934G12c H00410170  -0.366  11.886   4.728 -2.0816 -0.6674  2.2175
  5934G12c C01810171  -0.183  11.829   4.613 -1.4256  0.3760  0.7764
  5934G12c O00110172  -0.056  11.800   4.583 -1.1664 -0.3755 -0.8250
  5934G12c H00310173  -0.003  11.852   4.643 -2.6036  4.4812 -3.4946
  5934G12c C01910174  -0.246  11.951   4.556  0.1428 -1.2940  2.2221
  5934G12c H00210175  -0.172  12.024   4.523  3.5044 -7.7541 -6.5184
  5934G12c H00110176  -0.300  11.899   4.478 -4.6965  4.9253  1.0086
  5934G12c O00010177  -0.324  12.009   4.652  0.0374  0.7133  0.6989
  5934G12c C01A10178  -0.340  12.148   4.676 -0.1170 -1.3035  0.6527
  5934G12c C02K10179  -0.335  12.252   4.570 -0.4606  2.5429 -0.3194
  5934G12c O00G10180  -0.314  12.213   4.436 -0.8583 -0.2644 -2.1677
  5934G12c C02M10181  -0.401  12.255   4.336 -0.1691 -1.6231  0.6341
  5934G12c H01G10182  -0.395  12.364   4.331  1.3785 -1.4259  4.7739
  5934G12c H01F10183  -0.505  12.267   4.367  0.5867 -1.0929  3.0748
  5934G12c H01E10184  -0.368  12.206   4.244 -1.2802 -6.8281  2.8399
  5934G12c C02J10185  -0.292  12.384   4.600  0.5058  0.3266  1.9560
  5934G12c H01H10186  -0.261  12.465   4.535  2.7629 -3.6014 -2.0991
  5934G12c C02I10187  -0.318  12.428   4.734  1.8467 -1.2848 -0.1049
  5934G12c C02N10188  -0.288  12.565   4.774 -0.4925 -0.0798  0.0112
  5934G12c H01M10189  -0.347  12.643   4.727  0.3757 -3.0096 -6.4058
  5934G12c C02O10190  -0.180  12.568   4.851  0.5016  1.0336 -1.8556
  5934G12c H01L10191  -0.116  12.485   4.877  1.2352  3.2551  4.2012
  5934G12c C02P10192  -0.109  12.712   4.876 -1.0354  0.2310 -0.0463
  5934G12c H01K10193  -0.006  12.680   4.865 -0.2254  3.4091 -2.7452
  5934G12c H01J10194  -0.080  12.797   4.814 -2.3875 -2.0875 -4.0654
  5934G12c O00H10195  -0.089  12.728   5.012  0.4147 -1.1857 -1.1662
  5934G12c H01I10196  -0.107  12.661   5.077  7.8541 -2.3491  0.1143
  5934G12c C02H10197  -0.361  12.333   4.840 -1.1394  0.0980 -1.0821
  5934G12c H01C10198  -0.375  12.364   4.943 -0.5027  2.0688 -1.5825
  5934G12c C02L10199  -0.371  12.188   4.806  1.1678  1.1207  0.7662
  5934G12c H01D10200  -0.367  12.104   4.874 -3.9365  0.8411  0.9748
  5934G12c C01310201  -0.025  11.636   4.814 -0.4868  1.7028  0.0373
  5934G12c H00010202   0.040  11.721   4.804  2.1347  0.0381  2.0287
  5934G12c C01410203   0.041  11.524   4.871 -0.8575 -0.2475  1.6044
  5934G12c C00F10204   0.184  11.528   4.884  1.1046 -1.1837 -0.1282
  5934G12c C00H10205   0.163  11.345   5.036  0.5263  0.0361 -0.7715
  5934G12c C00I10206   0.205  11.243   5.126 -0.1166  0.0158  0.5044
  5934G12c C00J10207   0.119  11.141   5.180 -0.3031  1.5199  0.4659
  5934G12c C00Z10208  -0.207  11.253   4.846  1.3314  0.8343 -0.8242
  5934G12c C00Y10209  -0.317  11.209   4.782 -0.9137 -0.6620 -0.2398
  5934G12c H00610210  -0.387  11.288   4.757 -0.2757 -0.1718 -0.4724
  5934G12c C00X10211  -0.349  11.078   4.758  0.1248  0.7121  0.3846
  5934G12c O00310212  -0.455  11.034   4.671  0.5141  0.8809 -1.2786
  5934G12c C01B10213  -0.579  11.053   4.727 -1.6775 -0.5307 -0.9914
  5934G12c H00910214  -0.578  11.092   4.828  2.7772  2.1328 -1.9364
  5934G12c H00810215  -0.653  10.973   4.733 -0.3950 -1.6468  0.1532
  5934G12c H00710216  -0.631  11.119   4.657  2.0494 -0.2861 -3.6938
  5934G12c C00W10217  -0.241  10.993   4.788  1.2856 -2.3687  0.5080
  5934G12c O00410218  -0.252  10.863   4.760 -1.2249  0.6019  1.0018
  5934G12c C01C10219  -0.148  10.768   4.773  0.6153  1.1575 -0.1294
  5934G12c H00A10220  -0.111  10.690   4.708  3.3225 -0.7392  3.5066
  5934G12c C00P10221  -0.057  10.805   4.872 -0.4103  1.4644 -0.5272
  5934G12c C00O10222   0.047  10.701   4.894  1.2183 -0.0744  0.6821
  5934G12c C01D10223   0.111  10.658   4.773 -1.3592 -1.0339  1.4492
  5934G12c H00S10224   0.095  10.678   4.668  2.2832 -0.9634  0.8458
  5934G12c C01E10225   0.226  10.579   4.792 -1.5043  0.7113 -0.1390
  5934G12c O00810226   0.294  10.531   4.689 -1.1742 -0.7116 -0.6712
  5934G12c C01V10227   0.333  10.613   4.579 -0.8054  1.0596 -1.4169
  5934G12c C01Z10228   0.324  10.563   4.443  1.0063  1.5151 -0.0411
  5934G12c H00R10229   0.317  10.656   4.386  3.8783  1.6928 -0.1873
  5934G12c H00Q10230   0.424  10.526   4.421  0.9761 -0.2462  2.6915
  5934G12c O00910231   0.232  10.450   4.467 -0.6675  0.3059  1.5403
  5934G12c H00P10232   0.260  10.448   4.557  2.1989  0.4711  0.7013
  5934G12c C01W10233   0.426  10.702   4.626 -0.0766  2.3745 -0.0696
  5934G12c H00O10234   0.440  10.692   4.733 -6.5087 -7.1220  0.5166
  5934G12c C01X10235   0.487  10.816   4.539 -1.8244  0.1085  1.4661
  5934G12c H00N10236   0.541  10.885   4.604 -4.2282  2.8702  0.6522
  5934G12c H00M10237   0.540  10.753   4.467 -3.6927  1.8827 -1.5597
  5934G12c C01Y10238   0.417  10.928   4.478  0.0766 -0.5240  1.7313
  5934G12c C02D10239   0.476  10.990   4.358 -0.0637 -1.2055  0.7508
  5934G12c H01910240   0.565  10.961   4.303 -0.9260  2.6013 -2.9669
  5934G12c C02C10241   0.416  11.112   4.298 -0.9960  0.4354  0.9631
  5934G12c H01A10242   0.448  11.158   4.205 -0.3341 -5.0783 -1.7530
  5934G12c C02B10243   0.287  11.138   4.340 -0.6132  0.2064 -1.1403
  5934G12c O00E10244   0.222  11.236   4.288  0.2241 -1.9410  1.0518
  5934G12c H01B10245   0.214  11.310   4.346 -0.8447 -0.0957 -1.3322
  5934G12c C02F10246   0.239  11.100   4.465 -0.7509  1.8247 -2.4288
  5934G12c O00F10247   0.138  11.171   4.510 -1.0015 -0.3633 -0.2144
  5934G12c C02G10248   0.057  11.082   4.590 -1.1696 -0.4641 -0.1560
  5934G12c H01710249   0.051  10.973   4.578 -2.6385 -0.2007 -2.2920
  5934G12c H01610250   0.045  11.105   4.695 -2.7234  0.9894 -0.6224
  5934G12c H01510251  -0.050  11.102   4.583 -0.3692  5.9351  2.6302
  5934G12c C02E10252   0.313  10.994   4.542 -2.1090 -1.2573  0.1880
  5934G12c H01810253   0.267  10.959   4.632  2.1419 -6.3781  0.6000
  5934G12c C01F10254   0.279  10.537   4.913  0.3724  0.0203 -1.8587
  5934G12c C01G10255   0.408  10.464   4.931 -0.4249  1.2235  1.5460
  5934G12c H00L10256   0.455  10.410   4.850 -2.9289 -0.7047  1.3151
  5934G12c C01H10257   0.491  10.518   5.025  0.7735  0.5234  0.1972
  5934G12c H00B10258   0.590  10.548   4.995  0.3553  4.2732  2.1755
  5934G12c C01I10259   0.435  10.586   5.145  0.9765 -0.3520 -0.0381
  5934G12c C01U10260   0.211  10.578   5.035  0.0109 -0.2433  2.3884
  5934G12c C00S10261   0.002  11.110   5.091 -0.0229 -0.4359 -0.8825
  5934G12c C00K10262   0.183  11.012   5.189 -0.0350 -1.7126 -0.7960
  5934G12c C00N10263   0.111  10.686   5.013  0.2511  0.9385  0.6766
  5934G12c C00010264   0.291  10.595   5.149 -2.0441 -0.2965  0.1872
  5934G12c C01J10265   0.501  10.691   5.218  3.3241  1.5926  1.6779
  5934G12c C01K10266   0.635  10.699   5.235 -0.5815  0.9173 -1.1535
  5934G12c C01P10267   0.746  10.603   5.245  0.3575  0.8329 -0.7449
  5934G12c C01Q10268   0.741  10.468   5.323  1.1374  0.6541  0.0838
  5934G12c H00G10269   0.732  10.483   5.430 -6.2003  4.3552 -0.7892
  5934G12c C01R10270   0.733  10.348   5.273  0.4017 -1.0916  0.4521
  5934G12c H00F10271   0.747  10.281   5.356  1.2018 -1.8391 -0.2746
  5934G12c C01S10272   0.713  10.301   5.146  0.4330  0.5352 -0.6805
  5934G12c H00E10273   0.718  10.375   5.066  1.9941 -0.8237 -1.8429
  5934G12c H00D10274   0.783  10.219   5.134  1.3797 -0.8111  9.5107
  5934G12c O00510275   0.598  10.243   5.172  0.6990  0.8933  0.0740
  5934G12c H00C10276   0.598  10.275   5.261 -4.5123  7.0280 -1.7917
  5934G12c C01O10277   0.877  10.671   5.241  0.2939  2.1074  0.5298
  5934G12c H00H10278   0.963  10.608   5.223 -3.3887 -2.9746 -0.3632
  5934G12c C01N10279   0.916  10.799   5.231 -0.1008 -0.8373  0.7544
  5934G12c O00610280   1.059  10.832   5.223 -1.4741 -0.9657  0.1498
  5934G12c C01T10281   1.136  10.839   5.337 -1.0717 -1.5277  0.7680
  5934G12c H00K10282   1.237  10.822   5.298 -0.5194  3.8091 -0.4529
  5934G12c H00J10283   1.154  10.931   5.392  4.1875  0.0296 -3.1248
  5934G12c H00I10284   1.146  10.763   5.415 -2.0647 -2.8504 -0.3711
  5934G12c C01M10285   0.812  10.884   5.184  0.3938 -1.0635  1.7456
  5934G12c C02010286   0.329  11.025   5.230  1.0085  0.2370  0.0183
  5934G12c C02110287   0.396  11.152   5.240 -0.2853 -2.0908 -0.0942
  5934G12c C01L10288   0.679  10.831   5.198  0.7047 -0.2661  0.9190
  5934G12c O00710289   0.852  11.016   5.163  0.2098 -0.4886  0.3732
  5934G12c C02210290   0.528  11.168   5.188  0.9309  0.3995  0.5317
  5934G12c C02310291   0.342  11.263   5.166  2.5636  1.0687  1.7738
  5934G12c C00G10292   0.242  11.437   4.969 -0.2704 -0.1586 -0.1225
  5934G12c C00E10293   0.280  11.595   4.800  1.8577 -0.4019  2.3629
  5934G12c O00A10294   0.237  11.663   4.696 -1.2565 -0.8021 -1.4078
  5934G12c C02410295   0.205  11.587   4.584  1.6936  0.7007  0.8629
  5934G12c H00V10296   0.106  11.610   4.547  2.6656 -1.8644 -3.8313
  5934G12c H00U10297   0.277  11.607   4.504  1.1533 -0.7833 -0.0253
  5934G12c H00T10298   0.202  11.479   4.599  2.1841  0.5486 -0.0386
  5944G12c C00D10299   7.622   1.727   9.155 -0.0373 -0.0135  1.4626
  5944G12c O00B10300   7.733   1.674   9.092 -0.1178 -0.7049 -0.3942
  5944G12c C02510301   7.800   1.757   8.993  0.9456  0.4002  0.4518
  5944G12c C02610302   7.739   1.741   8.856  0.5941  1.4542 -0.1161
  5944G12c H00Y10303   7.787   1.789   8.770 -6.2567  1.7913 -4.0990
  5944G12c H00X10304   7.637   1.777   8.859  0.4004  0.8316  0.9233
  5944G12c O00C10305   7.766   1.599   8.838  0.1205  1.2732 -0.5173
  5944G12c H00W10306   7.688   1.559   8.875  2.2558 -3.2745 -0.5439
  5944G12c C02710307   7.909   1.840   9.028 -0.7670 -0.0238 -0.9645
  5944G12c O00D10308   7.944   1.801   9.160 -0.4522 -0.1719 -1.2968
  5944G12c H00Z10309   7.902   1.717   9.163 -0.1872 -0.3262 -2.0324
  5944G12c C02810310   7.990   1.930   8.937 -0.8693 -0.8550 -1.5500
  5944G12c C02910311   7.979   2.072   8.963 -2.4928  0.0669  1.0849
  5944G12c H01010312   7.904   2.121   9.023 -2.4341  4.0724 -1.9425
  5944G12c C02T10313   8.060   2.148   8.871  0.7338 -0.6504  0.8231
  5944G12c H01O10314   8.033   2.253   8.866  2.1180 -0.0727  3.9940
  5944G12c C02S10315   8.177   2.092   8.800  0.3409  0.0488 -1.1691
  5944G12c O00J10316   8.243   2.168   8.691 -0.1909  1.0413 -1.1617
  5944G12c H01P10317   8.336   2.155   8.689 -0.0278  1.1183  3.0118
  5944G12c C02R10318   8.199   1.953   8.812 -1.6308  0.6399 -0.4176
  5944G12c O00I10319   8.309   1.914   8.742 -0.9005  0.7782  0.6485
  5944G12c C02Q10320   8.361   1.768   8.741 -0.4004  0.0094  0.5570
  5944G12c H01N10321   8.444   1.737   8.677  0.1771  0.7214  0.9592
  5944G12c H01R10322   8.273   1.709   8.714 -1.1920  2.9793 -3.9535
  5944G12c H01Q10323   8.365   1.775   8.849 -0.0408 -1.4938  0.6579
  5944G12c C02A10324   8.116   1.879   8.888  1.3251  2.1365  0.8093
  5944G12c H01110325   8.145   1.780   8.920 -0.5008  0.0063 -3.7839
  5944G12c C00C10326   7.577   1.861   9.134  0.1954 -1.7273 -0.6693
  5944G12c H01210327   7.636   1.928   9.074  0.1953  0.3878  1.5976
  5944G12c C00B10328   7.465   1.904   9.186 -1.4494 -0.0995  0.4111
  5944G12c C00A10329   7.413   2.042   9.160 -0.1875 -1.9730 -0.1473
  5944G12c C00910330   7.478   2.180   9.157 -0.9712 -1.2736 -0.0821
  5944G12c C00810331   7.605   2.212   9.200 -1.2063 -0.2910  1.9585
  5944G12c H01310332   7.656   2.118   9.213 -1.1892 -0.4401  0.8961
  5944G12c C00710333   7.623   2.317   9.286  0.2180  0.3606  0.1794
  5944G12c H01410334   7.720   2.364   9.286  0.0042  0.8368 -0.9947
  5944G12c C00610335   7.523   2.403   9.332  0.6888  0.1585 -0.3210
  5944G12c C00510336   7.391   2.366   9.290 -1.5906 -1.2949  0.7058
  5944G12c C00410337   7.287   2.437   9.344 -0.0880  0.1995 -0.8165
  5944G12c C00310338   7.155   2.375   9.334  0.6486  0.1965  0.4758
  5944G12c C00210339   7.042   2.431   9.404 -0.3185 -0.3326  0.5265
  5944G12c C00110340   6.913   2.391   9.444  0.6469  0.0366  0.9648
  5944G12c C00M10341   6.879   2.256   9.454  1.0037 -0.1725  0.8676
  5944G12c C00L10342   6.922   2.138   9.386 -0.4766  0.0809  0.9894
  5944G12c C00R10343   6.911   2.003   9.430  1.1933 -0.8545 -0.2604
  5944G12c C00Q10344   6.845   1.947   9.538  0.9433  0.8345 -1.2410
  5944G12c C00V10345   6.836   1.799   9.508 -0.6023  0.1790  1.8260
  5944G12c C00U10346   6.922   1.723   9.423  1.1400 -0.5388 -0.6049
  5944G12c C00T10347   7.004   1.797   9.342  0.4612  0.5786  0.4103
  5944G12c C01610348   7.132   1.756   9.297  0.1236 -0.8030  0.7073
  5944G12c C01510349   7.162   1.617   9.315 -0.5999  0.8941  0.1043
  5944G12c C01010350   7.058   1.533   9.350 -2.0868  0.7621 -0.5256
  5944G12c C01110351   7.089   1.387   9.372 -0.1812  0.5710  0.9959
  5944G12c H00510352   7.025   1.310   9.413  0.1163  0.1595  0.6957
  5944G12c C01210353   7.222   1.344   9.320  0.4944  0.7700  0.0065
  5944G12c C01710354   7.249   1.206   9.302  0.6868  1.1826  0.1738
  5944G12c O00210355   7.367   1.165   9.373 -0.1084 -0.8943 -0.2296
  5944G12c H00410356   7.396   1.088   9.326  1.8375  0.8783 -1.9892
  5944G12c C01810357   7.154   1.122   9.234 -0.2912  0.4931 -0.1464
  5944G12c O00110358   7.062   1.188   9.173  0.7052 -0.3514 -0.9699
  5944G12c H00310359   7.077   1.208   9.082  3.8370  4.7370  0.4269
  5944G12c C01910360   7.185   0.970   9.209  1.4656 -0.1715 -1.6729
  5944G12c H00210361   7.161   0.907   9.295 -5.4322  3.9748 -0.2002
  5944G12c H00110362   7.263   0.968   9.133  1.1977 -0.9398 -1.9270
  5944G12c O00010363   7.087   0.920   9.126 -1.1088  0.0130 -1.6937
  5944G12c C01A10364   7.031   0.801   9.112 -0.5452  0.9439  0.6188
  5944G12c C02K10365   7.056   0.757   8.977  1.0915  1.3061 -1.2295
  5944G12c O00G10366   7.083   0.862   8.873  1.2767  0.3289  0.3832
  5944G12c C02M10367   7.201   0.832   8.825 -0.4292 -0.7662 -0.3225
  5944G12c H01G10368   7.273   0.773   8.881  2.1836  0.4585 -2.2606
  5944G12c H01F10369   7.246   0.930   8.844 -2.9289  0.4810 -0.6513
  5944G12c H01E10370   7.199   0.816   8.717 -5.7156 -2.6164 -0.0739
  5944G12c C02J10371   7.045   0.607   8.948  1.0280 -0.3789  0.2392
  5944G12c H01H10372   7.067   0.563   8.852  0.0857 -2.3573  0.9080
  5944G12c C02I10373   7.003   0.519   9.047 -1.4347  0.0064 -0.1911
  5944G12c C02N10374   7.025   0.369   9.033 -0.3240 -1.3658  1.2266
  5944G12c H01M10375   6.973   0.327   8.948 -4.2579  3.4769  0.9965
  5944G12c C02O10376   7.084   0.296   9.129  1.5585  0.5840 -1.6153
  5944G12c H01L10377   7.125   0.317   9.227  5.0893  0.9868 -3.1226
  5944G12c C02P10378   7.088   0.138   9.128  0.2743  0.1909 -1.7376
  5944G12c H01K10379   7.129   0.085   9.214 -0.8438  6.5669  3.1553
  5944G12c H01J10380   7.130   0.091   9.039 -3.8128  2.4143 -5.0499
  5944G12c O00H10381   6.966   0.087   9.106 -0.9584 -0.2871 -0.0642
  5944G12c H01I10382   6.914   0.164   9.089  1.5118  1.9671  1.9662
  5944G12c C02H10383   6.978   0.576   9.178 -1.5611 -0.0426  0.4493
  5944G12c H01C10384   6.950   0.502   9.251  0.7654 -3.7149 -2.2472
  5944G12c C02L10385   6.996   0.713   9.209 -0.4636  0.1000 -0.5623
  5944G12c H01D10386   6.961   0.749   9.305 -1.9156  0.8989 -1.3862
  5944G12c C01310387   7.322   1.437   9.276  2.3832  0.0569 -0.1689
  5944G12c H00010388   7.412   1.410   9.223  2.5454  3.9347 -2.0527
  5944G12c C01410389   7.293   1.573   9.283 -1.5226  2.3194  1.0159
  5944G12c C00F10390   7.396   1.676   9.243  0.9493 -1.5934  0.5836
  5944G12c C00H10391   7.233   1.846   9.247 -0.2806 -0.7181 -0.2685
  5944G12c C00I10392   7.184   1.975   9.206 -1.2242  0.0618 -0.8293
  5944G12c C00J10393   7.055   2.014   9.244  0.3482  1.2686  1.5790
  5944G12c C00Z10394   6.940   1.590   9.420  1.0334 -0.4228 -0.0192
  5944G12c C00Y10395   6.845   1.512   9.491  0.5533 -1.7264 -1.3462
  5944G12c H00610396   6.841   1.407   9.516 -4.6237 -0.8040  2.6862
  5944G12c C00X10397   6.749   1.586   9.573  0.1017  0.2797 -0.2303
  5944G12c O00310398   6.646   1.523   9.641  1.3274 -1.3928  0.0003
  5944G12c C01B10399   6.599   1.408   9.586  1.7510  0.3334  0.3863
  5944G12c H00910400   6.503   1.402   9.536  2.2437  1.0781 -0.6757
  5944G12c H00810401   6.553   1.345   9.662 -4.6111 -3.4447 -5.9632
  5944G12c H00710402   6.659   1.342   9.523 -2.7709  0.3290 -4.2078
  5944G12c C00W10403   6.748   1.721   9.578  1.3245 -0.1774  1.1727
  5944G12c O00410404   6.665   1.786   9.676  0.9491  1.0928  0.9150
  5944G12c C01C10405   6.698   1.918   9.726  2.5721 -1.5553 -0.2246
  5944G12c H00A10406   6.610   1.963   9.769  2.3277 -3.5428  1.4611
  5944G12c C00P10407   6.781   1.996   9.653  0.2818  2.0995 -0.2604
  5944G12c C00O10408   6.814   2.138   9.683  1.2289 -0.3791 -0.1103
  5944G12c C01D10409   6.837   2.165   9.825 -1.5619  0.3035  2.0374
  5944G12c H00S10410   6.845   2.095   9.907  0.9034  1.4719  2.8220
  5944G12c C01E10411   6.880   2.287   9.884 -2.0553  0.6788  0.4463
  5944G12c O00810412   6.906   2.291  10.019  0.0765 -0.0866 -0.7179
  5944G12c C01V10413   6.806   2.342  10.103  0.2057  0.6279 -1.4991
  5944G12c C01Z10414   6.853   2.477  10.161  0.5048 -0.1455  1.2812
  5944G12c H00R10415   6.929   2.487  10.084  0.4352  0.0455  1.2399
  5944G12c H00Q10416   6.759   2.533  10.162  1.6555  1.8173  1.0759
  5944G12c O00910417   6.902   2.473  10.289  0.7255 -0.9196 -0.4232
  5944G12c H00P10418   6.996   2.475  10.279  0.3661 -4.7432 -8.8369
  5944G12c C01W10419   6.687   2.287  10.128  0.3744  1.2910  0.5057
  5944G12c H00O10420   6.674   2.199  10.067  2.7205 -2.0706  4.6323
  5944G12c C01X10421   6.567   2.325  10.215  1.2144  1.1184  0.2396
  5944G12c H00N10422   6.585   2.421  10.264 -5.5992  3.4221 -1.1435
  5944G12c H00M10423   6.488   2.356  10.147  2.2533  7.8566  1.7074
  5944G12c C01Y10424   6.519   2.229  10.287 -1.0458  0.7706 -0.7380
  5944G12c C02D10425   6.604   2.205  10.404 -1.0651  1.1158 -1.3089
  5944G12c H01910426   6.678   2.272  10.445 -0.9621 -0.1949  0.7051
  5944G12c C02C10427   6.613   2.073  10.471  1.9594  0.6151 -0.9639
  5944G12c H01A10428   6.641   2.049  10.573  0.1514 -1.1366 -0.8513
  5944G12c C02B10429   6.510   1.971  10.426 -0.1928 -1.4842 -0.9935
  5944G12c O00E10430   6.465   1.852  10.486 -0.7548 -0.4545 -0.2631
  5944G12c H01B10431   6.393   1.808  10.443 -2.1405 -2.0705  3.4588
  5944G12c C02F10432   6.442   2.003  10.312 -1.4992  1.4836 -0.8639
  5944G12c O00F10433   6.362   1.902  10.265 -0.4545  0.5393 -1.4157
  5944G12c C02G10434   6.416   1.821  10.148  0.6663 -0.4334  0.7559
  5944G12c H01710435   6.455   1.892  10.075 -3.4621 -0.6220 -1.7468
  5944G12c H01610436   6.500   1.752  10.156  5.4309  4.7794 -1.1063
  5944G12c H01510437   6.342   1.747  10.118  0.0964  0.8747 -1.1500
  5944G12c C02E10438   6.441   2.115  10.243  0.6578 -1.0349 -3.0952
  5944G12c H01810439   6.381   2.136  10.156 -0.0728  0.6031 -2.2138
  5944G12c C01F10440   6.902   2.393   9.789 -0.0544  0.0104 -0.8537
  5944G12c C01G10441   6.972   2.512   9.825  0.1008  1.0989 -0.0208
  5944G12c H00L10442   7.026   2.523   9.917 -1.3354 -0.8802  1.0919
  5944G12c C01H10443   7.005   2.603   9.725 -0.6474  1.7580 -1.2905
  5944G12c H00B10444   7.064   2.678   9.776  3.8169 -3.5317  1.9548
  5944G12c C01I10445   6.990   2.545   9.596  1.0646 -0.4793  0.7046
  5944G12c C01U10446   6.851   2.372   9.665  1.1849 -0.6795 -2.3026
  5944G12c C00S10447   6.974   1.931   9.333  1.5046 -1.7004 -0.1766
  5944G12c C00K10448   7.035   2.146   9.300 -2.0116 -0.3220 -1.4014
  5944G12c C00N10449   6.856   2.238   9.596 -0.1002 -1.0052  0.6690
  5944G12c C00010450   6.881   2.460   9.567  1.6606 -1.3153  1.7559
  5944G12c C01J10451   7.076   2.546   9.480  0.5745  0.2603 -1.4702
  5944G12c C01K10452   7.207   2.626   9.485  0.3927  0.6133  0.5794
  5944G12c C01P10453   7.231   2.776   9.503  1.1268 -0.3408 -0.4646
  5944G12c C01Q10454   7.125   2.873   9.551  0.9124  0.7705 -0.2270
  5944G12c H00G10455   7.114   2.907   9.653  2.9342  1.6546 -0.2701
  5944G12c C01R10456   7.021   2.868   9.453  1.1019 -0.2307  0.8674
  5944G12c H00F10457   6.998   2.816   9.361  3.4049  3.9518 -2.2621
  5944G12c C01S10458   6.893   2.954   9.476  0.3240 -0.0541 -1.1109
  5944G12c H00E10459   6.848   2.905   9.563 -2.2007 -3.3691 -4.1032
  5944G12c H00D10460   6.904   3.061   9.464 -2.0832  1.4320  6.9088
  5944G12c O00510461   6.783   2.940   9.394 -1.0254  2.2639 -3.0396
  5944G12c H00C10462   6.810   2.977   9.312 -3.2434  0.7555 -4.5404
  5944G12c C01O10463   7.358   2.805   9.540 -0.7436  0.9673  1.3532
  5944G12c H00H10464   7.367   2.903   9.585  4.3954 -1.3310  5.7819
  5944G12c C01N10465   7.464   2.714   9.520  0.9584 -2.2859  1.1527
  5944G12c O00610466   7.579   2.771   9.569  0.6709 -0.3027 -0.4809
  5944G12c C01T10467   7.689   2.711   9.615  0.0591 -3.0896  1.6242
  5944G12c H00K10468   7.770   2.716   9.543 -0.6143 -3.9617  0.7812
  5944G12c H00J10469   7.713   2.745   9.715  4.1886 -0.9737  0.0383
  5944G12c H00I10470   7.656   2.607   9.606 -0.2041 -2.9480  0.8557
  5944G12c C01M10471   7.437   2.586   9.453 -1.1315 -1.3446  0.9750
  5944G12c C02010472   7.143   2.247   9.268 -1.4884  0.8571 -0.9142
  5944G12c C02110473   7.241   2.208   9.176  1.1548 -0.8537 -0.2426
  5944G12c C01L10474   7.310   2.543   9.423  0.2096  0.5938 -1.1700
  5944G12c O00710475   7.539   2.492   9.427  0.8875  0.3141  0.4680
  5944G12c C02210476   7.369   2.277   9.170 -2.9945  1.0105 -0.7351
  5944G12c C02310477   7.283   2.073   9.166 -0.4187 -0.1697 -2.8806
  5944G12c C00G10478   7.362   1.807   9.236  0.3483  2.2909 -0.2015
  5944G12c C00E10479   7.537   1.646   9.223  1.0974  0.8104 -1.0228
  5944G12c O00A10480   7.566   1.535   9.288 -0.4038  0.0730 -0.8367
  5944G12c C02410481   7.622   1.532   9.416  1.5647 -0.1432 -0.8202
  5944G12c H00V10482   7.527   1.521   9.468  0.7110  4.0730 -1.3121
  5944G12c H00U10483   7.671   1.437   9.435 -1.3154 -1.2946  1.3086
  5944G12c H00T10484   7.649   1.612   9.484 -3.2116  4.1041 -3.6073
  5954G12c C00D10485   1.035   7.360   5.431 -1.5868  0.1017  1.2005
  5954G12c O00B10486   1.118   7.297   5.338  0.2417 -0.1663  0.9066
  5954G12c C02510487   1.177   7.191   5.357 -1.3207  0.1833  0.5464
  5954G12c C02610488   1.110   7.069   5.326  0.4336 -1.3891  0.1561
  5954G12c H00Y10489   1.016   7.064   5.381  2.9423 -1.0145  4.7755
  5954G12c H00X10490   1.142   6.970   5.361  3.3283 -1.4427 -2.5362
  5954G12c O00C10491   1.088   7.075   5.191  0.0112  0.3844  0.5463
  5954G12c H00W10492   1.013   7.130   5.174 -1.7587 -2.4264 -1.0391
  5954G12c C02710493   1.309   7.197   5.403 -0.5927 -1.4114  1.7352
  5954G12c O00D10494   1.348   7.320   5.451  1.2363  0.8233  1.1045
  5954G12c H00Z10495   1.316   7.403   5.417 -1.5942 -0.8598 -0.5472
  5954G12c C02810496   1.364   7.077   5.434 -0.3412  1.6150  0.3938
  5954G12c C02910497   1.427   7.022   5.323 -0.1154  0.9842 -1.7037
  5954G12c H01010498   1.457   7.092   5.246 -5.6918  0.5677 -4.4854
  5954G12c C02T10499   1.506   6.899   5.332  0.6312 -0.9535  1.4042
  5954G12c H01O10500   1.590   6.883   5.265 -3.2136  3.5193 -5.0093
  5954G12c C02S10501   1.471   6.822   5.437  1.3406 -1.0058 -1.5518
  5954G12c O00J10502   1.531   6.712   5.486  0.1982  1.0768 -0.1915
  5954G12c H01P10503   1.516   6.686   5.576  3.0576  8.6667  2.9262
  5954G12c C02R10504   1.403   6.876   5.552  0.2289  0.4588  0.7076
  5954G12c O00I10505   1.340   6.793   5.657 -0.5857  0.7143  1.1508
  5954G12c C02Q10506   1.204   6.744   5.624 -0.5514 -0.6501  0.4919
  5954G12c H01N10507   1.150   6.829   5.582 -0.2400 -1.5365 -1.7485
  5954G12c H01R10508   1.207   6.665   5.549  5.9096 -1.4753  1.3273
  5954G12c H01Q10509   1.144   6.709   5.708 -3.7435  3.0306 -0.0717
  5954G12c C02A10510   1.356   6.996   5.549 -0.4746  0.6676  0.8997
  5954G12c H01110511   1.310   7.019   5.644 -2.7003 -0.6718  0.1824
  5954G12c C00C10512   1.016   7.290   5.558 -0.2526  2.5218  1.1699
  5954G12c H01210513   1.066   7.196   5.573 -1.4480  1.1232 -3.0346
  5954G12c C00B10514   0.953   7.356   5.668 -0.8694  1.3682 -1.2433
  5954G12c C00A10515   0.945   7.295   5.799 -1.3098 -0.5645 -0.9201
  5954G12c C00910516   0.933   7.164   5.860  1.5690 -1.0693  0.8170
  5954G12c C00810517   0.972   7.033   5.832 -2.6735  0.8447 -1.8439
  5954G12c H01310518   1.051   7.020   5.759 -0.8534  1.0141  0.0722
  5954G12c C00710519   0.938   6.918   5.898 -1.1734 -0.7344  0.2825
  5954G12c H01410520   0.954   6.812   5.887  1.1630 -1.1567  6.0827
  5954G12c C00610521   0.841   6.941   6.002 -0.6461  0.9375 -0.2074
  5954G12c C00510522   0.804   7.073   6.033  0.0254  0.6263  0.7278
  5954G12c C00410523   0.708   7.103   6.136  0.6479 -1.2727  0.2681
  5954G12c C00310524   0.675   7.244   6.163 -0.9479 -1.3240 -0.5200
  5954G12c C00210525   0.543   7.253   6.217 -0.0239  1.2706  1.6739
  5954G12c C00110526   0.474   7.373   6.271  0.7118  1.0288 -0.2184
  5954G12c C00M10527   0.451   7.488   6.187  0.8626 -0.1597  2.3028
  5954G12c C00L10528   0.553   7.539   6.109  1.6174 -0.0011  0.9300
  5954G12c C00R10529   0.529   7.650   6.024  1.0949 -0.8425  0.9264
  5954G12c C00Q10530   0.408   7.719   5.995  0.1549 -0.1107 -0.7306
  5954G12c C00V10531   0.425   7.793   5.885  0.1409  0.0390 -0.2612
  5954G12c C00U10532   0.522   7.774   5.784  0.2217 -1.2806 -0.5091
  5954G12c C00T10533   0.637   7.704   5.808  0.3486  0.9270 -0.8020
  5954G12c C01610534   0.720   7.640   5.725 -2.4738  0.9484  0.0344
  5954G12c C01510535   0.729   7.705   5.605 -0.6361 -0.2234 -0.1073
  5954G12c C01010536   0.624   7.781   5.558 -0.3731  0.8940  1.4577
  5954G12c C01110537   0.642   7.861   5.444  1.4314 -0.0451  1.2595
  5954G12c H00510538   0.583   7.945   5.410  0.4029 -1.9161 -1.8104
  5954G12c C01210539   0.738   7.833   5.335  1.9939 -2.6295 -1.1420
  5954G12c C01710540   0.746   7.873   5.205  1.5525 -2.0648 -0.4031
  5954G12c O00210541   0.611   7.895   5.166 -0.4588 -1.5245  0.1377
  5954G12c H00410542   0.558   7.817   5.170 -3.8958  0.3140 -4.1819
  5954G12c C01810543   0.871   7.887   5.138  0.0481  0.2358  1.1245
  5954G12c O00110544   0.990   7.845   5.179 -1.0877 -0.1894  0.6208
  5954G12c H00310545   0.972   7.882   5.264  5.1002  1.7929  1.3476
  5954G12c C01910546   0.857   7.949   4.995 -0.5349  0.9215  1.6846
  5954G12c H00210547   0.755   7.988   4.998 -0.4760  1.0789  1.6593
  5954G12c H00110548   0.852   7.876   4.914 -1.7982  3.4577 -0.6209
  5954G12c O00010549   0.944   8.065   4.986  1.1195  0.6441 -0.7275
  5954G12c C01A10550   0.926   8.116   4.858 -0.1142  1.0541  0.6781
  5954G12c C02K10551   0.883   8.235   4.815 -0.2392 -0.4579 -1.3319
  5954G12c O00G10552   0.863   8.308   4.933  1.6800 -0.2406 -0.1859
  5954G12c C02M10553   0.853   8.449   4.964  0.4231  0.1771  0.0646
  5954G12c H01G10554   0.872   8.474   5.069  2.1378 -0.3605 -0.1080
  5954G12c H01F10555   0.747   8.476   4.961  1.3718  5.3150  4.2461
  5954G12c H01E10556   0.880   8.504   4.874  1.5620  2.6972  1.8648
  5954G12c C02J10557   0.848   8.258   4.687  0.7378 -0.2408 -0.4032
  5954G12c H01H10558   0.816   8.361   4.687  2.3324  0.4591 -6.2197
  5954G12c C02I10559   0.850   8.162   4.589  0.2849  1.2624  0.2829
  5954G12c C02N10560   0.810   8.181   4.443 -0.5866  1.0741  0.8216
  5954G12c H01M10561   0.819   8.109   4.363 -0.6257  3.8492 -1.7767
  5954G12c C02O10562   0.750   8.301   4.412 -0.8473 -1.3524 -0.2207
  5954G12c H01L10563   0.760   8.370   4.494 -2.3133 -2.0893  0.5989
  5954G12c C02P10564   0.685   8.337   4.280 -0.3320  2.3685 -3.2938
  5954G12c H01K10565   0.581   8.370   4.289 -0.6213  0.5334  1.4740
  5954G12c H01J10566   0.741   8.407   4.219 -3.7097  6.5922 -1.8065
  5954G12c O00H10567   0.686   8.207   4.213 -0.2637 -0.2529 -0.6512
  5954G12c H01I10568   0.618   8.152   4.249 -2.8175  2.0949 -1.7475
  5954G12c C02H10569   0.932   8.046   4.606 -0.0126  1.3869  0.4965
  5954G12c H01C10570   0.955   7.990   4.517 -9.7993 -5.4244  1.4244
  5954G12c C02L10571   0.957   8.023   4.749  1.2822 -0.7643  1.4145
  5954G12c H01D10572   1.014   7.939   4.786  3.6948 -0.5517 -1.5971
  5954G12c C01310573   0.810   7.710   5.372  2.3635 -0.6664 -1.0288
  5954G12c H00010574   0.865   7.648   5.303 10.1572  4.2616  0.1855
  5954G12c C01410575   0.821   7.643   5.511  0.3625 -0.5875 -0.3688
  5954G12c C00F10576   0.906   7.538   5.530  1.7739 -0.7763  0.4308
  5954G12c C00H10577   0.819   7.546   5.767 -0.1921 -0.8968 -0.6236
  5954G12c C00I10578   0.839   7.509   5.900  1.0262  0.7363  0.4154
  5954G12c C00J10579   0.739   7.558   5.978 -0.3757  0.4104 -0.0833
  5954G12c C00Z10580   0.512   7.827   5.648 -0.9329 -0.4027  1.6297
  5954G12c C00Y10581   0.407   7.908   5.607 -0.4981  1.5154  0.8260
  5954G12c H00610582   0.412   7.928   5.501 -4.5369 -5.8274 -1.0877
  5954G12c C00X10583   0.314   7.938   5.710  0.4720 -1.2025  0.8371
  5954G12c O00310584   0.203   8.026   5.672  0.1383 -2.0639 -0.6189
  5954G12c C01B10585   0.145   8.066   5.544 -0.3868  0.8819  1.3221
  5954G12c H00910586   0.213   8.114   5.473 -0.2710 -0.7254  0.3347
  5954G12c H00810587   0.115   8.162   5.586  0.3862 -0.1563  4.3268
  5954G12c H00710588   0.062   8.020   5.491  2.2013 -0.3786 -1.8751
  5954G12c C00W10589   0.321   7.879   5.839  1.2003  0.0034 -0.6927
  5954G12c O00410590   0.204   7.904   5.913 -1.0468  0.9556 -0.4188
  5954G12c C01C10591   0.185   7.825   6.025  1.5643 -0.8482 -0.0515
  5954G12c H00A10592   0.084   7.837   6.059  1.6743  0.0283 -0.0078
  5954G12c C00P10593   0.282   7.724   6.057 -0.4895 -0.0721 -0.5878
  5954G12c C00O10594   0.229   7.611   6.113  1.6840 -0.0604 -0.0861
  5954G12c C01D10595   0.092   7.568   6.080 -0.6446  0.6176  0.1303
  5954G12c H00S10596   0.035   7.657   6.057  1.2970  1.6516 -0.9042
  5954G12c C01E10597   0.061   7.433   6.086 -0.1099 -1.3674 -2.6106
  5954G12c O00810598  -0.054   7.383   6.046 -0.1484 -0.2848  1.3420
  5954G12c C01V10599  -0.078   7.282   5.956  1.4845 -0.7701 -0.0266
  5954G12c C01Z10600  -0.231   7.274   5.949  2.7076  0.3725  2.2865
  5954G12c H00R10601  -0.264   7.171   5.959 -3.4119  1.7593 -1.3693
  5954G12c H00Q10602  -0.280   7.334   6.025 -0.9626 -0.0537  0.3748
  5954G12c O00910603  -0.278   7.361   5.849 -0.9320  0.6048 -0.3133
  5954G12c H00P10604  -0.288   7.331   5.760  4.7716  2.1181 -1.7030
  5954G12c C01W10605  -0.005   7.234   5.869 -1.3282 -0.0569  0.4504
  5954G12c H00O10606   0.100   7.250   5.887  0.1395 -2.5989 -4.8074
  5954G12c C01X10607  -0.041   7.149   5.741  0.8302 -0.4704 -0.4005
  5954G12c H00N10608   0.042   7.101   5.689  3.9834  1.8955  2.1851
  5954G12c H00M10609  -0.101   7.059   5.755  3.1820 -1.7223  2.2958
  5954G12c C01Y10610  -0.116   7.227   5.631 -1.3300  0.7370 -0.3061
  5954G12c C02D10611  -0.067   7.325   5.529 -0.0824  0.4061 -0.3100
  5954G12c H01910612   0.039   7.343   5.533  0.3049 -0.5866 -4.1853
  5954G12c C02C10613  -0.156   7.379   5.432  0.4512  1.2072  1.0171
  5954G12c H01A10614  -0.109   7.429   5.349 -2.8504 -0.2327 -1.8466
  5954G12c C02B10615  -0.294   7.337   5.435  1.1659  0.6074  0.6072
  5954G12c O00E10616  -0.363   7.367   5.320  0.0410  0.9616  0.3206
  5954G12c H01B10617  -0.403   7.286   5.291  4.2697 -1.5797  1.2600
  5954G12c C02F10618  -0.334   7.236   5.517  0.3607 -1.7358 -0.2334
  5954G12c O00F10619  -0.471   7.218   5.544 -0.6780  0.0832  0.2541
  5954G12c C02G10620  -0.548   7.103   5.468  0.6881  0.3335 -1.1664
  5954G12c H01710621  -0.469   7.068   5.401  5.3085  3.0604  2.5477
  5954G12c H01610622  -0.601   7.056   5.551  3.7661  4.1658  3.2587
  5954G12c H01510623  -0.636   7.152   5.425  1.7176  2.3734 -1.0217
  5954G12c C02E10624  -0.253   7.192   5.616 -0.2452 -1.0977 -0.3091
  5954G12c H01810625  -0.294   7.105   5.665  2.0045 -4.3688 -3.9763
  5954G12c C01F10626   0.146   7.340   6.166  1.8149 -0.0442 -1.2876
  5954G12c C01G10627   0.129   7.201   6.184  0.0897 -0.4514  0.0649
  5954G12c H00L10628   0.045   7.156   6.132  6.2445 -2.2250 -9.5257
  5954G12c C01H10629   0.226   7.112   6.244  0.7261  0.7390  0.1197
  5954G12c H00B10630   0.229   7.005   6.255  0.9349  1.2815  8.6303
  5954G12c C01I10631   0.341   7.179   6.301  0.2511 -0.1079  0.5453
  5954G12c C01U10632   0.252   7.390   6.236  0.5963 -0.3791 -0.1822
  5954G12c C00S10633   0.646   7.656   5.941  0.9779 -0.3800  0.0055
  5954G12c C00K10634   0.677   7.470   6.071 -2.2237 -1.5638 -0.2493
  5954G12c C00N10635   0.305   7.506   6.172 -0.9538  1.8233 -0.3965
  5954G12c C00010636   0.341   7.317   6.303  1.1351 -1.7764 -1.0713
  5954G12c C01J10637   0.458   7.133   6.235 -0.7361  2.6128 -1.2543
  5954G12c C01K10638   0.499   6.998   6.243 -0.3676  0.2756  0.3004
  5954G12c C01P10639   0.446   6.883   6.305 -0.3476  1.9612  0.4766
  5954G12c C01Q10640   0.341   6.877   6.409 -0.7051  0.5163  0.8940
  5954G12c H00G10641   0.310   6.971   6.451 -1.8473 -0.8094  3.1196
  5954G12c C01R10642   0.281   6.772   6.461 -1.0042  0.1096 -0.3724
  5954G12c H00F10643   0.286   6.669   6.428 -0.2625  1.3729 -4.3676
  5954G12c C01S10644   0.162   6.781   6.548  0.3773 -1.4932 -0.4685
  5954G12c H00E10645   0.120   6.881   6.537  0.4066 -1.6898 -2.5673
  5954G12c H00D10646   0.086   6.718   6.502  0.7281 -1.6908 -0.7739
  5954G12c O00510647   0.181   6.761   6.678 -0.2873 -0.7804  0.4601
  5954G12c H00C10648   0.266   6.785   6.713 -2.2334  0.7447  4.4765
  5954G12c C01O10649   0.528   6.770   6.325  0.4688  1.6786 -1.8890
  5954G12c H00H10650   0.494   6.685   6.383  2.3355 -2.3040 -6.2907
  5954G12c C01N10651   0.655   6.776   6.275  2.1804 -0.2922 -0.5487
  5954G12c O00610652   0.749   6.689   6.305  0.7598  1.0850 -0.4050
  5954G12c C01T10653   0.808   6.726   6.431 -0.3301  1.0338 -0.6366
  5954G12c H00K10654   0.820   6.649   6.506 -2.8517  2.4983  1.3570
  5954G12c H00J10655   0.755   6.796   6.495 -3.3365 -4.3552  3.0998
  5954G12c H00I10656   0.896   6.784   6.403  0.7992 -2.1336 -3.9610
  5954G12c C01M10657   0.681   6.858   6.159  0.6235 -0.4183  0.7029
  5954G12c C02010658   0.741   7.348   6.093 -0.5983 -0.4538  1.0979
  5954G12c C02110659   0.852   7.312   6.014  0.9271  0.8450 -1.5283
  5954G12c C01L10660   0.616   6.985   6.165 -1.0947  2.1941  0.5614
  5954G12c O00710661   0.785   6.834   6.067 -0.2993  1.1807  0.2260
  5954G12c C02210662   0.876   7.180   5.983  1.3217 -0.0066 -0.1050
  5954G12c C02310663   0.888   7.377   5.898  1.0020 -0.2498  0.5374
  5954G12c C00G10664   0.893   7.487   5.661 -2.2690  0.3912 -0.3381
  5954G12c C00E10665   0.994   7.499   5.422  1.3700  2.1188 -0.9421
  5954G12c O00A10666   1.075   7.583   5.339  0.9892 -0.0345 -0.8915
  5954G12c C02410667   1.201   7.600   5.399 -1.0006 -0.1176  1.2516
  5954G12c H00V10668   1.246   7.697   5.380 -6.5972  3.2739  3.9388
  5954G12c H00U10669   1.199   7.597   5.508 -3.8086  4.0899  1.4337
  5954G12c H00T10670   1.271   7.520   5.374 -1.8865 -1.4623  2.9765
  5964G12c C00D10671   1.663   8.035   6.818  0.8557  1.3439  2.2383
  5964G12c O00B10672   1.611   7.938   6.908  0.4391 -0.5045  0.6971
  5964G12c C02510673   1.574   7.983   7.044 -0.8083 -0.0911  1.1055
  5964G12c C02610674   1.615   7.890   7.145 -1.7378  1.9510 -0.0497
  5964G12c H00Y10675   1.564   7.798   7.172 -0.0619  0.3582 -2.1267
  5964G12c H00X10676   1.626   7.946   7.238  7.5033 -3.0694  2.5549
  5964G12c O00C10677   1.754   7.851   7.132  0.2547  0.0207 -1.8088
  5964G12c H00W10678   1.801   7.924   7.096  3.6857 -4.1434 -6.4400
  5964G12c C02710679   1.522   8.104   7.082  1.1587  1.9445  0.9524
  5964G12c O00D10680   1.468   8.173   6.980  0.6402 -0.3913 -0.6570
  5964G12c H00Z10681   1.438   8.118   6.909 -4.0293 -1.0914  1.7167
  5964G12c C02810682   1.458   8.124   7.214  0.8643 -1.2005 -0.4963
  5964G12c C02910683   1.330   8.072   7.260 -0.0779  1.3470  0.4766
  5964G12c H01010684   1.273   8.007   7.196 -0.8695  4.7220 -2.4177
  5964G12c C02T10685   1.268   8.115   7.376  0.9579  0.1412 -1.8822
  5964G12c H01O10686   1.173   8.065   7.378  0.0190  1.2732 -7.8806
  5964G12c C02S10687   1.332   8.204   7.461 -2.3883 -0.5078  1.0284
  5964G12c O00J10688   1.279   8.230   7.592  0.1861  0.1675 -0.0250
  5964G12c H01P10689   1.279   8.315   7.633 -1.1572  0.7274 -1.1384
  5964G12c C02R10690   1.442   8.285   7.409 -0.6517  0.0331 -0.3863
  5964G12c O00I10691   1.473   8.397   7.486 -0.9062 -0.1767  1.1345
  5964G12c C02Q10692   1.534   8.503   7.414 -0.4701  0.6056 -0.8089
  5964G12c H01N10693   1.640   8.486   7.398 -0.3873 -6.5794  4.7284
  5964G12c H01R10694   1.486   8.566   7.339  3.9415  2.4843 -2.1520
  5964G12c H01Q10695   1.523   8.571   7.498  2.4889 -4.9005  4.4341
  5964G12c C02A10696   1.498   8.240   7.279 -1.4020 -0.3896  0.5640
  5964G12c H01110697   1.606   8.247   7.282 -1.2552  0.3192 -3.5626
  5964G12c C00C10698   1.602   8.039   6.687  0.3987  0.0857  1.0825
  5964G12c H01210699   1.526   7.969   6.654 -0.7466  1.9661 -0.3432
  5964G12c C00B10700   1.630   8.152   6.596 -2.3790 -0.1334  1.3918
  5964G12c C00A10701   1.557   8.182   6.473 -0.6755  0.3740 -1.3537
  5964G12c C00910702   1.426   8.118   6.419 -0.1686  1.1139 -0.4452
  5964G12c C00810703   1.374   7.989   6.421 -1.1500  1.9452  1.0219
  5964G12c H01310704   1.340   7.956   6.518 -1.9455 -5.5868 -1.4730
  5964G12c C00710705   1.376   7.904   6.311 -1.1953  0.3478 -0.6306
  5964G12c H01410706   1.354   7.799   6.297  2.8994 -0.0292 -6.0477
  5964G12c C00610707   1.430   7.950   6.184  0.2308  0.9825  0.9959
  5964G12c C00510708   1.469   8.084   6.180 -2.2360 -0.3209  0.2321
  5964G12c C00410709   1.535   8.117   6.058  1.5156 -1.0064 -0.5311
  5964G12c C00310710   1.592   8.257   6.056  0.9559  0.0034 -0.2740
  5964G12c C00210711   1.632   8.292   5.927 -1.7108  0.5056 -0.1533
  5964G12c C00110712   1.717   8.403   5.877  0.0575  2.1401  0.5523
  5964G12c C00M10713   1.817   8.465   5.956 -1.9178 -1.3115  0.8085
  5964G12c C00L10714   1.804   8.509   6.090 -0.4381 -0.5720  1.4825
  5964G12c C00R10715   1.934   8.518   6.189 -0.5757  1.0580  1.5222
  5964G12c C00Q10716   2.085   8.515   6.159  0.3653  0.6295 -0.2650
  5964G12c C00V10717   2.152   8.517   6.285 -1.2558 -0.4575 -0.6211
  5964G12c C00U10718   2.098   8.505   6.422  0.2110  0.5146 -1.0132
  5964G12c C00T10719   1.970   8.458   6.431 -0.9984 -2.2350 -0.7081
  5964G12c C01610720   1.910   8.401   6.547 -0.3592 -0.7562  0.0811
  5964G12c C01510721   1.979   8.393   6.662 -0.9982  0.5771  1.6815
  5964G12c C01010722   2.107   8.479   6.662 -1.5913  1.5435 -0.9600
  5964G12c C01110723   2.194   8.461   6.766 -0.4403 -0.1544 -1.2255
  5964G12c H00510724   2.271   8.534   6.784 -5.7594  5.2869  1.4872
  5964G12c C01210725   2.159   8.366   6.859  0.0643  1.0375 -1.4188
  5964G12c C01710726   2.277   8.301   6.946 -0.4741 -3.0063  0.0645
  5964G12c O00210727   2.261   8.302   7.082  0.6872 -0.3364  0.1673
  5964G12c H00410728   2.349   8.286   7.113 -0.0293 -4.0736  0.5978
  5964G12c C01810729   2.393   8.272   6.886  0.4156  1.1483  0.7015
  5964G12c O00110730   2.406   8.252   6.745 -0.1663 -1.2088  0.5472
  5964G12c H00310731   2.488   8.260   6.699  0.7069  0.2482  2.3088
  5964G12c C01910732   2.518   8.250   6.965  1.3549  1.2059  0.0822
  5964G12c H00210733   2.531   8.331   7.037  5.7248  3.6376 -3.2094
  5964G12c H00110734   2.480   8.152   6.998  1.7033  2.4128  4.4477
  5964G12c O00010735   2.622   8.219   6.888  0.4615 -0.2836 -0.7888
  5964G12c C01A10736   2.691   8.100   6.919  0.0645  1.1268  0.9845
  5964G12c C02K10737   2.746   8.097   7.041  0.0940 -0.6833 -0.7126
  5964G12c O00G10738   2.682   8.147   7.152 -0.6049 -1.6604  0.7745
  5964G12c C02M10739   2.768   8.259   7.206  1.3344  2.0319  0.2093
  5964G12c H01G10740   2.820   8.327   7.139  4.2320 -0.0862  0.2513
  5964G12c H01F10741   2.834   8.206   7.274 -0.9746 -0.4776  0.6009
  5964G12c H01E10742   2.688   8.309   7.260  0.7387 -0.0078  1.2766
  5964G12c C02J10743   2.857   8.013   7.063 -0.7051 -0.3073 -1.0899
  5964G12c H01H10744   2.871   8.007   7.169  0.6613 -0.4648 -1.2696
  5964G12c C02I10745   2.934   7.963   6.954  1.8661 -0.4695  0.7541
  5964G12c C02N10746   3.048   7.874   6.983 -1.2189  0.7971  0.2992
  5964G12c H01M10747   3.048   7.842   7.086 -0.0663  6.7180  2.3795
  5964G12c C02O10748   3.147   7.811   6.907 -0.1500  0.3462  0.6265
  5964G12c H01L10749   3.126   7.813   6.801  3.1265 -1.8954 -0.1467
  5964G12c C02P10750   3.259   7.731   6.968  0.3569 -0.2779 -0.1892
  5964G12c H01K10751   3.336   7.720   6.891 -1.1131  0.5016 -1.7988
  5964G12c H01J10752   3.271   7.809   7.043  1.3344 -1.5147  0.9753
  5964G12c O00H10753   3.191   7.619   7.011 -0.6869  0.5357  0.7876
  5964G12c H01I10754   3.158   7.574   6.934 -4.6993  1.2102  1.9776
  5964G12c C02H10755   2.866   7.972   6.834  1.7394  0.0783  0.9677
  5964G12c H01C10756   2.880   7.902   6.753  1.0080 -6.6505  6.1910
  5964G12c C02L10757   2.737   8.029   6.809 -0.3433 -0.0048 -0.9512
  5964G12c H01D10758   2.673   8.018   6.723 -0.9340 -3.8109 -0.0929
  5964G12c C01310759   2.019   8.310   6.862 -1.2795  1.3421 -0.9918
  5964G12c H00010760   1.987   8.268   6.957 -3.0894  2.0348 -1.2795
  5964G12c C01410761   1.936   8.313   6.761 -0.6777 -1.0951 -1.3770
  5964G12c C00F10762   1.827   8.221   6.744  0.8294  0.9728  0.0057
  5964G12c C00H10763   1.784   8.338   6.529  0.3916 -1.1152 -0.0550
  5964G12c C00I10764   1.710   8.367   6.407 -1.0882  0.2384  0.1391
  5964G12c C00J10765   1.783   8.433   6.303  0.5240 -2.3189 -0.1182
  5964G12c C00Z10766   2.170   8.521   6.542  0.0639 -0.6630 -0.4407
  5964G12c C00Y10767   2.320   8.543   6.516  0.4292 -0.6270 -0.1925
  5964G12c H00610768   2.397   8.557   6.590  2.6913 -2.5895 -2.1061
  5964G12c C00X10769   2.364   8.580   6.391  0.5432 -0.2364 -0.6604
  5964G12c O00310770   2.485   8.618   6.357 -1.4187 -0.7071 -0.3640
  5964G12c C01B10771   2.572   8.701   6.430 -1.7500  0.1285 -0.5484
  5964G12c H00910772   2.530   8.791   6.384 -3.0244 -1.4013 -2.4738
  5964G12c H00810773   2.540   8.723   6.531 -2.9265 -2.8516 -0.2144
  5964G12c H00710774   2.663   8.663   6.385 -5.6184 -2.3869 -6.9961
  5964G12c C00W10775   2.279   8.568   6.273  1.2195 -0.6838 -0.2719
  5964G12c O00410776   2.333   8.596   6.142  0.4164 -0.3001 -1.0089
  5964G12c C01C10777   2.285   8.500   6.043  0.7063  1.7707  1.6999
  5964G12c H00A10778   2.352   8.417   6.023 -3.9795 -1.7846 -0.1943
  5964G12c C00P10779   2.141   8.505   6.027  0.1317  1.0008  0.7352
  5964G12c C00O10780   2.072   8.486   5.889 -1.0282  0.5112  0.3740
  5964G12c C01D10781   2.144   8.426   5.791  0.1015  0.2629 -1.2735
  5964G12c H00S10782   2.250   8.450   5.792  0.3344 -0.4360 -3.9769
  5964G12c C01E10783   2.121   8.338   5.689 -1.2527 -0.5220 -0.3883
  5964G12c O00810784   2.234   8.286   5.627  1.0419  0.0702 -0.5707
  5964G12c C01V10785   2.272   8.154   5.667 -1.2875 -2.1017  0.2224
  5964G12c C01Z10786   2.319   8.064   5.558  0.7165  0.8383  2.4075
  5964G12c H00R10787   2.336   8.119   5.465  0.5826 -1.4698  0.9971
  5964G12c H00Q10788   2.414   8.022   5.593 -1.5156 -5.1231  1.8166
  5964G12c O00910789   2.216   7.959   5.509  0.7153  0.1178  0.5820
  5964G12c H00P10790   2.209   7.941   5.417 -1.1957 -4.5105  1.4841
  5964G12c C01W10791   2.256   8.111   5.794  1.9709 -1.9438  1.0877
  5964G12c H00O10792   2.205   8.168   5.870  6.8491  2.4448  1.3514
  5964G12c C01X10793   2.265   7.973   5.834 -0.7880  1.8750  2.0080
  5964G12c H00N10794   2.161   7.976   5.866 -0.1857  1.8949  4.0356
  5964G12c H00M10795   2.304   7.902   5.762  5.1045  3.9009  2.9292
  5964G12c C01Y10796   2.339   8.004   5.960  0.7160 -0.3195 -1.6840
  5964G12c C02D10797   2.473   7.958   5.983  0.0589 -0.3612  0.0921
  5964G12c H01910798   2.510   7.934   5.885  2.7391 -3.9117  1.8426
  5964G12c C02C10799   2.547   7.976   6.099  1.2518  0.2506  0.0195
  5964G12c H01A10800   2.655   7.982   6.098  1.3557 -0.7460  1.8452
  5964G12c C02B10801   2.468   8.026   6.207 -1.2201 -0.7553 -2.1099
  5964G12c O00E10802   2.528   8.038   6.341 -0.1162  0.7961 -0.0494
  5964G12c H01B10803   2.456   8.054   6.401 -3.3821 -1.4174 -3.1323
  5964G12c C02F10804   2.334   8.061   6.206 -0.4055  1.2484 -0.6650
  5964G12c O00F10805   2.283   8.095   6.324  0.9506  0.0278 -0.8655
  5964G12c C02G10806   2.169   8.193   6.338 -0.1722  1.0664 -0.5294
  5964G12c H01710807   2.172   8.275   6.267  3.1545  3.8045  2.5722
  5964G12c H01610808   2.071   8.152   6.363  1.7147 -1.2864  3.5563
  5964G12c H01510809   2.218   8.214   6.433 -3.5415 -3.5659  2.4570
  5964G12c C02E10810   2.271   8.052   6.074 -0.8654  0.4809 -0.0449
  5964G12c H01810811   2.170   8.090   6.068 -2.0315 -2.7822 -1.7349
  5964G12c C01F10812   1.979   8.318   5.678  1.0839  1.1235  0.1836
  5964G12c C01G10813   1.937   8.204   5.606  0.3480 -0.5932  0.9938
  5964G12c H00L10814   2.028   8.156   5.572  0.5231  0.4939 -0.0941
  5964G12c C01H10815   1.801   8.148   5.633 -0.5619  0.3270  0.1614
  5964G12c H00B10816   1.763   8.052   5.599 -2.5177  1.5776 -1.3638
  5964G12c C01I10817   1.729   8.227   5.719  1.2370  0.3384  1.4585
  5964G12c C01U10818   1.896   8.405   5.748 -0.6020 -0.8052 -0.3503
  5964G12c C00S10819   1.893   8.506   6.327 -0.0474 -0.7720 -0.2696
  5964G12c C00K10820   1.726   8.428   6.179  0.2561 -0.0679  0.7460
  5964G12c C00N10821   1.934   8.457   5.878  0.2511  0.5293 -1.7757
  5964G12c C00010822   1.762   8.359   5.748  1.5646  1.6246 -0.5311
  5964G12c C01J10823   1.625   8.204   5.812 -0.3764 -1.3306  0.6225
  5964G12c C01K10824   1.562   8.082   5.808 -0.3030 -1.0376 -1.4939
  5964G12c C01P10825   1.523   8.004   5.698 -0.6146 -1.9163  2.5161
  5964G12c C01Q10826   1.523   8.076   5.569 -1.3857  0.9810 -0.6882
  5964G12c H00G10827   1.533   8.043   5.467 -3.2892  2.8225 -1.4941
  5964G12c C01R10828   1.502   8.212   5.568 -1.2936  0.1945  0.2158
  5964G12c H00F10829   1.486   8.291   5.639 -2.6445  1.8371 -1.8488
  5964G12c C01S10830   1.520   8.286   5.437 -0.3761 -1.4250 -0.9915
  5964G12c H00E10831   1.432   8.349   5.434 -1.9434 -3.5360 -0.4684
  5964G12c H00D10832   1.622   8.323   5.428  2.3274 -6.6177  4.3555
  5964G12c O00510833   1.505   8.220   5.318  0.2050  0.2328  0.9189
  5964G12c H00C10834   1.491   8.270   5.239 -4.6779 -3.2266 -0.6453
  5964G12c C01O10835   1.503   7.870   5.710  0.5469 -1.2465 -0.1633
  5964G12c H00H10836   1.470   7.820   5.620 -0.3359  3.5475 -2.6418
  5964G12c C01N10837   1.449   7.834   5.827 -0.0815  0.5012  1.5118
  5964G12c O00610838   1.385   7.717   5.853 -0.2119  0.0818  0.7846
  5964G12c C01T10839   1.305   7.665   5.740 -1.7760  1.3235  1.8860
  5964G12c H00K10840   1.319   7.688   5.634  2.3148  2.1748  2.5239
  5964G12c H00J10841   1.289   7.558   5.752 -3.7982  1.1884 -1.3678
  5964G12c H00I10842   1.197   7.672   5.753 -2.6259 -1.2451 -2.9471
  5964G12c C01M10843   1.467   7.907   5.955  0.3367 -0.5363  0.9853
  5964G12c C02010844   1.597   8.350   6.168  1.0545 -0.3365 -0.5969
  5964G12c C02110845   1.522   8.300   6.279  0.7058 -0.7139 -0.1197
  5964G12c C01L10846   1.526   8.038   5.940  0.9915  1.2457 -1.4573
  5964G12c O00710847   1.436   7.856   6.077 -0.3852 -0.6655 -0.4762
  5964G12c C02210848   1.452   8.178   6.290 -0.3458 -0.7672  0.9491
  5964G12c C02310849   1.587   8.294   6.403  1.0973  0.3712 -0.3861
  5964G12c C00G10850   1.742   8.236   6.629 -0.4906 -0.0285  1.4830
  5964G12c C00E10851   1.775   8.123   6.833 -0.5747  0.6743  0.7709
  5964G12c O00A10852   1.868   8.092   6.931  1.1759  1.7321  1.6163
  5964G12c C02410853   1.926   7.945   6.933 -1.0869 -0.1815 -0.8011
  5964G12c H00V10854   1.981   7.954   7.026  5.5225 -1.6288 -4.2755
  5964G12c H00U10855   2.005   7.952   6.858 -2.5867  2.1322 -2.2416
  5964G12c H00T10856   1.863   7.867   6.891 -2.8748 -0.4953  2.3123
  5974G12c C00D10857   2.561   3.665   8.467  1.5052 -1.5965 -1.4295
  5974G12c O00B10858   2.587   3.796   8.516  0.7072  1.6988  0.0314
  5974G12c C02510859   2.721   3.835   8.463 -0.7009 -0.2184  0.1578
  5974G12c C02610860   2.736   3.875   8.309  0.3531  0.2075  0.7788
  5974G12c H00Y10861   2.767   3.780   8.265  4.5040  3.1306 -3.0260
  5974G12c H00X10862   2.823   3.938   8.291 -1.5314  3.6787  3.2809
  5974G12c O00C10863   2.613   3.911   8.254  0.9749  0.8007 -1.6948
  5974G12c H00W10864   2.575   3.838   8.207-11.0322  5.3283 -0.6591
  5974G12c C02710865   2.814   3.823   8.562  0.7016 -0.6646 -1.1247
  5974G12c O00D10866   2.790   3.770   8.688 -0.7976 -1.3610  0.9148
  5974G12c H00Z10867   2.702   3.773   8.722 -0.3989 -5.2993  2.6229
  5974G12c C02810868   2.953   3.839   8.540 -0.7324 -0.4888 -0.5782
  5974G12c C02910869   3.053   3.743   8.561  0.7966 -0.1390  0.9361
  5974G12c H01010870   3.030   3.654   8.618  3.3242  0.1566  2.5081
  5974G12c C02T10871   3.185   3.754   8.519 -0.1249  0.2436  0.1379
  5974G12c H01O10872   3.271   3.691   8.534  3.0103  2.8103 -5.5606
  5974G12c C02S10873   3.216   3.891   8.466  0.7266  1.6968 -0.8020
  5974G12c O00J10874   3.347   3.920   8.437  0.9005  0.2236  0.8604
  5974G12c H01P10875   3.343   3.996   8.381 -0.2883  0.3354  1.0760
  5974G12c C02R10876   3.122   3.998   8.459 -0.2715 -2.7029 -1.3775
  5974G12c O00I10877   3.137   4.132   8.405 -0.3433  0.4701 -0.6307
  5974G12c C02Q10878   3.189   4.228   8.486 -0.0310 -1.1172  1.0985
  5974G12c H01N10879   3.273   4.286   8.449  2.0156 -2.2425  3.7755
  5974G12c H01R10880   3.209   4.211   8.592 -2.7444 -0.6016  1.7335
  5974G12c H01Q10881   3.113   4.301   8.515 -2.2274 -2.8692 -0.0167
  5974G12c C02A10882   2.989   3.963   8.495 -1.5357 -1.4822 -0.3969
  5974G12c H01110883   2.918   4.035   8.458 -2.6852 -3.6410 -2.5337
  5974G12c C00C10884   2.651   3.575   8.399  0.4218 -0.0702 -0.6578
  5974G12c H01210885   2.749   3.620   8.409 -1.3732  3.6937  0.8574
  5974G12c C00B10886   2.610   3.443   8.379 -0.1816  1.2863  1.4468
  5974G12c C00A10887   2.687   3.328   8.344  0.5392  1.0664  1.8503
  5974G12c C00910888   2.822   3.326   8.285 -0.0721  0.7199  0.5142
  5974G12c C00810889   2.933   3.417   8.265 -1.0200 -0.5778  0.3538
  5974G12c H01310890   2.946   3.518   8.302  1.1137 -0.6102 -0.2582
  5974G12c C00710891   3.044   3.375   8.177 -0.9144 -2.0098 -0.0252
  5974G12c H01410892   3.127   3.444   8.164  3.9105 -7.1354  1.4195
  5974G12c C00610893   3.029   3.245   8.120  1.1579 -0.2754  0.7331
  5974G12c C00510894   2.926   3.155   8.148  0.2452  0.0897 -0.2213
  5974G12c C00410895   2.876   3.056   8.065 -0.5122 -2.0787 -0.6750
  5974G12c C00310896   2.767   2.996   8.092 -1.4435  1.2031  0.2413
  5974G12c C00210897   2.719   2.888   7.997  1.0420 -0.0341  0.6828
  5974G12c C00110898   2.624   2.780   8.002 -0.0598 -1.1460 -0.9991
  5974G12c C00M10899   2.489   2.822   8.021  1.7949  0.7159  1.4697
  5974G12c C00L10900   2.442   2.921   8.086  1.7355 -0.8490 -0.2252
  5974G12c C00R10901   2.313   2.962   8.125  0.6099  0.5472 -1.5028
  5974G12c C00Q10902   2.186   2.935   8.059 -0.4315 -1.9826  2.4538
  5974G12c C00V10903   2.086   3.030   8.108  0.3397 -1.0364 -0.6197
  5974G12c C00U10904   2.113   3.144   8.197  1.5609  0.2902  0.3484
  5974G12c C00T10905   2.226   3.156   8.249 -2.4519  1.1087 -0.0689
  5974G12c C01610906   2.275   3.281   8.316  0.1115 -0.0948  0.4388
  5974G12c C01510907   2.190   3.378   8.354 -1.4573 -1.7234  0.5006
  5974G12c C01010908   2.057   3.362   8.312 -0.3969  0.0409 -0.3259
  5974G12c C01110909   1.958   3.456   8.372 -1.2739  0.4677 -0.3863
  5974G12c H00510910   1.856   3.437   8.343 -1.8923  2.8740  0.1287
  5974G12c C01210911   2.006   3.562   8.461  0.2502 -1.1399  1.2056
  5974G12c C01710912   1.897   3.631   8.518  0.5684 -0.1480  0.6471
  5974G12c O00210913   1.885   3.577   8.638  0.4424  1.8301  1.1224
  5974G12c H00410914   1.868   3.487   8.658  0.6109  0.1676 -5.0792
  5974G12c C01810915   1.870   3.750   8.462 -1.0440 -0.1280 -0.0383
  5974G12c O00110916   1.900   3.773   8.331  0.6037 -0.3570 -1.1656
  5974G12c H00310917   1.893   3.700   8.271  3.9625 -1.3501 -0.4670
  5974G12c C01910918   1.782   3.851   8.528  1.0053 -1.0273 -0.9330
  5974G12c H00210919   1.824   3.951   8.533 -3.9694  1.3055 -2.0743
  5974G12c H00110920   1.711   3.866   8.447 -0.7720  1.5222  0.9820
  5974G12c O00010921   1.742   3.795   8.657  1.2416  0.5605 -0.2516
  5974G12c C01A10922   1.631   3.715   8.655 -0.2312  0.8642 -0.2840
  5974G12c C02K10923   1.570   3.686   8.785  0.3849  0.0657 -1.3461
  5974G12c O00G10924   1.610   3.763   8.899 -0.6432 -0.5539 -0.1202
  5974G12c C02M10925   1.560   3.898   8.926 -0.6165  0.7061  0.0453
  5974G12c H01G10926   1.489   3.926   8.849  3.2868 -5.0288 -6.1796
  5974G12c H01F10927   1.632   3.978   8.947  1.3221 -0.5254 -1.7487
  5974G12c H01E10928   1.499   3.885   9.016 -0.4229  2.2732  0.4308
  5974G12c C02J10929   1.467   3.599   8.780  0.4994  0.0621 -1.6311
  5974G12c H01H10930   1.412   3.581   8.871  2.3768  1.9500 -0.0529
  5974G12c C02I10931   1.425   3.515   8.675 -0.6562 -0.3275 -0.5981
  5974G12c C02N10932   1.318   3.415   8.715  0.7578 -1.4286 -0.6888
  5974G12c H01M10933   1.277   3.436   8.813 -5.5161 -0.0014 -3.4122
  5974G12c C02O10934   1.243   3.336   8.631  0.6341  1.3761  0.6891
  5974G12c H01L10935   1.275   3.348   8.529  3.3649  2.6974  1.6578
  5974G12c C02P10936   1.139   3.250   8.701 -0.6463 -1.1789 -0.5592
  5974G12c H01K10937   1.155   3.145   8.678 -1.6741 -0.8937 -2.7026
  5974G12c H01J10938   1.103   3.294   8.795 -0.0314  1.0073 -1.3192
  5974G12c O00H10939   1.030   3.273   8.623  0.9647 -1.0177 -0.4063
  5974G12c H01I10940   0.947   3.245   8.659  1.2524 -2.5746 -0.9555
  5974G12c C02H10941   1.476   3.559   8.550  1.5705 -0.7142  2.2709
  5974G12c H01C10942   1.449   3.524   8.451 -2.8598 -3.3356  4.2610
  5974G12c C02L10943   1.595   3.639   8.541 -0.7191  0.2176  0.7428
  5974G12c H01D10944   1.603   3.655   8.435 -4.8385 -3.8054 -0.3454
  5974G12c C01310945   2.143   3.550   8.498 -0.6946  0.7810  0.4704
  5974G12c H00010946   2.157   3.611   8.586  0.7377  0.8254  0.2256
  5974G12c C01410947   2.242   3.480   8.422  1.1200 -0.7889 -2.1494
  5974G12c C00F10948   2.383   3.507   8.411  0.2009  0.5802 -0.0808
  5974G12c C00H10949   2.415   3.289   8.353  0.2865  1.4325 -1.8571
  5974G12c C00I10950   2.504   3.189   8.316  1.3775 -0.5011 -0.7339
  5974G12c C00J10951   2.455   3.083   8.242  0.5887 -0.0251 -1.2832
  5974G12c C00Z10952   2.021   3.249   8.228  0.7196  1.4585  0.4876
  5974G12c C00Y10953   1.882   3.221   8.184 -0.1702 -0.6830  1.4480
  5974G12c H00610954   1.789   3.244   8.235  0.5772  4.1081  0.8551
  5974G12c C00X10955   1.851   3.100   8.113  1.4357 -1.1677  0.0284
  5974G12c O00310956   1.715   3.106   8.067 -0.6539 -0.5820 -0.0251
  5974G12c C01B10957   1.603   3.073   8.171 -2.0333 -0.0550  1.4386
  5974G12c H00910958   1.518   3.038   8.112  4.1535 -5.7532 -5.0292
  5974G12c H00810959   1.587   3.165   8.227  2.4954 -0.3615  3.4309
  5974G12c H00710960   1.615   2.973   8.213 -6.3933 -0.5401  1.7888
  5974G12c C00W10961   1.956   3.011   8.075  0.3547  0.3145 -0.3164
  5974G12c O00410962   1.931   2.931   7.966 -0.1936 -1.0065  1.8358
  5974G12c C01C10963   2.029   2.853   7.897  1.6410  0.5415  1.0947
  5974G12c H00A10964   2.032   2.902   7.801  3.1916  2.6433  2.1778
  5974G12c C00P10965   2.157   2.829   7.960  0.8159  0.5050 -0.6406
  5974G12c C00O10966   2.264   2.764   7.883 -0.2888 -0.6915  1.6498
  5974G12c C01D10967   2.225   2.711   7.760  0.0109 -0.1660  2.2477
  5974G12c H00S10968   2.124   2.690   7.730 -0.0281  9.9956 -7.9130
  5974G12c C01E10969   2.335   2.700   7.660 -0.4533 -1.2421  0.3133
  5974G12c O00810970   2.276   2.673   7.534  0.0428 -0.6635 -0.7677
  5974G12c C01V10971   2.311   2.560   7.491  0.2498  0.2254 -0.5032
  5974G12c C01Z10972   2.289   2.439   7.585 -1.2912  0.2476 -0.5887
  5974G12c H00R10973   2.187   2.433   7.621 -2.2896  3.1750 -2.6853
  5974G12c H00Q10974   2.294   2.350   7.522 -1.2906  2.7050 -4.2490
  5974G12c O00910975   2.380   2.410   7.678  1.2885 -0.3888  0.0862
  5974G12c H00P10976   2.466   2.396   7.641 -0.0241 -2.1786 -2.4678
  5974G12c C01W10977   2.381   2.563   7.386 -0.5360 -0.5239  1.1864
  5974G12c H00O10978   2.409   2.637   7.312 -1.8286 -0.9927  0.2003
  5974G12c C01X10979   2.440   2.439   7.331 -1.7843  0.1764  0.9663
  5974G12c H00N10980   2.542   2.457   7.297 -0.4066  0.3496  4.9724
  5974G12c H00M10981   2.452   2.358   7.403 -2.5997 -0.9054 -0.0894
  5974G12c C01Y10982   2.354   2.365   7.209 -0.2474 -1.9478 -0.6882
  5974G12c C02D10983   2.332   2.440   7.095  1.1652  1.4074  1.3309
  5974G12c H01910984   2.386   2.529   7.064  3.1314  0.1327  1.0177
  5974G12c C02C10985   2.277   2.385   6.984  1.2975 -1.5699 -1.3376
  5974G12c H01A10986   2.261   2.434   6.889  3.1860 -1.2954 -1.5253
  5974G12c C02B10987   2.225   2.257   7.000  2.1310  1.0631 -0.9077
  5974G12c O00E10988   2.149   2.174   6.913  0.0499 -0.8644 -0.7719
  5974G12c H01B10989   2.132   2.095   6.962  2.8458 -0.2395  1.3200
  5974G12c C02F10990   2.245   2.169   7.114  0.9749  2.8831 -1.6910
  5974G12c O00F10991   2.199   2.038   7.126 -0.2339 -0.5545  0.4449
  5974G12c C02G10992   2.139   2.012   7.260  0.3696  0.1408 -1.3188
  5974G12c H01710993   2.051   2.073   7.281 -0.4391 -0.3743 -3.0723
  5974G12c H01610994   2.205   2.024   7.346 -0.6771 -8.2004  1.0938
  5974G12c H01510995   2.080   1.921   7.270 -1.3015  1.3873  0.2901
  5974G12c C02E10996   2.330   2.221   7.223 -0.6596  0.7906 -0.0652
  5974G12c H01810997   2.357   2.159   7.308  1.8955 -0.5978 -1.8119
  5974G12c C01F10998   2.475   2.710   7.693  0.4814  1.4277 -0.7050
  5974G12c C01G10999   2.568   2.740   7.598 -0.0314 -0.1828 -0.9797
  5974G12c H00L11000   2.551   2.742   7.491 -4.1056 -7.1928 -0.7662
  5974G12c C01H11001   2.694   2.787   7.655  0.4959 -1.4874 -0.6958
  5974G12c H00B11002   2.753   2.858   7.598  4.4210  0.7638  5.6169
  5974G12c C01I11003   2.723   2.798   7.791 -0.1599  0.1656 -1.2245
  5974G12c C01U11004   2.503   2.699   7.827 -1.6317 -0.2310 -0.8253
  5974G12c C00S11005   2.327   3.058   8.217 -0.1200 -0.9251 -0.2212
  5974G12c C00K11006   2.534   2.992   8.166 -0.5825 -0.5559  1.2672
  5974G12c C00N11007   2.408   2.752   7.915 -0.2562 -0.2908 -1.3432
  5974G12c C00011008   2.638   2.720   7.864 -1.9612  0.1606 -0.2554
  5974G12c C01J11009   2.797   2.871   7.888 -1.2952  1.3391 -1.3824
  5974G12c C01K11010   2.930   2.932   7.879 -0.1989  0.6095  1.0975
  5974G12c C01P11011   3.033   2.903   7.781 -0.5158  1.3901 -0.2633
  5974G12c C01Q11012   3.038   2.778   7.735  0.2057 -1.2616  0.1687
  5974G12c H00G11013   2.950   2.734   7.693 -5.5386  8.9187 -0.1159
  5974G12c C01R11014   3.137   2.711   7.774  0.4658  0.5347  0.8274
  5974G12c H00F11015   3.210   2.764   7.834 -2.3383  6.0381 -0.3252
  5974G12c C01S11016   3.171   2.562   7.762 -2.4141 -0.0023  0.1452
  5974G12c H00E11017   3.175   2.507   7.856 -7.2815 -1.6805 -0.4789
  5974G12c H00D11018   3.085   2.509   7.722 -2.1407 -0.8709  0.7045
  5974G12c O00511019   3.308   2.546   7.731 -0.5853 -0.6608 -0.9189
  5974G12c H00C11020   3.347   2.624   7.697 -6.2028  3.4706  1.2363
  5974G12c C01O11021   3.140   2.993   7.749  1.1426  0.4831  0.0002
  5974G12c H00H11022   3.223   2.940   7.705 -1.8800 -3.0605 -1.7382
  5974G12c C01N11023   3.188   3.096   7.846  1.0246  0.1759 -0.2230
  5974G12c O00611024   3.311   3.161   7.862  0.5478 -0.1458 -1.0590
  5974G12c C01T11025   3.429   3.066   7.872 -1.2230 -0.0055 -0.1886
  5974G12c H00K11026   3.420   2.974   7.814  0.5100 -0.7223  0.6297
  5974G12c H00J11027   3.415   3.010   7.964  0.3776  1.9299  1.2795
  5974G12c H00I11028   3.528   3.109   7.859 -3.1965  4.1426 -2.6630
  5974G12c C01M11029   3.077   3.117   7.934  0.1366  1.4958 -1.4904
  5974G12c C02011030   2.678   3.011   8.195 -0.0074  0.1110 -0.4587
  5974G12c C02111031   2.728   3.111   8.287  0.9156  0.4372  1.3714
  5974G12c C01L11032   2.953   3.044   7.945 -0.3615  0.0118  0.8631
  5974G12c O00711033   3.112   3.209   8.025 -0.7723  0.0279 -0.2520
  5974G12c C02211034   2.808   3.204   8.217  1.1253  0.9614 -0.3012
  5974G12c C02311035   2.634   3.199   8.362  0.4072  1.3850  0.8026
  5974G12c C00G11036   2.472   3.413   8.384 -1.3779  0.8230 -1.2074
  5974G12c C00E11037   2.425   3.637   8.458 -0.3051 -2.4672  0.1724
  5974G12c O00A11038   2.330   3.724   8.479 -0.7169 -0.9535  0.6169
  5974G12c C02411039   2.328   3.858   8.431 -1.3027  0.9274 -1.2424
  5974G12c H00V11040   2.225   3.864   8.467 -1.1905  1.8921 -1.0678
  5974G12c H00U11041   2.378   3.941   8.482  0.8497 -4.3352  6.1410
  5974G12c H00T11042   2.316   3.853   8.323  1.1320 -7.4375 -1.5001
  5984G12c C00D11043   8.667   8.493   9.849  0.4709 -0.1332  0.0918
  5984G12c O00B11044   8.747   8.530   9.954 -0.1583 -1.5429  1.0632
  5984G12c C02511045   8.728   8.527  10.097  0.1133  0.0037 -1.3534
  5984G12c C02611046   8.824   8.613  10.150 -2.1124  0.7100 -0.4384
  5984G12c H00Y11047   8.900   8.538  10.172 -1.4799  1.9696  1.8828
  5984G12c H00X11048   8.803   8.668  10.242 -3.3284  1.3764 -1.0944
  5984G12c O00C11049   8.898   8.690  10.070 -0.8608  0.0569 -0.8048
  5984G12c H00W11050   8.877   8.676   9.979  5.4884 -2.6609 -2.1622
  5984G12c C02711051   8.662   8.421  10.158  0.0988  0.1787 -0.8284
  5984G12c O00D11052   8.615   8.307  10.090 -0.1983 -1.2373  0.1011
  5984G12c H00Z11053   8.660   8.288  10.009  0.2810 -5.3717  1.2319
  5984G12c C02811054   8.631   8.428  10.294  1.1331 -1.9381  0.3946
  5984G12c C02911055   8.731   8.421  10.383 -0.4782 -0.1939  0.2016
  5984G12c H01011056   8.826   8.470  10.395 -1.2639  0.9392  1.9604
  5984G12c C02T11057   8.707   8.374  10.512 -2.0939 -0.4516  2.0858
  5984G12c H01O11058   8.795   8.359  10.574 -0.5987 -1.9725 -0.3216
  5984G12c C02S11059   8.583   8.350  10.572 -0.9476 -0.1088 -0.1513
  5984G12c O00J11060   8.559   8.333  10.705  1.4449  0.2440 -0.9180
  5984G12c H01P11061   8.601   8.396  10.761 -5.5485  1.9407  3.0574
  5984G12c C02R11062   8.467   8.383  10.483 -3.0631  1.3628  1.1403
  5984G12c O00I11063   8.340   8.377  10.511 -1.5290 -1.3016  0.3013
  5984G12c C02Q11064   8.310   8.503  10.569 -0.7355 -1.2534 -0.9089
  5984G12c H01N11065   8.376   8.519  10.654 -0.1212  4.1424 -2.1944
  5984G12c H01R11066   8.211   8.544  10.589  0.4936  0.5094  1.8718
  5984G12c H01Q11067   8.340   8.561  10.481  0.8790  2.2942  1.8104
  5984G12c C02A11068   8.508   8.390  10.344 -0.9415  0.3094  0.1295
  5984G12c H01111069   8.444   8.379  10.258 -1.8208 -1.5786  0.9947
  5984G12c C00C11070   8.529   8.517   9.854  0.5121 -1.2642  0.6664
  5984G12c H01211071   8.480   8.561   9.939  1.8078 -1.9640  1.7947
  5984G12c C00B11072   8.436   8.494   9.760  0.3299 -0.4344 -0.2259
  5984G12c C00A11073   8.280   8.514   9.772 -0.3045 -0.9043 -2.0206
  5984G12c C00911074   8.222   8.507   9.898  0.2199 -0.0876  0.0647
  5984G12c C00811075   8.271   8.455  10.008  0.0388 -0.4442 -0.0317
  5984G12c H01311076   8.364   8.487  10.052 -1.0076  5.1353 -1.4649
  5984G12c C00711077   8.166   8.406  10.094  2.5239  0.3912 -1.7327
  5984G12c H01411078   8.213   8.422  10.190 -1.0525 -2.6053  0.6293
  5984G12c C00611079   8.043   8.346  10.050 -1.0611 -1.3163  1.0969
  5984G12c C00511080   8.035   8.357   9.915 -1.6386  1.1828  2.7260
  5984G12c C00411081   7.932   8.288   9.861  0.4655  0.2548  2.2707
  5984G12c C00311082   7.917   8.287   9.716 -0.8884  0.7212  0.8788
  5984G12c C00211083   7.798   8.230   9.657  0.6340  0.2020  1.6715
  5984G12c C00111084   7.798   8.153   9.525 -1.2508 -0.1032  0.3095
  5984G12c C00M11085   7.892   8.116   9.430 -0.4072  1.3452  0.6080
  5984G12c C00L11086   7.993   8.218   9.394  0.1873  0.5185 -0.6274
  5984G12c C00R11087   8.121   8.168   9.345 -1.0130 -1.0271  1.1761
  5984G12c C00Q11088   8.150   8.051   9.262 -0.3108 -1.2639  0.2839
  5984G12c C00V11089   8.282   8.078   9.196 -0.2568  1.8765  0.0083
  5984G12c C00U11090   8.383   8.154   9.255 -1.2944 -0.7520 -0.8330
  5984G12c C00T11091   8.355   8.241   9.355 -1.5779  0.1399 -0.8810
  5984G12c C01611092   8.443   8.305   9.435  0.4684  1.0835  0.3097
  5984G12c C01511093   8.573   8.280   9.411  1.4235 -0.5416 -1.3072
  5984G12c C01011094   8.610   8.210   9.297 -0.0362  1.1282 -0.3877
  5984G12c C01111095   8.751   8.174   9.275 -0.8554 -0.5469  0.1987
  5984G12c H00511096   8.782   8.103   9.201 -0.0451  3.0475 -3.0773
  5984G12c C01211097   8.844   8.211   9.365 -0.7513 -0.8411 -1.8847
  5984G12c C01711098   8.988   8.167   9.385  0.0953  0.3515  0.3898
  5984G12c O00211099   8.994   8.108   9.510  0.7325  1.3410 -0.8751
  5984G12c H00411100   8.973   8.016   9.516 -5.0264  2.4737 10.4370
  5984G12c C01811101   9.061   8.148   9.281 -1.8839  0.9965  0.5991
  5984G12c O00111102   9.057   8.236   9.186 -1.6888 -0.9325  0.6004
  5984G12c H00311103   8.970   8.269   9.199 -1.2910  1.4435 -2.1710
  5984G12c C01911104   9.180   8.049   9.290  1.3411 -0.3164  0.0658
  5984G12c H00211105   9.200   8.010   9.190 -4.5691 -3.5548 -0.0782
  5984G12c H00111106   9.273   8.094   9.324 -1.0963  0.2514  6.7318
  5984G12c O00011107   9.177   7.961   9.392 -0.4441 -0.2945 -0.2889
  5984G12c C01A11108   9.216   7.829   9.367 -0.4147 -0.6772  2.0473
  5984G12c C02K11109   9.167   7.718   9.438  0.6991 -1.4536 -1.3922
  5984G12c O00G11110   9.084   7.725   9.546  0.4595 -0.1013  0.5218
  5984G12c C02M11111   9.179   7.715   9.664  1.8348 -0.2262  1.2094
  5984G12c H01G11112   9.244   7.634   9.697 -0.5812 -2.2134  1.2976
  5984G12c H01F11113   9.120   7.736   9.753 -2.7363 -4.1484 -0.6184
  5984G12c H01E11114   9.233   7.809   9.659  0.0411  1.1456  5.2624
  5984G12c C02J11115   9.187   7.586   9.386  0.4606  0.3338  0.8981
  5984G12c H01H11116   9.121   7.501   9.398  2.2998 -1.3364 -0.4366
  5984G12c C02I11117   9.291   7.551   9.317  0.2932 -0.2560  1.6383
  5984G12c C02N11118   9.353   7.428   9.321  0.7539 -0.2425  0.0850
  5984G12c H01M11119   9.372   7.379   9.227 -3.6764 -2.1971  0.0667
  5984G12c C02O11120   9.367   7.345   9.427  0.3316  0.7050 -1.1021
  5984G12c H01L11121   9.369   7.369   9.533  4.1865 -1.4287 -0.6025
  5984G12c C02P11122   9.460   7.220   9.411 -1.0227 -0.4052 -0.0329
  5984G12c H01K11123   9.404   7.135   9.372  0.8451 -0.2017 -3.3679
  5984G12c H01J11124   9.531   7.255   9.337 -0.0461 -4.8868 -1.3879
  5984G12c O00H11125   9.516   7.190   9.523  0.4603 -0.4040 -0.6808
  5984G12c H01I11126   9.604   7.165   9.502 -0.2053 -4.0558  0.4608
  5984G12c C02H11127   9.357   7.667   9.253 -0.5093  1.6232 -1.3426
  5984G12c H01C11128   9.462   7.678   9.231  0.5217  0.2534  2.5542
  5984G12c C02L11129   9.318   7.804   9.274 -0.5414 -0.9297  0.3865
  5984G12c H01D11130   9.409   7.855   9.249 -4.3926  5.9555 -0.9042
  5984G12c C01311131   8.803   8.300   9.464  1.0223 -0.5359 -2.5195
  5984G12c H00011132   8.884   8.353   9.512  0.8151 -1.6174 -0.9597
  5984G12c C01411133   8.668   8.330   9.497 -0.7358  1.0941  0.5878
  5984G12c C00F11134   8.628   8.402   9.608  0.2725  0.7779 -0.0950
  5984G12c C00H11135   8.386   8.387   9.533 -1.1508 -1.7569  1.6561
  5984G12c C00I11136   8.251   8.423   9.539 -0.4511  0.5366 -0.8932
  5984G12c C00J11137   8.169   8.338   9.466 -2.6564  0.0864  0.4085
  5984G12c C00Z11138   8.514   8.150   9.213 -0.6003 -1.0090 -0.5751
  5984G12c C00Y11139   8.541   8.069   9.100  1.9443  1.9725  2.0394
  5984G12c H00611140   8.645   8.048   9.078  2.3248  3.4014  2.3802
  5984G12c C00X11141   8.448   7.993   9.022  2.0500 -1.8572 -0.0267
  5984G12c O00311142   8.500   7.932   8.901 -1.0399  1.4575  0.4747
  5984G12c C01B11143   8.622   7.982   8.848  1.2412  0.6850 -2.6404
  5984G12c H00911144   8.684   7.949   8.931  0.8692 -1.8435 -3.3269
  5984G12c H00811145   8.636   8.090   8.834 -2.5886  0.7618 -7.1125
  5984G12c H00711146   8.666   7.965   8.750  3.1258 -2.6667 -1.2698
  5984G12c C00W11147   8.315   8.000   9.067 -3.0780  1.7157  0.5709
  5984G12c O00411148   8.219   7.913   9.019  1.4587 -0.7484 -0.9143
  5984G12c C01C11149   8.126   7.863   9.121 -0.5355  0.5278 -0.1511
  5984G12c H00A11150   8.138   7.756   9.110 -0.5490  0.9646 -5.9456
  5984G12c C00P11151   8.076   7.925   9.227 -0.4617  0.3862  0.7730
  5984G12c C00O11152   7.976   7.889   9.321  0.9626  0.1164  0.6080
  5984G12c C01D11153   7.943   7.748   9.333  0.8085  0.6939 -0.5507
  5984G12c H00S11154   8.018   7.686   9.287 -3.5874 -3.9586 -1.8454
  5984G12c C01E11155   7.867   7.698   9.444 -1.1265 -1.8644 -0.4738
  5984G12c O00811156   7.833   7.569   9.479  0.0070 -0.6391  0.6351
  5984G12c C01V11157   7.947   7.474   9.485  0.0499  0.4218 -0.2286
  5984G12c C01Z11158   8.047   7.508   9.603 -1.4815  0.5892  1.3483
  5984G12c H00R11159   8.141   7.455   9.593 -0.1505  2.8761  1.3900
  5984G12c H00Q11160   8.075   7.612   9.587  2.7242 -0.9734 -2.4449
  5984G12c O00911161   7.966   7.487   9.715  0.1090 -0.0575  1.6746
  5984G12c H00P11162   7.976   7.395   9.732  0.5196 -0.3740 -0.1960
  5984G12c C01W11163   7.955   7.369   9.394 -0.8760  1.3372  1.4810
  5984G12c H00O11164   7.873   7.395   9.329 -0.1428  3.4233  1.3751
  5984G12c C01X11165   8.052   7.264   9.377  2.6368 -1.4204  0.5766
  5984G12c H00N11166   8.044   7.256   9.269  6.5603  9.7373 -1.1987
  5984G12c H00M11167   8.145   7.316   9.401  2.5830 -1.8998  1.8854
  5984G12c C01Y11168   8.014   7.142   9.456  1.4929  0.5107  0.6448
  5984G12c C02D11169   7.981   7.150   9.593  0.9392  0.3257 -0.8212
  5984G12c H01911170   7.981   7.217   9.678 -2.1699 -5.8827  4.4966
  5984G12c C02C11171   7.924   7.022   9.638 -0.2554 -1.4048  0.0918
  5984G12c H01A11172   7.906   7.029   9.744  4.8382 -5.3003  1.4001
  5984G12c C02B11173   7.888   6.912   9.571 -0.5159  0.6797  0.9404
  5984G12c O00E11174   7.802   6.803   9.621 -0.3653  0.3619 -0.5728
  5984G12c H01B11175   7.799   6.741   9.550  0.7076  2.8374 -2.9000
  5984G12c C02F11176   7.941   6.894   9.435 -0.9396 -1.9759  0.4207
  5984G12c O00F11177   7.929   6.791   9.353 -0.6056  0.0321  0.9609
  5984G12c C02G11178   7.863   6.805   9.240 -2.4709 -1.7955 -0.4080
  5984G12c H01711179   7.807   6.719   9.202  3.5816 -7.8618  3.2080
  5984G12c H01611180   7.785   6.880   9.231 -3.1529 -2.6932 -2.3973
  5984G12c H01511181   7.937   6.832   9.165 -1.4260 -2.0303  0.5280
  5984G12c C02E11182   7.995   7.014   9.386 -0.5008  1.9476  0.0024
  5984G12c H01811183   7.977   7.019   9.279  2.8742  2.7390 -0.6133
  5984G12c C01F11184   7.798   7.795   9.524 -0.4630 -0.9144 -1.0576
  5984G12c C01G11185   7.749   7.755   9.645 -0.1948  0.1995  0.3327
  5984G12c H00L11186   7.754   7.651   9.673 -2.0552  1.1270  4.5686
  5984G12c C01H11187   7.713   7.856   9.740 -0.1230  0.3026  0.8223
  5984G12c H00B11188   7.693   7.803   9.832  0.1980  1.0413  1.3217
  5984G12c C01I11189   7.725   7.997   9.689  0.4130 -0.0231  0.1189
  5984G12c C01U11190   7.821   7.930   9.494 -0.7543  0.8054  2.5351
  5984G12c C00S11191   8.220   8.256   9.371 -1.0053  0.1060 -2.0747
  5984G12c C00K11192   8.040   8.307   9.500  0.8371 -0.3597 -0.5878
  5984G12c C00N11193   7.902   7.976   9.383  0.1823 -1.6028 -0.7926
  5984G12c C00011194   7.750   8.022   9.554  0.2461 -1.1554 -1.6442
  5984G12c C01J11195   7.720   8.137   9.734  2.8271  2.6535 -2.5620
  5984G12c C01K11196   7.725   8.138   9.884  0.7536 -0.1694  0.9596
  5984G12c C01P11197   7.617   8.110   9.980  0.3529 -0.3284  0.3056
  5984G12c C01Q11198   7.505   8.038   9.932 -0.2804  0.1792  0.0356
  5984G12c H00G11199   7.490   8.053   9.826 -4.5178  1.6812  0.7784
  5984G12c C01R11200   7.441   7.957  10.013 -0.1884 -0.1663 -0.4329
  5984G12c H00F11201   7.508   7.922  10.090 -3.1755  0.7802  2.7117
  5984G12c C01S11202   7.329   7.866   9.992  0.4350  1.2499 -0.1787
  5984G12c H00E11203   7.284   7.948  10.048 -2.7725  0.3965 -1.3927
  5984G12c H00D11204   7.306   7.851   9.886  7.0314  6.4433 -2.6850
  5984G12c O00511205   7.363   7.736  10.054 -0.4242 -0.2474 -0.8304
  5984G12c H00C11206   7.347   7.733  10.147 -5.0934  2.8634 -1.3276
  5984G12c C01O11207   7.640   8.144  10.119  1.0507 -1.1274  0.6322
  5984G12c H00H11208   7.546   8.131  10.170  1.3699  2.6769  2.3259
  5984G12c C01N11209   7.766   8.189  10.180 -2.3848 -0.4868  0.4903
  5984G12c O00611210   7.768   8.224  10.305  0.1200  1.0484 -1.4118
  5984G12c C01T11211   7.881   8.149  10.379  0.6619 -1.0577 -0.5694
  5984G12c H00K11212   7.944   8.089  10.313 -1.4968  2.8740 -6.6077
  5984G12c H00J11213   7.946   8.235  10.393 -1.8111  0.6188  1.0428
  5984G12c H00I11214   7.834   8.103  10.467  2.8294  1.0679  1.7705
  5984G12c C01M11215   7.860   8.205  10.083 -0.2134  0.5878  0.1789
  5984G12c C02011216   8.015   8.352   9.639  1.0053 -0.9212  0.4734
  5984G12c C02111217   8.090   8.448   9.708  0.7091 -0.4072 -0.7394
  5984G12c C01L11218   7.835   8.209   9.933  0.8409 -1.8986 -1.9443
  5984G12c O00711219   7.966   8.274  10.133 -1.9782  0.2759  0.4570
  5984G12c C02211220   8.097   8.464   9.849 -0.2669 -0.0571  3.6375
  5984G12c C02311221   8.199   8.509   9.649  1.6575  0.5738  0.4636
  5984G12c C00G11222   8.482   8.439   9.630 -1.0189 -1.1138 -0.2756
  5984G12c C00E11223   8.729   8.443   9.714 -1.7774 -0.7255  0.3543
  5984G12c O00A11224   8.851   8.379   9.723  0.2629  0.4500 -0.9461
  5984G12c C02411225   8.938   8.389   9.823  0.2748 -1.6768  0.6355
  5984G12c H00V11226   8.889   8.357   9.915  0.1077  1.9630  1.8630
  5984G12c H00U11227   9.025   8.325   9.832  5.6644  3.5466 -7.9387
  5984G12c H00T11228   8.968   8.493   9.823 -2.6735 -0.7593 -0.8558
  5994G12c C00D11229   0.754   7.726   1.953  0.1303 -1.0521 -0.0713
  5994G12c O00B11230   0.675   7.686   2.052  0.5053  1.7075  1.0175
  5994G12c C02511231   0.552   7.717   2.069  1.1955  0.1368  0.1813
  5994G12c C02611232   0.440   7.645   2.001 -0.7163  0.1045 -1.2089
  5994G12c H00Y11233   0.350   7.643   2.061 -2.1960  3.9237 -3.1304
  5994G12c H00X11234   0.466   7.542   2.028 -2.5639  0.4581  2.0441
  5994G12c O00C11235   0.430   7.668   1.848 -0.3958  2.0499 -0.7798
  5994G12c H00W11236   0.515   7.692   1.815 -0.4526  1.2617 -1.4987
  5994G12c C02711237   0.525   7.818   2.172 -0.3878 -3.0312  1.3628
  5994G12c O00D11238   0.633   7.894   2.233 -1.2687 -0.2057 -0.2826
  5994G12c H00Z11239   0.660   7.844   2.308 -5.6933 -1.5440  0.5604
  5994G12c C02811240   0.396   7.850   2.217  2.7092 -1.5953 -0.3051
  5994G12c C02911241   0.364   7.881   2.354 -0.2975 -1.8657 -0.7808
  5994G12c H01011242   0.445   7.898   2.423  0.1242  2.0201 -2.1296
  5994G12c C02T11243   0.230   7.891   2.391 -0.4797 -0.8514  1.4233
  5994G12c H01O11244   0.179   7.871   2.484 -7.1742  1.2622 -1.4546
  5994G12c C02S11245   0.139   7.948   2.293 -0.9177  1.9548 -1.2565
  5994G12c O00J11246   0.039   8.031   2.318 -0.9240  0.1184 -1.5688
  5994G12c H01P11247  -0.001   8.059   2.237  1.4645  1.5413 -2.2787
  5994G12c C02R11248   0.154   7.924   2.159  1.3345 -0.8517 -0.8787
  5994G12c O00I11249   0.085   8.001   2.052 -0.4162 -0.0951 -0.3104
  5994G12c C02Q11250   0.050   7.943   1.936  0.4941 -1.0775 -0.0153
  5994G12c H01N11251  -0.047   7.894   1.933  0.4018 -0.8507 -0.9014
  5994G12c H01R11252   0.037   8.008   1.850 -1.0504  0.8114  1.5891
  5994G12c H01Q11253   0.093   7.848   1.906 -1.6224 -0.3406 -5.9101
  5994G12c C02A11254   0.282   7.853   2.127  0.4729  2.4400 -0.5664
  5994G12c H01111255   0.309   7.848   2.023  1.3242 -2.0897 -0.2394
  5994G12c C00C11256   0.751   7.865   1.906  0.8094 -1.5404  0.8202
  5994G12c H01211257   0.658   7.921   1.905  0.8091 -1.5031  2.0131
  5994G12c C00B11258   0.856   7.934   1.855 -1.2193 -1.0445 -1.4007
  5994G12c C00A11259   0.875   8.074   1.852  0.1622 -0.8661 -0.6106
  5994G12c C00911260   0.751   8.172   1.828 -0.2952 -0.3978  1.4806
  5994G12c C00811261   0.614   8.183   1.854  1.0163  0.4120 -0.8940
  5994G12c H01311262   0.577   8.113   1.928  0.2833  0.0553 -1.5811
  5994G12c C00711263   0.523   8.256   1.763 -0.1140 -0.6655 -0.6102
  5994G12c H01411264   0.415   8.256   1.765 -0.1974  0.3876 -3.5610
  5994G12c C00611265   0.583   8.315   1.662  0.9002  1.3558  0.6304
  5994G12c C00511266   0.726   8.305   1.638  0.2392  1.5454  1.1607
  5994G12c C00411267   0.795   8.383   1.548  1.6180  0.1204  2.0442
  5994G12c C00311268   0.932   8.362   1.511  0.7227  1.2069  1.0002
  5994G12c C00211269   0.986   8.432   1.399  0.9078 -0.0533  1.6583
  5994G12c C00111270   1.108   8.410   1.330 -0.7741  0.4671 -0.1835
  5994G12c C00M11271   1.188   8.298   1.306 -0.1302  0.2598  0.6479
  5994G12c C00L11272   1.217   8.221   1.421  1.5808  0.3906  0.4596
  5994G12c C00R11273   1.259   8.082   1.417  0.5461  1.3286  0.3175
  5994G12c C00Q11274   1.284   7.997   1.307  0.8010  0.6333 -0.8014
  5994G12c C00V11275   1.303   7.849   1.341  1.4995 -0.0610  0.0690
  5994G12c C00U11276   1.254   7.798   1.465  0.1329 -1.1463  0.4584
  5994G12c C00T11277   1.188   7.878   1.543  1.1143  0.3543 -0.3505
  5994G12c C01611278   1.130   7.833   1.663  0.3281  0.5036 -0.9564
  5994G12c C01511279   1.132   7.697   1.687  1.5466 -1.6974  0.0973
  5994G12c C01011280   1.205   7.617   1.602 -0.8942  0.0860 -0.3252
  5994G12c C01111281   1.213   7.487   1.639 -1.2239 -1.0994 -0.0206
  5994G12c H00511282   1.263   7.403   1.591 -0.9359  1.0753 -3.6926
  5994G12c C01211283   1.158   7.426   1.751 -1.4200 -1.3669  0.5875
  5994G12c C01711284   1.186   7.294   1.807  0.9415 -0.0744  1.3344
  5994G12c O00211285   1.076   7.217   1.853 -0.9007  0.3835  0.6836
  5994G12c H00411286   1.062   7.142   1.796 -0.4794 -2.1289  3.7503
  5994G12c C01811287   1.306   7.265   1.863  0.7182  0.6979  1.2028
  5994G12c O00111288   1.418   7.336   1.844 -1.0944 -1.2697 -2.2871
  5994G12c H00311289   1.448   7.384   1.919 -0.5084  2.6994 -4.9208
  5994G12c C01911290   1.308   7.151   1.963 -0.0550 -0.5798 -1.0152
  5994G12c H00211291   1.415   7.136   1.978 -0.6537 -1.6732  2.4636
  5994G12c H00111292   1.263   7.167   2.061 -0.3239  4.2279 -1.7606
  5994G12c O00011293   1.265   7.051   1.870  0.9435  1.9883  0.2062
  5994G12c C01A11294   1.302   6.911   1.906  0.6333  1.3606 -0.7013
  5994G12c C02K11295   1.265   6.811   1.819  0.2695  1.3118  3.2379
  5994G12c O00G11296   1.176   6.850   1.717  0.9253  0.9133 -1.3286
  5994G12c C02M11297   1.083   6.750   1.683 -0.7947 -1.9008 -0.0344
  5994G12c H01G11298   1.085   6.755   1.574 -1.4729 -0.4130  0.0086
  5994G12c H01F11299   0.990   6.733   1.737  0.6478  4.9414  5.2208
  5994G12c H01E11300   1.104   6.643   1.689  5.4693 -1.1384 -3.6238
  5994G12c C02J11301   1.326   6.675   1.817 -1.6553 -0.2207  0.9490
  5994G12c H01H11302   1.288   6.590   1.762 -1.6789 -2.6080  4.4321
  5994G12c C02I11303   1.422   6.645   1.913  0.8446 -0.5135 -1.1582
  5994G12c C02N11304   1.429   6.503   1.938  0.1328 -0.6460  0.7073
  5994G12c H01M11305   1.466   6.420   1.880  1.3565  0.9117 -0.7695
  5994G12c C02O11306   1.414   6.470   2.062  0.3219 -0.4736 -0.5210
  5994G12c H01L11307   1.394   6.555   2.126  1.9616  0.7350 -1.5888
  5994G12c C02P11308   1.395   6.344   2.125 -0.0535  0.3729  1.8568
  5994G12c H01K11309   1.302   6.288   2.116  2.9885 -5.5704  4.4191
  5994G12c H01J11310   1.464   6.308   2.049 -3.1240  1.6704 -1.6531
  5994G12c O00H11311   1.457   6.345   2.245 -0.5748  0.0759 -0.5631
  5994G12c H01I11312   1.550   6.333   2.229 -1.1871  0.1756 -4.7610
  5994G12c C02H11313   1.451   6.748   2.007  1.5050 -0.1822  0.9303
  5994G12c H01C11314   1.521   6.723   2.085 -0.2061 -3.6829  1.4636
  5994G12c C02L11315   1.402   6.889   2.001 -1.6589 -0.1072  1.3272
  5994G12c H01D11316   1.409   6.952   2.089 -2.2450  2.3212 -0.3229
  5994G12c C01311317   1.068   7.509   1.819 -1.2115  0.1590  0.7864
  5994G12c H00011318   1.027   7.468   1.910  1.4151  0.5572  2.1799
  5994G12c C01411319   1.051   7.645   1.779  0.3037  1.6147  0.6309
  5994G12c C00F11320   0.963   7.711   1.837 -0.0540 -0.9629 -0.5126
  5994G12c C00H11321   1.073   7.924   1.751  0.3000 -1.9921 -0.4712
  5994G12c C00I11322   1.079   8.057   1.729  0.0680 -1.0793 -0.1592
  5994G12c C00J11323   1.166   8.106   1.624 -0.0600  0.5393 -0.9365
  5994G12c C00Z11324   1.267   7.662   1.491 -0.7846  0.4095  1.3183
  5994G12c C00Y11325   1.358   7.582   1.405  0.2511 -0.3625  0.8841
  5994G12c H00611326   1.334   7.476   1.405 -1.1089 -0.2064  5.6227
  5994G12c C00X11327   1.427   7.647   1.290 -0.9069  0.1890 -0.4311
  5994G12c O00311328   1.518   7.574   1.209  0.0182  0.9849  0.1451
  5994G12c C01B11329   1.655   7.569   1.254  0.0013 -0.3907  0.4185
  5994G12c H00911330   1.708   7.651   1.303 -0.8114 -1.4625  3.2018
  5994G12c H00811331   1.681   7.474   1.300  6.5396  2.3560  2.9775
  5994G12c H00711332   1.734   7.571   1.178 -1.7863 -4.8206 -1.7290
  5994G12c C00W11333   1.402   7.784   1.270  1.5125  0.6135 -0.8802
  5994G12c O00411334   1.458   7.836   1.166 -0.0228 -0.1755  0.1833
  5994G12c C01C11335   1.383   7.926   1.103 -1.0354 -1.5656  0.1364
  5994G12c H00A11336   1.372   7.907   0.997 -3.2649  2.8008 -0.5021
  5994G12c C00P11337   1.305   8.026   1.169 -0.9582  0.4883 -1.8096
  5994G12c C00O11338   1.236   8.133   1.103  1.4620 -0.1650 -1.5585
  5994G12c C01D11339   1.188   8.131   0.975  0.7726  0.0943  1.8199
  5994G12c H00S11340   1.181   8.033   0.931 -5.2079  2.0168 -2.0174
  5994G12c C01E11341   1.108   8.229   0.911  0.5871 -0.5254  1.3867
  5994G12c O00811342   1.053   8.201   0.788  0.3250 -0.1524  0.4794
  5994G12c C01V11343   1.134   8.178   0.676 -1.5174 -0.0162  0.1429
  5994G12c C01Z11344   1.107   8.072   0.583  0.5575  0.5115 -1.4554
  5994G12c H00R11345   1.020   8.030   0.531  1.9210 -6.2156  1.1618
  5994G12c H00Q11346   1.163   8.117   0.501 -1.9219  1.4893 -2.6694
  5994G12c O00911347   1.166   7.957   0.656 -1.0833 -1.2653  0.2092
  5994G12c H00P11348   1.127   7.886   0.607 -1.6246 -1.3717  0.7956
  5994G12c C01W11349   1.217   8.277   0.664  0.0255  0.0223  0.9058
  5994G12c H00O11350   1.215   8.350   0.744 -0.2087 -1.9786  2.7680
  5994G12c C01X11351   1.342   8.275   0.564  0.5398 -0.3587  0.1867
  5994G12c H00N11352   1.316   8.220   0.473 -2.1030 -3.4749  2.6573
  5994G12c H00M11353   1.366   8.379   0.543 -3.1010 -0.1655 -3.7703
  5994G12c C01Y11354   1.447   8.214   0.638  0.1316  1.4156 -1.0541
  5994G12c C02D11355   1.454   8.081   0.647  0.6469  0.3942 -0.3363
  5994G12c H01911356   1.389   8.032   0.575 -0.7907 -1.9465  2.4518
  5994G12c C02C11357   1.551   8.012   0.701  1.6099  0.9625 -1.1594
  5994G12c H01A11358   1.569   7.909   0.672 -7.8603 -0.8482 -2.1361
  5994G12c C02B11359   1.656   8.099   0.784  0.5406  1.0589  0.3741
  5994G12c O00E11360   1.766   8.038   0.842  0.4024 -0.7528  0.2591
  5994G12c H01B11361   1.844   8.081   0.873  1.0064 -1.4127 -0.3167
  5994G12c C02F11362   1.652   8.239   0.782 -1.1092 -0.6630 -0.0302
  5994G12c O00F11363   1.774   8.313   0.826 -0.9312  0.2548 -0.2203
  5994G12c C02G11364   1.773   8.458   0.874 -0.0378  0.6060  1.3824
  5994G12c H01711365   1.780   8.417   0.975  3.2604 -2.4140  0.0623
  5994G12c H01611366   1.680   8.509   0.848 -0.7519 -2.4342 -2.5672
  5994G12c H01511367   1.847   8.509   0.813 -0.9760 -1.5476 -1.7021
  5994G12c C02E11368   1.551   8.280   0.711  0.1913  0.6712 -1.5908
  5994G12c H01811369   1.551   8.388   0.700  1.4717  0.5375 -3.1615
  5994G12c C01F11370   1.054   8.329   0.981 -0.6937 -0.8988 -0.4954
  5994G12c C01G11371   0.951   8.423   0.934  0.5175 -0.4596 -0.7254
  5994G12c H00L11372   0.890   8.404   0.846 -5.7390  2.5855  2.5963
  5994G12c C01H11373   0.889   8.504   1.048 -1.2777 -0.3284 -1.2257
  5994G12c H00B11374   0.793   8.542   1.016 -0.9407  6.0186  4.1322
  5994G12c C01I11375   0.924   8.486   1.184  1.2797  1.2167  0.9771
  5994G12c C01U11376   1.090   8.340   1.113  0.1382  0.4891  0.8124
  5994G12c C00S11377   1.231   8.008   1.545  0.0730 -1.8151  1.2794
  5994G12c C00K11378   1.132   8.209   1.539 -0.1353 -1.2050  1.2983
  5994G12c C00N11379   1.196   8.253   1.171 -0.3032 -2.0902 -1.0685
  5994G12c C00011380   1.063   8.451   1.202 -0.8960  0.3132  0.0882
  5994G12c C01J11381   0.880   8.487   1.318  0.2143  0.5740 -0.9039
  5994G12c C01K11382   0.757   8.540   1.371 -1.6922 -1.1356 -1.5952
  5994G12c C01P11383   0.677   8.657   1.332 -1.2910  0.2064 -0.0194
  5994G12c C01Q11384   0.725   8.755   1.226  0.5442 -0.4933 -1.0391
  5994G12c H00G11385   0.643   8.785   1.162 -2.4244 -0.8365  2.4689
  5994G12c C01R11386   0.842   8.813   1.249  1.8005  0.2790  1.1671
  5994G12c H00F11387   0.889   8.796   1.345  2.7063 -2.0229  0.3457
  5994G12c C01S11388   0.910   8.920   1.169 -0.5449  0.9956 -1.8996
  5994G12c H00E11389   0.914   9.007   1.235  4.0219  1.5059 -2.7015
  5994G12c H00D11390   0.971   8.872   1.093  4.7392  0.7064  2.2292
  5994G12c O00511391   0.829   8.994   1.079 -0.8320  0.3656  0.6937
  5994G12c H00C11392   0.870   9.079   1.075  6.5192 -2.8489 -0.4875
  5994G12c C01O11393   0.574   8.706   1.405 -1.6942 -0.7888 -0.2006
  5994G12c H00H11394   0.524   8.800   1.392 -0.6086  0.3131  3.1133
  5994G12c C01N11395   0.509   8.604   1.476 -1.5707  0.2082  0.1454
  5994G12c O00611396   0.378   8.617   1.510  0.8347 -0.2477  0.2302
  5994G12c C01T11397   0.315   8.755   1.508  2.3936  2.0191 -1.1482
  5994G12c H00K11398   0.302   8.763   1.400  4.1240-10.6967 -2.9902
  5994G12c H00J11399   0.354   8.817   1.589  5.1426  0.3862 -1.1886
  5994G12c H00I11400   0.212   8.731   1.535  4.1767 -5.4976  0.0594
  5994G12c C01M11401   0.591   8.501   1.529 -0.0617 -0.9557  1.2872
  5994G12c C02011402   1.010   8.278   1.591 -0.0671 -0.1923 -0.0969
  5994G12c C02111403   0.950   8.253   1.717 -1.0437 -0.9068 -0.2419
  5994G12c C01L11404   0.726   8.488   1.497  0.7174  0.3553  0.2865
  5994G12c O00711405   0.528   8.389   1.562  0.2649 -0.7020 -1.3021
  5994G12c C02211406   0.815   8.268   1.733  0.6738  0.5617  0.5842
  5994G12c C02311407   0.990   8.138   1.796 -0.4425 -0.8020  1.4193
  5994G12c C00G11408   0.977   7.856   1.829  1.3511  0.5826  0.0123
  5994G12c C00E11409   0.847   7.647   1.894 -1.0038  0.6482  0.9968
  5994G12c O00A11410   0.827   7.504   1.894 -0.1203  0.4117  1.0606
  5994G12c C02411411   0.699   7.482   1.847  0.0141  0.7496 -0.4552
  5994G12c H00V11412   0.607   7.514   1.897 -2.9938 -1.1162 -4.5659
  5994G12c H00U11413   0.706   7.529   1.749  2.1212  0.1546 -0.6048
  5994G12c H00T11414   0.652   7.386   1.830 -2.2219  2.2231 -2.9963
  6004G12c C00D11415   5.993  10.047   6.054  0.3147  0.3603  1.4126
  6004G12c O00B11416   5.982  10.001   6.177  0.3048  0.9792  0.2541
  6004G12c C02511417   6.056  10.041   6.282  0.5468 -0.1623  0.1191
  6004G12c C02611418   6.030  10.190   6.309 -0.7933  0.5067 -0.5697
  6004G12c H00Y11419   5.944  10.238   6.263 -0.4598  0.0723 -1.6700
  6004G12c H00X11420   5.993  10.198   6.411 -0.9895  0.5840 -0.6467
  6004G12c O00C11421   6.150  10.281   6.299 -1.1435  0.4158 -1.5576
  6004G12c H00W11422   6.144  10.370   6.331  0.7442  2.1441 -5.6337
  6004G12c C02711423   6.138   9.966   6.342  0.8843  1.1582  0.0447
  6004G12c O00D11424   6.167   9.836   6.297  1.2303 -0.0051  2.3295
  6004G12c H00Z11425   6.088   9.791   6.273  1.8912 -0.5967  1.2213
  6004G12c C02811426   6.174   9.995   6.480 -0.6735  0.1484  0.9297
  6004G12c C02911427   6.058   9.990   6.571  1.7842 -0.5354 -0.8639
  6004G12c H01011428   5.961   9.983   6.523  1.5517  3.7751 -1.2024
  6004G12c C02T11429   6.091  10.032   6.703  0.0614  0.6902 -0.5517
  6004G12c H01O11430   6.015  10.028   6.780  4.8567 -4.1728  4.3931
  6004G12c C02S11431   6.208  10.072   6.755 -1.0275 -0.7248  0.8079
  6004G12c O00J11432   6.215  10.120   6.877  0.6130  0.7816 -1.2423
  6004G12c H01P11433   6.291  10.173   6.894  1.4907 -0.1474 -2.2158
  6004G12c C02R11434   6.316  10.078   6.671  0.1063 -1.1872  1.0143
  6004G12c O00I11435   6.438  10.125   6.714  0.0612  1.0875  0.4736
  6004G12c C02Q11436   6.492  10.006   6.756 -1.2438  0.8188 -0.7061
  6004G12c H01N11437   6.502   9.908   6.710 -1.7513 -0.8912  2.7016
  6004G12c H01R11438   6.582  10.037   6.809  1.1034 -1.9065 -2.9009
  6004G12c H01Q11439   6.466   9.968   6.854 -5.7018 -3.4622 -3.3135
  6004G12c C02A11440   6.302  10.044   6.534 -0.1291  0.5073  0.5544
  6004G12c H01111441   6.395  10.081   6.494  1.4309 -5.0915 -1.4208
  6004G12c C00C11442   6.071  10.137   5.995 -1.0906  0.1049  1.5771
  6004G12c H01211443   6.140  10.176   6.068 -5.0784  0.6533  5.2760
  6004G12c C00B11444   6.089  10.183   5.857  0.4914  0.7247  0.3253
  6004G12c C00A11445   6.183  10.265   5.780  0.3402  0.3159  1.2957
  6004G12c C00911446   6.272  10.367   5.813 -2.2647  0.6660 -0.8510
  6004G12c C00811447   6.300  10.440   5.921  0.8693  0.8174 -1.3310
  6004G12c H01311448   6.283  10.400   6.020  1.4004  4.0169  0.0889
  6004G12c C00711449   6.326  10.580   5.897 -0.4492  0.7566 -1.0418
  6004G12c H01411450   6.315  10.640   5.986  2.1208  3.6371 -2.5550
  6004G12c C00611451   6.346  10.628   5.769 -0.0946 -1.9887  0.3273
  6004G12c C00511452   6.344  10.541   5.659 -0.7817  0.1900  0.5019
  6004G12c C00411453   6.330  10.594   5.534 -1.4002 -0.6019  0.6523
  6004G12c C00311454   6.276  10.529   5.432  0.5882  0.4684  0.8799
  6004G12c C00211455   6.275  10.595   5.312  1.4324  0.5517 -1.0291
  6004G12c C00111456   6.233  10.547   5.179 -1.4555  0.1279  0.8709
  6004G12c C00M11457   6.104  10.477   5.159 -0.9197  1.0554  1.0724
  6004G12c C00L11458   6.066  10.368   5.255  1.3290  1.8992  0.3226
  6004G12c C00R11459   5.927  10.332   5.276 -1.1606  1.8945  0.1356
  6004G12c C00Q11460   5.794  10.372   5.224  0.2882 -1.0445  0.3965
  6004G12c C00V11461   5.673  10.323   5.286  0.5169 -1.3567 -0.3958
  6004G12c C00U11462   5.687  10.258   5.412 -0.1933  1.2989  0.4160
  6004G12c C00T11463   5.805  10.235   5.478 -0.1959 -0.8189  0.1971
  6004G12c C01611464   5.824  10.203   5.607  0.7581  1.6078 -0.4238
  6004G12c C01511465   5.721  10.144   5.664  0.2495 -0.3357  1.5614
  6004G12c C01011466   5.587  10.154   5.604 -1.1059  0.9362 -0.3007
  6004G12c C01111467   5.473  10.074   5.665  0.7677 -0.2779 -2.6433
  6004G12c H00511468   5.390  10.065   5.597 -4.8392  0.1420  3.7421
  6004G12c C01211469   5.485   9.977   5.766  0.9449  0.0818  0.3249
  6004G12c C01711470   5.375   9.890   5.794  0.2941 -1.0530 -0.6227
  6004G12c O00211471   5.265   9.872   5.707  0.8211 -2.0506 -0.2764
  6004G12c H00411472   5.183   9.824   5.712 -0.6245  0.3385 -0.0752
  6004G12c C01811473   5.379   9.818   5.908  2.3704  0.6558  1.9069
  6004G12c O00111474   5.291   9.711   5.907  0.0232 -1.2116  0.3895
  6004G12c H00311475   5.308   9.690   5.998 -0.6705 -1.5443  0.4460
  6004G12c C01911476   5.452   9.836   6.036 -0.2387 -0.0024  1.0918
  6004G12c H00211477   5.550   9.789   6.037  1.3878  3.1809  3.0007
  6004G12c H00111478   5.458   9.935   6.083 -1.0233 -1.3247  4.1335
  6004G12c O00011479   5.399   9.793   6.157  1.2311 -0.6531 -1.4768
  6004G12c C01A11480   5.481   9.724   6.249  0.6097 -1.2692 -0.1723
  6004G12c C02K11481   5.521   9.785   6.366  0.7667 -2.1708 -0.4232
  6004G12c O00G11482   5.456   9.908   6.388  0.4738 -0.4468 -1.2171
  6004G12c C02M11483   5.320   9.923   6.417 -0.3430 -1.3333 -0.1957
  6004G12c H01G11484   5.254   9.838   6.429 -2.1623  0.5373  4.0832
  6004G12c H01F11485   5.311   9.951   6.522 -4.2432 -3.9752  0.2900
  6004G12c H01E11486   5.281  10.013   6.369  4.9030  2.5250  2.2412
  6004G12c C02J11487   5.603   9.719   6.455 -1.5683 -1.1174 -0.1475
  6004G12c H01H11488   5.617   9.764   6.552  0.1446  0.6380 -1.1661
  6004G12c C02I11489   5.654   9.582   6.424  0.6302 -1.2234 -0.8731
  6004G12c C02N11490   5.735   9.534   6.543  1.4651  1.5861  0.3609
  6004G12c H01M11491   5.782   9.621   6.585  1.5740  0.8932  1.7279
  6004G12c C02O11492   5.723   9.406   6.572  0.7541 -1.0028  0.5323
  6004G12c H01L11493   5.652   9.365   6.502 -1.6474  2.3850  0.8564
  6004G12c C02P11494   5.786   9.330   6.687  1.3002  0.6166  0.2493
  6004G12c H01K11495   5.817   9.232   6.653 -7.5398 -1.6444 -2.5830
  6004G12c H01J11496   5.884   9.369   6.715  2.4892 -2.6431  0.8525
  6004G12c O00H11497   5.700   9.302   6.795  0.1456  2.5149 -0.9048
  6004G12c H01I11498   5.748   9.297   6.877  0.1185 -1.5530 -1.0721
  6004G12c C02H11499   5.618   9.524   6.300  0.3894  0.4427 -1.3249
  6004G12c H01C11500   5.663   9.430   6.271  1.3672  0.7594 -0.8313
  6004G12c C02L11501   5.541   9.593   6.215 -0.4135  0.7101  1.0457
  6004G12c H01D11502   5.537   9.552   6.115  5.3478  2.5868 -0.1707
  6004G12c C01311503   5.629   9.966   5.794 -1.3834  1.2899 -0.4645
  6004G12c H00011504   5.632   9.917   5.891  3.0819  1.9892 -0.1048
  6004G12c C01411505   5.736  10.069   5.766 -0.5681  0.6992 -2.1741
  6004G12c C00F11506   5.868  10.068   5.841 -1.3730  1.2025  1.1592
  6004G12c C00H11507   5.960  10.181   5.653 -0.3843 -0.2525 -0.4857
  6004G12c C00I11508   6.068  10.209   5.577 -1.9587  0.9074 -0.1691
  6004G12c C00J11509   6.040  10.256   5.446  0.3528  0.5326 -0.2485
  6004G12c C00Z11510   5.567  10.216   5.484 -0.4224  0.8468  0.4954
  6004G12c C00Y11511   5.438  10.217   5.416  0.4137  1.3424 -0.0424
  6004G12c H00611512   5.364  10.205   5.494  0.4773  4.6450  0.6009
  6004G12c C00X11513   5.436  10.275   5.297 -0.1444 -0.7168 -0.1887
  6004G12c O00311514   5.307  10.298   5.234  1.7461  0.4908  0.7393
  6004G12c C01B11515   5.197  10.194   5.254  1.6568  0.2931 -0.3642
  6004G12c H00911516   5.153  10.213   5.352  3.7239  0.7204  0.5114
  6004G12c H00811517   5.220  10.087   5.259  0.6604  0.0583 -0.6677
  6004G12c H00711518   5.107  10.206   5.193  0.5413  3.4998  1.7571
  6004G12c C00W11519   5.542  10.330   5.222 -0.6446  0.9452  1.1159
  6004G12c O00411520   5.540  10.400   5.114  0.0595 -0.9443  0.6533
  6004G12c C01C11521   5.646  10.452   5.054 -0.4111 -0.5445 -0.3314
  6004G12c H00A11522   5.681  10.391   4.972  0.9481 -1.3195  0.8132
  6004G12c C00P11523   5.773  10.452   5.109  0.4574  1.6168  0.4277
  6004G12c C00O11524   5.865  10.560   5.076  0.8213 -0.1740 -0.9912
  6004G12c C01D11525   5.797  10.675   5.025  1.7044  0.3269 -1.0063
  6004G12c H00S11526   5.713  10.672   4.957 -1.2790  0.8380  2.5052
  6004G12c C01E11527   5.887  10.799   4.997  2.0752  2.2172  1.0582
  6004G12c O00811528   5.827  10.910   4.913  0.5048  1.1832 -0.1473
  6004G12c C01V11529   5.691  10.921   4.907 -0.3401 -1.5059  1.8006
  6004G12c C01Z11530   5.612  10.975   5.034 -0.0562  0.4935  0.2613
  6004G12c H00R11531   5.657  11.017   5.124  0.5176 -4.9823  2.6964
  6004G12c H00Q11532   5.539  11.056   5.037 -5.3953 -4.1192  3.8048
  6004G12c O00911533   5.585  10.887   5.119 -1.3463 -0.2039  0.6431
  6004G12c H00P11534   5.625  10.811   5.080 -4.5625  1.7290 -7.4876
  6004G12c C01W11535   5.641  10.926   4.773 -0.2117  1.6033 -1.2879
  6004G12c H00O11536   5.726  10.873   4.732  6.3693  4.4172  7.0985
  6004G12c C01X11537   5.497  10.973   4.730 -1.3016 -0.0938  0.9230
  6004G12c H00N11538   5.442  10.949   4.821 -0.7479 -2.8767  0.5657
  6004G12c H00M11539   5.488  11.069   4.679 -1.9207 -0.7018 -0.1318
  6004G12c C01Y11540   5.456  10.902   4.606 -0.7054  0.2377  0.3913
  6004G12c C02D11541   5.389  10.775   4.637 -1.7547  2.4468  0.0976
  6004G12c H01911542   5.396  10.750   4.742  1.9147 -3.8299 -1.4481
  6004G12c C02C11543   5.349  10.673   4.550  1.2244 -0.2151  1.0128
  6004G12c H01A11544   5.303  10.580   4.579  0.3325 -0.9266 -2.4678
  6004G12c C02B11545   5.366  10.702   4.417  0.7506 -0.9861  0.3566
  6004G12c O00E11546   5.304  10.615   4.342 -0.2718  0.1158  2.0284
  6004G12c H01B11547   5.384  10.569   4.324 -2.3885 -1.6037 -4.3606
  6004G12c C02F11548   5.460  10.792   4.393  0.1837 -1.1977 -1.1875
  6004G12c O00F11549   5.540  10.772   4.289  0.7884  0.1412  0.7405
  6004G12c C02G11550   5.557  10.845   4.169 -0.0794 -0.9495 -1.6212
  6004G12c H01711551   5.510  10.829   4.072 -0.5256  2.9543 -2.1384
  6004G12c H01611552   5.532  10.934   4.227  0.0658 -1.3671 -0.9085
  6004G12c H01511553   5.662  10.862   4.146  0.6669  0.4331  2.3398
  6004G12c C02E11554   5.496  10.892   4.473  0.5502 -1.0788 -0.9137
  6004G12c H01811555   5.566  10.958   4.424 -1.8477  1.3523 -1.1311
  6004G12c C01F11556   6.030  10.789   5.010  0.2080 -0.3782  0.0897
  6004G12c C01G11557   6.131  10.902   5.004 -0.5209  0.0295 -2.1314
  6004G12c H00L11558   6.091  11.002   5.006 -3.2619 -0.9811  2.5112
  6004G12c C01H11559   6.245  10.887   5.102 -0.3699  0.6455  0.9375
  6004G12c H00B11560   6.316  10.967   5.107 -2.1532  2.3564 -0.5868
  6004G12c C01I11561   6.287  10.754   5.160  1.9290  0.8318  0.5683
  6004G12c C01U11562   6.084  10.671   5.054 -1.8082  0.8374  1.5498
  6004G12c C00S11563   5.919  10.282   5.399 -1.3878  1.4127 -0.7676
  6004G12c C00K11564   6.141  10.334   5.366  0.5946 -0.2297  0.1415
  6004G12c C00N11565   6.007  10.567   5.096 -0.7048 -0.8832  1.2957
  6004G12c C00011566   6.222  10.660   5.093 -0.6182  1.2959 -1.1745
  6004G12c C01J11567   6.315  10.722   5.299 -0.0280 -1.8568  1.6371
  6004G12c C01K11568   6.359  10.807   5.402 -1.0097  0.9533  0.8989
  6004G12c C01P11569   6.400  10.948   5.414 -0.3846  1.0116 -1.2879
  6004G12c C01Q11570   6.462  11.021   5.316 -1.3909  0.6327 -1.4166
  6004G12c H00G11571   6.544  10.972   5.266 -0.4544  0.6243  0.1011
  6004G12c C01R11572   6.446  11.157   5.303  0.1880 -0.5546  0.0254
  6004G12c H00F11573   6.371  11.206   5.363 -2.7086 -5.0823  0.3239
  6004G12c C01S11574   6.530  11.263   5.223  1.9786 -0.9135  0.8902
  6004G12c H00E11575   6.526  11.355   5.281  0.0750  0.6281 -1.5559
  6004G12c H00D11576   6.627  11.213   5.218  1.5877 -1.8580  2.2962
  6004G12c O00511577   6.475  11.267   5.093  0.8770 -0.8408 -0.5419
  6004G12c H00C11578   6.509  11.339   5.041 -2.2945  1.3151  0.2267
  6004G12c C01O11579   6.434  10.991   5.545  1.2516  0.3210  0.6016
  6004G12c H00H11580   6.441  11.093   5.579  2.0830 -0.8718  4.2102
  6004G12c C01N11581   6.388  10.936   5.663  0.0372  1.0801  1.2752
  6004G12c O00611582   6.376  10.995   5.783 -0.2661 -0.6990 -1.4715
  6004G12c C01T11583   6.262  11.029   5.861 -0.1455  0.2162  0.7415
  6004G12c H00K11584   6.246  11.129   5.822 -0.5100  0.8941  2.5538
  6004G12c H00J11585   6.332  11.032   5.944 -0.3318  2.8690  0.8294
  6004G12c H00I11586   6.173  10.966   5.863  1.2421 -1.8008  0.3595
  6004G12c C01M11587   6.357  10.801   5.638 -0.5851  0.0692 -0.4967
  6004G12c C02011588   6.226  10.391   5.452 -1.1248 -1.2099 -0.0620
  6004G12c C02111589   6.270  10.320   5.582  0.1631 -0.4998 -0.4503
  6004G12c C01L11590   6.348  10.737   5.520  1.4144  0.4320  1.2931
  6004G12c O00711591   6.313  10.760   5.755  0.5795  0.2761 -0.5885
  6004G12c C02211592   6.329  10.399   5.676  0.4842 -0.8241  0.1139
  6004G12c C02311593   6.191  10.223   5.645  0.4591 -1.0967 -0.0861
  6004G12c C00G11594   5.976  10.135   5.789  1.1145  0.5174  0.4602
  6004G12c C00E11595   5.887   9.989   5.965 -0.8600 -0.1170  0.9606
  6004G12c O00A11596   5.833   9.865   5.997 -0.0956 -2.0223 -0.7254
  6004G12c C02411597   5.930   9.748   6.023  1.7670  0.8429 -0.0095
  6004G12c H00V11598   5.923   9.643   5.995 -1.2210  0.1988  2.7402
  6004G12c H00U11599   6.017   9.795   5.979  3.9656  1.2436  4.4137
  6004G12c H00T11600   5.924   9.776   6.129 -1.0113 -2.5516  0.8346
  13.43906  12.59878  13.67933
