generated by VMD, t= 0.000000
26040
    14G12  C00D    1   2.500   4.353   8.337
    14G12  O00B    2   2.582   4.443   8.261
    14G12  C025    3   2.708   4.484   8.306
    14G12  C026    4   2.716   4.548   8.453
    14G12  H00Y    5   2.628   4.610   8.469
    14G12  H00X    6   2.793   4.624   8.461
    14G12  O00C    7   2.730   4.459   8.560
    14G12  H00W    8   2.654   4.470   8.615
    14G12  C027    9   2.808   4.489   8.214
    14G12  O00D   10   2.787   4.437   8.085
    14G12  H00Z   11   2.695   4.419   8.077
    14G12  C028   12   2.933   4.560   8.243
    14G12  C029   13   3.015   4.519   8.353
    14G12  H010   14   2.978   4.444   8.421
    14G12  C02T   15   3.149   4.567   8.379
    14G12  H01O   16   3.202   4.540   8.469
    14G12  C02S   17   3.199   4.656   8.287
    14G12  O00J   18   3.327   4.702   8.297
    14G12  H01P   19   3.358   4.748   8.220
    14G12  C02R   20   3.127   4.693   8.167
    14G12  O00I   21   3.196   4.780   8.085
    14G12  C02Q   22   3.186   4.752   7.949
    14G12  H01N   23   3.261   4.791   7.879
    14G12  H01R   24   3.087   4.783   7.918
    14G12  H01Q   25   3.197   4.643   7.939
    14G12  C02A   26   2.994   4.644   8.151
    14G12  H011   27   2.941   4.672   8.061
    14G12  C00C   28   2.552   4.243   8.408
    14G12  H012   29   2.658   4.236   8.424
    14G12  C00B   30   2.476   4.146   8.469
    14G12  C00A   31   2.533   4.034   8.542
    14G12  C009   32   2.650   3.948   8.512
    14G12  C008   33   2.759   3.948   8.427
    14G12  H013   34   2.775   4.034   8.364
    14G12  C007   35   2.832   3.830   8.400
    14G12  H014   36   2.905   3.832   8.321
    14G12  C006   37   2.788   3.704   8.454
    14G12  C005   38   2.678   3.707   8.537
    14G12  C004   39   2.609   3.589   8.571
    14G12  C003   40   2.481   3.593   8.636
    14G12  C002   41   2.414   3.466   8.656
    14G12  C001   42   2.289   3.437   8.707
    14G12  C00M   43   2.165   3.505   8.671
    14G12  C00L   44   2.156   3.643   8.695
    14G12  C00R   45   2.046   3.722   8.645
    14G12  C00Q   46   1.923   3.693   8.575
    14G12  C00V   47   1.848   3.810   8.531
    14G12  C00U   48   1.903   3.936   8.519
    14G12  C00T   49   2.030   3.958   8.568
    14G12  C016   50   2.112   4.066   8.530
    14G12  C015   51   2.052   4.166   8.453
    14G12  C010   52   1.917   4.164   8.432
    14G12  C011   53   1.852   4.268   8.363
    14G12  H005   54   1.747   4.272   8.338
    14G12  C012   55   1.926   4.379   8.320
    14G12  C017   56   1.856   4.490   8.255
    14G12  O002   57   1.751   4.543   8.316
    14G12  H004   58   1.725   4.608   8.253
    14G12  C018   59   1.907   4.549   8.143
    14G12  O001   60   2.013   4.505   8.073
    14G12  H003   61   2.023   4.416   8.103
    14G12  C019   62   1.868   4.691   8.106
    14G12  H002   63   1.907   4.746   8.192
    14G12  H001   64   1.910   4.712   8.007
    14G12  O000   65   1.731   4.708   8.098
    14G12  C01A   66   1.681   4.837   8.103
    14G12  C02K   67   1.547   4.863   8.137
    14G12  O00G   68   1.471   4.748   8.159
    14G12  C02M   69   1.346   4.771   8.211
    14G12  H01G   70   1.299   4.672   8.218
    14G12  H01F   71   1.297   4.839   8.142
    14G12  H01E   72   1.351   4.818   8.309
    14G12  C02J   73   1.504   5.004   8.145
    14G12  H01H   74   1.402   5.024   8.171
    14G12  C02I   75   1.595   5.113   8.130
    14G12  C02N   76   1.546   5.254   8.136
    14G12  H01M   77   1.439   5.270   8.136
    14G12  C02O   78   1.630   5.356   8.129
    14G12  H01L   79   1.737   5.343   8.121
    14G12  C02P   80   1.587   5.498   8.121
    14G12  H01K   81   1.619   5.539   8.025
    14G12  H01J   82   1.478   5.500   8.133
    14G12  O00H   83   1.635   5.569   8.236
    14G12  H01I   84   1.694   5.636   8.205
    14G12  C02H   85   1.733   5.081   8.102
    14G12  H01C   86   1.807   5.159   8.101
    14G12  C02L   87   1.774   4.946   8.092
    14G12  H01D   88   1.882   4.935   8.088
    14G12  C013   89   2.063   4.377   8.350
    14G12  H000   90   2.113   4.472   8.335
    14G12  C014   91   2.133   4.270   8.405
    14G12  C00F   92   2.273   4.263   8.405
    14G12  C00H   93   2.252   4.068   8.543
    14G12  C00I   94   2.308   3.963   8.615
    14G12  C00J   95   2.223   3.865   8.669
    14G12  C00Z   96   1.842   4.055   8.464
    14G12  C00Y   97   1.713   4.032   8.417
    14G12  H006   98   1.654   4.105   8.362
    14G12  C00X   99   1.652   3.910   8.426
    14G12  O003  100   1.524   3.888   8.380
    14G12  C01B  101   1.507   3.831   8.249
    14G12  H009  102   1.541   3.901   8.172
    14G12  H008  103   1.402   3.809   8.232
    14G12  H007  104   1.565   3.744   8.217
    14G12  C00W  105   1.720   3.794   8.474
    14G12  O004  106   1.662   3.670   8.477
    14G12  C01C  107   1.754   3.574   8.448
    14G12  H00A  108   1.745   3.524   8.353
    14G12  C00P  109   1.873   3.569   8.527
    14G12  C00O  110   1.949   3.449   8.532
    14G12  C01D  111   1.899   3.335   8.453
    14G12  H00S  112   1.809   3.338   8.393
    14G12  C01E  113   1.980   3.219   8.427
    14G12  O008  114   1.941   3.134   8.324
    14G12  C01V  115   1.870   3.016   8.351
    14G12  C01Z  116   1.885   2.914   8.241
    14G12  H00R  117   1.857   2.811   8.262
    14G12  H00Q  118   1.818   2.946   8.161
    14G12  O009  119   2.016   2.927   8.182
    14G12  H00P  120   2.025   3.018   8.160
    14G12  C01W  121   1.804   3.000   8.470
    14G12  H00O  122   1.795   3.087   8.534
    14G12  C01X  123   1.727   2.878   8.516
    14G12  H00N  124   1.649   2.912   8.584
    14G12  H00M  125   1.691   2.823   8.429
    14G12  C01Y  126   1.804   2.769   8.588
    14G12  C02D  127   1.741   2.685   8.684
    14G12  H019  128   1.636   2.703   8.704
    14G12  C02C  129   1.803   2.577   8.750
    14G12  H01A  130   1.746   2.514   8.816
    14G12  C02B  131   1.942   2.561   8.734
    14G12  O00E  132   2.009   2.459   8.796
    14G12  H01B  133   2.094   2.439   8.759
    14G12  C02F  134   2.019   2.654   8.655
    14G12  O00F  135   2.156   2.640   8.648
    14G12  C02G  136   2.232   2.742   8.582
    14G12  H017  137   2.207   2.731   8.477
    14G12  H016  138   2.339   2.726   8.573
    14G12  H015  139   2.212   2.844   8.615
    14G12  C02E  140   1.946   2.752   8.579
    14G12  H018  141   1.996   2.816   8.508
    14G12  C01F  142   2.106   3.208   8.488
    14G12  C01G  143   2.212   3.118   8.447
    14G12  H00L  144   2.191   3.045   8.370
    14G12  C01H  145   2.344   3.155   8.476
    14G12  H00B  146   2.422   3.119   8.411
    14G12  C01I  147   2.363   3.256   8.573
    14G12  C01U  148   2.137   3.296   8.596
    14G12  C00S  149   2.091   3.856   8.640
    14G12  C00K  150   2.273   3.728   8.688
    14G12  C00N  151   2.076   3.425   8.597
    14G12  C000  152   2.261   3.304   8.659
    14G12  C01J  153   2.469   3.354   8.588
    14G12  C01K  154   2.602   3.344   8.534
    14G12  C01P  155   2.677   3.225   8.509
    14G12  C01Q  156   2.629   3.092   8.540
    14G12  H00G  157   2.573   3.070   8.629
    14G12  C01R  158   2.667   2.977   8.484
    14G12  H00F  159   2.723   2.974   8.391
    14G12  C01S  160   2.606   2.837   8.525
    14G12  H00E  161   2.679   2.757   8.523
    14G12  H00D  162   2.582   2.851   8.631
    14G12  O005  163   2.514   2.808   8.421
    14G12  H00C  164   2.565   2.793   8.343
    14G12  C01O  165   2.802   3.231   8.446
    14G12  H00H  166   2.856   3.140   8.425
    14G12  C01N  167   2.863   3.354   8.421
    14G12  O006  168   2.991   3.361   8.364
    14G12  C01T  169   3.055   3.237   8.328
    14G12  H00K  170   3.089   3.179   8.414
    14G12  H00J  171   3.151   3.263   8.284
    14G12  H00I  172   3.000   3.173   8.259
    14G12  C01M  173   2.794   3.470   8.456
    14G12  C020  174   2.415   3.716   8.668
    14G12  C021  175   2.497   3.830   8.643
    14G12  C01L  176   2.667   3.469   8.524
    14G12  O007  177   2.854   3.590   8.424
    14G12  C022  178   2.620   3.828   8.580
    14G12  C023  179   2.445   3.955   8.616
    14G12  C00G  180   2.334   4.160   8.472
    14G12  C00E  181   2.359   4.356   8.332
    14G12  O00A  182   2.325   4.465   8.258
    14G12  C024  183   2.342   4.595   8.321
    14G12  H00V  184   2.306   4.673   8.254
    14G12  H00U  185   2.447   4.622   8.328
    14G12  H00T  186   2.295   4.609   8.419
    24G12  C00D  187   5.632   2.433   6.158
    24G12  O00B  188   5.760   2.440   6.209
    24G12  C025  189   5.846   2.329   6.225
    24G12  C026  190   5.924   2.300   6.095
    24G12  H00Y  191   5.857   2.333   6.016
    24G12  H00X  192   5.928   2.195   6.068
    24G12  O00C  193   6.049   2.366   6.088
    24G12  H00W  194   6.036   2.452   6.126
    24G12  C027  195   5.834   2.257   6.336
    24G12  O00D  196   5.749   2.292   6.435
    24G12  H00Z  197   5.691   2.359   6.401
    24G12  C028  198   5.908   2.132   6.348
    24G12  C029  199   6.045   2.109   6.321
    24G12  H010  200   6.105   2.193   6.288
    24G12  C02T  201   6.107   1.987   6.342
    24G12  H01O  202   6.214   1.981   6.333
    24G12  C02S  203   6.031   1.878   6.389
    24G12  O00J  204   6.084   1.757   6.413
    24G12  H01P  205   6.013   1.697   6.435
    24G12  C02R  206   5.901   1.896   6.423
    24G12  O00I  207   5.832   1.797   6.492
    24G12  C02Q  208   5.707   1.758   6.426
    24G12  H01N  209   5.633   1.833   6.398
    24G12  H01R  210   5.653   1.691   6.492
    24G12  H01Q  211   5.741   1.701   6.339
    24G12  C02A  212   5.836   2.020   6.404
    24G12  H011  213   5.736   2.039   6.439
    24G12  C00C  214   5.574   2.313   6.138
    24G12  H012  215   5.639   2.232   6.165
    24G12  C00B  216   5.451   2.298   6.076
    24G12  C00A  217   5.377   2.180   6.041
    24G12  C009  218   5.432   2.053   5.999
    24G12  C008  219   5.566   2.010   5.979
    24G12  H013  220   5.642   2.064   6.034
    24G12  C007  221   5.593   1.906   5.884
    24G12  H014  222   5.694   1.869   5.882
    24G12  C006  223   5.487   1.855   5.800
    24G12  C005  224   5.362   1.912   5.819
    24G12  C004  225   5.262   1.897   5.721
    24G12  C003  226   5.144   1.968   5.728
    24G12  C002  227   5.046   1.944   5.624
    24G12  C001  228   4.915   2.002   5.593
    24G12  C00M  229   4.877   2.142   5.609
    24G12  C00L  230   4.941   2.218   5.701
    24G12  C00R  231   4.953   2.361   5.698
    24G12  C00Q  232   4.904   2.466   5.613
    24G12  C00V  233   4.946   2.594   5.649
    24G12  C00U  234   5.055   2.620   5.736
    24G12  C00T  235   5.102   2.520   5.819
    24G12  C016  236   5.214   2.524   5.899
    24G12  C015  237   5.272   2.647   5.908
    24G12  C010  238   5.229   2.756   5.833
    24G12  C011  239   5.287   2.884   5.856
    24G12  H005  240   5.257   2.962   5.787
    24G12  C012  241   5.396   2.902   5.942
    24G12  C017  242   5.446   3.037   5.963
    24G12  O002  243   5.357   3.134   6.002
    24G12  H004  244   5.281   3.078   6.003
    24G12  C018  245   5.581   3.064   5.941
    24G12  O001  246   5.662   2.967   5.887
    24G12  H003  247   5.748   3.003   5.898
    24G12  C019  248   5.647   3.196   5.978
    24G12  H002  249   5.657   3.258   5.888
    24G12  H001  250   5.583   3.256   6.044
    24G12  O000  251   5.781   3.181   6.027
    24G12  C01A  252   5.807   3.101   6.137
    24G12  C02K  253   5.940   3.054   6.158
    24G12  O00G  254   6.034   3.091   6.066
    24G12  C02M  255   6.162   3.044   6.067
    24G12  H01G  256   6.214   3.044   6.163
    24G12  H01F  257   6.232   3.100   6.004
    24G12  H01E  258   6.170   2.938   6.046
    24G12  C02J  259   5.965   2.967   6.266
    24G12  H01H  260   6.067   2.934   6.272
    24G12  C02I  261   5.868   2.934   6.361
    24G12  C02N  262   5.897   2.859   6.482
    24G12  H01M  263   5.817   2.807   6.532
    24G12  C02O  264   6.029   2.845   6.514
    24G12  H01L  265   6.111   2.896   6.467
    24G12  C02P  266   6.078   2.781   6.632
    24G12  H01K  267   6.181   2.748   6.620
    24G12  H01J  268   6.067   2.847   6.718
    24G12  O00H  269   5.997   2.663   6.644
    24G12  H01I  270   5.994   2.620   6.559
    24G12  C02H  271   5.732   2.962   6.329
    24G12  H01C  272   5.655   2.917   6.390
    24G12  C02L  273   5.706   3.053   6.221
    24G12  H01D  274   5.601   3.067   6.201
    24G12  C013  275   5.438   2.788   6.016
    24G12  H000  276   5.520   2.819   6.080
    24G12  C014  277   5.380   2.658   5.999
    24G12  C00F  278   5.438   2.541   6.055
    24G12  C00H  279   5.259   2.411   5.970
    24G12  C00I  280   5.182   2.292   5.957
    24G12  C00J  281   5.068   2.290   5.872
    24G12  C00Z  282   5.116   2.746   5.751
    24G12  C00Y  283   5.055   2.858   5.681
    24G12  H006  284   5.076   2.963   5.693
    24G12  C00X  285   4.944   2.839   5.593
    24G12  O003  286   4.891   2.942   5.526
    24G12  C01B  287   4.773   2.987   5.585
    24G12  H009  288   4.711   2.903   5.617
    24G12  H008  289   4.731   3.054   5.510
    24G12  H007  290   4.802   3.052   5.667
    24G12  C00W  291   4.894   2.706   5.574
    24G12  O004  292   4.796   2.695   5.477
    24G12  C01C  293   4.769   2.566   5.433
    24G12  H00A  294   4.683   2.546   5.370
    24G12  C00P  295   4.821   2.449   5.495
    24G12  C00O  296   4.818   2.322   5.426
    24G12  C01D  297   4.803   2.331   5.281
    24G12  H00S  298   4.795   2.428   5.234
    24G12  C01E  299   4.835   2.219   5.194
    24G12  O008  300   4.836   2.223   5.056
    24G12  C01V  301   4.785   2.324   4.980
    24G12  C01Z  302   4.868   2.386   4.869
    24G12  H00R  303   4.896   2.490   4.886
    24G12  H00Q  304   4.955   2.321   4.863
    24G12  O009  305   4.796   2.380   4.751
    24G12  H00P  306   4.777   2.292   4.723
    24G12  C01W  307   4.660   2.363   5.007
    24G12  H00O  308   4.603   2.327   5.091
    24G12  C01X  309   4.588   2.485   4.961
    24G12  H00N  310   4.643   2.539   4.884
    24G12  H00M  311   4.489   2.447   4.937
    24G12  C01Y  312   4.585   2.582   5.074
    24G12  C02D  313   4.466   2.601   5.151
    24G12  H019  314   4.381   2.534   5.147
    24G12  C02C  315   4.455   2.718   5.235
    24G12  H01A  316   4.363   2.753   5.280
    24G12  C02B  317   4.561   2.806   5.255
    24G12  O00E  318   4.550   2.922   5.328
    24G12  H01B  319   4.631   2.970   5.321
    24G12  C02F  320   4.677   2.779   5.178
    24G12  O00F  321   4.777   2.873   5.183
    24G12  C02G  322   4.914   2.826   5.193
    24G12  H017  323   4.949   2.773   5.104
    24G12  H016  324   4.925   2.764   5.282
    24G12  H015  325   4.971   2.916   5.216
    24G12  C02E  326   4.689   2.671   5.092
    24G12  H018  327   4.770   2.658   5.021
    24G12  C01F  328   4.878   2.101   5.253
    24G12  C01G  329   4.942   1.993   5.181
    24G12  H00L  330   4.949   1.997   5.073
    24G12  C01H  331   5.012   1.895   5.260
    24G12  H00B  332   5.106   1.855   5.225
    24G12  C01I  333   4.989   1.891   5.404
    24G12  C01U  334   4.854   2.082   5.392
    24G12  C00S  335   5.029   2.403   5.804
    24G12  C00K  336   5.033   2.172   5.802
    24G12  C00N  337   4.839   2.192   5.476
    24G12  C000  338   4.886   1.967   5.460
    24G12  C01J  339   5.082   1.869   5.512
    24G12  C01K  340   5.198   1.782   5.505
    24G12  C01P  341   5.238   1.672   5.414
    24G12  C01Q  342   5.148   1.617   5.318
    24G12  H00G  343   5.049   1.605   5.359
    24G12  C01R  344   5.189   1.604   5.189
    24G12  H00F  345   5.291   1.626   5.161
    24G12  C01S  346   5.101   1.568   5.070
    24G12  H00E  347   5.153   1.511   4.993
    24G12  H00D  348   5.018   1.500   5.089
    24G12  O005  349   5.038   1.692   5.038
    24G12  H00C  350   5.061   1.703   4.947
    24G12  C01O  351   5.357   1.596   5.428
    24G12  H00H  352   5.390   1.514   5.366
    24G12  C01N  353   5.440   1.624   5.538
    24G12  O006  354   5.556   1.557   5.561
    24G12  C01T  355   5.564   1.427   5.504
    24G12  H00K  356   5.647   1.376   5.552
    24G12  H00J  357   5.580   1.426   5.396
    24G12  H00I  358   5.473   1.371   5.523
    24G12  C01M  359   5.404   1.736   5.620
    24G12  C020  360   5.117   2.059   5.832
    24G12  C021  361   5.203   2.054   5.940
    24G12  C01L  362   5.284   1.809   5.614
    24G12  O007  363   5.512   1.764   5.703
    24G12  C022  364   5.322   1.989   5.933
    24G12  C023  365   5.241   2.176   6.005
    24G12  C00G  366   5.379   2.414   6.036
    24G12  C00E  367   5.569   2.549   6.117
    24G12  O00A  368   5.645   2.664   6.137
    24G12  C024  369   5.735   2.689   6.044
    24G12  H00V  370   5.697   2.698   5.943
    24G12  H00U  371   5.818   2.619   6.041
    24G12  H00T  372   5.792   2.779   6.067
    34G12  C00D  373   2.049   6.471   4.735
    34G12  O00B  374   2.111   6.359   4.783
    34G12  C025  375   2.180   6.362   4.905
    34G12  C026  376   2.267   6.483   4.930
    34G12  H00Y  377   2.304   6.514   4.832
    34G12  H00X  378   2.353   6.454   4.990
    34G12  O00C  379   2.196   6.592   4.993
    34G12  H00W  380   2.261   6.654   5.022
    34G12  C027  381   2.191   6.245   4.977
    34G12  O00D  382   2.138   6.130   4.927
    34G12  H00Z  383   2.064   6.155   4.874
    34G12  C028  384   2.277   6.242   5.092
    34G12  C029  385   2.406   6.176   5.088
    34G12  H010  386   2.445   6.133   4.997
    34G12  C02T  387   2.492   6.174   5.200
    34G12  H01O  388   2.595   6.141   5.196
    34G12  C02S  389   2.453   6.238   5.314
    34G12  O00J  390   2.537   6.247   5.417
    34G12  H01P  391   2.499   6.275   5.499
    34G12  C02R  392   2.326   6.297   5.326
    34G12  O00I  393   2.287   6.354   5.442
    34G12  C02Q  394   2.163   6.426   5.446
    34G12  H01N  395   2.152   6.500   5.367
    34G12  H01R  396   2.153   6.474   5.543
    34G12  H01Q  397   2.085   6.351   5.442
    34G12  C02A  398   2.246   6.309   5.212
    34G12  H011  399   2.151   6.362   5.211
    34G12  C00C  400   1.944   6.537   4.802
    34G12  H012  401   1.900   6.504   4.896
    34G12  C00B  402   1.903   6.669   4.768
    34G12  C00A  403   1.815   6.756   4.842
    34G12  C009  404   1.704   6.723   4.927
    34G12  C008  405   1.643   6.604   4.976
    34G12  H013  406   1.694   6.508   4.972
    34G12  C007  407   1.506   6.618   5.010
    34G12  H014  408   1.451   6.529   5.036
    34G12  C006  409   1.433   6.741   4.999
    34G12  C005  410   1.502   6.855   4.960
    34G12  C004  411   1.429   6.963   4.902
    34G12  C003  412   1.496   7.058   4.824
    34G12  C002  413   1.406   7.163   4.774
    34G12  C001  414   1.433   7.270   4.679
    34G12  C00M  415   1.511   7.254   4.564
    34G12  C00L  416   1.631   7.191   4.559
    34G12  C00R  417   1.705   7.156   4.444
    34G12  C00Q  418   1.680   7.177   4.303
    34G12  C00V  419   1.780   7.114   4.222
    34G12  C00U  420   1.875   7.017   4.273
    34G12  C00T  421   1.878   6.988   4.409
    34G12  C016  422   1.947   6.883   4.470
    34G12  C015  423   2.040   6.818   4.393
    34G12  C010  424   2.047   6.847   4.254
    34G12  C011  425   2.138   6.784   4.175
    34G12  H005  426   2.153   6.800   4.069
    34G12  C012  427   2.218   6.678   4.233
    34G12  C017  428   2.329   6.622   4.165
    34G12  O002  429   2.459   6.640   4.211
    34G12  H004  430   2.506   6.576   4.159
    34G12  C018  431   2.308   6.563   4.048
    34G12  O001  432   2.177   6.537   4.010
    34G12  H003  433   2.118   6.552   4.083
    34G12  C019  434   2.406   6.493   3.959
    34G12  H002  435   2.367   6.392   3.943
    34G12  H001  436   2.419   6.544   3.864
    34G12  O000  437   2.538   6.475   4.010
    34G12  C01A  438   2.640   6.425   3.937
    34G12  C02K  439   2.772   6.432   3.993
    34G12  O00G  440   2.772   6.483   4.123
    34G12  C02M  441   2.868   6.435   4.219
    34G12  H01G  442   2.841   6.483   4.314
    34G12  H01F  443   2.966   6.472   4.190
    34G12  H01E  444   2.868   6.328   4.238
    34G12  C02J  445   2.881   6.376   3.923
    34G12  H01H  446   2.979   6.382   3.966
    34G12  C02I  447   2.857   6.314   3.799
    34G12  C02N  448   2.969   6.255   3.726
    34G12  H01M  449   2.950   6.177   3.654
    34G12  C02O  450   3.095   6.296   3.741
    34G12  H01L  451   3.123   6.374   3.809
    34G12  C02P  452   3.215   6.233   3.672
    34G12  H01K  453   3.258   6.152   3.731
    34G12  H01J  454   3.175   6.186   3.582
    34G12  O00H  455   3.322   6.324   3.647
    34G12  H01I  456   3.278   6.408   3.640
    34G12  C02H  457   2.730   6.312   3.740
    34G12  H01C  458   2.704   6.269   3.645
    34G12  C02L  459   2.629   6.374   3.810
    34G12  H01D  460   2.527   6.368   3.774
    34G12  C013  461   2.197   6.649   4.368
    34G12  H000  462   2.277   6.587   4.407
    34G12  C014  463   2.100   6.706   4.447
    34G12  C00F  464   2.049   6.650   4.569
    34G12  C00H  465   1.924   6.852   4.603
    34G12  C00I  466   1.845   6.933   4.682
    34G12  C00J  467   1.796   7.047   4.623
    34G12  C00Z  468   1.957   6.943   4.192
    34G12  C00Y  469   1.961   6.979   4.058
    34G12  H006  470   2.011   6.930   3.976
    34G12  C00X  471   1.879   7.079   4.002
    34G12  O003  472   1.911   7.119   3.874
    34G12  C01B  473   1.789   7.102   3.799
    34G12  H009  474   1.701   7.162   3.824
    34G12  H008  475   1.754   6.999   3.794
    34G12  H007  476   1.805   7.135   3.696
    34G12  C00W  477   1.785   7.146   4.086
    34G12  O004  478   1.708   7.246   4.035
    34G12  C01C  479   1.584   7.251   4.097
    34G12  H00A  480   1.497   7.223   4.038
    34G12  C00P  481   1.574   7.244   4.239
    34G12  C00O  482   1.452   7.279   4.310
    34G12  C01D  483   1.345   7.339   4.232
    34G12  H00S  484   1.360   7.359   4.127
    34G12  C01E  485   1.214   7.359   4.284
    34G12  O008  486   1.105   7.397   4.205
    34G12  C01V  487   1.121   7.451   4.073
    34G12  C01Z  488   1.090   7.597   4.063
    34G12  H00R  489   1.093   7.653   4.157
    34G12  H00Q  490   1.148   7.636   3.980
    34G12  O009  491   0.950   7.604   4.022
    34G12  H00P  492   0.891   7.563   4.084
    34G12  C01W  493   1.138   7.366   3.971
    34G12  H00O  494   1.136   7.266   4.012
    34G12  C01X  495   1.138   7.389   3.818
    34G12  H00N  496   1.055   7.326   3.786
    34G12  H00M  497   1.114   7.491   3.790
    34G12  C01Y  498   1.268   7.336   3.767
    34G12  C02D  499   1.276   7.222   3.679
    34G12  H019  500   1.199   7.147   3.667
    34G12  C02C  501   1.396   7.182   3.621
    34G12  H01A  502   1.401   7.093   3.559
    34G12  C02B  503   1.508   7.260   3.637
    34G12  O00E  504   1.616   7.240   3.561
    34G12  H01B  505   1.669   7.314   3.587
    34G12  C02F  506   1.513   7.366   3.730
    34G12  O00F  507   1.632   7.441   3.736
    34G12  C02G  508   1.627   7.566   3.800
    34G12  H017  509   1.602   7.546   3.904
    34G12  H016  510   1.546   7.628   3.761
    34G12  H015  511   1.724   7.612   3.786
    34G12  C02E  512   1.392   7.403   3.794
    34G12  H018  513   1.388   7.491   3.856
    34G12  C01F  514   1.192   7.338   4.428
    34G12  C01G  515   1.068   7.310   4.497
    34G12  H00L  516   0.977   7.315   4.438
    34G12  C01H  517   1.078   7.259   4.633
    34G12  H00B  518   0.997   7.210   4.684
    34G12  C01I  519   1.203   7.258   4.702
    34G12  C01U  520   1.309   7.334   4.509
    34G12  C00S  521   1.803   7.065   4.487
    34G12  C00K  522   1.683   7.115   4.671
    34G12  C00N  523   1.429   7.290   4.447
    34G12  C000  524   1.315   7.323   4.649
    34G12  C01J  525   1.269   7.168   4.800
    34G12  C01K  526   1.203   7.078   4.893
    34G12  C01P  527   1.074   7.087   4.954
    34G12  C01Q  528   0.998   7.205   4.955
    34G12  H00G  529   0.895   7.215   4.922
    34G12  C01R  530   1.070   7.317   4.983
    34G12  H00F  531   1.175   7.313   5.008
    34G12  C01S  532   0.996   7.447   4.981
    34G12  H00E  533   1.028   7.518   4.905
    34G12  H00D  534   0.887   7.444   4.977
    34G12  O005  535   1.025   7.516   5.103
    34G12  H00C  536   0.948   7.535   5.154
    34G12  C01O  537   1.026   6.977   5.025
    34G12  H00H  538   0.927   6.988   5.068
    34G12  C01N  539   1.103   6.864   5.052
    34G12  O006  540   1.027   6.771   5.119
    34G12  C01T  541   1.077   6.642   5.146
    34G12  H00K  542   1.180   6.639   5.182
    34G12  H00J  543   1.073   6.592   5.049
    34G12  H00I  544   1.009   6.581   5.205
    34G12  C01M  545   1.232   6.858   4.999
    34G12  C020  546   1.635   7.051   4.791
    34G12  C021  547   1.705   6.958   4.875
    34G12  C01L  548   1.293   6.971   4.928
    34G12  O007  549   1.298   6.742   5.013
    34G12  C022  550   1.639   6.850   4.938
    34G12  C023  551   1.809   6.892   4.813
    34G12  C00G  552   1.961   6.726   4.652
    34G12  C00E  553   2.100   6.525   4.618
    34G12  O00A  554   2.190   6.449   4.546
    34G12  C024  555   2.134   6.359   4.457
    34G12  H00V  556   2.209   6.290   4.418
    34G12  H00U  557   2.067   6.394   4.378
    34G12  H00T  558   2.089   6.271   4.503
    44G12  C00D  559   0.909   3.887   9.639
    44G12  O00B  560   0.967   3.816   9.740
    44G12  C025  561   1.091   3.862   9.786
    44G12  C026  562   1.092   3.912   9.928
    44G12  H00Y  563   1.195   3.921   9.965
    44G12  H00X  564   1.055   3.835   9.997
    44G12  O00C  565   1.016   4.034   9.917
    44G12  H00W  566   0.937   4.025   9.968
    44G12  C027  567   1.203   3.859   9.708
    44G12  O00D  568   1.190   3.806   9.578
    44G12  H00Z  569   1.099   3.781   9.576
    44G12  C028  570   1.334   3.902   9.757
    44G12  C029  571   1.350   4.029   9.816
    44G12  H010  572   1.264   4.094   9.816
    44G12  C02T  573   1.472   4.076   9.861
    44G12  H01O  574   1.484   4.179   9.893
    44G12  C02S  575   1.587   4.002   9.841
    44G12  O00J  576   1.712   4.036   9.886
    44G12  H01P  577   1.760   3.957   9.872
    44G12  C02R  578   1.578   3.868   9.803
    44G12  O00I  579   1.699   3.803   9.808
    44G12  C02Q  580   1.706   3.685   9.736
    44G12  H01N  581   1.812   3.662   9.742
    44G12  H01R  582   1.680   3.706   9.632
    44G12  H01Q  583   1.641   3.608   9.778
    44G12  C02A  584   1.447   3.813   9.764
    44G12  H011  585   1.441   3.709   9.738
    44G12  C00C  586   0.940   4.011   9.599
    44G12  H012  587   1.004   4.068   9.664
    44G12  C00B  588   0.892   4.069   9.481
    44G12  C00A  589   0.924   4.196   9.422
    44G12  C009  590   0.947   4.326   9.484
    44G12  C008  591   0.950   4.372   9.616
    44G12  H013  592   0.953   4.304   9.699
    44G12  C007  593   0.927   4.509   9.642
    44G12  H014  594   0.921   4.539   9.746
    44G12  C006  595   0.890   4.600   9.542
    44G12  C005  596   0.879   4.550   9.417
    44G12  C004  597   0.811   4.619   9.313
    44G12  C003  598   0.781   4.552   9.190
    44G12  C002  599   0.706   4.630   9.088
    44G12  C001  600   0.651   4.596   8.965
    44G12  C00M  601   0.581   4.474   8.937
    44G12  C00L  602   0.634   4.349   8.970
    44G12  C00R  603   0.555   4.226   8.972
    44G12  C00Q  604   0.421   4.200   8.927
    44G12  C00V  605   0.385   4.065   8.963
    44G12  C00U  606   0.457   3.984   9.056
    44G12  C00T  607   0.579   4.018   9.109
    44G12  C016  608   0.637   3.975   9.228
    44G12  C015  609   0.579   3.861   9.283
    44G12  C010  610   0.457   3.819   9.230
    44G12  C011  611   0.396   3.710   9.301
    44G12  H005  612   0.298   3.672   9.274
    44G12  C012  613   0.446   3.662   9.425
    44G12  C017  614   0.368   3.572   9.505
    44G12  O002  615   0.232   3.589   9.523
    44G12  H004  616   0.222   3.665   9.467
    44G12  C018  617   0.428   3.472   9.571
    44G12  O001  618   0.566   3.454   9.577
    44G12  H003  619   0.586   3.379   9.631
    44G12  C019  620   0.347   3.369   9.659
    44G12  H002  621   0.323   3.421   9.751
    44G12  H001  622   0.252   3.345   9.610
    44G12  O000  623   0.438   3.254   9.683
    44G12  C01A  624   0.453   3.160   9.586
    44G12  C02K  625   0.581   3.104   9.577
    44G12  O00G  626   0.679   3.138   9.661
    44G12  C02M  627   0.713   3.047   9.759
    44G12  H01G  628   0.788   2.977   9.724
    44G12  H01F  629   0.623   2.994   9.792
    44G12  H01E  630   0.744   3.098   9.850
    44G12  C02J  631   0.615   3.012   9.471
    44G12  H01H  632   0.717   2.975   9.469
    44G12  C02I  633   0.523   2.989   9.369
    44G12  C02N  634   0.563   2.904   9.262
    44G12  H01M  635   0.665   2.868   9.265
    44G12  C02O  636   0.480   2.859   9.170
    44G12  H01L  637   0.376   2.886   9.163
    44G12  C02P  638   0.521   2.758   9.065
    44G12  H01K  639   0.604   2.693   9.093
    44G12  H01J  640   0.433   2.698   9.041
    44G12  O00H  641   0.548   2.825   8.939
    44G12  H01I  642   0.557   2.917   8.957
    44G12  C02H  643   0.397   3.043   9.386
    44G12  H01C  644   0.322   3.026   9.311
    44G12  C02L  645   0.359   3.125   9.492
    44G12  H01D  646   0.261   3.169   9.491
    44G12  C013  647   0.567   3.706   9.467
    44G12  H000  648   0.603   3.676   9.564
    44G12  C014  649   0.638   3.807   9.397
    44G12  C00F  650   0.756   3.866   9.452
    44G12  C00H  651   0.746   4.039   9.285
    44G12  C00I  652   0.798   4.155   9.224
    44G12  C00J  653   0.735   4.202   9.104
    44G12  C00Z  654   0.393   3.879   9.122
    44G12  C00Y  655   0.269   3.831   9.071
    44G12  H006  656   0.216   3.742   9.100
    44G12  C00X  657   0.204   3.899   8.967
    44G12  O003  658   0.079   3.857   8.917
    44G12  C01B  659  -0.005   3.784   9.005
    44G12  H009  660   0.024   3.683   9.036
    44G12  H008  661  -0.098   3.754   8.955
    44G12  H007  662  -0.036   3.838   9.094
    44G12  C00W  663   0.256   4.024   8.927
    44G12  O004  664   0.165   4.097   8.845
    44G12  C01C  665   0.199   4.224   8.820
    44G12  H00A  666   0.144   4.276   8.743
    44G12  C00P  667   0.324   4.285   8.870
    44G12  C00O  668   0.324   4.428   8.885
    44G12  C01D  669   0.200   4.502   8.885
    44G12  H00S  670   0.109   4.446   8.868
    44G12  C01E  671   0.186   4.640   8.926
    44G12  O008  672   0.071   4.695   8.966
    44G12  C01V  673  -0.030   4.715   8.871
    44G12  C01Z  674  -0.171   4.687   8.921
    44G12  H00R  675  -0.242   4.699   8.840
    44G12  H00Q  676  -0.183   4.586   8.959
    44G12  O009  677  -0.193   4.777   9.030
    44G12  H00P  678  -0.110   4.805   9.066
    44G12  C01W  679  -0.003   4.759   8.745
    44G12  H00O  680   0.101   4.770   8.717
    44G12  C01X  681  -0.106   4.789   8.634
    44G12  H00N  682  -0.199   4.819   8.683
    44G12  H00M  683  -0.070   4.873   8.575
    44G12  C01Y  684  -0.119   4.662   8.550
    44G12  C02D  685  -0.242   4.603   8.507
    44G12  H019  686  -0.337   4.632   8.548
    44G12  C02C  687  -0.239   4.494   8.417
    44G12  H01A  688  -0.328   4.441   8.387
    44G12  C02B  689  -0.116   4.443   8.366
    44G12  O00E  690  -0.118   4.339   8.289
    44G12  H01B  691  -0.033   4.320   8.251
    44G12  C02F  692   0.000   4.486   8.422
    44G12  O00F  693   0.113   4.434   8.381
    44G12  C02G  694   0.161   4.339   8.475
    44G12  H017  695   0.216   4.259   8.426
    44G12  H016  696   0.082   4.294   8.536
    44G12  H015  697   0.234   4.381   8.545
    44G12  C02E  698   0.005   4.600   8.505
    44G12  H018  699   0.104   4.638   8.524
    44G12  C01F  700   0.308   4.708   8.959
    44G12  C01G  701   0.318   4.824   9.033
    44G12  H00L  702   0.227   4.875   9.060
    44G12  C01H  703   0.440   4.871   9.086
    44G12  H00B  704   0.440   4.951   9.159
    44G12  C01I  705   0.556   4.794   9.044
    44G12  C01U  706   0.432   4.641   8.927
    44G12  C00S  707   0.630   4.137   9.051
    44G12  C00K  708   0.735   4.339   9.069
    44G12  C00N  709   0.440   4.504   8.908
    44G12  C000  710   0.554   4.703   8.940
    44G12  C01J  711   0.660   4.757   9.131
    44G12  C01K  712   0.691   4.826   9.253
    44G12  C01P  713   0.667   4.965   9.288
    44G12  C01Q  714   0.662   5.070   9.188
    44G12  H00G  715   0.601   5.158   9.203
    44G12  C01R  716   0.733   5.061   9.077
    44G12  H00F  717   0.800   4.977   9.073
    44G12  C01S  718   0.741   5.161   8.957
    44G12  H00E  719   0.847   5.182   8.940
    44G12  H00D  720   0.722   5.109   8.863
    44G12  O005  721   0.665   5.271   8.962
    44G12  H00C  722   0.703   5.335   8.903
    44G12  C01O  723   0.687   5.010   9.420
    44G12  H00H  724   0.658   5.109   9.452
    44G12  C01N  725   0.761   4.931   9.511
    44G12  O006  726   0.793   4.973   9.638
    44G12  C01T  727   0.752   5.095   9.692
    44G12  H00K  728   0.780   5.183   9.634
    44G12  H00J  729   0.809   5.104   9.784
    44G12  H00I  730   0.644   5.088   9.705
    44G12  C01M  731   0.795   4.799   9.474
    44G12  C020  732   0.816   4.417   9.160
    44G12  C021  733   0.900   4.362   9.262
    44G12  C01L  734   0.764   4.744   9.342
    44G12  O007  735   0.850   4.724   9.574
    44G12  C022  736   0.924   4.427   9.380
    44G12  C023  737   0.889   4.228   9.291
    44G12  C00G  738   0.798   3.993   9.405
    44G12  C00E  739   0.822   3.815   9.566
    44G12  O00A  740   0.824   3.680   9.596
    44G12  C024  741   0.872   3.599   9.486
    44G12  H00V  742   0.793   3.604   9.411
    44G12  H00U  743   0.890   3.495   9.512
    44G12  H00T  744   0.946   3.645   9.420
    54G12  C00D  745   2.537   6.180   8.217
    54G12  O00B  746   2.597   6.185   8.093
    54G12  C025  747   2.711   6.257   8.085
    54G12  C026  748   2.681   6.407   8.057
    54G12  H00Y  749   2.772   6.465   8.071
    54G12  H00X  750   2.605   6.440   8.128
    54G12  O00C  751   2.629   6.413   7.928
    54G12  H00W  752   2.634   6.321   7.906
    54G12  C027  753   2.828   6.199   8.086
    54G12  O00D  754   2.839   6.059   8.096
    54G12  H00Z  755   2.752   6.024   8.104
    54G12  C028  756   2.947   6.274   8.057
    54G12  C029  757   2.990   6.383   8.142
    54G12  H010  758   2.935   6.408   8.232
    54G12  C02T  759   3.101   6.461   8.109
    54G12  H01O  760   3.125   6.547   8.171
    54G12  C02S  761   3.166   6.429   7.986
    54G12  O00J  762   3.283   6.492   7.947
    54G12  H01P  763   3.322   6.440   7.879
    54G12  C02R  764   3.138   6.317   7.905
    54G12  O00I  765   3.224   6.277   7.808
    54G12  C02Q  766   3.182   6.169   7.723
    54G12  H01N  767   3.085   6.190   7.677
    54G12  H01R  768   3.170   6.078   7.782
    54G12  H01Q  769   3.250   6.147   7.641
    54G12  C02A  770   3.027   6.238   7.947
    54G12  H011  771   2.991   6.148   7.900
    54G12  C00C  772   2.602   6.196   8.338
    54G12  H012  773   2.710   6.208   8.333
    54G12  C00B  774   2.529   6.211   8.459
    54G12  C00A  775   2.580   6.238   8.589
    54G12  C009  776   2.710   6.199   8.646
    54G12  C008  777   2.824   6.133   8.598
    54G12  H013  778   2.838   6.119   8.492
    54G12  C007  779   2.915   6.073   8.695
    54G12  H014  780   3.001   6.025   8.650
    54G12  C006  781   2.888   6.085   8.837
    54G12  C005  782   2.766   6.143   8.875
    54G12  C004  783   2.706   6.130   9.002
    54G12  C003  784   2.573   6.167   9.027
    54G12  C002  785   2.519   6.131   9.153
    54G12  C001  786   2.393   6.147   9.214
    54G12  C00M  787   2.260   6.135   9.161
    54G12  C00L  788   2.243   6.177   9.027
    54G12  C00R  789   2.133   6.147   8.940
    54G12  C00Q  790   2.014   6.068   8.958
    54G12  C00V  791   1.946   6.042   8.843
    54G12  C00U  792   1.986   6.077   8.712
    54G12  C00T  793   2.102   6.148   8.690
    54G12  C016  794   2.174   6.165   8.572
    54G12  C015  795   2.119   6.108   8.463
    54G12  C010  796   1.990   6.061   8.474
    54G12  C011  797   1.926   6.017   8.355
    54G12  H005  798   1.819   6.001   8.356
    54G12  C012  799   1.994   6.013   8.227
    54G12  C017  800   1.934   5.975   8.099
    54G12  O002  801   1.961   6.049   7.984
    54G12  H004  802   1.919   6.002   7.914
    54G12  C018  803   1.865   5.859   8.088
    54G12  O001  804   1.840   5.780   8.202
    54G12  H003  805   1.912   5.802   8.259
    54G12  C019  806   1.824   5.799   7.958
    54G12  H002  807   1.880   5.707   7.945
    54G12  H001  808   1.723   5.757   7.964
    54G12  O000  809   1.827   5.888   7.843
    54G12  C01A  810   1.774   5.828   7.732
    54G12  C02K  811   1.673   5.907   7.662
    54G12  O00G  812   1.648   6.036   7.707
    54G12  C02M  813   1.510   6.057   7.739
    54G12  H01G  814   1.500   6.142   7.806
    54G12  H01F  815   1.455   5.973   7.782
    54G12  H01E  816   1.451   6.074   7.649
    54G12  C02J  817   1.591   5.842   7.564
    54G12  H01H  818   1.507   5.896   7.523
    54G12  C02I  819   1.606   5.704   7.535
    54G12  C02N  820   1.524   5.649   7.426
    54G12  H01M  821   1.453   5.698   7.361
    54G12  C02O  822   1.530   5.520   7.392
    54G12  H01L  823   1.595   5.457   7.450
    54G12  C02P  824   1.475   5.448   7.265
    54G12  H01K  825   1.399   5.380   7.303
    54G12  H01J  826   1.432   5.525   7.201
    54G12  O00H  827   1.572   5.355   7.219
    54G12  H01I  828   1.644   5.399   7.175
    54G12  C02H  829   1.723   5.644   7.587
    54G12  H01C  830   1.755   5.543   7.562
    54G12  C02L  831   1.804   5.699   7.689
    54G12  H01D  832   1.884   5.637   7.728
    54G12  C013  833   2.124   6.057   8.226
    54G12  H000  834   2.174   6.038   8.133
    54G12  C014  835   2.191   6.102   8.345
    54G12  C00F  836   2.322   6.151   8.339
    54G12  C00H  837   2.307   6.212   8.573
    54G12  C00I  838   2.364   6.257   8.694
    54G12  C00J  839   2.288   6.237   8.812
    54G12  C00Z  840   1.924   6.040   8.593
    54G12  C00Y  841   1.814   5.958   8.606
    54G12  H006  842   1.759   5.922   8.520
    54G12  C00X  843   1.761   5.924   8.734
    54G12  O003  844   1.654   5.834   8.751
    54G12  C01B  845   1.585   5.779   8.644
    54G12  H009  846   1.528   5.854   8.588
    54G12  H008  847   1.507   5.717   8.688
    54G12  H007  848   1.635   5.714   8.572
    54G12  C00W  849   1.829   5.963   8.850
    54G12  O004  850   1.775   5.913   8.968
    54G12  C01C  851   1.843   5.940   9.081
    54G12  H00A  852   1.785   5.945   9.172
    54G12  C00P  853   1.975   5.990   9.075
    54G12  C00O  854   2.062   5.963   9.192
    54G12  C01D  855   2.032   5.848   9.275
    54G12  H00S  856   1.948   5.782   9.263
    54G12  C01E  857   2.127   5.797   9.371
    54G12  O008  858   2.104   5.683   9.447
    54G12  C01V  859   2.053   5.718   9.574
    54G12  C01Z  860   2.137   5.657   9.692
    54G12  H00R  861   2.238   5.643   9.655
    54G12  H00Q  862   2.125   5.731   9.772
    54G12  O009  863   2.099   5.528   9.739
    54G12  H00P  864   2.095   5.462   9.671
    54G12  C01W  865   1.941   5.795   9.588
    54G12  H00O  866   1.895   5.828   9.496
    54G12  C01X  867   1.880   5.846   9.717
    54G12  H00N  868   1.776   5.851   9.688
    54G12  H00M  869   1.899   5.771   9.795
    54G12  C01Y  870   1.914   5.988   9.768
    54G12  C02D  871   2.050   6.035   9.768
    54G12  H019  872   2.131   5.969   9.740
    54G12  C02C  873   2.074   6.162   9.817
    54G12  H01A  874   2.178   6.191   9.820
    54G12  C02B  875   1.970   6.252   9.856
    54G12  O00E  876   2.003   6.375   9.898
    54G12  H01B  877   1.917   6.415   9.902
    54G12  C02F  878   1.839   6.209   9.858
    54G12  O00F  879   1.744   6.307   9.886
    54G12  C02G  880   1.613   6.274   9.857
    54G12  H017  881   1.555   6.365   9.866
    54G12  H016  882   1.572   6.208   9.933
    54G12  H015  883   1.602   6.239   9.754
    54G12  C02E  884   1.811   6.074   9.811
    54G12  H018  885   1.708   6.046   9.797
    54G12  C01F  886   2.255   5.858   9.380
    54G12  C01G  887   2.374   5.796   9.423
    54G12  H00L  888   2.365   5.695   9.458
    54G12  C01H  889   2.504   5.851   9.399
    54G12  H00B  890   2.596   5.795   9.407
    54G12  C01I  891   2.511   5.981   9.332
    54G12  C01U  892   2.273   5.988   9.326
    54G12  C00S  893   2.163   6.191   8.810
    54G12  C00K  894   2.350   6.218   8.940
    54G12  C00N  895   2.186   6.029   9.223
    54G12  C000  896   2.394   6.057   9.325
    54G12  C01J  897   2.599   6.046   9.233
    54G12  C01K  898   2.741   6.015   9.217
    54G12  C01P  899   2.835   5.971   9.313
    54G12  C01Q  900   2.797   5.961   9.451
    54G12  H00G  901   2.733   6.036   9.495
    54G12  C01R  902   2.839   5.866   9.533
    54G12  H00F  903   2.903   5.780   9.515
    54G12  C01S  904   2.791   5.865   9.674
    54G12  H00E  905   2.881   5.851   9.734
    54G12  H00D  906   2.749   5.961   9.703
    54G12  O005  907   2.693   5.766   9.695
    54G12  H00C  908   2.610   5.800   9.663
    54G12  C01O  909   2.964   5.933   9.275
    54G12  H00H  910   3.036   5.896   9.348
    54G12  C01N  911   3.002   5.944   9.140
    54G12  O006  912   3.120   5.895   9.089
    54G12  C01T  913   3.215   5.820   9.169
    54G12  H00K  914   3.298   5.788   9.105
    54G12  H00J  915   3.181   5.727   9.214
    54G12  H00I  916   3.258   5.893   9.238
    54G12  C01M  917   2.917   6.016   9.049
    54G12  C020  918   2.493   6.227   8.929
    54G12  C021  919   2.565   6.269   8.814
    54G12  C01L  920   2.783   6.051   9.088
    54G12  O007  921   2.973   6.034   8.926
    54G12  C022  922   2.690   6.227   8.788
    54G12  C023  923   2.501   6.282   8.692
    54G12  C00G  924   2.385   6.197   8.457
    54G12  C00E  925   2.399   6.159   8.215
    54G12  O00A  926   2.345   6.150   8.088
    54G12  C024  927   2.285   6.274   8.045
    54G12  H00V  928   2.350   6.358   8.068
    54G12  H00U  929   2.195   6.306   8.096
    54G12  H00T  930   2.260   6.263   7.939
    64G12  C00D  931   5.826   0.987   3.744
    64G12  O00B  932   5.941   0.980   3.825
    64G12  C025  933   6.023   0.876   3.811
    64G12  C026  934   6.165   0.924   3.781
    64G12  H00Y  935   6.244   0.850   3.794
    64G12  H00X  936   6.187   1.003   3.853
    64G12  O00C  937   6.183   0.977   3.647
    64G12  H00W  938   6.155   1.067   3.639
    64G12  C027  939   5.978   0.750   3.829
    64G12  O00D  940   5.853   0.737   3.870
    64G12  H00Z  941   5.808   0.820   3.862
    64G12  C028  942   6.062   0.637   3.814
    64G12  C029  943   6.163   0.631   3.713
    64G12  H010  944   6.187   0.710   3.644
    64G12  C02T  945   6.250   0.521   3.700
    64G12  H01O  946   6.313   0.522   3.612
    64G12  C02S  947   6.240   0.405   3.783
    64G12  O00J  948   6.312   0.295   3.754
    64G12  H01P  949   6.290   0.218   3.804
    64G12  C02R  950   6.129   0.401   3.867
    64G12  O00I  951   6.094   0.276   3.922
    64G12  C02Q  952   5.992   0.268   4.016
    64G12  H01N  953   5.990   0.353   4.084
    64G12  H01R  954   6.008   0.172   4.064
    64G12  H01Q  955   5.895   0.258   3.967
    64G12  C02A  956   6.050   0.516   3.894
    64G12  H011  957   5.970   0.530   3.965
    64G12  C00C  958   5.810   0.928   3.616
    64G12  H012  959   5.891   0.866   3.581
    64G12  C00B  960   5.695   0.943   3.534
    64G12  C00A  961   5.670   0.885   3.408
    64G12  C009  962   5.760   0.859   3.303
    64G12  C008  963   5.899   0.858   3.291
    64G12  H013  964   5.971   0.867   3.370
    64G12  C007  965   5.957   0.850   3.158
    64G12  H014  966   6.064   0.845   3.146
    64G12  C006  967   5.878   0.872   3.039
    64G12  C005  968   5.740   0.875   3.059
    64G12  C004  969   5.653   0.925   2.959
    64G12  C003  970   5.516   0.956   2.993
    64G12  C002  971   5.442   1.019   2.887
    64G12  C001  972   5.305   1.068   2.882
    64G12  C00M  973   5.236   1.139   2.985
    64G12  C00L  974   5.248   1.105   3.123
    64G12  C00R  975   5.209   1.184   3.235
    64G12  C00Q  976   5.132   1.304   3.243
    64G12  C00V  977   5.112   1.348   3.380
    64G12  C00U  978   5.191   1.305   3.486
    64G12  C00T  979   5.277   1.195   3.471
    64G12  C016  980   5.386   1.153   3.551
    64G12  C015  981   5.396   1.216   3.672
    64G12  C010  982   5.302   1.317   3.707
    64G12  C011  983   5.297   1.361   3.842
    64G12  H005  984   5.225   1.439   3.863
    64G12  C012  985   5.394   1.317   3.932
    64G12  C017  986   5.408   1.381   4.061
    64G12  O002  987   5.410   1.299   4.174
    64G12  H004  988   5.418   1.208   4.150
    64G12  C018  989   5.407   1.518   4.068
    64G12  O001  990   5.390   1.598   3.955
    64G12  H003  991   5.390   1.684   3.993
    64G12  C019  992   5.410   1.597   4.192
    64G12  H002  993   5.349   1.542   4.264
    64G12  H001  994   5.508   1.603   4.239
    64G12  O000  995   5.366   1.733   4.164
    64G12  C01A  996   5.372   1.812   4.272
    64G12  C02K  997   5.461   1.926   4.279
    64G12  O00G  998   5.546   1.956   4.175
    64G12  C02M  999   5.660   1.874   4.177
    64G12  H01G 1000   5.637   1.768   4.165
    64G12  H01F 1001   5.724   1.885   4.265
    64G12  H01E 1002   5.727   1.898   4.095
    64G12  C02J 1003   5.457   2.007   4.390
    64G12  H01H 1004   5.521   2.093   4.380
    64G12  C02I 1005   5.360   1.990   4.499
    64G12  C02N 1006   5.342   2.075   4.614
    64G12  H01M 1007   5.249   2.103   4.662
    64G12  C02O 1008   5.456   2.141   4.665
    64G12  H01L 1009   5.551   2.130   4.614
    64G12  C02P 1010   5.449   2.240   4.782
    64G12  H01K 1011   5.502   2.201   4.868
    64G12  H01J 1012   5.492   2.337   4.758
    64G12  O00H 1013   5.317   2.270   4.834
    64G12  H01I 1014   5.328   2.314   4.917
    64G12  C02H 1015   5.287   1.868   4.495
    64G12  H01C 1016   5.211   1.847   4.568
    64G12  C02L 1017   5.293   1.782   4.382
    64G12  H01D 1018   5.226   1.698   4.377
    64G12  C013 1019   5.489   1.221   3.892
    64G12  H000 1020   5.554   1.182   3.969
    64G12  C014 1021   5.494   1.170   3.760
    64G12  C00F 1022   5.598   1.082   3.715
    64G12  C00H 1023   5.469   1.049   3.513
    64G12  C00I 1024   5.440   0.982   3.394
    64G12  C00J 1025   5.335   1.024   3.313
    64G12  C00Z 1026   5.207   1.365   3.609
    64G12  C00Y 1027   5.121   1.475   3.641
    64G12  H006 1028   5.112   1.519   3.739
    64G12  C00X 1029   5.033   1.516   3.539
    64G12  O003 1030   4.942   1.612   3.568
    64G12  C01B 1031   4.987   1.745   3.532
    64G12  H009 1032   4.904   1.809   3.564
    64G12  H008 1033   4.993   1.753   3.423
    64G12  H007 1034   5.085   1.771   3.571
    64G12  C00W 1035   5.037   1.464   3.405
    64G12  O004 1036   4.968   1.525   3.308
    64G12  C01C 1037   5.001   1.497   3.178
    64G12  H00A 1038   4.950   1.555   3.103
    64G12  C00P 1039   5.089   1.390   3.144
    64G12  C00O 1040   5.140   1.380   3.008
    64G12  C01D 1041   5.133   1.502   2.925
    64G12  H00S 1042   5.091   1.593   2.965
    64G12  C01E 1043   5.217   1.513   2.806
    64G12  O008 1044   5.246   1.638   2.752
    64G12  C01V 1045   5.214   1.752   2.819
    64G12  C01Z 1046   5.312   1.815   2.915
    64G12  H00R 1047   5.415   1.788   2.892
    64G12  H00Q 1048   5.310   1.923   2.902
    64G12  O009 1049   5.268   1.778   3.048
    64G12  H00P 1050   5.284   1.688   3.072
    64G12  C01W 1051   5.095   1.801   2.784
    64G12  H00O 1052   5.026   1.752   2.717
    64G12  C01X 1053   5.038   1.923   2.854
    64G12  H00N 1054   4.931   1.919   2.871
    64G12  H00M 1055   5.095   1.929   2.947
    64G12  C01Y 1056   5.069   2.049   2.776
    64G12  C02D 1057   5.178   2.055   2.686
    64G12  H019 1058   5.251   1.980   2.661
    64G12  C02C 1059   5.206   2.171   2.614
    64G12  H01A 1060   5.289   2.175   2.546
    64G12  C02B 1061   5.128   2.283   2.638
    64G12  O00E 1062   5.159   2.392   2.563
    64G12  H01B 1063   5.088   2.454   2.569
    64G12  C02F 1064   5.033   2.292   2.736
    64G12  O00F 1065   4.973   2.416   2.752
    64G12  C02G 1066   4.876   2.429   2.848
    64G12  H017 1067   4.849   2.535   2.859
    64G12  H016 1068   4.918   2.408   2.947
    64G12  H015 1069   4.790   2.368   2.820
    64G12  C02E 1070   5.003   2.170   2.809
    64G12  H018 1071   4.917   2.179   2.874
    64G12  C01F 1072   5.279   1.394   2.752
    64G12  C01G 1073   5.379   1.390   2.649
    64G12  H00L 1074   5.413   1.481   2.602
    64G12  C01H 1075   5.462   1.271   2.629
    64G12  H00B 1076   5.554   1.286   2.575
    64G12  C01I 1077   5.428   1.156   2.707
    64G12  C01U 1078   5.238   1.270   2.802
    64G12  C00S 1079   5.259   1.131   3.350
    64G12  C00K 1080   5.344   1.012   3.169
    64G12  C00N 1081   5.190   1.266   2.939
    64G12  C000 1082   5.299   1.150   2.764
    64G12  C01J 1083   5.508   1.059   2.769
    64G12  C01K 1084   5.631   1.004   2.723
    64G12  C01P 1085   5.693   1.002   2.593
    64G12  C01Q 1086   5.613   1.029   2.474
    64G12  H00G 1087   5.644   1.098   2.396
    64G12  C01R 1088   5.501   0.957   2.460
    64G12  H00F 1089   5.460   0.892   2.536
    64G12  C01S 1090   5.422   0.955   2.326
    64G12  H00E 1091   5.500   0.967   2.252
    64G12  H00D 1092   5.373   0.859   2.308
    64G12  O005 1093   5.330   1.057   2.311
    64G12  H00C 1094   5.276   1.074   2.386
    64G12  C01O 1095   5.832   0.985   2.582
    64G12  H00H 1096   5.866   0.999   2.480
    64G12  C01N 1097   5.909   0.935   2.687
    64G12  O006 1098   6.041   0.901   2.670
    64G12  C01T 1099   6.065   0.787   2.598
    64G12  H00K 1100   6.011   0.786   2.504
    64G12  H00J 1101   6.033   0.700   2.654
    64G12  H00I 1102   6.171   0.780   2.571
    64G12  C01M 1103   5.847   0.919   2.810
    64G12  C020 1104   5.456   0.938   3.120
    64G12  C021 1105   5.544   0.864   3.208
    64G12  C01L 1106   5.704   0.946   2.829
    64G12  O007 1107   5.927   0.881   2.914
    64G12  C022 1108   5.678   0.843   3.180
    64G12  C023 1109   5.540   0.892   3.351
    64G12  C00G 1110   5.588   1.022   3.587
    64G12  C00E 1111   5.722   1.068   3.786
    64G12  O00A 1112   5.757   1.143   3.900
    64G12  C024 1113   5.816   1.270   3.864
    64G12  H00V 1114   5.829   1.335   3.950
    64G12  H00U 1115   5.752   1.321   3.792
    64G12  H00T 1116   5.906   1.245   3.808
    74G12  C00D 1117   4.342   5.833   9.061
    74G12  O00B 1118   4.227   5.779   9.113
    74G12  C025 1119   4.166   5.664   9.058
    74G12  C026 1120   4.039   5.700   8.992
    74G12  H00Y 1121   3.998   5.617   8.934
    74G12  H00X 1122   4.052   5.781   8.920
    74G12  O00C 1123   3.954   5.744   9.097
    74G12  H00W 1124   3.989   5.820   9.140
    74G12  C027 1125   4.226   5.542   9.058
    74G12  O00D 1126   4.343   5.517   9.119
    74G12  H00Z 1127   4.381   5.601   9.140
    74G12  C028 1128   4.154   5.427   9.009
    74G12  C029 1129   4.024   5.398   9.059
    74G12  H010 1130   3.969   5.462   9.126
    74G12  C02T 1131   3.958   5.274   9.024
    74G12  H01O 1132   3.862   5.244   9.064
    74G12  C02S 1133   4.025   5.180   8.941
    74G12  O00J 1134   3.963   5.065   8.916
    74G12  H01P 1135   4.024   5.014   8.865
    74G12  C02R 1136   4.154   5.212   8.893
    74G12  O00I 1137   4.219   5.105   8.841
    74G12  C02Q 1138   4.343   5.125   8.791
    74G12  H01N 1139   4.415   5.180   8.852
    74G12  H01R 1140   4.348   5.168   8.691
    74G12  H01Q 1141   4.374   5.022   8.772
    74G12  C02A 1142   4.210   5.344   8.922
    74G12  H011 1143   4.310   5.372   8.891
    74G12  C00C 1144   4.327   5.921   8.950
    74G12  H012 1145   4.230   5.930   8.904
    74G12  C00B 1146   4.435   5.999   8.907
    74G12  C00A 1147   4.436   6.103   8.813
    74G12  C009 1148   4.341   6.148   8.708
    74G12  C008 1149   4.216   6.101   8.668
    74G12  H013 1150   4.164   6.030   8.731
    74G12  C007 1151   4.171   6.128   8.537
    74G12  H014 1152   4.075   6.088   8.510
    74G12  C006 1153   4.255   6.187   8.440
    74G12  C005 1154   4.378   6.228   8.488
    74G12  C004 1155   4.479   6.257   8.396
    74G12  C003 1156   4.616   6.281   8.441
    74G12  C002 1157   4.717   6.302   8.344
    74G12  C001 1158   4.858   6.310   8.349
    74G12  C00M 1159   4.944   6.233   8.435
    74G12  C00L 1160   4.924   6.228   8.572
    74G12  C00R 1161   4.994   6.140   8.658
    74G12  C00Q 1162   5.116   6.064   8.639
    74G12  C00V 1163   5.141   5.975   8.752
    74G12  C00U 1164   5.042   5.940   8.848
    74G12  C00T 1165   4.920   6.015   8.859
    74G12  C016 1166   4.808   5.978   8.931
    74G12  C015 1167   4.827   5.878   9.015
    74G12  C010 1168   4.953   5.809   9.026
    74G12  C011 1169   4.975   5.722   9.139
    74G12  H005 1170   5.068   5.666   9.149
    74G12  C012 1171   4.874   5.685   9.229
    74G12  C017 1172   4.893   5.589   9.338
    74G12  O002 1173   4.964   5.474   9.318
    74G12  H004 1174   5.000   5.470   9.231
    74G12  C018 1175   4.836   5.611   9.458
    74G12  O001 1176   4.763   5.719   9.494
    74G12  H003 1177   4.730   5.689   9.577
    74G12  C019 1178   4.844   5.511   9.574
    74G12  H002 1179   4.875   5.415   9.532
    74G12  H001 1180   4.924   5.555   9.634
    74G12  O000 1181   4.725   5.505   9.647
    74G12  C01A 1182   4.608   5.453   9.592
    74G12  C02K 1183   4.494   5.458   9.673
    74G12  O00G 1184   4.503   5.512   9.798
    74G12  C02M 1185   4.389   5.523   9.876
    74G12  H01G 1186   4.431   5.588   9.953
    74G12  H01F 1187   4.358   5.431   9.924
    74G12  H01E 1188   4.299   5.570   9.837
    74G12  C02J 1189   4.369   5.420   9.626
    74G12  H01H 1190   4.279   5.434   9.684
    74G12  C02I 1191   4.358   5.375   9.492
    74G12  C02N 1192   4.229   5.348   9.424
    74G12  H01M 1193   4.221   5.348   9.316
    74G12  C02O 1194   4.111   5.321   9.483
    74G12  H01L 1195   4.114   5.303   9.589
    74G12  C02P 1196   3.974   5.309   9.420
    74G12  H01K 1197   3.972   5.357   9.323
    74G12  H01J 1198   3.935   5.207   9.422
    74G12  O00H 1199   3.896   5.389   9.508
    74G12  H01I 1200   3.936   5.474   9.515
    74G12  C02H 1201   4.473   5.351   9.418
    74G12  H01C 1202   4.463   5.296   9.325
    74G12  C02L 1203   4.595   5.389   9.466
    74G12  H01D 1204   4.685   5.360   9.413
    74G12  C013 1205   4.747   5.740   9.200
    74G12  H000 1206   4.675   5.700   9.270
    74G12  C014 1207   4.720   5.831   9.094
    74G12  C00F 1208   4.587   5.875   9.064
    74G12  C00H 1209   4.685   6.035   8.910
    74G12  C00I 1210   4.676   6.148   8.822
    74G12  C00J 1211   4.792   6.200   8.762
    74G12  C00Z 1212   5.060   5.839   8.941
    74G12  C00Y 1213   5.181   5.765   8.934
    74G12  H006 1214   5.198   5.683   9.003
    74G12  C00X 1215   5.284   5.808   8.854
    74G12  O003 1216   5.397   5.740   8.869
    74G12  C01B 1217   5.518   5.808   8.898
    74G12  H009 1218   5.504   5.881   8.978
    74G12  H008 1219   5.539   5.877   8.815
    74G12  H007 1220   5.604   5.742   8.910
    74G12  C00W 1221   5.266   5.906   8.757
    74G12  O004 1222   5.369   5.933   8.670
    74G12  C01C 1223   5.333   5.986   8.546
    74G12  H00A 1224   5.420   6.028   8.498
    74G12  C00P 1225   5.206   6.051   8.527
    74G12  C00O 1226   5.157   6.086   8.397
    74G12  C01D 1227   5.213   6.017   8.287
    74G12  H00S 1228   5.307   5.965   8.298
    74G12  C01E 1229   5.152   6.012   8.160
    74G12  O008 1230   5.179   5.918   8.063
    74G12  C01V 1231   5.293   5.841   8.073
    74G12  C01Z 1232   5.390   5.884   7.961
    74G12  H00R 1233   5.350   5.970   7.906
    74G12  H00Q 1234   5.488   5.913   7.998
    74G12  O009 1235   5.413   5.770   7.874
    74G12  H00P 1236   5.341   5.713   7.897
    74G12  C01W 1237   5.321   5.747   8.172
    74G12  H00O 1238   5.250   5.730   8.252
    74G12  C01X 1239   5.444   5.658   8.178
    74G12  H00N 1240   5.410   5.562   8.215
    74G12  H00M 1241   5.476   5.627   8.079
    74G12  C01Y 1242   5.549   5.734   8.263
    74G12  C02D 1243   5.543   5.734   8.405
    74G12  H019 1244   5.470   5.671   8.455
    74G12  C02C 1245   5.635   5.809   8.480
    74G12  H01A 1246   5.634   5.816   8.588
    74G12  C02B 1247   5.734   5.877   8.415
    74G12  O00E 1248   5.832   5.942   8.484
    74G12  H01B 1249   5.892   5.988   8.428
    74G12  C02F 1250   5.745   5.881   8.273
    74G12  O00F 1251   5.826   5.979   8.212
    74G12  C02G 1252   5.783   6.041   8.089
    74G12  H017 1253   5.843   6.122   8.046
    74G12  H016 1254   5.685   6.085   8.105
    74G12  H015 1255   5.776   5.962   8.015
    74G12  C02E 1256   5.651   5.807   8.196
    74G12  H018 1257   5.661   5.794   8.089
    74G12  C01F 1258   5.047   6.100   8.136
    74G12  C01G 1259   4.961   6.089   8.027
    74G12  H00L 1260   4.984   6.033   7.938
    74G12  C01H 1261   4.831   6.152   8.033
    74G12  H00B 1262   4.763   6.125   7.954
    74G12  C01I 1263   4.797   6.242   8.132
    74G12  C01U 1264   5.017   6.198   8.227
    74G12  C00S 1265   4.917   6.131   8.776
    74G12  C00K 1266   4.789   6.239   8.623
    74G12  C00N 1267   5.052   6.173   8.362
    74G12  C000 1268   4.901   6.282   8.218
    74G12  C01J 1269   4.675   6.279   8.206
    74G12  C01K 1270   4.540   6.258   8.150
    74G12  C01P 1271   4.492   6.248   8.017
    74G12  C01Q 1272   4.588   6.283   7.907
    74G12  H00G 1273   4.661   6.362   7.908
    74G12  C01R 1274   4.563   6.234   7.781
    74G12  H00F 1275   4.492   6.155   7.763
    74G12  C01S 1276   4.639   6.272   7.652
    74G12  H00E 1277   4.704   6.189   7.626
    74G12  H00D 1278   4.563   6.268   7.574
    74G12  O005 1279   4.698   6.404   7.669
    74G12  H00C 1280   4.631   6.467   7.692
    74G12  C01O 1281   4.354   6.226   7.990
    74G12  H00H 1282   4.321   6.206   7.889
    74G12  C01N 1283   4.258   6.216   8.095
    74G12  O006 1284   4.133   6.177   8.070
    74G12  C01T 1285   4.033   6.277   8.102
    74G12  H00K 1286   4.055   6.371   8.053
    74G12  H00J 1287   4.005   6.301   8.205
    74G12  H00I 1288   3.942   6.238   8.055
    74G12  C01M 1289   4.309   6.232   8.221
    74G12  C020 1290   4.655   6.265   8.581
    74G12  C021 1291   4.541   6.252   8.663
    74G12  C01L 1292   4.449   6.253   8.258
    74G12  O007 1293   4.217   6.196   8.313
    74G12  C022 1294   4.415   6.229   8.623
    74G12  C023 1295   4.546   6.185   8.788
    74G12  C00G 1296   4.569   5.971   8.962
    74G12  C00E 1297   4.467   5.807   9.123
    74G12  O00A 1298   4.467   5.717   9.224
    74G12  C024 1299   4.440   5.765   9.350
    74G12  H00V 1300   4.520   5.822   9.397
    74G12  H00U 1301   4.392   5.692   9.415
    74G12  H00T 1302   4.355   5.832   9.345
    84G12  C00D 1303   1.774   5.576   6.677
    84G12  O00B 1304   1.648   5.538   6.707
    84G12  C025 1305   1.612   5.400   6.701
    84G12  C026 1306   1.595   5.360   6.556
    84G12  H00Y 1307   1.525   5.280   6.532
    84G12  H00X 1308   1.687   5.342   6.501
    84G12  O00C 1309   1.534   5.460   6.470
    84G12  H00W 1310   1.589   5.536   6.482
    84G12  C027 1311   1.590   5.333   6.818
    84G12  O00D 1312   1.601   5.421   6.920
    84G12  H00Z 1313   1.601   5.492   6.858
    84G12  C028 1314   1.569   5.191   6.838
    84G12  C029 1315   1.611   5.094   6.753
    84G12  H010 1316   1.673   5.119   6.668
    84G12  C02T 1317   1.584   4.957   6.771
    84G12  H01O 1318   1.630   4.881   6.710
    84G12  C02S 1319   1.503   4.918   6.880
    84G12  O00J 1320   1.496   4.783   6.912
    84G12  H01P 1321   1.475   4.779   7.004
    84G12  C02R 1322   1.462   5.015   6.974
    84G12  O00I 1323   1.390   4.961   7.077
    84G12  C02Q 1324   1.368   5.044   7.187
    84G12  H01N 1325   1.460   5.073   7.239
    84G12  H01R 1326   1.302   4.995   7.258
    84G12  H01Q 1327   1.316   5.128   7.141
    84G12  C02A 1328   1.494   5.152   6.953
    84G12  H011 1329   1.460   5.231   7.018
    84G12  C00C 1330   1.871   5.551   6.770
    84G12  H012 1331   1.863   5.491   6.860
    84G12  C00B 1332   1.999   5.615   6.752
    84G12  C00A 1333   2.102   5.617   6.852
    84G12  C009 1334   2.095   5.608   6.996
    84G12  C008 1335   1.998   5.570   7.091
    84G12  H013 1336   1.913   5.507   7.068
    84G12  C007 1337   1.999   5.628   7.218
    84G12  H014 1338   1.926   5.595   7.291
    84G12  C006 1339   2.104   5.710   7.252
    84G12  C005 1340   2.208   5.739   7.162
    84G12  C004 1341   2.300   5.848   7.178
    84G12  C003 1342   2.376   5.891   7.068
    84G12  C002 1343   2.471   5.999   7.102
    84G12  C001 1344   2.559   6.079   7.020
    84G12  C00M 1345   2.520   6.120   6.887
    84G12  C00L 1346   2.470   6.034   6.791
    84G12  C00R 1347   2.414   6.070   6.660
    84G12  C00Q 1348   2.411   6.197   6.594
    84G12  C00V 1349   2.337   6.189   6.470
    84G12  C00U 1350   2.246   6.081   6.444
    84G12  C00T 1351   2.247   5.965   6.516
    84G12  C016 1352   2.147   5.872   6.519
    84G12  C015 1353   2.049   5.884   6.426
    84G12  C010 1354   2.068   5.978   6.324
    84G12  C011 1355   1.982   5.974   6.213
    84G12  H005 1356   2.004   6.039   6.129
    84G12  C012 1357   1.876   5.879   6.199
    84G12  C017 1358   1.779   5.880   6.097
    84G12  O002 1359   1.655   5.909   6.136
    84G12  H004 1360   1.612   5.827   6.119
    84G12  C018 1361   1.808   5.840   5.969
    84G12  O001 1362   1.938   5.821   5.925
    84G12  H003 1363   1.937   5.777   5.841
    84G12  C019 1364   1.699   5.816   5.853
    84G12  H002 1365   1.604   5.844   5.897
    84G12  H001 1366   1.712   5.876   5.763
    84G12  O000 1367   1.700   5.676   5.829
    84G12  C01A 1368   1.570   5.623   5.813
    84G12  C02K 1369   1.480   5.614   5.919
    84G12  O00G 1370   1.533   5.640   6.046
    84G12  C02M 1371   1.447   5.641   6.158
    84G12  H01G 1372   1.485   5.680   6.253
    84G12  H01F 1373   1.409   5.540   6.176
    84G12  H01E 1374   1.370   5.715   6.139
    84G12  C02J 1375   1.352   5.565   5.897
    84G12  H01H 1376   1.280   5.541   5.974
    84G12  C02I 1377   1.309   5.532   5.768
    84G12  C02N 1378   1.182   5.472   5.737
    84G12  H01M 1379   1.173   5.426   5.640
    84G12  C02O 1380   1.076   5.480   5.826
    84G12  H01L 1381   1.089   5.530   5.921
    84G12  C02P 1382   0.934   5.426   5.805
    84G12  H01K 1383   0.870   5.501   5.852
    84G12  H01J 1384   0.914   5.404   5.700
    84G12  O00H 1385   0.916   5.315   5.893
    84G12  H01I 1386   0.954   5.237   5.856
    84G12  C02H 1387   1.392   5.545   5.660
    84G12  H01C 1388   1.369   5.526   5.556
    84G12  C02L 1389   1.525   5.587   5.688
    84G12  H01D 1390   1.590   5.590   5.602
    84G12  C013 1391   1.855   5.793   6.313
    84G12  H000 1392   1.781   5.715   6.301
    84G12  C014 1393   1.940   5.795   6.423
    84G12  C00F 1394   1.922   5.709   6.537
    84G12  C00H 1395   2.139   5.768   6.616
    84G12  C00I 1396   2.246   5.758   6.710
    84G12  C00J 1397   2.347   5.861   6.711
    84G12  C00Z 1398   2.157   6.086   6.339
    84G12  C00Y 1399   2.165   6.199   6.254
    84G12  H006 1400   2.102   6.211   6.167
    84G12  C00X 1401   2.250   6.306   6.274
    84G12  O003 1402   2.256   6.415   6.195
    84G12  C01B 1403   2.143   6.458   6.120
    84G12  H009 1404   2.074   6.509   6.186
    84G12  H008 1405   2.101   6.386   6.049
    84G12  H007 1406   2.178   6.540   6.058
    84G12  C00W 1407   2.337   6.304   6.386
    84G12  O004 1408   2.413   6.412   6.411
    84G12  C01C 1409   2.474   6.424   6.531
    84G12  H00A 1410   2.553   6.497   6.539
    84G12  C00P 1411   2.461   6.322   6.632
    84G12  C00O 1412   2.502   6.356   6.768
    84G12  C01D 1413   2.486   6.488   6.812
    84G12  H00S 1414   2.449   6.555   6.736
    84G12  C01E 1415   2.480   6.530   6.949
    84G12  O008 1416   2.449   6.658   6.992
    84G12  C01V 1417   2.399   6.734   6.890
    84G12  C01Z 1418   2.496   6.824   6.822
    84G12  H00R 1419   2.579   6.760   6.792
    84G12  H00Q 1420   2.458   6.876   6.734
    84G12  O009 1421   2.539   6.916   6.924
    84G12  H00P 1422   2.498   6.884   7.003
    84G12  C01W 1423   2.269   6.723   6.858
    84G12  H00O 1424   2.206   6.664   6.922
    84G12  C01X 1425   2.184   6.790   6.751
    84G12  H00N 1426   2.236   6.791   6.656
    84G12  H00M 1427   2.104   6.718   6.734
    84G12  C01Y 1428   2.130   6.934   6.775
    84G12  C02D 1429   2.182   7.017   6.875
    84G12  H019 1430   2.272   6.979   6.921
    84G12  C02C 1431   2.120   7.140   6.906
    84G12  H01A 1432   2.161   7.202   6.984
    84G12  C02B 1433   2.001   7.179   6.838
    84G12  O00E 1434   1.934   7.290   6.867
    84G12  H01B 1435   1.857   7.292   6.813
    84G12  C02F 1436   1.949   7.098   6.740
    84G12  O00F 1437   1.830   7.147   6.680
    84G12  C02G 1438   1.769   7.067   6.585
    84G12  H017 1439   1.730   6.971   6.619
    84G12  H016 1440   1.831   7.046   6.497
    84G12  H015 1441   1.685   7.121   6.542
    84G12  C02E 1442   2.011   6.973   6.711
    84G12  H018 1443   1.975   6.906   6.634
    84G12  C01F 1444   2.508   6.435   7.051
    84G12  C01G 1445   2.488   6.444   7.191
    84G12  H00L 1446   2.457   6.540   7.230
    84G12  C01H 1447   2.491   6.328   7.272
    84G12  H00B 1448   2.445   6.336   7.370
    84G12  C01I 1449   2.520   6.200   7.214
    84G12  C01U 1450   2.561   6.310   7.003
    84G12  C00S 1451   2.351   5.957   6.610
    84G12  C00K 1452   2.412   5.907   6.826
    84G12  C00N 1453   2.529   6.265   6.874
    84G12  C000 1454   2.586   6.201   7.087
    84G12  C01J 1455   2.470   6.066   7.229
    84G12  C01K 1456   2.402   6.009   7.341
    84G12  C01P 1457   2.417   6.044   7.475
    84G12  C01Q 1458   2.526   6.132   7.511
    84G12  H00G 1459   2.623   6.133   7.463
    84G12  C01R 1460   2.513   6.225   7.606
    84G12  H00F 1461   2.426   6.248   7.666
    84G12  C01S 1462   2.626   6.320   7.633
    84G12  H00E 1463   2.662   6.339   7.532
    84G12  H00D 1464   2.591   6.409   7.684
    84G12  O005 1465   2.714   6.248   7.721
    84G12  H00C 1466   2.801   6.280   7.703
    84G12  C01O 1467   2.333   5.992   7.576
    84G12  H00H 1468   2.342   6.026   7.678
    84G12  C01N 1469   2.230   5.899   7.544
    84G12  O006 1470   2.144   5.849   7.641
    84G12  C01T 1471   2.167   5.899   7.777
    84G12  H00K 1472   2.266   5.887   7.821
    84G12  H00J 1473   2.096   5.850   7.844
    84G12  H00I 1474   2.139   6.004   7.779
    84G12  C01M 1475   2.220   5.852   7.410
    84G12  C020 1476   2.371   5.831   6.938
    84G12  C021 1477   2.292   5.710   6.932
    84G12  C01L 1478   2.307   5.904   7.309
    84G12  O007 1479   2.116   5.762   7.381
    84G12  C022 1480   2.218   5.665   7.040
    84G12  C023 1481   2.227   5.671   6.818
    84G12  C00G 1482   2.024   5.693   6.637
    84G12  C00E 1483   1.794   5.652   6.566
    84G12  O00A 1484   1.686   5.667   6.485
    84G12  C024 1485   1.609   5.784   6.515
    84G12  H00V 1486   1.538   5.763   6.595
    84G12  H00U 1487   1.536   5.808   6.439
    84G12  H00T 1488   1.666   5.874   6.537
    94G12  C00D 1489   4.811   3.313   6.026
    94G12  O00B 1490   4.784   3.447   6.018
    94G12  C025 1491   4.678   3.488   5.935
    94G12  C026 1492   4.719   3.526   5.795
    94G12  H00Y 1493   4.806   3.591   5.795
    94G12  H00X 1494   4.642   3.583   5.744
    94G12  O00C 1495   4.745   3.407   5.719
    94G12  H00W 1496   4.820   3.422   5.663
    94G12  C027 1497   4.548   3.489   5.976
    94G12  O00D 1498   4.521   3.467   6.109
    94G12  H00Z 1499   4.598   3.446   6.159
    94G12  C028 1500   4.435   3.496   5.891
    94G12  C029 1501   4.334   3.595   5.917
    94G12  H010 1502   4.346   3.653   6.007
    94G12  C02T 1503   4.218   3.604   5.839
    94G12  H01O 1504   4.140   3.673   5.869
    94G12  C02S 1505   4.197   3.509   5.730
    94G12  O00J 1506   4.086   3.501   5.651
    94G12  H01P 1507   4.086   3.417   5.608
    94G12  C02R 1508   4.295   3.406   5.709
    94G12  O00I 1509   4.261   3.308   5.619
    94G12  C02Q 1510   4.321   3.184   5.611
    94G12  H01N 1511   4.264   3.128   5.537
    94G12  H01R 1512   4.311   3.112   5.692
    94G12  H01Q 1513   4.425   3.179   5.578
    94G12  C02A 1514   4.415   3.404   5.785
    94G12  H011 1515   4.492   3.331   5.764
    94G12  C00C 1516   4.726   3.214   5.974
    94G12  H012 1517   4.627   3.244   5.943
    94G12  C00B 1518   4.766   3.079   5.969
    94G12  C00A 1519   4.691   2.966   5.921
    94G12  C009 1520   4.546   2.954   5.910
    94G12  C008 1521   4.443   3.039   5.950
    94G12  H013 1522   4.452   3.147   5.955
    94G12  C007 1523   4.320   2.976   5.981
    94G12  H014 1524   4.237   3.040   6.007
    94G12  C006 1525   4.307   2.835   5.998
    94G12  C005 1526   4.419   2.756   5.970
    94G12  C004 1527   4.431   2.619   6.002
    94G12  C003 1528   4.555   2.556   5.999
    94G12  C002 1529   4.558   2.416   6.038
    94G12  C001 1530   4.664   2.317   6.052
    94G12  C00M 1531   4.796   2.338   6.113
    94G12  C00L 1532   4.850   2.464   6.098
    94G12  C00R 1533   4.963   2.513   6.162
    94G12  C00Q 1534   5.044   2.466   6.269
    94G12  C00V 1535   5.147   2.557   6.310
    94G12  C00U 1536   5.150   2.693   6.271
    94G12  C00T 1537   5.061   2.741   6.177
    94G12  C016 1538   5.036   2.876   6.136
    94G12  C015 1539   5.116   2.970   6.191
    94G12  C010 1540   5.211   2.929   6.284
    94G12  C011 1541   5.300   3.023   6.332
    94G12  H005 1542   5.391   2.990   6.380
    94G12  C012 1543   5.279   3.160   6.315
    94G12  C017 1544   5.361   3.256   6.383
    94G12  O002 1545   5.386   3.216   6.512
    94G12  H004 1546   5.423   3.282   6.569
    94G12  C018 1547   5.409   3.364   6.331
    94G12  O001 1548   5.384   3.402   6.205
    94G12  H003 1549   5.335   3.335   6.160
    94G12  C019 1550   5.511   3.453   6.402
    94G12  H002 1551   5.605   3.399   6.389
    94G12  H001 1552   5.512   3.548   6.350
    94G12  O000 1553   5.499   3.465   6.542
    94G12  C01A 1554   5.389   3.529   6.604
    94G12  C02K 1555   5.386   3.514   6.743
    94G12  O00G 1556   5.477   3.424   6.798
    94G12  C02M 1557   5.503   3.421   6.935
    94G12  H01G 1558   5.580   3.344   6.946
    94G12  H01F 1559   5.419   3.384   6.994
    94G12  H01E 1560   5.532   3.518   6.974
    94G12  C02J 1561   5.284   3.570   6.817
    94G12  H01H 1562   5.280   3.554   6.924
    94G12  C02I 1563   5.188   3.646   6.752
    94G12  C02N 1564   5.069   3.690   6.819
    94G12  H01M 1565   4.974   3.688   6.768
    94G12  C02O 1566   5.063   3.701   6.950
    94G12  H01L 1567   5.156   3.700   7.006
    94G12  C02P 1568   4.936   3.705   7.035
    94G12  H01K 1569   4.931   3.795   7.096
    94G12  H01J 1570   4.845   3.708   6.975
    94G12  O00H 1571   4.935   3.596   7.125
    94G12  H01I 1572   4.846   3.571   7.141
    94G12  C02H 1573   5.192   3.659   6.615
    94G12  H01C 1574   5.114   3.714   6.565
    94G12  C02L 1575   5.295   3.606   6.536
    94G12  H01D 1576   5.301   3.615   6.429
    94G12  C013 1577   5.162   3.196   6.242
    94G12  H000 1578   5.141   3.301   6.258
    94G12  C014 1579   5.084   3.100   6.166
    94G12  C00F 1580   4.972   3.139   6.094
    94G12  C00H 1581   4.931   2.904   6.047
    94G12  C00I 1582   4.865   2.804   5.984
    94G12  C00J 1583   4.900   2.671   6.018
    94G12  C00Z 1584   5.236   2.790   6.316
    94G12  C00Y 1585   5.331   2.748   6.409
    94G12  H006 1586   5.398   2.816   6.460
    94G12  C00X 1587   5.342   2.612   6.449
    94G12  O003 1588   5.438   2.580   6.540
    94G12  C01B 1589   5.561   2.650   6.522
    94G12  H009 1590   5.561   2.754   6.555
    94G12  H008 1591   5.606   2.627   6.426
    94G12  H007 1592   5.627   2.613   6.601
    94G12  C00W 1593   5.244   2.517   6.402
    94G12  O004 1594   5.254   2.389   6.444
    94G12  C01C 1595   5.141   2.314   6.439
    94G12  H00A 1596   5.135   2.235   6.512
    94G12  C00P 1597   5.035   2.341   6.342
    94G12  C00O 1598   4.914   2.255   6.332
    94G12  C01D 1599   4.878   2.164   6.438
    94G12  H00S 1600   4.944   2.140   6.519
    94G12  C01E 1601   4.748   2.112   6.459
    94G12  O008 1602   4.712   2.039   6.569
    94G12  C01V 1603   4.807   1.945   6.604
    94G12  C01Z 1604   4.856   1.965   6.746
    94G12  H00R 1605   4.912   1.877   6.778
    94G12  H00Q 1606   4.925   2.049   6.757
    94G12  O009 1607   4.743   1.971   6.833
    94G12  H00P 1608   4.680   1.915   6.790
    94G12  C01W 1609   4.859   1.852   6.515
    94G12  H00O 1610   4.830   1.842   6.411
    94G12  C01X 1611   4.980   1.766   6.549
    94G12  H00N 1612   4.979   1.734   6.653
    94G12  H00M 1613   4.982   1.673   6.493
    94G12  C01Y 1614   5.102   1.848   6.514
    94G12  C02D 1615   5.106   1.929   6.397
    94G12  H019 1616   5.033   1.927   6.317
    94G12  C02C 1617   5.229   2.000   6.381
    94G12  H01A 1618   5.231   2.068   6.297
    94G12  C02B 1619   5.333   2.003   6.477
    94G12  O00E 1620   5.444   2.078   6.462
    94G12  H01B 1621   5.485   2.095   6.545
    94G12  C02F 1622   5.329   1.919   6.586
    94G12  O00F 1623   5.439   1.910   6.674
    94G12  C02G 1624   5.463   1.788   6.750
    94G12  H017 1625   5.570   1.778   6.768
    94G12  H016 1626   5.439   1.702   6.687
    94G12  H015 1627   5.405   1.782   6.841
    94G12  C02E 1628   5.212   1.841   6.600
    94G12  H018 1629   5.207   1.787   6.694
    94G12  C01F 1630   4.646   2.144   6.364
    94G12  C01G 1631   4.510   2.136   6.383
    94G12  H00L 1632   4.481   2.099   6.480
    94G12  C01H 1633   4.420   2.209   6.293
    94G12  H00B 1634   4.322   2.229   6.331
    94G12  C01I 1635   4.476   2.254   6.170
    94G12  C01U 1636   4.693   2.179   6.233
    94G12  C00S 1637   4.989   2.642   6.112
    94G12  C00K 1638   4.804   2.567   6.012
    94G12  C00N 1639   4.812   2.255   6.230
    94G12  C000 1640   4.608   2.219   6.130
    94G12  C01J 1641   4.435   2.365   6.092
    94G12  C01K 1642   4.302   2.423   6.090
    94G12  C01P 1643   4.173   2.369   6.128
    94G12  C01Q 1644   4.148   2.228   6.146
    94G12  H00G 1645   4.087   2.179   6.221
    94G12  C01R 1646   4.201   2.140   6.060
    94G12  H00F 1647   4.259   2.179   5.978
    94G12  C01S 1648   4.190   1.993   6.072
    94G12  H00E 1649   4.289   1.948   6.068
    94G12  H00D 1650   4.148   1.959   6.167
    94G12  O005 1651   4.120   1.934   5.965
    94G12  H00C 1652   4.175   1.950   5.890
    94G12  C01O 1653   4.062   2.448   6.128
    94G12  H00H 1654   3.969   2.395   6.145
    94G12  C01N 1655   4.074   2.583   6.102
    94G12  O006 1656   3.972   2.672   6.109
    94G12  C01T 1657   3.840   2.631   6.071
    94G12  H00K 1658   3.848   2.581   5.974
    94G12  H00J 1659   3.792   2.725   6.043
    94G12  H00I 1660   3.797   2.575   6.153
    94G12  C01M 1661   4.193   2.638   6.060
    94G12  C020 1662   4.680   2.617   5.960
    94G12  C021 1663   4.654   2.740   5.894
    94G12  C01L 1664   4.311   2.557   6.048
    94G12  O007 1665   4.191   2.779   6.045
    94G12  C022 1666   4.534   2.811   5.907
    94G12  C023 1667   4.752   2.841   5.911
    94G12  C00G 1668   4.890   3.037   6.031
    94G12  C00E 1669   4.941   3.276   6.077
    94G12  O00A 1670   5.024   3.382   6.101
    94G12  C024 1671   5.110   3.415   6.000
    94G12  H00V 1672   5.181   3.484   6.046
    94G12  H00U 1673   5.055   3.472   5.925
    94G12  H00T 1674   5.141   3.316   5.967
   104G12  C00D 1675   5.950   5.317   3.266
   104G12  O00B 1676   5.970   5.342   3.132
   104G12  C025 1677   6.050   5.257   3.051
   104G12  C026 1678   6.190   5.319   3.030
   104G12  H00Y 1679   6.258   5.235   3.012
   104G12  H00X 1680   6.228   5.381   3.111
   104G12  O00C 1681   6.181   5.407   2.910
   104G12  H00W 1682   6.095   5.443   2.896
   104G12  C027 1683   6.005   5.136   3.000
   104G12  O00D 1684   5.886   5.078   3.043
   104G12  H00Z 1685   5.848   5.144   3.099
   104G12  C028 1686   6.085   5.059   2.904
   104G12  C029 1687   6.104   4.917   2.913
   104G12  H010 1688   6.079   4.869   3.007
   104G12  C02T 1689   6.176   4.833   2.822
   104G12  H01O 1690   6.191   4.727   2.836
   104G12  C02S 1691   6.222   4.888   2.711
   104G12  O00J 1692   6.278   4.814   2.612
   104G12  H01P 1693   6.331   4.877   2.565
   104G12  C02R 1694   6.199   5.024   2.686
   104G12  O00I 1695   6.249   5.067   2.573
   104G12  C02Q 1696   6.210   5.188   2.518
   104G12  H01N 1697   6.102   5.172   2.516
   104G12  H01R 1698   6.243   5.196   2.414
   104G12  H01Q 1699   6.246   5.271   2.578
   104G12  C02A 1700   6.135   5.110   2.782
   104G12  H011 1701   6.121   5.215   2.763
   104G12  C00C 1702   6.015   5.216   3.329
   104G12  H012 1703   6.068   5.145   3.268
   104G12  C00B 1704   6.024   5.201   3.469
   104G12  C00A 1705   6.096   5.107   3.552
   104G12  C009 1706   6.143   4.974   3.524
   104G12  C008 1707   6.135   4.892   3.412
   104G12  H013 1708   6.102   4.941   3.322
   104G12  C007 1709   6.150   4.750   3.433
   104G12  H014 1710   6.142   4.683   3.349
   104G12  C006 1711   6.163   4.700   3.568
   104G12  C005 1712   6.176   4.788   3.676
   104G12  C004 1713   6.175   4.746   3.810
   104G12  C003 1714   6.143   4.845   3.907
   104G12  C002 1715   6.118   4.789   4.041
   104G12  C001 1716   6.075   4.855   4.161
   104G12  C00M 1717   5.975   4.951   4.163
   104G12  C00L 1718   5.969   5.065   4.082
   104G12  C00R 1719   5.865   5.158   4.075
   104G12  C00Q 1720   5.731   5.155   4.132
   104G12  C00V 1721   5.650   5.255   4.072
   104G12  C00U 1722   5.684   5.330   3.959
   104G12  C00T 1723   5.802   5.306   3.893
   104G12  C016 1724   5.823   5.326   3.756
   104G12  C015 1725   5.727   5.400   3.686
   104G12  C010 1726   5.612   5.442   3.759
   104G12  C011 1727   5.511   5.508   3.684
   104G12  H005 1728   5.415   5.525   3.731
   104G12  C012 1729   5.523   5.540   3.546
   104G12  C017 1730   5.412   5.607   3.484
   104G12  O002 1731   5.346   5.703   3.556
   104G12  H004 1732   5.293   5.743   3.488
   104G12  C018 1733   5.378   5.585   3.355
   104G12  O001 1734   5.432   5.491   3.275
   104G12  H003 1735   5.496   5.436   3.319
   104G12  C019 1736   5.281   5.666   3.278
   104G12  H002 1737   5.330   5.707   3.189
   104G12  H001 1738   5.208   5.597   3.235
   104G12  O000 1739   5.226   5.769   3.362
   104G12  C01A 1740   5.124   5.855   3.307
   104G12  C02K 1741   5.091   5.866   3.167
   104G12  O00G 1742   5.169   5.797   3.070
   104G12  C02M 1743   5.131   5.813   2.928
   104G12  H01G 1744   5.026   5.784   2.920
   104G12  H01F 1745   5.186   5.743   2.865
   104G12  H01E 1746   5.142   5.918   2.902
   104G12  C02J 1747   4.989   5.954   3.129
   104G12  H01H 1748   4.959   5.965   3.026
   104G12  C02I 1749   4.916   6.029   3.225
   104G12  C02N 1750   4.808   6.111   3.186
   104G12  H01M 1751   4.799   6.153   3.086
   104G12  C02O 1752   4.710   6.150   3.271
   104G12  H01L 1753   4.710   6.119   3.375
   104G12  C02P 1754   4.595   6.237   3.220
   104G12  H01K 1755   4.569   6.196   3.122
   104G12  H01J 1756   4.515   6.220   3.293
   104G12  O00H 1757   4.639   6.375   3.198
   104G12  H01I 1758   4.734   6.377   3.200
   104G12  C02H 1759   4.958   6.015   3.364
   104G12  H01C 1760   4.904   6.065   3.444
   104G12  C02L 1761   5.061   5.934   3.402
   104G12  H01D 1762   5.077   5.921   3.508
   104G12  C013 1763   5.644   5.504   3.482
   104G12  H000 1764   5.654   5.549   3.384
   104G12  C014 1765   5.748   5.432   3.556
   104G12  C00F 1766   5.856   5.375   3.487
   104G12  C00H 1767   5.933   5.274   3.689
   104G12  C00I 1768   6.033   5.208   3.763
   104G12  C00J 1769   6.013   5.196   3.898
   104G12  C00Z 1770   5.592   5.412   3.892
   104G12  C00Y 1771   5.475   5.450   3.967
   104G12  H006 1772   5.402   5.519   3.927
   104G12  C00X 1773   5.448   5.392   4.087
   104G12  O003 1774   5.333   5.419   4.170
   104G12  C01B 1775   5.231   5.499   4.110
   104G12  H009 1776   5.203   5.464   4.011
   104G12  H008 1777   5.261   5.604   4.105
   104G12  H007 1778   5.141   5.487   4.170
   104G12  C00W 1779   5.527   5.287   4.133
   104G12  O004 1780   5.492   5.220   4.247
   104G12  C01C 1781   5.538   5.091   4.255
   104G12  H00A 1782   5.465   5.013   4.270
   104G12  C00P 1783   5.676   5.064   4.223
   104G12  C00O 1784   5.738   4.949   4.285
   104G12  C01D 1785   5.657   4.863   4.370
   104G12  H00S 1786   5.563   4.892   4.415
   104G12  C01E 1787   5.700   4.731   4.394
   104G12  O008 1788   5.612   4.646   4.459
   104G12  C01V 1789   5.649   4.583   4.576
   104G12  C01Z 1790   5.542   4.479   4.624
   104G12  H00R 1791   5.504   4.505   4.723
   104G12  H00Q 1792   5.453   4.488   4.562
   104G12  O009 1793   5.600   4.349   4.609
   104G12  H00P 1794   5.693   4.361   4.619
   104G12  C01W 1795   5.754   4.613   4.653
   104G12  H00O 1796   5.814   4.692   4.611
   104G12  C01X 1797   5.788   4.547   4.785
   104G12  H00N 1798   5.830   4.623   4.850
   104G12  H00M 1799   5.700   4.529   4.847
   104G12  C01Y 1800   5.882   4.436   4.779
   104G12  C02D 1801   6.011   4.450   4.726
   104G12  H019 1802   6.028   4.551   4.692
   104G12  C02C 1803   6.105   4.342   4.725
   104G12  H01A 1804   6.205   4.353   4.686
   104G12  C02B 1805   6.058   4.219   4.770
   104G12  O00E 1806   6.130   4.102   4.772
   104G12  H01B 1807   6.081   4.049   4.833
   104G12  C02F 1808   5.928   4.203   4.827
   104G12  O00F 1809   5.897   4.081   4.890
   104G12  C02G 1810   5.757   4.057   4.913
   104G12  H017 1811   5.717   4.115   4.997
   104G12  H016 1812   5.730   3.954   4.932
   104G12  H015 1813   5.695   4.074   4.826
   104G12  C02E 1814   5.840   4.315   4.834
   104G12  H018 1815   5.750   4.308   4.893
   104G12  C01F 1816   5.824   4.683   4.344
   104G12  C01G 1817   5.862   4.553   4.316
   104G12  H00L 1818   5.791   4.477   4.346
   104G12  C01H 1819   5.976   4.520   4.237
   104G12  H00B 1820   5.979   4.423   4.189
   104G12  C01I 1821   6.059   4.622   4.191
   104G12  C01U 1822   5.914   4.782   4.295
   104G12  C00S 1823   5.899   5.243   3.968
   104G12  C00K 1824   6.050   5.075   3.960
   104G12  C00N 1825   5.870   4.907   4.255
   104G12  C000 1826   6.042   4.752   4.251
   104G12  C01J 1827   6.128   4.651   4.065
   104G12  C01K 1828   6.176   4.555   3.964
   104G12  C01P 1829   6.200   4.412   3.972
   104G12  C01Q 1830   6.221   4.363   4.107
   104G12  H00G 1831   6.268   4.427   4.180
   104G12  C01R 1832   6.202   4.229   4.138
   104G12  H00F 1833   6.168   4.162   4.061
   104G12  C01S 1834   6.234   4.175   4.278
   104G12  H00E 1835   6.183   4.083   4.303
   104G12  H00D 1836   6.342   4.166   4.281
   104G12  O005 1837   6.187   4.269   4.376
   104G12  H00C 1838   6.092   4.270   4.369
   104G12  C01O 1839   6.205   4.328   3.861
   104G12  H00H 1840   6.217   4.221   3.873
   104G12  C01N 1841   6.198   4.382   3.732
   104G12  O006 1842   6.208   4.301   3.617
   104G12  C01T 1843   6.330   4.230   3.608
   104G12  H00K 1844   6.420   4.292   3.612
   104G12  H00J 1845   6.336   4.169   3.518
   104G12  H00I 1846   6.359   4.165   3.691
   104G12  C01M 1847   6.189   4.521   3.720
   104G12  C020 1848   6.129   4.983   3.879
   104G12  C021 1849   6.173   5.020   3.752
   104G12  C01L 1850   6.185   4.608   3.835
   104G12  O007 1851   6.157   4.562   3.593
   104G12  C022 1852   6.187   4.926   3.651
   104G12  C023 1853   6.124   5.137   3.686
   104G12  C00G 1854   5.938   5.283   3.550
   104G12  C00E 1855   5.877   5.407   3.351
   104G12  O00A 1856   5.828   5.512   3.277
   104G12  C024 1857   5.874   5.644   3.305
   104G12  H00V 1858   5.979   5.659   3.283
   104G12  H00U 1859   5.855   5.672   3.409
   104G12  H00T 1860   5.818   5.708   3.237
   114G12  C00D 1861   1.800   1.507   6.669
   114G12  O00B 1862   1.879   1.396   6.662
   114G12  C025 1863   1.852   1.301   6.563
   114G12  C026 1864   1.786   1.182   6.623
   114G12  H00Y 1865   1.724   1.123   6.555
   114G12  H00X 1866   1.718   1.220   6.699
   114G12  O00C 1867   1.886   1.106   6.687
   114G12  H00W 1868   1.921   1.170   6.748
   114G12  C027 1869   1.878   1.333   6.435
   114G12  O00D 1870   1.930   1.450   6.390
   114G12  H00Z 1871   1.960   1.499   6.465
   114G12  C028 1872   1.850   1.239   6.330
   114G12  C029 1873   1.798   1.284   6.204
   114G12  H010 1874   1.779   1.388   6.183
   114G12  C02T 1875   1.759   1.185   6.110
   114G12  H01O 1876   1.708   1.220   6.021
   114G12  C02S 1877   1.787   1.046   6.132
   114G12  O00J 1878   1.755   0.955   6.034
   114G12  H01P 1879   1.776   0.867   6.061
   114G12  C02R 1880   1.861   1.011   6.244
   114G12  O00I 1881   1.894   0.878   6.250
   114G12  C02Q 1882   1.967   0.827   6.365
   114G12  H01N 1883   1.918   0.834   6.462
   114G12  H01R 1884   2.058   0.887   6.368
   114G12  H01Q 1885   1.997   0.724   6.348
   114G12  C02A 1886   1.894   1.109   6.340
   114G12  H011 1887   1.960   1.093   6.424
   114G12  C00C 1888   1.699   1.544   6.579
   114G12  H012 1889   1.680   1.476   6.498
   114G12  C00B 1890   1.616   1.656   6.592
   114G12  C00A 1891   1.508   1.698   6.507
   114G12  C009 1892   1.487   1.669   6.369
   114G12  C008 1893   1.564   1.607   6.264
   114G12  H013 1894   1.635   1.529   6.289
   114G12  C007 1895   1.543   1.647   6.131
   114G12  H014 1896   1.596   1.587   6.060
   114G12  C006 1897   1.459   1.759   6.095
   114G12  C005 1898   1.388   1.818   6.204
   114G12  C004 1899   1.337   1.952   6.190
   114G12  C003 1900   1.280   2.018   6.300
   114G12  C002 1901   1.218   2.150   6.275
   114G12  C001 1902   1.159   2.251   6.363
   114G12  C00M 1903   1.232   2.295   6.482
   114G12  C00L 1904   1.277   2.202   6.577
   114G12  C00R 1905   1.371   2.228   6.687
   114G12  C00Q 1906   1.420   2.350   6.735
   114G12  C00V 1907   1.510   2.325   6.840
   114G12  C00U 1908   1.575   2.200   6.873
   114G12  C00T 1909   1.536   2.086   6.803
   114G12  C016 1910   1.588   1.959   6.809
   114G12  C015 1911   1.696   1.939   6.896
   114G12  C010 1912   1.733   2.047   6.986
   114G12  C011 1913   1.833   2.018   7.083
   114G12  H005 1914   1.866   2.098   7.148
   114G12  C012 1915   1.890   1.893   7.096
   114G12  C017 1916   1.966   1.870   7.218
   114G12  O002 1917   2.054   1.967   7.260
   114G12  H004 1918   2.094   1.931   7.337
   114G12  C018 1919   1.955   1.749   7.282
   114G12  O001 1920   1.864   1.652   7.253
   114G12  H003 1921   1.786   1.697   7.223
   114G12  C019 1922   2.042   1.702   7.392
   114G12  H002 1923   1.980   1.728   7.478
   114G12  H001 1924   2.061   1.595   7.398
   114G12  O000 1925   2.156   1.785   7.406
   114G12  C01A 1926   2.191   1.807   7.543
   114G12  C02K 1927   2.195   1.939   7.589
   114G12  O00G 1928   2.179   2.041   7.497
   114G12  C02M 1929   2.247   2.164   7.518
   114G12  H01G 1930   2.226   2.223   7.429
   114G12  H01F 1931   2.355   2.150   7.531
   114G12  H01E 1932   2.209   2.220   7.603
   114G12  C02J 1933   2.211   1.963   7.728
   114G12  H01H 1934   2.200   2.062   7.768
   114G12  C02I 1935   2.231   1.851   7.811
   114G12  C02N 1936   2.227   1.872   7.956
   114G12  H01M 1937   2.298   1.928   8.016
   114G12  C02O 1938   2.126   1.816   8.022
   114G12  H01L 1939   2.048   1.757   7.976
   114G12  C02P 1940   2.110   1.843   8.174
   114G12  H01K 1941   2.085   1.754   8.231
   114G12  H01J 1942   2.206   1.880   8.210
   114G12  O00H 1943   2.021   1.946   8.190
   114G12  H01I 1944   1.930   1.922   8.194
   114G12  C02H 1945   2.238   1.718   7.760
   114G12  H01C 1946   2.264   1.629   7.815
   114G12  C02L 1947   2.216   1.696   7.623
   114G12  H01D 1948   2.220   1.596   7.584
   114G12  C013 1949   1.854   1.799   7.002
   114G12  H000 1950   1.919   1.714   7.017
   114G12  C014 1951   1.760   1.819   6.898
   114G12  C00F 1952   1.738   1.716   6.797
   114G12  C00H 1953   1.552   1.857   6.720
   114G12  C00I 1954   1.433   1.875   6.643
   114G12  C00J 1955   1.370   2.002   6.645
   114G12  C00Z 1956   1.674   2.177   6.972
   114G12  C00Y 1957   1.719   2.289   7.045
   114G12  H006 1958   1.801   2.277   7.115
   114G12  C00X 1959   1.660   2.416   7.017
   114G12  O003 1960   1.700   2.525   7.087
   114G12  C01B 1961   1.821   2.576   7.036
   114G12  H009 1962   1.819   2.600   6.929
   114G12  H008 1963   1.904   2.507   7.050
   114G12  H007 1964   1.840   2.675   7.077
   114G12  C00W 1965   1.556   2.435   6.915
   114G12  O004 1966   1.515   2.561   6.888
   114G12  C01C 1967   1.483   2.579   6.757
   114G12  H00A 1968   1.548   2.645   6.700
   114G12  C00P 1969   1.406   2.487   6.684
   114G12  C00O 1970   1.333   2.521   6.565
   114G12  C01D 1971   1.339   2.654   6.517
   114G12  H00S 1972   1.380   2.731   6.581
   114G12  C01E 1973   1.306   2.692   6.380
   114G12  O008 1974   1.321   2.819   6.325
   114G12  C01V 1975   1.337   2.930   6.405
   114G12  C01Z 1976   1.482   2.961   6.429
   114G12  H00R 1977   1.540   2.869   6.415
   114G12  H00Q 1978   1.513   3.041   6.363
   114G12  O009 1979   1.500   3.001   6.565
   114G12  H00P 1980   1.420   3.030   6.606
   114G12  C01W 1981   1.232   2.995   6.460
   114G12  H00O 1982   1.128   2.977   6.436
   114G12  C01X 1983   1.237   3.120   6.550
   114G12  H00N 1984   1.330   3.174   6.533
   114G12  H00M 1985   1.162   3.188   6.509
   114G12  C01Y 1986   1.211   3.096   6.698
   114G12  C02D 1987   1.207   3.202   6.784
   114G12  H019 1988   1.202   3.304   6.748
   114G12  C02C 1989   1.196   3.184   6.922
   114G12  H01A 1990   1.188   3.273   6.983
   114G12  C02B 1991   1.196   3.054   6.977
   114G12  O00E 1992   1.187   3.035   7.111
   114G12  H01B 1993   1.205   2.949   7.146
   114G12  C02F 1994   1.188   2.943   6.889
   114G12  O00F 1995   1.158   2.821   6.943
   114G12  C02G 1996   1.152   2.706   6.866
   114G12  H017 1997   1.080   2.717   6.785
   114G12  H016 1998   1.139   2.618   6.929
   114G12  H015 1999   1.255   2.694   6.831
   114G12  C02E 2000   1.210   2.964   6.749
   114G12  H018 2001   1.211   2.878   6.683
   114G12  C01F 2002   1.252   2.594   6.294
   114G12  C01G 2003   1.256   2.591   6.158
   114G12  H00L 2004   1.311   2.671   6.110
   114G12  C01H 2005   1.237   2.467   6.088
   114G12  H00B 2006   1.282   2.473   5.990
   114G12  C01I 2007   1.195   2.349   6.157
   114G12  C01U 2008   1.196   2.478   6.357
   114G12  C00S 2009   1.420   2.103   6.724
   114G12  C00K 2010   1.302   2.062   6.544
   114G12  C00N 2011   1.258   2.436   6.481
   114G12  C000 2012   1.139   2.368   6.289
   114G12  C01J 2013   1.220   2.208   6.143
   114G12  C01K 2014   1.270   2.136   6.027
   114G12  C01P 2015   1.263   2.175   5.892
   114G12  C01Q 2016   1.194   2.296   5.844
   114G12  H00G 2017   1.102   2.331   5.888
   114G12  C01R 2018   1.248   2.366   5.745
   114G12  H00F 2019   1.339   2.325   5.703
   114G12  C01S 2020   1.182   2.484   5.688
   114G12  H00E 2021   1.156   2.466   5.584
   114G12  H00D 2022   1.098   2.517   5.750
   114G12  O005 2023   1.269   2.593   5.699
   114G12  H00C 2024   1.357   2.557   5.704
   114G12  C01O 2025   1.304   2.090   5.789
   114G12  H00H 2026   1.286   2.109   5.684
   114G12  C01N 2027   1.370   1.967   5.822
   114G12  O006 2028   1.424   1.877   5.732
   114G12  C01T 2029   1.424   1.898   5.588
   114G12  H00K 2030   1.323   1.898   5.547
   114G12  H00J 2031   1.482   1.817   5.542
   114G12  H00I 2032   1.468   1.996   5.571
   114G12  C01M 2033   1.382   1.926   5.954
   114G12  C020 2034   1.290   1.969   6.434
   114G12  C021 2035   1.326   1.830   6.442
   114G12  C01L 2036   1.331   2.009   6.059
   114G12  O007 2037   1.445   1.806   5.970
   114G12  C022 2038   1.381   1.764   6.332
   114G12  C023 2039   1.403   1.779   6.551
   114G12  C00G 2040   1.633   1.742   6.707
   114G12  C00E 2041   1.820   1.599   6.771
   114G12  O00A 2042   1.912   1.559   6.863
   114G12  C024 2043   1.851   1.470   6.954
   114G12  H00V 2044   1.776   1.527   7.009
   114G12  H00U 2045   1.908   1.419   7.031
   114G12  H00T 2046   1.801   1.389   6.902
   124G12  C00D 2047   0.818   4.237   7.178
   124G12  O00B 2048   0.892   4.205   7.285
   124G12  C025 2049   0.887   4.067   7.322
   124G12  C026 2050   0.765   4.024   7.400
   124G12  H00Y 2051   0.780   3.918   7.423
   124G12  H00X 2052   0.696   4.041   7.318
   124G12  O00C 2053   0.737   4.106   7.514
   124G12  H00W 2054   0.735   4.199   7.495
   124G12  C027 2055   0.992   3.989   7.283
   124G12  O00D 2056   1.098   4.044   7.219
   124G12  H00Z 2057   1.058   4.114   7.171
   124G12  C028 2058   1.006   3.853   7.331
   124G12  C029 2059   1.032   3.745   7.245
   124G12  H010 2060   1.033   3.766   7.139
   124G12  C02T 2061   1.050   3.616   7.291
   124G12  H01O 2062   1.072   3.542   7.216
   124G12  C02S 2063   1.022   3.590   7.426
   124G12  O00J 2064   1.012   3.463   7.469
   124G12  H01P 2065   0.990   3.463   7.561
   124G12  C02R 2066   1.001   3.697   7.519
   124G12  O00I 2067   0.986   3.658   7.652
   124G12  C02Q 2068   0.972   3.759   7.746
   124G12  H01N 2069   1.060   3.823   7.749
   124G12  H01R 2070   0.958   3.716   7.846
   124G12  H01Q 2071   0.888   3.827   7.729
   124G12  C02A 2072   1.003   3.827   7.471
   124G12  H011 2073   0.993   3.908   7.541
   124G12  C00C 2074   0.695   4.301   7.193
   124G12  H012 2075   0.672   4.340   7.291
   124G12  C00B 2076   0.621   4.344   7.079
   124G12  C00A 2077   0.520   4.441   7.072
   124G12  C009 2078   0.417   4.457   7.171
   124G12  C008 2079   0.397   4.413   7.302
   124G12  H013 2080   0.482   4.375   7.357
   124G12  C007 2081   0.267   4.408   7.352
   124G12  H014 2082   0.265   4.359   7.448
   124G12  C006 2083   0.150   4.454   7.280
   124G12  C005 2084   0.176   4.484   7.144
   124G12  C004 2085   0.075   4.482   7.050
   124G12  C003 2086   0.103   4.491   6.913
   124G12  C002 2087  -0.008   4.495   6.825
   124G12  C001 2088  -0.012   4.496   6.681
   124G12  C00M 2089   0.069   4.410   6.601
   124G12  C00L 2090   0.209   4.421   6.603
   124G12  C00R 2091   0.298   4.332   6.542
   124G12  C00Q 2092   0.281   4.225   6.444
   124G12  C00V 2093   0.400   4.156   6.420
   124G12  C00U 2094   0.518   4.159   6.506
   124G12  C00T 2095   0.524   4.248   6.612
   124G12  C016 2096   0.611   4.247   6.720
   124G12  C015 2097   0.711   4.154   6.709
   124G12  C010 2098   0.732   4.081   6.588
   124G12  C011 2099   0.850   4.005   6.574
   124G12  H005 2100   0.868   3.950   6.483
   124G12  C012 2101   0.935   3.979   6.685
   124G12  C017 2102   1.057   3.906   6.667
   124G12  O002 2103   1.119   3.907   6.544
   124G12  H004 2104   1.077   3.979   6.499
   124G12  C018 2105   1.109   3.832   6.769
   124G12  O001 2106   1.065   3.812   6.899
   124G12  H003 2107   1.140   3.763   6.927
   124G12  C019 2108   1.241   3.758   6.750
   124G12  H002 2109   1.234   3.710   6.653
   124G12  H001 2110   1.322   3.831   6.751
   124G12  O000 2111   1.260   3.659   6.847
   124G12  C01A 2112   1.351   3.560   6.818
   124G12  C02K 2113   1.374   3.467   6.922
   124G12  O00G 2114   1.311   3.486   7.044
   124G12  C02M 2115   1.359   3.418   7.161
   124G12  H01G 2116   1.460   3.450   7.187
   124G12  H01F 2117   1.366   3.310   7.156
   124G12  H01E 2118   1.295   3.436   7.247
   124G12  C02J 2119   1.472   3.367   6.906
   124G12  H01H 2120   1.500   3.315   6.996
   124G12  C02I 2121   1.532   3.336   6.780
   124G12  C02N 2122   1.613   3.224   6.754
   124G12  H01M 2123   1.692   3.224   6.681
   124G12  C02O 2124   1.623   3.125   6.843
   124G12  H01L 2125   1.551   3.106   6.922
   124G12  C02P 2126   1.713   3.011   6.823
   124G12  H01K 2127   1.797   3.031   6.756
   124G12  H01J 2128   1.751   2.987   6.922
   124G12  O00H 2129   1.639   2.895   6.778
   124G12  H01I 2130   1.598   2.926   6.698
   124G12  C02H 2131   1.504   3.429   6.675
   124G12  H01C 2132   1.555   3.419   6.581
   124G12  C02L 2133   1.416   3.534   6.694
   124G12  H01D 2134   1.405   3.590   6.602
   124G12  C013 2135   0.905   4.055   6.800
   124G12  H000 2136   0.981   4.040   6.876
   124G12  C014 2137   0.798   4.140   6.821
   124G12  C00F 2138   0.773   4.207   6.941
   124G12  C00H 2139   0.589   4.322   6.832
   124G12  C00I 2140   0.495   4.423   6.828
   124G12  C00J 2141   0.412   4.430   6.708
   124G12  C00Z 2142   0.628   4.082   6.491
   124G12  C00Y 2143   0.636   4.008   6.365
   124G12  H006 2144   0.723   3.951   6.333
   124G12  C00X 2145   0.522   4.005   6.275
   124G12  O003 2146   0.520   3.927   6.162
   124G12  C01B 2147   0.640   3.893   6.097
   124G12  H009 2148   0.699   3.967   6.043
   124G12  H008 2149   0.613   3.825   6.016
   124G12  H007 2150   0.717   3.842   6.155
   124G12  C00W 2151   0.405   4.079   6.302
   124G12  O004 2152   0.297   4.064   6.220
   124G12  C01C 2153   0.176   4.080   6.282
   124G12  H00A 2154   0.089   4.038   6.234
   124G12  C00P 2155   0.161   4.173   6.394
   124G12  C00O 2156   0.024   4.202   6.442
   124G12  C01D 2157  -0.086   4.116   6.404
   124G12  H00S 2158  -0.081   4.029   6.340
   124G12  C01E 2159  -0.211   4.133   6.470
   124G12  O008 2160  -0.312   4.038   6.441
   124G12  C01V 2161  -0.423   4.088   6.374
   124G12  C01Z 2162  -0.399   4.139   6.239
   124G12  H00R 2163  -0.390   4.247   6.234
   124G12  H00Q 2164  -0.312   4.090   6.196
   124G12  O009 2165  -0.510   4.106   6.149
   124G12  H00P 2166  -0.522   4.013   6.155
   124G12  C01W 2167  -0.539   4.095   6.447
   124G12  H00O 2168  -0.543   4.038   6.539
   124G12  C01X 2169  -0.668   4.159   6.404
   124G12  H00N 2170  -0.700   4.233   6.478
   124G12  H00M 2171  -0.654   4.211   6.310
   124G12  C01Y 2172  -0.765   4.048   6.367
   124G12  C02D 2173  -0.822   3.961   6.469
   124G12  H019 2174  -0.795   3.972   6.573
   124G12  C02C 2175  -0.913   3.859   6.433
   124G12  H01A 2176  -0.943   3.791   6.510
   124G12  C02B 2177  -0.943   3.843   6.293
   124G12  O00E 2178  -1.015   3.738   6.251
   124G12  H01B 2179  -1.018   3.758   6.159
   124G12  C02F 2180  -0.895   3.931   6.192
   124G12  O00F 2181  -0.934   3.906   6.062
   124G12  C02G 2182  -0.893   3.991   5.961
   124G12  H017 2183  -0.933   3.960   5.864
   124G12  H016 2184  -0.784   3.986   5.957
   124G12  H015 2185  -0.928   4.087   5.998
   124G12  C02E 2186  -0.807   4.032   6.231
   124G12  H018 2187  -0.761   4.094   6.156
   124G12  C01F 2188  -0.224   4.239   6.562
   124G12  C01G 2189  -0.328   4.234   6.663
   124G12  H00L 2190  -0.379   4.139   6.664
   124G12  C01H 2191  -0.321   4.326   6.771
   124G12  H00B 2192  -0.362   4.300   6.868
   124G12  C01I 2193  -0.221   4.428   6.769
   124G12  C01U 2194  -0.139   4.345   6.563
   124G12  C00S 2195   0.418   4.338   6.609
   124G12  C00K 2196   0.273   4.469   6.721
   124G12  C00N 2197  -0.009   4.313   6.528
   124G12  C000 2198  -0.143   4.451   6.652
   124G12  C01J 2199  -0.141   4.475   6.873
   124G12  C01K 2200  -0.173   4.474   7.014
   124G12  C01P 2201  -0.301   4.497   7.075
   124G12  C01Q 2202  -0.422   4.530   6.992
   124G12  H00G 2203  -0.416   4.608   6.918
   124G12  C01R 2204  -0.545   4.479   7.021
   124G12  H00F 2205  -0.547   4.401   7.095
   124G12  C01S 2206  -0.667   4.527   6.956
   124G12  H00E 2207  -0.643   4.585   6.867
   124G12  H00D 2208  -0.720   4.437   6.925
   124G12  O005 2209  -0.749   4.602   7.040
   124G12  H00C 2210  -0.708   4.685   7.062
   124G12  C01O 2211  -0.317   4.493   7.217
   124G12  H00H 2212  -0.418   4.499   7.255
   124G12  C01N 2213  -0.204   4.468   7.299
   124G12  O006 2214  -0.204   4.451   7.434
   124G12  C01T 2215  -0.321   4.467   7.508
   124G12  H00K 2216  -0.295   4.438   7.610
   124G12  H00J 2217  -0.412   4.411   7.487
   124G12  H00I 2218  -0.347   4.573   7.502
   124G12  C01M 2219  -0.077   4.464   7.235
   124G12  C020 2220   0.234   4.500   6.860
   124G12  C021 2221   0.330   4.536   6.963
   124G12  C01L 2222  -0.056   4.472   7.095
   124G12  O007 2223   0.024   4.442   7.327
   124G12  C022 2224   0.307   4.510   7.095
   124G12  C023 2225   0.461   4.482   6.948
   124G12  C00G 2226   0.661   4.291   6.954
   124G12  C00E 2227   0.864   4.209   7.049
   124G12  O00A 2228   1.001   4.182   7.031
   124G12  C024 2229   1.067   4.311   7.036
   124G12  H00V 2230   1.175   4.300   7.049
   124G12  H00U 2231   1.033   4.376   7.116
   124G12  H00T 2232   1.055   4.367   6.943
   134G12  C00D 2233   4.163   6.707   3.924
   134G12  O00B 2234   4.144   6.761   3.802
   134G12  C025 2235   4.250   6.768   3.717
   134G12  C026 2236   4.251   6.660   3.615
   134G12  H00Y 2237   4.316   6.580   3.650
   134G12  H00X 2238   4.284   6.697   3.518
   134G12  O00C 2239   4.117   6.603   3.588
   134G12  H00W 2240   4.063   6.635   3.659
   134G12  C027 2241   4.338   6.867   3.735
   134G12  O00D 2242   4.309   6.962   3.832
   134G12  H00Z 2243   4.218   6.941   3.842
   134G12  C028 2244   4.466   6.876   3.671
   134G12  C029 2245   4.515   7.005   3.636
   134G12  H010 2246   4.453   7.092   3.647
   134G12  C02T 2247   4.644   7.027   3.583
   134G12  H01O 2248   4.682   7.128   3.573
   134G12  C02S 2249   4.724   6.913   3.567
   134G12  O00J 2250   4.846   6.934   3.508
   134G12  H01P 2251   4.897   6.857   3.488
   134G12  C02R 2252   4.679   6.785   3.598
   134G12  O00I 2253   4.762   6.681   3.572
   134G12  C02Q 2254   4.729   6.602   3.454
   134G12  H01N 2255   4.625   6.570   3.439
   134G12  H01R 2256   4.781   6.507   3.445
   134G12  H01Q 2257   4.754   6.664   3.368
   134G12  C02A 2258   4.550   6.765   3.650
   134G12  H011 2259   4.512   6.668   3.680
   134G12  C00C 2260   4.294   6.670   3.968
   134G12  H012 2261   4.380   6.675   3.903
   134G12  C00B 2262   4.319   6.632   4.097
   134G12  C00A 2263   4.445   6.594   4.153
   134G12  C009 2264   4.565   6.537   4.092
   134G12  C008 2265   4.609   6.499   3.964
   134G12  H013 2266   4.554   6.517   3.873
   134G12  C007 2267   4.734   6.427   3.955
   134G12  H014 2268   4.787   6.397   3.866
   134G12  C006 2269   4.798   6.373   4.067
   134G12  C005 2270   4.740   6.402   4.189
   134G12  C004 2271   4.773   6.328   4.303
   134G12  C003 2272   4.698   6.349   4.422
   134G12  C002 2273   4.724   6.261   4.539
   134G12  C001 2274   4.672   6.250   4.668
   134G12  C00M 2275   4.532   6.263   4.714
   134G12  C00L 2276   4.454   6.372   4.665
   134G12  C00R 2277   4.309   6.378   4.673
   134G12  C00Q 2278   4.212   6.293   4.734
   134G12  C00V 2279   4.076   6.334   4.704
   134G12  C00U 2280   4.046   6.430   4.607
   134G12  C00T 2281   4.144   6.495   4.534
   134G12  C016 2282   4.119   6.556   4.409
   134G12  C015 2283   3.988   6.560   4.366
   134G12  C010 2284   3.887   6.515   4.453
   134G12  C011 2285   3.750   6.545   4.413
   134G12  H005 2286   3.670   6.507   4.473
   134G12  C012 2287   3.724   6.620   4.300
   134G12  C017 2288   3.587   6.661   4.269
   134G12  O002 2289   3.484   6.563   4.266
   134G12  H004 2290   3.406   6.615   4.271
   134G12  C018 2291   3.553   6.797   4.245
   134G12  O001 2292   3.646   6.895   4.252
   134G12  H003 2293   3.716   6.844   4.290
   134G12  C019 2294   3.408   6.849   4.227
   134G12  H002 2295   3.394   6.947   4.273
   134G12  H001 2296   3.371   6.862   4.125
   134G12  O000 2297   3.310   6.754   4.288
   134G12  C01A 2298   3.179   6.794   4.278
   134G12  C02K 2299   3.133   6.885   4.374
   134G12  O00G 2300   3.223   6.941   4.461
   134G12  C02M 2301   3.165   7.048   4.542
   134G12  H01G 2302   3.126   7.120   4.469
   134G12  H01F 2303   3.239   7.103   4.600
   134G12  H01E 2304   3.092   7.019   4.617
   134G12  C02J 2305   2.992   6.904   4.375
   134G12  H01H 2306   2.954   6.975   4.447
   134G12  C02I 2307   2.902   6.840   4.290
   134G12  C02N 2308   2.758   6.861   4.282
   134G12  H01M 2309   2.702   6.847   4.191
   134G12  C02O 2310   2.686   6.913   4.384
   134G12  H01L 2311   2.731   6.934   4.480
   134G12  C02P 2312   2.536   6.935   4.384
   134G12  H01K 2313   2.490   6.870   4.458
   134G12  H01J 2314   2.506   7.030   4.430
   134G12  O00H 2315   2.481   6.911   4.256
   134G12  H01I 2316   2.491   6.819   4.236
   134G12  C02H 2317   2.957   6.765   4.185
   134G12  H01C 2318   2.901   6.724   4.102
   134G12  C02L 2319   3.096   6.736   4.182
   134G12  H01D 2320   3.125   6.672   4.100
   134G12  C013 2321   3.832   6.645   4.209
   134G12  H000 2322   3.797   6.680   4.113
   134G12  C014 2323   3.964   6.616   4.243
   134G12  C00F 2324   4.075   6.646   4.149
   134G12  C00H 2325   4.227   6.591   4.330
   134G12  C00I 2326   4.356   6.581   4.379
   134G12  C00J 2327   4.374   6.521   4.510
   134G12  C00Z 2328   3.915   6.450   4.575
   134G12  C00Y 2329   3.814   6.402   4.658
   134G12  H006 2330   3.709   6.421   4.641
   134G12  C00X 2331   3.843   6.312   4.763
   134G12  O003 2332   3.745   6.256   4.842
   134G12  C01B 2333   3.616   6.320   4.843
   134G12  H009 2334   3.563   6.251   4.909
   134G12  H008 2335   3.558   6.315   4.751
   134G12  H007 2336   3.620   6.424   4.879
   134G12  C00W 2337   3.975   6.273   4.789
   134G12  O004 2338   3.994   6.178   4.884
   134G12  C01C 2339   4.113   6.106   4.862
   134G12  H00A 2340   4.095   6.000   4.850
   134G12  C00P 2341   4.229   6.168   4.800
   134G12  C00O 2342   4.353   6.098   4.816
   134G12  C01D 2343   4.358   5.967   4.875
   134G12  H00S 2344   4.272   5.930   4.928
   134G12  C01E 2345   4.466   5.876   4.841
   134G12  O008 2346   4.459   5.738   4.857
   134G12  C01V 2347   4.381   5.698   4.965
   134G12  C01Z 2348   4.448   5.684   5.095
   134G12  H00R 2349   4.435   5.582   5.132
   134G12  H00Q 2350   4.553   5.686   5.064
   134G12  O009 2351   4.408   5.798   5.174
   134G12  H00P 2352   4.429   5.872   5.119
   134G12  C01W 2353   4.262   5.647   4.948
   134G12  H00O 2354   4.219   5.655   4.849
   134G12  C01X 2355   4.174   5.587   5.060
   134G12  H00N 2356   4.109   5.515   5.010
   134G12  H00M 2357   4.226   5.528   5.135
   134G12  C01Y 2358   4.092   5.701   5.121
   134G12  C02D 2359   4.006   5.782   5.046
   134G12  H019 2360   3.988   5.756   4.942
   134G12  C02C 2361   3.934   5.885   5.104
   134G12  H01A 2362   3.864   5.938   5.041
   134G12  C02B 2363   3.947   5.920   5.241
   134G12  O00E 2364   3.867   6.005   5.307
   134G12  H01B 2365   3.881   5.984   5.398
   134G12  C02F 2366   4.033   5.844   5.317
   134G12  O00F 2367   4.044   5.888   5.449
   134G12  C02G 2368   4.137   5.823   5.529
   134G12  H017 2369   4.161   5.873   5.622
   134G12  H016 2370   4.232   5.804   5.479
   134G12  H015 2371   4.095   5.725   5.552
   134G12  C02E 2372   4.106   5.735   5.257
   134G12  H018 2373   4.171   5.672   5.315
   134G12  C01F 2374   4.581   5.920   4.773
   134G12  C01G 2375   4.682   5.844   4.708
   134G12  H00L 2376   4.679   5.736   4.710
   134G12  C01H 2377   4.779   5.911   4.626
   134G12  H00B 2378   4.828   5.850   4.552
   134G12  C01I 2379   4.791   6.052   4.623
   134G12  C01U 2380   4.596   6.059   4.765
   134G12  C00S 2381   4.273   6.478   4.584
   134G12  C00K 2382   4.487   6.442   4.540
   134G12  C00N 2383   4.484   6.142   4.770
   134G12  C000 2384   4.714   6.123   4.716
   134G12  C01J 2385   4.803   6.143   4.510
   134G12  C01K 2386   4.897   6.129   4.396
   134G12  C01P 2387   5.003   6.038   4.374
   134G12  C01Q 2388   5.044   5.950   4.483
   134G12  H00G 2389   5.055   5.990   4.583
   134G12  C01R 2390   5.071   5.821   4.453
   134G12  H00F 2391   5.066   5.776   4.355
   134G12  C01S 2392   5.116   5.719   4.548
   134G12  H00E 2393   5.085   5.618   4.520
   134G12  H00D 2394   5.224   5.717   4.554
   134G12  O005 2395   5.060   5.738   4.669
   134G12  H00C 2396   5.108   5.801   4.722
   134G12  C01O 2397   5.071   6.040   4.255
   134G12  H00H 2398   5.162   5.982   4.247
   134G12  C01N 2399   5.026   6.110   4.142
   134G12  O006 2400   5.073   6.093   4.014
   134G12  C01T 2401   5.133   5.973   3.981
   134G12  H00K 2402   5.217   5.945   4.044
   134G12  H00J 2403   5.173   5.972   3.879
   134G12  H00I 2404   5.066   5.889   3.997
   134G12  C01M 2405   4.921   6.201   4.162
   134G12  C020 2406   4.592   6.443   4.434
   134G12  C021 2407   4.586   6.528   4.320
   134G12  C01L 2408   4.865   6.218   4.290
   134G12  O007 2409   4.888   6.275   4.055
   134G12  C022 2410   4.646   6.501   4.204
   134G12  C023 2411   4.461   6.591   4.289
   134G12  C00G 2412   4.207   6.629   4.194
   134G12  C00E 2413   4.055   6.702   4.016
   134G12  O00A 2414   3.937   6.750   3.967
   134G12  C024 2415   3.905   6.887   3.992
   134G12  H00V 2416   3.907   6.911   4.098
   134G12  H00U 2417   3.804   6.917   3.964
   134G12  H00T 2418   3.978   6.948   3.938
   144G12  C00D 2419   2.850   5.371   4.346
   144G12  O00B 2420   2.733   5.429   4.393
   144G12  C025 2421   2.683   5.546   4.335
   144G12  C026 2422   2.553   5.518   4.261
   144G12  H00Y 2423   2.559   5.419   4.217
   144G12  H00X 2424   2.536   5.592   4.182
   144G12  O00C 2425   2.456   5.531   4.363
   144G12  H00W 2426   2.491   5.499   4.444
   144G12  C027 2427   2.744   5.671   4.348
   144G12  O00D 2428   2.853   5.691   4.430
   144G12  H00Z 2429   2.858   5.604   4.467
   144G12  C028 2430   2.703   5.790   4.278
   144G12  C029 2431   2.574   5.841   4.287
   144G12  H010 2432   2.502   5.787   4.345
   144G12  C02T 2433   2.533   5.960   4.222
   144G12  H01O 2434   2.429   5.989   4.235
   144G12  C02S 2435   2.629   6.030   4.148
   144G12  O00J 2436   2.596   6.140   4.074
   144G12  H01P 2437   2.676   6.174   4.036
   144G12  C02R 2438   2.761   5.993   4.148
   144G12  O00I 2439   2.851   6.074   4.082
   144G12  C02Q 2440   2.993   6.063   4.115
   144G12  H01N 2441   3.000   6.072   4.223
   144G12  H01R 2442   3.049   6.131   4.051
   144G12  H01Q 2443   3.018   5.962   4.080
   144G12  C02A 2444   2.802   5.872   4.211
   144G12  H011 2445   2.901   5.830   4.208
   144G12  C00C 2446   2.921   5.430   4.245
   144G12  H012 2447   2.877   5.503   4.178
   144G12  C00B 2448   3.051   5.382   4.197
   144G12  C00A 2449   3.141   5.444   4.102
   144G12  C009 2450   3.111   5.533   3.990
   144G12  C008 2451   3.003   5.607   3.936
   144G12  H013 2452   2.912   5.610   3.993
   144G12  C007 2453   3.010   5.645   3.796
   144G12  H014 2454   2.919   5.693   3.763
   144G12  C006 2455   3.123   5.612   3.712
   144G12  C005 2456   3.224   5.540   3.772
   144G12  C004 2457   3.337   5.484   3.704
   144G12  C003 2458   3.425   5.399   3.768
   144G12  C002 2459   3.527   5.345   3.678
   144G12  C001 2460   3.633   5.242   3.702
   144G12  C00M 2461   3.608   5.120   3.775
   144G12  C00L 2462   3.543   5.120   3.894
   144G12  C00R 2463   3.490   5.010   3.968
   144G12  C00Q 2464   3.484   4.875   3.936
   144G12  C00V 2465   3.418   4.797   4.035
   144G12  C00U 2466   3.343   4.857   4.139
   144G12  C00T 2467   3.330   4.991   4.145
   144G12  C016 2468   3.237   5.058   4.225
   144G12  C015 2469   3.160   4.992   4.312
   144G12  C010 2470   3.184   4.853   4.321
   144G12  C011 2471   3.117   4.781   4.420
   144G12  H005 2472   3.129   4.674   4.431
   144G12  C012 2473   3.032   4.848   4.507
   144G12  C017 2474   2.950   4.772   4.594
   144G12  O002 2475   2.860   4.681   4.540
   144G12  H004 2476   2.780   4.684   4.590
   144G12  C018 2477   2.966   4.792   4.730
   144G12  O001 2478   3.065   4.870   4.788
   144G12  H003 2479   3.140   4.878   4.731
   144G12  C019 2480   2.872   4.721   4.825
   144G12  H002 2481   2.873   4.613   4.816
   144G12  H001 2482   2.902   4.734   4.929
   144G12  O000 2483   2.739   4.776   4.802
   144G12  C01A 2484   2.643   4.685   4.817
   144G12  C02K 2485   2.558   4.680   4.703
   144G12  O00G 2486   2.583   4.764   4.602
   144G12  C02M 2487   2.476   4.820   4.531
   144G12  H01G 2488   2.428   4.900   4.587
   144G12  H01F 2489   2.407   4.755   4.478
   144G12  H01E 2490   2.531   4.876   4.454
   144G12  C02J 2491   2.464   4.573   4.701
   144G12  H01H 2492   2.401   4.573   4.613
   144G12  C02I 2493   2.445   4.476   4.805
   144G12  C02N 2494   2.346   4.371   4.802
   144G12  H01M 2495   2.279   4.371   4.717
   144G12  C02O 2496   2.339   4.259   4.880
   144G12  H01L 2497   2.396   4.244   4.971
   144G12  C02P 2498   2.260   4.132   4.853
   144G12  H01K 2499   2.208   4.090   4.939
   144G12  H01J 2500   2.186   4.162   4.779
   144G12  O00H 2501   2.340   4.038   4.800
   144G12  H01I 2502   2.315   4.043   4.709
   144G12  C02H 2503   2.532   4.495   4.920
   144G12  H01C 2504   2.518   4.433   5.007
   144G12  C02L 2505   2.635   4.594   4.926
   144G12  H01D 2506   2.701   4.592   5.011
   144G12  C013 2507   3.005   4.983   4.492
   144G12  H000 2508   2.928   5.023   4.556
   144G12  C014 2509   3.067   5.059   4.388
   144G12  C00F 2510   3.022   5.191   4.349
   144G12  C00H 2511   3.222   5.198   4.209
   144G12  C00I 2512   3.312   5.272   4.134
   144G12  C00J 2513   3.412   5.200   4.066
   144G12  C00Z 2514   3.264   4.784   4.225
   144G12  C00Y 2515   3.278   4.642   4.218
   144G12  H006 2516   3.214   4.584   4.284
   144G12  C00X 2517   3.368   4.573   4.131
   144G12  O003 2518   3.384   4.435   4.113
   144G12  C01B 2519   3.377   4.365   4.234
   144G12  H009 2520   3.387   4.258   4.213
   144G12  H008 2521   3.276   4.364   4.275
   144G12  H007 2522   3.446   4.393   4.314
   144G12  C00W 2523   3.427   4.653   4.028
   144G12  O004 2524   3.484   4.589   3.924
   144G12  C01C 2525   3.563   4.665   3.841
   144G12  H00A 2526   3.648   4.619   3.795
   144G12  C00P 2527   3.545   4.807   3.827
   144G12  C00O 2528   3.593   4.871   3.709
   144G12  C01D 2529   3.606   4.799   3.590
   144G12  H00S 2530   3.581   4.694   3.587
   144G12  C01E 2531   3.617   4.858   3.457
   144G12  O008 2532   3.603   4.777   3.346
   144G12  C01V 2533   3.659   4.645   3.339
   144G12  C01Z 2534   3.570   4.541   3.281
   144G12  H00R 2535   3.514   4.596   3.205
   144G12  H00Q 2536   3.626   4.460   3.233
   144G12  O009 2537   3.485   4.486   3.382
   144G12  H00P 2538   3.531   4.446   3.455
   144G12  C01W 2539   3.783   4.620   3.392
   144G12  H00O 2540   3.845   4.695   3.439
   144G12  C01X 2541   3.858   4.486   3.404
   144G12  H00N 2542   3.843   4.420   3.319
   144G12  H00M 2543   3.966   4.500   3.412
   144G12  C01Y 2544   3.810   4.428   3.534
   144G12  C02D 2545   3.735   4.309   3.530
   144G12  H019 2546   3.706   4.271   3.432
   144G12  C02C 2547   3.696   4.248   3.652
   144G12  H01A 2548   3.642   4.155   3.651
   144G12  C02B 2549   3.739   4.307   3.770
   144G12  O00E 2550   3.685   4.264   3.886
   144G12  H01B 2551   3.704   4.330   3.951
   144G12  C02F 2552   3.811   4.425   3.777
   144G12  O00F 2553   3.835   4.477   3.901
   144G12  C02G 2554   3.931   4.571   3.909
   144G12  H017 2555   3.933   4.593   4.016
   144G12  H016 2556   3.911   4.665   3.857
   144G12  H015 2557   4.024   4.526   3.872
   144G12  C02E 2558   3.854   4.477   3.653
   144G12  H018 2559   3.903   4.574   3.646
   144G12  C01F 2560   3.623   4.996   3.449
   144G12  C01G 2561   3.594   5.071   3.330
   144G12  H00L 2562   3.567   5.023   3.237
   144G12  C01H 2563   3.570   5.216   3.347
   144G12  H00B 2564   3.510   5.262   3.270
   144G12  C01I 2565   3.600   5.280   3.472
   144G12  C01U 2566   3.655   5.067   3.571
   144G12  C00S 2567   3.413   5.066   4.071
   144G12  C00K 2568   3.470   5.237   3.943
   144G12  C00N 2569   3.621   5.005   3.692
   144G12  C000 2570   3.666   5.203   3.573
   144G12  C01J 2571   3.533   5.385   3.543
   144G12  C01K 2572   3.452   5.491   3.486
   144G12  C01P 2573   3.469   5.548   3.356
   144G12  C01Q 2574   3.582   5.509   3.271
   144G12  H00G 2575   3.675   5.465   3.305
   144G12  C01R 2576   3.584   5.520   3.138
   144G12  H00F 2577   3.501   5.553   3.078
   144G12  C01S 2578   3.701   5.468   3.052
   144G12  H00E 2579   3.803   5.486   3.086
   144G12  H00D 2580   3.693   5.361   3.034
   144G12  O005 2581   3.687   5.530   2.924
   144G12  H00C 2582   3.707   5.462   2.862
   144G12  C01O 2583   3.374   5.643   3.310
   144G12  H00H 2584   3.385   5.681   3.210
   144G12  C01N 2585   3.258   5.679   3.384
   144G12  O006 2586   3.152   5.754   3.337
   144G12  C01T 2587   3.136   5.769   3.193
   144G12  H00K 2588   3.226   5.808   3.146
   144G12  H00J 2589   3.067   5.847   3.162
   144G12  H00I 2590   3.116   5.670   3.152
   144G12  C01M 2591   3.246   5.622   3.514
   144G12  C020 2592   3.422   5.362   3.902
   144G12  C021 2593   3.332   5.445   3.972
   144G12  C01L 2594   3.345   5.528   3.568
   144G12  O007 2595   3.130   5.652   3.581
   144G12  C022 2596   3.233   5.519   3.914
   144G12  C023 2597   3.271   5.400   4.096
   144G12  C00G 2598   3.101   5.260   4.255
   144G12  C00E 2599   2.895   5.248   4.395
   144G12  O00A 2600   2.822   5.202   4.500
   144G12  C024 2601   2.703   5.125   4.475
   144G12  H00V 2602   2.635   5.162   4.552
   144G12  H00U 2603   2.726   5.021   4.497
   144G12  H00T 2604   2.647   5.139   4.383
   154G12  C00D 2605   2.827   4.370   4.172
   154G12  O00B 2606   2.802   4.250   4.232
   154G12  C025 2607   2.795   4.263   4.371
   154G12  C026 2608   2.653   4.261   4.429
   154G12  H00Y 2609   2.640   4.164   4.479
   154G12  H00X 2610   2.582   4.266   4.347
   154G12  O00C 2611   2.634   4.368   4.517
   154G12  H00W 2612   2.700   4.366   4.585
   154G12  C027 2613   2.915   4.279   4.442
   154G12  O00D 2614   3.038   4.277   4.371
   154G12  H00Z 2615   3.017   4.268   4.280
   154G12  C028 2616   2.925   4.312   4.583
   154G12  C029 2617   3.027   4.399   4.625
   154G12  H010 2618   3.068   4.451   4.539
   154G12  C02T 2619   3.050   4.429   4.760
   154G12  H01O 2620   3.130   4.497   4.787
   154G12  C02S 2621   2.963   4.368   4.856
   154G12  O00J 2622   2.976   4.402   4.986
   154G12  H01P 2623   2.920   4.343   5.034
   154G12  C02R 2624   2.866   4.280   4.815
   154G12  O00I 2625   2.788   4.244   4.922
   154G12  C02Q 2626   2.669   4.182   4.887
   154G12  H01N 2627   2.603   4.244   4.825
   154G12  H01R 2628   2.610   4.164   4.976
   154G12  H01Q 2629   2.656   4.091   4.829
   154G12  C02A 2630   2.850   4.244   4.681
   154G12  H011 2631   2.771   4.178   4.650
   154G12  C00C 2632   2.744   4.480   4.185
   154G12  H012 2633   2.653   4.472   4.242
   154G12  C00B 2634   2.790   4.604   4.146
   154G12  C00A 2635   2.733   4.734   4.176
   154G12  C009 2636   2.598   4.774   4.210
   154G12  C008 2637   2.479   4.702   4.198
   154G12  H013 2638   2.478   4.595   4.187
   154G12  C007 2639   2.361   4.780   4.174
   154G12  H014 2640   2.266   4.734   4.149
   154G12  C006 2641   2.367   4.916   4.154
   154G12  C005 2642   2.491   4.980   4.161
   154G12  C004 2643   2.510   5.108   4.100
   154G12  C003 2644   2.640   5.154   4.066
   154G12  C002 2645   2.647   5.275   3.987
   154G12  C001 2646   2.757   5.354   3.937
   154G12  C00M 2647   2.878   5.305   3.880
   154G12  C00L 2648   2.940   5.186   3.926
   154G12  C00R 2649   3.034   5.105   3.854
   154G12  C00Q 2650   3.094   5.123   3.719
   154G12  C00V 2651   3.166   5.007   3.676
   154G12  C00U 2652   3.163   4.884   3.744
   154G12  C00T 2653   3.095   4.866   3.860
   154G12  C016 2654   3.064   4.743   3.925
   154G12  C015 2655   3.116   4.631   3.871
   154G12  C010 2656   3.198   4.642   3.758
   154G12  C011 2657   3.271   4.526   3.716
   154G12  H005 2658   3.336   4.530   3.630
   154G12  C012 2659   3.249   4.397   3.773
   154G12  C017 2660   3.320   4.271   3.742
   154G12  O002 2661   3.353   4.242   3.615
   154G12  H004 2662   3.389   4.156   3.599
   154G12  C018 2663   3.357   4.188   3.839
   154G12  O001 2664   3.341   4.208   3.969
   154G12  H003 2665   3.349   4.301   3.982
   154G12  C019 2666   3.435   4.057   3.835
   154G12  H002 2667   3.530   4.071   3.887
   154G12  H001 2668   3.381   3.982   3.893
   154G12  O000 2669   3.462   4.018   3.698
   154G12  C01A 2670   3.521   3.898   3.674
   154G12  C02K 2671   3.524   3.857   3.542
   154G12  O00G 2672   3.479   3.943   3.440
   154G12  C02M 2673   3.429   3.884   3.319
   154G12  H01G 2674   3.508   3.852   3.251
   154G12  H01F 2675   3.365   3.956   3.268
   154G12  H01E 2676   3.376   3.791   3.339
   154G12  C02J 2677   3.594   3.738   3.511
   154G12  H01H 2678   3.604   3.705   3.409
   154G12  C02I 2679   3.653   3.664   3.614
   154G12  C02N 2680   3.715   3.534   3.585
   154G12  H01M 2681   3.767   3.518   3.492
   154G12  C02O 2682   3.722   3.441   3.682
   154G12  H01L 2683   3.679   3.449   3.781
   154G12  C02P 2684   3.791   3.308   3.655
   154G12  H01K 2685   3.727   3.226   3.623
   154G12  H01J 2686   3.856   3.321   3.568
   154G12  O00H 2687   3.872   3.276   3.762
   154G12  H01I 2688   3.821   3.256   3.839
   154G12  C02H 2689   3.651   3.712   3.746
   154G12  H01C 2690   3.705   3.665   3.828
   154G12  C02L 2691   3.586   3.828   3.778
   154G12  H01D 2692   3.581   3.857   3.882
   154G12  C013 2693   3.142   4.394   3.865
   154G12  H000 2694   3.118   4.294   3.896
   154G12  C014 2695   3.082   4.509   3.928
   154G12  C00F 2696   2.981   4.497   4.025
   154G12  C00H 2697   2.963   4.741   4.021
   154G12  C00I 2698   2.913   4.855   4.080
   154G12  C00J 2699   2.949   4.980   4.023
   154G12  C00Z 2700   3.218   4.764   3.690
   154G12  C00Y 2701   3.277   4.773   3.558
   154G12  H006 2702   3.322   4.691   3.503
   154G12  C00X 2703   3.291   4.894   3.491
   154G12  O003 2704   3.329   4.913   3.360
   154G12  C01B 2705   3.314   4.805   3.268
   154G12  H009 2706   3.377   4.724   3.305
   154G12  H008 2707   3.350   4.840   3.172
   154G12  H007 2708   3.207   4.784   3.264
   154G12  C00W 2709   3.242   5.010   3.557
   154G12  O004 2710   3.258   5.123   3.490
   154G12  C01C 2711   3.177   5.229   3.516
   154G12  H00A 2712   3.193   5.320   3.459
   154G12  C00P 2713   3.086   5.231   3.629
   154G12  C00O 2714   2.974   5.323   3.633
   154G12  C01D 2715   2.933   5.383   3.510
   154G12  H00S 2716   2.989   5.378   3.418
   154G12  C01E 2717   2.814   5.458   3.492
   154G12  O008 2718   2.777   5.507   3.366
   154G12  C01V 2719   2.791   5.645   3.344
   154G12  C01Z 2720   2.744   5.693   3.211
   154G12  H00R 2721   2.658   5.639   3.172
   154G12  H00Q 2722   2.715   5.798   3.209
   154G12  O009 2723   2.850   5.680   3.128
   154G12  H00P 2724   2.907   5.618   3.171
   154G12  C01W 2725   2.851   5.729   3.432
   154G12  H00O 2726   2.897   5.690   3.522
   154G12  C01X 2727   2.862   5.876   3.423
   154G12  H00N 2728   2.954   5.909   3.470
   154G12  H00M 2729   2.877   5.903   3.318
   154G12  C01Y 2730   2.741   5.943   3.489
   154G12  C02D 2731   2.681   6.062   3.431
   154G12  H019 2732   2.726   6.102   3.342
   154G12  C02C 2733   2.566   6.119   3.481
   154G12  H01A 2734   2.532   6.215   3.445
   154G12  C02B 2735   2.505   6.060   3.593
   154G12  O00E 2736   2.397   6.121   3.651
   154G12  H01B 2737   2.360   6.073   3.724
   154G12  C02F 2738   2.554   5.938   3.652
   154G12  O00F 2739   2.473   5.887   3.756
   154G12  C02G 2740   2.536   5.806   3.861
   154G12  H017 2741   2.569   5.708   3.828
   154G12  H016 2742   2.467   5.784   3.942
   154G12  H015 2743   2.621   5.849   3.913
   154G12  C02E 2744   2.677   5.886   3.604
   154G12  H018 2745   2.715   5.793   3.643
   154G12  C01F 2746   2.723   5.467   3.600
   154G12  C01G 2747   2.580   5.483   3.593
   154G12  H00L 2748   2.543   5.508   3.495
   154G12  C01H 2749   2.498   5.464   3.710
   154G12  H00B 2750   2.391   5.453   3.701
   154G12  C01I 2751   2.562   5.416   3.827
   154G12  C01U 2752   2.774   5.438   3.731
   154G12  C00S 2753   3.046   4.985   3.921
   154G12  C00K 2754   2.881   5.097   4.023
   154G12  C00N 2755   2.888   5.353   3.742
   154G12  C000 2756   2.701   5.443   3.846
   154G12  C01J 2757   2.528   5.325   3.933
   154G12  C01K 2758   2.394   5.294   3.976
   154G12  C01P 2759   2.269   5.360   3.948
   154G12  C01Q 2760   2.270   5.497   3.901
   154G12  H00G 2761   2.348   5.567   3.927
   154G12  C01R 2762   2.171   5.530   3.820
   154G12  H00F 2763   2.089   5.464   3.795
   154G12  C01S 2764   2.156   5.672   3.758
   154G12  H00E 2765   2.214   5.694   3.668
   154G12  H00D 2766   2.051   5.681   3.729
   154G12  O005 2767   2.162   5.767   3.861
   154G12  H00C 2768   2.248   5.806   3.854
   154G12  C01O 2769   2.147   5.302   3.989
   154G12  H00H 2770   2.055   5.359   3.984
   154G12  C01N 2771   2.151   5.173   4.041
   154G12  O006 2772   2.041   5.094   4.074
   154G12  C01T 2773   1.907   5.149   4.050
   154G12  H00K 2774   1.874   5.131   3.948
   154G12  H00J 2775   1.896   5.255   4.072
   154G12  H00I 2776   1.835   5.096   4.113
   154G12  C01M 2777   2.268   5.109   4.073
   154G12  C020 2778   2.758   5.083   4.102
   154G12  C021 2779   2.736   4.964   4.180
   154G12  C01L 2780   2.395   5.175   4.055
   154G12  O007 2781   2.250   4.983   4.116
   154G12  C022 2782   2.609   4.915   4.206
   154G12  C023 2783   2.811   4.846   4.171
   154G12  C00G 2784   2.914   4.613   4.069
   154G12  C00E 2785   2.935   4.375   4.086
   154G12  O00A 2786   2.985   4.250   4.061
   154G12  C024 2787   2.903   4.169   3.978
   154G12  H00V 2788   2.816   4.128   4.029
   154G12  H00U 2789   2.961   4.079   3.956
   154G12  H00T 2790   2.875   4.224   3.888
   164G12  C00D 2791   3.772   4.750   8.536
   164G12  O00B 2792   3.831   4.803   8.649
   164G12  C025 2793   3.846   4.943   8.647
   164G12  C026 2794   3.723   5.014   8.708
   164G12  H00Y 2795   3.716   5.122   8.708
   164G12  H00X 2796   3.696   4.971   8.805
   164G12  O00C 2797   3.598   4.984   8.640
   164G12  H00W 2798   3.592   4.890   8.643
   164G12  C027 2799   3.960   5.001   8.596
   164G12  O00D 2800   4.065   4.930   8.559
   164G12  H00Z 2801   4.111   4.975   8.490
   164G12  C028 2802   3.971   5.147   8.558
   164G12  C029 2803   3.930   5.255   8.646
   164G12  H010 2804   3.886   5.245   8.744
   164G12  C02T 2805   3.958   5.387   8.601
   164G12  H01O 2806   3.932   5.477   8.654
   164G12  C02S 2807   4.012   5.414   8.478
   164G12  O00J 2808   4.040   5.543   8.443
   164G12  H01P 2809   4.100   5.535   8.371
   164G12  C02R 2810   4.049   5.310   8.390
   164G12  O00I 2811   4.109   5.343   8.268
   164G12  C02Q 2812   4.128   5.240   8.164
   164G12  H01N 2813   4.036   5.188   8.138
   164G12  H01R 2814   4.206   5.168   8.189
   164G12  H01Q 2815   4.155   5.297   8.075
   164G12  C02A 2816   4.033   5.177   8.435
   164G12  H011 2817   4.063   5.093   8.375
   164G12  C00C 2818   3.782   4.812   8.407
   164G12  H012 2819   3.839   4.902   8.396
   164G12  C00B 2820   3.734   4.743   8.296
   164G12  C00A 2821   3.751   4.782   8.162
   164G12  C009 2822   3.776   4.917   8.109
   164G12  C008 2823   3.786   5.049   8.163
   164G12  H013 2824   3.821   5.067   8.263
   164G12  C007 2825   3.758   5.160   8.076
   164G12  H014 2826   3.780   5.259   8.114
   164G12  C006 2827   3.711   5.145   7.943
   164G12  C005 2828   3.698   5.010   7.897
   164G12  C004 2829   3.616   4.980   7.788
   164G12  C003 2830   3.583   4.842   7.763
   164G12  C002 2831   3.496   4.818   7.644
   164G12  C001 2832   3.438   4.700   7.587
   164G12  C00M 2833   3.380   4.592   7.663
   164G12  C00L 2834   3.448   4.538   7.777
   164G12  C00R 2835   3.392   4.445   7.873
   164G12  C00Q 2836   3.256   4.404   7.890
   164G12  C00V 2837   3.236   4.330   8.010
   164G12  C00U 2838   3.323   4.341   8.117
   164G12  C00T 2839   3.446   4.409   8.113
   164G12  C016 2840   3.520   4.453   8.218
   164G12  C015 2841   3.477   4.416   8.344
   164G12  C010 2842   3.366   4.328   8.354
   164G12  C011 2843   3.330   4.298   8.488
   164G12  H005 2844   3.260   4.217   8.504
   164G12  C012 2845   3.380   4.356   8.603
   164G12  C017 2846   3.324   4.325   8.738
   164G12  O002 2847   3.189   4.340   8.753
   164G12  H004 2848   3.183   4.343   8.848
   164G12  C018 2849   3.413   4.291   8.842
   164G12  O001 2850   3.546   4.273   8.826
   164G12  H003 2851   3.555   4.273   8.732
   164G12  C019 2852   3.360   4.272   8.985
   164G12  H002 2853   3.371   4.167   9.011
   164G12  H001 2854   3.421   4.331   9.054
   164G12  O000 2855   3.234   4.321   8.999
   164G12  C01A 2856   3.168   4.300   9.118
   164G12  C02K 2857   3.039   4.354   9.126
   164G12  O00G 2858   2.998   4.435   9.014
   164G12  C02M 2859   2.872   4.488   9.006
   164G12  H01G 2860   2.863   4.521   8.903
   164G12  H01F 2861   2.853   4.568   9.078
   164G12  H01E 2862   2.794   4.414   9.023
   164G12  C02J 2863   2.959   4.341   9.239
   164G12  H01H 2864   2.858   4.380   9.243
   164G12  C02I 2865   3.004   4.273   9.353
   164G12  C02N 2866   2.919   4.273   9.478
   164G12  H01M 2867   2.971   4.260   9.572
   164G12  C02O 2868   2.790   4.294   9.482
   164G12  H01L 2869   2.741   4.297   9.386
   164G12  C02P 2870   2.709   4.300   9.613
   164G12  H01K 2871   2.761   4.330   9.704
   164G12  H01J 2872   2.623   4.366   9.599
   164G12  O00H 2873   2.650   4.170   9.636
   164G12  H01I 2874   2.593   4.148   9.563
   164G12  C02H 2875   3.141   4.243   9.359
   164G12  H01C 2876   3.175   4.195   9.450
   164G12  C02L 2877   3.216   4.240   9.240
   164G12  H01D 2878   3.319   4.208   9.243
   164G12  C013 2879   3.480   4.450   8.583
   164G12  H000 2880   3.501   4.517   8.665
   164G12  C014 2881   3.533   4.475   8.455
   164G12  C00F 2882   3.641   4.565   8.438
   164G12  C00H 2883   3.619   4.553   8.197
   164G12  C00I 2884   3.652   4.587   8.066
   164G12  C00J 2885   3.584   4.528   7.961
   164G12  C00Z 2886   3.285   4.299   8.243
   164G12  C00Y 2887   3.166   4.227   8.259
   164G12  H006 2888   3.136   4.186   8.355
   164G12  C00X 2889   3.084   4.190   8.151
   164G12  O003 2890   2.967   4.129   8.176
   164G12  C01B 2891   2.938   4.013   8.103
   164G12  H009 2892   2.840   3.974   8.130
   164G12  H008 2893   3.017   3.938   8.115
   164G12  H007 2894   2.922   4.044   7.999
   164G12  C00W 2895   3.114   4.260   8.032
   164G12  O004 2896   3.012   4.264   7.942
   164G12  C01C 2897   3.016   4.381   7.868
   164G12  H00A 2898   2.957   4.465   7.897
   164G12  C00P 2899   3.141   4.425   7.809
   164G12  C00O 2900   3.134   4.525   7.701
   164G12  C01D 2901   3.007   4.553   7.647
   164G12  H00S 2902   2.929   4.496   7.694
   164G12  C01E 2903   2.982   4.666   7.559
   164G12  O008 2904   2.858   4.706   7.503
   164G12  C01V 2905   2.759   4.740   7.593
   164G12  C01Z 2906   2.660   4.626   7.627
   164G12  H00R 2907   2.557   4.664   7.623
   164G12  H00Q 2908   2.661   4.551   7.548
   164G12  O009 2909   2.681   4.577   7.757
   164G12  H00P 2910   2.607   4.574   7.816
   164G12  C01W 2911   2.747   4.870   7.634
   164G12  H00O 2912   2.818   4.948   7.613
   164G12  C01X 2913   2.643   4.921   7.727
   164G12  H00N 2914   2.622   5.027   7.722
   164G12  H00M 2915   2.552   4.872   7.690
   164G12  C01Y 2916   2.670   4.891   7.879
   164G12  C02D 2917   2.581   4.808   7.948
   164G12  H019 2918   2.489   4.769   7.908
   164G12  C02C 2919   2.596   4.784   8.083
   164G12  H01A 2920   2.529   4.712   8.129
   164G12  C02B 2921   2.690   4.856   8.155
   164G12  O00E 2922   2.700   4.836   8.285
   164G12  H01B 2923   2.751   4.907   8.320
   164G12  C02F 2924   2.784   4.938   8.085
   164G12  O00F 2925   2.878   5.005   8.160
   164G12  C02G 2926   2.987   5.075   8.098
   164G12  H017 2927   2.968   5.167   8.042
   164G12  H016 2928   3.049   5.008   8.038
   164G12  H015 2929   3.052   5.088   8.184
   164G12  C02E 2930   2.776   4.947   7.947
   164G12  H018 2931   2.843   5.015   7.896
   164G12  C01F 2932   3.090   4.745   7.521
   164G12  C01G 2933   3.086   4.877   7.468
   164G12  H00L 2934   2.995   4.927   7.438
   164G12  C01H 2935   3.211   4.950   7.464
   164G12  H00B 2936   3.197   5.056   7.470
   164G12  C01I 2937   3.333   4.887   7.499
   164G12  C01U 2938   3.221   4.687   7.537
   164G12  C00S 2939   3.480   4.436   7.983
   164G12  C00K 2940   3.560   4.604   7.839
   164G12  C00N 2941   3.242   4.589   7.635
   164G12  C000 2942   3.341   4.747   7.497
   164G12  C01J 2943   3.452   4.930   7.563
   164G12  C01K 2944   3.495   5.069   7.589
   164G12  C01P 2945   3.467   5.183   7.510
   164G12  C01Q 2946   3.421   5.152   7.380
   164G12  H00G 2947   3.474   5.089   7.309
   164G12  C01R 2948   3.321   5.226   7.327
   164G12  H00F 2949   3.265   5.300   7.381
   164G12  C01S 2950   3.268   5.197   7.186
   164G12  H00E 2951   3.251   5.296   7.145
   164G12  H00D 2952   3.326   5.126   7.128
   164G12  O005 2953   3.139   5.139   7.196
   164G12  H00C 2954   3.081   5.208   7.223
   164G12  C01O 2955   3.511   5.309   7.542
   164G12  H00H 2956   3.488   5.390   7.473
   164G12  C01N 2957   3.573   5.329   7.666
   164G12  O006 2958   3.612   5.453   7.717
   164G12  C01T 2959   3.603   5.572   7.647
   164G12  H00K 2960   3.676   5.577   7.567
   164G12  H00J 2961   3.633   5.656   7.710
   164G12  H00I 2962   3.500   5.585   7.615
   164G12  C01M 2963   3.612   5.219   7.745
   164G12  C020 2964   3.627   4.733   7.839
   164G12  C021 2965   3.725   4.769   7.932
   164G12  C01L 2966   3.576   5.084   7.703
   164G12  O007 2967   3.679   5.245   7.862
   164G12  C022 2968   3.752   4.900   7.968
   164G12  C023 2969   3.735   4.696   8.052
   164G12  C00G 2970   3.667   4.617   8.309
   164G12  C00E 2971   3.707   4.626   8.553
   164G12  O00A 2972   3.701   4.574   8.680
   164G12  C024 2973   3.801   4.476   8.709
   164G12  H00V 2974   3.796   4.392   8.640
   164G12  H00U 2975   3.782   4.437   8.810
   164G12  H00T 2976   3.907   4.504   8.713
   174G12  C00D 2977   6.285   1.575   9.531
   174G12  O00B 2978   6.363   1.661   9.598
   174G12  C025 2979   6.503   1.659   9.573
   174G12  C026 2980   6.540   1.651   9.420
   174G12  H00Y 2981   6.474   1.586   9.363
   174G12  H00X 2982   6.642   1.612   9.416
   174G12  O00C 2983   6.531   1.782   9.358
   174G12  H00W 2984   6.512   1.762   9.268
   174G12  C027 2985   6.587   1.658   9.679
   174G12  O00D 2986   6.518   1.651   9.799
   174G12  H00Z 2987   6.430   1.674   9.773
   174G12  C028 2988   6.733   1.663   9.672
   174G12  C029 2989   6.809   1.581   9.759
   174G12  H010 2990   6.757   1.529   9.839
   174G12  C02T 2991   6.956   1.578   9.749
   174G12  H01O 2992   7.017   1.519   9.815
   174G12  C02S 2993   7.020   1.665   9.657
   174G12  O00J 2994   7.155   1.678   9.645
   174G12  H01P 2995   7.164   1.750   9.584
   174G12  C02R 2996   6.939   1.746   9.569
   174G12  O00I 2997   7.005   1.823   9.484
   174G12  C02Q 2998   6.928   1.929   9.420
   174G12  H01N 2999   6.999   1.974   9.352
   174G12  H01R 3000   6.896   2.008   9.488
   174G12  H01Q 3001   6.848   1.899   9.352
   174G12  C02A 3002   6.800   1.746   9.578
   174G12  H011 3003   6.736   1.816   9.527
   174G12  C00C 3004   6.229   1.616   9.408
   174G12  H012 3005   6.237   1.713   9.361
   174G12  C00B 3006   6.145   1.531   9.334
   174G12  C00A 3007   6.065   1.568   9.220
   174G12  C009 3008   6.022   1.699   9.164
   174G12  C008 3009   6.016   1.834   9.211
   174G12  H013 3010   6.091   1.872   9.278
   174G12  C007 3011   5.905   1.920   9.173
   174G12  H014 3012   5.900   2.022   9.210
   174G12  C006 3013   5.803   1.881   9.090
   174G12  C005 3014   5.802   1.747   9.049
   174G12  C004 3015   5.683   1.679   9.008
   174G12  C003 3016   5.677   1.536   8.993
   174G12  C002 3017   5.544   1.481   8.964
   174G12  C001 3018   5.495   1.346   8.946
   174G12  C00M 3019   5.526   1.246   9.043
   174G12  C00L 3020   5.661   1.210   9.073
   174G12  C00R 3021   5.688   1.119   9.183
   174G12  C00Q 3022   5.613   1.027   9.258
   174G12  C00V 3023   5.687   0.978   9.371
   174G12  C00U 3024   5.810   1.029   9.418
   174G12  C00T 3025   5.872   1.127   9.349
   174G12  C016 3026   5.974   1.205   9.397
   174G12  C015 3027   6.034   1.164   9.519
   174G12  C010 3028   5.991   1.042   9.577
   174G12  C011 3029   6.070   0.989   9.676
   174G12  H005 3030   6.057   0.890   9.716
   174G12  C012 3031   6.172   1.062   9.742
   174G12  C017 3032   6.253   1.015   9.848
   174G12  O002 3033   6.269   1.109   9.953
   174G12  H004 3034   6.336   1.076  10.012
   174G12  C018 3035   6.310   0.896   9.851
   174G12  O001 3036   6.299   0.808   9.747
   174G12  H003 3037   6.303   0.864   9.671
   174G12  C019 3038   6.393   0.834   9.960
   174G12  H002 3039   6.354   0.743  10.007
   174G12  H001 3040   6.492   0.799   9.930
   174G12  O000 3041   6.414   0.912  10.078
   174G12  C01A 3042   6.523   1.002  10.085
   174G12  C02K 3043   6.565   1.042  10.213
   174G12  O00G 3044   6.503   0.984  10.321
   174G12  C02M 3045   6.530   1.029  10.455
   174G12  H01G 3046   6.528   1.138  10.453
   174G12  H01F 3047   6.622   0.978  10.481
   174G12  H01E 3048   6.446   0.985  10.509
   174G12  C02J 3049   6.677   1.126  10.219
   174G12  H01H 3050   6.727   1.143  10.314
   174G12  C02I 3051   6.738   1.183  10.106
   174G12  C02N 3052   6.861   1.261  10.126
   174G12  H01M 3053   6.868   1.342  10.197
   174G12  C02O 3054   6.962   1.263  10.034
   174G12  H01L 3055   6.962   1.199   9.947
   174G12  C02P 3056   7.089   1.352  10.053
   174G12  H01K 3057   7.090   1.452  10.011
   174G12  H01J 3058   7.098   1.383  10.157
   174G12  O00H 3059   7.197   1.286  10.000
   174G12  H01I 3060   7.256   1.343   9.954
   174G12  C02H 3061   6.684   1.160   9.978
   174G12  H01C 3062   6.726   1.204   9.889
   174G12  C02L 3063   6.578   1.063   9.968
   174G12  H01D 3064   6.543   1.039   9.869
   174G12  C013 3065   6.206   1.185   9.676
   174G12  H000 3066   6.296   1.232   9.715
   174G12  C014 3067   6.136   1.241   9.567
   174G12  C00F 3068   6.159   1.367   9.515
   174G12  C00H 3069   6.022   1.317   9.324
   174G12  C00I 3070   5.974   1.346   9.197
   174G12  C00J 3071   5.867   1.264   9.146
   174G12  C00Z 3072   5.873   0.984   9.535
   174G12  C00Y 3073   5.801   0.885   9.609
   174G12  H006 3074   5.846   0.854   9.703
   174G12  C00X 3075   5.670   0.840   9.574
   174G12  O003 3076   5.589   0.759   9.652
   174G12  C01B 3077   5.645   0.731   9.782
   174G12  H009 3078   5.564   0.702   9.848
   174G12  H008 3079   5.679   0.825   9.826
   174G12  H007 3080   5.727   0.659   9.773
   174G12  C00W 3081   5.620   0.885   9.455
   174G12  O004 3082   5.490   0.844   9.441
   174G12  C01C 3083   5.429   0.883   9.323
   174G12  H00A 3084   5.352   0.826   9.272
   174G12  C00P 3085   5.473   0.995   9.250
   174G12  C00O 3086   5.378   1.072   9.178
   174G12  C01D 3087   5.241   1.066   9.217
   174G12  H00S 3088   5.203   0.998   9.292
   174G12  C01E 3089   5.151   1.181   9.202
   174G12  O008 3090   5.031   1.189   9.275
   174G12  C01V 3091   5.047   1.239   9.402
   174G12  C01Z 3092   5.022   1.392   9.411
   174G12  H00R 3093   5.076   1.424   9.501
   174G12  H00Q 3094   5.054   1.461   9.333
   174G12  O009 3095   4.886   1.402   9.462
   174G12  H00P 3096   4.839   1.332   9.419
   174G12  C01W 3097   5.091   1.157   9.497
   174G12  H00O 3098   5.098   1.053   9.469
   174G12  C01X 3099   5.124   1.194   9.645
   174G12  H00N 3100   5.064   1.279   9.678
   174G12  H00M 3101   5.099   1.106   9.705
   174G12  C01Y 3102   5.273   1.219   9.670
   174G12  C02D 3103   5.339   1.153   9.771
   174G12  H019 3104   5.276   1.087   9.829
   174G12  C02C 3105   5.480   1.175   9.787
   174G12  H01A 3106   5.528   1.112   9.861
   174G12  C02B 3107   5.554   1.268   9.710
   174G12  O00E 3108   5.678   1.315   9.747
   174G12  H01B 3109   5.698   1.372   9.675
   174G12  C02F 3110   5.491   1.328   9.606
   174G12  O00F 3111   5.574   1.394   9.515
   174G12  C02G 3112   5.523   1.425   9.385
   174G12  H017 3113   5.434   1.489   9.386
   174G12  H016 3114   5.489   1.333   9.337
   174G12  H015 3115   5.599   1.454   9.313
   174G12  C02E 3116   5.351   1.302   9.588
   174G12  H018 3117   5.302   1.341   9.500
   174G12  C01F 3118   5.188   1.280   9.109
   174G12  C01G 3119   5.116   1.402   9.085
   174G12  H00L 3120   5.018   1.414   9.130
   174G12  C01H 3121   5.187   1.513   9.025
   174G12  H00B 3122   5.147   1.611   9.048
   174G12  C01I 3123   5.314   1.492   8.974
   174G12  C01U 3124   5.308   1.266   9.038
   174G12  C00S 3125   5.822   1.155   9.220
   174G12  C00K 3126   5.768   1.310   9.056
   174G12  C00N 3127   5.407   1.179   9.089
   174G12  C000 3128   5.356   1.357   8.951
   174G12  C01J 3129   5.432   1.569   8.958
   174G12  C01K 3130   5.442   1.712   8.966
   174G12  C01P 3131   5.341   1.807   8.941
   174G12  C01Q 3132   5.216   1.758   8.883
   174G12  H00G 3133   5.223   1.680   8.810
   174G12  C01R 3134   5.101   1.821   8.909
   174G12  H00F 3135   5.094   1.891   8.991
   174G12  C01S 3136   4.972   1.770   8.845
   174G12  H00E 3137   4.910   1.854   8.813
   174G12  H00D 3138   4.999   1.709   8.759
   174G12  O005 3139   4.902   1.691   8.941
   174G12  H00C 3140   4.844   1.631   8.897
   174G12  C01O 3141   5.356   1.946   8.965
   174G12  H00H 3142   5.268   2.007   8.951
   174G12  C01N 3143   5.477   1.998   8.998
   174G12  O006 3144   5.499   2.131   9.014
   174G12  C01T 3145   5.391   2.221   8.983
   174G12  H00K 3146   5.372   2.221   8.876
   174G12  H00J 3147   5.430   2.321   9.001
   174G12  H00I 3148   5.312   2.198   9.054
   174G12  C01M 3149   5.580   1.906   9.017
   174G12  C020 3150   5.785   1.448   9.028
   174G12  C021 3151   5.909   1.520   9.050
   174G12  C01L 3152   5.568   1.759   8.994
   174G12  O007 3153   5.699   1.964   9.058
   174G12  C022 3154   5.914   1.655   9.072
   174G12  C023 3155   6.001   1.471   9.149
   174G12  C00G 3156   6.113   1.405   9.388
   174G12  C00E 3157   6.236   1.458   9.587
   174G12  O00A 3158   6.256   1.446   9.720
   174G12  C024 3159   6.151   1.506   9.798
   174G12  H00V 3160   6.059   1.460   9.763
   174G12  H00U 3161   6.133   1.613   9.785
   174G12  H00T 3162   6.154   1.473   9.902
   184G12  C00D 3163   1.835   3.834   7.022
   184G12  O00B 3164   1.850   3.875   7.158
   184G12  C025 3165   1.882   3.790   7.260
   184G12  C026 3166   1.764   3.759   7.347
   184G12  H00Y 3167   1.788   3.686   7.424
   184G12  H00X 3168   1.681   3.738   7.281
   184G12  O00C 3169   1.736   3.882   7.419
   184G12  H00W 3170   1.741   3.951   7.355
   184G12  C027 3171   2.011   3.742   7.275
   184G12  O00D 3172   2.113   3.773   7.191
   184G12  H00Z 3173   2.067   3.834   7.135
   184G12  C028 3174   2.046   3.655   7.391
   184G12  C029 3175   2.102   3.528   7.376
   184G12  H010 3176   2.113   3.491   7.275
   184G12  C02T 3177   2.153   3.457   7.489
   184G12  H01O 3178   2.198   3.361   7.468
   184G12  C02S 3179   2.151   3.512   7.615
   184G12  O00J 3180   2.198   3.441   7.721
   184G12  H01P 3181   2.167   3.490   7.796
   184G12  C02R 3182   2.096   3.642   7.637
   184G12  O00I 3183   2.101   3.690   7.762
   184G12  C02Q 3184   2.022   3.805   7.780
   184G12  H01N 3185   2.062   3.895   7.734
   184G12  H01R 3186   2.025   3.831   7.886
   184G12  H01Q 3187   1.918   3.782   7.757
   184G12  C02A 3188   2.038   3.713   7.524
   184G12  H011 3189   1.992   3.810   7.538
   184G12  C00C 3190   1.801   3.937   6.941
   184G12  H012 3191   1.778   4.036   6.978
   184G12  C00B 3192   1.788   3.920   6.802
   184G12  C00A 3193   1.741   4.018   6.707
   184G12  C009 3194   1.631   4.111   6.730
   184G12  C008 3195   1.552   4.129   6.845
   184G12  H013 3196   1.586   4.102   6.944
   184G12  C007 3197   1.423   4.178   6.826
   184G12  H014 3198   1.359   4.198   6.911
   184G12  C006 3199   1.365   4.200   6.705
   184G12  C005 3200   1.438   4.167   6.594
   184G12  C004 3201   1.382   4.150   6.466
   184G12  C003 3202   1.448   4.080   6.362
   184G12  C002 3203   1.376   4.056   6.243
   184G12  C001 3204   1.408   3.984   6.117
   184G12  C00M 3205   1.477   3.853   6.120
   184G12  C00L 3206   1.588   3.822   6.206
   184G12  C00R 3207   1.639   3.693   6.233
   184G12  C00Q 3208   1.599   3.564   6.193
   184G12  C00V 3209   1.672   3.460   6.262
   184G12  C00U 3210   1.747   3.474   6.382
   184G12  C00T 3211   1.755   3.600   6.430
   184G12  C016 3212   1.802   3.637   6.556
   184G12  C015 3213   1.849   3.536   6.632
   184G12  C010 3214   1.861   3.405   6.578
   184G12  C011 3215   1.931   3.310   6.660
   184G12  H005 3216   1.935   3.206   6.632
   184G12  C012 3217   1.979   3.338   6.790
   184G12  C017 3218   2.053   3.247   6.877
   184G12  O002 3219   2.179   3.217   6.845
   184G12  H004 3220   2.234   3.191   6.917
   184G12  C018 3221   2.003   3.215   7.000
   184G12  O001 3222   1.873   3.251   7.019
   184G12  H003 3223   1.829   3.277   6.940
   184G12  C019 3224   2.072   3.131   7.109
   184G12  H002 3225   2.068   3.187   7.203
   184G12  H001 3226   2.006   3.047   7.126
   184G12  O000 3227   2.200   3.085   7.075
   184G12  C01A 3228   2.289   3.075   7.178
   184G12  C02K 3229   2.421   3.108   7.158
   184G12  O00G 3230   2.453   3.145   7.033
   184G12  C02M 3231   2.590   3.159   6.997
   184G12  H01G 3232   2.645   3.224   7.064
   184G12  H01F 3233   2.585   3.201   6.896
   184G12  H01E 3234   2.644   3.065   6.984
   184G12  C02J 3235   2.510   3.090   7.268
   184G12  H01H 3236   2.616   3.108   7.252
   184G12  C02I 3237   2.478   3.034   7.399
   184G12  C02N 3238   2.582   3.032   7.503
   184G12  H01M 3239   2.683   3.069   7.495
   184G12  C02O 3240   2.557   2.993   7.626
   184G12  H01L 3241   2.455   2.967   7.649
   184G12  C02P 3242   2.640   2.988   7.748
   184G12  H01K 3243   2.746   3.011   7.733
   184G12  H01J 3244   2.599   3.061   7.817
   184G12  O00H 3245   2.626   2.869   7.814
   184G12  H01I 3246   2.537   2.858   7.843
   184G12  C02H 3247   2.343   3.001   7.412
   184G12  H01C 3248   2.310   2.943   7.497
   184G12  C02L 3249   2.254   3.022   7.305
   184G12  H01D 3250   2.151   2.989   7.314
   184G12  C013 3251   1.967   3.468   6.830
   184G12  H000 3252   2.016   3.497   6.921
   184G12  C014 3253   1.892   3.565   6.758
   184G12  C00F 3254   1.857   3.688   6.818
   184G12  C00H 3255   1.797   3.773   6.601
   184G12  C00I 3256   1.752   3.874   6.516
   184G12  C00J 3257   1.717   3.836   6.387
   184G12  C00Z 3258   1.804   3.375   6.456
   184G12  C00Y 3259   1.797   3.248   6.402
   184G12  H006 3260   1.844   3.163   6.450
   184G12  C00X 3261   1.721   3.222   6.286
   184G12  O003 3262   1.716   3.101   6.228
   184G12  C01B 3263   1.838   3.060   6.162
   184G12  H009 3264   1.862   3.146   6.100
   184G12  H008 3265   1.829   2.972   6.098
   184G12  H007 3266   1.919   3.044   6.233
   184G12  C00W 3267   1.655   3.330   6.218
   184G12  O004 3268   1.579   3.295   6.109
   184G12  C01C 3269   1.498   3.387   6.060
   184G12  H00A 3270   1.456   3.361   5.964
   184G12  C00P 3271   1.492   3.523   6.109
   184G12  C00O 3272   1.380   3.606   6.079
   184G12  C01D 3273   1.252   3.542   6.047
   184G12  H00S 3274   1.249   3.435   6.042
   184G12  C01E 3275   1.129   3.617   6.033
   184G12  O008 3276   1.013   3.548   6.016
   184G12  C01V 3277   0.925   3.581   5.917
   184G12  C01Z 3278   0.775   3.575   5.965
   184G12  H00R 3279   0.758   3.654   6.039
   184G12  H00Q 3280   0.700   3.578   5.885
   184G12  O009 3281   0.754   3.449   6.032
   184G12  H00P 3282   0.807   3.448   6.111
   184G12  C01W 3283   0.965   3.613   5.790
   184G12  H00O 3284   1.070   3.623   5.764
   184G12  C01X 3285   0.874   3.663   5.675
   184G12  H00N 3286   0.771   3.678   5.708
   184G12  H00M 3287   0.905   3.763   5.642
   184G12  C01Y 3288   0.882   3.560   5.557
   184G12  C02D 3289   0.970   3.575   5.451
   184G12  H019 3290   1.044   3.654   5.454
   184G12  C02C 3291   0.978   3.476   5.362
   184G12  H01A 3292   1.058   3.479   5.289
   184G12  C02B 3293   0.887   3.370   5.364
   184G12  O00E 3294   0.885   3.276   5.261
   184G12  H01B 3295   0.832   3.208   5.299
   184G12  C02F 3296   0.790   3.348   5.461
   184G12  O00F 3297   0.708   3.242   5.452
   184G12  C02G 3298   0.630   3.210   5.563
   184G12  H017 3299   0.572   3.293   5.604
   184G12  H016 3300   0.692   3.166   5.641
   184G12  H015 3301   0.556   3.131   5.551
   184G12  C02E 3302   0.794   3.444   5.569
   184G12  H018 3303   0.735   3.426   5.658
   184G12  C01F 3304   1.137   3.757   6.046
   184G12  C01G 3305   1.027   3.841   6.080
   184G12  H00L 3306   0.927   3.800   6.085
   184G12  C01H 3307   1.044   3.972   6.138
   184G12  H00B 3308   0.971   4.027   6.196
   184G12  C01I 3309   1.171   4.028   6.136
   184G12  C01U 3310   1.261   3.816   6.040
   184G12  C00S 3311   1.721   3.705   6.348
   184G12  C00K 3312   1.625   3.909   6.309
   184G12  C00N 3313   1.379   3.747   6.084
   184G12  C000 3314   1.274   3.960   6.063
   184G12  C01J 3315   1.243   4.109   6.234
   184G12  C01K 3316   1.174   4.191   6.332
   184G12  C01P 3317   1.041   4.249   6.332
   184G12  C01Q 3318   0.967   4.261   6.206
   184G12  H00G 3319   1.018   4.247   6.112
   184G12  C01R 3320   0.835   4.273   6.206
   184G12  H00F 3321   0.789   4.269   6.304
   184G12  C01S 3322   0.757   4.286   6.081
   184G12  H00E 3323   0.809   4.259   5.989
   184G12  H00D 3324   0.668   4.230   6.107
   184G12  O005 3325   0.711   4.421   6.085
   184G12  H00C 3326   0.784   4.481   6.076
   184G12  C01O 3327   0.997   4.325   6.442
   184G12  H00H 3328   0.914   4.393   6.431
   184G12  C01N 3329   1.062   4.315   6.568
   184G12  O006 3330   1.023   4.381   6.678
   184G12  C01T 3331   0.897   4.443   6.669
   184G12  H00K 3332   0.858   4.448   6.770
   184G12  H00J 3333   0.822   4.400   6.602
   184G12  H00I 3334   0.910   4.536   6.614
   184G12  C01M 3335   1.185   4.248   6.565
   184G12  C020 3336   1.581   4.027   6.380
   184G12  C021 3337   1.644   4.082   6.497
   184G12  C01L 3338   1.247   4.199   6.450
   184G12  O007 3339   1.239   4.241   6.696
   184G12  C022 3340   1.573   4.137   6.602
   184G12  C023 3341   1.739   4.006   6.567
   184G12  C00G 3342   1.821   3.798   6.735
   184G12  C00E 3343   1.855   3.702   6.964
   184G12  O00A 3344   1.861   3.599   7.056
   184G12  C024 3345   1.733   3.533   7.039
   184G12  H00V 3346   1.709   3.449   7.104
   184G12  H00U 3347   1.723   3.490   6.939
   184G12  H00T 3348   1.654   3.605   7.062
   194G12  C00D 3349   2.267   1.711   5.701
   194G12  O00B 3350   2.306   1.611   5.615
   194G12  C025 3351   2.318   1.645   5.485
   194G12  C026 3352   2.202   1.599   5.403
   194G12  H00Y 3353   2.148   1.512   5.439
   194G12  H00X 3354   2.244   1.560   5.310
   194G12  O00C 3355   2.107   1.701   5.378
   194G12  H00W 3356   2.022   1.661   5.389
   194G12  C027 3357   2.438   1.698   5.447
   194G12  O00D 3358   2.532   1.724   5.541
   194G12  H00Z 3359   2.509   1.667   5.613
   194G12  C028 3360   2.471   1.725   5.310
   194G12  C029 3361   2.375   1.767   5.218
   194G12  H010 3362   2.273   1.797   5.240
   194G12  C02T 3363   2.412   1.788   5.083
   194G12  H01O 3364   2.341   1.833   5.015
   194G12  C02S 3365   2.542   1.760   5.037
   194G12  O00J 3366   2.585   1.787   4.901
   194G12  H01P 3367   2.670   1.747   4.896
   194G12  C02R 3368   2.638   1.705   5.126
   194G12  O00I 3369   2.762   1.686   5.072
   194G12  C02Q 3370   2.873   1.654   5.153
   194G12  H01N 3371   2.850   1.561   5.203
   194G12  H01R 3372   2.893   1.720   5.238
   194G12  H01Q 3373   2.967   1.640   5.099
   194G12  C02A 3374   2.600   1.693   5.261
   194G12  H011 3375   2.678   1.662   5.329
   194G12  C00C 3376   2.214   1.832   5.653
   194G12  H012 3377   2.210   1.845   5.546
   194G12  C00B 3378   2.164   1.926   5.745
   194G12  C00A 3379   2.096   2.051   5.715
   194G12  C009 3380   2.103   2.139   5.601
   194G12  C008 3381   2.155   2.143   5.474
   194G12  H013 3382   2.203   2.056   5.431
   194G12  C007 3383   2.150   2.269   5.401
   194G12  H014 3384   2.198   2.271   5.304
   194G12  C006 3385   2.104   2.387   5.459
   194G12  C005 3386   2.054   2.376   5.587
   194G12  C004 3387   2.017   2.488   5.665
   194G12  C003 3388   1.979   2.472   5.807
   194G12  C002 3389   1.956   2.591   5.880
   194G12  C001 3390   1.924   2.615   6.014
   194G12  C00M 3391   1.987   2.543   6.122
   194G12  C00L 3392   1.986   2.402   6.131
   194G12  C00R 3393   2.061   2.315   6.228
   194G12  C00Q 3394   2.143   2.354   6.340
   194G12  C00V 3395   2.213   2.242   6.395
   194G12  C00U 3396   2.222   2.119   6.325
   194G12  C00T 3397   2.160   2.096   6.204
   194G12  C016 3398   2.186   1.996   6.113
   194G12  C015 3399   2.261   1.893   6.153
   194G12  C010 3400   2.322   1.903   6.283
   194G12  C011 3401   2.410   1.799   6.320
   194G12  H005 3402   2.476   1.799   6.406
   194G12  C012 3403   2.445   1.695   6.235
   194G12  C017 3404   2.550   1.599   6.266
   194G12  O002 3405   2.551   1.542   6.390
   194G12  H004 3406   2.625   1.484   6.389
   194G12  C018 3407   2.642   1.563   6.170
   194G12  O001 3408   2.639   1.610   6.041
   194G12  H003 3409   2.602   1.697   6.044
   194G12  C019 3410   2.744   1.454   6.194
   194G12  H002 3411   2.703   1.357   6.164
   194G12  H001 3412   2.829   1.472   6.129
   194G12  O000 3413   2.786   1.442   6.325
   194G12  C01A 3414   2.863   1.337   6.363
   194G12  C02K 3415   2.859   1.292   6.498
   194G12  O00G 3416   2.796   1.377   6.585
   194G12  C02M 3417   2.779   1.331   6.713
   194G12  H01G 3418   2.725   1.236   6.710
   194G12  H01F 3419   2.731   1.401   6.782
   194G12  H01E 3420   2.876   1.308   6.757
   194G12  C02J 3421   2.929   1.174   6.538
   194G12  H01H 3422   2.918   1.136   6.639
   194G12  C02I 3423   3.008   1.104   6.441
   194G12  C02N 3424   3.066   0.973   6.472
   194G12  H01M 3425   3.168   0.956   6.504
   194G12  C02O 3426   2.984   0.869   6.473
   194G12  H01L 3427   2.881   0.885   6.445
   194G12  C02P 3428   3.028   0.726   6.516
   194G12  H01K 3429   3.134   0.721   6.538
   194G12  H01J 3430   2.978   0.708   6.611
   194G12  O00H 3431   3.002   0.625   6.417
   194G12  H01I 3432   3.024   0.673   6.339
   194G12  C02H 3433   3.012   1.155   6.311
   194G12  H01C 3434   3.070   1.100   6.240
   194G12  C02L 3435   2.937   1.264   6.273
   194G12  H01D 3436   2.929   1.296   6.170
   194G12  C013 3437   2.368   1.682   6.117
   194G12  H000 3438   2.389   1.590   6.064
   194G12  C014 3439   2.281   1.785   6.067
   194G12  C00F 3440   2.239   1.792   5.933
   194G12  C00H 3441   2.140   2.000   5.981
   194G12  C00I 3442   2.051   2.102   5.950
   194G12  C00J 3443   2.007   2.191   6.051
   194G12  C00Z 3444   2.310   2.022   6.364
   194G12  C00Y 3445   2.393   2.043   6.473
   194G12  H006 3446   2.477   1.978   6.494
   194G12  C00X 3447   2.377   2.158   6.552
   194G12  O003 3448   2.469   2.196   6.649
   194G12  C01B 3449   2.520   2.094   6.733
   194G12  H009 3450   2.577   2.142   6.813
   194G12  H008 3451   2.574   2.020   6.674
   194G12  H007 3452   2.440   2.038   6.782
   194G12  C00W 3453   2.288   2.264   6.513
   194G12  O004 3454   2.300   2.384   6.578
   194G12  C01C 3455   2.243   2.494   6.508
   194G12  H00A 3456   2.217   2.574   6.577
   194G12  C00P 3457   2.171   2.489   6.385
   194G12  C00O 3458   2.134   2.619   6.321
   194G12  C01D 3459   2.204   2.738   6.369
   194G12  H00S 3460   2.260   2.740   6.461
   194G12  C01E 3461   2.201   2.861   6.296
   194G12  O008 3462   2.255   2.978   6.344
   194G12  C01V 3463   2.294   2.973   6.479
   194G12  C01Z 3464   2.188   3.020   6.585
   194G12  H00R 3465   2.201   2.975   6.684
   194G12  H00Q 3466   2.185   3.129   6.585
   194G12  O009 3467   2.055   2.971   6.551
   194G12  H00P 3468   2.055   2.877   6.563
   194G12  C01W 3469   2.416   2.928   6.523
   194G12  H00O 3470   2.492   2.892   6.455
   194G12  C01X 3471   2.460   2.927   6.661
   194G12  H00N 3472   2.565   2.955   6.664
   194G12  H00M 3473   2.398   3.004   6.705
   194G12  C01Y 3474   2.454   2.789   6.724
   194G12  C02D 3475   2.511   2.680   6.642
   194G12  H019 3476   2.547   2.695   6.542
   194G12  C02C 3477   2.525   2.554   6.698
   194G12  H01A 3478   2.547   2.467   6.639
   194G12  C02B 3479   2.508   2.541   6.840
   194G12  O00E 3480   2.541   2.425   6.899
   194G12  H01B 3481   2.530   2.415   6.993
   194G12  C02F 3482   2.454   2.643   6.921
   194G12  O00F 3483   2.436   2.616   7.060
   194G12  C02G 3484   2.416   2.723   7.149
   194G12  H017 3485   2.420   2.687   7.252
   194G12  H016 3486   2.312   2.756   7.139
   194G12  H015 3487   2.497   2.795   7.139
   194G12  C02E 3488   2.432   2.771   6.860
   194G12  H018 3489   2.406   2.858   6.917
   194G12  C01F 3490   2.128   2.867   6.174
   194G12  C01G 3491   2.141   2.955   6.066
   194G12  H00L 3492   2.210   3.038   6.063
   194G12  C01H 3493   2.076   2.930   5.938
   194G12  H00B 3494   2.122   2.985   5.857
   194G12  C01I 3495   1.992   2.820   5.918
   194G12  C01U 3496   2.033   2.765   6.146
   194G12  C00S 3497   2.060   2.187   6.176
   194G12  C00K 3498   1.974   2.324   6.015
   194G12  C00N 3499   2.055   2.639   6.208
   194G12  C000 3500   1.948   2.753   6.039
   194G12  C01J 3501   1.980   2.717   5.811
   194G12  C01K 3502   2.006   2.734   5.667
   194G12  C01P 3503   2.006   2.857   5.590
   194G12  C01Q 3504   1.980   2.982   5.651
   194G12  H00G 3505   1.894   2.986   5.716
   194G12  C01R 3506   2.051   3.087   5.616
   194G12  H00F 3507   2.140   3.076   5.555
   194G12  C01S 3508   2.029   3.223   5.673
   194G12  H00E 3509   2.089   3.240   5.763
   194G12  H00D 3510   2.067   3.298   5.603
   194G12  O005 3511   1.894   3.252   5.704
   194G12  H00C 3512   1.839   3.228   5.631
   194G12  C01O 3513   2.026   2.852   5.454
   194G12  H00H 3514   2.007   2.945   5.404
   194G12  C01N 3515   2.052   2.732   5.392
   194G12  O006 3516   2.065   2.731   5.252
   194G12  C01T 3517   1.934   2.710   5.194
   194G12  H00K 3518   1.873   2.799   5.176
   194G12  H00J 3519   1.877   2.629   5.240
   194G12  H00I 3520   1.953   2.672   5.094
   194G12  C01M 3521   2.060   2.613   5.461
   194G12  C020 3522   1.973   2.349   5.872
   194G12  C021 3523   1.987   2.242   5.777
   194G12  C01L 3524   2.028   2.609   5.602
   194G12  O007 3525   2.097   2.505   5.390
   194G12  C022 3526   2.040   2.254   5.653
   194G12  C023 3527   2.027   2.115   5.813
   194G12  C00G 3528   2.177   1.907   5.884
   194G12  C00E 3529   2.271   1.684   5.839
   194G12  O00A 3530   2.302   1.554   5.873
   194G12  C024 3531   2.188   1.477   5.857
   194G12  H00V 3532   2.115   1.510   5.931
   194G12  H00U 3533   2.209   1.376   5.891
   194G12  H00T 3534   2.147   1.479   5.756
   204G12  C00D 3535   0.400   3.330   4.790
   204G12  O00B 3536   0.362   3.434   4.873
   204G12  C025 3537   0.233   3.489   4.857
   204G12  C026 3538   0.227   3.604   4.747
   204G12  H00Y 3539   0.146   3.673   4.771
   204G12  H00X 3540   0.215   3.559   4.649
   204G12  O00C 3541   0.339   3.680   4.743
   204G12  H00W 3542   0.399   3.662   4.814
   204G12  C027 3543   0.140   3.455   4.947
   204G12  O00D 3544   0.170   3.364   5.046
   204G12  H00Z 3545   0.257   3.333   5.028
   204G12  C028 3546   0.010   3.515   4.933
   204G12  C029 3547  -0.040   3.593   5.038
   204G12  H010 3548   0.022   3.601   5.126
   204G12  C02T 3549  -0.167   3.655   5.029
   204G12  H01O 3550  -0.212   3.710   5.110
   204G12  C02S 3551  -0.239   3.653   4.915
   204G12  O00J 3552  -0.360   3.716   4.903
   204G12  H01P 3553  -0.397   3.671   4.828
   204G12  C02R 3554  -0.196   3.574   4.805
   204G12  O00I 3555  -0.277   3.568   4.694
   204G12  C02Q 3556  -0.237   3.481   4.588
   204G12  H01N 3557  -0.145   3.518   4.544
   204G12  H01R 3558  -0.316   3.471   4.513
   204G12  H01Q 3559  -0.215   3.380   4.622
   204G12  C02A 3560  -0.069   3.510   4.816
   204G12  H011 3561  -0.023   3.446   4.742
   204G12  C00C 3562   0.439   3.353   4.653
   204G12  H012 3563   0.432   3.450   4.607
   204G12  C00B 3564   0.509   3.258   4.577
   204G12  C00A 3565   0.565   3.270   4.447
   204G12  C009 3566   0.528   3.358   4.336
   204G12  C008 3567   0.439   3.472   4.319
   204G12  H013 3568   0.395   3.523   4.404
   204G12  C007 3569   0.405   3.515   4.186
   204G12  H014 3570   0.338   3.596   4.161
   204G12  C006 3571   0.449   3.436   4.077
   204G12  C005 3572   0.538   3.331   4.097
   204G12  C004 3573   0.564   3.229   4.005
   204G12  C003 3574   0.639   3.113   4.039
   204G12  C002 3575   0.643   3.011   3.937
   204G12  C001 3576   0.704   2.881   3.939
   204G12  C00M 3577   0.695   2.778   4.043
   204G12  C00L 3578   0.717   2.806   4.177
   204G12  C00R 3579   0.678   2.724   4.287
   204G12  C00Q 3580   0.623   2.595   4.292
   204G12  C00V 3581   0.575   2.557   4.424
   204G12  C00U 3582   0.556   2.651   4.528
   204G12  C00T 3583   0.598   2.778   4.515
   204G12  C016 3584   0.559   2.884   4.592
   204G12  C015 3585   0.496   2.857   4.709
   204G12  C010 3586   0.473   2.720   4.743
   204G12  C011 3587   0.430   2.688   4.867
   204G12  H005 3588   0.449   2.588   4.903
   204G12  C012 3589   0.376   2.782   4.956
   204G12  C017 3590   0.338   2.746   5.093
   204G12  O002 3591   0.389   2.823   5.195
   204G12  H004 3592   0.311   2.849   5.243
   204G12  C018 3593   0.249   2.648   5.112
   204G12  O001 3594   0.186   2.584   5.001
   204G12  H003 3595   0.204   2.640   4.926
   204G12  C019 3596   0.208   2.604   5.252
   204G12  H002 3597   0.182   2.498   5.249
   204G12  H001 3598   0.289   2.599   5.325
   204G12  O000 3599   0.084   2.675   5.284
   204G12  C01A 3600   0.104   2.804   5.327
   204G12  C02K 3601   0.068   2.917   5.247
   204G12  O00G 3602   0.015   2.891   5.121
   204G12  C02M 3603   0.015   2.990   5.018
   204G12  H01G 3604   0.117   3.010   4.987
   204G12  H01F 3605  -0.016   3.092   5.041
   204G12  H01E 3606  -0.039   2.964   4.928
   204G12  C02J 3607   0.107   3.050   5.287
   204G12  H01H 3608   0.101   3.132   5.217
   204G12  C02I 3609   0.175   3.069   5.412
   204G12  C02N 3610   0.240   3.193   5.459
   204G12  H01M 3611   0.260   3.215   5.562
   204G12  C02O 3612   0.281   3.288   5.368
   204G12  H01L 3613   0.261   3.279   5.262
   204G12  C02P 3614   0.348   3.419   5.400
   204G12  H01K 3615   0.349   3.427   5.509
   204G12  H01J 3616   0.447   3.396   5.361
   204G12  O00H 3617   0.287   3.529   5.338
   204G12  H01I 3618   0.225   3.502   5.271
   204G12  C02H 3619   0.192   2.956   5.489
   204G12  H01C 3620   0.231   2.965   5.589
   204G12  C02L 3621   0.166   2.824   5.447
   204G12  H01D 3622   0.193   2.731   5.493
   204G12  C013 3623   0.385   2.915   4.914
   204G12  H000 3624   0.362   2.982   4.996
   204G12  C014 3625   0.450   2.956   4.795
   204G12  C00F 3626   0.461   3.089   4.753
   204G12  C00H 3627   0.581   3.018   4.556
   204G12  C00I 3628   0.652   3.044   4.440
   204G12  C00J 3629   0.696   2.933   4.364
   204G12  C00Z 3630   0.490   2.618   4.644
   204G12  C00Y 3631   0.439   2.492   4.659
   204G12  H006 3632   0.380   2.479   4.749
   204G12  C00X 3633   0.457   2.394   4.557
   204G12  O003 3634   0.402   2.268   4.561
   204G12  C01B 3635   0.301   2.247   4.655
   204G12  H009 3636   0.339   2.240   4.757
   204G12  H008 3637   0.259   2.151   4.625
   204G12  H007 3638   0.217   2.315   4.644
   204G12  C00W 3639   0.531   2.424   4.445
   204G12  O004 3640   0.538   2.326   4.352
   204G12  C01C 3641   0.562   2.370   4.221
   204G12  H00A 3642   0.581   2.296   4.146
   204G12  C00P 3643   0.593   2.504   4.186
   204G12  C00O 3644   0.571   2.545   4.057
   204G12  C01D 3645   0.481   2.466   3.977
   204G12  H00S 3646   0.448   2.367   4.005
   204G12  C01E 3647   0.429   2.521   3.858
   204G12  O008 3648   0.326   2.457   3.794
   204G12  C01V 3649   0.220   2.413   3.872
   204G12  C01Z 3650   0.172   2.270   3.853
   204G12  H00R 3651   0.191   2.214   3.944
   204G12  H00Q 3652   0.068   2.288   3.825
   204G12  O009 3653   0.230   2.230   3.735
   204G12  H00P 3654   0.318   2.262   3.730
   204G12  C01W 3655   0.155   2.498   3.956
   204G12  H00O 3656   0.184   2.602   3.951
   204G12  C01X 3657   0.029   2.462   4.041
   204G12  H00N 3658  -0.039   2.546   4.026
   204G12  H00M 3659  -0.023   2.373   4.005
   204G12  C01Y 3660   0.045   2.464   4.198
   204G12  C02D 3661   0.152   2.540   4.256
   204G12  H019 3662   0.229   2.589   4.198
   204G12  C02C 3663   0.157   2.551   4.396
   204G12  H01A 3664   0.245   2.596   4.439
   204G12  C02B 3665   0.057   2.495   4.472
   204G12  O00E 3666   0.062   2.510   4.608
   204G12  H01B 3667   0.016   2.443   4.657
   204G12  C02F 3668  -0.051   2.419   4.421
   204G12  O00F 3669  -0.153   2.364   4.498
   204G12  C02G 3670  -0.253   2.288   4.445
   204G12  H017 3671  -0.321   2.253   4.522
   204G12  H016 3672  -0.217   2.201   4.390
   204G12  H015 3673  -0.310   2.347   4.373
   204G12  C02E 3674  -0.043   2.391   4.282
   204G12  H018 3675  -0.120   2.326   4.242
   204G12  C01F 3676   0.487   2.637   3.802
   204G12  C01G 3677   0.429   2.708   3.694
   204G12  H00L 3678   0.339   2.683   3.639
   204G12  C01H 3679   0.470   2.843   3.670
   204G12  H00B 3680   0.397   2.909   3.626
   204G12  C01I 3681   0.569   2.902   3.754
   204G12  C01U 3682   0.595   2.699   3.864
   204G12  C00S 3683   0.667   2.804   4.399
   204G12  C00K 3684   0.710   2.945   4.222
   204G12  C00N 3685   0.624   2.663   3.994
   204G12  C000 3686   0.655   2.814   3.823
   204G12  C01J 3687   0.573   3.034   3.819
   204G12  C01K 3688   0.514   3.155   3.771
   204G12  C01P 3689   0.470   3.197   3.641
   204G12  C01Q 3690   0.506   3.124   3.516
   204G12  H00G 3691   0.609   3.100   3.495
   204G12  C01R 3692   0.403   3.092   3.436
   204G12  H00F 3693   0.302   3.118   3.464
   204G12  C01S 3694   0.423   3.011   3.306
   204G12  H00E 3695   0.495   2.933   3.333
   204G12  H00D 3696   0.325   2.966   3.297
   204G12  O005 3697   0.463   3.084   3.196
   204G12  H00C 3698   0.556   3.069   3.190
   204G12  C01O 3699   0.390   3.311   3.624
   204G12  H00H 3700   0.345   3.329   3.527
   204G12  C01N 3701   0.365   3.398   3.729
   204G12  O006 3702   0.280   3.503   3.717
   204G12  C01T 3703   0.235   3.546   3.589
   204G12  H00K 3704   0.153   3.487   3.549
   204G12  H00J 3705   0.315   3.551   3.515
   204G12  H00I 3706   0.204   3.651   3.596
   204G12  C01M 3707   0.419   3.362   3.855
   204G12  C020 3708   0.688   3.080   4.170
   204G12  C021 3709   0.672   3.193   4.256
   204G12  C01L 3710   0.500   3.244   3.879
   204G12  O007 3711   0.399   3.452   3.953
   204G12  C022 3712   0.591   3.301   4.223
   204G12  C023 3713   0.656   3.176   4.399
   204G12  C00G 3714   0.520   3.122   4.629
   204G12  C00E 3715   0.422   3.201   4.839
   204G12  O00A 3716   0.405   3.191   4.976
   204G12  C024 3717   0.530   3.216   5.033
   204G12  H00V 3718   0.510   3.230   5.139
   204G12  H00U 3719   0.579   3.304   4.993
   204G12  H00T 3720   0.597   3.130   5.027
   214G12  C00D 3721   1.413   6.157   5.388
   214G12  O00B 3722   1.541   6.176   5.436
   214G12  C025 3723   1.576   6.306   5.458
   214G12  C026 3724   1.581   6.337   5.608
   214G12  H00Y 3725   1.489   6.366   5.660
   214G12  H00X 3726   1.638   6.425   5.636
   214G12  O00C 3727   1.648   6.237   5.679
   214G12  H00W 3728   1.593   6.160   5.687
   214G12  C027 3729   1.611   6.389   5.355
   214G12  O00D 3730   1.622   6.330   5.231
   214G12  H00Z 3731   1.613   6.240   5.257
   214G12  C028 3732   1.649   6.523   5.373
   214G12  C029 3733   1.569   6.608   5.454
   214G12  H010 3734   1.483   6.573   5.509
   214G12  C02T 3735   1.606   6.745   5.474
   214G12  H01O 3736   1.559   6.806   5.550
   214G12  C02S 3737   1.713   6.790   5.393
   214G12  O00J 3738   1.754   6.921   5.410
   214G12  H01P 3739   1.829   6.923   5.352
   214G12  C02R 3740   1.783   6.712   5.303
   214G12  O00I 3741   1.881   6.780   5.235
   214G12  C02Q 3742   1.983   6.700   5.177
   214G12  H01N 3743   2.063   6.761   5.133
   214G12  H01R 3744   1.946   6.631   5.102
   214G12  H01Q 3745   2.034   6.633   5.247
   214G12  C02A 3746   1.756   6.575   5.299
   214G12  H011 3747   1.809   6.515   5.227
   214G12  C00C 3748   1.301   6.188   5.470
   214G12  H012 3749   1.325   6.212   5.572
   214G12  C00B 3750   1.171   6.172   5.422
   214G12  C00A 3751   1.048   6.207   5.488
   214G12  C009 3752   1.021   6.216   5.631
   214G12  C008 3753   1.093   6.194   5.749
   214G12  H013 3754   1.201   6.200   5.748
   214G12  C007 3755   1.017   6.159   5.866
   214G12  H014 3756   1.072   6.148   5.959
   214G12  C006 3757   0.879   6.144   5.861
   214G12  C005 3758   0.817   6.163   5.745
   214G12  C004 3759   0.687   6.113   5.726
   214G12  C003 3760   0.633   6.094   5.593
   214G12  C002 3761   0.509   6.013   5.582
   214G12  C001 3762   0.426   5.983   5.475
   214G12  C00M 3763   0.488   5.924   5.358
   214G12  C00L 3764   0.581   5.988   5.278
   214G12  C00R 3765   0.653   5.922   5.175
   214G12  C00Q 3766   0.635   5.798   5.104
   214G12  C00V 3767   0.737   5.777   5.002
   214G12  C00U 3768   0.859   5.845   5.008
   214G12  C00T 3769   0.887   5.938   5.103
   214G12  C016 3770   1.007   5.987   5.138
   214G12  C015 3771   1.113   5.941   5.069
   214G12  C010 3772   1.094   5.859   4.951
   214G12  C011 3773   1.205   5.822   4.867
   214G12  H005 3774   1.194   5.766   4.775
   214G12  C012 3775   1.329   5.879   4.889
   214G12  C017 3776   1.441   5.868   4.804
   214G12  O002 3777   1.559   5.843   4.874
   214G12  H004 3778   1.535   5.791   4.949
   214G12  C018 3779   1.432   5.878   4.675
   214G12  O001 3780   1.325   5.913   4.598
   214G12  H003 3781   1.350   5.937   4.510
   214G12  C019 3782   1.556   5.877   4.586
   214G12  H002 3783   1.585   5.978   4.558
   214G12  H001 3784   1.638   5.837   4.646
   214G12  O000 3785   1.539   5.785   4.477
   214G12  C01A 3786   1.594   5.663   4.490
   214G12  C02K 3787   1.662   5.615   4.375
   214G12  O00G 3788   1.651   5.686   4.259
   214G12  C02M 3789   1.725   5.638   4.143
   214G12  H01G 3790   1.828   5.626   4.179
   214G12  H01F 3791   1.733   5.718   4.070
   214G12  H01E 3792   1.700   5.544   4.095
   214G12  C02J 3793   1.729   5.484   4.395
   214G12  H01H 3794   1.782   5.428   4.320
   214G12  C02I 3795   1.731   5.409   4.517
   214G12  C02N 3796   1.792   5.278   4.527
   214G12  H01M 3797   1.747   5.191   4.573
   214G12  C02O 3798   1.908   5.259   4.475
   214G12  H01L 3799   1.965   5.338   4.429
   214G12  C02P 3800   1.976   5.120   4.494
   214G12  H01K 3801   1.918   5.036   4.532
   214G12  H01J 3802   2.005   5.088   4.394
   214G12  O00H 3803   2.095   5.146   4.567
   214G12  H01I 3804   2.073   5.123   4.656
   214G12  C02H 3805   1.659   5.460   4.628
   214G12  H01C 3806   1.665   5.415   4.726
   214G12  C02L 3807   1.600   5.592   4.614
   214G12  H01D 3808   1.546   5.622   4.702
   214G12  C013 3809   1.347   5.959   5.013
   214G12  H000 3810   1.447   5.998   5.020
   214G12  C014 3811   1.240   5.992   5.098
   214G12  C00F 3812   1.264   6.062   5.217
   214G12  C00H 3813   1.024   6.083   5.243
   214G12  C00I 3814   0.910   6.135   5.305
   214G12  C00J 3815   0.786   6.091   5.252
   214G12  C00Z 3816   0.963   5.813   4.918
   214G12  C00Y 3817   0.940   5.734   4.813
   214G12  H006 3818   1.017   5.721   4.739
   214G12  C00X 3819   0.815   5.666   4.795
   214G12  O003 3820   0.813   5.580   4.684
   214G12  C01B 3821   0.737   5.459   4.690
   214G12  H009 3822   0.748   5.395   4.602
   214G12  H008 3823   0.629   5.477   4.696
   214G12  H007 3824   0.778   5.396   4.768
   214G12  C00W 3825   0.721   5.679   4.901
   214G12  O004 3826   0.603   5.609   4.904
   214G12  C01C 3827   0.543   5.586   5.028
   214G12  H00A 3828   0.529   5.481   5.049
   214G12  C00P 3829   0.534   5.696   5.118
   214G12  C00O 3830   0.445   5.693   5.232
   214G12  C01D 3831   0.366   5.580   5.255
   214G12  H00S 3832   0.367   5.503   5.179
   214G12  C01E 3833   0.309   5.546   5.382
   214G12  O008 3834   0.255   5.420   5.420
   214G12  C01V 3835   0.218   5.323   5.328
   214G12  C01Z 3836   0.253   5.184   5.373
   214G12  H00R 3837   0.313   5.199   5.463
   214G12  H00Q 3838   0.164   5.123   5.390
   214G12  O009 3839   0.337   5.116   5.275
   214G12  H00P 3840   0.363   5.029   5.301
   214G12  C01W 3841   0.158   5.354   5.211
   214G12  H00O 3842   0.126   5.455   5.192
   214G12  C01X 3843   0.127   5.260   5.099
   214G12  H00N 3844   0.147   5.156   5.126
   214G12  H00M 3845   0.019   5.258   5.087
   214G12  C01Y 3846   0.209   5.276   4.976
   214G12  C02D 3847   0.145   5.307   4.856
   214G12  H019 3848   0.038   5.324   4.856
   214G12  C02C 3849   0.221   5.327   4.742
   214G12  H01A 3850   0.175   5.347   4.647
   214G12  C02B 3851   0.361   5.307   4.742
   214G12  O00E 3852   0.430   5.301   4.625
   214G12  H01B 3853   0.518   5.271   4.644
   214G12  C02F 3854   0.429   5.283   4.863
   214G12  O00F 3855   0.563   5.254   4.849
   214G12  C02G 3856   0.633   5.201   4.960
   214G12  H017 3857   0.582   5.122   5.016
   214G12  H016 3858   0.650   5.283   5.029
   214G12  H015 3859   0.729   5.167   4.921
   214G12  C02E 3860   0.354   5.266   4.982
   214G12  H018 3861   0.402   5.238   5.074
   214G12  C01F 3862   0.310   5.645   5.477
   214G12  C01G 3863   0.288   5.624   5.616
   214G12  H00L 3864   0.270   5.522   5.648
   214G12  C01H 3865   0.324   5.729   5.713
   214G12  H00B 3866   0.334   5.700   5.816
   214G12  C01I 3867   0.351   5.862   5.662
   214G12  C01U 3868   0.339   5.780   5.438
   214G12  C00S 3869   0.771   5.997   5.154
   214G12  C00K 3870   0.673   6.077   5.337
   214G12  C00N 3871   0.423   5.800   5.327
   214G12  C000 3872   0.329   5.891   5.523
   214G12  C01J 3873   0.446   5.959   5.699
   214G12  C01K 3874   0.491   5.993   5.831
   214G12  C01P 3875   0.418   5.972   5.959
   214G12  C01Q 3876   0.286   5.928   5.969
   214G12  H00G 3877   0.252   5.825   5.972
   214G12  C01R 3878   0.191   6.022   5.983
   214G12  H00F 3879   0.226   6.125   5.983
   214G12  C01S 3880   0.041   6.014   5.995
   214G12  H00E 3881   0.002   6.054   5.902
   214G12  H00D 3882   0.023   5.907   6.009
   214G12  O005 3883   0.012   6.080   6.114
   214G12  H00C 3884  -0.014   6.169   6.095
   214G12  C01O 3885   0.480   6.010   6.074
   214G12  H00H 3886   0.414   6.010   6.159
   214G12  C01N 3887   0.611   6.061   6.081
   214G12  O006 3888   0.670   6.093   6.198
   214G12  C01T 3889   0.602   6.047   6.317
   214G12  H00K 3890   0.591   5.939   6.314
   214G12  H00J 3891   0.504   6.090   6.333
   214G12  H00I 3892   0.664   6.066   6.404
   214G12  C01M 3893   0.683   6.076   5.963
   214G12  C020 3894   0.702   6.132   5.477
   214G12  C021 3895   0.815   6.216   5.509
   214G12  C01L 3896   0.620   6.058   5.835
   214G12  O007 3897   0.811   6.112   5.976
   214G12  C022 3898   0.878   6.216   5.632
   214G12  C023 3899   0.923   6.202   5.424
   214G12  C00G 3900   1.151   6.109   5.294
   214G12  C00E 3901   1.395   6.095   5.267
   214G12  O00A 3902   1.515   6.061   5.212
   214G12  C024 3903   1.570   5.937   5.259
   214G12  H00V 3904   1.613   5.950   5.359
   214G12  H00U 3905   1.660   5.917   5.201
   214G12  H00T 3906   1.501   5.853   5.254
   224G12  C00D 3907   5.338   4.046   5.225
   224G12  O00B 3908   5.237   3.951   5.219
   224G12  C025 3909   5.104   3.994   5.186
   224G12  C026 3910   5.072   4.000   5.040
   224G12  H00Y 3911   4.963   3.994   5.038
   224G12  H00X 3912   5.106   3.907   4.995
   224G12  O00C 3913   5.126   4.110   4.973
   224G12  H00W 3914   5.208   4.090   4.931
   224G12  C027 3915   5.023   4.033   5.288
   224G12  O00D 3916   5.071   4.004   5.411
   224G12  H00Z 3917   5.144   3.946   5.393
   224G12  C028 3918   4.896   4.088   5.258
   224G12  C029 3919   4.774   4.024   5.302
   224G12  H010 3920   4.790   3.928   5.348
   224G12  C02T 3921   4.644   4.083   5.283
   224G12  H01O 3922   4.555   4.038   5.322
   224G12  C02S 3923   4.633   4.199   5.202
   224G12  O00J 3924   4.509   4.238   5.167
   224G12  H01P 3925   4.522   4.329   5.145
   224G12  C02R 3926   4.752   4.263   5.149
   224G12  O00I 3927   4.737   4.373   5.065
   224G12  C02Q 3928   4.843   4.408   4.984
   224G12  H01N 3929   4.933   4.437   5.037
   224G12  H01R 3930   4.817   4.502   4.937
   224G12  H01Q 3931   4.860   4.336   4.904
   224G12  C02A 3932   4.882   4.208   5.182
   224G12  H011 3933   4.973   4.253   5.145
   224G12  C00C 3934   5.324   4.180   5.192
   224G12  H012 3935   5.224   4.220   5.179
   224G12  C00B 3936   5.433   4.273   5.190
   224G12  C00A 3937   5.426   4.411   5.157
   224G12  C009 3938   5.345   4.488   5.063
   224G12  C008 3939   5.231   4.457   4.984
   224G12  H013 3940   5.184   4.361   5.001
   224G12  C007 3941   5.208   4.533   4.863
   224G12  H014 3942   5.129   4.500   4.796
   224G12  C006 3943   5.298   4.645   4.837
   224G12  C005 3944   5.398   4.673   4.930
   224G12  C004 3945   5.498   4.770   4.904
   224G12  C003 3946   5.609   4.781   4.990
   224G12  C002 3947   5.711   4.874   4.952
   224G12  C001 3948   5.853   4.896   4.993
   224G12  C00M 3949   5.940   4.783   5.017
   224G12  C00L 3950   5.908   4.677   5.106
   224G12  C00R 3951   5.984   4.555   5.123
   224G12  C00Q 3952   6.109   4.506   5.068
   224G12  C00V 3953   6.137   4.372   5.103
   224G12  C00U 3954   6.047   4.286   5.169
   224G12  C00T 3955   5.922   4.332   5.200
   224G12  C016 3956   5.808   4.256   5.228
   224G12  C015 3957   5.828   4.120   5.235
   224G12  C010 3958   5.958   4.066   5.228
   224G12  C011 3959   5.973   3.926   5.243
   224G12  H005 3960   6.069   3.876   5.245
   224G12  C012 3961   5.861   3.840   5.248
   224G12  C017 3962   5.870   3.697   5.249
   224G12  O002 3963   5.935   3.636   5.146
   224G12  H004 3964   5.953   3.705   5.084
   224G12  C018 3965   5.835   3.629   5.355
   224G12  O001 3966   5.786   3.689   5.467
   224G12  H003 3967   5.812   3.620   5.526
   224G12  C019 3968   5.843   3.481   5.375
   224G12  H002 3969   5.751   3.427   5.351
   224G12  H001 3970   5.915   3.449   5.299
   224G12  O000 3971   5.867   3.456   5.505
   224G12  C01A 3972   5.896   3.330   5.542
   224G12  C02K 3973   5.927   3.307   5.679
   224G12  O00G 3974   5.954   3.424   5.747
   224G12  C02M 3975   6.019   3.412   5.874
   224G12  H01G 3976   5.961   3.358   5.948
   224G12  H01F 3977   6.023   3.514   5.911
   224G12  H01E 3978   6.112   3.357   5.859
   224G12  C02J 3979   5.926   3.172   5.726
   224G12  H01H 3980   5.942   3.157   5.832
   224G12  C02I 3981   5.927   3.061   5.638
   224G12  C02N 3982   5.950   2.925   5.686
   224G12  H01M 3983   5.976   2.909   5.790
   224G12  C02O 3984   5.940   2.816   5.607
   224G12  H01L 3985   5.902   2.820   5.506
   224G12  C02P 3986   5.971   2.677   5.657
   224G12  H01K 3987   5.879   2.629   5.689
   224G12  H01J 3988   5.999   2.611   5.575
   224G12  O00H 3989   6.073   2.669   5.750
   224G12  H01I 3990   6.138   2.733   5.727
   224G12  C02H 3991   5.900   3.085   5.500
   224G12  H01C 3992   5.897   3.005   5.427
   224G12  C02L 3993   5.890   3.221   5.451
   224G12  H01D 3994   5.879   3.236   5.344
   224G12  C013 3995   5.734   3.901   5.250
   224G12  H000 3996   5.654   3.829   5.245
   224G12  C014 3997   5.712   4.042   5.253
   224G12  C00F 3998   5.583   4.088   5.255
   224G12  C00H 3999   5.679   4.312   5.228
   224G12  C00I 4000   5.653   4.449   5.213
   224G12  C00J 4001   5.773   4.525   5.197
   224G12  C00Z 4002   6.067   4.150   5.189
   224G12  C00Y 4003   6.192   4.095   5.143
   224G12  H006 4004   6.223   3.993   5.156
   224G12  C00X 4005   6.284   4.177   5.071
   224G12  O003 4006   6.408   4.127   5.035
   224G12  C01B 4007   6.408   3.999   4.978
   224G12  H009 4008   6.345   3.994   4.890
   224G12  H008 4009   6.384   3.920   5.049
   224G12  H007 4010   6.506   3.976   4.939
   224G12  C00W 4011   6.259   4.313   5.058
   224G12  O004 4012   6.348   4.386   4.983
   224G12  C01C 4013   6.337   4.521   4.968
   224G12  H00A 4014   6.404   4.579   5.030
   224G12  C00P 4015   6.204   4.573   4.984
   224G12  C00O 4016   6.170   4.692   4.908
   224G12  C01D 4017   6.244   4.723   4.791
   224G12  H00S 4018   6.339   4.673   4.778
   224G12  C01E 4019   6.195   4.810   4.687
   224G12  O008 4020   6.250   4.831   4.564
   224G12  C01V 4021   6.363   4.763   4.529
   224G12  C01Z 4022   6.491   4.845   4.536
   224G12  H00R 4023   6.576   4.789   4.497
   224G12  H00Q 4024   6.462   4.934   4.479
   224G12  O009 4025   6.512   4.878   4.672
   224G12  H00P 4026   6.432   4.917   4.702
   224G12  C01W 4027   6.356   4.633   4.482
   224G12  H00O 4028   6.261   4.584   4.495
   224G12  C01X 4029   6.464   4.551   4.430
   224G12  H00N 4030   6.427   4.480   4.356
   224G12  H00M 4031   6.531   4.606   4.364
   224G12  C01Y 4032   6.533   4.482   4.549
   224G12  C02D 4033   6.615   4.545   4.649
   224G12  H019 4034   6.640   4.650   4.650
   224G12  C02C 4035   6.646   4.473   4.768
   224G12  H01A 4036   6.697   4.527   4.846
   224G12  C02B 4037   6.607   4.336   4.781
   224G12  O00E 4038   6.620   4.282   4.910
   224G12  H01B 4039   6.551   4.219   4.926
   224G12  C02F 4040   6.530   4.278   4.687
   224G12  O00F 4041   6.483   4.151   4.716
   224G12  C02G 4042   6.446   4.065   4.616
   224G12  H017 4043   6.357   4.087   4.557
   224G12  H016 4044   6.418   3.977   4.674
   224G12  H015 4045   6.538   4.045   4.560
   224G12  C02E 4046   6.500   4.348   4.571
   224G12  H018 4047   6.444   4.294   4.497
   224G12  C01F 4048   6.078   4.885   4.710
   224G12  C01G 4049   6.003   4.963   4.615
   224G12  H00L 4050   6.045   4.973   4.516
   224G12  C01H 4051   5.871   5.010   4.643
   224G12  H00B 4052   5.809   5.035   4.558
   224G12  C01I 4053   5.823   5.000   4.778
   224G12  C01U 4054   6.027   4.890   4.843
   224G12  C00S 4055   5.905   4.469   5.196
   224G12  C00K 4056   5.772   4.652   5.139
   224G12  C00N 4057   6.052   4.776   4.926
   224G12  C000 4058   5.914   4.964   4.883
   224G12  C01J 4059   5.695   4.955   4.828
   224G12  C01K 4060   5.570   4.960   4.755
   224G12  C01P 4061   5.530   5.045   4.645
   224G12  C01Q 4062   5.602   5.172   4.620
   224G12  H00G 4063   5.644   5.193   4.523
   224G12  C01R 4064   5.621   5.263   4.725
   224G12  H00F 4065   5.575   5.246   4.821
   224G12  C01S 4066   5.684   5.397   4.714
   224G12  H00E 4067   5.739   5.395   4.620
   224G12  H00D 4068   5.613   5.475   4.738
   224G12  O005 4069   5.783   5.405   4.813
   224G12  H00C 4070   5.742   5.395   4.898
   224G12  C01O 4071   5.417   5.018   4.569
   224G12  H00H 4072   5.396   5.092   4.493
   224G12  C01N 4073   5.337   4.904   4.595
   224G12  O006 4074   5.234   4.879   4.515
   224G12  C01T 4075   5.098   4.909   4.562
   224G12  H00K 4076   5.016   4.859   4.511
   224G12  H00J 4077   5.081   5.016   4.548
   224G12  H00I 4078   5.080   4.900   4.669
   224G12  C01M 4079   5.370   4.826   4.707
   224G12  C020 4080   5.635   4.689   5.098
   224G12  C021 4081   5.518   4.623   5.140
   224G12  C01L 4082   5.489   4.851   4.787
   224G12  O007 4083   5.284   4.720   4.721
   224G12  C022 4084   5.409   4.615   5.054
   224G12  C023 4085   5.528   4.497   5.199
   224G12  C00G 4086   5.565   4.224   5.222
   224G12  C00E 4087   5.468   4.010   5.268
   224G12  O00A 4088   5.465   3.889   5.336
   224G12  C024 4089   5.426   3.901   5.473
   224G12  H00V 4090   5.451   3.810   5.527
   224G12  H00U 4091   5.318   3.908   5.485
   224G12  H00T 4092   5.470   3.985   5.527
   234G12  C00D 4093   5.757   4.157   8.840
   234G12  O00B 4094   5.886   4.151   8.872
   234G12  C025 4095   5.910   4.103   8.999
   234G12  C026 4096   5.870   4.186   9.130
   234G12  H00Y 4097   5.819   4.269   9.081
   234G12  H00X 4098   5.955   4.228   9.183
   234G12  O00C 4099   5.793   4.111   9.218
   234G12  H00W 4100   5.810   4.024   9.185
   234G12  C027 4101   5.991   3.994   9.004
   234G12  O00D 4102   6.020   3.917   8.895
   234G12  H00Z 4103   5.955   3.945   8.832
   234G12  C028 4104   6.051   3.940   9.125
   234G12  C029 4105   6.025   3.812   9.157
   234G12  H010 4106   5.967   3.750   9.090
   234G12  C02T 4107   6.068   3.760   9.275
   234G12  H01O 4108   6.056   3.653   9.286
   234G12  C02S 4109   6.137   3.840   9.371
   234G12  O00J 4110   6.184   3.786   9.486
   234G12  H01P 4111   6.192   3.849   9.556
   234G12  C02R 4112   6.167   3.977   9.338
   234G12  O00I 4113   6.240   4.042   9.429
   234G12  C02Q 4114   6.227   4.182   9.453
   234G12  H01N 4115   6.269   4.231   9.366
   234G12  H01R 4116   6.285   4.196   9.544
   234G12  H01Q 4117   6.126   4.215   9.478
   234G12  C02A 4118   6.128   4.021   9.214
   234G12  H011 4119   6.158   4.119   9.179
   234G12  C00C 4120   5.687   4.272   8.851
   234G12  H012 4121   5.738   4.366   8.868
   234G12  C00B 4122   5.544   4.268   8.840
   234G12  C00A 4123   5.453   4.381   8.876
   234G12  C009 4124   5.473   4.479   8.980
   234G12  C008 4125   5.571   4.519   9.066
   234G12  H013 4126   5.677   4.502   9.057
   234G12  C007 4127   5.544   4.580   9.192
   234G12  H014 4128   5.631   4.603   9.252
   234G12  C006 4129   5.409   4.584   9.243
   234G12  C005 4130   5.310   4.539   9.155
   234G12  C004 4131   5.181   4.513   9.205
   234G12  C003 4132   5.087   4.448   9.122
   234G12  C002 4133   4.960   4.416   9.185
   234G12  C001 4134   4.843   4.365   9.130
   234G12  C00M 4135   4.847   4.239   9.065
   234G12  C00L 4136   4.919   4.216   8.950
   234G12  C00R 4137   4.947   4.088   8.899
   234G12  C00Q 4138   4.885   3.960   8.918
   234G12  C00V 4139   4.948   3.854   8.848
   234G12  C00U 4140   5.079   3.865   8.802
   234G12  C00T 4141   5.147   3.984   8.799
   234G12  C016 4142   5.284   4.009   8.776
   234G12  C015 4143   5.356   3.898   8.746
   234G12  C010 4144   5.296   3.773   8.738
   234G12  C011 4145   5.369   3.658   8.698
   234G12  H005 4146   5.331   3.557   8.694
   234G12  C012 4147   5.505   3.667   8.669
   234G12  C017 4148   5.576   3.551   8.610
   234G12  O002 4149   5.644   3.565   8.490
   234G12  H004 4150   5.691   3.485   8.474
   234G12  C018 4151   5.568   3.432   8.677
   234G12  O001 4152   5.520   3.416   8.802
   234G12  H003 4153   5.494   3.499   8.838
   234G12  C019 4154   5.632   3.308   8.619
   234G12  H002 4155   5.711   3.280   8.689
   234G12  H001 4156   5.564   3.223   8.617
   234G12  O000 4157   5.681   3.313   8.484
   234G12  C01A 4158   5.748   3.211   8.419
   234G12  C02K 4159   5.766   3.222   8.278
   234G12  O00G 4160   5.713   3.337   8.219
   234G12  C02M 4161   5.750   3.374   8.093
   234G12  H01G 4162   5.718   3.477   8.078
   234G12  H01F 4163   5.727   3.304   8.012
   234G12  H01E 4164   5.858   3.389   8.096
   234G12  C02J 4165   5.835   3.123   8.207
   234G12  H01H 4166   5.847   3.126   8.100
   234G12  C02I 4167   5.875   3.005   8.275
   234G12  C02N 4168   5.947   2.897   8.217
   234G12  H01M 4169   5.944   2.802   8.267
   234G12  C02O 4170   6.020   2.910   8.104
   234G12  H01L 4171   6.034   3.008   8.060
   234G12  C02P 4172   6.110   2.801   8.056
   234G12  H01K 4173   6.213   2.831   8.074
   234G12  H01J 4174   6.093   2.706   8.107
   234G12  O00H 4175   6.087   2.780   7.917
   234G12  H01I 4176   6.016   2.719   7.908
   234G12  C02H 4177   5.860   3.000   8.414
   234G12  H01C 4178   5.883   2.907   8.465
   234G12  C02L 4179   5.796   3.097   8.489
   234G12  H01D 4180   5.782   3.090   8.596
   234G12  C013 4181   5.562   3.794   8.681
   234G12  H000 4182   5.660   3.796   8.636
   234G12  C014 4183   5.491   3.910   8.727
   234G12  C00F 4184   5.558   4.033   8.763
   234G12  C00H 4185   5.341   4.140   8.792
   234G12  C00I 4186   5.256   4.249   8.820
   234G12  C00J 4187   5.119   4.222   8.839
   234G12  C00Z 4188   5.158   3.758   8.763
   234G12  C00Y 4189   5.085   3.639   8.741
   234G12  H006 4190   5.141   3.558   8.696
   234G12  C00X 4191   4.947   3.626   8.769
   234G12  O003 4192   4.861   3.519   8.739
   234G12  C01B 4193   4.908   3.439   8.642
   234G12  H009 4194   4.927   3.495   8.551
   234G12  H008 4195   4.830   3.366   8.619
   234G12  H007 4196   5.000   3.384   8.660
   234G12  C00W 4197   4.883   3.731   8.833
   234G12  O004 4198   4.754   3.710   8.877
   234G12  C01C 4199   4.701   3.797   8.966
   234G12  H00A 4200   4.611   3.764   9.016
   234G12  C00P 4201   4.770   3.924   8.994
   234G12  C00O 4202   4.722   4.008   9.102
   234G12  C01D 4203   4.637   3.950   9.206
   234G12  H00S 4204   4.598   3.850   9.198
   234G12  C01E 4205   4.619   4.012   9.338
   234G12  O008 4206   4.584   3.940   9.453
   234G12  C01V 4207   4.516   3.819   9.442
   234G12  C01Z 4208   4.609   3.700   9.486
   234G12  H00R 4209   4.669   3.687   9.396
   234G12  H00Q 4210   4.651   3.731   9.582
   234G12  O009 4211   4.537   3.591   9.534
   234G12  H00P 4212   4.587   3.511   9.520
   234G12  C01W 4213   4.387   3.824   9.390
   234G12  H00O 4214   4.340   3.921   9.382
   234G12  C01X 4215   4.292   3.704   9.354
   234G12  H00N 4216   4.342   3.607   9.363
   234G12  H00M 4217   4.205   3.712   9.419
   234G12  C01Y 4218   4.264   3.706   9.203
   234G12  C02D 4219   4.154   3.782   9.154
   234G12  H019 4220   4.079   3.822   9.221
   234G12  C02C 4221   4.123   3.792   9.018
   234G12  H01A 4222   4.048   3.860   8.978
   234G12  C02B 4223   4.210   3.727   8.927
   234G12  O00E 4224   4.185   3.726   8.789
   234G12  H01B 4225   4.260   3.690   8.743
   234G12  C02F 4226   4.319   3.650   8.965
   234G12  O00F 4227   4.397   3.597   8.866
   234G12  C02G 4228   4.490   3.497   8.902
   234G12  H017 4229   4.531   3.451   8.813
   234G12  H016 4230   4.438   3.410   8.943
   234G12  H015 4231   4.573   3.532   8.965
   234G12  C02E 4232   4.344   3.635   9.104
   234G12  H018 4233   4.424   3.570   9.135
   234G12  C01F 4234   4.675   4.144   9.356
   234G12  C01G 4235   4.697   4.201   9.482
   234G12  H00L 4236   4.675   4.155   9.577
   234G12  C01H 4237   4.765   4.322   9.487
   234G12  H00B 4238   4.794   4.341   9.589
   234G12  C01I 4239   4.812   4.389   9.367
   234G12  C01U 4240   4.709   4.215   9.241
   234G12  C00S 4241   5.066   4.099   8.821
   234G12  C00K 4242   5.037   4.295   8.928
   234G12  C00N 4243   4.754   4.145   9.129
   234G12  C000 4244   4.757   4.351   9.241
   234G12  C01J 4245   4.940   4.445   9.323
   234G12  C01K 4246   5.026   4.528   9.401
   234G12  C01P 4247   4.997   4.594   9.525
   234G12  C01Q 4248   4.858   4.601   9.568
   234G12  H00G 4249   4.778   4.618   9.498
   234G12  C01R 4250   4.841   4.579   9.703
   234G12  H00F 4251   4.929   4.575   9.765
   234G12  C01S 4252   4.703   4.572   9.777
   234G12  H00E 4253   4.711   4.636   9.865
   234G12  H00D 4254   4.612   4.598   9.723
   234G12  O005 4255   4.690   4.437   9.808
   234G12  H00C 4256   4.772   4.409   9.847
   234G12  C01O 4257   5.100   4.661   9.591
   234G12  H00H 4258   5.083   4.724   9.677
   234G12  C01N 4259   5.228   4.665   9.543
   234G12  O006 4260   5.318   4.731   9.624
   234G12  C01T 4261   5.354   4.863   9.586
   234G12  H00K 4262   5.420   4.853   9.500
   234G12  H00J 4263   5.413   4.918   9.659
   234G12  H00I 4264   5.276   4.939   9.579
   234G12  C01M 4265   5.251   4.615   9.411
   234G12  C020 4266   5.117   4.398   8.994
   234G12  C021 4267   5.244   4.444   8.948
   234G12  C01L 4268   5.148   4.552   9.335
   234G12  O007 4269   5.376   4.624   9.366
   234G12  C022 4270   5.337   4.507   9.022
   234G12  C023 4271   5.316   4.368   8.856
   234G12  C00G 4272   5.481   4.147   8.796
   234G12  C00E 4273   5.697   4.045   8.780
   234G12  O00A 4274   5.783   3.942   8.762
   234G12  C024 4275   5.883   3.955   8.658
   234G12  H00V 4276   5.938   4.049   8.660
   234G12  H00U 4277   5.825   3.964   8.566
   234G12  H00T 4278   5.957   3.877   8.641
   244G12  C00D 4279   0.933   1.468   6.356
   244G12  O00B 4280   0.945   1.605   6.349
   244G12  C025 4281   0.854   1.669   6.265
   244G12  C026 4282   0.710   1.665   6.317
   244G12  H00Y 4283   0.680   1.565   6.345
   244G12  H00X 4284   0.642   1.698   6.239
   244G12  O00C 4285   0.692   1.753   6.425
   244G12  H00W 4286   0.746   1.737   6.501
   244G12  C027 4287   0.900   1.740   6.154
   244G12  O00D 4288   1.031   1.730   6.118
   244G12  H00Z 4289   1.064   1.665   6.179
   244G12  C028 4290   0.808   1.825   6.082
   244G12  C029 4291   0.692   1.771   6.023
   244G12  H010 4292   0.665   1.668   6.035
   244G12  C02T 4293   0.601   1.855   5.951
   244G12  H01O 4294   0.522   1.812   5.892
   244G12  C02S 4295   0.619   1.996   5.952
   244G12  O00J 4296   0.538   2.084   5.889
   244G12  H01P 4297   0.564   2.172   5.915
   244G12  C02R 4298   0.734   2.047   6.014
   244G12  O00I 4299   0.742   2.179   6.002
   244G12  C02Q 4300   0.866   2.236   5.959
   244G12  H01N 4301   0.948   2.208   6.025
   244G12  H01R 4302   0.847   2.343   5.954
   244G12  H01Q 4303   0.887   2.195   5.861
   244G12  C02A 4304   0.828   1.963   6.074
   244G12  H011 4305   0.911   2.012   6.124
   244G12  C00C 4306   0.900   1.399   6.471
   244G12  H012 4307   0.892   1.457   6.562
   244G12  C00B 4308   0.878   1.263   6.470
   244G12  C00A 4309   0.853   1.184   6.584
   244G12  C009 4310   0.914   1.192   6.720
   244G12  C008 4311   1.000   1.284   6.780
   244G12  H013 4312   1.018   1.385   6.746
   244G12  C007 4313   1.093   1.237   6.879
   244G12  H014 4314   1.168   1.304   6.917
   244G12  C006 4315   1.101   1.103   6.918
   244G12  C005 4316   1.001   1.020   6.856
   244G12  C004 4317   1.010   0.884   6.876
   244G12  C003 4318   0.946   0.800   6.782
   244G12  C002 4319   0.964   0.656   6.801
   244G12  C001 4320   0.924   0.536   6.729
   244G12  C00M 4321   0.923   0.527   6.583
   244G12  C00L 4322   0.887   0.634   6.509
   244G12  C00R 4323   0.901   0.647   6.368
   244G12  C00Q 4324   0.966   0.561   6.267
   244G12  C00V 4325   0.973   0.626   6.139
   244G12  C00U 4326   0.940   0.764   6.114
   244G12  C00T 4327   0.891   0.844   6.217
   244G12  C016 4328   0.894   0.985   6.224
   244G12  C015 4329   0.928   1.042   6.107
   244G12  C010 4330   0.948   0.965   5.988
   244G12  C011 4331   0.970   1.036   5.868
   244G12  H005 4332   0.984   0.983   5.775
   244G12  C012 4333   0.966   1.182   5.857
   244G12  C017 4334   0.970   1.248   5.729
   244G12  O002 4335   1.020   1.179   5.623
   244G12  H004 4336   1.034   1.250   5.562
   244G12  C018 4337   0.935   1.378   5.707
   244G12  O001 4338   0.868   1.470   5.794
   244G12  H003 4339   0.907   1.555   5.783
   244G12  C019 4340   0.945   1.437   5.565
   244G12  H002 4341   0.843   1.447   5.528
   244G12  H001 4342   0.985   1.538   5.576
   244G12  O000 4343   1.025   1.366   5.470
   244G12  C01A 4344   1.163   1.400   5.443
   244G12  C02K 4345   1.246   1.480   5.529
   244G12  O00G 4346   1.194   1.514   5.654
   244G12  C02M 4347   1.264   1.595   5.746
   244G12  H01G 4348   1.275   1.701   5.721
   244G12  H01F 4349   1.366   1.561   5.762
   244G12  H01E 4350   1.206   1.591   5.838
   244G12  C02J 4351   1.374   1.524   5.490
   244G12  H01H 4352   1.426   1.589   5.558
   244G12  C02I 4353   1.416   1.487   5.360
   244G12  C02N 4354   1.535   1.536   5.305
   244G12  H01M 4355   1.544   1.558   5.200
   244G12  C02O 4356   1.639   1.566   5.383
   244G12  H01L 4357   1.643   1.544   5.488
   244G12  C02P 4358   1.768   1.625   5.323
   244G12  H01K 4359   1.758   1.636   5.215
   244G12  H01J 4360   1.788   1.723   5.366
   244G12  O00H 4361   1.877   1.540   5.348
   244G12  H01I 4362   1.896   1.491   5.269
   244G12  C02H 4363   1.331   1.411   5.273
   244G12  H01C 4364   1.362   1.403   5.169
   244G12  C02L 4365   1.204   1.363   5.315
   244G12  H01D 4366   1.147   1.311   5.240
   244G12  C013 4367   0.956   1.250   5.983
   244G12  H000 4368   0.963   1.358   5.980
   244G12  C014 4369   0.936   1.183   6.108
   244G12  C00F 4370   0.927   1.258   6.227
   244G12  C00H 4371   0.860   1.054   6.339
   244G12  C00I 4372   0.808   0.985   6.450
   244G12  C00J 4373   0.807   0.840   6.443
   244G12  C00Z 4374   0.959   0.826   5.994
   244G12  C00Y 4375   0.992   0.742   5.885
   244G12  H006 4376   1.001   0.781   5.784
   244G12  C00X 4377   1.022   0.609   5.901
   244G12  O003 4378   1.063   0.531   5.802
   244G12  C01B 4379   1.050   0.569   5.669
   244G12  H009 4380   1.114   0.654   5.648
   244G12  H008 4381   0.947   0.594   5.641
   244G12  H007 4382   1.093   0.487   5.612
   244G12  C00W 4383   1.010   0.547   6.027
   244G12  O004 4384   1.030   0.413   6.031
   244G12  C01C 4385   1.074   0.367   6.156
   244G12  H00A 4386   1.088   0.260   6.161
   244G12  C00P 4387   1.040   0.437   6.278
   244G12  C00O 4388   1.070   0.389   6.409
   244G12  C01D 4389   1.186   0.309   6.418
   244G12  H00S 4390   1.236   0.274   6.330
   244G12  C01E 4391   1.251   0.286   6.541
   244G12  O008 4392   1.376   0.225   6.544
   244G12  C01V 4393   1.450   0.204   6.434
   244G12  C01Z 4394   1.456   0.052   6.401
   244G12  H00R 4395   1.368   0.010   6.450
   244G12  H00Q 4396   1.448   0.039   6.293
   244G12  O009 4397   1.575   0.004   6.460
   244G12  H00P 4398   1.553  -0.054   6.531
   244G12  C01W 4399   1.485   0.312   6.353
   244G12  H00O 4400   1.459   0.411   6.389
   244G12  C01X 4401   1.563   0.317   6.222
   244G12  H00N 4402   1.550   0.228   6.160
   244G12  H00M 4403   1.520   0.401   6.167
   244G12  C01Y 4404   1.714   0.346   6.249
   244G12  C02D 4405   1.762   0.469   6.195
   244G12  H019 4406   1.699   0.537   6.140
   244G12  C02C 4407   1.897   0.495   6.211
   244G12  H01A 4408   1.940   0.591   6.185
   244G12  C02B 4409   1.976   0.401   6.277
   244G12  O00E 4410   2.096   0.447   6.327
   244G12  H01B 4411   2.139   0.385   6.385
   244G12  C02F 4412   1.928   0.284   6.336
   244G12  O00F 4413   2.010   0.206   6.419
   244G12  C02G 4414   1.965   0.073   6.453
   244G12  H017 4415   2.050   0.023   6.498
   244G12  H016 4416   1.933   0.015   6.367
   244G12  H015 4417   1.888   0.078   6.530
   244G12  C02E 4418   1.798   0.251   6.311
   244G12  H018 4419   1.767   0.152   6.340
   244G12  C01F 4420   1.196   0.326   6.663
   244G12  C01G 4421   1.268   0.335   6.786
   244G12  H00L 4422   1.364   0.284   6.790
   244G12  C01H 4423   1.223   0.414   6.892
   244G12  H00B 4424   1.299   0.442   6.963
   244G12  C01I 4425   1.094   0.477   6.879
   244G12  C01U 4426   1.057   0.369   6.664
   244G12  C00S 4427   0.860   0.773   6.337
   244G12  C00K 4428   0.845   0.763   6.555
   244G12  C00N 4429   1.013   0.423   6.537
   244G12  C000 4430   1.006   0.433   6.777
   244G12  C01J 4431   1.049   0.612   6.907
   244G12  C01K 4432   1.117   0.693   7.006
   244G12  C01P 4433   1.191   0.656   7.120
   244G12  C01Q 4434   1.178   0.522   7.175
   244G12  H00G 4435   1.095   0.458   7.148
   244G12  C01R 4436   1.284   0.463   7.232
   244G12  H00F 4437   1.383   0.504   7.248
   244G12  C01S 4438   1.272   0.314   7.269
   244G12  H00E 4439   1.311   0.304   7.371
   244G12  H00D 4440   1.169   0.282   7.283
   244G12  O005 4441   1.353   0.230   7.184
   244G12  H00C 4442   1.400   0.284   7.122
   244G12  C01O 4443   1.275   0.752   7.185
   244G12  H00H 4444   1.318   0.710   7.275
   244G12  C01N 4445   1.282   0.885   7.147
   244G12  O006 4446   1.376   0.970   7.195
   244G12  C01T 4447   1.484   0.923   7.275
   244G12  H00K 4448   1.450   0.858   7.355
   244G12  H00J 4449   1.550   1.007   7.295
   244G12  H00I 4450   1.555   0.869   7.211
   244G12  C01M 4451   1.192   0.924   7.042
   244G12  C020 4452   0.868   0.842   6.672
   244G12  C021 4453   0.825   0.976   6.689
   244G12  C01L 4454   1.103   0.832   6.974
   244G12  O007 4455   1.199   1.054   7.005
   244G12  C022 4456   0.899   1.061   6.771
   244G12  C023 4457   0.797   1.057   6.572
   244G12  C00G 4458   0.883   1.196   6.343
   244G12  C00E 4459   0.969   1.393   6.245
   244G12  O00A 4460   1.042   1.460   6.148
   244G12  C024 4461   1.186   1.465   6.165
   244G12  H00V 4462   1.218   1.361   6.173
   244G12  H00U 4463   1.216   1.518   6.256
   244G12  H00T 4464   1.251   1.504   6.087
   254G12  C00D 4465   4.261   2.358   5.463
   254G12  O00B 4466   4.332   2.297   5.570
   254G12  C025 4467   4.377   2.172   5.564
   254G12  C026 4468   4.488   2.143   5.466
   254G12  H00Y 4469   4.581   2.118   5.516
   254G12  H00X 4470   4.512   2.233   5.410
   254G12  O00C 4471   4.453   2.045   5.367
   254G12  H00W 4472   4.436   1.959   5.401
   254G12  C027 4473   4.316   2.081   5.640
   254G12  O00D 4474   4.213   2.116   5.718
   254G12  H00Z 4475   4.193   2.207   5.703
   254G12  C028 4476   4.377   1.950   5.661
   254G12  C029 4477   4.302   1.828   5.637
   254G12  H010 4478   4.208   1.830   5.583
   254G12  C02T 4479   4.351   1.703   5.676
   254G12  H01O 4480   4.311   1.610   5.637
   254G12  C02S 4481   4.469   1.696   5.753
   254G12  O00J 4482   4.523   1.578   5.799
   254G12  H01P 4483   4.595   1.601   5.857
   254G12  C02R 4484   4.546   1.811   5.778
   254G12  O00I 4485   4.651   1.795   5.864
   254G12  C02Q 4486   4.707   1.909   5.922
   254G12  H01N 4487   4.760   1.967   5.846
   254G12  H01R 4488   4.771   1.872   6.001
   254G12  H01Q 4489   4.626   1.974   5.957
   254G12  C02A 4490   4.507   1.937   5.721
   254G12  H011 4491   4.565   2.022   5.753
   254G12  C00C 4492   4.226   2.309   5.335
   254G12  H012 4493   4.261   2.210   5.313
   254G12  C00B 4494   4.164   2.385   5.236
   254G12  C00A 4495   4.152   2.355   5.097
   254G12  C009 4496   4.233   2.271   5.012
   254G12  C008 4497   4.333   2.181   5.030
   254G12  H013 4498   4.362   2.147   5.128
   254G12  C007 4499   4.412   2.144   4.918
   254G12  H014 4500   4.489   2.070   4.910
   254G12  C006 4501   4.403   2.213   4.796
   254G12  C005 4502   4.304   2.312   4.788
   254G12  C004 4503   4.294   2.404   4.676
   254G12  C003 4504   4.195   2.507   4.681
   254G12  C002 4505   4.203   2.601   4.569
   254G12  C001 4506   4.131   2.723   4.537
   254G12  C00M 4507   4.110   2.826   4.637
   254G12  C00L 4508   4.044   2.793   4.754
   254G12  C00R 4509   4.039   2.880   4.867
   254G12  C00Q 4510   4.081   3.016   4.886
   254G12  C00V 4511   4.071   3.062   5.019
   254G12  C00U 4512   4.060   2.977   5.132
   254G12  C00T 4513   4.037   2.844   5.112
   254G12  C016 4514   4.057   2.747   5.208
   254G12  C015 4515   4.072   2.786   5.337
   254G12  C010 4516   4.054   2.923   5.367
   254G12  C011 4517   4.029   2.960   5.499
   254G12  H005 4518   4.008   3.063   5.523
   254G12  C012 4519   4.036   2.861   5.603
   254G12  C017 4520   3.997   2.878   5.740
   254G12  O002 4521   3.933   2.779   5.806
   254G12  H004 4522   3.886   2.734   5.737
   254G12  C018 4523   4.008   2.997   5.809
   254G12  O001 4524   4.053   3.113   5.759
   254G12  H003 4525   4.049   3.180   5.826
   254G12  C019 4526   3.951   3.015   5.959
   254G12  H002 4527   3.843   3.009   5.945
   254G12  H001 4528   3.979   2.934   6.027
   254G12  O000 4529   3.990   3.138   6.007
   254G12  C01A 4530   3.922   3.186   6.120
   254G12  C02K 4531   3.926   3.324   6.156
   254G12  O00G 4532   4.000   3.422   6.086
   254G12  C02M 4533   4.139   3.385   6.066
   254G12  H01G 4534   4.169   3.388   5.961
   254G12  H01F 4535   4.165   3.285   6.099
   254G12  H01E 4536   4.203   3.444   6.131
   254G12  C02J 4537   3.850   3.370   6.265
   254G12  H01H 4538   3.850   3.478   6.276
   254G12  C02I 4539   3.765   3.287   6.339
   254G12  C02N 4540   3.679   3.343   6.435
   254G12  H01M 4541   3.647   3.288   6.522
   254G12  C02O 4542   3.622   3.459   6.411
   254G12  H01L 4543   3.639   3.523   6.326
   254G12  C02P 4544   3.514   3.516   6.502
   254G12  H01K 4545   3.561   3.582   6.575
   254G12  H01J 4546   3.447   3.577   6.442
   254G12  O00H 4547   3.443   3.424   6.582
   254G12  H01I 4548   3.498   3.385   6.648
   254G12  C02H 4549   3.769   3.152   6.312
   254G12  H01C 4550   3.702   3.089   6.369
   254G12  C02L 4551   3.850   3.097   6.207
   254G12  H01D 4552   3.845   2.990   6.190
   254G12  C013 4553   4.079   2.736   5.569
   254G12  H000 4554   4.075   2.666   5.652
   254G12  C014 4555   4.101   2.696   5.432
   254G12  C00F 4556   4.143   2.566   5.394
   254G12  C00H 4557   4.068   2.609   5.173
   254G12  C00I 4558   4.042   2.572   5.041
   254G12  C00J 4559   4.016   2.674   4.947
   254G12  C00Z 4560   4.062   3.021   5.260
   254G12  C00Y 4561   4.074   3.159   5.284
   254G12  H006 4562   4.070   3.196   5.386
   254G12  C00X 4563   4.105   3.247   5.178
   254G12  O003 4564   4.143   3.380   5.196
   254G12  C01B 4565   4.152   3.434   5.330
   254G12  H009 4566   4.192   3.534   5.349
   254G12  H008 4567   4.231   3.380   5.382
   254G12  H007 4568   4.058   3.424   5.385
   254G12  C00W 4569   4.101   3.202   5.047
   254G12  O004 4570   4.125   3.295   4.954
   254G12  C01C 4571   4.118   3.247   4.825
   254G12  H00A 4572   4.080   3.316   4.751
   254G12  C00P 4573   4.121   3.111   4.793
   254G12  C00O 4574   4.184   3.081   4.669
   254G12  C01D 4575   4.273   3.171   4.594
   254G12  H00S 4576   4.286   3.268   4.640
   254G12  C01E 4577   4.341   3.130   4.479
   254G12  O008 4578   4.439   3.206   4.417
   254G12  C01V 4579   4.466   3.325   4.475
   254G12  C01Z 4580   4.399   3.446   4.422
   254G12  H00R 4581   4.363   3.486   4.517
   254G12  H00Q 4582   4.470   3.512   4.371
   254G12  O009 4583   4.290   3.412   4.335
   254G12  H00P 4584   4.327   3.345   4.279
   254G12  C01W 4585   4.552   3.330   4.581
   254G12  H00O 4586   4.579   3.232   4.616
   254G12  C01X 4587   4.614   3.452   4.652
   254G12  H00N 4588   4.553   3.541   4.658
   254G12  H00M 4589   4.646   3.423   4.753
   254G12  C01Y 4590   4.726   3.499   4.565
   254G12  C02D 4591   4.705   3.603   4.471
   254G12  H019 4592   4.618   3.667   4.459
   254G12  C02C 4593   4.801   3.632   4.375
   254G12  H01A 4594   4.789   3.707   4.299
   254G12  C02B 4595   4.922   3.564   4.376
   254G12  O00E 4596   5.008   3.596   4.276
   254G12  H01B 4597   5.058   3.515   4.280
   254G12  C02F 4598   4.947   3.455   4.466
   254G12  O00F 4599   5.065   3.385   4.448
   254G12  C02G 4600   5.058   3.263   4.500
   254G12  H017 4601   4.963   3.211   4.490
   254G12  H016 4602   5.078   3.252   4.607
   254G12  H015 4603   5.132   3.203   4.447
   254G12  C02E 4604   4.854   3.435   4.566
   254G12  H018 4605   4.884   3.366   4.643
   254G12  C01F 4606   4.331   2.998   4.435
   254G12  C01G 4607   4.439   2.931   4.372
   254G12  H00L 4608   4.519   2.995   4.338
   254G12  C01H 4609   4.429   2.782   4.353
   254G12  H00B 4610   4.523   2.732   4.337
   254G12  C01I 4611   4.316   2.710   4.396
   254G12  C01U 4612   4.224   2.922   4.474
   254G12  C00S 4613   4.031   2.804   4.982
   254G12  C00K 4614   4.045   2.660   4.808
   254G12  C00N 4615   4.167   2.955   4.601
   254G12  C000 4616   4.206   2.785   4.435
   254G12  C01J 4617   4.312   2.587   4.474
   254G12  C01K 4618   4.397   2.471   4.458
   254G12  C01P 4619   4.479   2.430   4.348
   254G12  C01Q 4620   4.475   2.501   4.220
   254G12  H00G 4621   4.376   2.512   4.178
   254G12  C01R 4622   4.586   2.548   4.159
   254G12  H00F 4623   4.677   2.527   4.212
   254G12  C01S 4624   4.577   2.633   4.026
   254G12  H00E 4625   4.656   2.707   4.012
   254G12  H00D 4626   4.597   2.569   3.940
   254G12  O005 4627   4.447   2.680   4.002
   254G12  H00C 4628   4.419   2.621   3.934
   254G12  C01O 4629   4.552   2.311   4.357
   254G12  H00H 4630   4.619   2.274   4.281
   254G12  C01N 4631   4.543   2.226   4.466
   254G12  O006 4632   4.604   2.101   4.463
   254G12  C01T 4633   4.512   2.001   4.447
   254G12  H00K 4634   4.455   2.009   4.355
   254G12  H00J 4635   4.442   2.009   4.529
   254G12  H00I 4636   4.546   1.899   4.467
   254G12  C01M 4637   4.465   2.267   4.574
   254G12  C020 4638   4.111   2.531   4.791
   254G12  C021 4639   4.115   2.419   4.882
   254G12  C01L 4640   4.383   2.382   4.568
   254G12  O007 4641   4.481   2.184   4.691
   254G12  C022 4642   4.207   2.322   4.883
   254G12  C023 4643   4.078   2.438   5.016
   254G12  C00G 4644   4.119   2.513   5.270
   254G12  C00E 4645   4.221   2.490   5.486
   254G12  O00A 4646   4.257   2.532   5.610
   254G12  C024 4647   4.381   2.595   5.616
   254G12  H00V 4648   4.378   2.675   5.542
   254G12  H00U 4649   4.455   2.522   5.585
   254G12  H00T 4650   4.396   2.634   5.717
   264G12  C00D 4651   1.520   3.935   8.722
   264G12  O00B 4652   1.411   4.003   8.671
   264G12  C025 4653   1.409   4.144   8.688
   264G12  C026 4654   1.402   4.195   8.833
   264G12  H00Y 4655   1.434   4.299   8.843
   264G12  H00X 4656   1.466   4.135   8.898
   264G12  O00C 4657   1.273   4.178   8.893
   264G12  H00W 4658   1.202   4.177   8.831
   264G12  C027 4659   1.418   4.220   8.573
   264G12  O00D 4660   1.430   4.164   8.450
   264G12  H00Z 4661   1.444   4.073   8.472
   264G12  C028 4662   1.395   4.360   8.573
   264G12  C029 4663   1.476   4.452   8.494
   264G12  H010 4664   1.536   4.409   8.416
   264G12  C02T 4665   1.464   4.591   8.504
   264G12  H01O 4666   1.517   4.669   8.452
   264G12  C02S 4667   1.363   4.639   8.589
   264G12  O00J 4668   1.348   4.770   8.610
   264G12  H01P 4669   1.274   4.785   8.668
   264G12  C02R 4670   1.271   4.559   8.659
   264G12  O00I 4671   1.167   4.621   8.726
   264G12  C02Q 4672   1.065   4.542   8.776
   264G12  H01N 4673   1.004   4.607   8.840
   264G12  H01R 4674   1.105   4.457   8.831
   264G12  H01Q 4675   1.010   4.513   8.687
   264G12  C02A 4676   1.292   4.420   8.645
   264G12  H011 4677   1.238   4.347   8.702
   264G12  C00C 4678   1.634   3.994   8.780
   264G12  H012 4679   1.643   4.101   8.781
   264G12  C00B 4680   1.730   3.914   8.851
   264G12  C00A 4681   1.839   3.978   8.921
   264G12  C009 4682   1.919   4.089   8.885
   264G12  C008 4683   1.912   4.201   8.797
   264G12  H013 4684   1.826   4.222   8.735
   264G12  C007 4685   2.025   4.284   8.780
   264G12  H014 4686   2.019   4.364   8.708
   264G12  C006 4687   2.150   4.247   8.834
   264G12  C005 4688   2.154   4.129   8.911
   264G12  C004 4689   2.274   4.069   8.956
   264G12  C003 4690   2.270   3.954   9.042
   264G12  C002 4691   2.400   3.887   9.057
   264G12  C001 4692   2.442   3.766   9.121
   264G12  C00M 4693   2.372   3.640   9.113
   264G12  C00L 4694   2.230   3.622   9.113
   264G12  C00R 4695   2.158   3.506   9.073
   264G12  C00Q 4696   2.197   3.379   9.024
   264G12  C00V 4697   2.092   3.304   8.959
   264G12  C00U 4698   1.963   3.357   8.928
   264G12  C00T 4699   1.934   3.481   8.960
   264G12  C016 4700   1.832   3.560   8.911
   264G12  C015 4701   1.732   3.499   8.838
   264G12  C010 4702   1.759   3.362   8.806
   264G12  C011 4703   1.666   3.294   8.718
   264G12  H005 4704   1.681   3.192   8.687
   264G12  C012 4705   1.558   3.362   8.662
   264G12  C017 4706   1.459   3.304   8.575
   264G12  O002 4707   1.508   3.202   8.497
   264G12  H004 4708   1.471   3.214   8.411
   264G12  C018 4709   1.324   3.334   8.575
   264G12  O001 4710   1.257   3.434   8.650
   264G12  H003 4711   1.189   3.464   8.592
   264G12  C019 4712   1.240   3.273   8.469
   264G12  H002 4713   1.293   3.214   8.395
   264G12  H001 4714   1.170   3.205   8.516
   264G12  O000 4715   1.161   3.380   8.412
   264G12  C01A 4716   1.188   3.463   8.308
   264G12  C02K 4717   1.309   3.465   8.231
   264G12  O00G 4718   1.408   3.372   8.268
   264G12  C02M 4719   1.530   3.372   8.194
   264G12  H01G 4720   1.596   3.298   8.240
   264G12  H01F 4721   1.560   3.475   8.178
   264G12  H01E 4722   1.491   3.338   8.098
   264G12  C02J 4723   1.326   3.570   8.134
   264G12  H01H 4724   1.418   3.583   8.081
   264G12  C02I 4725   1.225   3.660   8.104
   264G12  C02N 4726   1.248   3.767   8.001
   264G12  H01M 4727   1.313   3.759   7.915
   264G12  C02O 4728   1.189   3.885   8.022
   264G12  H01L 4729   1.130   3.915   8.108
   264G12  C02P 4730   1.200   4.006   7.926
   264G12  H01K 4731   1.257   4.076   7.987
   264G12  H01J 4732   1.260   3.973   7.841
   264G12  O00H 4733   1.075   4.058   7.889
   264G12  H01I 4734   0.997   4.023   7.930
   264G12  C02H 4735   1.108   3.653   8.183
   264G12  H01C 4736   1.021   3.709   8.152
   264G12  C02L 4737   1.088   3.554   8.281
   264G12  H01D 4738   0.991   3.540   8.327
   264G12  C013 4739   1.539   3.497   8.700
   264G12  H000 4740   1.475   3.550   8.631
   264G12  C014 4741   1.627   3.569   8.784
   264G12  C00F 4742   1.619   3.710   8.796
   264G12  C00H 4743   1.821   3.700   8.935
   264G12  C00I 4744   1.913   3.763   9.016
   264G12  C00J 4745   2.015   3.683   9.075
   264G12  C00Z 4746   1.874   3.291   8.847
   264G12  C00Y 4747   1.901   3.153   8.816
   264G12  H006 4748   1.834   3.085   8.764
   264G12  C00X 4749   2.017   3.090   8.863
   264G12  O003 4750   2.027   2.959   8.829
   264G12  C01B 4751   2.125   2.881   8.894
   264G12  H009 4752   2.108   2.895   9.001
   264G12  H008 4753   2.226   2.901   8.860
   264G12  H007 4754   2.096   2.777   8.882
   264G12  C00W 4755   2.116   3.166   8.929
   264G12  O004 4756   2.232   3.106   8.963
   264G12  C01C 4757   2.337   3.188   8.990
   264G12  H00A 4758   2.431   3.140   9.012
   264G12  C00P 4759   2.333   3.327   9.017
   264G12  C00O 4760   2.456   3.408   9.016
   264G12  C01D 4761   2.574   3.352   8.955
   264G12  H00S 4762   2.586   3.250   8.920
   264G12  C01E 4763   2.687   3.428   8.921
   264G12  O008 4764   2.794   3.368   8.857
   264G12  C01V 4765   2.919   3.394   8.912
   264G12  C01Z 4766   2.931   3.382   9.070
   264G12  H00R 4767   3.035   3.383   9.104
   264G12  H00Q 4768   2.874   3.464   9.113
   264G12  O009 4769   2.865   3.255   9.100
   264G12  H00P 4770   2.850   3.221   9.013
   264G12  C01W 4771   3.021   3.428   8.831
   264G12  H00O 4772   3.002   3.426   8.725
   264G12  C01X 4773   3.162   3.450   8.882
   264G12  H00N 4774   3.189   3.403   8.977
   264G12  H00M 4775   3.214   3.395   8.804
   264G12  C01Y 4776   3.208   3.588   8.876
   264G12  C02D 4777   3.190   3.669   8.990
   264G12  H019 4778   3.150   3.627   9.081
   264G12  C02C 4779   3.236   3.801   8.986
   264G12  H01A 4780   3.232   3.865   9.073
   264G12  C02B 4781   3.294   3.846   8.864
   264G12  O00E 4782   3.336   3.974   8.852
   264G12  H01B 4783   3.357   4.003   8.765
   264G12  C02F 4784   3.312   3.767   8.754
   264G12  O00F 4785   3.356   3.804   8.630
   264G12  C02G 4786   3.494   3.793   8.615
   264G12  H017 4787   3.541   3.833   8.526
   264G12  H016 4788   3.522   3.688   8.629
   264G12  H015 4789   3.537   3.850   8.697
   264G12  C02E 4790   3.274   3.633   8.760
   264G12  H018 4791   3.300   3.568   8.678
   264G12  C01F 4792   2.682   3.564   8.955
   264G12  C01G 4793   2.763   3.666   8.896
   264G12  H00L 4794   2.832   3.623   8.826
   264G12  C01H 4795   2.731   3.801   8.905
   264G12  H00B 4796   2.774   3.861   8.827
   264G12  C01I 4797   2.619   3.839   8.991
   264G12  C01U 4798   2.586   3.607   9.052
   264G12  C00S 4799   2.025   3.547   9.040
   264G12  C00K 4800   2.145   3.735   9.104
   264G12  C00N 4801   2.464   3.539   9.062
   264G12  C000 4802   2.568   3.740   9.084
   264G12  C01J 4803   2.519   3.941   8.995
   264G12  C01K 4804   2.523   4.071   8.931
   264G12  C01P 4805   2.638   4.145   8.895
   264G12  C01Q 4806   2.778   4.108   8.924
   264G12  H00G 4807   2.822   4.090   9.021
   264G12  C01R 4808   2.857   4.091   8.815
   264G12  H00F 4809   2.819   4.121   8.718
   264G12  C01S 4810   3.000   4.030   8.816
   264G12  H00E 4811   3.047   4.030   8.914
   264G12  H00D 4812   2.973   3.924   8.814
   264G12  O005 4813   3.078   4.070   8.710
   264G12  H00C 4814   3.093   4.161   8.728
   264G12  C01O 4815   2.631   4.266   8.828
   264G12  H00H 4816   2.721   4.318   8.799
   264G12  C01N 4817   2.505   4.324   8.793
   264G12  O006 4818   2.507   4.447   8.731
   264G12  C01T 4819   2.384   4.505   8.690
   264G12  H00K 4820   2.407   4.601   8.645
   264G12  H00J 4821   2.314   4.521   8.772
   264G12  H00I 4822   2.352   4.434   8.614
   264G12  C01M 4823   2.389   4.246   8.824
   264G12  C020 4824   2.156   3.877   9.069
   264G12  C021 4825   2.038   3.954   9.032
   264G12  C01L 4826   2.397   4.127   8.907
   264G12  O007 4827   2.265   4.305   8.801
   264G12  C022 4828   2.037   4.065   8.952
   264G12  C023 4829   1.913   3.898   9.015
   264G12  C00G 4830   1.718   3.773   8.866
   264G12  C00E 4831   1.513   3.793   8.736
   264G12  O00A 4832   1.402   3.730   8.695
   264G12  C024 4833   1.301   3.727   8.796
   264G12  H00V 4834   1.262   3.829   8.798
   264G12  H00U 4835   1.338   3.718   8.898
   264G12  H00T 4836   1.225   3.649   8.785
   274G12  C00D 4837   1.622   1.517   7.421
   274G12  O00B 4838   1.665   1.412   7.494
   274G12  C025 4839   1.679   1.426   7.635
   274G12  C026 4840   1.560   1.362   7.703
   274G12  H00Y 4841   1.577   1.315   7.800
   274G12  H00X 4842   1.547   1.276   7.638
   274G12  O00C 4843   1.455   1.452   7.716
   274G12  H00W 4844   1.376   1.418   7.678
   274G12  C027 4845   1.795   1.476   7.689
   274G12  O00D 4846   1.896   1.511   7.604
   274G12  H00Z 4847   1.866   1.494   7.516
   274G12  C028 4848   1.816   1.495   7.831
   274G12  C029 4849   1.945   1.491   7.889
   274G12  H010 4850   2.028   1.456   7.830
   274G12  C02T 4851   1.973   1.501   8.027
   274G12  H01O 4852   2.075   1.487   8.060
   274G12  C02S 4853   1.865   1.531   8.112
   274G12  O00J 4854   1.881   1.534   8.244
   274G12  H01P 4855   1.803   1.518   8.293
   274G12  C02R 4856   1.734   1.557   8.055
   274G12  O00I 4857   1.642   1.583   8.147
   274G12  C02Q 4858   1.505   1.587   8.101
   274G12  H01N 4859   1.431   1.565   8.179
   274G12  H01R 4860   1.486   1.513   8.023
   274G12  H01Q 4861   1.487   1.688   8.066
   274G12  C02A 4862   1.709   1.529   7.918
   274G12  H011 4863   1.609   1.544   7.881
   274G12  C00C 4864   1.627   1.648   7.467
   274G12  H012 4865   1.676   1.665   7.562
   274G12  C00B 4866   1.572   1.762   7.401
   274G12  C00A 4867   1.557   1.897   7.444
   274G12  C009 4868   1.550   1.949   7.578
   274G12  C008 4869   1.511   1.892   7.702
   274G12  H013 4870   1.527   1.787   7.724
   274G12  C007 4871   1.442   1.970   7.799
   274G12  H014 4872   1.405   1.930   7.892
   274G12  C006 4873   1.400   2.104   7.770
   274G12  C005 4874   1.432   2.156   7.645
   274G12  C004 4875   1.377   2.277   7.595
   274G12  C003 4876   1.376   2.293   7.456
   274G12  C002 4877   1.299   2.407   7.412
   274G12  C001 4878   1.262   2.459   7.283
   274G12  C00M 4879   1.218   2.374   7.165
   274G12  C00L 4880   1.281   2.252   7.139
   274G12  C00R 4881   1.245   2.152   7.045
   274G12  C00Q 4882   1.134   2.135   6.960
   274G12  C00V 4883   1.140   2.009   6.893
   274G12  C00U 4884   1.230   1.902   6.926
   274G12  C00T 4885   1.325   1.919   7.019
   274G12  C016 4886   1.400   1.818   7.080
   274G12  C015 4887   1.390   1.692   7.030
   274G12  C010 4888   1.318   1.676   6.911
   274G12  C011 4889   1.344   1.558   6.840
   274G12  H005 4890   1.292   1.531   6.749
   274G12  C012 4891   1.430   1.453   6.881
   274G12  C017 4892   1.444   1.333   6.792
   274G12  O002 4893   1.434   1.351   6.658
   274G12  H004 4894   1.439   1.262   6.625
   274G12  C018 4895   1.446   1.207   6.844
   274G12  O001 4896   1.457   1.183   6.979
   274G12  H003 4897   1.429   1.092   6.984
   274G12  C019 4898   1.442   1.077   6.761
   274G12  H002 4899   1.515   1.005   6.797
   274G12  H001 4900   1.340   1.038   6.768
   274G12  O000 4901   1.452   1.100   6.618
   274G12  C01A 4902   1.436   0.991   6.535
   274G12  C02K 4903   1.430   1.021   6.396
   274G12  O00G 4904   1.440   1.152   6.358
   274G12  C02M 4905   1.441   1.184   6.218
   274G12  H01G 4906   1.442   1.290   6.195
   274G12  H01F 4907   1.344   1.145   6.187
   274G12  H01E 4908   1.526   1.137   6.168
   274G12  C02J 4909   1.407   0.915   6.309
   274G12  H01H 4910   1.416   0.935   6.203
   274G12  C02I 4911   1.375   0.784   6.351
   274G12  C02N 4912   1.343   0.681   6.248
   274G12  H01M 4913   1.251   0.624   6.251
   274G12  C02O 4914   1.403   0.676   6.132
   274G12  H01L 4915   1.488   0.741   6.116
   274G12  C02P 4916   1.349   0.599   6.013
   274G12  H01K 4917   1.271   0.531   6.046
   274G12  H01J 4918   1.293   0.671   5.953
   274G12  O00H 4919   1.443   0.536   5.930
   274G12  H01I 4920   1.401   0.519   5.847
   274G12  C02H 4921   1.363   0.766   6.489
   274G12  H01C 4922   1.328   0.669   6.520
   274G12  C02L 4923   1.404   0.859   6.580
   274G12  H01D 4924   1.391   0.834   6.685
   274G12  C013 4925   1.489   1.475   7.012
   274G12  H000 4926   1.544   1.391   7.052
   274G12  C014 4927   1.469   1.594   7.086
   274G12  C00F 4928   1.523   1.614   7.217
   274G12  C00H 4929   1.476   1.850   7.195
   274G12  C00I 4930   1.491   1.979   7.234
   274G12  C00J 4931   1.422   2.075   7.163
   274G12  C00Z 4932   1.229   1.776   6.865
   274G12  C00Y 4933   1.150   1.759   6.753
   274G12  H006 4934   1.153   1.673   6.687
   274G12  C00X 4935   1.071   1.870   6.706
   274G12  O003 4936   1.003   1.848   6.588
   274G12  C01B 4937   0.966   1.954   6.499
   274G12  H009 4938   1.043   2.032   6.498
   274G12  H008 4939   0.869   1.994   6.526
   274G12  H007 4940   0.950   1.924   6.395
   274G12  C00W 4941   1.057   1.985   6.785
   274G12  O004 4942   0.960   2.079   6.753
   274G12  C01C 4943   0.920   2.169   6.852
   274G12  H00A 4944   0.824   2.214   6.832
   274G12  C00P 4945   1.016   2.213   6.950
   274G12  C00O 4946   0.991   2.332   7.033
   274G12  C01D 4947   0.855   2.373   7.055
   274G12  H00S 4948   0.782   2.322   6.993
   274G12  C01E 4949   0.805   2.449   7.165
   274G12  O008 4950   0.673   2.466   7.187
   274G12  C01V 4951   0.584   2.376   7.135
   274G12  C01Z 4952   0.491   2.422   7.026
   274G12  H00R 4953   0.401   2.361   7.009
   274G12  H00Q 4954   0.465   2.523   7.058
   274G12  O009 4955   0.566   2.423   6.905
   274G12  H00P 4956   0.620   2.500   6.912
   274G12  C01W 4957   0.583   2.251   7.181
   274G12  H00O 4958   0.642   2.218   7.264
   274G12  C01X 4959   0.492   2.133   7.146
   274G12  H00N 4960   0.482   2.075   7.237
   274G12  H00M 4961   0.386   2.156   7.132
   274G12  C01Y 4962   0.558   2.056   7.030
   274G12  C02D 4963   0.540   2.089   6.897
   274G12  H019 4964   0.470   2.166   6.869
   274G12  C02C 4965   0.588   2.004   6.793
   274G12  H01A 4966   0.558   2.012   6.689
   274G12  C02B 4967   0.667   1.897   6.825
   274G12  O00E 4968   0.724   1.809   6.732
   274G12  H01B 4969   0.784   1.760   6.787
   274G12  C02F 4970   0.697   1.869   6.962
   274G12  O00F 4971   0.785   1.769   6.989
   274G12  C02G 4972   0.854   1.765   7.115
   274G12  H017 4973   0.885   1.661   7.120
   274G12  H016 4974   0.792   1.778   7.203
   274G12  H015 4975   0.947   1.822   7.113
   274G12  C02E 4976   0.637   1.947   7.063
   274G12  H018 4977   0.655   1.932   7.168
   274G12  C01F 4978   0.907   2.502   7.245
   274G12  C01G 4979   0.875   2.563   7.374
   274G12  H00L 4980   0.773   2.585   7.401
   274G12  C01H 4981   0.980   2.580   7.474
   274G12  H00B 4982   0.956   2.604   7.577
   274G12  C01I 4983   1.113   2.555   7.439
   274G12  C01U 4984   1.041   2.496   7.216
   274G12  C00S 4985   1.327   2.044   7.067
   274G12  C00K 4986   1.389   2.202   7.220
   274G12  C00N 4987   1.081   2.399   7.124
   274G12  C000 4988   1.145   2.545   7.303
   274G12  C01J 4989   1.223   2.487   7.514
   274G12  C01K 4990   1.222   2.469   7.660
   274G12  C01P 4991   1.165   2.552   7.761
   274G12  C01Q 4992   1.119   2.685   7.732
   274G12  H00G 4993   1.168   2.747   7.659
   274G12  C01R 4994   0.997   2.721   7.779
   274G12  H00F 4995   0.936   2.651   7.834
   274G12  C01S 4996   0.931   2.854   7.745
   274G12  H00E 4997   0.999   2.914   7.684
   274G12  H00D 4998   0.845   2.840   7.680
   274G12  O005 4999   0.893   2.924   7.860
   274G12  H00C 5000   0.970   2.932   7.915
   274G12  C01O 5001   1.166   2.510   7.895
   274G12  H00H 5002   1.131   2.575   7.974
   274G12  C01N 5003   1.227   2.386   7.925
   274G12  O006 5004   1.238   2.338   8.055
   274G12  C01T 5005   1.210   2.424   8.161
   274G12  H00K 5006   1.233   2.366   8.250
   274G12  H00J 5007   1.109   2.465   8.171
   274G12  H00I 5008   1.274   2.512   8.161
   274G12  C01M 5009   1.278   2.309   7.820
   274G12  C020 5010   1.436   2.210   7.358
   274G12  C021 5011   1.529   2.119   7.414
   274G12  C01L 5012   1.301   2.355   7.688
   274G12  O007 5013   1.330   2.184   7.854
   274G12  C022 5014   1.519   2.083   7.547
   274G12  C023 5015   1.560   2.000   7.352
   274G12  C00G 5016   1.524   1.742   7.271
   274G12  C00E 5017   1.560   1.502   7.298
   274G12  O00A 5018   1.538   1.374   7.269
   274G12  C024 5019   1.400   1.334   7.276
   274G12  H00V 5020   1.386   1.226   7.268
   274G12  H00U 5021   1.340   1.386   7.201
   274G12  H00T 5022   1.364   1.363   7.375
   284G12  C00D 5023   0.607   6.668   7.848
   284G12  O00B 5024   0.715   6.704   7.932
   284G12  C025 5025   0.802   6.610   7.975
   284G12  C026 5026   0.764   6.558   8.114
   284G12  H00Y 5027   0.855   6.529   8.167
   284G12  H00X 5028   0.703   6.468   8.108
   284G12  O00C 5029   0.694   6.660   8.184
   284G12  H00W 5030   0.711   6.741   8.140
   284G12  C027 5031   0.903   6.579   7.890
   284G12  O00D 5032   0.920   6.661   7.786
   284G12  H00Z 5033   0.883   6.745   7.807
   284G12  C028 5034   0.996   6.470   7.904
   284G12  C029 5035   1.115   6.469   7.830
   284G12  H010 5036   1.131   6.554   7.766
   284G12  C02T 5037   1.199   6.356   7.822
   284G12  H01O 5038   1.278   6.360   7.748
   284G12  C02S 5039   1.159   6.242   7.888
   284G12  O00J 5040   1.218   6.121   7.870
   284G12  H01P 5041   1.182   6.056   7.928
   284G12  C02R 5042   1.045   6.238   7.973
   284G12  O00I 5043   1.029   6.119   8.042
   284G12  C02Q 5044   0.935   6.114   8.144
   284G12  H01N 5045   0.913   6.010   8.167
   284G12  H01R 5046   0.839   6.154   8.111
   284G12  H01Q 5047   0.957   6.162   8.240
   284G12  C02A 5048   0.966   6.352   7.973
   284G12  H011 5049   0.869   6.355   8.021
   284G12  C00C 5050   0.524   6.778   7.809
   284G12  H012 5051   0.550   6.876   7.846
   284G12  C00B 5052   0.422   6.767   7.714
   284G12  C00A 5053   0.342   6.873   7.648
   284G12  C009 5054   0.285   6.994   7.701
   284G12  C008 5055   0.286   7.061   7.826
   284G12  H013 5056   0.363   7.034   7.897
   284G12  C007 5057   0.176   7.150   7.858
   284G12  H014 5058   0.175   7.197   7.956
   284G12  C006 5059   0.078   7.176   7.768
   284G12  C005 5060   0.085   7.120   7.640
   284G12  C004 5061  -0.026   7.121   7.549
   284G12  C003 5062  -0.031   7.028   7.449
   284G12  C002 5063  -0.156   7.019   7.372
   284G12  C001 5064  -0.209   6.926   7.277
   284G12  C00M 5065  -0.194   6.784   7.287
   284G12  C00L 5066  -0.070   6.726   7.302
   284G12  C00R 5067  -0.050   6.589   7.338
   284G12  C00Q 5068  -0.140   6.477   7.346
   284G12  C00V 5069  -0.070   6.357   7.387
   284G12  C00U 5070   0.063   6.356   7.443
   284G12  C00T 5071   0.138   6.469   7.446
   284G12  C016 5072   0.247   6.488   7.531
   284G12  C015 5073   0.291   6.381   7.608
   284G12  C010 5074   0.236   6.256   7.581
   284G12  C011 5075   0.291   6.139   7.643
   284G12  H005 5076   0.258   6.038   7.626
   284G12  C012 5077   0.384   6.152   7.746
   284G12  C017 5078   0.443   6.046   7.821
   284G12  O002 5079   0.576   6.053   7.853
   284G12  H004 5080   0.602   5.972   7.895
   284G12  C018 5081   0.362   5.942   7.854
   284G12  O001 5082   0.225   5.947   7.843
   284G12  H003 5083   0.204   6.030   7.804
   284G12  C019 5084   0.415   5.821   7.939
   284G12  H002 5085   0.407   5.835   8.047
   284G12  H001 5086   0.353   5.732   7.928
   284G12  O000 5087   0.543   5.796   7.906
   284G12  C01A 5088   0.612   5.727   8.001
   284G12  C02K 5089   0.748   5.756   8.017
   284G12  O00G 5090   0.803   5.859   7.939
   284G12  C02M 5091   0.942   5.842   7.895
   284G12  H01G 5092   1.007   5.843   7.982
   284G12  H01F 5093   0.967   5.932   7.839
   284G12  H01E 5094   0.965   5.758   7.829
   284G12  C02J 5095   0.826   5.680   8.108
   284G12  H01H 5096   0.931   5.696   8.124
   284G12  C02I 5097   0.766   5.582   8.183
   284G12  C02N 5098   0.835   5.506   8.283
   284G12  H01M 5099   0.838   5.399   8.295
   284G12  C02O 5100   0.901   5.582   8.373
   284G12  H01L 5101   0.894   5.689   8.361
   284G12  C02P 5102   0.982   5.517   8.480
   284G12  H01K 5103   0.991   5.410   8.467
   284G12  H01J 5104   1.083   5.559   8.484
   284G12  O00H 5105   0.926   5.534   8.605
   284G12  H01I 5106   0.920   5.626   8.627
   284G12  C02H 5107   0.629   5.556   8.181
   284G12  H01C 5108   0.579   5.477   8.235
   284G12  C02L 5109   0.554   5.627   8.081
   284G12  H01D 5110   0.448   5.608   8.071
   284G12  C013 5111   0.435   6.284   7.770
   284G12  H000 5112   0.511   6.291   7.847
   284G12  C014 5113   0.392   6.402   7.703
   284G12  C00F 5114   0.450   6.525   7.717
   284G12  C00H 5115   0.302   6.619   7.548
   284G12  C00I 5116   0.245   6.727   7.477
   284G12  C00J 5117   0.140   6.700   7.387
   284G12  C00Z 5118   0.118   6.243   7.503
   284G12  C00Y 5119   0.040   6.118   7.493
   284G12  H006 5120   0.073   6.026   7.539
   284G12  C00X 5121  -0.090   6.115   7.438
   284G12  O003 5122  -0.167   5.999   7.439
   284G12  C01B 5123  -0.130   5.899   7.347
   284G12  H009 5124  -0.184   5.805   7.360
   284G12  H008 5125  -0.022   5.883   7.345
   284G12  H007 5126  -0.167   5.939   7.253
   284G12  C00W 5127  -0.144   6.237   7.389
   284G12  O004 5128  -0.265   6.232   7.337
   284G12  C01C 5129  -0.347   6.345   7.347
   284G12  H00A 5130  -0.434   6.331   7.409
   284G12  C00P 5131  -0.283   6.468   7.324
   284G12  C00O 5132  -0.368   6.584   7.314
   284G12  C01D 5133  -0.511   6.570   7.332
   284G12  H00S 5134  -0.563   6.476   7.347
   284G12  C01E 5135  -0.596   6.682   7.353
   284G12  O008 5136  -0.731   6.658   7.391
   284G12  C01V 5137  -0.745   6.590   7.509
   284G12  C01Z 5138  -0.881   6.520   7.518
   284G12  H00R 5139  -0.925   6.487   7.424
   284G12  H00Q 5140  -0.869   6.424   7.568
   284G12  O009 5141  -0.969   6.591   7.604
   284G12  H00P 5142  -1.025   6.525   7.640
   284G12  C01W 5143  -0.655   6.584   7.611
   284G12  H00O 5144  -0.563   6.641   7.606
   284G12  C01X 5145  -0.653   6.498   7.738
   284G12  H00N 5146  -0.665   6.570   7.819
   284G12  H00M 5147  -0.739   6.432   7.739
   284G12  C01Y 5148  -0.529   6.427   7.765
   284G12  C02D 5149  -0.499   6.302   7.713
   284G12  H019 5150  -0.566   6.247   7.648
   284G12  C02C 5151  -0.378   6.239   7.744
   284G12  H01A 5152  -0.363   6.136   7.715
   284G12  C02B 5153  -0.281   6.303   7.823
   284G12  O00E 5154  -0.164   6.246   7.865
   284G12  H01B 5155  -0.124   6.315   7.915
   284G12  C02F 5156  -0.307   6.432   7.873
   284G12  O00F 5157  -0.210   6.490   7.952
   284G12  C02G 5158  -0.251   6.595   8.044
   284G12  H017 5159  -0.280   6.695   8.011
   284G12  H016 5160  -0.156   6.617   8.092
   284G12  H015 5161  -0.326   6.563   8.117
   284G12  C02E 5162  -0.431   6.493   7.846
   284G12  H018 5163  -0.438   6.598   7.871
   284G12  C01F 5164  -0.543   6.814   7.334
   284G12  C01G 5165  -0.602   6.930   7.390
   284G12  H00L 5166  -0.697   6.915   7.439
   284G12  C01H 5167  -0.512   7.044   7.412
   284G12  H00B 5168  -0.551   7.118   7.481
   284G12  C01I 5169  -0.383   7.056   7.356
   284G12  C01U 5170  -0.412   6.829   7.277
   284G12  C00S 5171   0.086   6.577   7.373
   284G12  C00K 5172   0.040   6.798   7.361
   284G12  C00N 5173  -0.323   6.722   7.285
   284G12  C000 5174  -0.347   6.959   7.261
   284G12  C01J 5175  -0.261   7.110   7.410
   284G12  C01K 5176  -0.250   7.217   7.508
   284G12  C01P 5177  -0.349   7.320   7.541
   284G12  C01Q 5178  -0.457   7.353   7.456
   284G12  H00G 5179  -0.559   7.365   7.489
   284G12  C01R 5180  -0.433   7.392   7.331
   284G12  H00F 5181  -0.330   7.402   7.300
   284G12  C01S 5182  -0.545   7.416   7.224
   284G12  H00E 5183  -0.553   7.324   7.167
   284G12  H00D 5184  -0.645   7.421   7.267
   284G12  O005 5185  -0.514   7.527   7.146
   284G12  H00C 5186  -0.425   7.548   7.167
   284G12  C01O 5187  -0.332   7.395   7.662
   284G12  H00H 5188  -0.408   7.469   7.685
   284G12  C01N 5189  -0.225   7.373   7.747
   284G12  O006 5190  -0.212   7.433   7.874
   284G12  C01T 5191  -0.316   7.521   7.914
   284G12  H00K 5192  -0.323   7.596   7.835
   284G12  H00J 5193  -0.288   7.577   8.003
   284G12  H00I 5194  -0.404   7.456   7.917
   284G12  C01M 5195  -0.129   7.275   7.710
   284G12  C020 5196   0.073   6.927   7.417
   284G12  C021 5197   0.188   6.955   7.496
   284G12  C01L 5198  -0.134   7.202   7.584
   284G12  O007 5199  -0.021   7.268   7.793
   284G12  C022 5200   0.191   7.039   7.603
   284G12  C023 5201   0.285   6.856   7.518
   284G12  C00G 5202   0.398   6.641   7.653
   284G12  C00E 5203   0.572   6.542   7.793
   284G12  O00A 5204   0.661   6.435   7.814
   284G12  C024 5205   0.722   6.382   7.695
   284G12  H00V 5206   0.778   6.293   7.724
   284G12  H00U 5207   0.791   6.453   7.650
   284G12  H00T 5208   0.651   6.351   7.619
   294G12  C00D 5209   3.988   0.605   9.505
   294G12  O00B 5210   4.086   0.510   9.543
   294G12  C025 5211   4.068   0.449   9.664
   294G12  C026 5212   4.133   0.533   9.776
   294G12  H00Y 5213   4.125   0.501   9.879
   294G12  H00X 5214   4.091   0.633   9.779
   294G12  O00C 5215   4.270   0.528   9.738
   294G12  H00W 5216   4.293   0.619   9.723
   294G12  C027 5217   4.004   0.327   9.684
   294G12  O00D 5218   3.952   0.263   9.578
   294G12  H00Z 5219   3.970   0.312   9.499
   294G12  C028 5220   3.994   0.266   9.816
   294G12  C029 5221   3.873   0.214   9.868
   294G12  H010 5222   3.777   0.215   9.819
   294G12  C02T 5223   3.861   0.143   9.992
   294G12  H01O 5224   3.762   0.107  10.016
   294G12  C02S 5225   3.978   0.129  10.067
   294G12  O00J 5226   3.982   0.059  10.183
   294G12  H01P 5227   4.073   0.062  10.211
   294G12  C02R 5228   4.103   0.175  10.015
   294G12  O00I 5229   4.213   0.154  10.095
   294G12  C02Q 5230   4.344   0.197  10.049
   294G12  H01N 5231   4.351   0.298  10.009
   294G12  H01R 5232   4.366   0.126   9.969
   294G12  H01Q 5233   4.417   0.203  10.130
   294G12  C02A 5234   4.112   0.248   9.893
   294G12  H011 5235   4.207   0.290   9.863
   294G12  C00C 5236   3.849   0.592   9.537
   294G12  H012 5237   3.814   0.513   9.601
   294G12  C00B 5238   3.749   0.681   9.504
   294G12  C00A 5239   3.609   0.685   9.536
   294G12  C009 5240   3.524   0.576   9.554
   294G12  C008 5241   3.534   0.434   9.544
   294G12  H013 5242   3.634   0.394   9.528
   294G12  C007 5243   3.414   0.360   9.516
   294G12  H014 5244   3.420   0.252   9.514
   294G12  C006 5245   3.289   0.428   9.485
   294G12  C005 5246   3.285   0.566   9.493
   294G12  C004 5247   3.182   0.647   9.436
   294G12  C003 5248   3.193   0.785   9.424
   294G12  C002 5249   3.083   0.855   9.365
   294G12  C001 5250   3.065   0.994   9.331
   294G12  C00M 5251   3.169   1.071   9.265
   294G12  C00L 5252   3.296   1.089   9.320
   294G12  C00R 5253   3.408   1.151   9.257
   294G12  C00Q 5254   3.424   1.209   9.126
   294G12  C00V 5255   3.562   1.236   9.099
   294G12  C00U 5256   3.668   1.187   9.167
   294G12  C00T 5257   3.652   1.097   9.269
   294G12  C016 5258   3.745   1.005   9.319
   294G12  C015 5259   3.874   1.021   9.275
   294G12  C010 5260   3.904   1.122   9.178
   294G12  C011 5261   4.042   1.146   9.138
   294G12  H005 5262   4.076   1.229   9.077
   294G12  C012 5263   4.145   1.065   9.185
   294G12  C017 5264   4.286   1.077   9.160
   294G12  O002 5265   4.369   1.082   9.266
   294G12  H004 5266   4.454   1.100   9.231
   294G12  C018 5267   4.334   1.092   9.036
   294G12  O001 5268   4.256   1.095   8.925
   294G12  H003 5269   4.172   1.095   8.968
   294G12  C019 5270   4.481   1.102   9.002
   294G12  H002 5271   4.525   1.003   8.989
   294G12  H001 5272   4.496   1.150   8.906
   294G12  O000 5273   4.555   1.168   9.105
   294G12  C01A 5274   4.559   1.307   9.112
   294G12  C02K 5275   4.602   1.367   9.233
   294G12  O00G 5276   4.628   1.283   9.344
   294G12  C02M 5277   4.567   1.296   9.471
   294G12  H01G 5278   4.607   1.375   9.534
   294G12  H01F 5279   4.576   1.200   9.522
   294G12  H01E 5280   4.460   1.315   9.461
   294G12  C02J 5281   4.602   1.505   9.247
   294G12  H01H 5282   4.617   1.533   9.351
   294G12  C02I 5283   4.593   1.588   9.134
   294G12  C02N 5284   4.602   1.733   9.141
   294G12  H01M 5285   4.524   1.800   9.107
   294G12  C02O 5286   4.713   1.777   9.204
   294G12  H01L 5287   4.803   1.720   9.224
   294G12  C02P 5288   4.732   1.922   9.249
   294G12  H01K 5289   4.649   1.989   9.227
   294G12  H01J 5290   4.749   1.926   9.357
   294G12  O00H 5291   4.841   1.972   9.180
   294G12  H01I 5292   4.828   1.932   9.095
   294G12  C02H 5293   4.563   1.525   9.010
   294G12  H01C 5294   4.549   1.578   8.917
   294G12  C02L 5295   4.539   1.389   8.997
   294G12  H01D 5296   4.506   1.350   8.903
   294G12  C013 5297   4.108   0.955   9.267
   294G12  H000 5298   4.196   0.895   9.288
   294G12  C014 5299   3.968   0.927   9.313
   294G12  C00F 5300   3.927   0.814   9.391
   294G12  C00H 5301   3.703   0.904   9.404
   294G12  C00I 5302   3.576   0.913   9.461
   294G12  C00J 5303   3.490   1.016   9.425
   294G12  C00Z 5304   3.803   1.200   9.127
   294G12  C00Y 5305   3.829   1.289   9.017
   294G12  H006 5306   3.930   1.310   8.984
   294G12  C00X 5307   3.724   1.350   8.952
   294G12  O003 5308   3.744   1.410   8.834
   294G12  C01B 5309   3.754   1.551   8.846
   294G12  H009 5310   3.828   1.591   8.916
   294G12  H008 5311   3.659   1.595   8.877
   294G12  H007 5312   3.769   1.596   8.748
   294G12  C00W 5313   3.593   1.320   8.992
   294G12  O004 5314   3.492   1.377   8.919
   294G12  C01C 5315   3.380   1.300   8.910
   294G12  H00A 5316   3.353   1.258   8.814
   294G12  C00P 5317   3.326   1.235   9.024
   294G12  C00O 5318   3.195   1.184   9.023
   294G12  C01D 5319   3.114   1.197   8.904
   294G12  H00S 5320   3.144   1.261   8.822
   294G12  C01E 5321   2.983   1.135   8.887
   294G12  O008 5322   2.916   1.158   8.768
   294G12  C01V 5323   2.789   1.210   8.780
   294G12  C01Z 5324   2.686   1.123   8.701
   294G12  H00R 5325   2.628   1.191   8.639
   294G12  H00Q 5326   2.731   1.045   8.640
   294G12  O009 5327   2.614   1.064   8.807
   294G12  H00P 5328   2.655   1.090   8.888
   294G12  C01W 5329   2.756   1.328   8.847
   294G12  H00O 5330   2.836   1.377   8.901
   294G12  C01X 5331   2.609   1.374   8.880
   294G12  H00N 5332   2.544   1.290   8.856
   294G12  H00M 5333   2.607   1.393   8.987
   294G12  C01Y 5334   2.560   1.499   8.810
   294G12  C02D 5335   2.447   1.567   8.856
   294G12  H019 5336   2.389   1.535   8.940
   294G12  C02C 5337   2.409   1.693   8.801
   294G12  H01A 5338   2.331   1.757   8.840
   294G12  C02B 5339   2.477   1.744   8.691
   294G12  O00E 5340   2.439   1.871   8.647
   294G12  H01B 5341   2.472   1.905   8.565
   294G12  C02F 5342   2.592   1.681   8.639
   294G12  O00F 5343   2.664   1.728   8.529
   294G12  C02G 5344   2.680   1.637   8.427
   294G12  H017 5345   2.750   1.562   8.463
   294G12  H016 5346   2.715   1.672   8.330
   294G12  H015 5347   2.587   1.588   8.397
   294G12  C02E 5348   2.633   1.559   8.708
   294G12  H018 5349   2.710   1.506   8.655
   294G12  C01F 5350   2.945   1.045   8.992
   294G12  C01G 5351   2.856   0.931   8.985
   294G12  H00L 5352   2.809   0.910   8.890
   294G12  C01H 5353   2.840   0.833   9.093
   294G12  H00B 5354   2.786   0.742   9.070
   294G12  C01I 5355   2.911   0.862   9.211
   294G12  C01U 5356   3.005   1.055   9.117
   294G12  C00S 5357   3.523   1.100   9.321
   294G12  C00K 5358   3.352   0.990   9.412
   294G12  C00N 5359   3.132   1.113   9.129
   294G12  C000 5360   2.959   0.993   9.231
   294G12  C01J 5361   2.980   0.781   9.304
   294G12  C01K 5362   2.955   0.642   9.334
   294G12  C01P 5363   2.841   0.562   9.308
   294G12  C01Q 5364   2.704   0.606   9.284
   294G12  H00G 5365   2.633   0.548   9.228
   294G12  C01R 5366   2.673   0.724   9.342
   294G12  H00F 5367   2.742   0.782   9.402
   294G12  C01S 5368   2.537   0.789   9.353
   294G12  H00E 5369   2.493   0.815   9.450
   294G12  H00D 5370   2.534   0.884   9.299
   294G12  O005 5371   2.443   0.692   9.314
   294G12  H00C 5372   2.441   0.629   9.385
   294G12  C01O 5373   2.849   0.422   9.320
   294G12  H00H 5374   2.755   0.369   9.306
   294G12  C01N 5375   2.961   0.355   9.364
   294G12  O006 5376   2.969   0.215   9.383
   294G12  C01T 5377   2.864   0.176   9.480
   294G12  H00K 5378   2.890   0.076   9.516
   294G12  H00J 5379   2.761   0.165   9.446
   294G12  H00I 5380   2.869   0.235   9.572
   294G12  C01M 5381   3.074   0.436   9.394
   294G12  C020 5382   3.315   0.856   9.461
   294G12  C021 5383   3.402   0.775   9.542
   294G12  C01L 5384   3.067   0.581   9.388
   294G12  O007 5385   3.181   0.362   9.451
   294G12  C022 5386   3.393   0.641   9.550
   294G12  C023 5387   3.540   0.804   9.540
   294G12  C00G 5388   3.791   0.800   9.433
   294G12  C00E 5389   4.021   0.712   9.420
   294G12  O00A 5390   4.160   0.715   9.399
   294G12  C024 5391   4.199   0.627   9.286
   294G12  H00V 5392   4.306   0.610   9.283
   294G12  H00U 5393   4.187   0.681   9.192
   294G12  H00T 5394   4.129   0.544   9.290
   304G12  C00D 5395   1.092   0.431   3.559
   304G12  O00B 5396   1.001   0.435   3.453
   304G12  C025 5397   1.059   0.473   3.334
   304G12  C026 5398   1.064   0.624   3.310
   304G12  H00Y 5399   0.982   0.669   3.365
   304G12  H00X 5400   1.056   0.660   3.208
   304G12  O00C 5401   1.184   0.678   3.362
   304G12  H00W 5402   1.182   0.772   3.367
   304G12  C027 5403   1.114   0.377   3.253
   304G12  O00D 5404   1.077   0.244   3.265
   304G12  H00Z 5405   1.019   0.235   3.338
   304G12  C028 5406   1.204   0.418   3.147
   304G12  C029 5407   1.165   0.382   3.013
   304G12  H010 5408   1.074   0.325   3.001
   304G12  C02T 5409   1.237   0.429   2.901
   304G12  H01O 5410   1.197   0.428   2.801
   304G12  C02S 5411   1.358   0.499   2.921
   304G12  O00J 5412   1.419   0.567   2.824
   304G12  H01P 5413   1.499   0.600   2.861
   304G12  C02R 5414   1.403   0.529   3.053
   304G12  O00I 5415   1.502   0.622   3.064
   304G12  C02Q 5416   1.498   0.715   3.171
   304G12  H01N 5417   1.586   0.778   3.155
   304G12  H01R 5418   1.507   0.671   3.270
   304G12  H01Q 5419   1.410   0.779   3.170
   304G12  C02A 5420   1.330   0.481   3.168
   304G12  H011 5421   1.384   0.496   3.260
   304G12  C00C 5422   1.217   0.375   3.551
   304G12  H012 5423   1.250   0.330   3.459
   304G12  C00B 5424   1.310   0.381   3.657
   304G12  C00A 5425   1.442   0.335   3.652
   304G12  C009 5426   1.503   0.216   3.579
   304G12  C008 5427   1.467   0.126   3.470
   304G12  H013 5428   1.381   0.156   3.411
   304G12  C007 5429   1.536  -0.000   3.452
   304G12  H014 5430   1.495  -0.062   3.373
   304G12  C006 5431   1.633  -0.037   3.549
   304G12  C005 5432   1.663   0.052   3.650
   304G12  C004 5433   1.725   0.007   3.769
   304G12  C003 5434   1.743   0.096   3.880
   304G12  C002 5435   1.817   0.046   3.990
   304G12  C001 5436   1.862   0.103   4.113
   304G12  C00M 5437   1.774   0.181   4.200
   304G12  C00L 5438   1.705   0.286   4.149
   304G12  C00R 5439   1.594   0.353   4.212
   304G12  C00Q 5440   1.536   0.332   4.350
   304G12  C00V 5441   1.408   0.394   4.370
   304G12  C00U 5442   1.331   0.438   4.262
   304G12  C00T 5443   1.386   0.450   4.133
   304G12  C016 5444   1.315   0.485   4.019
   304G12  C015 5445   1.182   0.520   4.034
   304G12  C010 5446   1.127   0.530   4.160
   304G12  C011 5447   1.002   0.581   4.179
   304G12  H005 5448   0.952   0.607   4.271
   304G12  C012 5449   0.933   0.632   4.069
   304G12  C017 5450   0.823   0.728   4.082
   304G12  O002 5451   0.831   0.826   4.180
   304G12  H004 5452   0.769   0.892   4.155
   304G12  C018 5453   0.712   0.713   4.008
   304G12  O001 5454   0.694   0.609   3.920
   304G12  H003 5455   0.762   0.544   3.927
   304G12  C019 5456   0.600   0.821   4.006
   304G12  H002 5457   0.573   0.840   3.902
   304G12  H001 5458   0.508   0.776   4.046
   304G12  O000 5459   0.649   0.942   4.054
   304G12  C01A 5460   0.560   1.034   4.099
   304G12  C02K 5461   0.610   1.136   4.182
   304G12  O00G 5462   0.745   1.122   4.215
   304G12  C02M 5463   0.801   1.207   4.312
   304G12  H01G 5464   0.785   1.306   4.269
   304G12  H01F 5465   0.907   1.190   4.330
   304G12  H01E 5466   0.747   1.210   4.407
   304G12  C02J 5467   0.518   1.226   4.239
   304G12  H01H 5468   0.547   1.288   4.323
   304G12  C02I 5469   0.381   1.232   4.197
   304G12  C02N 5470   0.278   1.327   4.244
   304G12  H01M 5471   0.181   1.337   4.198
   304G12  C02O 5472   0.311   1.412   4.347
   304G12  H01L 5473   0.403   1.405   4.403
   304G12  C02P 5474   0.207   1.510   4.404
   304G12  H01K 5475   0.125   1.532   4.336
   304G12  H01J 5476   0.170   1.468   4.498
   304G12  O00H 5477   0.275   1.626   4.446
   304G12  H01I 5478   0.239   1.700   4.400
   304G12  C02H 5479   0.347   1.136   4.101
   304G12  H01C 5480   0.246   1.124   4.064
   304G12  C02L 5481   0.428   1.029   4.064
   304G12  H01D 5482   0.384   0.954   3.999
   304G12  C013 5483   0.978   0.600   3.939
   304G12  H000 5484   0.919   0.644   3.860
   304G12  C014 5485   1.100   0.529   3.924
   304G12  C00F 5486   1.147   0.481   3.800
   304G12  C00H 5487   1.364   0.453   3.892
   304G12  C00I 5488   1.498   0.416   3.879
   304G12  C00J 5489   1.578   0.401   3.995
   304G12  C00Z 5490   1.200   0.486   4.276
   304G12  C00Y 5491   1.145   0.493   4.403
   304G12  H006 5492   1.040   0.517   4.416
   304G12  C00X 5493   1.220   0.453   4.514
   304G12  O003 5494   1.159   0.451   4.636
   304G12  C01B 5495   1.018   0.486   4.645
   304G12  H009 5496   0.983   0.586   4.620
   304G12  H008 5497   0.995   0.469   4.750
   304G12  H007 5498   0.955   0.422   4.584
   304G12  C00W 5499   1.351   0.397   4.499
   304G12  O004 5500   1.408   0.339   4.613
   304G12  C01C 5501   1.532   0.280   4.596
   304G12  H00A 5502   1.598   0.267   4.680
   304G12  C00P 5503   1.586   0.254   4.463
   304G12  C00O 5504   1.669   0.137   4.440
   304G12  C01D 5505   1.663   0.031   4.532
   304G12  H00S 5506   1.595   0.044   4.615
   304G12  C01E 5507   1.712  -0.098   4.505
   304G12  O008 5508   1.688  -0.209   4.582
   304G12  C01V 5509   1.599  -0.206   4.687
   304G12  C01Z 5510   1.657  -0.221   4.828
   304G12  H00R 5511   1.601  -0.170   4.907
   304G12  H00Q 5512   1.665  -0.325   4.859
   304G12  O009 5513   1.790  -0.167   4.824
   304G12  H00P 5514   1.820  -0.186   4.736
   304G12  C01W 5515   1.470  -0.201   4.659
   304G12  H00O 5516   1.432  -0.195   4.558
   304G12  C01X 5517   1.356  -0.218   4.765
   304G12  H00N 5518   1.308  -0.307   4.725
   304G12  H00M 5519   1.392  -0.250   4.863
   304G12  C01Y 5520   1.257  -0.108   4.780
   304G12  C02D 5521   1.286   0.031   4.771
   304G12  H019 5522   1.390   0.057   4.754
   304G12  C02C 5523   1.185   0.124   4.782
   304G12  H01A 5524   1.210   0.225   4.753
   304G12  C02B 5525   1.056   0.086   4.806
   304G12  O00E 5526   0.953   0.174   4.807
   304G12  H01B 5527   0.874   0.121   4.811
   304G12  C02F 5528   1.021  -0.051   4.823
   304G12  O00F 5529   0.888  -0.073   4.856
   304G12  C02G 5530   0.850  -0.206   4.867
   304G12  H017 5531   0.741  -0.205   4.866
   304G12  H016 5532   0.883  -0.244   4.963
   304G12  H015 5533   0.877  -0.268   4.781
   304G12  C02E 5534   1.123  -0.147   4.797
   304G12  H018 5535   1.099  -0.252   4.790
   304G12  C01F 5536   1.785  -0.122   4.391
   304G12  C01G 5537   1.811  -0.248   4.331
   304G12  H00L 5538   1.777  -0.343   4.369
   304G12  C01H 5539   1.853  -0.256   4.196
   304G12  H00B 5540   1.824  -0.349   4.149
   304G12  C01I 5541   1.884  -0.134   4.125
   304G12  C01U 5542   1.829  -0.004   4.317
   304G12  C00S 5543   1.518   0.427   4.121
   304G12  C00K 5544   1.682   0.307   4.010
   304G12  C00N 5545   1.751   0.117   4.328
   304G12  C000 5546   1.895  -0.013   4.191
   304G12  C01J 5547   1.846  -0.094   3.989
   304G12  C01K 5548   1.833  -0.187   3.879
   304G12  C01P 5549   1.885  -0.315   3.861
   304G12  C01Q 5550   1.978  -0.375   3.956
   304G12  H00G 5551   1.973  -0.480   3.981
   304G12  C01R 5552   2.090  -0.306   3.990
   304G12  H00F 5553   2.101  -0.212   3.938
   304G12  C01S 5554   2.208  -0.363   4.068
   304G12  H00E 5555   2.255  -0.296   4.140
   304G12  H00D 5556   2.174  -0.455   4.115
   304G12  O005 5557   2.319  -0.391   3.982
   304G12  H00C 5558   2.403  -0.372   4.019
   304G12  C01O 5559   1.869  -0.387   3.749
   304G12  H00H 5560   1.927  -0.479   3.744
   304G12  C01N 5561   1.795  -0.338   3.641
   304G12  O006 5562   1.776  -0.413   3.522
   304G12  C01T 5563   1.887  -0.394   3.432
   304G12  H00K 5564   1.860  -0.400   3.326
   304G12  H00J 5565   1.967  -0.466   3.450
   304G12  H00I 5566   1.919  -0.291   3.447
   304G12  C01M 5567   1.743  -0.206   3.650
   304G12  C020 5568   1.699   0.234   3.882
   304G12  C021 5569   1.633   0.269   3.760
   304G12  C01L 5570   1.768  -0.125   3.773
   304G12  O007 5571   1.693  -0.160   3.534
   304G12  C022 5572   1.617   0.185   3.656
   304G12  C023 5573   1.535   0.368   3.755
   304G12  C00G 5574   1.277   0.442   3.783
   304G12  C00E 5575   1.059   0.471   3.687
   304G12  O00A 5576   0.924   0.493   3.694
   304G12  C024 5577   0.848   0.377   3.732
   304G12  H00V 5578   0.889   0.336   3.824
   304G12  H00U 5579   0.866   0.308   3.650
   304G12  H00T 5580   0.741   0.398   3.733
   314G12  C00D 5581   5.262   2.883   6.896
   314G12  O00B 5582   5.345   2.912   6.998
   314G12  C025 5583   5.295   2.972   7.110
   314G12  C026 5584   5.335   3.119   7.127
   314G12  H00Y 5585   5.376   3.126   7.228
   314G12  H00X 5586   5.250   3.186   7.111
   314G12  O00C 5587   5.448   3.144   7.050
   314G12  H00W 5588   5.496   3.063   7.040
   314G12  C027 5589   5.241   2.900   7.209
   314G12  O00D 5590   5.218   2.767   7.176
   314G12  H00Z 5591   5.252   2.759   7.088
   314G12  C028 5592   5.188   2.940   7.335
   314G12  C029 5593   5.195   2.846   7.444
   314G12  H010 5594   5.232   2.745   7.433
   314G12  C02T 5595   5.152   2.888   7.570
   314G12  H01O 5596   5.169   2.827   7.657
   314G12  C02S 5597   5.099   3.013   7.590
   314G12  O00J 5598   5.069   3.046   7.717
   314G12  H01P 5599   5.065   3.140   7.723
   314G12  C02R 5600   5.085   3.108   7.484
   314G12  O00I 5601   5.037   3.237   7.518
   314G12  C02Q 5602   5.032   3.323   7.410
   314G12  H01N 5603   5.121   3.321   7.347
   314G12  H01R 5604   5.025   3.422   7.455
   314G12  H01Q 5605   4.952   3.298   7.341
   314G12  C02A 5606   5.126   3.065   7.356
   314G12  H011 5607   5.119   3.138   7.276
   314G12  C00C 5608   5.209   2.992   6.824
   314G12  H012 5609   5.217   3.089   6.871
   314G12  C00B 5610   5.132   2.973   6.709
   314G12  C00A 5611   5.074   3.071   6.626
   314G12  C009 5612   5.033   3.209   6.657
   314G12  C008 5613   5.055   3.294   6.766
   314G12  H013 5614   5.134   3.273   6.836
   314G12  C007 5615   4.958   3.397   6.789
   314G12  H014 5616   4.980   3.464   6.871
   314G12  C006 5617   4.852   3.422   6.701
   314G12  C005 5618   4.838   3.334   6.591
   314G12  C004 5619   4.727   3.334   6.507
   314G12  C003 5620   4.706   3.224   6.417
   314G12  C002 5621   4.579   3.227   6.347
   314G12  C001 5622   4.521   3.133   6.263
   314G12  C00M 5623   4.513   2.985   6.285
   314G12  C00L 5624   4.631   2.915   6.322
   314G12  C00R 5625   4.639   2.784   6.382
   314G12  C00Q 5626   4.535   2.688   6.414
   314G12  C00V 5627   4.587   2.575   6.483
   314G12  C00U 5628   4.717   2.569   6.534
   314G12  C00T 5629   4.810   2.669   6.518
   314G12  C016 5630   4.926   2.687   6.584
   314G12  C015 5631   4.970   2.583   6.664
   314G12  C010 5632   4.891   2.470   6.678
   314G12  C011 5633   4.937   2.356   6.754
   314G12  H005 5634   4.877   2.269   6.772
   314G12  C012 5635   5.060   2.362   6.812
   314G12  C017 5636   5.115   2.250   6.882
   314G12  O002 5637   5.029   2.178   6.962
   314G12  H004 5638   4.967   2.233   7.007
   314G12  C018 5639   5.250   2.227   6.872
   314G12  O001 5640   5.338   2.292   6.790
   314G12  H003 5641   5.427   2.263   6.802
   314G12  C019 5642   5.309   2.117   6.948
   314G12  H002 5643   5.248   2.080   7.031
   314G12  H001 5644   5.310   2.033   6.879
   314G12  O000 5645   5.443   2.165   6.990
   314G12  C01A 5646   5.542   2.070   6.981
   314G12  C02K 5647   5.639   2.095   6.884
   314G12  O00G 5648   5.622   2.208   6.806
   314G12  C02M 5649   5.739   2.248   6.734
   314G12  H01G 5650   5.748   2.171   6.658
   314G12  H01F 5651   5.826   2.263   6.798
   314G12  H01E 5652   5.708   2.330   6.670
   314G12  C02J 5653   5.746   2.003   6.871
   314G12  H01H 5654   5.825   2.030   6.803
   314G12  C02I 5655   5.759   1.888   6.952
   314G12  C02N 5656   5.860   1.791   6.943
   314G12  H01M 5657   5.897   1.740   7.031
   314G12  C02O 5658   5.906   1.749   6.824
   314G12  H01L 5659   5.859   1.801   6.741
   314G12  C02P 5660   6.006   1.632   6.799
   314G12  H01K 5661   5.960   1.553   6.739
   314G12  H01J 5662   6.090   1.675   6.745
   314G12  O00H 5663   6.054   1.586   6.923
   314G12  H01I 5664   6.116   1.649   6.957
   314G12  C02H 5665   5.658   1.864   7.047
   314G12  H01C 5666   5.668   1.776   7.110
   314G12  C02L 5667   5.549   1.951   7.061
   314G12  H01D 5668   5.475   1.928   7.136
   314G12  C013 5669   5.121   2.487   6.814
   314G12  H000 5670   5.212   2.488   6.872
   314G12  C014 5671   5.081   2.600   6.742
   314G12  C00F 5672   5.144   2.730   6.751
   314G12  C00H 5673   4.992   2.813   6.585
   314G12  C00I 5674   4.947   2.910   6.496
   314G12  C00J 5675   4.840   2.880   6.406
   314G12  C00Z 5676   4.761   2.469   6.623
   314G12  C00Y 5677   4.666   2.363   6.653
   314G12  H006 5678   4.680   2.285   6.726
   314G12  C00X 5679   4.538   2.360   6.595
   314G12  O003 5680   4.433   2.285   6.645
   314G12  C01B 5681   4.451   2.193   6.752
   314G12  H009 5682   4.521   2.114   6.727
   314G12  H008 5683   4.356   2.141   6.763
   314G12  H007 5684   4.481   2.244   6.844
   314G12  C00W 5685   4.501   2.466   6.508
   314G12  O004 5686   4.364   2.466   6.487
   314G12  C01C 5687   4.314   2.580   6.421
   314G12  H00A 5688   4.228   2.572   6.355
   314G12  C00P 5689   4.392   2.697   6.401
   314G12  C00O 5690   4.327   2.820   6.363
   314G12  C01D 5691   4.186   2.828   6.393
   314G12  H00S 5692   4.132   2.739   6.419
   314G12  C01E 5693   4.110   2.948   6.397
   314G12  O008 5694   3.982   2.963   6.455
   314G12  C01V 5695   3.934   2.858   6.522
   314G12  C01Z 5696   3.813   2.779   6.463
   314G12  H00R 5697   3.758   2.735   6.546
   314G12  H00Q 5698   3.748   2.826   6.389
   314G12  O009 5699   3.867   2.674   6.384
   314G12  H00P 5700   3.884   2.706   6.297
   314G12  C01W 5701   3.999   2.816   6.637
   314G12  H00O 5702   4.087   2.867   6.673
   314G12  C01X 5703   3.966   2.686   6.720
   314G12  H00N 5704   3.923   2.610   6.655
   314G12  H00M 5705   4.064   2.657   6.758
   314G12  C01Y 5706   3.866   2.706   6.833
   314G12  C02D 5707   3.894   2.638   6.950
   314G12  H019 5708   3.982   2.576   6.947
   314G12  C02C 5709   3.808   2.651   7.066
   314G12  H01A 5710   3.826   2.601   7.160
   314G12  C02B 5711   3.696   2.733   7.061
   314G12  O00E 5712   3.611   2.757   7.166
   314G12  H01B 5713   3.540   2.804   7.126
   314G12  C02F 5714   3.664   2.801   6.940
   314G12  O00F 5715   3.542   2.863   6.933
   314G12  C02G 5716   3.504   2.918   6.809
   314G12  H017 5717   3.404   2.959   6.798
   314G12  H016 5718   3.521   2.844   6.731
   314G12  H015 5719   3.566   3.006   6.793
   314G12  C02E 5720   3.751   2.784   6.825
   314G12  H018 5721   3.724   2.847   6.742
   314G12  C01F 5722   4.178   3.069   6.363
   314G12  C01G 5723   4.132   3.205   6.393
   314G12  H00L 5724   4.031   3.215   6.430
   314G12  C01H 5725   4.221   3.315   6.373
   314G12  H00B 5726   4.189   3.416   6.395
   314G12  C01I 5727   4.353   3.291   6.323
   314G12  C01U 5728   4.306   3.066   6.297
   314G12  C00S 5729   4.772   2.763   6.413
   314G12  C00K 5730   4.748   2.980   6.364
   314G12  C00N 5731   4.378   2.946   6.315
   314G12  C000 5732   4.383   3.174   6.257
   314G12  C01J 5733   4.491   3.338   6.367
   314G12  C01K 5734   4.506   3.456   6.451
   314G12  C01P 5735   4.442   3.579   6.453
   314G12  C01Q 5736   4.344   3.613   6.350
   314G12  H00G 5737   4.358   3.592   6.245
   314G12  C01R 5738   4.230   3.675   6.388
   314G12  H00F 5739   4.206   3.690   6.492
   314G12  C01S 5740   4.120   3.720   6.299
   314G12  H00E 5741   4.137   3.684   6.198
   314G12  H00D 5742   4.026   3.671   6.325
   314G12  O005 5743   4.104   3.858   6.304
   314G12  H00C 5744   4.027   3.879   6.354
   314G12  C01O 5745   4.473   3.668   6.553
   314G12  H00H 5746   4.431   3.767   6.558
   314G12  C01N 5747   4.576   3.642   6.647
   314G12  O006 5748   4.613   3.724   6.755
   314G12  C01T 5749   4.565   3.858   6.761
   314G12  H00K 5750   4.457   3.855   6.744
   314G12  H00J 5751   4.608   3.920   6.683
   314G12  H00I 5752   4.593   3.905   6.855
   314G12  C01M 5753   4.649   3.522   6.632
   314G12  C020 5754   4.795   3.112   6.404
   314G12  C021 5755   4.921   3.141   6.461
   314G12  C01L 5756   4.628   3.439   6.526
   314G12  O007 5757   4.752   3.510   6.718
   314G12  C022 5758   4.931   3.233   6.563
   314G12  C023 5759   4.999   3.038   6.511
   314G12  C00G 5760   5.089   2.840   6.679
   314G12  C00E 5761   5.236   2.751   6.859
   314G12  O00A 5762   5.308   2.666   6.925
   314G12  C024 5763   5.436   2.645   6.860
   314G12  H00V 5764   5.492   2.729   6.820
   314G12  H00U 5765   5.423   2.565   6.787
   314G12  H00T 5766   5.495   2.595   6.935
   324G12  C00D 5767   4.426   3.220   9.547
   324G12  O00B 5768   4.460   3.243   9.679
   324G12  C025 5769   4.390   3.185   9.782
   324G12  C026 5770   4.290   3.285   9.844
   324G12  H00Y 5771   4.283   3.379   9.790
   324G12  H00X 5772   4.334   3.312   9.939
   324G12  O00C 5773   4.161   3.230   9.858
   324G12  H00W 5774   4.098   3.255   9.792
   324G12  C027 5775   4.410   3.058   9.817
   324G12  O00D 5776   4.501   2.983   9.748
   324G12  H00Z 5777   4.539   3.040   9.682
   324G12  C028 5778   4.363   2.998   9.941
   324G12  C029 5779   4.380   3.045  10.074
   324G12  H010 5780   4.425   3.143  10.083
   324G12  C02T 5781   4.352   2.968  10.185
   324G12  H01O 5782   4.375   3.000  10.286
   324G12  C02S 5783   4.300   2.839  10.163
   324G12  O00J 5784   4.273   2.771  10.278
   324G12  H01P 5785   4.213   2.704  10.250
   324G12  C02R 5786   4.275   2.786  10.033
   324G12  O00I 5787   4.205   2.670  10.032
   324G12  C02Q 5788   4.176   2.621   9.898
   324G12  H01N 5789   4.123   2.691   9.834
   324G12  H01R 5790   4.103   2.543   9.918
   324G12  H01Q 5791   4.256   2.584   9.833
   324G12  C02A 5792   4.303   2.870   9.922
   324G12  H011 5793   4.275   2.838   9.822
   324G12  C00C 5794   4.318   3.137   9.508
   324G12  H012 5795   4.256   3.094   9.586
   324G12  C00B 5796   4.276   3.124   9.372
   324G12  C00A 5797   4.153   3.064   9.324
   324G12  C009 5798   4.090   2.945   9.384
   324G12  C008 5799   4.128   2.864   9.495
   324G12  H013 5800   4.182   2.900   9.581
   324G12  C007 5801   4.088   2.725   9.491
   324G12  H014 5802   4.101   2.668   9.582
   324G12  C006 5803   4.031   2.669   9.375
   324G12  C005 5804   4.004   2.756   9.270
   324G12  C004 5805   3.967   2.708   9.144
   324G12  C003 5806   3.972   2.795   9.029
   324G12  C002 5807   3.952   2.729   8.900
   324G12  C001 5808   3.966   2.774   8.760
   324G12  C00M 5809   4.078   2.846   8.703
   324G12  C00L 5810   4.137   2.952   8.780
   324G12  C00R 5811   4.271   2.992   8.762
   324G12  C00Q 5812   4.379   2.959   8.668
   324G12  C00V 5813   4.502   3.023   8.703
   324G12  C00U 5814   4.523   3.102   8.822
   324G12  C00T 5815   4.423   3.120   8.915
   324G12  C016 5816   4.442   3.162   9.045
   324G12  C015 5817   4.564   3.214   9.075
   324G12  C010 5818   4.666   3.221   8.978
   324G12  C011 5819   4.784   3.296   9.005
   324G12  H005 5820   4.854   3.319   8.926
   324G12  C012 5821   4.796   3.369   9.121
   324G12  C017 5822   4.901   3.473   9.145
   324G12  O002 5823   4.851   3.590   9.203
   324G12  H004 5824   4.925   3.646   9.217
   324G12  C018 5825   5.036   3.463   9.111
   324G12  O001 5826   5.089   3.343   9.072
   324G12  H003 5827   5.016   3.283   9.078
   324G12  C019 5828   5.135   3.581   9.116
   324G12  H002 5829   5.210   3.543   9.186
   324G12  H001 5830   5.176   3.594   9.016
   324G12  O000 5831   5.083   3.706   9.163
   324G12  C01A 5832   5.170   3.819   9.167
   324G12  C02K 5833   5.125   3.931   9.241
   324G12  O00G 5834   4.995   3.916   9.296
   324G12  C02M 5835   4.963   4.012   9.388
   324G12  H01G 5836   5.029   4.024   9.474
   324G12  H01F 5837   4.859   3.997   9.420
   324G12  H01E 5838   4.958   4.111   9.342
   324G12  C02J 5839   5.212   4.044   9.259
   324G12  H01H 5840   5.179   4.124   9.324
   324G12  C02I 5841   5.341   4.049   9.195
   324G12  C02N 5842   5.428   4.156   9.210
   324G12  H01M 5843   5.447   4.218   9.124
   324G12  C02O 5844   5.467   4.168   9.335
   324G12  H01L 5845   5.447   4.096   9.413
   324G12  C02P 5846   5.549   4.287   9.380
   324G12  H01K 5847   5.585   4.339   9.291
   324G12  H01J 5848   5.490   4.353   9.444
   324G12  O00H 5849   5.669   4.238   9.451
   324G12  H01I 5850   5.726   4.198   9.388
   324G12  C02H 5851   5.381   3.939   9.115
   324G12  H01C 5852   5.475   3.945   9.063
   324G12  C02L 5853   5.293   3.826   9.097
   324G12  H01D 5854   5.313   3.748   9.025
   324G12  C013 5855   4.692   3.358   9.216
   324G12  H000 5856   4.701   3.417   9.306
   324G12  C014 5857   4.578   3.270   9.200
   324G12  C00F 5858   4.486   3.237   9.308
   324G12  C00H 5859   4.337   3.150   9.137
   324G12  C00I 5860   4.209   3.107   9.097
   324G12  C00J 5861   4.193   3.077   8.966
   324G12  C00Z 5862   4.645   3.163   8.848
   324G12  C00Y 5863   4.758   3.135   8.763
   324G12  H006 5864   4.857   3.160   8.800
   324G12  C00X 5865   4.745   3.054   8.651
   324G12  O003 5866   4.839   3.008   8.569
   324G12  C01B 5867   4.965   3.004   8.629
   324G12  H009 5868   4.974   2.933   8.711
   324G12  H008 5869   5.010   3.101   8.650
   324G12  H007 5870   5.028   2.953   8.556
   324G12  C00W 5871   4.618   3.010   8.620
   324G12  O004 5872   4.607   2.937   8.502
   324G12  C01C 5873   4.495   2.877   8.467
   324G12  H00A 5874   4.491   2.860   8.360
   324G12  C00P 5875   4.376   2.872   8.557
   324G12  C00O 5876   4.272   2.774   8.540
   324G12  C01D 5877   4.307   2.659   8.465
   324G12  H00S 5878   4.403   2.654   8.416
   324G12  C01E 5879   4.246   2.530   8.474
   324G12  O008 5880   4.316   2.421   8.423
   324G12  C01V 5881   4.427   2.380   8.502
   324G12  C01Z 5882   4.397   2.257   8.591
   324G12  H00R 5883   4.315   2.202   8.546
   324G12  H00Q 5884   4.481   2.188   8.608
   324G12  O009 5885   4.353   2.298   8.714
   324G12  H00P 5886   4.281   2.355   8.692
   324G12  C01W 5887   4.545   2.440   8.489
   324G12  H00O 5888   4.552   2.520   8.418
   324G12  C01X 5889   4.673   2.415   8.575
   324G12  H00N 5890   4.666   2.329   8.642
   324G12  H00M 5891   4.766   2.407   8.519
   324G12  C01Y 5892   4.684   2.532   8.682
   324G12  C02D 5893   4.805   2.594   8.712
   324G12  H019 5894   4.898   2.564   8.665
   324G12  C02C 5895   4.818   2.698   8.797
   324G12  H01A 5896   4.910   2.751   8.813
   324G12  C02B 5897   4.709   2.725   8.881
   324G12  O00E 5898   4.723   2.824   8.971
   324G12  H01B 5899   4.633   2.836   8.997
   324G12  C02F 5900   4.586   2.667   8.861
   324G12  O00F 5901   4.487   2.705   8.947
   324G12  C02G 5902   4.351   2.668   8.917
   324G12  H017 5903   4.279   2.702   8.991
   324G12  H016 5904   4.331   2.560   8.914
   324G12  H015 5905   4.314   2.705   8.821
   324G12  C02E 5906   4.573   2.571   8.758
   324G12  H018 5907   4.479   2.519   8.745
   324G12  C01F 5908   4.127   2.522   8.552
   324G12  C01G 5909   4.070   2.402   8.600
   324G12  H00L 5910   4.111   2.308   8.564
   324G12  C01H 5911   3.979   2.407   8.706
   324G12  H00B 5912   3.954   2.316   8.757
   324G12  C01I 5913   3.940   2.540   8.761
   324G12  C01U 5914   4.066   2.645   8.594
   324G12  C00S 5915   4.297   3.079   8.875
   324G12  C00K 5916   4.099   2.985   8.917
   324G12  C00N 5917   4.143   2.764   8.602
   324G12  C000 5918   3.957   2.654   8.682
   324G12  C01J 5919   3.915   2.591   8.900
   324G12  C01K 5920   3.890   2.512   9.016
   324G12  C01P 5921   3.831   2.380   9.019
   324G12  C01Q 5922   3.743   2.321   8.918
   324G12  H00G 5923   3.760   2.223   8.876
   324G12  C01R 5924   3.652   2.404   8.863
   324G12  H00F 5925   3.640   2.507   8.892
   324G12  C01S 5926   3.557   2.368   8.759
   324G12  H00E 5927   3.531   2.262   8.766
   324G12  H00D 5928   3.472   2.435   8.770
   324G12  O005 5929   3.623   2.393   8.641
   324G12  H00C 5930   3.679   2.467   8.654
   324G12  C01O 5931   3.858   2.304   9.132
   324G12  H00H 5932   3.824   2.201   9.127
   324G12  C01N 5933   3.920   2.355   9.246
   324G12  O006 5934   3.954   2.279   9.353
   324G12  C01T 5935   3.904   2.147   9.369
   324G12  H00K 5936   3.796   2.136   9.364
   324G12  H00J 5937   3.949   2.119   9.464
   324G12  H00I 5938   3.946   2.076   9.297
   324G12  C01M 5939   3.954   2.491   9.251
   324G12  C020 5940   4.023   2.929   9.028
   324G12  C021 5941   4.018   2.980   9.162
   324G12  C01L 5942   3.938   2.574   9.132
   324G12  O007 5943   3.998   2.537   9.373
   324G12  C022 5944   4.013   2.901   9.274
   324G12  C023 5945   4.109   3.083   9.194
   324G12  C00G 5946   4.366   3.171   9.275
   324G12  C00E 5947   4.521   3.254   9.451
   324G12  O00A 5948   4.638   3.313   9.494
   324G12  C024 5949   4.735   3.236   9.556
   324G12  H00V 5950   4.701   3.178   9.642
   324G12  H00U 5951   4.820   3.300   9.583
   324G12  H00T 5952   4.780   3.170   9.482
   334G12  C00D 5953   6.627   5.183   9.836
   334G12  O00B 5954   6.547   5.281   9.889
   334G12  C025 5955   6.597   5.406   9.891
   334G12  C026 5956   6.611   5.469  10.033
   334G12  H00Y 5957   6.518   5.490  10.086
   334G12  H00X 5958   6.665   5.564  10.039
   334G12  O00C 5959   6.685   5.382  10.121
   334G12  H00W 5960   6.688   5.297  10.079
   334G12  C027 5961   6.619   5.476   9.776
   334G12  O00D 5962   6.605   5.427   9.651
   334G12  H00Z 5963   6.604   5.498   9.589
   334G12  C028 5964   6.655   5.618   9.779
   334G12  C029 5965   6.576   5.712   9.842
   334G12  H010 5966   6.481   5.686   9.887
   334G12  C02T 5967   6.607   5.852   9.842
   334G12  H01O 5968   6.539   5.925   9.882
   334G12  C02S 5969   6.723   5.895   9.789
   334G12  O00J 5970   6.747   6.029   9.771
   334G12  H01P 5971   6.819   6.045   9.711
   334G12  C02R 5972   6.809   5.805   9.723
   334G12  O00I 5973   6.918   5.854   9.652
   334G12  C02Q 5974   7.024   5.774   9.608
   334G12  H01N 5975   7.003   5.696   9.535
   334G12  H01R 5976   7.069   5.709   9.683
   334G12  H01Q 5977   7.107   5.838   9.576
   334G12  C02A 5978   6.773   5.670   9.716
   334G12  H011 5979   6.843   5.607   9.663
   334G12  C00C 5980   6.587   5.138   9.715
   334G12  H012 5981   6.505   5.187   9.664
   334G12  C00B 5982   6.660   5.041   9.650
   334G12  C00A 5983   6.635   4.981   9.523
   334G12  C009 5984   6.499   4.946   9.478
   334G12  C008 5985   6.363   4.977   9.504
   334G12  H013 5986   6.342   5.042   9.587
   334G12  C007 5987   6.261   4.896   9.448
   334G12  H014 5988   6.160   4.919   9.480
   334G12  C006 5989   6.293   4.780   9.375
   334G12  C005 5990   6.427   4.749   9.358
   334G12  C004 5991   6.471   4.631   9.296
   334G12  C003 5992   6.610   4.597   9.293
   334G12  C002 5993   6.638   4.462   9.250
   334G12  C001 5994   6.753   4.379   9.253
   334G12  C00M 5995   6.843   4.374   9.366
   334G12  C00L 5996   6.897   4.491   9.422
   334G12  C00R 5997   6.969   4.502   9.550
   334G12  C00Q 5998   7.005   4.407   9.648
   334G12  C00V 5999   7.056   4.465   9.767
   334G12  C00U 6000   7.050   4.596   9.796
   334G12  C00T 6001   6.992   4.688   9.713
   334G12  C016 6002   6.948   4.816   9.740
   334G12  C015 6003   6.976   4.855   9.868
   334G12  C010 6004   7.071   4.784   9.945
   334G12  C011 6005   7.126   4.849  10.062
   334G12  H005 6006   7.207   4.812  10.122
   334G12  C012 6007   7.082   4.974  10.103
   334G12  C017 6008   7.144   5.023  10.229
   334G12  O002 6009   7.191   4.933  10.321
   334G12  H004 6010   7.220   4.979  10.398
   334G12  C018 6011   7.156   5.159  10.249
   334G12  O001 6012   7.139   5.253  10.147
   334G12  H003 6013   7.166   5.205  10.070
   334G12  C019 6014   7.200   5.221  10.378
   334G12  H002 6015   7.281   5.294  10.378
   334G12  H001 6016   7.114   5.283  10.402
   334G12  O000 6017   7.222   5.126  10.491
   334G12  C01A 6018   7.294   5.177  10.600
   334G12  C02K 6019   7.375   5.090  10.673
   334G12  O00G 6020   7.389   4.961  10.629
   334G12  C02M 6021   7.486   4.878  10.691
   334G12  H01G 6022   7.501   4.794  10.623
   334G12  H01F 6023   7.449   4.854  10.791
   334G12  H01E 6024   7.581   4.933  10.693
   334G12  C02J 6025   7.456   5.132  10.782
   334G12  H01H 6026   7.513   5.064  10.843
   334G12  C02I 6027   7.458   5.269  10.824
   334G12  C02N 6028   7.546   5.304  10.933
   334G12  H01M 6029   7.561   5.240  11.019
   334G12  C02O 6030   7.605   5.425  10.928
   334G12  H01L 6031   7.596   5.504  10.855
   334G12  C02P 6032   7.717   5.471  11.017
   334G12  H01K 6033   7.726   5.400  11.099
   334G12  H01J 6034   7.810   5.458  10.961
   334G12  O00H 6035   7.694   5.604  11.063
   334G12  H01I 6036   7.619   5.613  11.119
   334G12  C02H 6037   7.374   5.358  10.747
   334G12  H01C 6038   7.362   5.462  10.772
   334G12  C02L 6039   7.286   5.306  10.646
   334G12  H01D 6040   7.223   5.384  10.605
   334G12  C013 6041   6.968   5.021  10.037
   334G12  H000 6042   6.944   5.118  10.078
   334G12  C014 6043   6.914   4.969   9.918
   334G12  C00F 6044   6.808   5.032   9.848
   334G12  C00H 6045   6.856   4.885   9.662
   334G12  C00I 6046   6.830   4.839   9.530
   334G12  C00J 6047   6.889   4.711   9.500
   334G12  C00Z 6048   7.100   4.649   9.914
   334G12  C00Y 6049   7.159   4.565  10.007
   334G12  H006 6050   7.205   4.606  10.096
   334G12  C00X 6051   7.178   4.424   9.977
   334G12  O003 6052   7.253   4.339  10.053
   334G12  C01B 6053   7.308   4.403  10.168
   334G12  H009 6054   7.384   4.335  10.205
   334G12  H008 6055   7.227   4.419  10.239
   334G12  H007 6056   7.364   4.492  10.142
   334G12  C00W 6057   7.112   4.374   9.864
   334G12  O004 6058   7.130   4.238   9.839
   334G12  C01C 6059   7.056   4.184   9.741
   334G12  H00A 6060   7.083   4.081   9.721
   334G12  C00P 6061   6.986   4.264   9.642
   334G12  C00O 6062   6.893   4.195   9.554
   334G12  C01D 6063   6.847   4.062   9.577
   334G12  H00S 6064   6.888   4.014   9.665
   334G12  C01E 6065   6.738   3.994   9.509
   334G12  O008 6066   6.677   3.888   9.563
   334G12  C01V 6067   6.648   3.886   9.702
   334G12  C01Z 6068   6.559   3.986   9.757
   334G12  H00R 6069   6.532   3.972   9.862
   334G12  H00Q 6070   6.600   4.086   9.739
   334G12  O009 6071   6.434   3.964   9.688
   334G12  H00P 6072   6.452   3.981   9.597
   334G12  C01W 6073   6.721   3.803   9.775
   334G12  H00O 6074   6.793   3.747   9.717
   334G12  C01X 6075   6.725   3.781   9.924
   334G12  H00N 6076   6.641   3.828   9.975
   334G12  H00M 6077   6.736   3.674   9.942
   334G12  C01Y 6078   6.857   3.841   9.976
   334G12  C02D 6079   6.980   3.789   9.930
   334G12  H019 6080   6.993   3.690   9.887
   334G12  C02C 6081   7.099   3.858   9.965
   334G12  H01A 6082   7.200   3.827   9.940
   334G12  C02B 6083   7.096   3.979  10.039
   334G12  O00E 6084   7.217   4.038  10.071
   334G12  H01B 6085   7.194   4.122  10.107
   334G12  C02F 6086   6.976   4.027  10.083
   334G12  O00F 6087   6.980   4.136  10.168
   334G12  C02G 6088   6.873   4.227  10.161
   334G12  H017 6089   6.788   4.195  10.221
   334G12  H016 6090   6.840   4.237  10.057
   334G12  H015 6091   6.912   4.318  10.205
   334G12  C02E 6092   6.858   3.956  10.056
   334G12  H018 6093   6.764   3.999  10.088
   334G12  C01F 6094   6.679   4.061   9.400
   334G12  C01G 6095   6.551   4.032   9.337
   334G12  H00L 6096   6.490   3.948   9.366
   334G12  C01H 6097   6.491   4.129   9.241
   334G12  H00B 6098   6.384   4.129   9.228
   334G12  C01I 6099   6.567   4.245   9.205
   334G12  C01U 6100   6.746   4.173   9.350
   334G12  C00S 6101   6.969   4.640   9.582
   334G12  C00K 6102   6.830   4.618   9.407
   334G12  C00N 6103   6.836   4.241   9.431
   334G12  C000 6104   6.704   4.244   9.239
   334G12  C01J 6105   6.530   4.384   9.189
   334G12  C01K 6106   6.393   4.432   9.174
   334G12  C01P 6107   6.283   4.364   9.103
   334G12  C01Q 6108   6.314   4.264   9.003
   334G12  H00G 6109   6.398   4.198   9.020
   334G12  C01R 6110   6.241   4.248   8.894
   334G12  H00F 6111   6.160   4.316   8.870
   334G12  C01S 6112   6.259   4.145   8.789
   334G12  H00E 6113   6.332   4.072   8.824
   334G12  H00D 6114   6.168   4.089   8.769
   334G12  O005 6115   6.296   4.202   8.668
   334G12  H00C 6116   6.368   4.146   8.646
   334G12  C01O 6117   6.152   4.407   9.123
   334G12  H00H 6118   6.067   4.371   9.067
   334G12  C01N 6119   6.128   4.518   9.208
   334G12  O006 6120   5.996   4.560   9.225
   334G12  C01T 6121   5.941   4.545   9.352
   334G12  H00K 6122   5.976   4.620   9.423
   334G12  H00J 6123   5.966   4.451   9.401
   334G12  H00I 6124   5.832   4.553   9.350
   334G12  C01M 6125   6.235   4.584   9.255
   334G12  C020 6126   6.711   4.676   9.349
   334G12  C021 6127   6.666   4.811   9.369
   334G12  C01L 6128   6.372   4.552   9.241
   334G12  O007 6129   6.201   4.692   9.332
   334G12  C022 6130   6.531   4.841   9.393
   334G12  C023 6131   6.731   4.903   9.456
   334G12  C00G 6132   6.777   4.987   9.717
   334G12  C00E 6133   6.721   5.121   9.913
   334G12  O00A 6134   6.729   5.146  10.047
   334G12  C024 6135   6.660   5.055  10.135
   334G12  H00V 6136   6.566   5.044  10.081
   334G12  H00U 6137   6.657   5.110  10.229
   334G12  H00T 6138   6.714   4.964  10.158
   344G12  C00D 6139   4.762   2.021   8.641
   344G12  O00B 6140   4.707   1.925   8.718
   344G12  C025 6141   4.583   1.958   8.780
   344G12  C026 6142   4.601   2.059   8.893
   344G12  H00Y 6143   4.701   2.038   8.933
   344G12  H00X 6144   4.534   2.038   8.977
   344G12  O00C 6145   4.586   2.193   8.851
   344G12  H00W 6146   4.501   2.218   8.818
   344G12  C027 6147   4.477   1.878   8.761
   344G12  O00D 6148   4.479   1.784   8.659
   344G12  H00Z 6149   4.543   1.822   8.601
   344G12  C028 6150   4.351   1.887   8.835
   344G12  C029 6151   4.292   2.003   8.885
   344G12  H010 6152   4.324   2.104   8.868
   344G12  C02T 6153   4.168   1.996   8.948
   344G12  H01O 6154   4.119   2.089   8.972
   344G12  C02S 6155   4.118   1.870   8.989
   344G12  O00J 6156   4.016   1.865   9.077
   344G12  H01P 6157   4.018   1.774   9.102
   344G12  C02R 6158   4.173   1.753   8.946
   344G12  O00I 6159   4.114   1.638   8.992
   344G12  C02Q 6160   4.174   1.511   8.946
   344G12  H01N 6161   4.278   1.519   8.978
   344G12  H01R 6162   4.170   1.482   8.841
   344G12  H01Q 6163   4.136   1.436   9.015
   344G12  C02A 6164   4.288   1.762   8.863
   344G12  H011 6165   4.311   1.665   8.822
   344G12  C00C 6166   4.864   2.099   8.699
   344G12  H012 6167   4.879   2.079   8.804
   344G12  C00B 6168   4.946   2.185   8.624
   344G12  C00A 6169   5.061   2.253   8.674
   344G12  C009 6170   5.076   2.317   8.802
   344G12  C008 6171   5.011   2.314   8.924
   344G12  H013 6172   4.946   2.231   8.948
   344G12  C007 6173   5.009   2.433   8.997
   344G12  H014 6174   4.950   2.432   9.087
   344G12  C006 6175   5.089   2.544   8.960
   344G12  C005 6176   5.183   2.521   8.860
   344G12  C004 6177   5.248   2.631   8.801
   344G12  C003 6178   5.292   2.630   8.667
   344G12  C002 6179   5.363   2.746   8.617
   344G12  C001 6180   5.402   2.793   8.481
   344G12  C00M 6181   5.321   2.762   8.361
   344G12  C00L 6182   5.267   2.633   8.332
   344G12  C00R 6183   5.173   2.605   8.228
   344G12  C00Q 6184   5.113   2.686   8.134
   344G12  C00V 6185   5.007   2.626   8.065
   344G12  C00U 6186   4.946   2.506   8.109
   344G12  C00T 6187   5.005   2.430   8.206
   344G12  C016 6188   4.941   2.338   8.284
   344G12  C015 6189   4.813   2.294   8.247
   344G12  C010 6190   4.754   2.350   8.130
   344G12  C011 6191   4.635   2.292   8.079
   344G12  H005 6192   4.583   2.325   7.991
   344G12  C012 6193   4.561   2.193   8.143
   344G12  C017 6194   4.429   2.156   8.099
   344G12  O002 6195   4.329   2.248   8.091
   344G12  H004 6196   4.249   2.199   8.075
   344G12  C018 6197   4.412   2.021   8.075
   344G12  O001 6198   4.516   1.933   8.084
   344G12  H003 6199   4.594   1.986   8.073
   344G12  C019 6200   4.280   1.956   8.033
   344G12  H002 6201   4.307   1.920   7.934
   344G12  H001 6202   4.256   1.859   8.077
   344G12  O000 6203   4.166   2.043   8.032
   344G12  C01A 6204   4.057   2.010   7.961
   344G12  C02K 6205   3.983   2.119   7.919
   344G12  O00G 6206   4.036   2.242   7.953
   344G12  C02M 6207   3.958   2.361   7.924
   344G12  H01G 6208   3.957   2.361   7.815
   344G12  H01F 6209   4.009   2.450   7.961
   344G12  H01E 6210   3.861   2.377   7.969
   344G12  C02J 6211   3.856   2.093   7.860
   344G12  H01H 6212   3.795   2.179   7.836
   344G12  C02I 6213   3.809   1.963   7.836
   344G12  C02N 6214   3.683   1.931   7.773
   344G12  H01M 6215   3.620   1.850   7.806
   344G12  C02O 6216   3.632   2.005   7.669
   344G12  H01L 6217   3.698   2.075   7.620
   344G12  C02P 6218   3.505   1.977   7.587
   344G12  H01K 6219   3.437   2.057   7.616
   344G12  H01J 6220   3.523   2.000   7.482
   344G12  O00H 6221   3.455   1.848   7.595
   344G12  H01I 6222   3.521   1.800   7.547
   344G12  C02H 6223   3.898   1.857   7.866
   344G12  H01C 6224   3.863   1.755   7.860
   344G12  C02L 6225   4.010   1.882   7.943
   344G12  H01D 6226   4.043   1.794   7.996
   344G12  C013 6227   4.617   2.151   8.262
   344G12  H000 6228   4.549   2.098   8.327
   344G12  C014 6229   4.750   2.189   8.314
   344G12  C00F 6230   4.802   2.140   8.437
   344G12  C00H 6231   4.990   2.290   8.404
   344G12  C00I 6232   5.109   2.345   8.455
   344G12  C00J 6233   5.172   2.437   8.375
   344G12  C00Z 6234   4.817   2.459   8.063
   344G12  C00Y 6235   4.762   2.533   7.952
   344G12  H006 6236   4.672   2.504   7.901
   344G12  C00X 6237   4.815   2.651   7.907
   344G12  O003 6238   4.750   2.708   7.799
   344G12  C01B 6239   4.805   2.823   7.729
   344G12  H009 6240   4.897   2.801   7.675
   344G12  H008 6241   4.819   2.908   7.796
   344G12  H007 6242   4.729   2.868   7.666
   344G12  C00W 6243   4.940   2.695   7.959
   344G12  O004 6244   5.000   2.808   7.909
   344G12  C01C 6245   5.059   2.891   8.001
   344G12  H00A 6246   5.091   2.990   7.972
   344G12  C00P 6247   5.118   2.826   8.115
   344G12  C00O 6248   5.175   2.921   8.212
   344G12  C01D 6249   5.126   3.055   8.212
   344G12  H00S 6250   5.060   3.082   8.131
   344G12  C01E 6251   5.153   3.146   8.314
   344G12  O008 6252   5.081   3.267   8.323
   344G12  C01V 6253   4.964   3.279   8.259
   344G12  C01Z 6254   4.962   3.365   8.132
   344G12  H00R 6255   4.862   3.406   8.114
   344G12  H00Q 6256   5.032   3.447   8.143
   344G12  O009 6257   4.993   3.286   8.011
   344G12  H00P 6258   4.989   3.345   7.937
   344G12  C01W 6259   4.852   3.202   8.290
   344G12  H00O 6260   4.854   3.147   8.383
   344G12  C01X 6261   4.722   3.186   8.216
   344G12  H00N 6262   4.635   3.223   8.270
   344G12  H00M 6263   4.712   3.245   8.125
   344G12  C01Y 6264   4.687   3.045   8.173
   344G12  C02D 6265   4.590   3.028   8.074
   344G12  H019 6266   4.549   3.117   8.029
   344G12  C02C 6267   4.534   2.902   8.051
   344G12  H01A 6268   4.464   2.883   7.971
   344G12  C02B 6269   4.585   2.788   8.115
   344G12  O00E 6270   4.524   2.668   8.098
   344G12  H01B 6271   4.584   2.605   8.134
   344G12  C02F 6272   4.693   2.798   8.204
   344G12  O00F 6273   4.738   2.692   8.280
   344G12  C02G 6274   4.854   2.700   8.368
   344G12  H017 6275   4.836   2.747   8.464
   344G12  H016 6276   4.930   2.767   8.327
   344G12  H015 6277   4.885   2.597   8.387
   344G12  C02E 6278   4.739   2.931   8.238
   344G12  H018 6279   4.811   2.945   8.317
   344G12  C01F 6280   5.245   3.112   8.416
   344G12  C01G 6281   5.261   3.182   8.537
   344G12  H00L 6282   5.191   3.262   8.555
   344G12  C01H 6283   5.328   3.111   8.649
   344G12  H00B 6284   5.299   3.145   8.748
   344G12  C01I 6285   5.387   2.981   8.628
   344G12  C01U 6286   5.319   2.987   8.402
   344G12  C00S 6287   5.130   2.472   8.247
   344G12  C00K 6288   5.259   2.534   8.433
   344G12  C00N 6289   5.264   2.889   8.316
   344G12  C000 6290   5.414   2.936   8.497
   344G12  C01J 6291   5.376   2.860   8.711
   344G12  C01K 6292   5.327   2.861   8.847
   344G12  C01P 6293   5.344   2.965   8.944
   344G12  C01Q 6294   5.458   3.057   8.938
   344G12  H00G 6295   5.451   3.165   8.931
   344G12  C01R 6296   5.585   3.012   8.937
   344G12  H00F 6297   5.603   2.906   8.928
   344G12  C01S 6298   5.700   3.107   8.938
   344G12  H00E 6299   5.680   3.208   8.904
   344G12  H00D 6300   5.718   3.115   9.045
   344G12  O005 6301   5.814   3.069   8.869
   344G12  H00C 6302   5.855   2.998   8.917
   344G12  C01O 6303   5.262   2.974   9.052
   344G12  H00H 6304   5.285   3.046   9.129
   344G12  C01N 6305   5.171   2.874   9.079
   344G12  O006 6306   5.107   2.877   9.204
   344G12  C01T 6307   4.962   2.896   9.190
   344G12  H00K 6308   4.924   2.816   9.127
   344G12  H00J 6309   4.937   2.992   9.145
   344G12  H00I 6310   4.931   2.874   9.292
   344G12  C01M 6311   5.166   2.760   8.996
   344G12  C020 6312   5.268   2.518   8.582
   344G12  C021 6313   5.234   2.403   8.651
   344G12  C01L 6314   5.249   2.749   8.877
   344G12  O007 6315   5.085   2.656   9.039
   344G12  C022 6316   5.179   2.409   8.778
   344G12  C023 6317   5.156   2.307   8.587
   344G12  C00G 6318   4.919   2.204   8.489
   344G12  C00E 6319   4.732   2.039   8.508
   344G12  O00A 6320   4.645   1.949   8.453
   344G12  C024 6321   4.701   1.852   8.367
   344G12  H00V 6322   4.625   1.788   8.323
   344G12  H00U 6323   4.761   1.780   8.423
   344G12  H00T 6324   4.766   1.903   8.296
   354G12  C00D 6325   0.847   3.259   8.042
   354G12  O00B 6326   0.736   3.329   7.998
   354G12  C025 6327   0.693   3.310   7.870
   354G12  C026 6328   0.749   3.415   7.774
   354G12  H00Y 6329   0.840   3.456   7.818
   354G12  H00X 6330   0.685   3.503   7.776
   354G12  O00C 6331   0.774   3.374   7.640
   354G12  H00W 6332   0.706   3.313   7.617
   354G12  C027 6333   0.602   3.210   7.844
   354G12  O00D 6334   0.556   3.124   7.939
   354G12  H00Z 6335   0.598   3.153   8.019
   354G12  C028 6336   0.558   3.193   7.706
   354G12  C029 6337   0.626   3.112   7.620
   354G12  H010 6338   0.718   3.068   7.655
   354G12  C02T 6339   0.600   3.088   7.483
   354G12  H01O 6340   0.653   3.008   7.433
   354G12  C02S 6341   0.478   3.143   7.436
   354G12  O00J 6342   0.438   3.108   7.317
   354G12  H01P 6343   0.371   3.172   7.297
   354G12  C02R 6344   0.403   3.233   7.515
   354G12  O00I 6345   0.302   3.298   7.450
   354G12  C02Q 6346   0.246   3.407   7.515
   354G12  H01N 6347   0.206   3.366   7.607
   354G12  H01R 6348   0.169   3.446   7.448
   354G12  H01Q 6349   0.319   3.487   7.531
   354G12  C02A 6350   0.442   3.255   7.653
   354G12  H011 6351   0.384   3.316   7.720
   354G12  C00C 6352   0.959   3.250   7.963
   354G12  H012 6353   0.957   3.291   7.863
   354G12  C00B 6354   1.076   3.185   8.000
   354G12  C00A 6355   1.196   3.161   7.924
   354G12  C009 6356   1.212   3.153   7.783
   354G12  C008 6357   1.134   3.167   7.662
   354G12  H013 6358   1.034   3.205   7.653
   354G12  C007 6359   1.179   3.092   7.546
   354G12  H014 6360   1.125   3.097   7.452
   354G12  C006 6361   1.289   3.004   7.551
   354G12  C005 6362   1.363   2.998   7.666
   354G12  C004 6363   1.466   2.903   7.692
   354G12  C003 6364   1.515   2.883   7.822
   354G12  C002 6365   1.607   2.770   7.839
   354G12  C001 6366   1.682   2.718   7.953
   354G12  C00M 6367   1.631   2.705   8.087
   354G12  C00L 6368   1.573   2.811   8.154
   354G12  C00R 6369   1.486   2.789   8.268
   354G12  C00Q 6370   1.467   2.676   8.354
   354G12  C00V 6371   1.369   2.700   8.449
   354G12  C00U 6372   1.265   2.800   8.438
   354G12  C00T 6373   1.275   2.892   8.340
   354G12  C016 6374   1.181   2.982   8.293
   354G12  C015 6375   1.072   2.994   8.378
   354G12  C010 6376   1.064   2.915   8.494
   354G12  C011 6377   0.969   2.950   8.592
   354G12  H005 6378   0.951   2.897   8.685
   354G12  C012 6379   0.878   3.057   8.566
   354G12  C017 6380   0.791   3.109   8.672
   354G12  O002 6381   0.652   3.132   8.644
   354G12  H004 6382   0.610   3.147   8.727
   354G12  C018 6383   0.824   3.109   8.804
   354G12  O001 6384   0.956   3.094   8.839
   354G12  H003 6385   1.010   3.122   8.767
   354G12  C019 6386   0.732   3.162   8.918
   354G12  H002 6387   0.747   3.100   9.007
   354G12  H001 6388   0.765   3.264   8.940
   354G12  O000 6389   0.595   3.167   8.889
   354G12  C01A 6390   0.506   3.223   8.978
   354G12  C02K 6391   0.531   3.266   9.109
   354G12  O00G 6392   0.663   3.267   9.155
   354G12  C02M 6393   0.698   3.348   9.267
   354G12  H01G 6394   0.673   3.291   9.356
   354G12  H01F 6395   0.652   3.447   9.274
   354G12  H01E 6396   0.805   3.366   9.261
   354G12  C02J 6397   0.429   3.324   9.194
   354G12  H01H 6398   0.459   3.356   9.293
   354G12  C02I 6399   0.297   3.336   9.152
   354G12  C02N 6400   0.195   3.400   9.238
   354G12  H01M 6401   0.194   3.422   9.344
   354G12  C02O 6402   0.076   3.441   9.193
   354G12  H01L 6403   0.046   3.440   9.090
   354G12  C02P 6404  -0.033   3.498   9.282
   354G12  H01K 6405  -0.125   3.464   9.236
   354G12  H01J 6406  -0.029   3.450   9.380
   354G12  O00H 6407  -0.043   3.646   9.285
   354G12  H01I 6408  -0.106   3.678   9.346
   354G12  C02H 6409   0.273   3.282   9.021
   354G12  H01C 6410   0.174   3.282   8.976
   354G12  C02L 6411   0.372   3.226   8.942
   354G12  H01D 6412   0.353   3.182   8.845
   354G12  C013 6413   0.874   3.115   8.441
   354G12  H000 6414   0.796   3.186   8.420
   354G12  C014 6415   0.970   3.087   8.342
   354G12  C00F 6416   0.970   3.134   8.213
   354G12  C00H 6417   1.193   3.059   8.178
   354G12  C00I 6418   1.310   3.060   8.111
   354G12  C00J 6419   1.417   2.980   8.161
   354G12  C00Z 6420   1.159   2.815   8.523
   354G12  C00Y 6421   1.160   2.735   8.639
   354G12  H006 6422   1.104   2.761   8.728
   354G12  C00X 6423   1.251   2.624   8.657
   354G12  O003 6424   1.259   2.547   8.770
   354G12  C01B 6425   1.138   2.525   8.849
   354G12  H009 6426   1.056   2.471   8.800
   354G12  H008 6427   1.097   2.616   8.893
   354G12  H007 6428   1.160   2.462   8.936
   354G12  C00W 6429   1.351   2.608   8.558
   354G12  O004 6430   1.441   2.507   8.578
   354G12  C01C 6431   1.522   2.471   8.478
   354G12  H00A 6432   1.605   2.410   8.510
   354G12  C00P 6433   1.532   2.551   8.358
   354G12  C00O 6434   1.587   2.490   8.239
   354G12  C01D 6435   1.582   2.345   8.223
   354G12  H00S 6436   1.552   2.287   8.309
   354G12  C01E 6437   1.597   2.277   8.094
   354G12  O008 6438   1.570   2.143   8.072
   354G12  C01V 6439   1.514   2.069   8.171
   354G12  C01Z 6440   1.614   1.984   8.247
   354G12  H00R 6441   1.663   2.043   8.324
   354G12  H00Q 6442   1.581   1.898   8.305
   354G12  O009 6443   1.721   1.965   8.157
   354G12  H00P 6444   1.725   2.040   8.099
   354G12  C01W 6445   1.378   2.068   8.182
   354G12  H00O 6446   1.323   2.115   8.102
   354G12  C01X 6447   1.300   1.985   8.281
   354G12  H00N 6448   1.231   1.915   8.234
   354G12  H00M 6449   1.363   1.932   8.352
   354G12  C01Y 6450   1.216   2.090   8.363
   354G12  C02D 6451   1.277   2.174   8.460
   354G12  H019 6452   1.384   2.160   8.466
   354G12  C02C 6453   1.200   2.265   8.537
   354G12  H01A 6454   1.241   2.323   8.618
   354G12  C02B 6455   1.061   2.265   8.516
   354G12  O00E 6456   0.979   2.350   8.582
   354G12  H01B 6457   0.891   2.336   8.554
   354G12  C02F 6458   1.001   2.185   8.421
   354G12  O00F 6459   0.863   2.192   8.406
   354G12  C02G 6460   0.799   2.129   8.296
   354G12  H017 6461   0.827   2.024   8.302
   354G12  H016 6462   0.817   2.185   8.204
   354G12  H015 6463   0.693   2.136   8.321
   354G12  C02E 6464   1.079   2.098   8.338
   354G12  H018 6465   1.035   2.038   8.260
   354G12  C01F 6466   1.640   2.359   7.991
   354G12  C01G 6467   1.636   2.322   7.849
   354G12  H00L 6468   1.621   2.220   7.819
   354G12  C01H 6469   1.645   2.422   7.746
   354G12  H00B 6470   1.604   2.389   7.652
   354G12  C01I 6471   1.670   2.560   7.778
   354G12  C01U 6472   1.674   2.495   8.011
   354G12  C00S 6473   1.402   2.899   8.277
   354G12  C00K 6474   1.508   2.919   8.078
   354G12  C00N 6475   1.630   2.566   8.125
   354G12  C000 6476   1.705   2.584   7.913
   354G12  C01J 6477   1.619   2.684   7.730
   354G12  C01K 6478   1.579   2.706   7.596
   354G12  C01P 6479   1.614   2.639   7.469
   354G12  C01Q 6480   1.717   2.542   7.463
   354G12  H00G 6481   1.808   2.540   7.520
   354G12  C01R 6482   1.708   2.434   7.381
   354G12  H00F 6483   1.621   2.412   7.321
   354G12  C01S 6484   1.810   2.320   7.372
   354G12  H00E 6485   1.779   2.234   7.312
   354G12  H00D 6486   1.899   2.370   7.333
   354G12  O005 6487   1.830   2.265   7.500
   354G12  H00C 6488   1.793   2.180   7.483
   354G12  C01O 6489   1.547   2.671   7.348
   354G12  H00H 6490   1.570   2.618   7.257
   354G12  C01N 6491   1.460   2.779   7.342
   354G12  O006 6492   1.405   2.828   7.219
   354G12  C01T 6493   1.433   2.760   7.095
   354G12  H00K 6494   1.539   2.751   7.070
   354G12  H00J 6495   1.391   2.818   7.012
   354G12  H00I 6496   1.390   2.660   7.102
   354G12  C01M 6497   1.429   2.846   7.461
   354G12  C020 6498   1.485   2.957   7.940
   354G12  C021 6499   1.406   3.074   7.900
   354G12  C01L 6500   1.495   2.816   7.586
   354G12  O007 6501   1.326   2.935   7.443
   354G12  C022 6502   1.341   3.080   7.779
   354G12  C023 6503   1.315   3.125   7.989
   354G12  C00G 6504   1.084   3.130   8.128
   354G12  C00E 6505   0.843   3.190   8.164
   354G12  O00A 6506   0.721   3.166   8.219
   354G12  C024 6507   0.669   3.034   8.217
   354G12  H00V 6508   0.651   3.000   8.115
   354G12  H00U 6509   0.577   3.020   8.275
   354G12  H00T 6510   0.731   2.962   8.270
   364G12  C00D 6511   3.557   6.285   5.405
   364G12  O00B 6512   3.584   6.411   5.356
   364G12  C025 6513   3.713   6.451   5.388
   364G12  C026 6514   3.718   6.549   5.506
   364G12  H00Y 6515   3.819   6.549   5.545
   364G12  H00X 6516   3.654   6.518   5.589
   364G12  O00C 6517   3.677   6.676   5.467
   364G12  H00W 6518   3.732   6.743   5.506
   364G12  C027 6519   3.812   6.405   5.310
   364G12  O00D 6520   3.782   6.325   5.197
   364G12  H00Z 6521   3.688   6.314   5.200
   364G12  C028 6522   3.949   6.436   5.336
   364G12  C029 6523   3.997   6.559   5.368
   364G12  H010 6524   3.934   6.647   5.362
   364G12  C02T 6525   4.133   6.585   5.404
   364G12  H01O 6526   4.168   6.681   5.441
   364G12  C02S 6527   4.222   6.478   5.399
   364G12  O00J 6528   4.352   6.500   5.423
   364G12  H01P 6529   4.388   6.414   5.402
   364G12  C02R 6530   4.184   6.347   5.356
   364G12  O00I 6531   4.290   6.261   5.333
   364G12  C02Q 6532   4.249   6.128   5.300
   364G12  H01N 6533   4.191   6.084   5.381
   364G12  H01R 6534   4.337   6.067   5.279
   364G12  H01Q 6535   4.200   6.134   5.202
   364G12  C02A 6536   4.044   6.334   5.317
   364G12  H011 6537   4.013   6.240   5.273
   364G12  C00C 6538   3.526   6.259   5.537
   364G12  H012 6539   3.533   6.343   5.604
   364G12  C00B 6540   3.502   6.132   5.587
   364G12  C00A 6541   3.504   6.092   5.728
   364G12  C009 6542   3.558   6.150   5.842
   364G12  C008 6543   3.637   6.269   5.862
   364G12  H013 6544   3.637   6.352   5.793
   364G12  C007 6545   3.732   6.274   5.968
   364G12  H014 6546   3.782   6.367   5.987
   364G12  C006 6547   3.757   6.156   6.043
   364G12  C005 6548   3.677   6.043   6.018
   364G12  C004 6549   3.712   5.917   6.074
   364G12  C003 6550   3.643   5.800   6.033
   364G12  C002 6551   3.681   5.677   6.099
   364G12  C001 6552   3.645   5.539   6.076
   364G12  C00M 6553   3.660   5.488   5.939
   364G12  C00L 6554   3.593   5.549   5.833
   364G12  C00R 6555   3.624   5.522   5.695
   364G12  C00Q 6556   3.727   5.442   5.625
   364G12  C00V 6557   3.743   5.469   5.490
   364G12  C00U 6558   3.670   5.573   5.425
   364G12  C00T 6559   3.587   5.658   5.493
   364G12  C016 6560   3.548   5.786   5.450
   364G12  C015 6561   3.577   5.816   5.313
   364G12  C010 6562   3.642   5.713   5.235
   364G12  C011 6563   3.649   5.733   5.093
   364G12  H005 6564   3.682   5.657   5.024
   364G12  C012 6565   3.599   5.850   5.041
   364G12  C017 6566   3.584   5.862   4.894
   364G12  O002 6567   3.648   5.970   4.835
   364G12  H004 6568   3.684   6.012   4.912
   364G12  C018 6569   3.511   5.784   4.809
   364G12  O001 6570   3.431   5.675   4.847
   364G12  H003 6571   3.348   5.687   4.804
   364G12  C019 6572   3.497   5.808   4.656
   364G12  H002 6573   3.559   5.892   4.626
   364G12  H001 6574   3.539   5.718   4.611
   364G12  O000 6575   3.359   5.822   4.627
   364G12  C01A 6576   3.294   5.938   4.662
   364G12  C02K 6577   3.158   5.925   4.695
   364G12  O00G 6578   3.109   5.795   4.687
   364G12  C02M 6579   2.968   5.784   4.713
   364G12  H01G 6580   2.925   5.686   4.692
   364G12  H01F 6581   2.910   5.854   4.654
   364G12  H01E 6582   2.933   5.785   4.816
   364G12  C02J 6583   3.092   6.023   4.766
   364G12  H01H 6584   2.994   6.007   4.809
   364G12  C02I 6585   3.155   6.142   4.793
   364G12  C02N 6586   3.080   6.236   4.879
   364G12  H01M 6587   2.996   6.211   4.942
   364G12  C02O 6588   3.117   6.371   4.890
   364G12  H01L 6589   3.207   6.403   4.839
   364G12  C02P 6590   3.053   6.462   4.983
   364G12  H01K 6591   3.024   6.558   4.942
   364G12  H01J 6592   2.957   6.422   5.016
   364G12  O00H 6593   3.138   6.466   5.090
   364G12  H01I 6594   3.115   6.396   5.150
   364G12  C02H 6595   3.280   6.172   4.731
   364G12  H01C 6596   3.329   6.266   4.748
   364G12  C02L 6597   3.354   6.062   4.679
   364G12  H01D 6598   3.454   6.079   4.641
   364G12  C013 6599   3.562   5.954   5.126
   364G12  H000 6600   3.513   6.033   5.072
   364G12  C014 6601   3.550   5.942   5.267
   364G12  C00F 6602   3.526   6.046   5.355
   364G12  C00H 6603   3.501   5.881   5.537
   364G12  C00I 6604   3.477   5.852   5.671
   364G12  C00J 6605   3.498   5.716   5.705
   364G12  C00Z 6606   3.693   5.599   5.291
   364G12  C00Y 6607   3.780   5.514   5.216
   364G12  H006 6608   3.797   5.531   5.111
   364G12  C00X 6609   3.861   5.418   5.280
   364G12  O003 6610   3.951   5.354   5.195
   364G12  C01B 6611   4.033   5.247   5.233
   364G12  H009 6612   4.071   5.200   5.142
   364G12  H008 6613   3.970   5.167   5.272
   364G12  H007 6614   4.109   5.282   5.304
   364G12  C00W 6615   3.849   5.405   5.417
   364G12  O004 6616   3.941   5.319   5.480
   364G12  C01C 6617   3.889   5.259   5.594
   364G12  H00A 6618   3.898   5.154   5.616
   364G12  C00P 6619   3.809   5.341   5.684
   364G12  C00O 6620   3.820   5.311   5.825
   364G12  C01D 6621   3.925   5.222   5.875
   364G12  H00S 6622   3.967   5.146   5.811
   364G12  C01E 6623   3.983   5.226   6.008
   364G12  O008 6624   4.093   5.154   6.050
   364G12  C01V 6625   4.189   5.111   5.961
   364G12  C01Z 6626   4.235   4.970   6.001
   364G12  H00R 6627   4.341   4.946   6.007
   364G12  H00Q 6628   4.191   4.939   6.096
   364G12  O009 6629   4.167   4.885   5.906
   364G12  H00P 6630   4.087   4.854   5.946
   364G12  C01W 6631   4.241   5.186   5.858
   364G12  H00O 6632   4.198   5.284   5.845
   364G12  C01X 6633   4.352   5.132   5.774
   364G12  H00N 6634   4.431   5.206   5.760
   364G12  H00M 6635   4.398   5.045   5.819
   364G12  C01Y 6636   4.306   5.081   5.636
   364G12  C02D 6637   4.403   5.077   5.531
   364G12  H019 6638   4.502   5.119   5.542
   364G12  C02C 6639   4.377   4.995   5.418
   364G12  H01A 6640   4.452   4.969   5.344
   364G12  C02B 6641   4.250   4.935   5.399
   364G12  O00E 6642   4.227   4.863   5.286
   364G12  H01B 6643   4.142   4.822   5.294
   364G12  C02F 6644   4.149   4.951   5.501
   364G12  O00F 6645   4.038   4.865   5.491
   364G12  C02G 6646   3.966   4.846   5.613
   364G12  H017 6647   3.878   4.782   5.601
   364G12  H016 6648   3.922   4.940   5.647
   364G12  H015 6649   4.034   4.811   5.691
   364G12  C02E 6650   4.178   5.023   5.615
   364G12  H018 6651   4.116   5.038   5.702
   364G12  C01F 6652   3.927   5.316   6.091
   364G12  C01G 6653   3.992   5.363   6.212
   364G12  H00L 6654   4.086   5.317   6.237
   364G12  C01H 6655   3.946   5.487   6.266
   364G12  H00B 6656   4.015   5.551   6.320
   364G12  C01I 6657   3.827   5.547   6.223
   364G12  C01U 6658   3.801   5.377   6.064
   364G12  C00S 6659   3.554   5.617   5.622
   364G12  C00K 6660   3.532   5.676   5.840
   364G12  C00N 6661   3.755   5.382   5.932
   364G12  C000 6662   3.732   5.460   6.159
   364G12  C01J 6663   3.785   5.680   6.199
   364G12  C01K 6664   3.841   5.802   6.252
   364G12  C01P 6665   3.926   5.819   6.366
   364G12  C01Q 6666   3.928   5.721   6.472
   364G12  H00G 6667   3.846   5.653   6.488
   364G12  C01R 6668   4.027   5.705   6.560
   364G12  H00F 6669   4.115   5.767   6.556
   364G12  C01S 6670   4.015   5.608   6.675
   364G12  H00E 6671   4.032   5.661   6.768
   364G12  H00D 6672   3.919   5.558   6.685
   364G12  O005 6673   4.121   5.507   6.654
   364G12  H00C 6674   4.086   5.429   6.695
   364G12  C01O 6675   3.996   5.934   6.382
   364G12  H00H 6676   4.067   5.944   6.463
   364G12  C01N 6677   3.980   6.046   6.304
   364G12  O006 6678   4.048   6.163   6.335
   364G12  C01T 6679   4.162   6.171   6.245
   364G12  H00K 6680   4.129   6.160   6.142
   364G12  H00J 6681   4.240   6.096   6.254
   364G12  H00I 6682   4.205   6.269   6.269
   364G12  C01M 6683   3.884   6.035   6.203
   364G12  C020 6684   3.552   5.796   5.921
   364G12  C021 6685   3.500   5.928   5.889
   364G12  C01L 6686   3.810   5.916   6.174
   364G12  O007 6687   3.869   6.151   6.126
   364G12  C022 6688   3.571   6.038   5.927
   364G12  C023 6689   3.450   5.961   5.761
   364G12  C00G 6690   3.500   6.018   5.494
   364G12  C00E 6691   3.541   6.182   5.313
   364G12  O00A 6692   3.533   6.216   5.181
   364G12  C024 6693   3.403   6.253   5.143
   364G12  H00V 6694   3.358   6.318   5.218
   364G12  H00U 6695   3.343   6.163   5.129
   364G12  H00T 6696   3.405   6.315   5.053
   374G12  C00D 6697   2.348   1.056   5.850
   374G12  O00B 6698   2.335   1.187   5.899
   374G12  C025 6699   2.350   1.202   6.036
   374G12  C026 6700   2.486   1.267   6.070
   374G12  H00Y 6701   2.491   1.325   6.162
   374G12  H00X 6702   2.514   1.331   5.986
   374G12  O00C 6703   2.588   1.170   6.074
   374G12  H00W 6704   2.597   1.132   5.988
   374G12  C027 6705   2.250   1.191   6.131
   374G12  O00D 6706   2.119   1.157   6.111
   374G12  H00Z 6707   2.087   1.188   6.194
   374G12  C028 6708   2.280   1.219   6.271
   374G12  C029 6709   2.222   1.321   6.343
   374G12  H010 6710   2.142   1.378   6.298
   374G12  C02T 6711   2.272   1.369   6.467
   374G12  H01O 6712   2.232   1.460   6.508
   374G12  C02S 6713   2.385   1.304   6.518
   374G12  O00J 6714   2.443   1.347   6.635
   374G12  H01P 6715   2.478   1.275   6.685
   374G12  C02R 6716   2.440   1.188   6.460
   374G12  O00I 6717   2.535   1.120   6.523
   374G12  C02Q 6718   2.606   1.020   6.458
   374G12  H01N 6719   2.673   1.037   6.373
   374G12  H01R 6720   2.554   0.925   6.447
   374G12  H01Q 6721   2.677   0.995   6.537
   374G12  C02A 6722   2.383   1.152   6.337
   374G12  H011 6723   2.424   1.071   6.277
   374G12  C00C 6724   2.401   0.949   5.917
   374G12  H012 6725   2.427   0.970   6.019
   374G12  C00B 6726   2.435   0.824   5.860
   374G12  C00A 6727   2.507   0.714   5.918
   374G12  C009 6728   2.612   0.733   6.027
   374G12  C008 6729   2.642   0.834   6.115
   374G12  H013 6730   2.564   0.894   6.160
   374G12  C007 6731   2.779   0.846   6.151
   374G12  H014 6732   2.805   0.931   6.212
   374G12  C006 6733   2.875   0.756   6.104
   374G12  C005 6734   2.843   0.651   6.020
   374G12  C004 6735   2.936   0.584   5.937
   374G12  C003 6736   2.888   0.506   5.832
   374G12  C002 6737   2.991   0.428   5.766
   374G12  C001 6738   2.987   0.330   5.658
   374G12  C00M 6739   2.912   0.352   5.535
   374G12  C00L 6740   2.782   0.404   5.538
   374G12  C00R 6741   2.706   0.459   5.430
   374G12  C00Q 6742   2.746   0.480   5.295
   374G12  C00V 6743   2.647   0.562   5.227
   374G12  C00U 6744   2.538   0.629   5.288
   374G12  C00T 6745   2.521   0.619   5.422
   374G12  C016 6746   2.449   0.708   5.503
   374G12  C015 6747   2.373   0.803   5.440
   374G12  C010 6748   2.368   0.806   5.301
   374G12  C011 6749   2.283   0.903   5.238
   374G12  H005 6750   2.283   0.907   5.130
   374G12  C012 6751   2.191   0.981   5.312
   374G12  C017 6752   2.081   1.053   5.237
   374G12  O002 6753   2.020   0.993   5.129
   374G12  H004 6754   2.052   0.905   5.114
   374G12  C018 6755   2.063   1.183   5.269
   374G12  O001 6756   2.117   1.254   5.373
   374G12  H003 6757   2.191   1.202   5.402
   374G12  C019 6758   1.971   1.265   5.190
   374G12  H002 6759   1.938   1.219   5.097
   374G12  H001 6760   1.887   1.285   5.257
   374G12  O000 6761   2.058   1.377   5.152
   374G12  C01A 6762   2.026   1.455   5.044
   374G12  C02K 6763   1.894   1.467   4.982
   374G12  O00G 6764   1.792   1.395   5.039
   374G12  C02M 6765   1.668   1.401   4.977
   374G12  H01G 6766   1.627   1.499   4.952
   374G12  H01F 6767   1.593   1.345   5.033
   374G12  H01E 6768   1.682   1.335   4.890
   374G12  C02J 6769   1.885   1.550   4.872
   374G12  H01H 6770   1.793   1.562   4.816
   374G12  C02I 6771   1.989   1.632   4.822
   374G12  C02N 6772   1.969   1.709   4.705
   374G12  H01M 6773   1.866   1.735   4.684
   374G12  C02O 6774   2.069   1.737   4.622
   374G12  H01L 6775   2.165   1.694   4.647
   374G12  C02P 6776   2.057   1.826   4.497
   374G12  H01K 6777   2.109   1.787   4.409
   374G12  H01J 6778   1.953   1.845   4.470
   374G12  O00H 6779   2.107   1.962   4.511
   374G12  H01I 6780   2.028   2.010   4.530
   374G12  C02H 6781   2.111   1.623   4.887
   374G12  H01C 6782   2.201   1.676   4.858
   374G12  C02L 6783   2.126   1.541   4.999
   374G12  H01D 6784   2.222   1.553   5.046
   374G12  C013 6785   2.203   0.968   5.448
   374G12  H000 6786   2.119   1.012   5.500
   374G12  C014 6787   2.298   0.892   5.516
   374G12  C00F 6788   2.331   0.907   5.653
   374G12  C00H 6789   2.452   0.699   5.645
   374G12  C00I 6790   2.526   0.589   5.710
   374G12  C00J 6791   2.592   0.498   5.623
   374G12  C00Z 6792   2.458   0.724   5.229
   374G12  C00Y 6793   2.469   0.731   5.087
   374G12  H006 6794   2.408   0.796   5.027
   374G12  C00X 6795   2.564   0.654   5.018
   374G12  O003 6796   2.567   0.639   4.883
   374G12  C01B 6797   2.553   0.749   4.797
   374G12  H009 6798   2.472   0.821   4.809
   374G12  H008 6799   2.545   0.711   4.695
   374G12  H007 6800   2.642   0.812   4.799
   374G12  C00W 6801   2.656   0.570   5.085
   374G12  O004 6802   2.754   0.513   5.011
   374G12  C01C 6803   2.845   0.435   5.073
   374G12  H00A 6804   2.886   0.363   5.004
   374G12  C00P 6805   2.856   0.428   5.217
   374G12  C00O 6806   2.975   0.373   5.279
   374G12  C01D 6807   3.102   0.361   5.201
   374G12  H00S 6808   3.094   0.384   5.096
   374G12  C01E 6809   3.229   0.363   5.262
   374G12  O008 6810   3.343   0.390   5.189
   374G12  C01V 6811   3.384   0.290   5.100
   374G12  C01Z 6812   3.448   0.173   5.169
   374G12  H00R 6813   3.478   0.207   5.268
   374G12  H00Q 6814   3.377   0.091   5.178
   374G12  O009 6815   3.562   0.133   5.110
   374G12  H00P 6816   3.635   0.174   5.155
   374G12  C01W 6817   3.360   0.307   4.972
   374G12  H00O 6818   3.302   0.392   4.940
   374G12  C01X 6819   3.394   0.212   4.858
   374G12  H00N 6820   3.424   0.118   4.903
   374G12  H00M 6821   3.301   0.198   4.804
   374G12  C01Y 6822   3.501   0.277   4.770
   374G12  C02D 6823   3.457   0.359   4.663
   374G12  H019 6824   3.351   0.381   4.657
   374G12  C02C 6825   3.549   0.410   4.569
   374G12  H01A 6826   3.503   0.458   4.483
   374G12  C02B 6827   3.687   0.382   4.588
   374G12  O00E 6828   3.783   0.421   4.497
   374G12  H01B 6829   3.859   0.401   4.550
   374G12  C02F 6830   3.731   0.315   4.702
   374G12  O00F 6831   3.862   0.325   4.724
   374G12  C02G 6832   3.928   0.266   4.835
   374G12  H017 6833   3.926   0.157   4.838
   374G12  H016 6834   3.909   0.311   4.933
   374G12  H015 6835   4.035   0.283   4.822
   374G12  C02E 6836   3.639   0.270   4.797
   374G12  H018 6837   3.666   0.208   4.881
   374G12  C01F 6838   3.236   0.350   5.401
   374G12  C01G 6839   3.353   0.384   5.480
   374G12  H00L 6840   3.437   0.413   5.419
   374G12  C01H 6841   3.333   0.418   5.619
   374G12  H00B 6842   3.414   0.470   5.668
   374G12  C01I 6843   3.211   0.385   5.681
   374G12  C01U 6844   3.123   0.317   5.471
   374G12  C00S 6845   2.590   0.516   5.482
   374G12  C00K 6846   2.714   0.448   5.660
   374G12  C00N 6847   2.996   0.347   5.417
   374G12  C000 6848   3.118   0.301   5.611
   374G12  C01J 6849   3.134   0.448   5.791
   374G12  C01K 6850   3.181   0.530   5.901
   374G12  C01P 6851   3.315   0.542   5.956
   374G12  C01Q 6852   3.414   0.452   5.918
   374G12  H00G 6853   3.393   0.348   5.897
   374G12  C01R 6854   3.546   0.489   5.913
   374G12  H00F 6855   3.576   0.592   5.926
   374G12  C01S 6856   3.660   0.392   5.867
   374G12  H00E 6857   3.634   0.287   5.878
   374G12  H00D 6858   3.677   0.420   5.763
   374G12  O005 6859   3.778   0.424   5.945
   374G12  H00C 6860   3.752   0.411   6.035
   374G12  C01O 6861   3.336   0.642   6.061
   374G12  H00H 6862   3.438   0.644   6.096
   374G12  C01N 6863   3.231   0.709   6.125
   374G12  O006 6864   3.239   0.796   6.226
   374G12  C01T 6865   3.366   0.829   6.272
   374G12  H00K 6866   3.427   0.741   6.295
   374G12  H00J 6867   3.364   0.888   6.363
   374G12  H00I 6868   3.417   0.891   6.198
   374G12  C01M 6869   3.103   0.693   6.077
   374G12  C020 6870   2.752   0.482   5.799
   374G12  C021 6871   2.662   0.538   5.901
   374G12  C01L 6872   3.075   0.604   5.963
   374G12  O007 6873   3.006   0.767   6.146
   374G12  C022 6874   2.704   0.628   5.995
   374G12  C023 6875   2.541   0.597   5.851
   374G12  C00G 6876   2.408   0.808   5.719
   374G12  C00E 6877   2.296   1.031   5.723
   374G12  O00A 6878   2.225   1.134   5.665
   374G12  C024 6879   2.103   1.163   5.727
   374G12  H00V 6880   2.067   1.261   5.693
   374G12  H00U 6881   2.101   1.179   5.835
   374G12  H00T 6882   2.033   1.083   5.705
   384G12  C00D 6883   3.054   5.633   6.331
   384G12  O00B 6884   2.970   5.524   6.330
   384G12  C025 6885   3.003   5.408   6.400
   384G12  C026 6886   3.049   5.292   6.318
   384G12  H00Y 6887   2.977   5.293   6.237
   384G12  H00X 6888   3.037   5.207   6.385
   384G12  O00C 6889   3.178   5.314   6.264
   384G12  H00W 6890   3.189   5.272   6.180
   384G12  C027 6891   3.015   5.407   6.536
   384G12  O00D 6892   2.996   5.515   6.613
   384G12  H00Z 6893   2.998   5.588   6.553
   384G12  C028 6894   3.069   5.302   6.615
   384G12  C029 6895   3.211   5.276   6.600
   384G12  H010 6896   3.260   5.339   6.527
   384G12  C02T 6897   3.277   5.192   6.694
   384G12  H01O 6898   3.380   5.166   6.677
   384G12  C02S 6899   3.203   5.138   6.796
   384G12  O00J 6900   3.259   5.054   6.892
   384G12  H01P 6901   3.184   5.034   6.946
   384G12  C02R 6902   3.063   5.160   6.808
   384G12  O00I 6903   2.996   5.103   6.914
   384G12  C02Q 6904   2.866   5.053   6.882
   384G12  H01N 6905   2.802   5.140   6.865
   384G12  H01R 6906   2.833   5.005   6.974
   384G12  H01Q 6907   2.864   4.981   6.800
   384G12  C02A 6908   3.001   5.244   6.718
   384G12  H011 6909   2.899   5.278   6.733
   384G12  C00C 6910   3.186   5.624   6.379
   384G12  H012 6911   3.221   5.530   6.418
   384G12  C00B 6912   3.279   5.731   6.385
   384G12  C00A 6913   3.416   5.733   6.436
   384G12  C009 6914   3.465   5.666   6.556
   384G12  C008 6915   3.405   5.586   6.656
   384G12  H013 6916   3.315   5.531   6.633
   384G12  C007 6917   3.453   5.579   6.787
   384G12  H014 6918   3.403   5.530   6.870
   384G12  C006 6919   3.571   5.657   6.818
   384G12  C005 6920   3.627   5.742   6.719
   384G12  C004 6921   3.706   5.852   6.752
   384G12  C003 6922   3.730   5.962   6.661
   384G12  C002 6923   3.817   6.072   6.700
   384G12  C001 6924   3.853   6.202   6.641
   384G12  C00M 6925   3.757   6.289   6.577
   384G12  C00L 6926   3.670   6.231   6.489
   384G12  C00R 6927   3.552   6.297   6.438
   384G12  C00Q 6928   3.492   6.426   6.461
   384G12  C00V 6929   3.367   6.443   6.395
   384G12  C00U 6930   3.294   6.338   6.330
   384G12  C00T 6931   3.349   6.216   6.319
   384G12  C016 6932   3.274   6.102   6.291
   384G12  C015 6933   3.145   6.116   6.246
   384G12  C010 6934   3.094   6.246   6.233
   384G12  C011 6935   2.958   6.262   6.181
   384G12  H005 6936   2.912   6.359   6.165
   384G12  C012 6937   2.886   6.148   6.138
   384G12  C017 6938   2.761   6.159   6.060
   384G12  O002 6939   2.741   6.074   5.950
   384G12  H004 6940   2.667   6.110   5.903
   384G12  C018 6941   2.663   6.242   6.097
   384G12  O001 6942   2.673   6.312   6.217
   384G12  H003 6943   2.628   6.394   6.208
   384G12  C019 6944   2.527   6.246   6.032
   384G12  H002 6945   2.471   6.154   6.045
   384G12  H001 6946   2.467   6.330   6.067
   384G12  O000 6947   2.555   6.252   5.891
   384G12  C01A 6948   2.448   6.210   5.811
   384G12  C02K 6949   2.470   6.097   5.726
   384G12  O00G 6950   2.589   6.033   5.726
   384G12  C02M 6951   2.587   5.903   5.776
   384G12  H01G 6952   2.685   5.855   5.771
   384G12  H01F 6953   2.527   5.843   5.707
   384G12  H01E 6954   2.547   5.886   5.876
   384G12  C02J 6955   2.364   6.055   5.639
   384G12  H01H 6956   2.385   5.987   5.558
   384G12  C02I 6957   2.237   6.117   5.644
   384G12  C02N 6958   2.138   6.081   5.547
   384G12  H01M 6959   2.167   6.017   5.465
   384G12  C02O 6960   2.009   6.123   5.561
   384G12  H01L 6961   1.979   6.194   5.636
   384G12  C02P 6962   1.899   6.077   5.466
   384G12  H01K 6963   1.870   6.157   5.398
   384G12  H01J 6964   1.941   6.003   5.397
   384G12  O00H 6965   1.784   6.029   5.531
   384G12  H01I 6966   1.746   6.100   5.581
   384G12  C02H 6967   2.216   6.218   5.741
   384G12  H01C 6968   2.126   6.276   5.752
   384G12  C02L 6969   2.320   6.267   5.820
   384G12  H01D 6970   2.287   6.338   5.895
   384G12  C013 6971   2.953   6.025   6.154
   384G12  H000 6972   2.894   5.947   6.108
   384G12  C014 6973   3.072   6.003   6.222
   384G12  C00F 6974   3.112   5.870   6.263
   384G12  C00H 6975   3.330   5.972   6.317
   384G12  C00I 6976   3.468   5.956   6.351
   384G12  C00J 6977   3.539   6.075   6.370
   384G12  C00Z 6978   3.169   6.356   6.282
   384G12  C00Y 6979   3.118   6.489   6.263
   384G12  H006 6980   3.023   6.519   6.221
   384G12  C00X 6981   3.190   6.600   6.317
   384G12  O003 6982   3.146   6.727   6.302
   384G12  C01B 6983   3.184   6.795   6.183
   384G12  H009 6984   3.137   6.753   6.095
   384G12  H008 6985   3.293   6.807   6.178
   384G12  H007 6986   3.142   6.895   6.185
   384G12  C00W 6987   3.316   6.571   6.379
   384G12  O004 6988   3.375   6.680   6.441
   384G12  C01C 6989   3.448   6.645   6.553
   384G12  H00A 6990   3.428   6.697   6.645
   384G12  C00P 6991   3.528   6.526   6.556
   384G12  C00O 6992   3.637   6.515   6.651
   384G12  C01D 6993   3.650   6.619   6.752
   384G12  H00S 6994   3.590   6.709   6.754
   384G12  C01E 6995   3.735   6.596   6.866
   384G12  O008 6996   3.743   6.687   6.972
   384G12  C01V 6997   3.674   6.804   6.963
   384G12  C01Z 6998   3.542   6.805   7.041
   384G12  H00R 6999   3.559   6.784   7.146
   384G12  H00Q 7000   3.492   6.901   7.034
   384G12  O009 7001   3.447   6.733   6.963
   384G12  H00P 7002   3.439   6.657   7.018
   384G12  C01W 7003   3.719   6.908   6.885
   384G12  H00O 7004   3.806   6.903   6.822
   384G12  C01X 7005   3.646   7.037   6.865
   384G12  H00N 7006   3.581   7.077   6.942
   384G12  H00M 7007   3.712   7.123   6.849
   384G12  C01Y 7008   3.558   7.024   6.746
   384G12  C02D 7009   3.613   7.059   6.618
   384G12  H019 7010   3.706   7.113   6.608
   384G12  C02C 7011   3.538   7.043   6.500
   384G12  H01A 7012   3.586   7.075   6.408
   384G12  C02B 7013   3.405   6.990   6.510
   384G12  O00E 7014   3.334   6.970   6.403
   384G12  H01B 7015   3.259   6.916   6.424
   384G12  C02F 7016   3.347   6.977   6.640
   384G12  O00F 7017   3.218   6.929   6.639
   384G12  C02G 7018   3.153   6.899   6.762
   384G12  H017 7019   3.133   6.991   6.815
   384G12  H016 7020   3.207   6.822   6.817
   384G12  H015 7021   3.058   6.858   6.728
   384G12  C02E 7022   3.424   6.988   6.759
   384G12  H018 7023   3.380   6.975   6.857
   384G12  C01F 7024   3.813   6.479   6.872
   384G12  C01G 7025   3.869   6.421   6.992
   384G12  H00L 7026   3.878   6.475   7.085
   384G12  C01H 7027   3.908   6.284   6.996
   384G12  H00B 7028   3.911   6.240   7.094
   384G12  C01I 7029   3.897   6.209   6.872
   384G12  C01U 7030   3.830   6.403   6.756
   384G12  C00S 7031   3.481   6.200   6.366
   384G12  C00K 7032   3.652   6.088   6.464
   384G12  C00N 7033   3.739   6.414   6.653
   384G12  C000 7034   3.902   6.281   6.748
   384G12  C01J 7035   3.855   6.072   6.839
   384G12  C01K 7036   3.849   5.957   6.929
   384G12  C01P 7037   3.904   5.938   7.058
   384G12  C01Q 7038   4.019   6.020   7.092
   384G12  H00G 7039   4.094   6.064   7.028
   384G12  C01R 7040   4.036   6.054   7.222
   384G12  H00F 7041   3.964   6.018   7.295
   384G12  C01S 7042   4.139   6.146   7.282
   384G12  H00E 7043   4.159   6.110   7.383
   384G12  H00D 7044   4.233   6.139   7.226
   384G12  O005 7045   4.076   6.266   7.273
   384G12  H00C 7046   4.148   6.327   7.273
   384G12  C01O 7047   3.870   5.838   7.143
   384G12  H00H 7048   3.914   5.825   7.241
   384G12  C01N 7049   3.774   5.741   7.106
   384G12  O006 7050   3.741   5.632   7.182
   384G12  C01T 7051   3.690   5.671   7.305
   384G12  H00K 7052   3.622   5.756   7.295
   384G12  H00J 7053   3.769   5.692   7.377
   384G12  H00I 7054   3.632   5.584   7.334
   384G12  C01M 7055   3.723   5.749   6.973
   384G12  C020 7056   3.672   5.960   6.529
   384G12  C021 7057   3.612   5.836   6.493
   384G12  C01L 7058   3.758   5.856   6.884
   384G12  O007 7059   3.623   5.655   6.944
   384G12  C022 7060   3.579   5.742   6.588
   384G12  C023 7061   3.510   5.827   6.394
   384G12  C00G 7062   3.245   5.858   6.319
   384G12  C00E 7063   3.022   5.756   6.271
   384G12  O00A 7064   2.893   5.756   6.219
   384G12  C024 7065   2.881   5.694   6.088
   384G12  H00V 7066   2.775   5.703   6.061
   384G12  H00U 7067   2.911   5.589   6.090
   384G12  H00T 7068   2.949   5.739   6.017
   394G12  C00D 7069   6.494   2.281   5.511
   394G12  O00B 7070   6.455   2.167   5.456
   394G12  C025 7071   6.419   2.161   5.324
   394G12  C026 7072   6.265   2.171   5.308
   394G12  H00Y 7073   6.239   2.097   5.233
   394G12  H00X 7074   6.234   2.266   5.264
   394G12  O00C 7075   6.213   2.151   5.433
   394G12  H00W 7076   6.277   2.137   5.501
   394G12  C027 7077   6.511   2.146   5.231
   394G12  O00D 7078   6.645   2.129   5.268
   394G12  H00Z 7079   6.664   2.164   5.354
   394G12  C028 7080   6.493   2.145   5.089
   394G12  C029 7081   6.555   2.048   5.003
   394G12  H010 7082   6.612   1.971   5.053
   394G12  C02T 7083   6.529   2.049   4.865
   394G12  H01O 7084   6.583   1.976   4.806
   394G12  C02S 7085   6.445   2.149   4.813
   394G12  O00J 7086   6.420   2.162   4.678
   394G12  H01P 7087   6.354   2.227   4.661
   394G12  C02R 7088   6.383   2.246   4.889
   394G12  O00I 7089   6.315   2.341   4.822
   394G12  C02Q 7090   6.240   2.428   4.902
   394G12  H01N 7091   6.164   2.370   4.954
   394G12  H01R 7092   6.180   2.499   4.845
   394G12  H01Q 7093   6.310   2.491   4.957
   394G12  C02A 7094   6.402   2.238   5.027
   394G12  H011 7095   6.361   2.310   5.096
   394G12  C00C 7096   6.410   2.394   5.519
   394G12  H012 7097   6.321   2.388   5.459
   394G12  C00B 7098   6.447   2.509   5.600
   394G12  C00A 7099   6.375   2.628   5.613
   394G12  C009 7100   6.283   2.696   5.523
   394G12  C008 7101   6.231   2.683   5.392
   394G12  H013 7102   6.246   2.594   5.333
   394G12  C007 7103   6.187   2.793   5.313
   394G12  H014 7104   6.153   2.795   5.210
   394G12  C006 7105   6.190   2.923   5.365
   394G12  C005 7106   6.239   2.937   5.498
   394G12  C004 7107   6.284   3.063   5.554
   394G12  C003 7108   6.354   3.064   5.680
   394G12  C002 7109   6.392   3.194   5.724
   394G12  C001 7110   6.465   3.243   5.844
   394G12  C00M 7111   6.590   3.182   5.882
   394G12  C00L 7112   6.611   3.043   5.891
   394G12  C00R 7113   6.743   2.982   5.891
   394G12  C00Q 7114   6.879   3.032   5.882
   394G12  C00V 7115   6.970   2.932   5.853
   394G12  C00U 7116   6.936   2.802   5.814
   394G12  C00T 7117   6.806   2.762   5.808
   394G12  C016 7118   6.764   2.642   5.759
   394G12  C015 7119   6.858   2.553   5.711
   394G12  C010 7120   6.991   2.583   5.726
   394G12  C011 7121   7.086   2.480   5.695
   394G12  H005 7122   7.188   2.491   5.731
   394G12  C012 7123   7.051   2.362   5.634
   394G12  C017 7124   7.147   2.264   5.596
   394G12  O002 7125   7.116   2.130   5.614
   394G12  H004 7126   7.070   2.123   5.696
   394G12  C018 7127   7.270   2.300   5.541
   394G12  O001 7128   7.319   2.425   5.520
   394G12  H003 7129   7.384   2.399   5.456
   394G12  C019 7130   7.373   2.194   5.496
   394G12  H002 7131   7.429   2.160   5.583
   394G12  H001 7132   7.325   2.105   5.456
   394G12  O000 7133   7.472   2.257   5.416
   394G12  C01A 7134   7.573   2.178   5.353
   394G12  C02K 7135   7.711   2.216   5.370
   394G12  O00G 7136   7.745   2.335   5.436
   394G12  C02M 7137   7.833   2.426   5.374
   394G12  H01G 7138   7.931   2.394   5.339
   394G12  H01F 7139   7.855   2.503   5.449
   394G12  H01E 7140   7.790   2.474   5.287
   394G12  C02J 7141   7.815   2.128   5.323
   394G12  H01H 7142   7.917   2.161   5.332
   394G12  C02I 7143   7.778   2.011   5.252
   394G12  C02N 7144   7.880   1.934   5.195
   394G12  H01M 7145   7.975   1.928   5.246
   394G12  C02O 7146   7.867   1.891   5.065
   394G12  H01L 7147   7.771   1.893   5.015
   394G12  C02P 7148   7.988   1.831   4.988
   394G12  H01K 7149   8.039   1.914   4.940
   394G12  H01J 7150   8.059   1.791   5.060
   394G12  O00H 7151   7.939   1.731   4.902
   394G12  H01I 7152   7.886   1.778   4.839
   394G12  C02H 7153   7.642   1.981   5.232
   394G12  H01C 7154   7.622   1.893   5.173
   394G12  C02L 7155   7.539   2.059   5.289
   394G12  H01D 7156   7.438   2.030   5.263
   394G12  C013 7157   6.913   2.334   5.624
   394G12  H000 7158   6.887   2.243   5.573
   394G12  C014 7159   6.811   2.435   5.661
   394G12  C00F 7160   6.676   2.416   5.631
   394G12  C00H 7161   6.631   2.623   5.734
   394G12  C00I 7162   6.532   2.716   5.771
   394G12  C00J 7163   6.582   2.833   5.839
   394G12  C00Z 7164   7.030   2.709   5.778
   394G12  C00Y 7165   7.165   2.742   5.773
   394G12  H006 7166   7.248   2.682   5.739
   394G12  C00X 7167   7.198   2.874   5.801
   394G12  O003 7168   7.324   2.924   5.780
   394G12  C01B 7169   7.428   2.842   5.720
   394G12  H009 7170   7.448   2.755   5.783
   394G12  H008 7171   7.518   2.903   5.719
   394G12  H007 7172   7.409   2.813   5.617
   394G12  C00W 7173   7.110   2.968   5.850
   394G12  O004 7174   7.159   3.091   5.881
   394G12  C01C 7175   7.063   3.181   5.925
   394G12  H00A 7176   7.098   3.246   6.004
   394G12  C00P 7177   6.922   3.161   5.897
   394G12  C00O 7178   6.841   3.276   5.873
   394G12  C01D 7179   6.906   3.400   5.839
   394G12  H00S 7180   7.014   3.406   5.837
   394G12  C01E 7181   6.843   3.515   5.785
   394G12  O008 7182   6.919   3.623   5.730
   394G12  C01V 7183   6.876   3.750   5.772
   394G12  C01Z 7184   6.895   3.858   5.668
   394G12  H00R 7185   6.817   3.852   5.592
   394G12  H00Q 7186   6.885   3.958   5.711
   394G12  O009 7187   7.021   3.825   5.606
   394G12  H00P 7188   7.013   3.734   5.580
   394G12  C01W 7189   6.811   3.766   5.889
   394G12  H00O 7190   6.776   3.681   5.946
   394G12  C01X 7191   6.754   3.890   5.952
   394G12  H00N 7192   6.750   3.868   6.059
   394G12  H00M 7193   6.826   3.972   5.953
   394G12  C01Y 7194   6.616   3.918   5.897
   394G12  C02D 7195   6.599   4.014   5.789
   394G12  H019 7196   6.679   4.064   5.736
   394G12  C02C 7197   6.470   4.049   5.749
   394G12  H01A 7198   6.461   4.121   5.670
   394G12  C02B 7199   6.357   3.982   5.796
   394G12  O00E 7200   6.234   4.018   5.752
   394G12  H01B 7201   6.180   3.975   5.817
   394G12  C02F 7202   6.370   3.882   5.897
   394G12  O00F 7203   6.252   3.822   5.935
   394G12  C02G 7204   6.260   3.724   6.044
   394G12  H017 7205   6.300   3.785   6.126
   394G12  H016 7206   6.327   3.644   6.015
   394G12  H015 7207   6.158   3.688   6.058
   394G12  C02E 7208   6.498   3.851   5.950
   394G12  H018 7209   6.502   3.778   6.030
   394G12  C01F 7210   6.704   3.503   5.767
   394G12  C01G 7211   6.626   3.581   5.677
   394G12  H00L 7212   6.681   3.655   5.621
   394G12  C01H 7213   6.502   3.541   5.625
   394G12  H00B 7214   6.453   3.595   5.546
   394G12  C01I 7215   6.437   3.434   5.693
   394G12  C01U 7216   6.630   3.398   5.833
   394G12  C00S 7217   6.716   2.846   5.869
   394G12  C00K 7218   6.514   2.955   5.840
   394G12  C00N 7219   6.699   3.279   5.868
   394G12  C000 7220   6.489   3.382   5.820
   394G12  C01J 7221   6.363   3.314   5.640
   394G12  C01K 7222   6.286   3.308   5.517
   394G12  C01P 7223   6.231   3.416   5.444
   394G12  C01Q 7224   6.208   3.541   5.515
   394G12  H00G 7225   6.168   3.538   5.615
   394G12  C01R 7226   6.231   3.655   5.455
   394G12  H00F 7227   6.266   3.655   5.352
   394G12  C01S 7228   6.187   3.776   5.531
   394G12  H00E 7229   6.088   3.809   5.498
   394G12  H00D 7230   6.187   3.757   5.639
   394G12  O005 7231   6.275   3.883   5.514
   394G12  H00C 7232   6.284   3.931   5.596
   394G12  C01O 7233   6.182   3.396   5.313
   394G12  H00H 7234   6.141   3.481   5.260
   394G12  C01N 7235   6.175   3.265   5.251
   394G12  O006 7236   6.133   3.245   5.123
   394G12  C01T 7237   6.078   3.352   5.050
   394G12  H00K 7238   5.977   3.376   5.082
   394G12  H00J 7239   6.077   3.326   4.944
   394G12  H00I 7240   6.136   3.443   5.064
   394G12  C01M 7241   6.208   3.159   5.336
   394G12  C020 7242   6.393   2.950   5.755
   394G12  C021 7243   6.328   2.832   5.709
   394G12  C01L 7244   6.257   3.177   5.471
   394G12  O007 7245   6.174   3.032   5.293
   394G12  C022 7246   6.266   2.827   5.583
   394G12  C023 7247   6.399   2.708   5.727
   394G12  C00G 7248   6.582   2.516   5.656
   394G12  C00E 7249   6.620   2.289   5.573
   394G12  O00A 7250   6.692   2.170   5.577
   394G12  C024 7251   6.669   2.097   5.693
   394G12  H00V 7252   6.711   2.149   5.779
   394G12  H00U 7253   6.737   2.012   5.689
   394G12  H00T 7254   6.566   2.063   5.702
   404G12  C00D 7255   1.332   2.524   4.920
   404G12  O00B 7256   1.290   2.561   5.048
   404G12  C025 7257   1.343   2.678   5.111
   404G12  C026 7258   1.227   2.773   5.126
   404G12  H00Y 7259   1.189   2.776   5.024
   404G12  H00X 7260   1.260   2.875   5.146
   404G12  O00C 7261   1.119   2.729   5.209
   404G12  H00W 7262   1.109   2.636   5.194
   404G12  C027 7263   1.479   2.695   5.136
   404G12  O00D 7264   1.574   2.603   5.105
   404G12  H00Z 7265   1.521   2.553   5.045
   404G12  C028 7266   1.521   2.807   5.218
   404G12  C029 7267   1.632   2.888   5.179
   404G12  H010 7268   1.692   2.869   5.091
   404G12  C02T 7269   1.665   3.004   5.252
   404G12  H01O 7270   1.738   3.071   5.209
   404G12  C02S 7271   1.590   3.036   5.367
   404G12  O00J 7272   1.638   3.145   5.435
   404G12  H01P 7273   1.579   3.151   5.509
   404G12  C02R 7274   1.485   2.960   5.414
   404G12  O00I 7275   1.428   3.005   5.531
   404G12  C02Q 7276   1.298   2.967   5.560
   404G12  H01N 7277   1.219   2.994   5.489
   404G12  H01R 7278   1.276   3.015   5.655
   404G12  H01Q 7279   1.287   2.862   5.588
   404G12  C02A 7280   1.448   2.847   5.340
   404G12  H011 7281   1.360   2.789   5.363
   404G12  C00C 7282   1.399   2.610   4.838
   404G12  H012 7283   1.421   2.706   4.883
   404G12  C00B 7284   1.431   2.580   4.705
   404G12  C00A 7285   1.495   2.662   4.610
   404G12  C009 7286   1.476   2.806   4.590
   404G12  C008 7287   1.395   2.909   4.651
   404G12  H013 7288   1.344   2.885   4.744
   404G12  C007 7289   1.378   3.030   4.582
   404G12  H014 7290   1.311   3.106   4.616
   404G12  C006 7291   1.412   3.045   4.444
   404G12  C005 7292   1.486   2.939   4.384
   404G12  C004 7293   1.492   2.927   4.246
   404G12  C003 7294   1.542   2.810   4.189
   404G12  C002 7295   1.541   2.808   4.047
   404G12  C001 7296   1.565   2.700   3.954
   404G12  C00M 7297   1.501   2.570   3.964
   404G12  C00L 7298   1.525   2.490   4.081
   404G12  C00R 7299   1.444   2.375   4.118
   404G12  C00Q 7300   1.339   2.302   4.044
   404G12  C00V 7301   1.281   2.202   4.123
   404G12  C00U 7302   1.299   2.186   4.262
   404G12  C00T 7303   1.369   2.284   4.335
   404G12  C016 7304   1.366   2.305   4.467
   404G12  C015 7305   1.302   2.214   4.547
   404G12  C010 7306   1.247   2.099   4.488
   404G12  C011 7307   1.187   1.998   4.571
   404G12  H005 7308   1.138   1.907   4.540
   404G12  C012 7309   1.169   2.013   4.709
   404G12  C017 7310   1.101   1.924   4.801
   404G12  O002 7311   1.009   1.990   4.882
   404G12  H004 7312   0.958   1.921   4.922
   404G12  C018 7313   1.119   1.789   4.802
   404G12  O001 7314   1.215   1.734   4.720
   404G12  H003 7315   1.212   1.640   4.730
   404G12  C019 7316   1.052   1.694   4.908
   404G12  H002 7317   1.001   1.613   4.855
   404G12  H001 7318   1.132   1.658   4.972
   404G12  O000 7319   0.937   1.762   4.969
   404G12  C01A 7320   0.920   1.761   5.105
   404G12  C02K 7321   0.817   1.840   5.156
   404G12  O00G 7322   0.753   1.908   5.057
   404G12  C02M 7323   0.656   2.005   5.086
   404G12  H01G 7324   0.597   2.025   4.997
   404G12  H01F 7325   0.705   2.098   5.114
   404G12  H01E 7326   0.581   1.980   5.162
   404G12  C02J 7327   0.796   1.858   5.297
   404G12  H01H 7328   0.720   1.924   5.337
   404G12  C02I 7329   0.876   1.791   5.391
   404G12  C02N 7330   0.864   1.814   5.529
   404G12  H01M 7331   0.765   1.809   5.571
   404G12  C02O 7332   0.968   1.847   5.602
   404G12  H01L 7333   1.068   1.847   5.562
   404G12  C02P 7334   0.962   1.877   5.751
   404G12  H01K 7335   1.062   1.907   5.782
   404G12  H01J 7336   0.880   1.943   5.780
   404G12  O00H 7337   0.944   1.748   5.808
   404G12  H01I 7338   0.880   1.750   5.877
   404G12  C02H 7339   0.976   1.705   5.342
   404G12  H01C 7340   1.043   1.649   5.407
   404G12  C02L 7341   0.999   1.692   5.198
   404G12  H01D 7342   1.078   1.625   5.167
   404G12  C013 7343   1.232   2.132   4.763
   404G12  H000 7344   1.230   2.127   4.871
   404G12  C014 7345   1.295   2.233   4.689
   404G12  C00F 7346   1.333   2.357   4.739
   404G12  C00H 7347   1.435   2.414   4.523
   404G12  C00I 7348   1.523   2.494   4.445
   404G12  C00J 7349   1.535   2.460   4.309
   404G12  C00Z 7350   1.234   2.091   4.344
   404G12  C00Y 7351   1.159   1.993   4.274
   404G12  H006 7352   1.100   1.921   4.329
   404G12  C00X 7353   1.129   2.000   4.135
   404G12  O003 7354   1.042   1.923   4.062
   404G12  C01B 7355   0.976   1.815   4.138
   404G12  H009 7356   1.045   1.753   4.195
   404G12  H008 7357   0.912   1.750   4.077
   404G12  H007 7358   0.907   1.870   4.202
   404G12  C00W 7359   1.192   2.103   4.064
   404G12  O004 7360   1.174   2.103   3.933
   404G12  C01C 7361   1.189   2.228   3.868
   404G12  H00A 7362   1.129   2.241   3.779
   404G12  C00P 7363   1.285   2.328   3.914
   404G12  C00O 7364   1.316   2.445   3.827
   404G12  C01D 7365   1.237   2.476   3.712
   404G12  H00S 7366   1.158   2.411   3.679
   404G12  C01E 7367   1.243   2.599   3.637
   404G12  O008 7368   1.147   2.614   3.538
   404G12  C01V 7369   1.172   2.688   3.422
   404G12  C01Z 7370   1.059   2.780   3.380
   404G12  H00R 7371   1.028   2.765   3.277
   404G12  H00Q 7372   0.969   2.765   3.441
   404G12  O009 7373   1.108   2.913   3.383
   404G12  H00P 7374   1.202   2.919   3.373
   404G12  C01W 7375   1.289   2.667   3.351
   404G12  H00O 7376   1.368   2.604   3.390
   404G12  C01X 7377   1.317   2.725   3.209
   404G12  H00N 7378   1.331   2.637   3.146
   404G12  H00M 7379   1.231   2.773   3.164
   404G12  C01Y 7380   1.434   2.817   3.222
   404G12  C02D 7381   1.419   2.957   3.204
   404G12  H019 7382   1.320   2.997   3.189
   404G12  C02C 7383   1.524   3.046   3.211
   404G12  H01A 7384   1.510   3.153   3.209
   404G12  C02B 7385   1.653   2.991   3.220
   404G12  O00E 7386   1.765   3.075   3.219
   404G12  H01B 7387   1.829   3.006   3.235
   404G12  C02F 7388   1.675   2.854   3.239
   404G12  O00F 7389   1.804   2.812   3.266
   404G12  C02G 7390   1.835   2.676   3.310
   404G12  H017 7391   1.944   2.682   3.316
   404G12  H016 7392   1.815   2.605   3.230
   404G12  H015 7393   1.791   2.650   3.406
   404G12  C02E 7394   1.563   2.763   3.248
   404G12  H018 7395   1.574   2.656   3.256
   404G12  C01F 7396   1.329   2.694   3.684
   404G12  C01G 7397   1.322   2.838   3.654
   404G12  H00L 7398   1.253   2.884   3.585
   404G12  C01H 7399   1.390   2.934   3.737
   404G12  H00B 7400   1.356   3.036   3.720
   404G12  C01I 7401   1.478   2.886   3.834
   404G12  C01U 7402   1.431   2.660   3.774
   404G12  C00S 7403   1.446   2.366   4.258
   404G12  C00K 7404   1.565   2.552   4.208
   404G12  C00N 7405   1.414   2.541   3.853
   404G12  C000 7406   1.524   2.751   3.828
   404G12  C01J 7407   1.512   2.925   3.966
   404G12  C01K 7408   1.467   3.051   4.024
   404G12  C01P 7409   1.457   3.178   3.963
   404G12  C01Q 7410   1.517   3.212   3.838
   404G12  H00G 7411   1.613   3.167   3.816
   404G12  C01R 7412   1.462   3.290   3.742
   404G12  H00F 7413   1.366   3.338   3.749
   404G12  C01S 7414   1.535   3.321   3.615
   404G12  H00E 7415   1.586   3.417   3.613
   404G12  H00D 7416   1.614   3.247   3.605
   404G12  O005 7417   1.446   3.299   3.502
   404G12  H00C 7418   1.489   3.322   3.421
   404G12  C01O 7419   1.396   3.281   4.035
   404G12  H00H 7420   1.374   3.375   3.986
   404G12  C01N 7421   1.351   3.259   4.166
   404G12  O006 7422   1.293   3.356   4.247
   404G12  C01T 7423   1.270   3.484   4.195
   404G12  H00K 7424   1.358   3.523   4.144
   404G12  H00J 7425   1.242   3.550   4.277
   404G12  H00I 7426   1.184   3.487   4.128
   404G12  C01M 7427   1.394   3.148   4.238
   404G12  C020 7428   1.573   2.686   4.262
   404G12  C021 7429   1.591   2.716   4.406
   404G12  C01L 7430   1.453   3.037   4.167
   404G12  O007 7431   1.372   3.147   4.371
   404G12  C022 7432   1.535   2.829   4.460
   404G12  C023 7433   1.560   2.613   4.503
   404G12  C00G 7434   1.404   2.450   4.656
   404G12  C00E 7435   1.296   2.395   4.870
   404G12  O00A 7436   1.243   2.316   4.974
   404G12  C024 7437   1.100   2.327   4.981
   404G12  H00V 7438   1.055   2.286   4.890
   404G12  H00U 7439   1.071   2.431   4.987
   404G12  H00T 7440   1.053   2.271   5.062
   414G12  C00D 7441   0.907   0.564   8.140
   414G12  O00B 7442   0.920   0.425   8.155
   414G12  C025 7443   1.021   0.365   8.219
   414G12  C026 7444   1.004   0.348   8.373
   414G12  H00Y 7445   1.055   0.431   8.422
   414G12  H00X 7446   1.047   0.256   8.412
   414G12  O00C 7447   0.863   0.356   8.401
   414G12  H00W 7448   0.824   0.299   8.336
   414G12  C027 7449   1.135   0.325   8.149
   414G12  O00D 7450   1.149   0.336   8.014
   414G12  H00Z 7451   1.071   0.380   7.983
   414G12  C028 7452   1.238   0.244   8.213
   414G12  C029 7453   1.322   0.298   8.308
   414G12  H010 7454   1.312   0.404   8.330
   414G12  C02T 7455   1.418   0.225   8.385
   414G12  H01O 7456   1.475   0.272   8.464
   414G12  C02S 7457   1.431   0.086   8.351
   414G12  O00J 7458   1.514   0.004   8.429
   414G12  H01P 7459   1.514  -0.085   8.398
   414G12  C02R 7460   1.345   0.025   8.255
   414G12  O00I 7461   1.335  -0.111   8.243
   414G12  C02Q 7462   1.211  -0.164   8.289
   414G12  H01N 7463   1.221  -0.270   8.268
   414G12  H01R 7464   1.123  -0.137   8.230
   414G12  H01Q 7465   1.198  -0.150   8.396
   414G12  C02A 7466   1.254   0.106   8.186
   414G12  H011 7467   1.190   0.057   8.114
   414G12  C00C 7468   0.978   0.655   8.221
   414G12  H012 7469   1.044   0.620   8.299
   414G12  C00B 7470   0.945   0.792   8.232
   414G12  C00A 7471   0.982   0.887   8.336
   414G12  C009 7472   1.017   0.863   8.475
   414G12  C008 7473   1.027   0.747   8.559
   414G12  H013 7474   1.045   0.653   8.509
   414G12  C007 7475   0.982   0.749   8.697
   414G12  H014 7476   0.970   0.662   8.759
   414G12  C006 7477   0.934   0.875   8.747
   414G12  C005 7478   0.933   0.989   8.663
   414G12  C004 7479   0.874   1.115   8.699
   414G12  C003 7480   0.846   1.217   8.602
   414G12  C002 7481   0.777   1.336   8.654
   414G12  C001 7482   0.711   1.448   8.589
   414G12  C00M 7483   0.639   1.432   8.466
   414G12  C00L 7484   0.695   1.365   8.354
   414G12  C00R 7485   0.624   1.331   8.233
   414G12  C00Q 7486   0.481   1.345   8.205
   414G12  C00V 7487   0.438   1.274   8.085
   414G12  C00U 7488   0.509   1.173   8.027
   414G12  C00T 7489   0.634   1.145   8.071
   414G12  C016 7490   0.693   1.022   8.058
   414G12  C015 7491   0.639   0.939   7.965
   414G12  C010 7492   0.538   0.983   7.882
   414G12  C011 7493   0.500   0.904   7.769
   414G12  H005 7494   0.411   0.929   7.713
   414G12  C012 7495   0.583   0.791   7.731
   414G12  C017 7496   0.571   0.729   7.597
   414G12  O002 7497   0.630   0.604   7.595
   414G12  H004 7498   0.624   0.574   7.506
   414G12  C018 7499   0.517   0.776   7.481
   414G12  O001 7500   0.477   0.904   7.478
   414G12  H003 7501   0.511   0.964   7.543
   414G12  C019 7502   0.494   0.692   7.359
   414G12  H002 7503   0.393   0.651   7.365
   414G12  H001 7504   0.494   0.758   7.272
   414G12  O000 7505   0.590   0.583   7.337
   414G12  C01A 7506   0.565   0.502   7.227
   414G12  C02K 7507   0.594   0.539   7.092
   414G12  O00G 7508   0.664   0.651   7.077
   414G12  C02M 7509   0.635   0.728   6.960
   414G12  H01G 7510   0.689   0.822   6.967
   414G12  H01F 7511   0.530   0.751   6.945
   414G12  H01E 7512   0.674   0.673   6.874
   414G12  C02J 7513   0.559   0.452   6.979
   414G12  H01H 7514   0.604   0.461   6.881
   414G12  C02I 7515   0.497   0.325   7.003
   414G12  C02N 7516   0.474   0.245   6.883
   414G12  H01M 7517   0.495   0.282   6.784
   414G12  C02O 7518   0.439   0.116   6.894
   414G12  H01L 7519   0.411   0.071   6.988
   414G12  C02P 7520   0.421   0.028   6.775
   414G12  H01K 7521   0.320  -0.009   6.757
   414G12  H01J 7522   0.458   0.084   6.689
   414G12  O00H 7523   0.498  -0.090   6.794
   414G12  H01I 7524   0.588  -0.066   6.809
   414G12  C02H 7525   0.459   0.296   7.136
   414G12  H01C 7526   0.409   0.204   7.163
   414G12  C02L 7527   0.499   0.378   7.244
   414G12  H01D 7528   0.480   0.343   7.345
   414G12  C013 7529   0.675   0.746   7.827
   414G12  H000 7530   0.729   0.654   7.810
   414G12  C014 7531   0.696   0.813   7.948
   414G12  C00F 7532   0.782   0.765   8.047
   414G12  C00H 7533   0.806   0.982   8.139
   414G12  C00I 7534   0.871   1.073   8.224
   414G12  C00J 7535   0.802   1.195   8.241
   414G12  C00Z 7536   0.461   1.095   7.927
   414G12  C00Y 7537   0.333   1.120   7.862
   414G12  H006 7538   0.294   1.063   7.779
   414G12  C00X 7539   0.259   1.229   7.915
   414G12  O003 7540   0.135   1.271   7.868
   414G12  C01B 7541   0.062   1.187   7.780
   414G12  H009 7542  -0.042   1.214   7.765
   414G12  H008 7543   0.075   1.079   7.794
   414G12  H007 7544   0.115   1.203   7.686
   414G12  C00W 7545   0.315   1.304   8.021
   414G12  O004 7546   0.237   1.402   8.071
   414G12  C01C 7547   0.244   1.410   8.209
   414G12  H00A 7548   0.156   1.449   8.257
   414G12  C00P 7549   0.373   1.405   8.278
   414G12  C00O 7550   0.383   1.446   8.413
   414G12  C01D 7551   0.261   1.469   8.488
   414G12  H00S 7552   0.162   1.471   8.443
   414G12  C01E 7553   0.261   1.475   8.634
   414G12  O008 7554   0.146   1.458   8.705
   414G12  C01V 7555   0.022   1.468   8.648
   414G12  C01Z 7556  -0.047   1.330   8.649
   414G12  H00R 7557  -0.050   1.279   8.745
   414G12  H00Q 7558  -0.147   1.315   8.608
   414G12  O009 7559   0.035   1.269   8.564
   414G12  H00P 7560   0.122   1.303   8.577
   414G12  C01W 7561  -0.028   1.579   8.588
   414G12  H00O 7562   0.036   1.663   8.567
   414G12  C01X 7563  -0.165   1.580   8.520
   414G12  H00N 7564  -0.230   1.500   8.556
   414G12  H00M 7565  -0.221   1.673   8.536
   414G12  C01Y 7566  -0.132   1.543   8.376
   414G12  C02D 7567  -0.143   1.648   8.280
   414G12  H019 7568  -0.158   1.749   8.317
   414G12  C02C 7569  -0.140   1.622   8.141
   414G12  H01A 7570  -0.168   1.699   8.071
   414G12  C02B 7571  -0.110   1.496   8.101
   414G12  O00E 7572  -0.093   1.479   7.966
   414G12  H01B 7573  -0.051   1.395   7.957
   414G12  C02F 7574  -0.096   1.388   8.190
   414G12  O00F 7575  -0.078   1.264   8.127
   414G12  C02G 7576  -0.112   1.151   8.203
   414G12  H017 7577  -0.047   1.134   8.289
   414G12  H016 7578  -0.108   1.062   8.140
   414G12  H015 7579  -0.208   1.151   8.255
   414G12  C02E 7580  -0.109   1.413   8.331
   414G12  H018 7581  -0.116   1.322   8.389
   414G12  C01F 7582   0.383   1.480   8.703
   414G12  C01G 7583   0.402   1.466   8.839
   414G12  H00L 7584   0.315   1.458   8.903
   414G12  C01H 7585   0.529   1.432   8.896
   414G12  H00B 7586   0.532   1.390   8.996
   414G12  C01I 7587   0.640   1.435   8.807
   414G12  C01U 7588   0.504   1.495   8.629
   414G12  C00S 7589   0.692   1.230   8.165
   414G12  C00K 7590   0.803   1.271   8.366
   414G12  C00N 7591   0.502   1.458   8.494
   414G12  C000 7592   0.630   1.505   8.689
   414G12  C01J 7593   0.743   1.340   8.794
   414G12  C01K 7594   0.781   1.244   8.889
   414G12  C01P 7595   0.777   1.258   9.029
   414G12  C01Q 7596   0.749   1.384   9.093
   414G12  H00G 7597   0.792   1.468   9.042
   414G12  C01R 7598   0.691   1.403   9.210
   414G12  H00F 7599   0.654   1.314   9.259
   414G12  C01S 7600   0.699   1.535   9.285
   414G12  H00E 7601   0.776   1.526   9.362
   414G12  H00D 7602   0.738   1.616   9.223
   414G12  O005 7603   0.565   1.564   9.324
   414G12  H00C 7604   0.551   1.648   9.366
   414G12  C01O 7605   0.812   1.150   9.117
   414G12  H00H 7606   0.798   1.170   9.222
   414G12  C01N 7607   0.833   1.024   9.065
   414G12  O006 7608   0.837   0.911   9.140
   414G12  C01T 7609   0.708   0.861   9.165
   414G12  H00K 7610   0.713   0.758   9.199
   414G12  H00J 7611   0.648   0.862   9.073
   414G12  H00I 7612   0.652   0.918   9.239
   414G12  C01M 7613   0.854   1.015   8.925
   414G12  C020 7614   0.874   1.198   8.469
   414G12  C021 7615   0.958   1.086   8.444
   414G12  C01L 7616   0.839   1.129   8.836
   414G12  O007 7617   0.882   0.888   8.875
   414G12  C022 7618   0.992   0.990   8.540
   414G12  C023 7619   0.963   1.025   8.314
   414G12  C00G 7620   0.850   0.850   8.137
   414G12  C00E 7621   0.808   0.620   8.054
   414G12  O00A 7622   0.713   0.543   8.001
   414G12  C024 7623   0.599   0.532   8.094
   414G12  H00V 7624   0.539   0.622   8.083
   414G12  H00U 7625   0.640   0.530   8.195
   414G12  H00T 7626   0.540   0.440   8.092
   424G12  C00D 7627   3.252   3.176   3.310
   424G12  O00B 7628   3.328   3.290   3.288
   424G12  C025 7629   3.265   3.416   3.296
   424G12  C026 7630   3.289   3.490   3.166
   424G12  H00Y 7631   3.257   3.594   3.170
   424G12  H00X 7632   3.231   3.436   3.092
   424G12  O00C 7633   3.429   3.480   3.146
   424G12  H00W 7634   3.457   3.398   3.185
   424G12  C027 7635   3.198   3.456   3.410
   424G12  O00D 7636   3.202   3.381   3.523
   424G12  H00Z 7637   3.271   3.318   3.512
   424G12  C028 7638   3.117   3.575   3.398
   424G12  C029 7639   3.015   3.587   3.300
   424G12  H010 7640   3.006   3.508   3.227
   424G12  C02T 7641   2.925   3.699   3.305
   424G12  H01O 7642   2.853   3.708   3.225
   424G12  C02S 7643   2.930   3.785   3.409
   424G12  O00J 7644   2.842   3.891   3.419
   424G12  H01P 7645   2.848   3.941   3.499
   424G12  C02R 7646   3.039   3.781   3.506
   424G12  O00I 7647   3.049   3.887   3.590
   424G12  C02Q 7648   3.164   3.900   3.672
   424G12  H01N 7649   3.142   3.985   3.736
   424G12  H01R 7650   3.248   3.918   3.605
   424G12  H01Q 7651   3.206   3.815   3.727
   424G12  C02A 7652   3.134   3.679   3.492
   424G12  H011 7653   3.211   3.672   3.567
   424G12  C00C 7654   3.114   3.174   3.278
   424G12  H012 7655   3.080   3.257   3.217
   424G12  C00B 7656   3.034   3.060   3.302
   424G12  C00A 7657   2.903   3.032   3.251
   424G12  C009 7658   2.793   3.126   3.227
   424G12  C008 7659   2.787   3.266   3.233
   424G12  H013 7660   2.874   3.331   3.230
   424G12  C007 7661   2.658   3.330   3.240
   424G12  H014 7662   2.644   3.436   3.225
   424G12  C006 7663   2.542   3.252   3.270
   424G12  C005 7664   2.562   3.111   3.280
   424G12  C004 7665   2.464   3.023   3.332
   424G12  C003 7666   2.493   2.890   3.364
   424G12  C002 7667   2.393   2.810   3.429
   424G12  C001 7668   2.394   2.675   3.480
   424G12  C00M 7669   2.498   2.605   3.548
   424G12  C00L 7670   2.628   2.623   3.504
   424G12  C00R 7671   2.742   2.585   3.584
   424G12  C00Q 7672   2.755   2.535   3.719
   424G12  C00V 7673   2.888   2.529   3.767
   424G12  C00U 7674   2.995   2.599   3.703
   424G12  C00T 7675   2.979   2.663   3.584
   424G12  C016 7676   3.063   2.755   3.523
   424G12  C015 7677   3.181   2.781   3.586
   424G12  C010 7678   3.214   2.697   3.699
   424G12  C011 7679   3.338   2.725   3.759
   424G12  H005 7680   3.367   2.683   3.855
   424G12  C012 7681   3.431   2.819   3.710
   424G12  C017 7682   3.561   2.829   3.776
   424G12  O002 7683   3.643   2.722   3.785
   424G12  H004 7684   3.654   2.678   3.701
   424G12  C018 7685   3.596   2.952   3.824
   424G12  O001 7686   3.517   3.064   3.802
   424G12  H003 7687   3.578   3.128   3.837
   424G12  C019 7688   3.725   2.994   3.885
   424G12  H002 7689   3.747   2.924   3.966
   424G12  H001 7690   3.798   2.996   3.804
   424G12  O000 7691   3.723   3.130   3.923
   424G12  C01A 7692   3.652   3.164   4.040
   424G12  C02K 7693   3.670   3.290   4.099
   424G12  O00G 7694   3.768   3.375   4.057
   424G12  C02M 7695   3.898   3.330   4.103
   424G12  H01G 7696   3.973   3.399   4.066
   424G12  H01F 7697   3.929   3.230   4.071
   424G12  H01E 7698   3.907   3.336   4.212
   424G12  C02J 7699   3.581   3.334   4.198
   424G12  H01H 7700   3.590   3.435   4.236
   424G12  C02I 7701   3.488   3.247   4.257
   424G12  C02N 7702   3.384   3.287   4.353
   424G12  H01M 7703   3.347   3.218   4.427
   424G12  C02O 7704   3.345   3.417   4.356
   424G12  H01L 7705   3.397   3.493   4.300
   424G12  C02P 7706   3.234   3.468   4.451
   424G12  H01K 7707   3.175   3.543   4.397
   424G12  H01J 7708   3.164   3.393   4.487
   424G12  O00H 7709   3.297   3.524   4.559
   424G12  H01I 7710   3.304   3.616   4.539
   424G12  C02H 7711   3.484   3.115   4.216
   424G12  H01C 7712   3.413   3.048   4.263
   424G12  C02L 7713   3.559   3.073   4.103
   424G12  H01D 7714   3.542   2.970   4.075
   424G12  C013 7715   3.397   2.896   3.604
   424G12  H000 7716   3.482   2.951   3.566
   424G12  C014 7717   3.267   2.883   3.538
   424G12  C00F 7718   3.223   2.972   3.442
   424G12  C00H 7719   3.022   2.839   3.417
   424G12  C00I 7720   2.897   2.821   3.361
   424G12  C00J 7721   2.811   2.715   3.412
   424G12  C00Z 7722   3.121   2.609   3.759
   424G12  C00Y 7723   3.148   2.540   3.878
   424G12  H006 7724   3.244   2.549   3.926
   424G12  C00X 7725   3.045   2.477   3.957
   424G12  O003 7726   3.062   2.422   4.084
   424G12  C01B 7727   3.110   2.516   4.178
   424G12  H009 7728   3.067   2.616   4.174
   424G12  H008 7729   3.219   2.525   4.178
   424G12  H007 7730   3.098   2.474   4.278
   424G12  C00W 7731   2.911   2.476   3.901
   424G12  O004 7732   2.814   2.412   3.976
   424G12  C01C 7733   2.687   2.412   3.933
   424G12  H00A 7734   2.616   2.345   3.980
   424G12  C00P 7735   2.653   2.488   3.815
   424G12  C00O 7736   2.523   2.541   3.807
   424G12  C01D 7737   2.456   2.570   3.930
   424G12  H00S 7738   2.505   2.545   4.023
   424G12  C01E 7739   2.340   2.646   3.939
   424G12  O008 7740   2.294   2.680   4.064
   424G12  C01V 7741   2.373   2.759   4.139
   424G12  C01Z 7742   2.403   2.695   4.268
   424G12  H00R 7743   2.428   2.589   4.257
   424G12  H00Q 7744   2.481   2.749   4.321
   424G12  O009 7745   2.288   2.693   4.347
   424G12  H00P 7746   2.214   2.664   4.295
   424G12  C01W 7747   2.430   2.869   4.091
   424G12  H00O 7748   2.397   2.903   3.994
   424G12  C01X 7749   2.530   2.955   4.177
   424G12  H00N 7750   2.512   3.062   4.163
   424G12  H00M 7751   2.515   2.938   4.284
   424G12  C01Y 7752   2.675   2.931   4.144
   424G12  C02D 7753   2.706   2.839   4.041
   424G12  H019 7754   2.630   2.789   3.984
   424G12  C02C 7755   2.840   2.812   4.016
   424G12  H01A 7756   2.875   2.749   3.936
   424G12  C02B 7757   2.946   2.878   4.082
   424G12  O00E 7758   3.075   2.863   4.037
   424G12  H01B 7759   3.126   2.942   4.052
   424G12  C02F 7760   2.919   2.965   4.186
   424G12  O00F 7761   3.026   3.022   4.255
   424G12  C02G 7762   3.008   3.098   4.378
   424G12  H017 7763   3.107   3.139   4.401
   424G12  H016 7764   2.972   3.030   4.456
   424G12  H015 7765   2.948   3.185   4.351
   424G12  C02E 7766   2.783   2.989   4.221
   424G12  H018 7767   2.761   3.056   4.303
   424G12  C01F 7768   2.277   2.686   3.817
   424G12  C01G 7769   2.180   2.786   3.812
   424G12  H00L 7770   2.142   2.831   3.902
   424G12  C01H 7771   2.142   2.845   3.684
   424G12  H00B 7772   2.077   2.931   3.693
   424G12  C01I 7773   2.210   2.799   3.564
   424G12  C01U 7774   2.327   2.635   3.694
   424G12  C00S 7775   2.854   2.639   3.522
   424G12  C00K 7776   2.671   2.724   3.411
   424G12  C00N 7777   2.462   2.587   3.686
   424G12  C000 7778   2.283   2.675   3.565
   424G12  C01J 7779   2.275   2.877   3.468
   424G12  C01K 7780   2.235   3.007   3.421
   424G12  C01P 7781   2.108   3.072   3.439
   424G12  C01Q 7782   1.999   2.980   3.464
   424G12  H00G 7783   2.003   2.873   3.448
   424G12  C01R 7784   1.883   3.023   3.525
   424G12  H00F 7785   1.879   3.127   3.556
   424G12  C01S 7786   1.763   2.938   3.563
   424G12  H00E 7787   1.687   3.001   3.516
   424G12  H00D 7788   1.746   2.839   3.519
   424G12  O005 7789   1.747   2.949   3.705
   424G12  H00C 7790   1.658   2.919   3.721
   424G12  C01O 7791   2.087   3.208   3.398
   424G12  H00H 7792   2.002   3.274   3.410
   424G12  C01N 7793   2.197   3.283   3.361
   424G12  O006 7794   2.183   3.415   3.325
   424G12  C01T 7795   2.202   3.500   3.433
   424G12  H00K 7796   2.294   3.481   3.489
   424G12  H00J 7797   2.128   3.503   3.512
   424G12  H00I 7798   2.221   3.596   3.385
   424G12  C01M 7799   2.326   3.223   3.339
   424G12  C020 7800   2.619   2.834   3.338
   424G12  C021 7801   2.706   2.914   3.254
   424G12  C01L 7802   2.343   3.085   3.365
   424G12  O007 7803   2.421   3.305   3.294
   424G12  C022 7804   2.679   3.048   3.238
   424G12  C023 7805   2.850   2.908   3.268
   424G12  C00G 7806   3.095   2.959   3.388
   424G12  C00E 7807   3.308   3.074   3.386
   424G12  O00A 7808   3.443   3.085   3.403
   424G12  C024 7809   3.512   3.017   3.298
   424G12  H00V 7810   3.607   2.990   3.344
   424G12  H00U 7811   3.524   3.078   3.209
   424G12  H00T 7812   3.474   2.922   3.261
   434G12  C00D 7813   4.325   3.434   8.297
   434G12  O00B 7814   4.317   3.481   8.429
   434G12  C025 7815   4.252   3.405   8.524
   434G12  C026 7816   4.333   3.309   8.600
   434G12  H00Y 7817   4.289   3.215   8.633
   434G12  H00X 7818   4.345   3.336   8.704
   434G12  O00C 7819   4.464   3.301   8.538
   434G12  H00W 7820   4.460   3.365   8.468
   434G12  C027 7821   4.119   3.436   8.550
   434G12  O00D 7822   4.049   3.529   8.479
   434G12  H00Z 7823   3.958   3.506   8.489
   434G12  C028 7824   4.043   3.363   8.644
   434G12  C029 7825   3.996   3.236   8.602
   434G12  H010 7826   4.016   3.194   8.505
   434G12  C02T 7827   3.910   3.158   8.679
   434G12  H01O 7828   3.876   3.062   8.646
   434G12  C02S 7829   3.881   3.198   8.809
   434G12  O00J 7830   3.812   3.113   8.886
   434G12  H01P 7831   3.809   3.162   8.967
   434G12  C02R 7832   3.935   3.316   8.857
   434G12  O00I 7833   3.913   3.346   8.988
   434G12  C02Q 7834   4.023   3.428   9.054
   434G12  H01N 7835   4.023   3.525   9.005
   434G12  H01R 7836   4.118   3.386   9.021
   434G12  H01Q 7837   4.018   3.437   9.162
   434G12  C02A 7838   4.017   3.401   8.775
   434G12  H011 7839   4.070   3.492   8.801
   434G12  C00C 7840   4.404   3.513   8.217
   434G12  H012 7841   4.447   3.599   8.266
   434G12  C00B 7842   4.449   3.472   8.091
   434G12  C00A 7843   4.547   3.541   8.010
   434G12  C009 7844   4.568   3.676   7.990
   434G12  C008 7845   4.494   3.791   8.042
   434G12  H013 7846   4.435   3.766   8.129
   434G12  C007 7847   4.487   3.905   7.967
   434G12  H014 7848   4.439   3.994   8.005
   434G12  C006 7849   4.529   3.907   7.830
   434G12  C005 7850   4.597   3.797   7.785
   434G12  C004 7851   4.622   3.780   7.642
   434G12  C003 7852   4.654   3.651   7.594
   434G12  C002 7853   4.678   3.638   7.450
   434G12  C001 7854   4.713   3.530   7.369
   434G12  C00M 7855   4.645   3.398   7.369
   434G12  C00L 7856   4.624   3.333   7.491
   434G12  C00R 7857   4.526   3.229   7.511
   434G12  C00Q 7858   4.432   3.162   7.427
   434G12  C00V 7859   4.337   3.077   7.495
   434G12  C00U 7860   4.311   3.088   7.632
   434G12  C00T 7861   4.385   3.173   7.711
   434G12  C016 7862   4.354   3.218   7.837
   434G12  C015 7863   4.248   3.156   7.895
   434G12  C010 7864   4.175   3.055   7.826
   434G12  C011 7865   4.068   2.994   7.900
   434G12  H005 7866   4.018   2.907   7.860
   434G12  C012 7867   4.023   3.040   8.026
   434G12  C017 7868   3.928   2.964   8.106
   434G12  O002 7869   3.794   2.997   8.100
   434G12  H004 7870   3.767   2.922   8.151
   434G12  C018 7871   3.971   2.860   8.182
   434G12  O001 7872   4.106   2.826   8.177
   434G12  H003 7873   4.146   2.863   8.100
   434G12  C019 7874   3.887   2.763   8.261
   434G12  H002 7875   3.927   2.662   8.252
   434G12  H001 7876   3.889   2.790   8.366
   434G12  O000 7877   3.749   2.766   8.225
   434G12  C01A 7878   3.701   2.674   8.137
   434G12  C02K 7879   3.583   2.608   8.171
   434G12  O00G 7880   3.524   2.649   8.289
   434G12  C02M 7881   3.408   2.585   8.332
   434G12  H01G 7882   3.331   2.609   8.258
   434G12  H01F 7883   3.390   2.621   8.433
   434G12  H01E 7884   3.414   2.477   8.342
   434G12  C02J 7885   3.516   2.526   8.070
   434G12  H01H 7886   3.418   2.488   8.097
   434G12  C02I 7887   3.569   2.502   7.942
   434G12  C02N 7888   3.494   2.422   7.835
   434G12  H01M 7889   3.463   2.322   7.860
   434G12  C02O 7890   3.500   2.453   7.706
   434G12  H01L 7891   3.553   2.541   7.674
   434G12  C02P 7892   3.442   2.368   7.597
   434G12  H01K 7893   3.525   2.322   7.543
   434G12  H01J 7894   3.371   2.293   7.632
   434G12  O00H 7895   3.366   2.447   7.513
   434G12  H01I 7896   3.342   2.521   7.567
   434G12  C02H 7897   3.696   2.563   7.917
   434G12  H01C 7898   3.739   2.554   7.818
   434G12  C02L 7899   3.759   2.649   8.008
   434G12  H01D 7900   3.857   2.689   7.988
   434G12  C013 7901   4.088   3.147   8.080
   434G12  H000 7902   4.041   3.177   8.172
   434G12  C014 7903   4.211   3.198   8.025
   434G12  C00F 7904   4.287   3.299   8.094
   434G12  C00H 7905   4.435   3.315   7.903
   434G12  C00I 7906   4.547   3.367   7.842
   434G12  C00J 7907   4.581   3.315   7.712
   434G12  C00Z 7908   4.207   3.018   7.695
   434G12  C00Y 7909   4.140   2.922   7.616
   434G12  H006 7910   4.057   2.869   7.662
   434G12  C00X 7911   4.168   2.890   7.483
   434G12  O003 7912   4.102   2.780   7.434
   434G12  C01B 7913   4.089   2.760   7.296
   434G12  H009 7914   4.179   2.731   7.242
   434G12  H008 7915   4.045   2.842   7.240
   434G12  H007 7916   4.023   2.676   7.278
   434G12  C00W 7917   4.259   2.979   7.413
   434G12  O004 7918   4.270   2.974   7.281
   434G12  C01C 7919   4.346   3.070   7.217
   434G12  H00A 7920   4.363   3.049   7.113
   434G12  C00P 7921   4.420   3.172   7.284
   434G12  C00O 7922   4.468   3.278   7.208
   434G12  C01D 7923   4.400   3.311   7.081
   434G12  H00S 7924   4.323   3.249   7.039
   434G12  C01E 7925   4.412   3.434   7.011
   434G12  O008 7926   4.349   3.468   6.901
   434G12  C01V 7927   4.322   3.376   6.801
   434G12  C01Z 7928   4.194   3.409   6.726
   434G12  H00R 7929   4.151   3.502   6.763
   434G12  H00Q 7930   4.220   3.436   6.624
   434G12  O009 7931   4.093   3.311   6.735
   434G12  H00P 7932   4.037   3.332   6.808
   434G12  C01W 7933   4.406   3.277   6.768
   434G12  H00O 7934   4.503   3.271   6.815
   434G12  C01X 7935   4.377   3.178   6.662
   434G12  H00N 7936   4.293   3.211   6.601
   434G12  H00M 7937   4.469   3.184   6.604
   434G12  C01Y 7938   4.359   3.045   6.726
   434G12  C02D 7939   4.437   2.931   6.687
   434G12  H019 7940   4.502   2.934   6.601
   434G12  C02C 7941   4.422   2.806   6.750
   434G12  H01A 7942   4.485   2.723   6.722
   434G12  C02B 7943   4.325   2.799   6.861
   434G12  O00E 7944   4.306   2.688   6.928
   434G12  H01B 7945   4.239   2.704   6.994
   434G12  C02F 7946   4.242   2.911   6.894
   434G12  O00F 7947   4.139   2.891   6.978
   434G12  C02G 7948   4.032   2.986   6.979
   434G12  H017 7949   4.001   3.013   6.878
   434G12  H016 7950   4.059   3.075   7.036
   434G12  H015 7951   3.949   2.946   7.037
   434G12  C02E 7952   4.262   3.036   6.833
   434G12  H018 7953   4.202   3.121   6.861
   434G12  C01F 7954   4.497   3.535   7.074
   434G12  C01G 7955   4.481   3.669   7.048
   434G12  H00L 7956   4.403   3.702   6.981
   434G12  C01H 7957   4.554   3.765   7.131
   434G12  H00B 7958   4.510   3.863   7.135
   434G12  C01I 7959   4.643   3.713   7.234
   434G12  C01U 7960   4.592   3.494   7.168
   434G12  C00S 7961   4.502   3.223   7.649
   434G12  C00K 7962   4.637   3.402   7.614
   434G12  C00N 7963   4.561   3.377   7.254
   434G12  C000 7964   4.683   3.582   7.237
   434G12  C01J 7965   4.654   3.757   7.372
   434G12  C01K 7966   4.616   3.891   7.420
   434G12  C01P 7967   4.606   4.016   7.350
   434G12  C01Q 7968   4.660   4.033   7.223
   434G12  H00G 7969   4.739   3.966   7.194
   434G12  C01R 7970   4.619   4.131   7.141
   434G12  H00F 7971   4.539   4.197   7.170
   434G12  C01S 7972   4.675   4.164   7.003
   434G12  H00E 7973   4.589   4.154   6.937
   434G12  H00D 7974   4.716   4.265   6.993
   434G12  O005 7975   4.776   4.069   6.974
   434G12  H00C 7976   4.812   4.084   6.888
   434G12  C01O 7977   4.556   4.130   7.422
   434G12  H00H 7978   4.544   4.223   7.370
   434G12  C01N 7979   4.530   4.129   7.560
   434G12  O006 7980   4.480   4.235   7.627
   434G12  C01T 7981   4.433   4.343   7.551
   434G12  H00K 7982   4.359   4.317   7.476
   434G12  H00J 7983   4.513   4.396   7.501
   434G12  H00I 7984   4.390   4.417   7.620
   434G12  C01M 7985   4.555   4.010   7.625
   434G12  C020 7986   4.664   3.535   7.668
   434G12  C021 7987   4.666   3.563   7.813
   434G12  C01L 7988   4.609   3.892   7.562
   434G12  O007 7989   4.517   4.015   7.758
   434G12  C022 7990   4.639   3.690   7.866
   434G12  C023 7991   4.610   3.473   7.908
   434G12  C00G 7992   4.391   3.359   8.030
   434G12  C00E 7993   4.267   3.319   8.233
   434G12  O00A 7994   4.191   3.243   8.318
   434G12  C024 7995   4.247   3.117   8.351
   434G12  H00V 7996   4.351   3.113   8.384
   434G12  H00U 7997   4.247   3.046   8.268
   434G12  H00T 7998   4.183   3.070   8.426
   444G12  C00D 7999   5.603   2.592   8.126
   444G12  O00B 8000   5.480   2.653   8.099
   444G12  C025 8001   5.464   2.746   7.998
   444G12  C026 8002   5.384   2.688   7.878
   444G12  H00Y 8003   5.329   2.768   7.829
   444G12  H00X 8004   5.321   2.603   7.902
   444G12  O00C 8005   5.471   2.652   7.774
   444G12  H00W 8006   5.534   2.590   7.806
   444G12  C027 8007   5.503   2.877   8.006
   444G12  O00D 8008   5.581   2.913   8.114
   444G12  H00Z 8009   5.580   2.834   8.165
   444G12  C028 8010   5.468   2.984   7.916
   444G12  C029 8011   5.464   2.970   7.777
   444G12  H010 8012   5.503   2.880   7.733
   444G12  C02T 8013   5.420   3.070   7.688
   444G12  H01O 8014   5.414   3.042   7.584
   444G12  C02S 8015   5.391   3.190   7.747
   444G12  O00J 8016   5.339   3.293   7.668
   444G12  H01P 8017   5.303   3.353   7.732
   444G12  C02R 8018   5.388   3.211   7.888
   444G12  O00I 8019   5.371   3.338   7.932
   444G12  C02Q 8020   5.353   3.370   8.068
   444G12  H01N 8021   5.259   3.329   8.103
   444G12  H01R 8022   5.359   3.476   8.095
   444G12  H01Q 8023   5.430   3.325   8.131
   444G12  C02A 8024   5.429   3.109   7.971
   444G12  H011 8025   5.419   3.131   8.077
   444G12  C00C 8026   5.641   2.583   8.258
   444G12  H012 8027   5.568   2.618   8.329
   444G12  C00B 8028   5.762   2.520   8.298
   444G12  C00A 8029   5.814   2.500   8.434
   444G12  C009 8030   5.787   2.565   8.554
   444G12  C008 8031   5.721   2.689   8.579
   444G12  H013 8032   5.663   2.731   8.499
   444G12  C007 8033   5.755   2.759   8.692
   444G12  H014 8034   5.702   2.853   8.702
   444G12  C006 8035   5.857   2.720   8.785
   444G12  C005 8036   5.924   2.604   8.747
   444G12  C004 8037   6.045   2.567   8.807
   444G12  C003 8038   6.124   2.463   8.752
   444G12  C002 8039   6.256   2.445   8.804
   444G12  C001 8040   6.375   2.373   8.762
   444G12  C00M 8041   6.417   2.370   8.618
   444G12  C00L 8042   6.332   2.349   8.513
   444G12  C00R 8043   6.364   2.370   8.375
   444G12  C00Q 8044   6.482   2.409   8.299
   444G12  C00V 8045   6.460   2.413   8.160
   444G12  C00U 8046   6.331   2.411   8.101
   444G12  C00T 8047   6.216   2.389   8.181
   444G12  C016 8048   6.091   2.419   8.143
   444G12  C015 8049   6.069   2.460   8.009
   444G12  C010 8050   6.175   2.453   7.921
   444G12  C011 8051   6.151   2.478   7.781
   444G12  H005 8052   6.229   2.459   7.709
   444G12  C012 8053   6.026   2.526   7.738
   444G12  C017 8054   5.997   2.570   7.605
   444G12  O002 8055   6.072   2.666   7.552
   444G12  H004 8056   6.033   2.673   7.466
   444G12  C018 8057   5.895   2.511   7.541
   444G12  O001 8058   5.830   2.411   7.606
   444G12  H003 8059   5.865   2.393   7.692
   444G12  C019 8060   5.836   2.543   7.404
   444G12  H002 8061   5.832   2.451   7.345
   444G12  H001 8062   5.734   2.579   7.415
   444G12  O000 8063   5.926   2.638   7.337
   444G12  C01A 8064   5.871   2.693   7.219
   444G12  C02K 8065   5.755   2.770   7.218
   444G12  O00G 8066   5.683   2.808   7.336
   444G12  C02M 8067   5.542   2.778   7.333
   444G12  H01G 8068   5.515   2.771   7.439
   444G12  H01F 8069   5.516   2.687   7.278
   444G12  H01E 8070   5.486   2.859   7.288
   444G12  C02J 8071   5.721   2.844   7.103
   444G12  H01H 8072   5.638   2.912   7.112
   444G12  C02I 8073   5.802   2.833   6.980
   444G12  C02N 8074   5.775   2.910   6.861
   444G12  H01M 8075   5.846   2.929   6.782
   444G12  C02O 8076   5.655   2.959   6.840
   444G12  H01L 8077   5.584   2.924   6.913
   444G12  C02P 8078   5.609   3.042   6.719
   444G12  H01K 8079   5.556   3.136   6.736
   444G12  H01J 8080   5.697   3.057   6.657
   444G12  O00H 8081   5.513   2.957   6.660
   444G12  H01I 8082   5.462   3.019   6.610
   444G12  C02H 8083   5.913   2.746   6.985
   444G12  H01C 8084   5.965   2.743   6.891
   444G12  C02L 8085   5.949   2.679   7.100
   444G12  H01D 8086   6.036   2.616   7.087
   444G12  C013 8087   5.926   2.544   7.838
   444G12  H000 8088   5.834   2.584   7.797
   444G12  C014 8089   5.942   2.499   7.972
   444G12  C00F 8090   5.835   2.511   8.066
   444G12  C00H 8091   5.988   2.431   8.239
   444G12  C00I 8092   6.004   2.382   8.367
   444G12  C00J 8093   6.136   2.350   8.398
   444G12  C00Z 8094   6.308   2.439   7.968
   444G12  C00Y 8095   6.420   2.460   7.885
   444G12  H006 8096   6.402   2.488   7.782
   444G12  C00X 8097   6.553   2.453   7.935
   444G12  O003 8098   6.666   2.461   7.861
   444G12  C01B 8099   6.647   2.509   7.724
   444G12  H009 8100   6.608   2.610   7.727
   444G12  H008 8101   6.585   2.442   7.664
   444G12  H007 8102   6.743   2.510   7.672
   444G12  C00W 8103   6.572   2.444   8.075
   444G12  O004 8104   6.699   2.463   8.124
   444G12  C01C 8105   6.713   2.473   8.260
   444G12  H00A 8106   6.812   2.484   8.303
   444G12  C00P 8107   6.609   2.448   8.354
   444G12  C00O 8108   6.628   2.477   8.492
   444G12  C01D 8109   6.737   2.564   8.526
   444G12  H00S 8110   6.781   2.611   8.439
   444G12  C01E 8111   6.753   2.616   8.656
   444G12  O008 8112   6.843   2.715   8.680
   444G12  C01V 8113   6.962   2.721   8.604
   444G12  C01Z 8114   6.975   2.827   8.494
   444G12  H00R 8115   6.905   2.908   8.513
   444G12  H00Q 8116   7.074   2.871   8.482
   444G12  O009 8117   6.949   2.775   8.367
   444G12  H00P 8118   7.010   2.705   8.353
   444G12  C01W 8119   7.050   2.614   8.615
   444G12  H00O 8120   7.018   2.531   8.676
   444G12  C01X 8121   7.184   2.606   8.550
   444G12  H00N 8122   7.228   2.706   8.548
   444G12  H00M 8123   7.249   2.537   8.604
   444G12  C01Y 8124   7.172   2.563   8.406
   444G12  C02D 8125   7.090   2.462   8.358
   444G12  H019 8126   7.026   2.401   8.420
   444G12  C02C 8127   7.085   2.426   8.219
   444G12  H01A 8128   7.031   2.344   8.174
   444G12  C02B 8129   7.176   2.494   8.130
   444G12  O00E 8130   7.178   2.462   7.999
   444G12  H01B 8131   7.229   2.529   7.956
   444G12  C02F 8132   7.261   2.596   8.178
   444G12  O00F 8133   7.346   2.643   8.081
   444G12  C02G 8134   7.418   2.758   8.123
   444G12  H017 8135   7.335   2.829   8.129
   444G12  H016 8136   7.500   2.786   8.057
   444G12  H015 8137   7.473   2.752   8.217
   444G12  C02E 8138   7.252   2.631   8.313
   444G12  H018 8139   7.320   2.705   8.352
   444G12  C01F 8140   6.665   2.581   8.756
   444G12  C01G 8141   6.644   2.663   8.876
   444G12  H00L 8142   6.706   2.749   8.897
   444G12  C01H 8143   6.530   2.634   8.960
   444G12  H00B 8144   6.509   2.703   9.040
   444G12  C01I 8145   6.441   2.534   8.919
   444G12  C01U 8146   6.581   2.470   8.741
   444G12  C00S 8147   6.241   2.359   8.315
   444G12  C00K 8148   6.190   2.348   8.532
   444G12  C00N 8149   6.543   2.438   8.608
   444G12  C000 8150   6.485   2.432   8.829
   444G12  C01J 8151   6.296   2.514   8.922
   444G12  C01K 8152   6.203   2.610   8.989
   444G12  C01P 8153   6.223   2.675   9.114
   444G12  C01Q 8154   6.339   2.640   9.189
   444G12  H00G 8155   6.367   2.536   9.197
   444G12  C01R 8156   6.399   2.724   9.275
   444G12  H00F 8157   6.373   2.828   9.279
   444G12  C01S 8158   6.505   2.670   9.376
   444G12  H00E 8159   6.462   2.655   9.475
   444G12  H00D 8160   6.551   2.578   9.340
   444G12  O005 8161   6.612   2.757   9.385
   444G12  H00C 8162   6.678   2.724   9.444
   444G12  C01O 8163   6.138   2.769   9.160
   444G12  H00H 8164   6.155   2.806   9.260
   444G12  C01N 8165   6.029   2.810   9.086
   444G12  O006 8166   5.942   2.903   9.135
   444G12  C01T 8167   5.876   2.875   9.263
   444G12  H00K 8168   5.866   2.967   9.320
   444G12  H00J 8169   5.929   2.807   9.330
   444G12  H00I 8170   5.785   2.830   9.221
   444G12  C01M 8171   6.006   2.748   8.964
   444G12  C020 8172   6.093   2.398   8.626
   444G12  C021 8173   5.955   2.416   8.598
   444G12  C01L 8174   6.087   2.640   8.916
   444G12  O007 8175   5.897   2.785   8.896
   444G12  C022 8176   5.879   2.518   8.649
   444G12  C023 8177   5.905   2.405   8.465
   444G12  C00G 8178   5.858   2.483   8.200
   444G12  C00E 8179   5.702   2.551   8.031
   444G12  O00A 8180   5.646   2.524   7.910
   444G12  C024 8181   5.633   2.381   7.885
   444G12  H00V 8182   5.595   2.352   7.787
   444G12  H00U 8183   5.572   2.318   7.949
   444G12  H00T 8184   5.730   2.334   7.895
   454G12  C00D 8185   3.807   4.638   4.429
   454G12  O00B 8186   3.877   4.568   4.332
   454G12  C025 8187   3.915   4.441   4.359
   454G12  C026 8188   3.804   4.337   4.315
   454G12  H00Y 8189   3.706   4.377   4.340
   454G12  H00X 8190   3.809   4.242   4.368
   454G12  O00C 8191   3.819   4.314   4.177
   454G12  H00W 8192   3.897   4.363   4.156
   454G12  C027 8193   4.032   4.429   4.427
   454G12  O00D 8194   4.095   4.546   4.463
   454G12  H00Z 8195   4.038   4.609   4.421
   454G12  C028 8196   4.085   4.303   4.462
   454G12  C029 8197   4.070   4.183   4.394
   454G12  H010 8198   4.020   4.173   4.298
   454G12  C02T 8199   4.117   4.063   4.449
   454G12  H01O 8200   4.096   3.972   4.395
   454G12  C02S 8201   4.188   4.057   4.568
   454G12  O00J 8202   4.215   3.939   4.634
   454G12  H01P 8203   4.251   3.943   4.721
   454G12  C02R 8204   4.205   4.176   4.637
   454G12  O00I 8205   4.281   4.172   4.754
   454G12  C02Q 8206   4.314   4.295   4.814
   454G12  H01N 8207   4.373   4.275   4.904
   454G12  H01R 8208   4.220   4.345   4.839
   454G12  H01Q 8209   4.371   4.348   4.737
   454G12  C02A 8210   4.150   4.300   4.586
   454G12  H011 8211   4.156   4.390   4.646
   454G12  C00C 8212   3.758   4.583   4.550
   454G12  H012 8213   3.771   4.479   4.577
   454G12  C00B 8214   3.701   4.665   4.652
   454G12  C00A 8215   3.651   4.629   4.779
   454G12  C009 8216   3.610   4.501   4.832
   454G12  C008 8217   3.589   4.374   4.770
   454G12  H013 8218   3.608   4.345   4.667
   454G12  C007 8219   3.505   4.280   4.836
   454G12  H014 8220   3.482   4.186   4.788
   454G12  C006 8221   3.440   4.311   4.958
   454G12  C005 8222   3.458   4.442   5.009
   454G12  C004 8223   3.367   4.500   5.095
   454G12  C003 8224   3.363   4.644   5.114
   454G12  C002 8225   3.264   4.691   5.203
   454G12  C001 8226   3.217   4.823   5.240
   454G12  C00M 8227   3.213   4.933   5.143
   454G12  C00L 8228   3.315   4.962   5.055
   454G12  C00R 8229   3.313   5.055   4.948
   454G12  C00Q 8230   3.215   5.147   4.895
   454G12  C00V 8231   3.256   5.208   4.770
   454G12  C00U 8232   3.368   5.171   4.696
   454G12  C00T 8233   3.447   5.068   4.744
   454G12  C016 8234   3.549   5.005   4.675
   454G12  C015 8235   3.574   5.050   4.546
   454G12  C010 8236   3.510   5.168   4.504
   454G12  C011 8237   3.557   5.228   4.384
   454G12  H005 8238   3.502   5.306   4.335
   454G12  C012 8239   3.671   5.182   4.315
   454G12  C017 8240   3.730   5.248   4.200
   454G12  O002 8241   3.780   5.170   4.104
   454G12  H004 8242   3.726   5.092   4.108
   454G12  C018 8243   3.723   5.381   4.178
   454G12  O001 8244   3.672   5.468   4.264
   454G12  H003 8245   3.643   5.534   4.203
   454G12  C019 8246   3.763   5.454   4.050
   454G12  H002 8247   3.863   5.498   4.046
   454G12  H001 8248   3.742   5.380   3.973
   454G12  O000 8249   3.671   5.562   4.046
   454G12  C01A 8250   3.642   5.622   3.927
   454G12  C02K 8251   3.557   5.738   3.932
   454G12  O00G 8252   3.503   5.775   4.059
   454G12  C02M 8253   3.361   5.773   4.078
   454G12  H01G 8254   3.347   5.689   4.146
   454G12  H01F 8255   3.306   5.747   3.988
   454G12  H01E 8256   3.311   5.863   4.113
   454G12  C02J 8257   3.526   5.812   3.817
   454G12  H01H 8258   3.454   5.892   3.823
   454G12  C02I 8259   3.587   5.779   3.693
   454G12  C02N 8260   3.561   5.837   3.566
   454G12  H01M 8261   3.603   5.803   3.472
   454G12  C02O 8262   3.475   5.942   3.554
   454G12  H01L 8263   3.428   5.995   3.636
   454G12  C02P 8264   3.452   6.021   3.424
   454G12  H01K 8265   3.454   6.128   3.446
   454G12  H01J 8266   3.532   6.015   3.350
   454G12  O00H 8267   3.327   5.972   3.365
   454G12  H01I 8268   3.328   5.878   3.377
   454G12  C02H 8269   3.686   5.678   3.695
   454G12  H01C 8270   3.728   5.648   3.601
   454G12  C02L 8271   3.710   5.602   3.810
   454G12  H01D 8272   3.773   5.514   3.804
   454G12  C013 8273   3.729   5.064   4.365
   454G12  H000 8274   3.808   5.024   4.304
   454G12  C014 8275   3.676   4.989   4.477
   454G12  C00F 8276   3.720   4.858   4.504
   454G12  C00H 8277   3.617   4.892   4.718
   454G12  C00I 8278   3.588   4.851   4.847
   454G12  C00J 8279   3.503   4.929   4.927
   454G12  C00Z 8280   3.404   5.225   4.573
   454G12  C00Y 8281   3.321   5.331   4.519
   454G12  H006 8282   3.345   5.365   4.420
   454G12  C00X 8283   3.213   5.370   4.588
   454G12  O003 8284   3.125   5.461   4.536
   454G12  C01B 8285   3.182   5.566   4.457
   454G12  H009 8286   3.209   5.548   4.353
   454G12  H008 8287   3.272   5.608   4.502
   454G12  H007 8288   3.119   5.654   4.443
   454G12  C00W 8289   3.174   5.302   4.706
   454G12  O004 8290   3.061   5.340   4.763
   454G12  C01C 8291   3.002   5.257   4.852
   454G12  H00A 8292   2.894   5.252   4.844
   454G12  C00P 8293   3.078   5.157   4.929
   454G12  C00O 8294   3.013   5.070   5.028
   454G12  C01D 8295   2.867   5.061   5.040
   454G12  H00S 8296   2.806   5.130   4.983
   454G12  C01E 8297   2.790   4.963   5.108
   454G12  O008 8298   2.652   4.950   5.110
   454G12  C01V 8299   2.575   5.048   5.048
   454G12  C01Z 8300   2.514   4.995   4.913
   454G12  H00R 8301   2.489   4.890   4.926
   454G12  H00Q 8302   2.425   5.053   4.887
   454G12  O009 8303   2.600   5.022   4.807
   454G12  H00P 8304   2.666   4.955   4.796
   454G12  C01W 8305   2.552   5.168   5.105
   454G12  H00O 8306   2.595   5.201   5.198
   454G12  C01X 8307   2.453   5.271   5.061
   454G12  H00N 8308   2.369   5.217   5.016
   454G12  H00M 8309   2.413   5.333   5.141
   454G12  C01Y 8310   2.525   5.348   4.954
   454G12  C02D 8311   2.644   5.413   4.980
   454G12  H019 8312   2.687   5.412   5.078
   454G12  C02C 8313   2.722   5.471   4.882
   454G12  H01A 8314   2.820   5.514   4.896
   454G12  C02B 8315   2.676   5.466   4.748
   454G12  O00E 8316   2.737   5.531   4.643
   454G12  H01B 8317   2.693   5.508   4.563
   454G12  C02F 8318   2.555   5.398   4.718
   454G12  O00F 8319   2.526   5.388   4.582
   454G12  C02G 8320   2.423   5.304   4.530
   454G12  H017 8321   2.429   5.212   4.589
   454G12  H016 8322   2.446   5.282   4.426
   454G12  H015 8323   2.327   5.352   4.512
   454G12  C02E 8324   2.480   5.342   4.825
   454G12  H018 8325   2.384   5.296   4.804
   454G12  C01F 8326   2.864   4.866   5.179
   454G12  C01G 8327   2.809   4.739   5.224
   454G12  H00L 8328   2.705   4.714   5.209
   454G12  C01H 8329   2.905   4.634   5.253
   454G12  H00B 8330   2.869   4.532   5.254
   454G12  C01I 8331   3.038   4.671   5.276
   454G12  C01U 8332   3.005   4.884   5.197
   454G12  C00S 8333   3.437   5.037   4.880
   454G12  C00K 8334   3.423   4.871   5.029
   454G12  C00N 8335   3.078   4.979   5.114
   454G12  C000 8336   3.084   4.803   5.277
   454G12  C01J 8337   3.158   4.601   5.244
   454G12  C01K 8338   3.169   4.458   5.243
   454G12  C01P 8339   3.092   4.359   5.313
   454G12  C01Q 8340   3.009   4.400   5.422
   454G12  H00G 8341   3.028   4.488   5.482
   454G12  C01R 8342   2.902   4.332   5.472
   454G12  H00F 8343   2.866   4.247   5.416
   454G12  C01S 8344   2.825   4.368   5.594
   454G12  H00E 8345   2.797   4.473   5.586
   454G12  H00D 8346   2.731   4.314   5.606
   454G12  O005 8347   2.899   4.356   5.713
   454G12  H00C 8348   2.904   4.433   5.767
   454G12  C01O 8349   3.108   4.220   5.278
   454G12  H00H 8350   3.052   4.144   5.331
   454G12  C01N 8351   3.184   4.183   5.169
   454G12  O006 8352   3.195   4.047   5.132
   454G12  C01T 8353   3.252   3.970   5.233
   454G12  H00K 8354   3.357   3.996   5.245
   454G12  H00J 8355   3.246   3.865   5.205
   454G12  H00I 8356   3.206   3.995   5.329
   454G12  C01M 8357   3.269   4.276   5.112
   454G12  C020 8358   3.454   4.735   5.052
   454G12  C021 8359   3.561   4.664   4.987
   454G12  C01L 8360   3.273   4.414   5.154
   454G12  O007 8361   3.354   4.225   5.018
   454G12  C022 8362   3.553   4.529   4.958
   454G12  C023 8363   3.636   4.725   4.881
   454G12  C00G 8364   3.680   4.805   4.626
   454G12  C00E 8365   3.787   4.777   4.404
   454G12  O00A 8366   3.838   4.818   4.276
   454G12  C024 8367   3.752   4.794   4.168
   454G12  H00V 8368   3.797   4.784   4.070
   454G12  H00U 8369   3.675   4.871   4.160
   454G12  H00T 8370   3.711   4.693   4.176
   464G12  C00D 8371   0.980   4.147   8.350
   464G12  O00B 8372   1.050   4.242   8.422
   464G12  C025 8373   1.073   4.361   8.362
   464G12  C026 8374   1.204   4.357   8.276
   464G12  H00Y 8375   1.279   4.289   8.316
   464G12  H00X 8376   1.254   4.454   8.274
   464G12  O00C 8377   1.179   4.311   8.144
   464G12  H00W 8378   1.248   4.323   8.081
   464G12  C027 8379   0.991   4.464   8.387
   464G12  O00D 8380   0.894   4.444   8.476
   464G12  H00Z 8381   0.916   4.360   8.512
   464G12  C028 8382   0.995   4.580   8.308
   464G12  C029 8383   0.998   4.704   8.366
   464G12  H010 8384   0.998   4.715   8.473
   464G12  C02T 8385   1.005   4.824   8.295
   464G12  H01O 8386   1.000   4.914   8.355
   464G12  C02S 8387   1.026   4.812   8.152
   464G12  O00J 8388   1.030   4.926   8.074
   464G12  H01P 8389   1.055   4.902   7.986
   464G12  C02R 8390   1.025   4.689   8.083
   464G12  O00I 8391   1.024   4.694   7.947
   464G12  C02Q 8392   1.042   4.564   7.884
   464G12  H01N 8393   1.025   4.584   7.778
   464G12  H01R 8394   0.960   4.498   7.915
   464G12  H01Q 8395   1.136   4.511   7.897
   464G12  C02A 8396   0.999   4.577   8.168
   464G12  H011 8397   1.000   4.482   8.117
   464G12  C00C 8398   0.914   4.177   8.234
   464G12  H012 8399   0.911   4.277   8.193
   464G12  C00B 8400   0.849   4.080   8.159
   464G12  C00A 8401   0.785   4.094   8.028
   464G12  C009 8402   0.720   4.203   7.970
   464G12  C008 8403   0.691   4.335   8.021
   464G12  H013 8404   0.740   4.370   8.110
   464G12  C007 8405   0.582   4.401   7.955
   464G12  H014 8406   0.554   4.498   7.995
   464G12  C006 8407   0.498   4.339   7.858
   464G12  C005 8408   0.531   4.207   7.818
   464G12  C004 8409   0.428   4.128   7.759
   464G12  C003 8410   0.450   3.987   7.755
   464G12  C002 8411   0.340   3.908   7.702
   464G12  C001 8412   0.325   3.766   7.682
   464G12  C00M 8413   0.346   3.673   7.788
   464G12  C00L 8414   0.470   3.673   7.852
   464G12  C00R 8415   0.493   3.597   7.974
   464G12  C00Q 8416   0.422   3.490   8.041
   464G12  C00V 8417   0.479   3.449   8.162
   464G12  C00U 8418   0.588   3.526   8.226
   464G12  C00T 8419   0.654   3.632   8.161
   464G12  C016 8420   0.746   3.721   8.212
   464G12  C015 8421   0.769   3.704   8.345
   464G12  C010 8422   0.722   3.589   8.417
   464G12  C011 8423   0.767   3.570   8.548
   464G12  H005 8424   0.723   3.484   8.596
   464G12  C012 8425   0.868   3.651   8.606
   464G12  C017 8426   0.932   3.621   8.733
   464G12  O002 8427   0.953   3.725   8.824
   464G12  H004 8428   0.981   3.671   8.896
   464G12  C018 8429   0.950   3.493   8.765
   464G12  O001 8430   0.940   3.399   8.664
   464G12  H003 8431   0.910   3.440   8.584
   464G12  C019 8432   1.011   3.443   8.895
   464G12  H002 8433   0.971   3.347   8.928
   464G12  H001 8434   1.116   3.427   8.872
   464G12  O000 8435   1.005   3.535   9.003
   464G12  C01A 8436   1.098   3.514   9.103
   464G12  C02K 8437   1.171   3.626   9.144
   464G12  O00G 8438   1.146   3.751   9.088
   464G12  C02M 8439   1.166   3.869   9.165
   464G12  H01G 8440   1.268   3.904   9.181
   464G12  H01F 8441   1.116   3.844   9.259
   464G12  H01E 8442   1.106   3.954   9.133
   464G12  C02J 8443   1.260   3.614   9.253
   464G12  H01H 8444   1.307   3.706   9.283
   464G12  C02I 8445   1.284   3.498   9.321
   464G12  C02N 8446   1.376   3.508   9.434
   464G12  H01M 8447   1.429   3.600   9.451
   464G12  C02O 8448   1.398   3.396   9.503
   464G12  H01L 8449   1.361   3.295   9.488
   464G12  C02P 8450   1.497   3.392   9.615
   464G12  H01K 8451   1.554   3.299   9.610
   464G12  H01J 8452   1.568   3.474   9.605
   464G12  O00H 8453   1.417   3.398   9.728
   464G12  H01I 8454   1.357   3.469   9.712
   464G12  C02H 8455   1.218   3.382   9.266
   464G12  H01C 8456   1.237   3.289   9.317
   464G12  C02L 8457   1.128   3.389   9.159
   464G12  H01D 8458   1.069   3.307   9.122
   464G12  C013 8459   0.903   3.767   8.535
   464G12  H000 8460   0.969   3.832   8.591
   464G12  C014 8461   0.858   3.797   8.406
   464G12  C00F 8462   0.897   3.915   8.339
   464G12  C00H 8463   0.784   3.839   8.142
   464G12  C00I 8464   0.737   3.858   8.014
   464G12  C00J 8465   0.657   3.756   7.958
   464G12  C00Z 8466   0.625   3.504   8.358
   464G12  C00Y 8467   0.562   3.400   8.425
   464G12  H006 8468   0.580   3.383   8.530
   464G12  C00X 8469   0.467   3.317   8.368
   464G12  O003 8470   0.412   3.231   8.465
   464G12  C01B 8471   0.322   3.124   8.432
   464G12  H009 8472   0.220   3.161   8.413
   464G12  H008 8473   0.301   3.068   8.523
   464G12  H007 8474   0.363   3.064   8.351
   464G12  C00W 8475   0.418   3.345   8.237
   464G12  O004 8476   0.319   3.266   8.176
   464G12  C01C 8477   0.272   3.305   8.054
   464G12  H00A 8478   0.204   3.237   8.005
   464G12  C00P 8479   0.298   3.435   8.002
   464G12  C00O 8480   0.209   3.487   7.908
   464G12  C01D 8481   0.072   3.447   7.918
   464G12  H00S 8482   0.030   3.373   7.984
   464G12  C01E 8483  -0.031   3.519   7.850
   464G12  O008 8484  -0.163   3.474   7.872
   464G12  C01V 8485  -0.236   3.417   7.769
   464G12  C01Z 8486  -0.373   3.369   7.801
   464G12  H00R 8487  -0.428   3.443   7.859
   464G12  H00Q 8488  -0.438   3.350   7.716
   464G12  O009 8489  -0.376   3.252   7.879
   464G12  H00P 8490  -0.336   3.183   7.828
   464G12  C01W 8491  -0.186   3.407   7.642
   464G12  H00O 8492  -0.083   3.425   7.614
   464G12  C01X 8493  -0.244   3.349   7.514
   464G12  H00N 8494  -0.174   3.289   7.456
   464G12  H00M 8495  -0.324   3.278   7.533
   464G12  C01Y 8496  -0.291   3.465   7.429
   464G12  C02D 8497  -0.431   3.483   7.410
   464G12  H019 8498  -0.503   3.408   7.440
   464G12  C02C 8499  -0.479   3.591   7.333
   464G12  H01A 8500  -0.585   3.596   7.310
   464G12  C02B 8501  -0.392   3.686   7.288
   464G12  O00E 8502  -0.429   3.787   7.204
   464G12  H01B 8503  -0.355   3.831   7.165
   464G12  C02F 8504  -0.256   3.679   7.307
   464G12  O00F 8505  -0.181   3.779   7.246
   464G12  C02G 8506  -0.037   3.774   7.261
   464G12  H017 8507   0.010   3.681   7.228
   464G12  H016 8508  -0.012   3.764   7.367
   464G12  H015 8509   0.012   3.861   7.216
   464G12  C02E 8510  -0.205   3.570   7.382
   464G12  H018 8511  -0.105   3.539   7.409
   464G12  C01F 8512   0.002   3.633   7.770
   464G12  C01G 8513  -0.086   3.737   7.726
   464G12  H00L 8514  -0.192   3.719   7.739
   464G12  C01H 8515  -0.026   3.860   7.682
   464G12  H00B 8516  -0.094   3.943   7.679
   464G12  C01I 8517   0.111   3.866   7.648
   464G12  C01U 8518   0.138   3.642   7.726
   464G12  C00S 8519   0.610   3.656   8.033
   464G12  C00K 8520   0.562   3.783   7.853
   464G12  C00N 8521   0.232   3.588   7.814
   464G12  C000 8522   0.186   3.747   7.647
   464G12  C01J 8523   0.213   3.966   7.663
   464G12  C01K 8524   0.195   4.112   7.665
   464G12  C01P 8525   0.088   4.194   7.615
   464G12  C01Q 8526  -0.016   4.132   7.532
   464G12  H00G 8527   0.009   4.054   7.462
   464G12  C01R 8528  -0.144   4.176   7.534
   464G12  H00F 8529  -0.165   4.247   7.613
   464G12  C01S 8530  -0.265   4.140   7.444
   464G12  H00E 8531  -0.276   4.203   7.355
   464G12  H00D 8532  -0.256   4.038   7.406
   464G12  O005 8533  -0.392   4.149   7.503
   464G12  H00C 8534  -0.413   4.064   7.538
   464G12  C01O 8535   0.081   4.333   7.635
   464G12  H00H 8536   0.002   4.397   7.597
   464G12  C01N 8537   0.185   4.397   7.695
   464G12  O006 8538   0.191   4.536   7.701
   464G12  C01T 8539   0.073   4.608   7.663
   464G12  H00K 8540   0.043   4.603   7.558
   464G12  H00J 8541   0.082   4.715   7.681
   464G12  H00I 8542  -0.009   4.602   7.735
   464G12  C01M 8543   0.295   4.326   7.741
   464G12  C020 8544   0.565   3.916   7.808
   464G12  C021 8545   0.668   4.005   7.846
   464G12  C01L 8546   0.307   4.182   7.722
   464G12  O007 8547   0.383   4.398   7.819
   464G12  C022 8548   0.641   4.138   7.870
   464G12  C023 8549   0.770   3.978   7.946
   464G12  C00G 8550   0.849   3.948   8.212
   464G12  C00E 8551   0.975   4.018   8.404
   464G12  O00A 8552   1.069   3.994   8.504
   464G12  C024 8553   1.182   3.920   8.459
   464G12  H00V 8554   1.148   3.846   8.386
   464G12  H00U 8555   1.236   3.877   8.543
   464G12  H00T 8556   1.249   3.993   8.413
   474G12  C00D 8557   0.509   4.694   6.229
   474G12  O00B 8558   0.401   4.649   6.300
   474G12  C025 8559   0.322   4.565   6.231
   474G12  C026 8560   0.365   4.425   6.192
   474G12  H00Y 8561   0.284   4.358   6.220
   474G12  H00X 8562   0.447   4.390   6.254
   474G12  O00C 8563   0.394   4.398   6.056
   474G12  H00W 8564   0.486   4.413   6.041
   474G12  C027 8565   0.196   4.605   6.223
   474G12  O00D 8566   0.154   4.731   6.274
   474G12  H00Z 8567   0.213   4.751   6.344
   474G12  C028 8568   0.091   4.530   6.162
   474G12  C029 8569  -0.022   4.488   6.238
   474G12  H010 8570  -0.019   4.521   6.341
   474G12  C02T 8571  -0.129   4.414   6.173
   474G12  H01O 8572  -0.224   4.393   6.220
   474G12  C02S 8573  -0.116   4.373   6.039
   474G12  O00J 8574  -0.213   4.305   5.976
   474G12  H01P 8575  -0.210   4.304   5.882
   474G12  C02R 8576  -0.001   4.412   5.964
   474G12  O00I 8577   0.004   4.378   5.827
   474G12  C02Q 8578   0.131   4.377   5.760
   474G12  H01N 8579   0.120   4.347   5.656
   474G12  H01R 8580   0.200   4.312   5.814
   474G12  H01Q 8581   0.172   4.477   5.746
   474G12  C02A 8582   0.098   4.496   6.026
   474G12  H011 8583   0.176   4.534   5.963
   474G12  C00C 8584   0.517   4.698   6.090
   474G12  H012 8585   0.431   4.679   6.028
   474G12  C00B 8586   0.629   4.746   6.016
   474G12  C00A 8587   0.633   4.748   5.871
   474G12  C009 8588   0.569   4.662   5.773
   474G12  C008 8589   0.473   4.558   5.781
   474G12  H013 8590   0.403   4.549   5.863
   474G12  C007 8591   0.485   4.449   5.690
   474G12  H014 8592   0.433   4.356   5.707
   474G12  C006 8593   0.586   4.449   5.589
   474G12  C005 8594   0.676   4.557   5.579
   474G12  C004 8595   0.794   4.550   5.503
   474G12  C003 8596   0.893   4.643   5.520
   474G12  C002 8597   1.015   4.625   5.442
   474G12  C001 8598   1.140   4.695   5.447
   474G12  C00M 8599   1.209   4.721   5.568
   474G12  C00L 8600   1.152   4.793   5.675
   474G12  C00R 8601   1.204   4.816   5.809
   474G12  C00Q 8602   1.331   4.781   5.867
   474G12  C00V 8603   1.333   4.812   6.007
   474G12  C00U 8604   1.222   4.829   6.089
   474G12  C00T 8605   1.100   4.847   6.028
   474G12  C016 8606   0.978   4.838   6.096
   474G12  C015 8607   0.981   4.836   6.231
   474G12  C010 8608   1.099   4.824   6.296
   474G12  C011 8609   1.101   4.812   6.439
   474G12  H005 8610   1.193   4.786   6.489
   474G12  C012 8611   0.984   4.823   6.519
   474G12  C017 8612   0.993   4.811   6.663
   474G12  O002 8613   0.890   4.754   6.731
   474G12  H004 8614   0.907   4.741   6.823
   474G12  C018 8615   1.107   4.857   6.730
   474G12  O001 8616   1.204   4.927   6.670
   474G12  H003 8617   1.187   4.955   6.581
   474G12  C019 8618   1.131   4.832   6.880
   474G12  H002 8619   1.236   4.809   6.899
   474G12  H001 8620   1.113   4.922   6.939
   474G12  O000 8621   1.037   4.736   6.929
   474G12  C01A 8622   1.024   4.706   7.063
   474G12  C02K 8623   0.901   4.634   7.088
   474G12  O00G 8624   0.818   4.597   6.987
   474G12  C02M 8625   0.723   4.696   6.970
   474G12  H01G 8626   0.645   4.688   7.045
   474G12  H01F 8627   0.687   4.686   6.867
   474G12  H01E 8628   0.763   4.797   6.977
   474G12  C02J 8629   0.869   4.592   7.218
   474G12  H01H 8630   0.777   4.537   7.234
   474G12  C02I 8631   0.956   4.609   7.329
   474G12  C02N 8632   0.918   4.571   7.461
   474G12  H01M 8633   0.982   4.554   7.547
   474G12  C02O 8634   0.791   4.537   7.492
   474G12  H01L 8635   0.711   4.532   7.420
   474G12  C02P 8636   0.744   4.487   7.625
   474G12  H01K 8637   0.829   4.466   7.690
   474G12  H01J 8638   0.669   4.554   7.665
   474G12  O00H 8639   0.684   4.363   7.585
   474G12  H01I 8640   0.668   4.320   7.668
   474G12  C02H 8641   1.066   4.694   7.305
   474G12  H01C 8642   1.121   4.724   7.393
   474G12  C02L 8643   1.106   4.741   7.174
   474G12  H01D 8644   1.193   4.804   7.159
   474G12  C013 8645   0.862   4.827   6.448
   474G12  H000 8646   0.774   4.845   6.508
   474G12  C014 8647   0.858   4.825   6.301
   474G12  C00F 8648   0.738   4.796   6.230
   474G12  C00H 8649   0.856   4.829   6.025
   474G12  C00I 8650   0.859   4.842   5.882
   474G12  C00J 8651   0.980   4.864   5.811
   474G12  C00Z 8652   1.220   4.831   6.226
   474G12  C00Y 8653   1.350   4.821   6.292
   474G12  H006 8654   1.360   4.824   6.399
   474G12  C00X 8655   1.467   4.799   6.215
   474G12  O003 8656   1.592   4.803   6.276
   474G12  C01B 8657   1.611   4.825   6.412
   474G12  H009 8658   1.571   4.921   6.444
   474G12  H008 8659   1.714   4.819   6.446
   474G12  H007 8660   1.555   4.748   6.465
   474G12  C00W 8661   1.454   4.783   6.078
   474G12  O004 8662   1.567   4.747   6.003
   474G12  C01C 8663   1.551   4.686   5.884
   474G12  H00A 8664   1.573   4.581   5.896
   474G12  C00P 8665   1.444   4.716   5.801
   474G12  C00O 8666   1.439   4.647   5.673
   474G12  C01D 8667   1.535   4.547   5.638
   474G12  H00S 8668   1.625   4.530   5.696
   474G12  C01E 8669   1.525   4.451   5.532
   474G12  O008 8670   1.613   4.349   5.516
   474G12  C01V 8671   1.734   4.387   5.478
   474G12  C01Z 8672   1.748   4.423   5.333
   474G12  H00R 8673   1.818   4.351   5.292
   474G12  H00Q 8674   1.661   4.388   5.278
   474G12  O009 8675   1.768   4.559   5.314
   474G12  H00P 8676   1.804   4.583   5.398
   474G12  C01W 8677   1.847   4.372   5.559
   474G12  H00O 8678   1.832   4.334   5.659
   474G12  C01X 8679   1.992   4.411   5.521
   474G12  H00N 8680   2.061   4.344   5.570
   474G12  H00M 8681   2.001   4.406   5.412
   474G12  C01Y 8682   2.033   4.546   5.574
   474G12  C02D 8683   2.045   4.641   5.471
   474G12  H019 8684   2.020   4.617   5.369
   474G12  C02C 8685   2.084   4.770   5.504
   474G12  H01A 8686   2.094   4.848   5.429
   474G12  C02B 8687   2.128   4.803   5.633
   474G12  O00E 8688   2.192   4.923   5.651
   474G12  H01B 8689   2.250   4.935   5.725
   474G12  C02F 8690   2.106   4.710   5.735
   474G12  O00F 8691   2.120   4.758   5.866
   474G12  C02G 8692   2.114   4.661   5.965
   474G12  H017 8693   2.133   4.700   6.065
   474G12  H016 8694   2.169   4.567   5.955
   474G12  H015 8695   2.018   4.612   5.981
   474G12  C02E 8696   2.060   4.583   5.704
   474G12  H018 8697   2.045   4.506   5.778
   474G12  C01F 8698   1.421   4.472   5.439
   474G12  C01G 8699   1.376   4.375   5.344
   474G12  H00L 8700   1.426   4.282   5.327
   474G12  C01H 8701   1.249   4.388   5.287
   474G12  H00B 8702   1.208   4.305   5.232
   474G12  C01I 8703   1.166   4.503   5.316
   474G12  C01U 8704   1.337   4.587   5.456
   474G12  C00S 8705   1.095   4.861   5.887
   474G12  C00K 8706   1.007   4.811   5.681
   474G12  C00N 8707   1.335   4.655   5.576
   474G12  C000 8708   1.226   4.616   5.378
   474G12  C01J 8709   1.027   4.521   5.341
   474G12  C01K 8710   0.919   4.423   5.323
   474G12  C01P 8711   0.908   4.325   5.218
   474G12  C01Q 8712   1.000   4.322   5.105
   474G12  H00G 8713   1.068   4.404   5.088
   474G12  C01R 8714   1.001   4.228   5.009
   474G12  H00F 8715   0.943   4.138   5.022
   474G12  C01S 8716   1.086   4.241   4.890
   474G12  H00E 8717   1.019   4.273   4.811
   474G12  H00D 8718   1.168   4.310   4.907
   474G12  O005 8719   1.154   4.119   4.859
   474G12  H00C 8720   1.090   4.073   4.806
   474G12  C01O 8721   0.796   4.237   5.219
   474G12  H00H 8722   0.775   4.168   5.138
   474G12  C01N 8723   0.700   4.246   5.314
   474G12  O006 8724   0.597   4.151   5.299
   474G12  C01T 8725   0.628   4.038   5.377
   474G12  H00K 8726   0.536   3.979   5.366
   474G12  H00J 8727   0.660   4.049   5.481
   474G12  H00I 8728   0.703   3.986   5.318
   474G12  C01M 8729   0.706   4.340   5.415
   474G12  C020 8730   0.890   4.745   5.623
   474G12  C021 8731   0.759   4.758   5.682
   474G12  C01L 8732   0.812   4.438   5.414
   474G12  O007 8733   0.606   4.339   5.506
   474G12  C022 8734   0.661   4.666   5.665
   474G12  C023 8735   0.742   4.809   5.813
   474G12  C00G 8736   0.740   4.790   6.089
   474G12  C00E 8737   0.618   4.754   6.295
   474G12  O00A 8738   0.597   4.746   6.426
   474G12  C024 8739   0.635   4.624   6.495
   474G12  H00V 8740   0.541   4.574   6.518
   474G12  H00U 8741   0.687   4.633   6.590
   474G12  H00T 8742   0.686   4.557   6.426
   484G12  C00D 8743   6.575   2.360   6.828
   484G12  O00B 8744   6.554   2.489   6.785
   484G12  C025 8745   6.441   2.506   6.704
   484G12  C026 8746   6.302   2.487   6.775
   484G12  H00Y 8747   6.286   2.380   6.785
   484G12  H00X 8748   6.221   2.524   6.712
   484G12  O00C 8749   6.302   2.541   6.904
   484G12  H00W 8750   6.331   2.631   6.901
   484G12  C027 8751   6.468   2.545   6.575
   484G12  O00D 8752   6.591   2.578   6.531
   484G12  H00Z 8753   6.648   2.524   6.584
   484G12  C028 8754   6.366   2.562   6.478
   484G12  C029 8755   6.250   2.479   6.463
   484G12  H010 8756   6.238   2.396   6.532
   484G12  C02T 8757   6.149   2.509   6.368
   484G12  H01O 8758   6.053   2.460   6.373
   484G12  C02S 8759   6.164   2.619   6.280
   484G12  O00J 8760   6.064   2.659   6.194
   484G12  H01P 8761   6.071   2.747   6.161
   484G12  C02R 8762   6.280   2.699   6.291
   484G12  O00I 8763   6.289   2.810   6.209
   484G12  C02Q 8764   6.415   2.859   6.178
   484G12  H01N 8765   6.485   2.776   6.166
   484G12  H01R 8766   6.453   2.917   6.262
   484G12  H01Q 8767   6.423   2.921   6.089
   484G12  C02A 8768   6.375   2.672   6.390
   484G12  H011 8769   6.456   2.741   6.409
   484G12  C00C 8770   6.554   2.331   6.958
   484G12  H012 8771   6.527   2.414   7.021
   484G12  C00B 8772   6.572   2.207   7.018
   484G12  C00A 8773   6.559   2.181   7.161
   484G12  C009 8774   6.602   2.272   7.265
   484G12  C008 8775   6.649   2.408   7.258
   484G12  H013 8776   6.605   2.470   7.181
   484G12  C007 8777   6.744   2.448   7.356
   484G12  H014 8778   6.789   2.546   7.348
   484G12  C006 8779   6.804   2.361   7.447
   484G12  C005 8780   6.758   2.226   7.444
   484G12  C004 8781   6.834   2.124   7.506
   484G12  C003 8782   6.805   1.991   7.475
   484G12  C002 8783   6.894   1.897   7.536
   484G12  C001 8784   6.896   1.755   7.537
   484G12  C00M 8785   6.894   1.680   7.416
   484G12  C00L 8786   6.806   1.703   7.312
   484G12  C00R 8787   6.821   1.663   7.173
   484G12  C00Q 8788   6.917   1.576   7.110
   484G12  C00V 8789   6.910   1.582   6.968
   484G12  C00U 8790   6.829   1.669   6.896
   484G12  C00T 8791   6.746   1.757   6.958
   484G12  C016 8792   6.689   1.877   6.904
   484G12  C015 8793   6.713   1.897   6.770
   484G12  C010 8794   6.777   1.793   6.698
   484G12  C011 8795   6.785   1.807   6.559
   484G12  H005 8796   6.811   1.730   6.488
   484G12  C012 8797   6.733   1.918   6.496
   484G12  C017 8798   6.755   1.919   6.350
   484G12  O002 8799   6.867   1.881   6.288
   484G12  H004 8800   6.934   1.841   6.341
   484G12  C018 8801   6.661   1.973   6.272
   484G12  O001 8802   6.538   2.024   6.310
   484G12  H003 8803   6.516   2.074   6.233
   484G12  C019 8804   6.664   1.971   6.118
   484G12  H002 8805   6.749   1.915   6.077
   484G12  H001 8806   6.587   1.900   6.089
   484G12  O000 8807   6.639   2.094   6.061
   484G12  C01A 8808   6.728   2.195   6.079
   484G12  C02K 8809   6.679   2.324   6.041
   484G12  O00G 8810   6.544   2.338   6.003
   484G12  C02M 8811   6.480   2.462   6.036
   484G12  H01G 8812   6.508   2.501   6.134
   484G12  H01F 8813   6.373   2.445   6.045
   484G12  H01E 8814   6.494   2.547   5.969
   484G12  C02J 8815   6.765   2.438   6.045
   484G12  H01H 8816   6.736   2.535   6.007
   484G12  C02I 8817   6.897   2.425   6.090
   484G12  C02N 8818   6.988   2.539   6.077
   484G12  H01M 8819   6.956   2.640   6.060
   484G12  C02O 8820   7.118   2.513   6.099
   484G12  H01L 8821   7.156   2.413   6.108
   484G12  C02P 8822   7.232   2.615   6.084
   484G12  H01K 8823   7.192   2.714   6.063
   484G12  H01J 8824   7.289   2.621   6.177
   484G12  O00H 8825   7.314   2.591   5.976
   484G12  H01I 8826   7.377   2.661   5.973
   484G12  C02H 8827   6.933   2.298   6.148
   484G12  H01C 8828   7.030   2.278   6.192
   484G12  C02L 8829   6.854   2.183   6.139
   484G12  H01D 8830   6.892   2.088   6.175
   484G12  C013 8831   6.674   2.026   6.568
   484G12  H000 8832   6.635   2.103   6.503
   484G12  C014 8833   6.668   2.017   6.710
   484G12  C00F 8834   6.624   2.121   6.794
   484G12  C00H 8835   6.629   1.974   6.988
   484G12  C00I 8836   6.616   1.946   7.126
   484G12  C00J 8837   6.675   1.827   7.172
   484G12  C00Z 8838   6.838   1.682   6.759
   484G12  C00Y 8839   6.918   1.590   6.690
   484G12  H006 8840   6.924   1.589   6.582
   484G12  C00X 8841   7.001   1.498   6.761
   484G12  O003 8842   7.078   1.414   6.693
   484G12  C01B 8843   6.997   1.327   6.614
   484G12  H009 8844   7.042   1.228   6.626
   484G12  H008 8845   6.997   1.361   6.511
   484G12  H007 8846   6.898   1.307   6.655
   484G12  C00W 8847   7.006   1.509   6.902
   484G12  O004 8848   7.104   1.430   6.955
   484G12  C01C 8849   7.077   1.398   7.087
   484G12  H00A 8850   7.077   1.295   7.118
   484G12  C00P 8851   7.018   1.498   7.170
   484G12  C00O 8852   7.066   1.511   7.302
   484G12  C01D 8853   7.180   1.441   7.347
   484G12  H00S 8854   7.225   1.368   7.281
   484G12  C01E 8855   7.264   1.495   7.442
   484G12  O008 8856   7.388   1.438   7.447
   484G12  C01V 8857   7.499   1.509   7.489
   484G12  C01Z 8858   7.555   1.447   7.616
   484G12  H00R 8859   7.623   1.514   7.667
   484G12  H00Q 8860   7.479   1.418   7.688
   484G12  O009 8861   7.633   1.332   7.592
   484G12  H00P 8862   7.582   1.271   7.541
   484G12  C01W 8863   7.552   1.612   7.424
   484G12  H00O 8864   7.495   1.634   7.336
   484G12  C01X 8865   7.671   1.691   7.448
   484G12  H00N 8866   7.733   1.638   7.520
   484G12  H00M 8867   7.731   1.703   7.358
   484G12  C01Y 8868   7.614   1.827   7.496
   484G12  C02D 8869   7.601   1.869   7.628
   484G12  H019 8870   7.628   1.797   7.704
   484G12  C02C 8871   7.542   1.993   7.656
   484G12  H01A 8872   7.553   2.017   7.761
   484G12  C02B 8873   7.500   2.081   7.554
   484G12  O00E 8874   7.452   2.200   7.589
   484G12  H01B 8875   7.453   2.262   7.517
   484G12  C02F 8876   7.520   2.047   7.421
   484G12  O00F 8877   7.475   2.124   7.322
   484G12  C02G 8878   7.342   2.079   7.290
   484G12  H017 8879   7.262   2.076   7.365
   484G12  H016 8880   7.354   1.973   7.269
   484G12  H015 8881   7.304   2.122   7.197
   484G12  C02E 8882   7.579   1.919   7.393
   484G12  H018 8883   7.594   1.883   7.292
   484G12  C01F 8884   7.214   1.599   7.529
   484G12  C01G 8885   7.287   1.683   7.617
   484G12  H00L 8886   7.389   1.662   7.648
   484G12  C01H 8887   7.233   1.811   7.646
   484G12  H00B 8888   7.297   1.886   7.689
   484G12  C01I 8889   7.095   1.834   7.631
   484G12  C01U 8890   7.079   1.627   7.522
   484G12  C00S 8891   6.734   1.733   7.092
   484G12  C00K 8892   6.727   1.823   7.306
   484G12  C00N 8893   7.011   1.599   7.401
   484G12  C000 8894   7.017   1.720   7.604
   484G12  C01J 8895   7.003   1.942   7.610
   484G12  C01K 8896   7.034   2.076   7.652
   484G12  C01P 8897   7.136   2.126   7.739
   484G12  C01Q 8898   7.199   2.046   7.845
   484G12  H00G 8899   7.144   1.974   7.904
   484G12  C01R 8900   7.320   2.074   7.890
   484G12  H00F 8901   7.382   2.149   7.843
   484G12  C01S 8902   7.383   2.002   8.011
   484G12  H00E 8903   7.459   2.070   8.050
   484G12  H00D 8904   7.304   1.975   8.081
   484G12  O005 8905   7.448   1.893   7.965
   484G12  H00C 8906   7.403   1.818   8.000
   484G12  C01O 8907   7.170   2.264   7.734
   484G12  H00H 8908   7.243   2.310   7.798
   484G12  C01N 8909   7.092   2.354   7.662
   484G12  O006 8910   7.141   2.485   7.659
   484G12  C01T 8911   7.054   2.593   7.651
   484G12  H00K 8912   7.025   2.621   7.549
   484G12  H00J 8913   7.098   2.683   7.693
   484G12  H00I 8914   6.962   2.579   7.708
   484G12  C01M 8915   6.986   2.305   7.587
   484G12  C020 8916   6.711   1.945   7.377
   484G12  C021 8917   6.623   2.049   7.341
   484G12  C01L 8918   6.949   2.164   7.583
   484G12  O007 8919   6.921   2.391   7.505
   484G12  C022 8920   6.646   2.184   7.372
   484G12  C023 8921   6.564   2.049   7.209
   484G12  C00G 8922   6.607   2.101   6.937
   484G12  C00E 8923   6.616   2.258   6.742
   484G12  O00A 8924   6.657   2.306   6.622
   484G12  C024 8925   6.796   2.340   6.609
   484G12  H00V 8926   6.859   2.251   6.602
   484G12  H00U 8927   6.832   2.375   6.706
   484G12  H00T 8928   6.805   2.402   6.520
   494G12  C00D 8929   0.532   5.000   7.262
   494G12  O00B 8930   0.457   4.961   7.363
   494G12  C025 8931   0.511   4.975   7.488
   494G12  C026 8932   0.588   4.851   7.539
   494G12  H00Y 8933   0.538   4.759   7.510
   494G12  H00X 8934   0.616   4.847   7.645
   494G12  O00C 8935   0.699   4.847   7.463
   494G12  H00W 8936   0.667   4.856   7.375
   494G12  C027 8937   0.497   5.101   7.546
   494G12  O00D 8938   0.421   5.197   7.483
   494G12  H00Z 8939   0.407   5.183   7.391
   494G12  C028 8940   0.569   5.134   7.667
   494G12  C029 8941   0.704   5.097   7.690
   494G12  H010 8942   0.763   5.050   7.613
   494G12  C02T 8943   0.764   5.105   7.816
   494G12  H01O 8944   0.867   5.078   7.832
   494G12  C02S 8945   0.688   5.165   7.921
   494G12  O00J 8946   0.730   5.181   8.051
   494G12  H01P 8947   0.649   5.207   8.093
   494G12  C02R 8948   0.548   5.200   7.905
   494G12  O00I 8949   0.480   5.243   8.024
   494G12  C02Q 8950   0.347   5.280   7.998
   494G12  H01N 8951   0.302   5.327   8.085
   494G12  H01R 8952   0.285   5.194   7.971
   494G12  H01Q 8953   0.350   5.358   7.922
   494G12  C02A 8954   0.496   5.193   7.773
   494G12  H011 8955   0.395   5.222   7.749
   494G12  C00C 8956   0.655   5.072   7.276
   494G12  H012 8957   0.687   5.121   7.367
   494G12  C00B 8958   0.743   5.078   7.170
   494G12  C00A 8959   0.877   5.124   7.187
   494G12  C009 8960   0.931   5.231   7.272
   494G12  C008 8961   0.886   5.305   7.387
   494G12  H013 8962   0.813   5.265   7.455
   494G12  C007 8963   0.952   5.430   7.426
   494G12  H014 8964   0.927   5.486   7.515
   494G12  C006 8965   1.040   5.489   7.330
   494G12  C005 8966   1.087   5.411   7.222
   494G12  C004 8967   1.168   5.465   7.118
   494G12  C003 8968   1.191   5.392   6.999
   494G12  C002 8969   1.257   5.467   6.898
   494G12  C001 8970   1.300   5.439   6.768
   494G12  C00M 8971   1.219   5.361   6.669
   494G12  C00L 8972   1.138   5.248   6.704
   494G12  C00R 8973   1.026   5.200   6.625
   494G12  C00Q 8974   0.975   5.231   6.492
   494G12  C00V 8975   0.852   5.166   6.463
   494G12  C00U 8976   0.771   5.105   6.564
   494G12  C00T 8977   0.816   5.090   6.691
   494G12  C016 8978   0.733   5.057   6.799
   494G12  C015 8979   0.609   5.006   6.776
   494G12  C010 8980   0.561   5.024   6.644
   494G12  C011 8981   0.423   4.988   6.623
   494G12  H005 8982   0.377   5.012   6.528
   494G12  C012 8983   0.347   4.929   6.725
   494G12  C017 8984   0.209   4.882   6.698
   494G12  O002 8985   0.115   4.908   6.795
   494G12  H004 8986   0.044   4.856   6.761
   494G12  C018 8987   0.179   4.809   6.591
   494G12  O001 8988   0.272   4.782   6.496
   494G12  H003 8989   0.360   4.794   6.531
   494G12  C019 8990   0.031   4.787   6.546
   494G12  H002 8991   0.026   4.862   6.467
   494G12  H001 8992   0.022   4.689   6.498
   494G12  O000 8993  -0.067   4.802   6.649
   494G12  C01A 8994  -0.198   4.790   6.608
   494G12  C02K 8995  -0.300   4.814   6.700
   494G12  O00G 8996  -0.264   4.859   6.824
   494G12  C02M 8997  -0.211   4.989   6.829
   494G12  H01G 8998  -0.140   5.009   6.910
   494G12  H01F 8999  -0.297   5.053   6.849
   494G12  H01E 9000  -0.171   5.041   6.742
   494G12  C02J 9001  -0.435   4.801   6.661
   494G12  H01H 9002  -0.503   4.825   6.741
   494G12  C02I 9003  -0.482   4.752   6.539
   494G12  C02N 9004  -0.625   4.741   6.515
   494G12  H01M 9005  -0.699   4.735   6.593
   494G12  C02O 9006  -0.671   4.747   6.388
   494G12  H01L 9007  -0.604   4.765   6.305
   494G12  C02P 9008  -0.820   4.744   6.350
   494G12  H01K 9009  -0.872   4.693   6.431
   494G12  H01J 9010  -0.866   4.843   6.347
   494G12  O00H 9011  -0.819   4.675   6.226
   494G12  H01I 9012  -0.906   4.678   6.190
   494G12  C02H 9013  -0.380   4.741   6.443
   494G12  H01C 9014  -0.401   4.715   6.340
   494G12  C02L 9015  -0.241   4.754   6.473
   494G12  H01D 9016  -0.169   4.728   6.398
   494G12  C013 9017   0.402   4.914   6.855
   494G12  H000 9018   0.333   4.862   6.921
   494G12  C014 9019   0.531   4.967   6.885
   494G12  C00F 9020   0.579   4.991   7.015
   494G12  C00H 9021   0.791   5.055   6.926
   494G12  C00I 9022   0.922   5.099   6.948
   494G12  C00J 9023   0.999   5.131   6.834
   494G12  C00Z 9024   0.646   5.062   6.541
   494G12  C00Y 9025   0.598   5.069   6.404
   494G12  H006 9026   0.501   5.034   6.371
   494G12  C00X 9027   0.676   5.119   6.300
   494G12  O003 9028   0.612   5.108   6.183
   494G12  C01B 9029   0.688   5.134   6.065
   494G12  H009 9030   0.620   5.092   5.992
   494G12  H008 9031   0.783   5.082   6.070
   494G12  H007 9032   0.698   5.239   6.039
   494G12  C00W 9033   0.798   5.178   6.331
   494G12  O004 9034   0.864   5.246   6.226
   494G12  C01C 9035   0.978   5.313   6.264
   494G12  H00A 9036   1.034   5.360   6.185
   494G12  C00P 9037   1.025   5.323   6.396
   494G12  C00O 9038   1.107   5.437   6.441
   494G12  C01D 9039   1.089   5.556   6.364
   494G12  H00S 9040   1.030   5.559   6.274
   494G12  C01E 9041   1.134   5.684   6.414
   494G12  O008 9042   1.122   5.808   6.351
   494G12  C01V 9043   1.056   5.827   6.230
   494G12  C01Z 9044   0.938   5.927   6.228
   494G12  H00R 9045   0.915   5.952   6.332
   494G12  H00Q 9046   0.966   6.021   6.180
   494G12  O009 9047   0.829   5.851   6.182
   494G12  H00P 9048   0.756   5.911   6.181
   494G12  C01W 9049   1.087   5.759   6.119
   494G12  H00O 9050   1.164   5.683   6.118
   494G12  C01X 9051   1.050   5.805   5.980
   494G12  H00N 9052   0.976   5.742   5.931
   494G12  H00M 9053   0.988   5.895   5.986
   494G12  C01Y 9054   1.165   5.855   5.899
   494G12  C02D 9055   1.273   5.924   5.971
   494G12  H019 9056   1.263   5.950   6.076
   494G12  C02C 9057   1.384   5.972   5.899
   494G12  H01A 9058   1.468   6.019   5.948
   494G12  C02B 9059   1.386   5.954   5.761
   494G12  O00E 9060   1.490   6.004   5.686
   494G12  H01B 9061   1.492   5.960   5.603
   494G12  C02F 9062   1.286   5.888   5.689
   494G12  O00F 9063   1.308   5.866   5.555
   494G12  C02G 9064   1.192   5.818   5.480
   494G12  H017 9065   1.094   5.854   5.513
   494G12  H016 9066   1.182   5.711   5.498
   494G12  H015 9067   1.196   5.822   5.371
   494G12  C02E 9068   1.171   5.841   5.759
   494G12  H018 9069   1.086   5.788   5.719
   494G12  C01F 9070   1.209   5.688   6.533
   494G12  C01G 9071   1.222   5.806   6.613
   494G12  H00L 9072   1.184   5.903   6.583
   494G12  C01H 9073   1.283   5.797   6.743
   494G12  H00B 9074   1.270   5.889   6.798
   494G12  C01I 9075   1.316   5.672   6.796
   494G12  C01U 9076   1.263   5.571   6.585
   494G12  C00S 9077   0.943   5.135   6.713
   494G12  C00K 9078   1.105   5.222   6.840
   494G12  C00N 9079   1.194   5.447   6.556
   494G12  C000 9080   1.331   5.567   6.710
   494G12  C01J 9081   1.288   5.605   6.922
   494G12  C01K 9082   1.282   5.676   7.045
   494G12  C01P 9083   1.334   5.800   7.085
   494G12  C01Q 9084   1.444   5.862   7.025
   494G12  H00G 9085   1.463   5.968   7.039
   494G12  C01R 9086   1.543   5.788   6.962
   494G12  H00F 9087   1.535   5.681   6.946
   494G12  C01S 9088   1.663   5.862   6.893
   494G12  H00E 9089   1.671   5.858   6.784
   494G12  H00D 9090   1.660   5.969   6.913
   494G12  O005 9091   1.777   5.791   6.938
   494G12  H00C 9092   1.854   5.805   6.886
   494G12  C01O 9093   1.282   5.865   7.199
   494G12  H00H 9094   1.313   5.965   7.227
   494G12  C01N 9095   1.184   5.804   7.278
   494G12  O006 9096   1.136   5.861   7.393
   494G12  C01T 9097   1.201   5.955   7.468
   494G12  H00K 9098   1.159   5.967   7.568
   494G12  H00J 9099   1.180   6.048   7.415
   494G12  H00I 9100   1.304   5.934   7.496
   494G12  C01M 9101   1.161   5.667   7.252
   494G12  C020 9102   1.129   5.267   6.968
   494G12  C021 9103   1.070   5.208   7.084
   494G12  C01L 9104   1.209   5.600   7.140
   494G12  O007 9105   1.085   5.614   7.345
   494G12  C022 9106   1.053   5.279   7.202
   494G12  C023 9107   0.964   5.120   7.074
   494G12  C00G 9108   0.708   5.042   7.040
   494G12  C00E 9109   0.498   4.960   7.131
   494G12  O00A 9110   0.385   4.880   7.136
   494G12  C024 9111   0.247   4.939   7.142
   494G12  H00V 9112   0.218   4.949   7.246
   494G12  H00U 9113   0.180   4.864   7.101
   494G12  H00T 9114   0.254   5.036   7.092
   504G12  C00D 9115   1.748   4.974   9.047
   504G12  O00B 9116   1.626   4.929   9.079
   504G12  C025 9117   1.521   5.019   9.065
   504G12  C026 9118   1.530   5.141   9.162
   504G12  H00Y 9119   1.451   5.212   9.135
   504G12  H00X 9120   1.624   5.197   9.155
   504G12  O00C 9121   1.510   5.086   9.290
   504G12  H00W 9122   1.539   4.996   9.287
   504G12  C027 9123   1.435   5.006   8.962
   504G12  O00D 9124   1.459   4.918   8.865
   504G12  H00Z 9125   1.526   4.861   8.899
   504G12  C028 9126   1.342   5.108   8.934
   504G12  C029 9127   1.235   5.138   9.019
   504G12  H010 9128   1.232   5.093   9.117
   504G12  C02T 9129   1.131   5.223   8.970
   504G12  H01O 9130   1.043   5.236   9.031
   504G12  C02S 9131   1.140   5.291   8.843
   504G12  O00J 9132   1.047   5.379   8.808
   504G12  H01P 9133   1.060   5.402   8.717
   504G12  C02R 9134   1.256   5.265   8.765
   504G12  O00I 9135   1.266   5.346   8.655
   504G12  C02Q 9136   1.388   5.342   8.588
   504G12  H01N 9137   1.389   5.419   8.510
   504G12  H01R 9138   1.390   5.249   8.531
   504G12  H01Q 9139   1.480   5.354   8.645
   504G12  C02A 9140   1.345   5.165   8.804
   504G12  H011 9141   1.421   5.139   8.732
   504G12  C00C 9142   1.771   5.030   8.920
   504G12  H012 9143   1.693   5.025   8.844
   504G12  C00B 9144   1.885   5.109   8.898
   504G12  C00A 9145   1.920   5.176   8.782
   504G12  C009 9146   1.902   5.140   8.644
   504G12  C008 9147   1.845   5.026   8.585
   504G12  H013 9148   1.778   4.961   8.639
   504G12  C007 9149   1.886   4.999   8.449
   504G12  H014 9150   1.843   4.909   8.408
   504G12  C006 9151   1.983   5.074   8.375
   504G12  C005 9152   2.039   5.183   8.444
   504G12  C004 9153   2.152   5.249   8.397
   504G12  C003 9154   2.227   5.333   8.488
   504G12  C002 9155   2.349   5.391   8.440
   504G12  C001 9156   2.450   5.478   8.508
   504G12  C00M 9157   2.508   5.455   8.642
   504G12  C00L 9158   2.422   5.426   8.749
   504G12  C00R 9159   2.462   5.364   8.873
   504G12  C00Q 9160   2.596   5.319   8.922
   504G12  C00V 9161   2.581   5.240   9.042
   504G12  C00U 9162   2.460   5.185   9.089
   504G12  C00T 9163   2.341   5.221   9.036
   504G12  C016 9164   2.217   5.159   9.057
   504G12  C015 9165   2.214   5.060   9.154
   504G12  C010 9166   2.336   5.027   9.219
   504G12  C011 9167   2.327   4.932   9.320
   504G12  H005 9168   2.417   4.902   9.373
   504G12  C012 9169   2.211   4.859   9.350
   504G12  C017 9170   2.197   4.748   9.448
   504G12  O002 9171   2.079   4.731   9.520
   504G12  H004 9172   2.097   4.644   9.553
   504G12  C018 9173   2.295   4.657   9.461
   504G12  O001 9174   2.410   4.659   9.386
   504G12  H003 9175   2.397   4.693   9.298
   504G12  C019 9176   2.284   4.529   9.550
   504G12  H002 9177   2.341   4.454   9.495
   504G12  H001 9178   2.329   4.547   9.648
   504G12  O000 9179   2.154   4.475   9.568
   504G12  C01A 9180   2.142   4.353   9.619
   504G12  C02K 9181   2.012   4.297   9.617
   504G12  O00G 9182   1.902   4.363   9.560
   504G12  C02M 9183   1.775   4.292   9.573
   504G12  H01G 9184   1.775   4.198   9.517
   504G12  H01F 9185   1.696   4.348   9.523
   504G12  H01E 9186   1.749   4.278   9.678
   504G12  C02J 9187   1.998   4.167   9.681
   504G12  H01H 9188   1.904   4.113   9.678
   504G12  C02I 9189   2.106   4.094   9.737
   504G12  C02N 9190   2.082   3.955   9.779
   504G12  H01M 9191   1.987   3.906   9.764
   504G12  C02O 9192   2.174   3.879   9.833
   504G12  H01L 9193   2.272   3.909   9.867
   504G12  C02P 9194   2.146   3.734   9.869
   504G12  H01K 9195   2.047   3.706   9.835
   504G12  H01J 9196   2.217   3.663   9.825
   504G12  O00H 9197   2.160   3.731  10.012
   504G12  H01I 9198   2.092   3.781  10.056
   504G12  C02H 9199   2.233   4.146   9.730
   504G12  H01C 9200   2.320   4.086   9.750
   504G12  C02L 9201   2.251   4.280   9.675
   504G12  H01D 9202   2.353   4.315   9.666
   504G12  C013 9203   2.092   4.904   9.284
   504G12  H000 9204   2.012   4.834   9.304
   504G12  C014 9205   2.092   5.009   9.189
   504G12  C00F 9206   1.978   5.039   9.108
   504G12  C00H 9207   2.109   5.183   8.972
   504G12  C00I 9208   2.120   5.275   8.871
   504G12  C00J 9209   2.236   5.345   8.860
   504G12  C00Z 9210   2.453   5.089   9.187
   504G12  C00Y 9211   2.572   5.061   9.262
   504G12  H006 9212   2.583   4.992   9.344
   504G12  C00X 9213   2.698   5.106   9.216
   504G12  O003 9214   2.816   5.068   9.278
   504G12  C01B 9215   2.815   4.982   9.392
   504G12  H009 9216   2.918   4.952   9.413
   504G12  H008 9217   2.765   4.886   9.375
   504G12  H007 9218   2.780   5.040   9.477
   504G12  C00W 9219   2.703   5.199   9.107
   504G12  O004 9220   2.827   5.227   9.061
   504G12  C01C 9221   2.837   5.311   8.954
   504G12  H00A 9222   2.928   5.368   8.942
   504G12  C00P 9223   2.726   5.337   8.867
   504G12  C00O 9224   2.745   5.361   8.730
   504G12  C01D 9225   2.870   5.329   8.674
   504G12  H00S 9226   2.953   5.297   8.735
   504G12  C01E 9227   2.882   5.301   8.536
   504G12  O008 9228   2.997   5.250   8.476
   504G12  C01V 9229   3.016   5.117   8.506
   504G12  C01Z 9230   3.161   5.076   8.501
   504G12  H00R 9231   3.173   4.978   8.455
   504G12  H00Q 9232   3.225   5.148   8.450
   504G12  O009 9233   3.223   5.074   8.628
   504G12  H00P 9234   3.151   5.069   8.690
   504G12  C01W 9235   2.918   5.022   8.519
   504G12  H00O 9236   2.817   5.055   8.499
   504G12  C01X 9237   2.938   4.874   8.541
   504G12  H00N 9238   2.847   4.832   8.499
   504G12  H00M 9239   3.024   4.832   8.489
   504G12  C01Y 9240   2.955   4.852   8.695
   504G12  C02D 9241   2.863   4.913   8.788
   504G12  H019 9242   2.785   4.977   8.749
   504G12  C02C 9243   2.875   4.900   8.928
   504G12  H01A 9244   2.808   4.953   8.994
   504G12  C02B 9245   2.978   4.811   8.970
   504G12  O00E 9246   2.985   4.795   9.108
   504G12  H01B 9247   3.069   4.759   9.136
   504G12  C02F 9248   3.079   4.760   8.883
   504G12  O00F 9249   3.192   4.712   8.951
   504G12  C02G 9250   3.287   4.650   8.876
   504G12  H017 9251   3.255   4.586   8.795
   504G12  H016 9252   3.364   4.598   8.932
   504G12  H015 9253   3.338   4.737   8.834
   504G12  C02E 9254   3.061   4.775   8.741
   504G12  H018 9255   3.126   4.719   8.676
   504G12  C01F 9256   2.775   5.333   8.449
   504G12  C01G 9257   2.765   5.286   8.315
   504G12  H00L 9258   2.846   5.227   8.275
   504G12  C01H 9259   2.645   5.310   8.242
   504G12  H00B 9260   2.632   5.251   8.152
   504G12  C01I 9261   2.537   5.375   8.309
   504G12  C01U 9262   2.665   5.407   8.493
   504G12  C00S 9263   2.345   5.323   8.937
   504G12  C00K 9264   2.283   5.386   8.730
   504G12  C00N 9265   2.647   5.411   8.635
   504G12  C000 9266   2.565   5.461   8.419
   504G12  C01J 9267   2.392   5.352   8.309
   504G12  C01K 9268   2.317   5.266   8.219
   504G12  C01P 9269   2.343   5.252   8.076
   504G12  C01Q 9270   2.429   5.348   8.001
   504G12  H00G 9271   2.424   5.455   8.004
   504G12  C01R 9272   2.513   5.286   7.915
   504G12  H00F 9273   2.514   5.178   7.905
   504G12  C01S 9274   2.608   5.352   7.820
   504G12  H00E 9275   2.634   5.455   7.845
   504G12  H00D 9276   2.701   5.298   7.836
   504G12  O005 9277   2.548   5.350   7.691
   504G12  H00C 9278   2.591   5.284   7.639
   504G12  C01O 9279   2.271   5.152   8.008
   504G12  H00H 9280   2.297   5.138   7.904
   504G12  C01N 9281   2.180   5.072   8.072
   504G12  O006 9282   2.120   4.977   8.001
   504G12  C01T 9283   2.157   4.844   8.038
   504G12  H00K 9284   2.099   4.778   7.973
   504G12  H00J 9285   2.128   4.807   8.137
   504G12  H00I 9286   2.265   4.836   8.028
   504G12  C01M 9287   2.140   5.101   8.202
   504G12  C020 9288   2.190   5.354   8.623
   504G12  C021 9289   2.053   5.323   8.648
   504G12  C01L 9290   2.206   5.202   8.274
   504G12  O007 9291   2.025   5.046   8.249
   504G12  C022 9292   1.992   5.231   8.568
   504G12  C023 9293   2.019   5.278   8.779
   504G12  C00G 9294   1.986   5.119   8.994
   504G12  C00E 9295   1.852   4.981   9.144
   504G12  O00A 9296   1.814   4.936   9.269
   504G12  C024 9297   1.812   5.028   9.375
   504G12  H00V 9298   1.742   5.109   9.352
   504G12  H00U 9299   1.911   5.071   9.391
   504G12  H00T 9300   1.765   4.985   9.463
   514G12  C00D 9301   4.757   1.719   4.099
   514G12  O00B 9302   4.826   1.822   4.030
   514G12  C025 9303   4.751   1.924   3.981
   514G12  C026 9304   4.753   1.928   3.828
   514G12  H00Y 9305   4.669   1.985   3.789
   514G12  H00X 9306   4.755   1.826   3.789
   514G12  O00C 9307   4.880   1.985   3.800
   514G12  H00W 9308   4.939   1.968   3.872
   514G12  C027 9309   4.679   2.004   4.062
   514G12  O00D 9310   4.699   1.992   4.201
   514G12  H00Z 9311   4.757   1.918   4.201
   514G12  C028 9312   4.591   2.101   4.007
   514G12  C029 9313   4.635   2.191   3.905
   514G12  H010 9314   4.735   2.185   3.865
   514G12  C02T 9315   4.551   2.291   3.859
   514G12  H01O 9316   4.573   2.366   3.785
   514G12  C02S 9317   4.421   2.305   3.908
   514G12  O00J 9318   4.336   2.406   3.871
   514G12  H01P 9319   4.250   2.401   3.910
   514G12  C02R 9320   4.374   2.216   4.006
   514G12  O00I 9321   4.248   2.229   4.051
   514G12  C02Q 9322   4.201   2.150   4.161
   514G12  H01N 9323   4.095   2.176   4.158
   514G12  H01R 9324   4.255   2.172   4.253
   514G12  H01Q 9325   4.212   2.044   4.140
   514G12  C02A 9326   4.461   2.122   4.058
   514G12  H011 9327   4.421   2.050   4.129
   514G12  C00C 9328   4.622   1.691   4.073
   514G12  H012 9329   4.578   1.745   3.991
   514G12  C00B 9330   4.550   1.590   4.134
   514G12  C00A 9331   4.421   1.544   4.110
   514G12  C009 9332   4.314   1.610   4.034
   514G12  C008 9333   4.312   1.734   3.962
   514G12  H013 9334   4.393   1.778   3.906
   514G12  C007 9335   4.192   1.809   3.954
   514G12  H014 9336   4.175   1.906   3.911
   514G12  C006 9337   4.073   1.769   4.027
   514G12  C005 9338   4.084   1.651   4.103
   514G12  C004 9339   3.989   1.611   4.201
   514G12  C003 9340   4.014   1.505   4.290
   514G12  C002 9341   3.916   1.479   4.389
   514G12  C001 9342   3.900   1.392   4.505
   514G12  C00M 9343   4.013   1.385   4.603
   514G12  C00L 9344   4.146   1.358   4.564
   514G12  C00R 9345   4.258   1.367   4.645
   514G12  C00Q 9346   4.276   1.417   4.777
   514G12  C00V 9347   4.411   1.434   4.815
   514G12  C00U 9348   4.517   1.441   4.719
   514G12  C00T 9349   4.493   1.416   4.589
   514G12  C016 9350   4.574   1.464   4.489
   514G12  C015 9351   4.702   1.513   4.521
   514G12  C010 9352   4.734   1.523   4.659
   514G12  C011 9353   4.873   1.545   4.698
   514G12  H005 9354   4.910   1.551   4.799
   514G12  C012 9355   4.970   1.562   4.597
   514G12  C017 9356   5.104   1.574   4.637
   514G12  O002 9357   5.124   1.670   4.734
   514G12  H004 9358   5.215   1.692   4.736
   514G12  C018 9359   5.207   1.492   4.604
   514G12  O001 9360   5.185   1.392   4.511
   514G12  H003 9361   5.091   1.390   4.503
   514G12  C019 9362   5.341   1.484   4.678
   514G12  H002 9363   5.347   1.404   4.751
   514G12  H001 9364   5.416   1.474   4.599
   514G12  O000 9365   5.378   1.615   4.732
   514G12  C01A 9366   5.440   1.625   4.852
   514G12  C02K 9367   5.416   1.743   4.929
   514G12  O00G 9368   5.329   1.833   4.876
   514G12  C02M 9369   5.306   1.947   4.959
   514G12  H01G 9370   5.382   2.025   4.957
   514G12  H01F 9371   5.281   1.913   5.060
   514G12  H01E 9372   5.216   1.986   4.912
   514G12  C02J 9373   5.494   1.771   5.040
   514G12  H01H 9374   5.495   1.868   5.089
   514G12  C02I 9375   5.578   1.671   5.093
   514G12  C02N 9376   5.661   1.693   5.208
   514G12  H01M 9377   5.754   1.639   5.207
   514G12  C02O 9378   5.631   1.783   5.301
   514G12  H01L 9379   5.545   1.845   5.286
   514G12  C02P 9380   5.722   1.810   5.421
   514G12  H01K 9381   5.664   1.827   5.512
   514G12  H01J 9382   5.795   1.731   5.439
   514G12  O00H 9383   5.788   1.929   5.389
   514G12  H01I 9384   5.855   1.889   5.335
   514G12  C02H 9385   5.580   1.547   5.026
   514G12  H01C 9386   5.642   1.471   5.073
   514G12  C02L 9387   5.521   1.521   4.906
   514G12  H01D 9388   5.541   1.429   4.853
   514G12  C013 9389   4.927   1.556   4.461
   514G12  H000 9390   5.003   1.572   4.386
   514G12  C014 9391   4.789   1.544   4.419
   514G12  C00F 9392   4.740   1.565   4.291
   514G12  C00H 9393   4.531   1.472   4.357
   514G12  C00I 9394   4.405   1.416   4.322
   514G12  C00J 9395   4.330   1.355   4.424
   514G12  C00Z 9396   4.640   1.492   4.759
   514G12  C00Y 9397   4.672   1.505   4.900
   514G12  H006 9398   4.770   1.528   4.938
   514G12  C00X 9399   4.575   1.480   4.994
   514G12  O003 9400   4.599   1.486   5.128
   514G12  C01B 9401   4.732   1.499   5.189
   514G12  H009 9402   4.753   1.606   5.186
   514G12  H008 9403   4.807   1.446   5.130
   514G12  H007 9404   4.741   1.448   5.285
   514G12  C00W 9405   4.443   1.453   4.951
   514G12  O004 9406   4.343   1.446   5.049
   514G12  C01C 9407   4.225   1.497   5.009
   514G12  H00A 9408   4.186   1.582   5.063
   514G12  C00P 9409   4.179   1.462   4.873
   514G12  C00O 9410   4.044   1.478   4.846
   514G12  C01D 9411   3.952   1.542   4.941
   514G12  H00S 9412   3.993   1.567   5.039
   514G12  C01E 9413   3.832   1.603   4.918
   514G12  O008 9414   3.760   1.693   5.004
   514G12  C01V 9415   3.815   1.714   5.127
   514G12  C01Z 9416   3.756   1.629   5.239
   514G12  H00R 9417   3.779   1.655   5.342
   514G12  H00Q 9418   3.648   1.629   5.225
   514G12  O009 9419   3.797   1.497   5.209
   514G12  H00P 9420   3.782   1.485   5.117
   514G12  C01W 9421   3.932   1.784   5.144
   514G12  H00O 9422   3.966   1.852   5.066
   514G12  C01X 9423   4.002   1.795   5.275
   514G12  H00N 9424   4.044   1.895   5.285
   514G12  H00M 9425   3.928   1.778   5.353
   514G12  C01Y 9426   4.122   1.705   5.286
   514G12  C02D 9427   4.104   1.574   5.347
   514G12  H019 9428   4.004   1.546   5.375
   514G12  C02C 9429   4.215   1.492   5.375
   514G12  H01A 9430   4.202   1.400   5.428
   514G12  C02B 9431   4.346   1.540   5.345
   514G12  O00E 9432   4.457   1.469   5.383
   514G12  H01B 9433   4.525   1.524   5.349
   514G12  C02F 9434   4.368   1.669   5.300
   514G12  O00F 9435   4.501   1.708   5.274
   514G12  C02G 9436   4.520   1.786   5.161
   514G12  H017 9437   4.629   1.796   5.163
   514G12  H016 9438   4.481   1.888   5.163
   514G12  H015 9439   4.483   1.743   5.068
   514G12  C02E 9440   4.256   1.750   5.268
   514G12  H018 9441   4.272   1.844   5.218
   514G12  C01F 9442   3.779   1.578   4.786
   514G12  C01G 9443   3.673   1.648   4.724
   514G12  H00L 9444   3.629   1.723   4.787
   514G12  C01H 9445   3.633   1.630   4.588
   514G12  H00B 9446   3.581   1.715   4.547
   514G12  C01I 9447   3.715   1.541   4.511
   514G12  C01U 9448   3.836   1.478   4.705
   514G12  C00S 9449   4.368   1.355   4.559
   514G12  C00K 9450   4.190   1.379   4.426
   514G12  C00N 9451   3.971   1.439   4.729
   514G12  C000 9452   3.787   1.438   4.575
   514G12  C01J 9453   3.792   1.555   4.387
   514G12  C01K 9454   3.754   1.650   4.281
   514G12  C01P 9455   3.626   1.713   4.253
   514G12  C01Q 9456   3.498   1.678   4.309
   514G12  H00G 9457   3.431   1.748   4.357
   514G12  C01R 9458   3.463   1.548   4.309
   514G12  H00F 9459   3.538   1.481   4.271
   514G12  C01S 9460   3.344   1.487   4.370
   514G12  H00E 9461   3.369   1.427   4.457
   514G12  H00D 9462   3.282   1.568   4.408
   514G12  O005 9463   3.282   1.405   4.274
   514G12  H00C 9464   3.351   1.360   4.228
   514G12  C01O 9465   3.622   1.822   4.168
   514G12  H00H 9466   3.531   1.880   4.156
   514G12  C01N 9467   3.737   1.873   4.108
   514G12  O006 9468   3.734   1.980   4.028
   514G12  C01T 9469   3.615   2.018   3.951
   514G12  H00K 9470   3.537   2.061   4.014
   514G12  H00J 9471   3.586   1.937   3.884
   514G12  H00I 9472   3.636   2.101   3.883
   514G12  C01M 9473   3.856   1.795   4.120
   514G12  C020 9474   4.142   1.441   4.301
   514G12  C021 9475   4.215   1.462   4.184
   514G12  C01L 9476   3.867   1.684   4.202
   514G12  O007 9477   3.964   1.839   4.040
   514G12  C022 9478   4.195   1.560   4.091
   514G12  C023 9479   4.353   1.452   4.190
   514G12  C00G 9480   4.607   1.537   4.253
   514G12  C00E 9481   4.819   1.644   4.198
   514G12  O00A 9482   4.954   1.647   4.189
   514G12  C024 9483   5.006   1.569   4.082
   514G12  H00V 9484   4.957   1.473   4.064
   514G12  H00U 9485   5.114   1.552   4.091
   514G12  H00T 9486   4.993   1.615   3.985
   524G12  C00D 9487   4.109   4.530   8.119
   524G12  O00B 9488   4.203   4.616   8.188
   524G12  C025 9489   4.243   4.729   8.120
   524G12  C026 9490   4.154   4.849   8.145
   524G12  H00Y 9491   4.051   4.819   8.124
   524G12  H00X 9492   4.172   4.932   8.076
   524G12  O00C 9493   4.173   4.897   8.281
   524G12  H00W 9494   4.256   4.865   8.311
   524G12  C027 9495   4.349   4.726   8.035
   524G12  O00D 9496   4.416   4.608   8.014
   524G12  H00Z 9497   4.386   4.552   8.083
   524G12  C028 9498   4.387   4.833   7.946
   524G12  C029 9499   4.393   4.971   7.989
   524G12  H010 9500   4.372   4.993   8.092
   524G12  C02T 9501   4.411   5.072   7.898
   524G12  H01O 9502   4.416   5.172   7.937
   524G12  C02S 9503   4.418   5.038   7.763
   524G12  O00J 9504   4.421   5.137   7.674
   524G12  H01P 9505   4.450   5.105   7.590
   524G12  C02R 9506   4.426   4.906   7.719
   524G12  O00I 9507   4.444   4.886   7.587
   524G12  C02Q 9508   4.462   4.755   7.533
   524G12  H01N 9509   4.490   4.765   7.428
   524G12  H01R 9510   4.371   4.696   7.539
   524G12  H01Q 9511   4.534   4.699   7.592
   524G12  C02A 9512   4.412   4.802   7.810
   524G12  H011 9513   4.405   4.698   7.781
   524G12  C00C 9514   4.068   4.551   7.985
   524G12  H012 9515   4.112   4.627   7.923
   524G12  C00B 9516   3.996   4.460   7.914
   524G12  C00A 9517   3.968   4.467   7.773
   524G12  C009 9518   3.963   4.579   7.683
   524G12  C008 9519   3.980   4.721   7.691
   524G12  H013 9520   4.034   4.759   7.776
   524G12  C007 9521   3.919   4.805   7.590
   524G12  H014 9522   3.937   4.911   7.595
   524G12  C006 9523   3.825   4.752   7.502
   524G12  C005 9524   3.816   4.611   7.488
   524G12  C004 9525   3.707   4.549   7.422
   524G12  C003 9526   3.681   4.410   7.445
   524G12  C002 9527   3.565   4.357   7.377
   524G12  C001 9528   3.504   4.229   7.372
   524G12  C00M 9529   3.476   4.152   7.490
   524G12  C00L 9530   3.573   4.120   7.589
   524G12  C00R 9531   3.545   4.079   7.718
   524G12  C00Q 9532   3.419   4.027   7.781
   524G12  C00V 9533   3.439   4.009   7.921
   524G12  C00U 9534   3.552   4.053   7.996
   524G12  C00T 9535   3.657   4.117   7.939
   524G12  C016 9536   3.767   4.179   7.998
   524G12  C015 9537   3.767   4.183   8.138
   524G12  C010 9538   3.666   4.113   8.204
   524G12  C011 9539   3.687   4.095   8.346
   524G12  H005 9540   3.631   4.021   8.402
   524G12  C012 9541   3.803   4.141   8.414
   524G12  C017 9542   3.815   4.110   8.555
   524G12  O002 9543   3.698   4.087   8.625
   524G12  H004 9544   3.722   4.065   8.714
   524G12  C018 9545   3.934   4.114   8.620
   524G12  O001 9546   4.053   4.146   8.557
   524G12  H003 9547   4.052   4.092   8.480
   524G12  C019 9548   3.961   4.094   8.766
   524G12  H002 9549   4.045   4.031   8.792
   524G12  H001 9550   3.992   4.192   8.804
   524G12  O000 9551   3.849   4.037   8.836
   524G12  C01A 9552   3.827   4.061   8.968
   524G12  C02K 9553   3.922   4.113   9.065
   524G12  O00G 9554   4.045   4.142   9.018
   524G12  C02M 9555   4.155   4.173   9.110
   524G12  H01G 9556   4.249   4.159   9.057
   524G12  H01F 9557   4.162   4.095   9.186
   524G12  H01E 9558   4.157   4.275   9.148
   524G12  C02J 9559   3.884   4.146   9.192
   524G12  H01H 9560   3.952   4.196   9.259
   524G12  C02I 9561   3.757   4.111   9.239
   524G12  C02N 9562   3.725   4.141   9.379
   524G12  H01M 9563   3.771   4.226   9.427
   524G12  C02O 9564   3.634   4.071   9.439
   524G12  H01L 9565   3.595   3.985   9.387
   524G12  C02P 9566   3.572   4.096   9.567
   524G12  H01K 9567   3.612   4.031   9.644
   524G12  H01J 9568   3.585   4.200   9.597
   524G12  O00H 9569   3.432   4.068   9.562
   524G12  H01I 9570   3.419   3.981   9.596
   524G12  C02H 9571   3.662   4.061   9.143
   524G12  H01C 9572   3.561   4.040   9.176
   524G12  C02L 9573   3.690   4.050   9.008
   524G12  H01D 9574   3.613   4.029   8.936
   524G12  C013 9575   3.883   4.230   8.343
   524G12  H000 9576   3.957   4.284   8.399
   524G12  C014 9577   3.869   4.249   8.204
   524G12  C00F 9578   3.950   4.344   8.130
   524G12  C00H 9579   3.853   4.264   7.924
   524G12  C00I 9580   3.849   4.260   7.782
   524G12  C00J 9581   3.752   4.177   7.723
   524G12  C00Z 9582   3.557   4.051   8.137
   524G12  C00Y 9583   3.451   3.975   8.207
   524G12  H006 9584   3.452   3.945   8.311
   524G12  C00X 9585   3.341   3.924   8.130
   524G12  O003 9586   3.250   3.830   8.174
   524G12  C01B 9587   3.250   3.805   8.315
   524G12  H009 9588   3.333   3.742   8.348
   524G12  H008 9589   3.156   3.757   8.343
   524G12  H007 9590   3.257   3.898   8.370
   524G12  C00W 9591   3.334   3.947   7.992
   524G12  O004 9592   3.216   3.893   7.934
   524G12  C01C 9593   3.187   3.948   7.813
   524G12  H00A 9594   3.092   3.913   7.775
   524G12  C00P 9595   3.289   4.019   7.732
   524G12  C00O 9596   3.250   4.098   7.616
   524G12  C01D 9597   3.116   4.128   7.600
   524G12  H00S 9598   3.055   4.103   7.686
   524G12  C01E 9599   3.061   4.204   7.494
   524G12  O008 9600   2.923   4.220   7.484
   524G12  C01V 9601   2.851   4.154   7.387
   524G12  C01Z 9602   2.717   4.222   7.357
   524G12  H00R 9603   2.698   4.219   7.250
   524G12  H00Q 9604   2.632   4.181   7.412
   524G12  O009 9605   2.726   4.361   7.384
   524G12  H00P 9606   2.792   4.362   7.453
   524G12  C01W 9607   2.887   4.036   7.329
   524G12  H00O 9608   2.983   3.998   7.363
   524G12  C01X 9609   2.815   3.976   7.219
   524G12  H00N 9610   2.831   3.869   7.234
   524G12  H00M 9611   2.707   3.973   7.235
   524G12  C01Y 9612   2.846   4.008   7.073
   524G12  C02D 9613   2.804   3.917   6.980
   524G12  H019 9614   2.754   3.829   7.017
   524G12  C02C 9615   2.839   3.936   6.841
   524G12  H01A 9616   2.820   3.860   6.766
   524G12  C02B 9617   2.907   4.048   6.802
   524G12  O00E 9618   2.923   4.071   6.671
   524G12  H01B 9619   2.957   4.150   6.630
   524G12  C02F 9620   2.950   4.142   6.897
   524G12  O00F 9621   3.016   4.253   6.846
   524G12  C02G 9622   3.067   4.335   6.949
   524G12  H017 9623   3.144   4.295   7.014
   524G12  H016 9624   2.999   4.369   7.027
   524G12  H015 9625   3.108   4.428   6.908
   524G12  C02E 9626   2.913   4.123   7.035
   524G12  H018 9627   2.947   4.191   7.112
   524G12  C01F 9628   3.153   4.264   7.403
   524G12  C01G 9629   3.118   4.363   7.312
   524G12  H00L 9630   3.016   4.398   7.306
   524G12  C01H 9631   3.227   4.438   7.247
   524G12  H00B 9632   3.200   4.534   7.205
   524G12  C01I 9633   3.359   4.385   7.258
   524G12  C01U 9634   3.285   4.208   7.392
   524G12  C00S 9635   3.657   4.111   7.801
   524G12  C00K 9636   3.701   4.203   7.597
   524G12  C00N 9637   3.333   4.144   7.508
   524G12  C000 9638   3.382   4.250   7.303
   524G12  C01J 9639   3.486   4.445   7.288
   524G12  C01K 9640   3.528   4.581   7.250
   524G12  C01P 9641   3.487   4.659   7.140
   524G12  C01Q 9642   3.415   4.604   7.028
   524G12  H00G 9643   3.320   4.555   7.039
   524G12  C01R 9644   3.468   4.612   6.905
   524G12  H00F 9645   3.564   4.656   6.884
   524G12  C01S 9646   3.384   4.566   6.788
   524G12  H00E 9647   3.302   4.509   6.832
   524G12  H00D 9648   3.332   4.653   6.747
   524G12  O005 9649   3.452   4.470   6.706
   524G12  H00C 9650   3.436   4.383   6.738
   524G12  C01O 9651   3.530   4.793   7.128
   524G12  H00H 9652   3.510   4.854   7.041
   524G12  C01N 9653   3.629   4.844   7.213
   524G12  O006 9654   3.657   4.978   7.181
   524G12  C01T 9655   3.769   5.047   7.251
   524G12  H00K 9656   3.767   5.151   7.219
   524G12  H00J 9657   3.857   4.985   7.236
   524G12  H00I 9658   3.747   5.060   7.358
   524G12  C01M 9659   3.668   4.771   7.324
   524G12  C020 9660   3.757   4.321   7.538
   524G12  C021 9661   3.876   4.385   7.582
   524G12  C01L 9662   3.632   4.632   7.331
   524G12  O007 9663   3.761   4.827   7.409
   524G12  C022 9664   3.899   4.525   7.564
   524G12  C023 9665   3.927   4.351   7.712
   524G12  C00G 9666   3.936   4.353   7.987
   524G12  C00E 9667   4.041   4.435   8.193
   524G12  O00A 9668   4.085   4.434   8.322
   524G12  C024 9669   4.018   4.530   8.411
   524G12  H00V 9670   4.089   4.546   8.492
   524G12  H00U 9671   3.920   4.497   8.447
   524G12  H00T 9672   4.012   4.630   8.370
   534G12  C00D 9673   5.764   2.108   8.256
   534G12  O00B 9674   5.641   2.151   8.212
   534G12  C025 9675   5.527   2.124   8.281
   534G12  C026 9676   5.448   2.248   8.326
   534G12  H00Y 9677   5.350   2.232   8.283
   534G12  H00X 9678   5.489   2.333   8.272
   534G12  O00C 9679   5.455   2.264   8.468
   534G12  H00W 9680   5.399   2.200   8.508
   534G12  C027 9681   5.493   1.991   8.298
   534G12  O00D 9682   5.568   1.893   8.238
   534G12  H00Z 9683   5.651   1.915   8.199
   534G12  C028 9684   5.367   1.944   8.356
   534G12  C029 9685   5.237   2.002   8.326
   534G12  H010 9686   5.217   2.085   8.259
   534G12  C02T 9687   5.121   1.925   8.359
   534G12  H01O 9688   5.028   1.973   8.334
   534G12  C02S 9689   5.132   1.816   8.439
   534G12  O00J 9690   5.020   1.767   8.487
   534G12  H01P 9691   5.054   1.688   8.527
   534G12  C02R 9692   5.262   1.758   8.475
   534G12  O00I 9693   5.262   1.658   8.564
   534G12  C02Q 9694   5.379   1.593   8.613
   534G12  H01N 9695   5.407   1.520   8.536
   534G12  H01R 9696   5.349   1.535   8.701
   534G12  H01Q 9697   5.459   1.664   8.631
   534G12  C02A 9698   5.374   1.823   8.424
   534G12  H011 9699   5.474   1.790   8.451
   534G12  C00C 9700   5.788   2.088   8.391
   534G12  H012 9701   5.709   2.108   8.461
   534G12  C00B 9702   5.907   2.049   8.445
   534G12  C00A 9703   5.942   2.018   8.582
   534G12  C009 9704   5.881   2.062   8.706
   534G12  C008 9705   5.787   2.164   8.732
   534G12  H013 9706   5.728   2.204   8.651
   534G12  C007 9707   5.793   2.247   8.845
   534G12  H014 9708   5.722   2.327   8.859
   534G12  C006 9709   5.909   2.238   8.930
   534G12  C005 9710   6.002   2.134   8.900
   534G12  C004 9711   6.126   2.134   8.967
   534G12  C003 9712   6.228   2.055   8.911
   534G12  C002 9713   6.358   2.068   8.972
   534G12  C001 9714   6.497   2.007   8.957
   534G12  C00M 9715   6.560   2.004   8.828
   534G12  C00L 9716   6.483   1.972   8.709
   534G12  C00R 9717   6.516   1.990   8.571
   534G12  C00Q 9718   6.630   2.049   8.511
   534G12  C00V 9719   6.624   2.063   8.373
   534G12  C00U 9720   6.503   2.048   8.299
   534G12  C00T 9721   6.391   2.012   8.368
   534G12  C016 9722   6.258   2.025   8.320
   534G12  C015 9723   6.245   2.044   8.186
   534G12  C010 9724   6.362   2.064   8.107
   534G12  C011 9725   6.350   2.083   7.967
   534G12  H005 9726   6.431   2.081   7.895
   534G12  C012 9727   6.223   2.072   7.909
   534G12  C017 9728   6.210   2.085   7.769
   534G12  O002 9729   6.304   2.026   7.690
   534G12  H004 9730   6.272   2.045   7.603
   534G12  C018 9731   6.102   2.152   7.716
   534G12  O001 9732   6.007   2.211   7.792
   534G12  H003 9733   6.013   2.193   7.884
   534G12  C019 9734   6.080   2.177   7.565
   534G12  H002 9735   5.975   2.150   7.553
   534G12  H001 9736   6.073   2.285   7.551
   534G12  O000 9737   6.170   2.104   7.484
   534G12  C01A 9738   6.148   2.118   7.351
   534G12  C02K 9739   6.173   2.246   7.289
   534G12  O00G 9740   6.225   2.340   7.372
   534G12  C02M 9741   6.256   2.465   7.320
   534G12  H01G 9742   6.301   2.531   7.394
   534G12  H01F 9743   6.172   2.520   7.279
   534G12  H01E 9744   6.341   2.468   7.251
   534G12  C02J 9745   6.168   2.257   7.142
   534G12  H01H 9746   6.179   2.352   7.092
   534G12  C02I 9747   6.125   2.144   7.069
   534G12  C02N 9748   6.105   2.149   6.930
   534G12  H01M 9749   6.060   2.233   6.879
   534G12  C02O 9750   6.153   2.054   6.853
   534G12  H01L 9751   6.204   1.971   6.901
   534G12  C02P 9752   6.156   2.068   6.702
   534G12  H01K 9753   6.257   2.089   6.664
   534G12  H01J 9754   6.140   1.967   6.664
   534G12  O00H 9755   6.057   2.151   6.653
   534G12  H01I 9756   6.071   2.149   6.559
   534G12  C02H 9757   6.104   2.022   7.135
   534G12  H01C 9758   6.070   1.941   7.072
   534G12  C02L 9759   6.113   2.011   7.271
   534G12  H01D 9760   6.101   1.917   7.322
   534G12  C013 9761   6.108   2.049   7.995
   534G12  H000 9762   6.009   2.048   7.952
   534G12  C014 9763   6.116   2.053   8.134
   534G12  C00F 9764   5.998   2.053   8.220
   534G12  C00H 9765   6.148   2.003   8.403
   534G12  C00I 9766   6.168   1.954   8.532
   534G12  C00J 9767   6.298   1.930   8.576
   534G12  C00Z 9768   6.489   2.073   8.165
   534G12  C00Y 9769   6.610   2.112   8.098
   534G12  H006 9770   6.606   2.142   7.994
   534G12  C00X 9771   6.735   2.128   8.163
   534G12  O003 9772   6.849   2.174   8.093
   534G12  C01B 9773   6.859   2.163   7.957
   534G12  H009 9774   6.961   2.153   7.919
   534G12  H008 9775   6.810   2.245   7.905
   534G12  H007 9776   6.804   2.073   7.929
   534G12  C00W 9777   6.741   2.102   8.302
   534G12  O004 9778   6.862   2.116   8.359
   534G12  C01C 9779   6.865   2.128   8.497
   534G12  H00A 9780   6.962   2.156   8.536
   534G12  C00P 9781   6.748   2.102   8.579
   534G12  C00O 9782   6.755   2.144   8.726
   534G12  C01D 9783   6.846   2.247   8.769
   534G12  H00S 9784   6.919   2.284   8.698
   534G12  C01E 9785   6.847   2.314   8.889
   534G12  O008 9786   6.931   2.420   8.910
   534G12  C01V 9787   7.049   2.396   8.983
   534G12  C01Z 9788   7.174   2.438   8.906
   534G12  H00R 9789   7.260   2.385   8.948
   534G12  H00Q 9790   7.169   2.412   8.800
   534G12  O009 9791   7.201   2.577   8.912
   534G12  H00P 9792   7.119   2.620   8.893
   534G12  C01W 9793   7.050   2.348   9.109
   534G12  H00O 9794   6.959   2.322   9.161
   534G12  C01X 9795   7.175   2.331   9.196
   534G12  H00N 9796   7.248   2.406   9.166
   534G12  H00M 9797   7.157   2.340   9.303
   534G12  C01Y 9798   7.228   2.187   9.180
   534G12  C02D 9799   7.360   2.176   9.216
   534G12  H019 9800   7.424   2.259   9.241
   534G12  C02C 9801   7.418   2.047   9.212
   534G12  H01A 9802   7.523   2.046   9.237
   534G12  C02B 9803   7.342   1.939   9.190
   534G12  O00E 9804   7.382   1.808   9.204
   534G12  H01B 9805   7.313   1.750   9.177
   534G12  C02F 9806   7.215   1.952   9.134
   534G12  O00F 9807   7.151   1.835   9.095
   534G12  C02G 9808   7.010   1.840   9.068
   534G12  H017 9809   6.977   1.747   9.021
   534G12  H016 9810   6.994   1.919   8.995
   534G12  H015 9811   6.960   1.871   9.160
   534G12  C02E 9812   7.155   2.080   9.126
   534G12  H018 9813   7.051   2.092   9.098
   534G12  C01F 9814   6.738   2.274   8.983
   534G12  C01G 9815   6.690   2.347   9.096
   534G12  H00L 9816   6.738   2.440   9.123
   534G12  C01H 9817   6.565   2.311   9.152
   534G12  H00B 9818   6.520   2.390   9.211
   534G12  C01I 9819   6.509   2.187   9.109
   534G12  C01U 9820   6.672   2.144   8.959
   534G12  C00S 9821   6.406   1.959   8.494
   534G12  C00K 9822   6.340   1.947   8.711
   534G12  C00N 9823   6.669   2.094   8.823
   534G12  C000 9824   6.578   2.086   9.039
   534G12  C01J 9825   6.371   2.160   9.081
   534G12  C01K 9826   6.263   2.231   9.149
   534G12  C01P 9827   6.258   2.303   9.272
   534G12  C01Q 9828   6.363   2.286   9.372
   534G12  H00G 9829   6.403   2.376   9.416
   534G12  C01R 9830   6.395   2.163   9.415
   534G12  H00F 9831   6.350   2.078   9.367
   534G12  C01S 9832   6.493   2.130   9.521
   534G12  H00E 9833   6.537   2.213   9.575
   534G12  H00D 9834   6.444   2.056   9.584
   534G12  O005 9835   6.598   2.070   9.459
   534G12  H00C 9836   6.563   2.007   9.399
   534G12  C01O 9837   6.152   2.392   9.303
   534G12  H00H 9838   6.162   2.461   9.386
   534G12  C01N 9839   6.044   2.405   9.215
   534G12  O006 9840   5.953   2.511   9.237
   534G12  C01T 9841   5.821   2.466   9.276
   534G12  H00K 9842   5.824   2.399   9.362
   534G12  H00J 9843   5.777   2.425   9.185
   534G12  H00I 9844   5.752   2.548   9.295
   534G12  C01M 9845   6.035   2.315   9.102
   534G12  C020 9846   6.221   1.972   8.798
   534G12  C021 9847   6.084   1.950   8.758
   534G12  C01L 9848   6.145   2.226   9.072
   534G12  O007 9849   5.935   2.336   9.021
   534G12  C022 9850   5.980   2.030   8.803
   534G12  C023 9851   6.057   1.957   8.617
   534G12  C00G 9852   6.018   2.026   8.358
   534G12  C00E 9853   5.871   2.097   8.172
   534G12  O00A 9854   5.841   2.137   8.042
   534G12  C024 9855   5.751   2.059   7.966
   534G12  H00V 9856   5.796   1.964   7.938
   534G12  H00U 9857   5.741   2.109   7.869
   534G12  H00T 9858   5.658   2.042   8.020
   544G12  C00D 9859   2.763   1.094   8.313
   544G12  O00B 9860   2.755   1.221   8.373
   544G12  C025 9861   2.842   1.323   8.335
   544G12  C026 9862   2.967   1.332   8.425
   544G12  H00Y 9863   3.046   1.383   8.370
   544G12  H00X 9864   3.017   1.240   8.457
   544G12  O00C 9865   2.948   1.400   8.551
   544G12  H00W 9866   2.926   1.331   8.611
   544G12  C027 9867   2.824   1.400   8.223
   544G12  O00D 9868   2.722   1.373   8.140
   544G12  H00Z 9869   2.662   1.313   8.181
   544G12  C028 9870   2.918   1.500   8.185
   544G12  C029 9871   2.974   1.495   8.054
   544G12  H010 9872   2.940   1.414   7.991
   544G12  C02T 9873   3.083   1.574   8.024
   544G12  H01O 9874   3.131   1.566   7.928
   544G12  C02S 9875   3.131   1.676   8.105
   544G12  O00J 9876   3.230   1.760   8.064
   544G12  H01P 9877   3.232   1.819   8.138
   544G12  C02R 9878   3.065   1.704   8.219
   544G12  O00I 9879   3.101   1.821   8.283
   544G12  C02Q 9880   2.995   1.899   8.337
   544G12  H01N 9881   3.045   1.973   8.400
   544G12  H01R 9882   2.940   1.847   8.415
   544G12  H01Q 9883   2.923   1.931   8.262
   544G12  C02A 9884   2.961   1.613   8.262
   544G12  H011 9885   2.924   1.632   8.362
   544G12  C00C 9886   2.838   1.074   8.197
   544G12  H012 9887   2.895   1.154   8.152
   544G12  C00B 9888   2.838   0.951   8.129
   544G12  C00A 9889   2.902   0.925   8.007
   544G12  C009 9890   2.917   1.012   7.893
   544G12  C008 9891   2.890   1.143   7.862
   544G12  H013 9892   2.882   1.213   7.944
   544G12  C007 9893   2.859   1.181   7.729
   544G12  H014 9894   2.858   1.287   7.711
   544G12  C006 9895   2.848   1.088   7.626
   544G12  C005 9896   2.873   0.960   7.658
   544G12  C004 9897   2.851   0.856   7.569
   544G12  C003 9898   2.861   0.723   7.617
   544G12  C002 9899   2.825   0.621   7.516
   544G12  C001 9900   2.801   0.480   7.523
   544G12  C00M 9901   2.737   0.413   7.636
   544G12  C00L 9902   2.763   0.440   7.769
   544G12  C00R 9903   2.692   0.394   7.884
   544G12  C00Q 9904   2.570   0.314   7.891
   544G12  C00V 9905   2.532   0.305   8.027
   544G12  C00U 9906   2.571   0.400   8.130
   544G12  C00T 9907   2.661   0.498   8.104
   544G12  C016 9908   2.689   0.613   8.176
   544G12  C015 9909   2.622   0.625   8.294
   544G12  C010 9910   2.548   0.517   8.342
   544G12  C011 9911   2.499   0.520   8.471
   544G12  H005 9912   2.448   0.437   8.519
   544G12  C012 9913   2.520   0.632   8.554
   544G12  C017 9914   2.484   0.631   8.698
   544G12  O002 9915   2.589   0.605   8.783
   544G12  H004 9916   2.674   0.595   8.743
   544G12  C018 9917   2.358   0.651   8.740
   544G12  O001 9918   2.258   0.679   8.654
   544G12  H003 9919   2.192   0.678   8.722
   544G12  C019 9920   2.307   0.654   8.885
   544G12  H002 9921   2.348   0.567   8.936
   544G12  H001 9922   2.336   0.744   8.938
   544G12  O000 9923   2.173   0.654   8.883
   544G12  C01A 9924   2.097   0.662   8.999
   544G12  C02K 9925   1.958   0.650   8.991
   544G12  O00G 9926   1.905   0.628   8.867
   544G12  C02M 9927   1.879   0.742   8.785
   544G12  H01G 9928   1.968   0.800   8.760
   544G12  H01F 9929   1.811   0.808   8.838
   544G12  H01E 9930   1.834   0.722   8.688
   544G12  C02J 9931   1.881   0.667   9.109
   544G12  H01H 9932   1.774   0.656   9.100
   544G12  C02I 9933   1.937   0.690   9.235
   544G12  C02N 9934   1.870   0.681   9.362
   544G12  H01M 9935   1.914   0.634   9.448
   544G12  C02O 9936   1.737   0.704   9.375
   544G12  H01L 9937   1.687   0.761   9.297
   544G12  C02P 9938   1.650   0.681   9.495
   544G12  H01K 9939   1.563   0.625   9.459
   544G12  H01J 9940   1.700   0.624   9.574
   544G12  O00H 9941   1.607   0.805   9.546
   544G12  H01I 9942   1.552   0.830   9.473
   544G12  C02H 9943   2.079   0.686   9.242
   544G12  H01C 9944   2.135   0.708   9.332
   544G12  C02L 9945   2.155   0.681   9.131
   544G12  H01D 9946   2.261   0.670   9.149
   544G12  C013 9947   2.586   0.749   8.505
   544G12  H000 9948   2.594   0.827   8.578
   544G12  C014 9949   2.635   0.745   8.367
   544G12  C00F 9950   2.700   0.856   8.311
   544G12  C00H 9951   2.773   0.714   8.128
   544G12  C00I 9952   2.854   0.685   8.013
   544G12  C00J 9953   2.826   0.564   7.944
   544G12  C00Z 9954   2.515   0.408   8.255
   544G12  C00Y 9955   2.424   0.305   8.296
   544G12  H006 9956   2.395   0.299   8.400
   544G12  C00X 9957   2.384   0.213   8.198
   544G12  O003 9958   2.296   0.109   8.227
   544G12  C01B 9959   2.296   0.060   8.360
   544G12  H009 9960   2.398   0.034   8.388
   544G12  H008 9961   2.234  -0.030   8.367
   544G12  H007 9962   2.265   0.137   8.429
   544G12  C00W 9963   2.433   0.213   8.066
   544G12  O004 9964   2.367   0.136   7.976
   544G12  C01C 9965   2.379   0.169   7.842
   544G12  H00A 9966   2.293   0.158   7.778
   544G12  C00P 9967   2.487   0.254   7.790
   544G12  C00O 9968   2.509   0.282   7.651
   544G12  C01D 9969   2.402   0.250   7.561
   544G12  H00S 9970   2.312   0.202   7.595
   544G12  C01E 9971   2.396   0.299   7.425
   544G12  O008 9972   2.282   0.292   7.346
   544G12  C01V 9973   2.160   0.257   7.401
   544G12  C01Z 9974   2.106   0.125   7.377
   544G12  H00R 9975   1.997   0.124   7.384
   544G12  H00Q 9976   2.131   0.101   7.274
   544G12  O009 9977   2.159   0.025   7.458
   544G12  H00P 9978   2.112  -0.055   7.439
   544G12  C01W 9979   2.098   0.355   7.470
   544G12  H00O 9980   2.146   0.451   7.479
   544G12  C01X 9981   1.961   0.350   7.532
   544G12  H00N 9982   1.916   0.448   7.517
   544G12  H00M 9983   1.892   0.278   7.487
   544G12  C01Y 9984   1.994   0.325   7.673
   544G12  C02D 9985   2.030   0.431   7.760
   544G12  H019 9986   2.027   0.534   7.729
   544G12  C02C 9987   2.053   0.407   7.897
   544G12  H01A 9988   2.080   0.494   7.954
   544G12  C02B 9989   2.046   0.277   7.948
   544G12  O00E 9990   2.066   0.260   8.080
   544G12  H01B 9991   2.061   0.167   8.095
   544G12  C02F 9992   2.021   0.167   7.862
   544G12  O00F 9993   2.021   0.048   7.920
   544G12  C02G 9994   1.969  -0.069   7.855
   544G12  H017 9995   1.863  -0.048   7.842
   544G12  H016 9996   1.979  -0.148   7.930
   544G12  H015 9997   2.018  -0.092   7.760
   544G12  C02E 9998   2.003   0.196   7.725
   544G12  H018 9999   1.994   0.107   7.664
   544G12  C01F10000   2.498   0.373   7.366
   544G12  C01G10001   2.494   0.456   7.252
   544G12  H00L10002   2.406   0.458   7.190
   544G12  C01H10003   2.601   0.553   7.238
   544G12  H00B10004   2.597   0.633   7.166
   544G12  C01I10005   2.711   0.552   7.327
   544G12  C01U10006   2.623   0.374   7.440
   544G12  C00S10007   2.728   0.477   7.987
   544G12  C00K10008   2.841   0.554   7.806
   544G12  C00N10009   2.620   0.345   7.583
   544G12  C00010010   2.736   0.442   7.406
   544G12  C01J10011   2.783   0.662   7.386
   544G12  C01K10012   2.788   0.798   7.332
   544G12  C01P10013   2.779   0.839   7.196
   544G12  C01Q10014   2.818   0.743   7.092
   544G12  H00G10015   2.888   0.663   7.106
   544G12  C01R10016   2.774   0.764   6.969
   544G12  H00F10017   2.699   0.838   6.943
   544G12  C01S10018   2.818   0.687   6.847
   544G12  H00E10019   2.905   0.741   6.810
   544G12  H00D10020   2.855   0.588   6.877
   544G12  O00510021   2.717   0.694   6.748
   544G12  H00C10022   2.655   0.636   6.788
   544G12  C01O10023   2.775   0.978   7.172
   544G12  H00H10024   2.774   1.016   7.071
   544G12  C01N10025   2.770   1.070   7.281
   544G12  O00610026   2.768   1.204   7.253
   544G12  C01T10027   2.641   1.268   7.280
   544G12  H00K10028   2.566   1.200   7.241
   544G12  H00J10029   2.632   1.362   7.224
   544G12  H00I10030   2.613   1.279   7.385
   544G12  C01M10031   2.794   1.030   7.411
   544G12  C02010032   2.897   0.679   7.746
   544G12  C02110033   2.947   0.789   7.820
   544G12  C01L10034   2.812   0.891   7.436
   544G12  O00710035   2.803   1.127   7.503
   544G12  C02210036   2.927   0.920   7.785
   544G12  C02310037   2.924   0.795   7.964
   544G12  C00G10038   2.772   0.838   8.190
   544G12  C00E10039   2.688   0.991   8.365
   544G12  O00A10040   2.585   1.008   8.451
   544G12  C02410041   2.489   1.098   8.411
   544G12  H00V10042   2.532   1.197   8.393
   544G12  H00U10043   2.417   1.114   8.492
   544G12  H00T10044   2.447   1.072   8.315
   554G12  C00D10045   3.347   2.636   6.145
   554G12  O00B10046   3.258   2.667   6.239
   554G12  C02510047   3.296   2.659   6.369
   554G12  C02610048   3.407   2.755   6.409
   554G12  H00Y10049   3.375   2.799   6.504
   554G12  H00X10050   3.421   2.832   6.334
   554G12  O00C10051   3.521   2.678   6.423
   554G12  H00W10052   3.525   2.602   6.367
   554G12  C02710053   3.218   2.602   6.459
   554G12  O00D10054   3.101   2.546   6.418
   554G12  H00Z10055   3.037   2.541   6.488
   554G12  C02810056   3.241   2.597   6.605
   554G12  C02910057   3.150   2.646   6.696
   554G12  H01010058   3.054   2.688   6.666
   554G12  C02T10059   3.166   2.628   6.834
   554G12  H01O10060   3.085   2.669   6.893
   554G12  C02S10061   3.294   2.591   6.882
   554G12  O00J10062   3.326   2.591   7.019
   554G12  H01P10063   3.418   2.568   7.024
   554G12  C02R10064   3.391   2.546   6.791
   554G12  O00I10065   3.515   2.497   6.842
   554G12  C02Q10066   3.604   2.429   6.756
   554G12  H01N10067   3.637   2.494   6.675
   554G12  H01R10068   3.561   2.338   6.714
   554G12  H01Q10069   3.700   2.419   6.807
   554G12  C02A10070   3.364   2.547   6.659
   554G12  H01110071   3.437   2.514   6.587
   554G12  C00C10072   3.341   2.706   6.023
   554G12  H01210073   3.268   2.785   6.022
   554G12  C00B10074   3.424   2.689   5.914
   554G12  C00A10075   3.429   2.761   5.789
   554G12  C00910076   3.332   2.840   5.709
   554G12  C00810077   3.196   2.869   5.723
   554G12  H01310078   3.144   2.863   5.818
   554G12  C00710079   3.117   2.899   5.609
   554G12  H01410080   3.010   2.909   5.619
   554G12  C00610081   3.175   2.901   5.477
   554G12  C00510082   3.309   2.867   5.470
   554G12  C00410083   3.373   2.846   5.343
   554G12  C00310084   3.506   2.792   5.347
   554G12  C00210085   3.559   2.758   5.211
   554G12  C00110086   3.683   2.687   5.174
   554G12  C00M10087   3.725   2.564   5.240
   554G12  C00L10088   3.739   2.555   5.378
   554G12  C00R10089   3.778   2.448   5.455
   554G12  C00Q10090   3.800   2.311   5.415
   554G12  C00V10091   3.828   2.231   5.532
   554G12  C00U10092   3.804   2.275   5.666
   554G12  C00T10093   3.750   2.399   5.692
   554G12  C01610094   3.684   2.441   5.809
   554G12  C01510095   3.694   2.352   5.916
   554G12  C01010096   3.763   2.231   5.895
   554G12  C01110097   3.788   2.162   6.014
   554G12  H00510098   3.847   2.072   6.022
   554G12  C01210099   3.742   2.206   6.140
   554G12  C01710100   3.788   2.152   6.266
   554G12  O00210101   3.773   2.017   6.281
   554G12  H00410102   3.752   1.978   6.198
   554G12  C01810103   3.812   2.235   6.368
   554G12  O00110104   3.823   2.371   6.353
   554G12  H00310105   3.845   2.403   6.439
   554G12  C01910106   3.853   2.197   6.513
   554G12  H00210107   3.765   2.191   6.576
   554G12  H00110108   3.891   2.095   6.509
   554G12  O00010109   3.959   2.288   6.556
   554G12  C01A10110   3.998   2.284   6.688
   554G12  C02K10111   3.943   2.199   6.792
   554G12  O00G10112   3.857   2.095   6.757
   554G12  C02M10113   3.781   2.022   6.853
   554G12  H01G10114   3.740   2.098   6.920
   554G12  H01F10115   3.843   1.954   6.911
   554G12  H01E10116   3.695   1.974   6.807
   554G12  C02J10117   3.991   2.209   6.925
   554G12  H01H10118   3.944   2.147   6.999
   554G12  C02I10119   4.111   2.284   6.957
   554G12  C02N10120   4.169   2.280   7.090
   554G12  H01M10121   4.113   2.254   7.179
   554G12  C02O10122   4.300   2.283   7.102
   554G12  H01L10123   4.357   2.284   7.010
   554G12  C02P10124   4.372   2.273   7.234
   554G12  H01K10125   4.316   2.201   7.293
   554G12  H01J10126   4.472   2.229   7.230
   554G12  O00H10127   4.370   2.399   7.288
   554G12  H01I10128   4.417   2.449   7.223
   554G12  C02H10129   4.162   2.368   6.856
   554G12  H01C10130   4.255   2.418   6.879
   554G12  C02L10131   4.111   2.362   6.725
   554G12  H01D10132   4.159   2.426   6.653
   554G12  C01310133   3.649   2.311   6.142
   554G12  H00010134   3.599   2.323   6.237
   554G12  C01410135   3.615   2.390   6.029
   554G12  C00F10136   3.527   2.502   6.034
   554G12  C00H10137   3.610   2.559   5.810
   554G12  C00I10138   3.625   2.646   5.702
   554G12  C00J10139   3.707   2.603   5.596
   554G12  C00Z10140   3.817   2.190   5.772
   554G12  C00Y10141   3.873   2.067   5.750
   554G12  H00610142   3.884   1.998   5.832
   554G12  C00X10143   3.911   2.021   5.621
   554G12  O00310144   3.961   1.894   5.589
   554G12  C01B10145   3.946   1.793   5.688
   554G12  H00910146   3.841   1.788   5.718
   554G12  H00810147   4.006   1.810   5.777
   554G12  H00710148   3.958   1.690   5.653
   554G12  C00W10149   3.877   2.102   5.513
   554G12  O00410150   3.898   2.051   5.384
   554G12  C01C10151   3.824   2.111   5.285
   554G12  H00A10152   3.750   2.051   5.233
   554G12  C00P10153   3.799   2.251   5.286
   554G12  C00O10154   3.762   2.319   5.167
   554G12  C01D10155   3.740   2.241   5.049
   554G12  H00S10156   3.752   2.134   5.042
   554G12  C01E10157   3.667   2.290   4.933
   554G12  O00810158   3.624   2.207   4.829
   554G12  C01V10159   3.723   2.148   4.750
   554G12  C01Z10160   3.693   2.007   4.714
   554G12  H00R10161   3.770   1.955   4.656
   554G12  H00Q10162   3.670   1.960   4.810
   554G12  O00910163   3.575   2.002   4.638
   554G12  H00P10164   3.503   2.042   4.685
   554G12  C01W10165   3.832   2.210   4.705
   554G12  H00O10166   3.851   2.310   4.740
   554G12  C01X10167   3.935   2.149   4.607
   554G12  H00N10168   3.881   2.079   4.543
   554G12  H00M10169   3.984   2.225   4.546
   554G12  C01Y10170   4.033   2.056   4.682
   554G12  C02D10171   4.049   2.066   4.824
   554G12  H01910172   3.996   2.136   4.886
   554G12  C02C10173   4.127   1.965   4.888
   554G12  H01A10174   4.157   1.984   4.991
   554G12  C02B10175   4.180   1.855   4.821
   554G12  O00E10176   4.248   1.759   4.878
   554G12  H01B10177   4.298   1.717   4.810
   554G12  C02F10178   4.172   1.852   4.680
   554G12  O00F10179   4.226   1.740   4.615
   554G12  C02G10180   4.239   1.739   4.477
   554G12  H01710181   4.144   1.715   4.429
   554G12  H01610182   4.289   1.643   4.465
   554G12  H01510183   4.285   1.821   4.421
   554G12  C02E10184   4.099   1.957   4.614
   554G12  H01810185   4.086   1.957   4.507
   554G12  C01F10186   3.625   2.427   4.937
   554G12  C01G10187   3.521   2.481   4.855
   554G12  H00L10188   3.484   2.411   4.781
   554G12  C01H10189   3.461   2.607   4.895
   554G12  H00B10190   3.357   2.632   4.881
   554G12  C01I10191   3.528   2.687   4.992
   554G12  C01U10192   3.691   2.514   5.023
   554G12  C00S10193   3.771   2.485   5.588
   554G12  C00K10194   3.678   2.651   5.464
   554G12  C00N10195   3.736   2.457   5.150
   554G12  C00010196   3.661   2.649   5.037
   554G12  C01J10197   3.476   2.769   5.100
   554G12  C01K10198   3.354   2.842   5.094
   554G12  C01P10199   3.281   2.893   4.984
   554G12  C01Q10200   3.337   2.892   4.849
   554G12  H00G10201   3.443   2.902   4.836
   554G12  C01R10202   3.254   2.887   4.743
   554G12  H00F10203   3.148   2.867   4.749
   554G12  C01S10204   3.306   2.896   4.598
   554G12  H00E10205   3.368   2.811   4.572
   554G12  H00D10206   3.232   2.902   4.518
   554G12  O00510207   3.380   3.017   4.581
   554G12  H00C10208   3.439   3.017   4.654
   554G12  C01O10209   3.151   2.943   5.005
   554G12  H00H10210   3.094   2.981   4.922
   554G12  C01N10211   3.081   2.940   5.129
   554G12  O00610212   2.948   2.966   5.151
   554G12  C01T10213   2.872   2.992   5.033
   554G12  H00K10214   2.766   3.003   5.057
   554G12  H00J10215   2.875   2.905   4.967
   554G12  H00I10216   2.909   3.085   4.991
   554G12  C01M10217   3.164   2.910   5.239
   554G12  C02010218   3.578   2.755   5.463
   554G12  C02110219   3.524   2.816   5.578
   554G12  C01L10220   3.301   2.869   5.221
   554G12  O00710221   3.106   2.931   5.362
   554G12  C02210222   3.394   2.856   5.583
   554G12  C02310223   3.542   2.756   5.703
   554G12  C00G10224   3.522   2.589   5.919
   554G12  C00E10225   3.436   2.526   6.147
   554G12  O00A10226   3.428   2.437   6.253
   554G12  C02410227   3.338   2.330   6.246
   554G12  H00V10228   3.344   2.279   6.342
   554G12  H00U10229   3.366   2.261   6.167
   554G12  H00T10230   3.237   2.371   6.236
   564G12  C00D10231   4.916   6.160   6.636
   564G12  O00B10232   4.915   6.068   6.741
   564G12  C02510233   4.851   6.111   6.853
   564G12  C02610234   4.943   6.162   6.961
   564G12  H00Y10235   4.937   6.112   7.057
   564G12  H00X10236   4.916   6.268   6.965
   564G12  O00C10237   5.083   6.158   6.915
   564G12  H00W10238   5.088   6.146   6.821
   564G12  C02710239   4.713   6.112   6.858
   564G12  O00D10240   4.632   6.070   6.751
   564G12  H00Z10241   4.541   6.073   6.775
   564G12  C02810242   4.638   6.154   6.976
   564G12  C02910243   4.670   6.096   7.102
   564G12  H01010244   4.743   6.017   7.108
   564G12  C02T10245   4.603   6.139   7.223
   564G12  H01O10246   4.629   6.091   7.316
   564G12  C02S10247   4.505   6.234   7.213
   564G12  O00J10248   4.447   6.274   7.330
   564G12  H01P10249   4.392   6.346   7.302
   564G12  C02R10250   4.468   6.284   7.087
   564G12  O00I10251   4.368   6.384   7.090
   564G12  C02Q10252   4.263   6.376   6.997
   564G12  H01N10253   4.169   6.424   7.026
   564G12  H01R10254   4.234   6.272   6.981
   564G12  H01Q10255   4.287   6.412   6.897
   564G12  C02A10256   4.531   6.246   6.964
   564G12  H01110257   4.506   6.283   6.866
   564G12  C00C10258   4.901   6.301   6.660
   564G12  H01210259   4.886   6.350   6.755
   564G12  C00B10260   4.896   6.393   6.553
   564G12  C00A10261   4.859   6.531   6.556
   564G12  C00910262   4.757   6.589   6.648
   564G12  C00810263   4.698   6.545   6.768
   564G12  H01310264   4.743   6.472   6.834
   564G12  C00710265   4.570   6.600   6.801
   564G12  H01410266   4.521   6.556   6.887
   564G12  C00610267   4.498   6.690   6.716
   564G12  C00510268   4.565   6.732   6.596
   564G12  C00410269   4.502   6.803   6.489
   564G12  C00310270   4.568   6.829   6.367
   564G12  C00210271   4.489   6.898   6.266
   564G12  C00110272   4.519   6.928   6.126
   564G12  C00M10273   4.578   6.830   6.035
   564G12  C00L10274   4.687   6.748   6.069
   564G12  C00R10275   4.730   6.635   5.990
   564G12  C00Q10276   4.687   6.574   5.870
   564G12  C00V10277   4.745   6.445   5.854
   564G12  C00U10278   4.828   6.377   5.949
   564G12  C00T10279   4.856   6.435   6.070
   564G12  C01610280   4.900   6.369   6.181
   564G12  C01510281   4.947   6.238   6.165
   564G12  C01010282   4.946   6.185   6.039
   564G12  C01110283   5.010   6.063   6.021
   564G12  H00510284   5.007   6.017   5.924
   564G12  C01210285   5.077   5.994   6.130
   564G12  C01710286   5.138   5.867   6.116
   564G12  O00210287   5.148   5.777   6.216
   564G12  H00410288   5.073   5.720   6.205
   564G12  C01810289   5.203   5.837   6.002
   564G12  O00110290   5.240   5.930   5.913
   564G12  H00310291   5.251   5.875   5.838
   564G12  C01910292   5.265   5.703   5.984
   564G12  H00210293   5.368   5.715   5.948
   564G12  H00110294   5.268   5.644   6.075
   564G12  O00010295   5.169   5.651   5.897
   564G12  C01A10296   5.180   5.525   5.852
   564G12  C02K10297   5.095   5.469   5.750
   564G12  O00G10298   4.997   5.544   5.686
   564G12  C02M10299   4.930   5.650   5.763
   564G12  H01G10300   4.833   5.675   5.721
   564G12  H01F10301   4.984   5.743   5.780
   564G12  H01E10302   4.898   5.610   5.860
   564G12  C02J10303   5.116   5.335   5.713
   564G12  H01H10304   5.049   5.296   5.638
   564G12  C02I10305   5.209   5.254   5.774
   564G12  C02N10306   5.216   5.112   5.727
   564G12  H01M10307   5.177   5.078   5.633
   564G12  C02O10308   5.272   5.023   5.811
   564G12  H01L10309   5.310   5.051   5.908
   564G12  C02P10310   5.297   4.880   5.781
   564G12  H01K10311   5.195   4.843   5.794
   564G12  H01J10312   5.321   4.865   5.676
   564G12  O00H10313   5.387   4.810   5.869
   564G12  H01I10314   5.471   4.831   5.832
   564G12  C02H10315   5.283   5.307   5.877
   564G12  H01C10316   5.357   5.246   5.928
   564G12  C02L10317   5.270   5.436   5.921
   564G12  H01D10318   5.342   5.470   5.994
   564G12  C01310319   5.064   6.048   6.257
   564G12  H00010320   5.117   6.002   6.339
   564G12  C01410321   4.991   6.168   6.277
   564G12  C00F10322   4.952   6.213   6.404
   564G12  C00H10323   4.904   6.427   6.306
   564G12  C00I10324   4.878   6.565   6.314
   564G12  C00J10325   4.838   6.631   6.197
   564G12  C00Z10326   4.872   6.249   5.934
   564G12  C00Y10327   4.851   6.180   5.813
   564G12  H00610328   4.884   6.078   5.796
   564G12  C00X10329   4.767   6.243   5.717
   564G12  O00310330   4.739   6.192   5.594
   564G12  C01B10331   4.811   6.075   5.553
   564G12  H00910332   4.780   5.980   5.596
   564G12  H00810333   4.918   6.086   5.569
   564G12  H00710334   4.802   6.075   5.444
   564G12  C00W10335   4.711   6.372   5.739
   564G12  O00410336   4.629   6.417   5.638
   564G12  C01C10337   4.550   6.532   5.670
   564G12  H00A10338   4.552   6.596   5.583
   564G12  C00P10339   4.572   6.612   5.786
   564G12  C00O10340   4.472   6.706   5.825
   564G12  C01D10341   4.347   6.690   5.758
   564G12  H00S10342   4.327   6.619   5.679
   564G12  C01E10343   4.232   6.745   5.813
   564G12  O00810344   4.109   6.676   5.783
   564G12  C01V10345   4.075   6.570   5.853
   564G12  C01Z10346   3.975   6.495   5.774
   564G12  H00R10347   4.003   6.472   5.671
   564G12  H00Q10348   3.958   6.397   5.819
   564G12  O00910349   3.849   6.551   5.781
   564G12  H00P10350   3.861   6.640   5.810
   564G12  C01W10351   4.112   6.543   5.976
   564G12  H00O10352   4.186   6.609   6.020
   564G12  C01X10353   4.073   6.436   6.077
   564G12  H00N10354   4.033   6.343   6.036
   564G12  H00M10355   4.169   6.407   6.118
   564G12  C01Y10356   3.984   6.503   6.179
   564G12  C02D10357   4.028   6.518   6.314
   564G12  H01910358   4.115   6.462   6.346
   564G12  C02C10359   3.956   6.604   6.405
   564G12  H01A10360   3.996   6.616   6.504
   564G12  C02B10361   3.849   6.681   6.359
   564G12  O00E10362   3.780   6.770   6.437
   564G12  H01B10363   3.716   6.815   6.384
   564G12  C02F10364   3.814   6.677   6.224
   564G12  O00F10365   3.698   6.742   6.182
   564G12  C02G10366   3.597   6.636   6.179
   564G12  H01710367   3.597   6.567   6.263
   564G12  H01610368   3.613   6.570   6.094
   564G12  H01510369   3.496   6.679   6.175
   564G12  C02E10370   3.880   6.588   6.140
   564G12  H01810371   3.840   6.577   6.040
   564G12  C01F10372   4.239   6.837   5.921
   564G12  C01G10373   4.124   6.876   5.997
   564G12  H00L10374   4.026   6.839   5.972
   564G12  C01H10375   4.155   6.937   6.127
   564G12  H00B10376   4.065   6.953   6.186
   564G12  C01I10377   4.285   6.966   6.163
   564G12  C01U10378   4.367   6.888   5.958
   564G12  C00S10379   4.817   6.564   6.078
   564G12  C00K10380   4.738   6.732   6.202
   564G12  C00N10381   4.480   6.802   5.930
   564G12  C00010382   4.391   6.971   6.068
   564G12  C01J10383   4.350   6.935   6.291
   564G12  C01K10384   4.290   6.924   6.420
   564G12  C01P10385   4.168   6.984   6.469
   564G12  C01Q10386   4.104   7.091   6.388
   564G12  H00G10387   4.160   7.157   6.325
   564G12  C01R10388   3.970   7.119   6.405
   564G12  H00F10389   3.913   7.058   6.473
   564G12  C01S10390   3.881   7.227   6.335
   564G12  H00E10391   3.804   7.263   6.402
   564G12  H00D10392   3.950   7.307   6.309
   564G12  O00510393   3.825   7.174   6.220
   564G12  H00C10394   3.847   7.231   6.148
   564G12  C01O10395   4.116   6.949   6.598
   564G12  H00H10396   4.027   6.993   6.642
   564G12  C01N10397   4.185   6.861   6.674
   564G12  O00610398   4.141   6.827   6.796
   564G12  C01T10399   4.060   6.712   6.798
   564G12  H00K10400   4.111   6.617   6.785
   564G12  H00J10401   3.969   6.714   6.737
   564G12  H00I10402   4.023   6.695   6.899
   564G12  C01M10403   4.311   6.813   6.637
   564G12  C02010404   4.699   6.775   6.339
   564G12  C02110405   4.766   6.720   6.453
   564G12  C01L10406   4.365   6.841   6.512
   564G12  O00710407   4.364   6.727   6.732
   564G12  C02210408   4.699   6.699   6.572
   564G12  C02310409   4.863   6.615   6.442
   564G12  C00G10410   4.923   6.351   6.424
   564G12  C00E10411   4.931   6.117   6.504
   564G12  O00A10412   4.915   5.981   6.473
   564G12  C02410413   4.799   5.918   6.530
   564G12  H00V10414   4.779   5.818   6.492
   564G12  H00U10415   4.709   5.972   6.500
   564G12  H00T10416   4.806   5.897   6.637
   574G12  C00D10417   3.794   2.405   4.005
   574G12  O00B10418   3.734   2.300   4.073
   574G12  C02510419   3.659   2.324   4.186
   574G12  C02610420   3.710   2.248   4.304
   574G12  H00Y10421   3.633   2.178   4.337
   574G12  H00X10422   3.728   2.313   4.390
   574G12  O00C10423   3.823   2.171   4.268
   574G12  H00W10424   3.815   2.133   4.182
   574G12  C02710425   3.553   2.405   4.180
   574G12  O00D10426   3.504   2.452   4.063
   574G12  H00Z10427   3.578   2.440   4.005
   574G12  C02810428   3.473   2.417   4.296
   574G12  C02910429   3.505   2.502   4.400
   574G12  H01010430   3.596   2.560   4.391
   574G12  C02T10431   3.415   2.509   4.508
   574G12  H01O10432   3.440   2.582   4.584
   574G12  C02S10433   3.308   2.419   4.519
   574G12  O00J10434   3.216   2.426   4.618
   574G12  H01P10435   3.175   2.340   4.616
   574G12  C02R10436   3.285   2.316   4.428
   574G12  O00I10437   3.187   2.224   4.448
   574G12  C02Q10438   3.135   2.154   4.334
   574G12  H01N10439   3.098   2.212   4.249
   574G12  H01R10440   3.044   2.105   4.369
   574G12  H01Q10441   3.193   2.081   4.278
   574G12  C02A10442   3.373   2.319   4.313
   574G12  H01110443   3.359   2.244   4.236
   574G12  C00C10444   3.838   2.375   3.879
   574G12  H01210445   3.828   2.271   3.851
   574G12  C00B10446   3.922   2.462   3.810
   574G12  C00A10447   3.995   2.433   3.692
   574G12  C00910448   4.049   2.302   3.666
   574G12  C00810449   4.032   2.168   3.713
   574G12  H01310450   3.945   2.141   3.770
   574G12  C00710451   4.127   2.065   3.685
   574G12  H01410452   4.108   1.964   3.720
   574G12  C00610453   4.251   2.105   3.629
   574G12  C00510454   4.265   2.239   3.592
   574G12  C00410455   4.394   2.294   3.560
   574G12  C00310456   4.409   2.438   3.543
   574G12  C00210457   4.541   2.485   3.505
   574G12  C00110458   4.609   2.610   3.490
   574G12  C00M10459   4.582   2.733   3.563
   574G12  C00L10460   4.443   2.764   3.596
   574G12  C00R10461   4.401   2.861   3.697
   574G12  C00Q10462   4.482   2.935   3.793
   574G12  C00V10463   4.398   2.996   3.893
   574G12  C00U10464   4.264   2.962   3.924
   574G12  C00T10465   4.207   2.864   3.843
   574G12  C01610466   4.100   2.788   3.886
   574G12  C01510467   4.041   2.828   4.006
   574G12  C01010468   4.086   2.943   4.075
   574G12  C01110469   4.014   2.991   4.183
   574G12  H00510470   4.048   3.076   4.240
   574G12  C01210471   3.899   2.924   4.236
   574G12  C01710472   3.823   2.975   4.350
   574G12  O00210473   3.784   3.108   4.357
   574G12  H00410474   3.764   3.108   4.450
   574G12  C01810475   3.787   2.893   4.447
   574G12  O00110476   3.830   2.766   4.454
   574G12  H00310477   3.912   2.755   4.407
   574G12  C01910478   3.737   2.939   4.587
   574G12  H00210479   3.647   2.882   4.610
   574G12  H00110480   3.822   2.902   4.644
   574G12  O00010481   3.734   3.076   4.604
   574G12  C01A10482   3.736   3.116   4.733
   574G12  C02K10483   3.750   3.255   4.754
   574G12  O00G10484   3.778   3.338   4.650
   574G12  C02M10485   3.657   3.392   4.586
   574G12  H01G10486   3.679   3.470   4.513
   574G12  H01F10487   3.577   3.416   4.656
   574G12  H01E10488   3.610   3.321   4.517
   574G12  C02J10489   3.766   3.299   4.888
   574G12  H01H10490   3.794   3.403   4.898
   574G12  C02I10491   3.744   3.216   5.001
   574G12  C02N10492   3.760   3.266   5.134
   574G12  H01M10493   3.802   3.202   5.211
   574G12  C02O10494   3.746   3.398   5.168
   574G12  H01L10495   3.700   3.457   5.089
   574G12  C02P10496   3.755   3.460   5.305
   574G12  H01K10497   3.664   3.501   5.348
   574G12  H01J10498   3.810   3.391   5.369
   574G12  O00H10499   3.836   3.575   5.286
   574G12  H01I10500   3.780   3.630   5.234
   574G12  C02H10501   3.722   3.075   4.979
   574G12  H01C10502   3.706   3.013   5.066
   574G12  C02L10503   3.733   3.026   4.846
   574G12  H01D10504   3.724   2.919   4.843
   574G12  C01310505   3.862   2.806   4.168
   574G12  H00010506   3.770   2.762   4.202
   574G12  C01410507   3.934   2.756   4.053
   574G12  C00F10508   3.897   2.631   3.994
   574G12  C00H10509   4.052   2.674   3.816
   574G12  C00I10510   4.108   2.653   3.688
   574G12  C00J10511   4.222   2.728   3.653
   574G12  C00Z10512   4.198   3.009   4.032
   574G12  C00Y10513   4.255   3.125   4.094
   574G12  H00610514   4.221   3.171   4.185
   574G12  C00X10515   4.378   3.177   4.057
   574G12  O00310516   4.427   3.287   4.126
   574G12  C01B10517   4.458   3.394   4.044
   574G12  H00910518   4.540   3.374   3.976
   574G12  H00810519   4.487   3.478   4.107
   574G12  H00710520   4.372   3.424   3.984
   574G12  C00W10521   4.456   3.104   3.966
   574G12  O00410522   4.583   3.148   3.943
   574G12  C01C10523   4.674   3.062   3.888
   574G12  H00A10524   4.780   3.081   3.899
   574G12  C00P10525   4.626   2.953   3.807
   574G12  C00O10526   4.717   2.852   3.760
   574G12  C01D10527   4.837   2.825   3.828
   574G12  H00S10528   4.860   2.887   3.913
   574G12  C01E10529   4.914   2.709   3.813
   574G12  O00810530   5.018   2.679   3.898
   574G12  C01V10531   5.046   2.760   4.002
   574G12  C01Z10532   5.175   2.839   3.982
   574G12  H00R10533   5.200   2.875   4.081
   574G12  H00Q10534   5.256   2.778   3.942
   574G12  O00910535   5.157   2.951   3.904
   574G12  H00P10536   5.130   2.924   3.818
   574G12  C01W10537   4.964   2.767   4.110
   574G12  H00O10538   4.878   2.701   4.114
   574G12  C01X10539   4.976   2.853   4.230
   574G12  H00N10540   4.923   2.814   4.316
   574G12  H00M10541   5.083   2.858   4.249
   574G12  C01Y10542   4.927   2.997   4.206
   574G12  C02D10543   4.795   3.026   4.240
   574G12  H01910544   4.727   2.949   4.274
   574G12  C02C10545   4.753   3.160   4.234
   574G12  H01A10546   4.655   3.183   4.273
   574G12  C02B10547   4.833   3.258   4.171
   574G12  O00E10548   4.796   3.388   4.148
   574G12  H01B10549   4.862   3.448   4.118
   574G12  C02F10550   4.966   3.229   4.142
   574G12  O00F10551   5.046   3.333   4.099
   574G12  C02G10552   5.181   3.299   4.076
   574G12  H01710553   5.201   3.217   4.007
   574G12  H01610554   5.231   3.277   4.170
   574G12  H01510555   5.232   3.386   4.034
   574G12  C02E10556   5.016   3.099   4.171
   574G12  H01810557   5.121   3.078   4.156
   574G12  C01F10558   4.882   2.619   3.714
   574G12  C01G10559   4.927   2.486   3.704
   574G12  H00L10560   4.997   2.440   3.773
   574G12  C01H10561   4.868   2.392   3.611
   574G12  H00B10562   4.890   2.289   3.633
   574G12  C01I10563   4.769   2.437   3.522
   574G12  C01U10564   4.789   2.657   3.613
   574G12  C00S10565   4.270   2.833   3.721
   574G12  C00K10566   4.330   2.674   3.582
   574G12  C00N10567   4.694   2.762   3.653
   574G12  C00010568   4.744   2.576   3.509
   574G12  C01J10569   4.641   2.380   3.497
   574G12  C01K10570   4.630   2.238   3.509
   574G12  C01P10571   4.720   2.129   3.473
   574G12  C01Q10572   4.846   2.167   3.406
   574G12  H00G10573   4.848   2.250   3.336
   574G12  C01R10574   4.957   2.097   3.429
   574G12  H00F10575   4.971   2.014   3.496
   574G12  C01S10576   5.087   2.122   3.364
   574G12  H00E10577   5.071   2.179   3.272
   574G12  H00D10578   5.154   2.171   3.435
   574G12  O00510579   5.156   2.007   3.327
   574G12  H00C10580   5.246   2.012   3.356
   574G12  C01O10581   4.683   1.992   3.484
   574G12  H00H10582   4.766   1.926   3.461
   574G12  C01N10583   4.557   1.956   3.531
   574G12  O00610584   4.515   1.824   3.556
   574G12  C01T10585   4.609   1.722   3.523
   574G12  H00K10586   4.634   1.726   3.417
   574G12  H00J10587   4.555   1.628   3.537
   574G12  H00I10588   4.701   1.734   3.581
   574G12  C01M10589   4.471   2.061   3.563
   574G12  C02010590   4.305   2.533   3.547
   574G12  C02110591   4.177   2.468   3.554
   574G12  C01L10592   4.498   2.202   3.542
   574G12  O00710593   4.354   2.017   3.611
   574G12  C02210594   4.162   2.335   3.585
   574G12  C02310595   4.072   2.532   3.625
   574G12  C00G10596   3.955   2.589   3.870
   574G12  C00E10597   3.831   2.530   4.063
   574G12  O00A10598   3.817   2.532   4.201
   574G12  C02410599   3.937   2.501   4.269
   574G12  H00V10600   3.928   2.500   4.378
   574G12  H00U10601   4.020   2.567   4.245
   574G12  H00T10602   3.979   2.407   4.233
   584G12  C00D10603   3.495   2.986   9.114
   584G12  O00B10604   3.428   3.076   9.033
   584G12  C02510605   3.289   3.066   9.034
   584G12  C02610606   3.229   3.120   9.163
   584G12  H00Y10607   3.232   3.046   9.244
   584G12  H00X10608   3.125   3.146   9.142
   584G12  O00C10609   3.305   3.236   9.192
   584G12  H00W10610   3.379   3.207   9.245
   584G12  C02710611   3.230   3.028   8.919
   584G12  O00D10612   3.304   2.989   8.810
   584G12  H00Z10613   3.394   2.989   8.839
   584G12  C02810614   3.083   3.021   8.917
   584G12  C02910615   3.005   3.086   8.813
   584G12  H01010616   3.045   3.154   8.739
   584G12  C02T10617   2.863   3.079   8.810
   584G12  H01O10618   2.799   3.126   8.738
   584G12  C02S10619   2.797   3.003   8.907
   584G12  O00J10620   2.660   2.991   8.908
   584G12  H01P10621   2.646   2.932   8.981
   584G12  C02R10622   2.868   2.936   9.010
   584G12  O00I10623   2.809   2.852   9.105
   584G12  C02Q10624   2.759   2.915   9.220
   584G12  H01N10625   2.836   2.971   9.274
   584G12  H01R10626   2.709   2.844   9.286
   584G12  H01Q10627   2.680   2.980   9.182
   584G12  C02A10628   3.011   2.943   9.013
   584G12  H01110629   3.059   2.891   9.094
   584G12  C00C10630   3.485   2.854   9.089
   584G12  H01210631   3.425   2.828   9.003
   584G12  C00B10632   3.542   2.754   9.164
   584G12  C00A10633   3.529   2.611   9.155
   584G12  C00910634   3.404   2.546   9.116
   584G12  C00810635   3.279   2.589   9.061
   584G12  H01310636   3.258   2.687   9.020
   584G12  C00710637   3.163   2.517   9.084
   584G12  H01410638   3.068   2.555   9.048
   584G12  C00610639   3.170   2.396   9.164
   584G12  C00510640   3.296   2.359   9.214
   584G12  C00410641   3.313   2.263   9.312
   584G12  C00310642   3.432   2.245   9.385
   584G12  C00210643   3.436   2.143   9.489
   584G12  C00110644   3.529   2.098   9.594
   584G12  C00M10645   3.597   2.201   9.671
   584G12  C00L10646   3.660   2.318   9.611
   584G12  C00R10647   3.709   2.432   9.682
   584G12  C00Q10648   3.727   2.464   9.818
   584G12  C00V10649   3.779   2.598   9.836
   584G12  C00U10650   3.782   2.694   9.731
   584G12  C00T10651   3.737   2.661   9.605
   584G12  C01610652   3.710   2.749   9.503
   584G12  C01510653   3.738   2.878   9.525
   584G12  C01010654   3.802   2.919   9.647
   584G12  C01110655   3.840   3.054   9.658
   584G12  H00510656   3.871   3.089   9.756
   584G12  C01210657   3.825   3.149   9.559
   584G12  C01710658   3.862   3.288   9.592
   584G12  O00210659   3.987   3.313   9.647
   584G12  H00410660   4.003   3.406   9.639
   584G12  C01810661   3.783   3.392   9.549
   584G12  O00110662   3.661   3.382   9.490
   584G12  H00310663   3.630   3.292   9.494
   584G12  C01910664   3.827   3.537   9.572
   584G12  H00210665   3.840   3.571   9.469
   584G12  H00110666   3.749   3.593   9.623
   584G12  O00010667   3.947   3.569   9.645
   584G12  C01A10668   3.997   3.702   9.640
   584G12  C02K10669   4.119   3.737   9.696
   584G12  O00G10670   4.184   3.640   9.757
   584G12  C02M10671   4.299   3.662   9.846
   584G12  H01G10672   4.380   3.711   9.792
   584G12  H01F10673   4.318   3.563   9.888
   584G12  H01E10674   4.269   3.724   9.930
   584G12  C02J10675   4.175   3.865   9.684
   584G12  H01H10676   4.268   3.888   9.733
   584G12  C02I10677   4.101   3.963   9.619
   584G12  C02N10678   4.161   4.095   9.613
   584G12  H01M10679   4.268   4.106   9.621
   584G12  C02O10680   4.094   4.203   9.564
   584G12  H01L10681   3.986   4.208   9.557
   584G12  C02P10682   4.161   4.337   9.536
   584G12  H01K10683   4.138   4.405   9.619
   584G12  H01J10684   4.268   4.324   9.519
   584G12  O00H10685   4.088   4.383   9.426
   584G12  H01I10686   4.126   4.461   9.390
   584G12  C02H10687   3.979   3.932   9.567
   584G12  H01C10688   3.912   4.010   9.532
   584G12  C02L10689   3.928   3.802   9.568
   584G12  H01D10690   3.838   3.788   9.509
   584G12  C01310691   3.774   3.101   9.444
   584G12  H00010692   3.784   3.161   9.354
   584G12  C01410693   3.723   2.971   9.424
   584G12  C00F10694   3.645   2.930   9.307
   584G12  C00H10695   3.667   2.703   9.377
   584G12  C00I10696   3.670   2.565   9.352
   584G12  C00J10697   3.695   2.480   9.461
   584G12  C00Z10698   3.824   2.825   9.750
   584G12  C00Y10699   3.881   2.858   9.880
   584G12  H00610700   3.934   2.951   9.890
   584G12  C00X10701   3.867   2.771   9.988
   584G12  O00310702   3.921   2.807  10.110
   584G12  C01B10703   3.874   2.936  10.167
   584G12  H00910704   3.884   2.934  10.276
   584G12  H00810705   3.767   2.945  10.150
   584G12  H00710706   3.944   3.009  10.127
   584G12  C00W10707   3.816   2.642   9.965
   584G12  O00410708   3.800   2.555  10.074
   584G12  C01C10709   3.708   2.452  10.063
   584G12  H00A10710   3.671   2.409  10.154
   584G12  C00P10711   3.682   2.388   9.934
   584G12  C00O10712   3.598   2.266   9.924
   584G12  C01D10713   3.528   2.221  10.042
   584G12  H00S10714   3.555   2.254  10.142
   584G12  C01E10715   3.414   2.139  10.036
   584G12  O00810716   3.334   2.125  10.146
   584G12  C01V10717   3.263   2.235  10.176
   584G12  C01Z10718   3.282   2.307  10.312
   584G12  H00R10719   3.303   2.414  10.305
   584G12  H00Q10720   3.194   2.285  10.371
   584G12  O00910721   3.387   2.240  10.372
   584G12  H00P10722   3.393   2.153  10.336
   584G12  C01W10723   3.202   2.298  10.079
   584G12  H00O10724   3.193   2.266   9.976
   584G12  C01X10725   3.127   2.433  10.086
   584G12  H00N10726   3.043   2.423  10.017
   584G12  H00M10727   3.082   2.463  10.180
   584G12  C01Y10728   3.211   2.544  10.025
   584G12  C02D10729   3.260   2.651  10.103
   584G12  H01910730   3.237   2.661  10.208
   584G12  C02C10731   3.344   2.745  10.043
   584G12  H01A10732   3.381   2.829  10.100
   584G12  C02B10733   3.382   2.739   9.905
   584G12  O00E10734   3.459   2.834   9.850
   584G12  H01B10735   3.442   2.816   9.759
   584G12  C02F10736   3.331   2.633   9.825
   584G12  O00F10737   3.377   2.623   9.693
   584G12  C02G10738   3.371   2.490   9.640
   584G12  H01710739   3.436   2.503   9.553
   584G12  H01610740   3.272   2.457   9.609
   584G12  H01510741   3.415   2.424   9.715
   584G12  C02E10742   3.248   2.540   9.889
   584G12  H01810743   3.218   2.458   9.826
   584G12  C01F10744   3.381   2.079   9.910
   584G12  C01G10745   3.255   2.030   9.880
   584G12  H00L10746   3.183   2.052   9.958
   584G12  C01H10747   3.221   2.001   9.745
   584G12  H00B10748   3.115   2.006   9.724
   584G12  C01I10749   3.318   2.008   9.641
   584G12  C01U10750   3.475   2.082   9.807
   584G12  C00S10751   3.734   2.527   9.582
   584G12  C00K10752   3.638   2.356   9.474
   584G12  C00N10753   3.560   2.193   9.808
   584G12  C00010754   3.452   2.024   9.682
   584G12  C01J10755   3.317   2.064   9.507
   584G12  C01K10756   3.197   2.073   9.432
   584G12  C01P10757   3.091   1.975   9.427
   584G12  C01Q10758   3.105   1.849   9.493
   584G12  H00G10759   3.200   1.797   9.489
   584G12  C01R10760   3.008   1.799   9.570
   584G12  H00F10761   2.909   1.843   9.570
   584G12  C01S10762   3.027   1.678   9.657
   584G12  H00E10763   2.956   1.604   9.618
   584G12  H00D10764   3.125   1.631   9.658
   584G12  O00510765   3.000   1.715   9.797
   584G12  H00C10766   3.064   1.658   9.836
   584G12  C01O10767   2.972   2.003   9.358
   584G12  H00H10768   2.897   1.925   9.354
   584G12  C01N10769   2.969   2.112   9.275
   584G12  O00610770   2.868   2.142   9.195
   584G12  C01T10771   2.755   2.053   9.194
   584G12  H00K10772   2.702   2.054   9.289
   584G12  H00J10773   2.778   1.950   9.168
   584G12  H00I10774   2.694   2.067   9.105
   584G12  C01M10775   3.077   2.201   9.270
   584G12  C02010776   3.547   2.326   9.365
   584G12  C02110777   3.538   2.401   9.240
   584G12  C01L10778   3.199   2.180   9.341
   584G12  O00710779   3.061   2.320   9.197
   584G12  C02210780   3.418   2.415   9.171
   584G12  C02310781   3.609   2.528   9.230
   584G12  C00G10782   3.614   2.795   9.280
   584G12  C00E10783   3.576   3.027   9.221
   584G12  O00A10784   3.577   3.161   9.251
   584G12  C02410785   3.646   3.244   9.159
   584G12  H00V10786   3.580   3.256   9.073
   584G12  H00U10787   3.743   3.201   9.138
   584G12  H00T10788   3.662   3.348   9.187
   594G12  C00D10789   6.159   6.598   4.550
   594G12  O00B10790   6.200   6.713   4.485
   594G12  C02510791   6.166   6.833   4.543
   594G12  C02610792   6.065   6.908   4.459
   594G12  H00Y10793   6.084   6.894   4.353
   594G12  H00X10794   6.072   7.016   4.472
   594G12  O00C10795   5.931   6.872   4.483
   594G12  H00W10796   5.916   6.783   4.454
   594G12  C02710797   6.221   6.875   4.663
   594G12  O00D10798   6.323   6.808   4.714
   594G12  H00Z10799   6.354   6.752   4.644
   594G12  C02810800   6.173   6.991   4.733
   594G12  C02910801   6.265   7.068   4.815
   594G12  H01010802   6.370   7.042   4.811
   594G12  C02T10803   6.213   7.161   4.907
   594G12  H01O10804   6.287   7.213   4.965
   594G12  C02S10805   6.078   7.180   4.921
   594G12  O00J10806   6.026   7.269   5.011
   594G12  H01P10807   5.940   7.244   5.041
   594G12  C02R10808   5.987   7.109   4.835
   594G12  O00I10809   5.852   7.115   4.867
   594G12  C02Q10810   5.767   7.004   4.827
   594G12  H01N10811   5.668   7.031   4.866
   594G12  H01R10812   5.800   6.907   4.864
   594G12  H01Q10813   5.756   7.000   4.719
   594G12  C02A10814   6.034   7.021   4.741
   594G12  H01110815   5.964   6.954   4.694
   594G12  C00C10816   6.070   6.598   4.656
   594G12  H01210817   6.006   6.682   4.677
   594G12  C00B10818   6.048   6.489   4.739
   594G12  C00A10819   5.969   6.488   4.854
   594G12  C00910820   5.940   6.596   4.941
   594G12  C00810821   5.968   6.737   4.943
   594G12  H01310822   5.991   6.784   4.849
   594G12  C00710823   5.974   6.811   5.061
   594G12  H01410824   5.988   6.918   5.062
   594G12  C00610825   5.959   6.748   5.190
   594G12  C00510826   5.944   6.608   5.184
   594G12  C00410827   5.965   6.524   5.297
   594G12  C00310828   5.970   6.380   5.288
   594G12  C00210829   6.002   6.314   5.413
   594G12  C00110830   6.037   6.179   5.441
   594G12  C00M10831   6.121   6.097   5.352
   594G12  C00L10832   6.105   6.091   5.214
   594G12  C00R10833   6.190   6.026   5.126
   594G12  C00Q10834   6.310   5.954   5.144
   594G12  C00V10835   6.375   5.927   5.022
   594G12  C00U10836   6.346   5.985   4.898
   594G12  C00T10837   6.236   6.064   4.885
   594G12  C01610838   6.215   6.159   4.788
   594G12  C01510839   6.295   6.156   4.677
   594G12  C01010840   6.396   6.062   4.675
   594G12  C01110841   6.473   6.047   4.557
   594G12  H00510842   6.546   5.969   4.547
   594G12  C01210843   6.452   6.130   4.443
   594G12  C01710844   6.522   6.116   4.318
   594G12  O00210845   6.443   6.124   4.207
   594G12  H00410846   6.353   6.129   4.236
   594G12  C01810847   6.655   6.074   4.316
   594G12  O00110848   6.741   6.067   4.423
   594G12  H00310849   6.820   6.033   4.383
   594G12  C01910850   6.721   6.037   4.180
   594G12  H00210851   6.646   5.967   4.142
   594G12  H00110852   6.723   6.124   4.114
   594G12  O00010853   6.848   5.976   4.199
   594G12  C01A10854   6.849   5.838   4.218
   594G12  C02K10855   6.891   5.791   4.347
   594G12  O00G10856   6.923   5.878   4.447
   594G12  C02M10857   6.896   5.828   4.573
   594G12  H01G10858   6.942   5.904   4.636
   594G12  H01F10859   6.940   5.734   4.606
   594G12  H01E10860   6.788   5.833   4.589
   594G12  C02J10861   6.867   5.653   4.366
   594G12  H01H10862   6.891   5.603   4.459
   594G12  C02I10863   6.831   5.564   4.260
   594G12  C02N10864   6.802   5.428   4.306
   594G12  H01M10865   6.792   5.401   4.410
   594G12  C02O10866   6.795   5.328   4.216
   594G12  H01L10867   6.802   5.357   4.112
   594G12  C02P10868   6.774   5.183   4.261
   594G12  H01K10869   6.781   5.187   4.370
   594G12  H01J10870   6.672   5.150   4.241
   594G12  O00H10871   6.862   5.104   4.193
   594G12  H01I10872   6.947   5.128   4.226
   594G12  C02H10873   6.808   5.613   4.129
   594G12  H01C10874   6.763   5.552   4.052
   594G12  C02L10875   6.810   5.753   4.110
   594G12  H01D10876   6.793   5.794   4.011
   594G12  C01310877   6.356   6.233   4.454
   594G12  H00010878   6.356   6.292   4.363
   594G12  C01410879   6.276   6.247   4.572
   594G12  C00F10880   6.197   6.358   4.599
   594G12  C00H10881   6.111   6.252   4.798
   594G12  C00I10882   6.031   6.254   4.911
   594G12  C00J10883   6.051   6.154   5.007
   594G12  C00Z10884   6.426   5.980   4.788
   594G12  C00Y10885   6.546   5.900   4.798
   594G12  H00610886   6.609   5.889   4.711
   594G12  C00X10887   6.586   5.842   4.919
   594G12  O00310888   6.702   5.770   4.917
   594G12  C01B10889   6.685   5.628   4.912
   594G12  H00910890   6.608   5.610   4.837
   594G12  H00810891   6.636   5.593   5.002
   594G12  H00710892   6.779   5.581   4.883
   594G12  C00W10893   6.503   5.856   5.033
   594G12  O00410894   6.557   5.808   5.146
   594G12  C01C10895   6.498   5.843   5.260
   594G12  H00A10896   6.520   5.781   5.346
   594G12  C00P10897   6.384   5.926   5.264
   594G12  C00O10898   6.354   5.986   5.392
   594G12  C01D10899   6.460   6.003   5.484
   594G12  H00S10900   6.557   5.959   5.465
   594G12  C01E10901   6.460   6.095   5.591
   594G12  O00810902   6.575   6.126   5.655
   594G12  C01V10903   6.630   6.242   5.614
   594G12  C01Z10904   6.681   6.317   5.732
   594G12  H00R10905   6.666   6.425   5.726
   594G12  H00Q10906   6.656   6.273   5.829
   594G12  O00910907   6.820   6.304   5.713
   594G12  H00P10908   6.840   6.228   5.661
   594G12  C01W10909   6.658   6.268   5.484
   594G12  H00O10910   6.627   6.206   5.400
   594G12  C01X10911   6.715   6.396   5.444
   594G12  H00N10912   6.655   6.444   5.367
   594G12  H00M10913   6.718   6.473   5.521
   594G12  C01Y10914   6.856   6.386   5.382
   594G12  C02D10915   6.966   6.468   5.437
   594G12  H01910916   6.953   6.514   5.533
   594G12  C02C10917   7.081   6.467   5.361
   594G12  H01A10918   7.167   6.525   5.391
   594G12  C02B10919   7.089   6.404   5.240
   594G12  O00E10920   7.198   6.413   5.168
   594G12  H01B10921   7.189   6.339   5.111
   594G12  C02F10922   6.982   6.326   5.184
   594G12  O00F10923   7.001   6.255   5.067
   594G12  C02G10924   6.879   6.213   5.001
   594G12  H01710925   6.809   6.288   4.964
   594G12  H01610926   6.824   6.143   5.064
   594G12  H01510927   6.900   6.147   4.917
   594G12  C02E10928   6.868   6.316   5.265
   594G12  H01810929   6.781   6.267   5.224
   594G12  C01F10930   6.337   6.155   5.624
   594G12  C01G10931   6.326   6.267   5.707
   594G12  H00L10932   6.414   6.302   5.760
   594G12  C01H10933   6.212   6.355   5.707
   594G12  H00B10934   6.223   6.457   5.743
   594G12  C01I10935   6.105   6.317   5.623
   594G12  C01U10936   6.222   6.122   5.554
   594G12  C00S10937   6.151   6.058   4.992
   594G12  C00K10938   6.026   6.180   5.145
   594G12  C00N10939   6.235   6.050   5.428
   594G12  C00010940   6.099   6.186   5.565
   594G12  C01J10941   6.025   6.399   5.531
   594G12  C01K10942   6.005   6.543   5.545
   594G12  C01P10943   5.992   6.617   5.667
   594G12  C01Q10944   5.983   6.547   5.792
   594G12  H00G10945   5.944   6.447   5.796
   594G12  C01R10946   6.035   6.590   5.908
   594G12  H00F10947   6.073   6.691   5.908
   594G12  C01S10948   6.030   6.521   6.040
   594G12  H00E10949   5.959   6.572   6.105
   594G12  H00D10950   5.980   6.424   6.034
   594G12  O00510951   6.157   6.529   6.104
   594G12  H00C10952   6.135   6.490   6.186
   594G12  C01O10953   5.989   6.757   5.663
   594G12  H00H10954   5.998   6.819   5.751
   594G12  C01N10955   5.996   6.821   5.539
   594G12  O00610956   5.989   6.957   5.538
   594G12  C01T10957   6.114   7.024   5.531
   594G12  H00K10958   6.193   6.996   5.602
   594G12  H00J10959   6.088   7.128   5.548
   594G12  H00I10960   6.161   7.003   5.435
   594G12  C01M10961   5.988   6.739   5.421
   594G12  C02010962   5.962   6.312   5.164
   594G12  C02110963   5.917   6.395   5.059
   594G12  C01L10964   5.984   6.594   5.420
   594G12  O00710965   5.981   6.809   5.310
   594G12  C02210966   5.914   6.532   5.070
   594G12  C02310967   5.951   6.367   4.925
   594G12  C00G10968   6.115   6.366   4.711
   594G12  C00E10969   6.207   6.473   4.513
   594G12  O00A10970   6.260   6.474   4.388
   594G12  C02410971   6.160   6.471   4.286
   594G12  H00V10972   6.091   6.553   4.307
   594G12  H00U10973   6.106   6.376   4.287
   594G12  H00T10974   6.210   6.474   4.190
   604G12  C00D10975   5.254   5.972   7.338
   604G12  O00B10976   5.198   6.075   7.413
   604G12  C02510977   5.104   6.154   7.360
   604G12  C02610978   4.963   6.102   7.377
   604G12  H00Y10979   4.881   6.170   7.360
   604G12  H00X10980   4.952   6.071   7.481
   604G12  O00C10981   4.944   5.986   7.297
   604G12  H00W10982   4.951   5.905   7.345
   604G12  C02710983   5.142   6.279   7.318
   604G12  O00D10984   5.278   6.308   7.318
   604G12  H00Z10985   5.309   6.222   7.340
   604G12  C02810986   5.035   6.375   7.289
   604G12  C02910987   4.930   6.409   7.381
   604G12  H01010988   4.926   6.351   7.473
   604G12  C02T10989   4.835   6.512   7.339
   604G12  H01O10990   4.750   6.530   7.402
   604G12  C02S10991   4.850   6.576   7.223
   604G12  O00J10992   4.765   6.679   7.196
   604G12  H01P10993   4.801   6.733   7.128
   604G12  C02R10994   4.959   6.554   7.138
   604G12  O00I10995   4.952   6.609   7.012
   604G12  C02Q10996   5.046   6.577   6.910
   604G12  H01N10997   5.010   6.626   6.820
   604G12  H01R10998   5.058   6.469   6.896
   604G12  H01Q10999   5.142   6.620   6.939
   604G12  C02A11000   5.051   6.456   7.179
   604G12  H01111001   5.135   6.444   7.112
   604G12  C00C11002   5.236   5.936   7.205
   604G12  H01211003   5.168   5.997   7.146
   604G12  C00B11004   5.300   5.823   7.147
   604G12  C00A11005   5.271   5.761   7.020
   604G12  C00911006   5.143   5.756   6.959
   604G12  C00811007   5.012   5.814   6.977
   604G12  H01311008   5.008   5.905   7.034
   604G12  C00711009   4.900   5.748   6.921
   604G12  H01411010   4.798   5.778   6.942
   604G12  C00611011   4.911   5.633   6.838
   604G12  C00511012   5.043   5.583   6.827
   604G12  C00411013   5.061   5.451   6.786
   604G12  C00311014   5.191   5.391   6.796
   604G12  C00211015   5.194   5.250   6.771
   604G12  C00111016   5.294   5.148   6.785
   604G12  C00M11017   5.388   5.135   6.890
   604G12  C00L11018   5.469   5.247   6.929
   604G12  C00R11019   5.541   5.246   7.053
   604G12  C00Q11020   5.564   5.142   7.156
   604G12  C00V11021   5.613   5.196   7.277
   604G12  C00U11022   5.604   5.327   7.318
   604G12  C00T11023   5.570   5.422   7.224
   604G12  C01611024   5.534   5.556   7.261
   604G12  C01511025   5.562   5.596   7.387
   604G12  C01011026   5.619   5.507   7.481
   604G12  C01111027   5.670   5.562   7.605
   604G12  H00511028   5.716   5.494   7.674
   604G12  C01211029   5.657   5.698   7.633
   604G12  C01711030   5.740   5.756   7.740
   604G12  O00211031   5.692   5.774   7.866
   604G12  H00411032   5.598   5.776   7.868
   604G12  C01811033   5.868   5.788   7.703
   604G12  O00111034   5.913   5.780   7.576
   604G12  H00311035   6.006   5.786   7.588
   604G12  C01911036   5.974   5.818   7.809
   604G12  H00211037   6.042   5.900   7.789
   604G12  H00111038   5.929   5.823   7.908
   604G12  O00011039   6.066   5.713   7.813
   604G12  C01A11040   6.015   5.593   7.848
   604G12  C02K11041   5.970   5.551   7.980
   604G12  O00G11042   5.999   5.643   8.077
   604G12  C02M11043   5.967   5.610   8.209
   604G12  H01G11044   5.998   5.694   8.272
   604G12  H01F11045   6.020   5.524   8.250
   604G12  H01E11046   5.862   5.590   8.225
   604G12  C02J11047   5.917   5.422   8.000
   604G12  H01H11048   5.894   5.384   8.098
   604G12  C02I11049   5.900   5.328   7.891
   604G12  C02N11050   5.846   5.198   7.916
   604G12  H01M11051   5.764   5.183   7.984
   604G12  C02O11052   5.895   5.088   7.859
   604G12  H01L11053   5.981   5.092   7.793
   604G12  C02P11054   5.851   4.944   7.888
   604G12  H01K11055   5.755   4.940   7.939
   604G12  H01J11056   5.841   4.895   7.792
   604G12  O00H11057   5.952   4.882   7.961
   604G12  H01I11058   5.948   4.936   8.039
   604G12  C02H11059   5.938   5.365   7.761
   604G12  H01C11060   5.934   5.304   7.672
   604G12  C02L11061   5.998   5.496   7.745
   604G12  H01D11062   6.021   5.524   7.643
   604G12  C01311063   5.577   5.776   7.548
   604G12  H00011064   5.556   5.881   7.563
   604G12  C01411065   5.517   5.722   7.431
   604G12  C00F11066   5.428   5.794   7.354
   604G12  C00H11067   5.456   5.636   7.172
   604G12  C00I11068   5.440   5.586   7.038
   604G12  C00J11069   5.492   5.463   7.002
   604G12  C00Z11070   5.641   5.369   7.448
   604G12  C00Y11071   5.676   5.277   7.546
   604G12  H00611072   5.681   5.313   7.648
   604G12  C00X11073   5.701   5.142   7.506
   604G12  O00311074   5.729   5.042   7.592
   604G12  C01B11075   5.612   5.011   7.667
   604G12  H00911076   5.524   5.030   7.606
   604G12  H00811077   5.604   5.055   7.766
   604G12  H00711078   5.608   4.902   7.677
   604G12  C00W11079   5.670   5.105   7.372
   604G12  O00411080   5.676   4.970   7.346
   604G12  C01C11081   5.590   4.917   7.249
   604G12  H00A11082   5.606   4.810   7.249
   604G12  C00P11083   5.528   5.004   7.155
   604G12  C00O11084   5.429   4.952   7.073
   604G12  C01D11085   5.362   4.831   7.118
   604G12  H00S11086   5.400   4.782   7.206
   604G12  C01E11087   5.241   4.786   7.063
   604G12  O00811088   5.162   4.693   7.132
   604G12  C01V11089   5.168   4.659   7.268
   604G12  C01Z11090   5.123   4.763   7.364
   604G12  H00R11091   5.062   4.837   7.313
   604G12  H00Q11092   5.080   4.730   7.457
   604G12  O00911093   5.229   4.841   7.413
   604G12  H00P11094   5.206   4.933   7.408
   604G12  C01W11095   5.219   4.542   7.309
   604G12  H00O11096   5.249   4.464   7.240
   604G12  C01X11097   5.250   4.499   7.449
   604G12  H00N11098   5.180   4.534   7.525
   604G12  H00M11099   5.215   4.395   7.457
   604G12  C01Y11100   5.398   4.512   7.490
   604G12  C02D11101   5.463   4.640   7.476
   604G12  H01911102   5.421   4.724   7.422
   604G12  C02C11103   5.595   4.665   7.519
   604G12  H01A11104   5.644   4.757   7.490
   604G12  C02B11105   5.665   4.564   7.579
   604G12  O00E11106   5.797   4.595   7.614
   604G12  H01B11107   5.814   4.561   7.701
   604G12  C02F11108   5.606   4.436   7.616
   604G12  O00F11109   5.687   4.341   7.679
   604G12  C02G11110   5.617   4.232   7.718
   604G12  H01711111   5.680   4.163   7.775
   604G12  H01611112   5.577   4.178   7.633
   604G12  H01511113   5.535   4.262   7.784
   604G12  C02E11114   5.472   4.413   7.564
   604G12  H01811115   5.417   4.322   7.582
   604G12  C01F11116   5.188   4.852   6.949
   604G12  C01G11117   5.051   4.850   6.907
   604G12  H00L11118   4.992   4.776   6.960
   604G12  C01H11119   4.997   4.950   6.818
   604G12  H00B11120   4.890   4.965   6.806
   604G12  C01I11121   5.089   5.041   6.765
   604G12  C01U11122   5.274   4.941   6.878
   604G12  C00S11123   5.552   5.381   7.091
   604G12  C00K11124   5.420   5.381   6.909
   604G12  C00N11125   5.373   5.008   6.956
   604G12  C00011126   5.227   5.022   6.780
   604G12  C01J11127   5.072   5.182   6.736
   604G12  C01K11128   4.944   5.242   6.701
   604G12  C01P11129   4.831   5.191   6.638
   604G12  C01Q11130   4.837   5.053   6.585
   604G12  H00G11131   4.928   5.014   6.541
   604G12  C01R11132   4.731   4.971   6.605
   604G12  H00F11133   4.639   4.997   6.655
   604G12  C01S11134   4.741   4.828   6.570
   604G12  H00E11135   4.782   4.807   6.471
   604G12  H00D11136   4.809   4.777   6.638
   604G12  O00511137   4.611   4.777   6.572
   604G12  H00C11138   4.580   4.753   6.658
   604G12  C01O11139   4.721   5.270   6.613
   604G12  H00H11140   4.647   5.233   6.544
   604G12  C01N11141   4.706   5.394   6.675
   604G12  O00611142   4.589   5.474   6.662
   604G12  C01T11143   4.476   5.413   6.598
   604G12  H00K11144   4.488   5.389   6.493
   604G12  H00J11145   4.396   5.487   6.597
   604G12  H00I11146   4.442   5.319   6.641
   604G12  C01M11147   4.824   5.449   6.730
   604G12  C02011148   5.306   5.453   6.851
   604G12  C02111149   5.287   5.596   6.864
   604G12  C01L11150   4.949   5.381   6.735
   604G12  O00711151   4.806   5.569   6.785
   604G12  C02211152   5.159   5.652   6.865
   604G12  C02311153   5.354   5.666   6.964
   604G12  C00G11154   5.398   5.754   7.220
   604G12  C00E11155   5.344   5.893   7.415
   604G12  O00A11156   5.347   5.914   7.547
   604G12  C02411157   5.251   5.847   7.629
   604G12  H00V11158   5.270   5.740   7.616
   604G12  H00U11159   5.154   5.864   7.583
   604G12  H00T11160   5.254   5.883   7.731
   614G12  C00D11161   2.520   4.809   3.317
   614G12  O00B11162   2.606   4.717   3.256
   614G12  C02511163   2.602   4.590   3.308
   614G12  C02611164   2.510   4.488   3.241
   614G12  H00Y11165   2.472   4.409   3.307
   614G12  H00X11166   2.562   4.446   3.155
   614G12  O00C11167   2.392   4.543   3.199
   614G12  H00W11168   2.405   4.593   3.120
   614G12  C02711169   2.699   4.553   3.398
   614G12  O00D11170   2.790   4.646   3.441
   614G12  H00Z11171   2.781   4.724   3.389
   614G12  C02811172   2.703   4.418   3.450
   614G12  C02911173   2.822   4.341   3.453
   614G12  H01011174   2.907   4.385   3.404
   614G12  C02T11175   2.817   4.215   3.519
   614G12  H01O11176   2.913   4.168   3.533
   614G12  C02S11177   2.700   4.171   3.583
   614G12  O00J11178   2.698   4.053   3.663
   614G12  H01P11179   2.606   4.043   3.682
   614G12  C02R11180   2.578   4.241   3.567
   614G12  O00I11181   2.468   4.182   3.627
   614G12  C02Q11182   2.356   4.271   3.665
   614G12  H01N11183   2.315   4.321   3.578
   614G12  H01R11184   2.396   4.344   3.735
   614G12  H01Q11185   2.286   4.211   3.724
   614G12  C02A11186   2.585   4.366   3.513
   614G12  H01111187   2.498   4.430   3.516
   614G12  C00C11188   2.419   4.772   3.410
   614G12  H01211189   2.401   4.669   3.435
   614G12  C00B11190   2.328   4.862   3.467
   614G12  C00A11191   2.215   4.834   3.549
   614G12  C00911192   2.109   4.739   3.514
   614G12  C00811193   2.110   4.635   3.423
   614G12  H01311194   2.199   4.585   3.387
   614G12  C00711195   1.979   4.599   3.373
   614G12  H01411196   1.974   4.520   3.299
   614G12  C00611197   1.859   4.666   3.413
   614G12  C00511198   1.872   4.758   3.523
   614G12  C00411199   1.763   4.833   3.576
   614G12  C00311200   1.790   4.944   3.658
   614G12  C00211201   1.676   5.031   3.691
   614G12  C00111202   1.661   5.161   3.753
   614G12  C00M11203   1.738   5.270   3.699
   614G12  C00L11204   1.878   5.270   3.692
   614G12  C00R11205   1.959   5.354   3.607
   614G12  C00Q11206   1.931   5.473   3.532
   614G12  C00V11207   2.045   5.530   3.469
   614G12  C00U11208   2.162   5.451   3.444
   614G12  C00T11209   2.180   5.326   3.488
   614G12  C01611210   2.271   5.232   3.453
   614G12  C01511211   2.368   5.268   3.359
   614G12  C01011212   2.369   5.400   3.314
   614G12  C01111213   2.462   5.442   3.221
   614G12  H00511214   2.454   5.539   3.174
   614G12  C01211215   2.562   5.354   3.179
   614G12  C01711216   2.657   5.390   3.078
   614G12  O00211217   2.606   5.469   2.975
   614G12  H00411218   2.677   5.515   2.933
   614G12  C01811219   2.791   5.361   3.086
   614G12  O00111220   2.847   5.294   3.184
   614G12  H00311221   2.938   5.291   3.159
   614G12  C01911222   2.890   5.400   2.974
   614G12  H00211223   2.913   5.314   2.913
   614G12  H00111224   2.855   5.481   2.909
   614G12  O00011225   3.009   5.439   3.040
   614G12  C01A11226   3.134   5.403   2.991
   614G12  C02K11227   3.187   5.281   3.025
   614G12  O00G11228   3.110   5.208   3.113
   614G12  C02M11229   3.176   5.100   3.184
   614G12  H01G11230   3.188   5.022   3.109
   614G12  H01F11231   3.119   5.070   3.272
   614G12  H01E11232   3.270   5.137   3.224
   614G12  C02J11233   3.316   5.237   2.979
   614G12  H01H11234   3.357   5.141   3.008
   614G12  C02I11235   3.397   5.320   2.903
   614G12  C02N11236   3.523   5.280   2.844
   614G12  H01M11237   3.583   5.344   2.781
   614G12  C02O11238   3.573   5.155   2.852
   614G12  H01L11239   3.519   5.072   2.895
   614G12  C02P11240   3.706   5.106   2.794
   614G12  H01K11241   3.740   5.048   2.879
   614G12  H01J11242   3.692   5.040   2.709
   614G12  O00H11243   3.789   5.216   2.773
   614G12  H01I11244   3.877   5.194   2.799
   614G12  C02H11245   3.352   5.452   2.889
   614G12  H01C11246   3.427   5.521   2.853
   614G12  C02L11247   3.223   5.491   2.929
   614G12  H01D11248   3.192   5.594   2.927
   614G12  C01311249   2.572   5.230   3.246
   614G12  H00011250   2.653   5.168   3.210
   614G12  C01411251   2.462   5.177   3.319
   614G12  C00F11252   2.451   5.040   3.357
   614G12  C00H11253   2.265   5.097   3.499
   614G12  C00I11254   2.166   5.063   3.597
   614G12  C00J11255   2.078   5.163   3.638
   614G12  C00Z11256   2.268   5.494   3.361
   614G12  C00Y11257   2.272   5.633   3.332
   614G12  H00611258   2.349   5.686   3.278
   614G12  C00X11259   2.158   5.714   3.356
   614G12  O00311260   2.159   5.851   3.325
   614G12  C01B11261   2.272   5.933   3.355
   614G12  H00911262   2.255   6.039   3.338
   614G12  H00811263   2.367   5.911   3.307
   614G12  H00711264   2.299   5.909   3.457
   614G12  C00W11265   2.036   5.654   3.409
   614G12  O00411266   1.925   5.743   3.422
   614G12  C01C11267   1.808   5.681   3.467
   614G12  H00A11268   1.733   5.747   3.506
   614G12  C00P11269   1.810   5.547   3.526
   614G12  C00O11270   1.682   5.488   3.562
   614G12  C01D11271   1.558   5.550   3.514
   614G12  H00S11272   1.567   5.639   3.453
   614G12  C01E11273   1.434   5.483   3.503
   614G12  O00811274   1.322   5.539   3.440
   614G12  C01V11275   1.246   5.627   3.510
   614G12  C01Z11276   1.120   5.575   3.583
   614G12  H00R11277   1.052   5.653   3.548
   614G12  H00Q11278   1.089   5.481   3.538
   614G12  O00911279   1.124   5.578   3.725
   614G12  H00P11280   1.034   5.596   3.750
   614G12  C01W11281   1.289   5.752   3.511
   614G12  H00O11282   1.379   5.785   3.462
   614G12  C01X11283   1.228   5.871   3.575
   614G12  H00N11284   1.226   5.960   3.513
   614G12  H00M11285   1.130   5.849   3.617
   614G12  C01Y11286   1.324   5.907   3.685
   614G12  C02D11287   1.386   6.034   3.684
   614G12  H01911288   1.361   6.112   3.613
   614G12  C02C11289   1.468   6.068   3.789
   614G12  H01A11290   1.496   6.172   3.802
   614G12  C02B11291   1.497   5.975   3.891
   614G12  O00E11292   1.573   6.002   4.002
   614G12  H01B11293   1.587   5.918   4.044
   614G12  C02F11294   1.444   5.844   3.884
   614G12  O00F11295   1.473   5.759   3.985
   614G12  C02G11296   1.405   5.629   4.000
   614G12  H01711297   1.408   5.558   3.918
   614G12  H01611298   1.299   5.654   4.014
   614G12  H01511299   1.457   5.590   4.088
   614G12  C02E11300   1.364   5.811   3.776
   614G12  H01811301   1.330   5.709   3.766
   614G12  C01F11302   1.422   5.357   3.565
   614G12  C01G11303   1.327   5.261   3.539
   614G12  H00L11304   1.241   5.286   3.480
   614G12  C01H11305   1.336   5.130   3.588
   614G12  H00B11306   1.263   5.059   3.552
   614G12  C01I11307   1.451   5.093   3.662
   614G12  C01U11308   1.523   5.318   3.654
   614G12  C00S11309   2.085   5.292   3.589
   614G12  C00K11310   1.947   5.141   3.680
   614G12  C00N11311   1.656   5.366   3.638
   614G12  C00011312   1.528   5.197   3.719
   614G12  C01J11313   1.544   4.980   3.655
   614G12  C01K11314   1.512   4.854   3.587
   614G12  C01P11315   1.391   4.788   3.554
   614G12  C01Q11316   1.278   4.806   3.638
   614G12  H00G11317   1.180   4.816   3.593
   614G12  C01R11318   1.286   4.824   3.773
   614G12  H00F11319   1.379   4.806   3.825
   614G12  C01S11320   1.169   4.860   3.864
   614G12  H00E11321   1.085   4.800   3.830
   614G12  H00D11322   1.208   4.838   3.963
   614G12  O00511323   1.135   4.991   3.854
   614G12  H00C11324   1.213   5.032   3.820
   614G12  C01O11325   1.386   4.692   3.450
   614G12  H00H11326   1.293   4.644   3.424
   614G12  C01N11327   1.499   4.644   3.389
   614G12  O00611328   1.490   4.558   3.282
   614G12  C01T11329   1.389   4.583   3.192
   614G12  H00K11330   1.413   4.526   3.102
   614G12  H00J11331   1.380   4.688   3.163
   614G12  H00I11332   1.290   4.546   3.218
   614G12  C01M11333   1.624   4.689   3.435
   614G12  C02011334   1.922   4.998   3.675
   614G12  C02111335   2.023   4.898   3.662
   614G12  C01L11336   1.633   4.793   3.535
   614G12  O00711337   1.734   4.634   3.367
   614G12  C02211338   1.997   4.781   3.591
   614G12  C02311339   2.156   4.930   3.633
   614G12  C00G11340   2.351   4.998   3.448
   614G12  C00E11341   2.529   4.942   3.283
   614G12  O00A11342   2.606   4.976   3.172
   614G12  C02411343   2.542   4.964   3.046
   614G12  H00V11344   2.440   5.001   3.052
   614G12  H00U11345   2.535   4.859   3.016
   614G12  H00T11346   2.608   5.010   2.973
   624G12  C00D11347   5.258   2.522   3.084
   624G12  O00B11348   5.215   2.402   3.137
   624G12  C02511349   5.312   2.303   3.163
   624G12  C02611350   5.299   2.176   3.073
   624G12  H00Y11351   5.194   2.147   3.080
   624G12  H00X11352   5.350   2.088   3.112
   624G12  O00C11353   5.332   2.204   2.943
   624G12  H00W11354   5.277   2.274   2.912
   624G12  C02711355   5.394   2.317   3.268
   624G12  O00D11356   5.376   2.425   3.353
   624G12  H00Z11357   5.319   2.472   3.295
   624G12  C02811358   5.509   2.231   3.293
   624G12  C02911359   5.582   2.170   3.194
   624G12  H01011360   5.560   2.179   3.089
   624G12  C02T11361   5.698   2.094   3.229
   624G12  H01O11362   5.744   2.037   3.150
   624G12  C02S11363   5.738   2.074   3.361
   624G12  O00J11364   5.839   1.994   3.398
   624G12  H01P11365   5.825   1.983   3.491
   624G12  C02R11366   5.669   2.145   3.461
   624G12  O00I11367   5.724   2.128   3.584
   624G12  C02Q11368   5.646   2.167   3.692
   624G12  H01N11369   5.551   2.114   3.690
   624G12  H01R11370   5.618   2.272   3.699
   624G12  H01Q11371   5.701   2.131   3.779
   624G12  C02A11372   5.553   2.223   3.426
   624G12  H01111373   5.497   2.280   3.498
   624G12  C00C11374   5.392   2.539   3.036
   624G12  H01211375   5.461   2.457   3.028
   624G12  C00B11376   5.427   2.669   2.988
   624G12  C00A11377   5.557   2.704   2.945
   624G12  C00911378   5.684   2.658   2.999
   624G12  C00811379   5.717   2.572   3.103
   624G12  H01311380   5.654   2.487   3.124
   624G12  C00711381   5.826   2.613   3.189
   624G12  H01411382   5.833   2.554   3.279
   624G12  C00611383   5.915   2.720   3.154
   624G12  C00511384   5.881   2.796   3.043
   624G12  C00411385   5.938   2.921   3.019
   624G12  C00311386   5.879   3.013   2.933
   624G12  C00211387   5.945   3.143   2.919
   624G12  C00111388   5.907   3.268   2.858
   624G12  C00M11389   5.775   3.331   2.858
   624G12  C00L11390   5.663   3.248   2.859
   624G12  C00R11391   5.530   3.276   2.890
   624G12  C00Q11392   5.464   3.393   2.944
   624G12  C00V11393   5.329   3.382   2.954
   624G12  C00U11394   5.263   3.256   2.951
   624G12  C00T11395   5.324   3.141   2.920
   624G12  C01611396   5.285   3.010   2.942
   624G12  C01511397   5.154   2.993   2.984
   624G12  C01011398   5.072   3.108   2.992
   624G12  C01111399   4.941   3.091   3.044
   624G12  H00511400   4.870   3.172   3.036
   624G12  C01211401   4.885   2.967   3.072
   624G12  C01711402   4.746   2.957   3.097
   624G12  O00211403   4.659   3.011   3.014
   624G12  H00411404   4.699   3.058   2.942
   624G12  C01811405   4.697   2.882   3.203
   624G12  O00111406   4.777   2.805   3.280
   624G12  H00311407   4.724   2.751   3.338
   624G12  C01911408   4.551   2.865   3.235
   624G12  H00211409   4.546   2.890   3.341
   624G12  H00111410   4.491   2.933   3.175
   624G12  O00011411   4.500   2.740   3.202
   624G12  C01A11412   4.369   2.710   3.229
   624G12  C02K11413   4.274   2.810   3.264
   624G12  O00G11414   4.313   2.936   3.303
   624G12  C02M11415   4.222   3.012   3.379
   624G12  H01G11416   4.212   2.957   3.472
   624G12  H01F11417   4.125   3.036   3.336
   624G12  H01E11418   4.280   3.096   3.417
   624G12  C02J11419   4.139   2.763   3.286
   624G12  H01H11420   4.062   2.833   3.316
   624G12  C02I11421   4.096   2.630   3.276
   624G12  C02N11422   3.964   2.581   3.295
   624G12  H01M11423   3.929   2.485   3.258
   624G12  C02O11424   3.869   2.651   3.362
   624G12  H01L11425   3.899   2.741   3.414
   624G12  C02P11426   3.723   2.619   3.391
   624G12  H01K11427   3.656   2.700   3.363
   624G12  H01J11428   3.697   2.540   3.320
   624G12  O00H11429   3.713   2.578   3.524
   624G12  H01I11430   3.759   2.495   3.519
   624G12  C02H11431   4.192   2.533   3.242
   624G12  H01C11432   4.170   2.428   3.233
   624G12  C02L11433   4.323   2.576   3.213
   624G12  H01D11434   4.401   2.504   3.192
   624G12  C01311435   4.973   2.853   3.061
   624G12  H00011436   4.920   2.761   3.082
   624G12  C01411437   5.109   2.865   3.027
   624G12  C00F11438   5.199   2.759   3.024
   624G12  C00H11439   5.373   2.899   2.923
   624G12  C00I11440   5.498   2.922   2.862
   624G12  C00J11441   5.530   3.057   2.838
   624G12  C00Z11442   5.127   3.237   2.984
   624G12  C00Y11443   5.057   3.353   3.013
   624G12  H00611444   4.952   3.347   3.038
   624G12  C00X11445   5.111   3.487   2.998
   624G12  O00311446   5.018   3.597   3.005
   624G12  C01B11447   5.064   3.733   2.980
   624G12  H00911448   4.972   3.790   2.991
   624G12  H00811449   5.093   3.753   2.877
   624G12  H00711450   5.125   3.783   3.055
   624G12  C00W11451   5.253   3.498   2.981
   624G12  O00411452   5.308   3.620   2.987
   624G12  C01C11453   5.434   3.609   3.035
   624G12  H00A11454   5.454   3.672   3.120
   624G12  C00P11455   5.529   3.511   2.987
   624G12  C00O11456   5.670   3.528   2.999
   624G12  C01D11457   5.723   3.627   3.090
   624G12  H00S11458   5.658   3.687   3.152
   624G12  C01E11459   5.858   3.624   3.136
   624G12  O00811460   5.897   3.707   3.242
   624G12  C01V11461   5.808   3.726   3.350
   624G12  C01Z11462   5.766   3.870   3.384
   624G12  H00R11463   5.664   3.893   3.352
   624G12  H00Q11464   5.785   3.899   3.487
   624G12  O00911465   5.851   3.956   3.302
   624G12  H00P11466   5.890   3.896   3.241
   624G12  C01W11467   5.750   3.619   3.406
   624G12  H00O11468   5.784   3.524   3.367
   624G12  C01X11469   5.639   3.624   3.507
   624G12  H00N11470   5.651   3.531   3.563
   624G12  H00M11471   5.638   3.706   3.579
   624G12  C01Y11472   5.503   3.611   3.439
   624G12  C02D11473   5.468   3.493   3.370
   624G12  H01911474   5.533   3.410   3.349
   624G12  C02C11475   5.333   3.471   3.337
   624G12  H01A11476   5.307   3.374   3.298
   624G12  C02B11477   5.242   3.569   3.346
   624G12  O00E11478   5.117   3.545   3.304
   624G12  H01B11479   5.070   3.626   3.319
   624G12  C02F11480   5.271   3.693   3.403
   624G12  O00F11481   5.183   3.797   3.381
   624G12  C02G11482   5.195   3.915   3.457
   624G12  H01711483   5.115   3.985   3.433
   624G12  H01611484   5.295   3.958   3.456
   624G12  H01511485   5.179   3.876   3.558
   624G12  C02E11486   5.402   3.711   3.462
   624G12  H01811487   5.424   3.800   3.519
   624G12  C01F11488   5.948   3.533   3.085
   624G12  C01G11489   6.069   3.500   3.150
   624G12  H00L11490   6.104   3.551   3.239
   624G12  C01H11491   6.142   3.387   3.106
   624G12  H00B11492   6.227   3.355   3.165
   624G12  C01I11493   6.093   3.305   2.997
   624G12  C01U11494   5.913   3.460   2.969
   624G12  C00S11495   5.451   3.164   2.865
   624G12  C00K11496   5.664   3.102   2.843
   624G12  C00N11497   5.776   3.450   2.934
   624G12  C00011498   5.999   3.362   2.913
   624G12  C01J11499   6.063   3.165   2.995
   624G12  C01K11500   6.137   3.062   3.068
   624G12  C01P11501   6.270   3.067   3.117
   624G12  C01Q11502   6.365   3.164   3.063
   624G12  H00G11503   6.360   3.217   2.969
   624G12  C01R11504   6.465   3.200   3.147
   624G12  H00F11505   6.461   3.159   3.247
   624G12  C01S11506   6.566   3.323   3.122
   624G12  H00E11507   6.662   3.280   3.094
   624G12  H00D11508   6.533   3.378   3.034
   624G12  O00511509   6.567   3.385   3.243
   624G12  H00C11510   6.642   3.442   3.243
   624G12  C01O11511   6.323   2.962   3.196
   624G12  H00H11512   6.430   2.962   3.213
   624G12  C01N11513   6.240   2.846   3.230
   624G12  O00611514   6.283   2.744   3.304
   624G12  C01T11515   6.389   2.762   3.394
   624G12  H00K11516   6.476   2.797   3.339
   624G12  H00J11517   6.421   2.670   3.443
   624G12  H00I11518   6.362   2.837   3.469
   624G12  C01M11519   6.113   2.845   3.178
   624G12  C02011520   5.757   2.993   2.864
   624G12  C02111521   5.720   2.854   2.866
   624G12  C01L11522   6.062   2.943   3.081
   624G12  O00711523   6.028   2.752   3.230
   624G12  C02211524   5.775   2.755   2.952
   624G12  C02311525   5.586   2.817   2.861
   624G12  C00G11526   5.332   2.778   2.975
   624G12  C00E11527   5.174   2.635   3.088
   624G12  O00A11528   5.056   2.608   3.151
   624G12  C02411529   5.061   2.617   3.294
   624G12  H00V11530   5.103   2.714   3.320
   624G12  H00U11531   5.114   2.541   3.350
   624G12  H00T11532   4.960   2.617   3.336
   634G12  C00D11533   5.821   2.042   4.660
   634G12  O00B11534   5.796   1.931   4.736
   634G12  C02511535   5.797   1.803   4.680
   634G12  C02611536   5.659   1.752   4.644
   634G12  H00Y11537   5.585   1.816   4.692
   634G12  H00X11538   5.646   1.653   4.688
   634G12  O00C11539   5.651   1.753   4.506
   634G12  H00W11540   5.557   1.759   4.493
   634G12  C02711541   5.911   1.727   4.690
   634G12  O00D11542   6.022   1.780   4.743
   634G12  H00Z11543   5.984   1.866   4.755
   634G12  C02811544   5.914   1.595   4.631
   634G12  C02911545   5.871   1.562   4.496
   634G12  H01011546   5.844   1.648   4.436
   634G12  C02T11547   5.859   1.427   4.452
   634G12  H01O11548   5.819   1.398   4.356
   634G12  C02S11549   5.895   1.329   4.543
   634G12  O00J11550   5.889   1.201   4.498
   634G12  H01P11551   5.926   1.149   4.567
   634G12  C02R11552   5.943   1.355   4.671
   634G12  O00I11553   5.971   1.250   4.749
   634G12  C02Q11554   5.864   1.203   4.829
   634G12  H01N11555   5.806   1.127   4.777
   634G12  H01R11556   5.791   1.277   4.862
   634G12  H01Q11557   5.894   1.134   4.908
   634G12  C02A11558   5.967   1.489   4.713
   634G12  H01111559   6.009   1.510   4.811
   634G12  C00C11560   5.829   2.044   4.516
   634G12  H01211561   5.827   1.954   4.457
   634G12  C00B11562   5.839   2.166   4.443
   634G12  C00A11563   5.841   2.184   4.301
   634G12  C00911564   5.913   2.103   4.204
   634G12  C00811565   5.975   1.978   4.212
   634G12  H01311566   5.960   1.917   4.300
   634G12  C00711567   6.069   1.949   4.109
   634G12  H01411568   6.125   1.859   4.128
   634G12  C00611569   6.104   2.039   4.001
   634G12  C00511570   6.035   2.159   4.001
   634G12  C00411571   6.067   2.269   3.919
   634G12  C00311572   6.017   2.401   3.952
   634G12  C00211573   6.078   2.507   3.880
   634G12  C00111574   6.070   2.652   3.887
   634G12  C00M11575   6.073   2.726   4.010
   634G12  C00L11576   5.991   2.689   4.119
   634G12  C00R11577   6.021   2.734   4.250
   634G12  C00Q11578   6.103   2.835   4.314
   634G12  C00V11579   6.095   2.834   4.452
   634G12  C00U11580   6.024   2.738   4.528
   634G12  C00T11581   5.955   2.636   4.466
   634G12  C01611582   5.911   2.520   4.526
   634G12  C01511583   5.917   2.522   4.667
   634G12  C01011584   5.958   2.637   4.737
   634G12  C01111585   5.937   2.648   4.873
   634G12  H00511586   5.948   2.746   4.917
   634G12  C01211587   5.877   2.542   4.942
   634G12  C01711588   5.844   2.558   5.084
   634G12  O00211589   5.933   2.619   5.170
   634G12  H00411590   5.884   2.631   5.251
   634G12  C01811591   5.717   2.527   5.116
   634G12  O00111592   5.619   2.481   5.033
   634G12  H00311593   5.552   2.451   5.092
   634G12  C01911594   5.671   2.534   5.262
   634G12  H00211595   5.567   2.563   5.271
   634G12  H00111596   5.692   2.431   5.291
   634G12  O00011597   5.747   2.620   5.344
   634G12  C01A11598   5.683   2.733   5.386
   634G12  C02K11599   5.635   2.731   5.517
   634G12  O00G11600   5.620   2.612   5.584
   634G12  C02M11601   5.528   2.601   5.697
   634G12  H01G11602   5.550   2.512   5.757
   634G12  H01F11603   5.427   2.608   5.656
   634G12  H01E11604   5.543   2.679   5.771
   634G12  C02J11605   5.580   2.851   5.566
   634G12  H01H11606   5.541   2.857   5.667
   634G12  C02I11607   5.580   2.976   5.495
   634G12  C02N11608   5.538   3.099   5.566
   634G12  H01M11609   5.485   3.105   5.660
   634G12  C02O11610   5.570   3.219   5.518
   634G12  H01L11611   5.631   3.243   5.433
   634G12  C02P11612   5.534   3.342   5.590
   634G12  H01K11613   5.486   3.330   5.688
   634G12  H01J11614   5.634   3.383   5.608
   634G12  O00H11615   5.452   3.415   5.510
   634G12  H01I11616   5.508   3.449   5.441
   634G12  C02H11617   5.630   2.969   5.361
   634G12  H01C11618   5.629   3.060   5.302
   634G12  C02L11619   5.682   2.850   5.310
   634G12  H01D11620   5.710   2.846   5.206
   634G12  C01311621   5.851   2.421   4.870
   634G12  H00011622   5.805   2.351   4.938
   634G12  C01411623   5.867   2.409   4.731
   634G12  C00F11624   5.842   2.289   4.659
   634G12  C00H11625   5.860   2.414   4.452
   634G12  C00I11626   5.841   2.428   4.314
   634G12  C00J11627   5.879   2.551   4.259
   634G12  C00Z11628   6.027   2.735   4.666
   634G12  C00Y11629   6.088   2.841   4.734
   634G12  H00611630   6.091   2.842   4.842
   634G12  C00X11631   6.148   2.950   4.663
   634G12  O00311632   6.205   3.060   4.727
   634G12  C01B11633   6.153   3.096   4.857
   634G12  H00911634   6.178   3.025   4.936
   634G12  H00811635   6.045   3.107   4.844
   634G12  H00711636   6.214   3.183   4.883
   634G12  C00W11637   6.162   2.940   4.526
   634G12  O00411638   6.233   3.041   4.464
   634G12  C01C11639   6.268   3.018   4.330
   634G12  H00A11640   6.321   3.099   4.282
   634G12  C00P11641   6.207   2.911   4.250
   634G12  C00O11642   6.251   2.892   4.115
   634G12  C01D11643   6.390   2.919   4.087
   634G12  H00S11644   6.445   2.969   4.166
   634G12  C01E11645   6.459   2.872   3.974
   634G12  O00811646   6.598   2.883   3.962
   634G12  C01V11647   6.663   2.965   4.054
   634G12  C01Z11648   6.686   3.107   4.005
   634G12  H00R11649   6.767   3.146   4.067
   634G12  H00Q11650   6.720   3.099   3.902
   634G12  O00911651   6.562   3.182   4.007
   634G12  H00P11652   6.518   3.163   3.925
   634G12  C01W11653   6.712   2.913   4.167
   634G12  H00O11654   6.684   2.810   4.185
   634G12  C01X11655   6.796   2.971   4.285
   634G12  H00N11656   6.866   2.909   4.342
   634G12  H00M11657   6.861   3.042   4.234
   634G12  C01Y11658   6.702   3.029   4.388
   634G12  C02D11659   6.670   3.167   4.371
   634G12  H01911660   6.722   3.230   4.300
   634G12  C02C11661   6.576   3.224   4.459
   634G12  H01A11662   6.551   3.328   4.451
   634G12  C02B11663   6.511   3.145   4.558
   634G12  O00E11664   6.420   3.201   4.640
   634G12  H01B11665   6.363   3.127   4.656
   634G12  C02F11666   6.547   3.010   4.585
   634G12  O00F11667   6.491   2.941   4.691
   634G12  C02G11668   6.533   2.800   4.699
   634G12  H01711669   6.642   2.796   4.695
   634G12  H01611670   6.496   2.758   4.605
   634G12  H01511671   6.493   2.743   4.782
   634G12  C02E11672   6.641   2.954   4.491
   634G12  H01811673   6.671   2.851   4.502
   634G12  C01F11674   6.391   2.798   3.877
   634G12  C01G11675   6.455   2.723   3.777
   634G12  H00L11676   6.562   2.726   3.764
   634G12  C01H11677   6.384   2.611   3.715
   634G12  H00B11678   6.437   2.528   3.669
   634G12  C01I11679   6.247   2.596   3.741
   634G12  C01U11680   6.252   2.784   3.887
   634G12  C00S11681   5.945   2.646   4.326
   634G12  C00K11682   5.927   2.560   4.128
   634G12  C00N11683   6.187   2.817   4.011
   634G12  C00011684   6.174   2.699   3.805
   634G12  C01J11685   6.175   2.477   3.771
   634G12  C01K11686   6.207   2.340   3.731
   634G12  C01P11687   6.288   2.299   3.623
   634G12  C01Q11688   6.331   2.382   3.516
   634G12  H00G11689   6.259   2.448   3.470
   634G12  C01R11690   6.452   2.363   3.456
   634G12  H00F11691   6.525   2.293   3.494
   634G12  C01S11692   6.498   2.423   3.324
   634G12  H00E11693   6.533   2.339   3.264
   634G12  H00D11694   6.426   2.477   3.263
   634G12  O00511695   6.601   2.510   3.359
   634G12  H00C11696   6.643   2.533   3.278
   634G12  C01O11697   6.335   2.168   3.620
   634G12  H00H11698   6.399   2.133   3.540
   634G12  C01N11699   6.307   2.074   3.722
   634G12  O00611700   6.361   1.947   3.721
   634G12  C01T11701   6.501   1.949   3.742
   634G12  H00K11702   6.529   1.849   3.775
   634G12  H00J11703   6.527   2.022   3.819
   634G12  H00I11704   6.557   1.979   3.654
   634G12  C01M11705   6.218   2.107   3.819
   634G12  C02011706   5.928   2.431   4.060
   634G12  C02111707   5.866   2.311   4.106
   634G12  C01L11708   6.164   2.239   3.819
   634G12  O00711709   6.201   2.008   3.914
   634G12  C02211710   5.927   2.185   4.090
   634G12  C02311711   5.814   2.310   4.240
   634G12  C00G11712   5.843   2.291   4.512
   634G12  C00E11713   5.835   2.164   4.730
   634G12  O00A11714   5.861   2.153   4.863
   634G12  C02411715   6.003   2.145   4.881
   634G12  H00V11716   6.037   2.177   4.980
   634G12  H00U11717   6.059   2.214   4.818
   634G12  H00T11718   6.035   2.042   4.868
   644G12  C00D11719   6.151   3.675   6.453
   644G12  O00B11720   6.017   3.640   6.444
   644G12  C02511721   5.964   3.598   6.328
   644G12  C02611722   5.965   3.444   6.316
   644G12  H00Y11723   6.057   3.405   6.359
   644G12  H00X11724   5.982   3.409   6.215
   644G12  O00C11725   5.859   3.374   6.376
   644G12  H00W11726   5.872   3.376   6.469
   644G12  C02711727   5.928   3.689   6.228
   644G12  O00D11728   5.948   3.822   6.254
   644G12  H00Z11729   5.988   3.825   6.340
   644G12  C02811730   5.850   3.653   6.114
   644G12  C02911731   5.742   3.560   6.111
   644G12  H01011732   5.723   3.495   6.196
   644G12  C02T11733   5.679   3.536   5.989
   644G12  H01O11734   5.606   3.457   5.986
   644G12  C02S11735   5.703   3.611   5.875
   644G12  O00J11736   5.637   3.601   5.757
   644G12  H01P11737   5.679   3.656   5.693
   644G12  C02R11738   5.808   3.708   5.877
   644G12  O00I11739   5.830   3.780   5.763
   644G12  C02Q11740   5.928   3.881   5.760
   644G12  H01N11741   5.909   3.956   5.836
   644G12  H01R11742   5.943   3.923   5.661
   644G12  H01Q11743   6.029   3.847   5.783
   644G12  C02A11744   5.871   3.733   6.003
   644G12  H01111745   5.958   3.797   6.003
   644G12  C00C11746   6.247   3.638   6.357
   644G12  H01211747   6.217   3.581   6.270
   644G12  C00B11748   6.383   3.663   6.365
   644G12  C00A11749   6.495   3.616   6.284
   644G12  C00911750   6.511   3.492   6.216
   644G12  C00811751   6.428   3.377   6.214
   644G12  H01311752   6.320   3.378   6.203
   644G12  C00711753   6.483   3.247   6.215
   644G12  H01411754   6.422   3.158   6.208
   644G12  C00611755   6.621   3.231   6.222
   644G12  C00511756   6.701   3.343   6.219
   644G12  C00411757   6.839   3.334   6.249
   644G12  C00311758   6.913   3.450   6.276
   644G12  C00211759   7.047   3.429   6.320
   644G12  C00111760   7.147   3.523   6.373
   644G12  C00M11761   7.115   3.614   6.475
   644G12  C00L11762   7.005   3.701   6.476
   644G12  C00R11763   6.959   3.784   6.582
   644G12  C00Q11764   7.010   3.809   6.715
   644G12  C00V11765   6.919   3.887   6.793
   644G12  C00U11766   6.785   3.921   6.754
   644G12  C00T11767   6.739   3.889   6.629
   644G12  C01611768   6.604   3.868   6.597
   644G12  C01511769   6.511   3.910   6.693
   644G12  C01011770   6.558   3.979   6.807
   644G12  C01111771   6.457   4.026   6.896
   644G12  H00511772   6.480   4.084   6.985
   644G12  C01211773   6.316   4.013   6.875
   644G12  C01711774   6.212   4.072   6.967
   644G12  O00211775   6.246   4.189   7.033
   644G12  H00411776   6.314   4.236   6.987
   644G12  C01811777   6.082   4.024   6.969
   644G12  O00111778   6.031   3.914   6.910
   644G12  H00311779   5.947   3.893   6.947
   644G12  C01911780   5.976   4.089   7.055
   644G12  H00211781   5.982   4.046   7.155
   644G12  H00111782   5.990   4.197   7.062
   644G12  O00011783   5.852   4.050   6.996
   644G12  C01A11784   5.745   4.135   7.008
   644G12  C02K11785   5.702   4.203   7.124
   644G12  O00G11786   5.761   4.174   7.244
   644G12  C02M11787   5.717   4.242   7.359
   644G12  H01G11788   5.723   4.351   7.353
   644G12  H01F11789   5.764   4.196   7.446
   644G12  H01E11790   5.612   4.230   7.383
   644G12  C02J11791   5.588   4.290   7.114
   644G12  H01H11792   5.571   4.347   7.205
   644G12  C02I11793   5.517   4.300   6.995
   644G12  C02N11794   5.398   4.388   6.992
   644G12  H01M11795   5.401   4.472   7.060
   644G12  C02O11796   5.292   4.363   6.906
   644G12  H01L11797   5.295   4.280   6.837
   644G12  C02P11798   5.165   4.447   6.887
   644G12  H01K11799   5.150   4.480   6.990
   644G12  H01J11800   5.173   4.537   6.827
   644G12  O00H11801   5.062   4.375   6.822
   644G12  H01I11802   5.058   4.285   6.851
   644G12  C02H11803   5.561   4.235   6.880
   644G12  H01C11804   5.519   4.249   6.782
   644G12  C02L11805   5.671   4.143   6.889
   644G12  H01D11806   5.712   4.086   6.807
   644G12  C01311807   6.282   3.950   6.753
   644G12  H00011808   6.179   3.951   6.720
   644G12  C01411809   6.378   3.895   6.665
   644G12  C00F11810   6.338   3.806   6.561
   644G12  C00H11811   6.564   3.794   6.481
   644G12  C00I11812   6.661   3.747   6.394
   644G12  C00J11813   6.795   3.767   6.431
   644G12  C00Z11814   6.697   3.975   6.841
   644G12  C00Y11815   6.746   4.017   6.963
   644G12  H00611816   6.683   4.071   7.032
   644G12  C00X11817   6.873   3.990   7.010
   644G12  O00311818   6.909   4.021   7.144
   644G12  C01B11819   6.814   4.077   7.235
   644G12  H00911820   6.773   4.174   7.207
   644G12  H00811821   6.855   4.085   7.335
   644G12  H00711822   6.726   4.015   7.253
   644G12  C00W11823   6.961   3.923   6.925
   644G12  O00411824   7.079   3.883   6.980
   644G12  C01C11825   7.159   3.794   6.911
   644G12  H00A11826   7.263   3.787   6.937
   644G12  C00P11827   7.124   3.752   6.781
   644G12  C00O11828   7.196   3.641   6.727
   644G12  C01D11829   7.263   3.556   6.820
   644G12  H00S11830   7.270   3.581   6.924
   644G12  C01E11831   7.316   3.431   6.789
   644G12  O00811832   7.359   3.341   6.889
   644G12  C01V11833   7.268   3.291   6.979
   644G12  C01Z11834   7.180   3.178   6.931
   644G12  H00R11835   7.095   3.148   6.993
   644G12  H00Q11836   7.130   3.213   6.841
   644G12  O00911837   7.271   3.070   6.910
   644G12  H00P11838   7.352   3.113   6.887
   644G12  C01W11839   7.257   3.353   7.095
   644G12  H00O11840   7.323   3.435   7.117
   644G12  C01X11841   7.163   3.315   7.215
   644G12  H00N11842   7.127   3.212   7.207
   644G12  H00M11843   7.222   3.323   7.306
   644G12  C01Y11844   7.053   3.418   7.224
   644G12  C02D11845   6.938   3.396   7.139
   644G12  H01911846   6.940   3.313   7.070
   644G12  C02C11847   6.833   3.490   7.140
   644G12  H01A11848   6.741   3.474   7.087
   644G12  C02B11849   6.841   3.606   7.225
   644G12  O00E11850   6.748   3.697   7.236
   644G12  H01B11851   6.780   3.755   7.303
   644G12  C02F11852   6.954   3.629   7.307
   644G12  O00F11853   6.959   3.743   7.384
   644G12  C02G11854   7.044   3.737   7.502
   644G12  H01711855   7.145   3.702   7.482
   644G12  H01611856   6.993   3.685   7.584
   644G12  H01511857   7.059   3.834   7.549
   644G12  C02E11858   7.061   3.534   7.304
   644G12  H01811859   7.148   3.551   7.365
   644G12  C01F11860   7.304   3.381   6.658
   644G12  C01G11861   7.319   3.241   6.618
   644G12  H00L11862   7.350   3.166   6.690
   644G12  C01H11863   7.281   3.204   6.480
   644G12  H00B11864   7.275   3.098   6.460
   644G12  C01I11865   7.225   3.301   6.397
   644G12  C01U11866   7.272   3.475   6.553
   644G12  C00S11867   6.838   3.837   6.542
   644G12  C00K11868   6.894   3.672   6.392
   644G12  C00N11869   7.195   3.590   6.590
   644G12  C00011870   7.253   3.436   6.418
   644G12  C01J11871   7.106   3.299   6.318
   644G12  C01K11872   7.035   3.180   6.271
   644G12  C01P11873   7.091   3.056   6.236
   644G12  C01Q11874   7.232   3.029   6.214
   644G12  H00G11875   7.297   3.102   6.167
   644G12  C01R11876   7.289   2.908   6.243
   644G12  H00F11877   7.229   2.834   6.294
   644G12  C01S11878   7.430   2.873   6.209
   644G12  H00E11879   7.494   2.955   6.241
   644G12  H00D11880   7.465   2.788   6.268
   644G12  O00511881   7.444   2.843   6.067
   644G12  H00C11882   7.535   2.859   6.047
   644G12  C01O11883   7.005   2.949   6.200
   644G12  H00H11884   7.032   2.850   6.166
   644G12  C01N11885   6.862   2.965   6.211
   644G12  O00611886   6.785   2.857   6.174
   644G12  C01T11887   6.781   2.767   6.290
   644G12  H00K11888   6.877   2.752   6.338
   644G12  H00J11889   6.753   2.668   6.254
   644G12  H00I11890   6.707   2.796   6.364
   644G12  C01M11891   6.808   3.093   6.238
   644G12  C02011892   6.853   3.573   6.297
   644G12  C02111893   6.724   3.586   6.235
   644G12  C01L11894   6.900   3.202   6.253
   644G12  O00711895   6.672   3.107   6.237
   644G12  C02211896   6.653   3.478   6.197
   644G12  C02311897   6.624   3.673   6.286
   644G12  C00G11898   6.430   3.753   6.470
   644G12  C00E11899   6.202   3.755   6.558
   644G12  O00A11900   6.108   3.764   6.654
   644G12  C02411901   6.119   3.663   6.751
   644G12  H00V11902   6.215   3.664   6.803
   644G12  H00U11903   6.115   3.564   6.706
   644G12  H00T11904   6.044   3.664   6.830
   654G12  C00D11905   1.362   0.736   8.327
   654G12  O00B11906   1.398   0.619   8.391
   654G12  C02511907   1.446   0.626   8.518
   654G12  C02611908   1.588   0.678   8.532
   654G12  H00Y11909   1.633   0.641   8.624
   654G12  H00X11910   1.570   0.785   8.535
   654G12  O00C11911   1.657   0.640   8.417
   654G12  H00W11912   1.640   0.551   8.394
   654G12  C02711913   1.360   0.588   8.615
   654G12  O00D11914   1.238   0.530   8.584
   654G12  H00Z11915   1.208   0.482   8.660
   654G12  C02811916   1.395   0.601   8.754
   654G12  C02911917   1.495   0.525   8.813
   654G12  H01011918   1.550   0.451   8.757
   654G12  C02T11919   1.531   0.556   8.945
   654G12  H01O11920   1.609   0.501   8.997
   654G12  C02S11921   1.462   0.649   9.021
   654G12  O00J11922   1.495   0.661   9.150
   654G12  H01P11923   1.434   0.724   9.186
   654G12  C02R11924   1.353   0.716   8.964
   654G12  O00I11925   1.282   0.802   9.050
   654G12  C02Q11926   1.162   0.861   9.000
   654G12  H01N11927   1.086   0.786   8.975
   654G12  H01R11928   1.180   0.929   8.917
   654G12  H01Q11929   1.116   0.919   9.081
   654G12  C02A11930   1.319   0.689   8.833
   654G12  H01111931   1.237   0.745   8.791
   654G12  C00C11932   1.364   0.866   8.380
   654G12  H01211933   1.400   0.886   8.480
   654G12  C00B11934   1.333   0.982   8.313
   654G12  C00A11935   1.341   1.123   8.364
   654G12  C00911936   1.323   1.173   8.500
   654G12  C00811937   1.303   1.114   8.630
   654G12  H01311938   1.315   1.010   8.658
   654G12  C00711939   1.232   1.183   8.731
   654G12  H01411940   1.198   1.150   8.828
   654G12  C00611941   1.188   1.319   8.697
   654G12  C00511942   1.215   1.374   8.575
   654G12  C00411943   1.146   1.489   8.529
   654G12  C00311944   1.141   1.526   8.392
   654G12  C00211945   1.061   1.641   8.363
   654G12  C00111946   1.021   1.694   8.237
   654G12  C00M11947   0.973   1.607   8.128
   654G12  C00L11948   1.055   1.512   8.066
   654G12  C00R11949   1.001   1.406   7.979
   654G12  C00Q11950   0.874   1.382   7.909
   654G12  C00V11951   0.870   1.259   7.841
   654G12  C00U11952   0.959   1.153   7.863
   654G12  C00T11953   1.062   1.167   7.951
   654G12  C01611954   1.140   1.064   8.000
   654G12  C01511955   1.115   0.937   7.948
   654G12  C01011956   1.023   0.922   7.843
   654G12  C01111957   1.002   0.790   7.788
   654G12  H00511958   0.931   0.773   7.708
   654G12  C01211959   1.088   0.691   7.831
   654G12  C01711960   1.088   0.565   7.768
   654G12  O00211961   0.971   0.504   7.747
   654G12  H00411962   0.996   0.449   7.675
   654G12  C01811963   1.198   0.519   7.705
   654G12  O00111964   1.311   0.591   7.706
   654G12  H00311965   1.288   0.673   7.748
   654G12  C01911966   1.208   0.383   7.633
   654G12  H00211967   1.301   0.377   7.576
   654G12  H00111968   1.211   0.310   7.714
   654G12  O00011969   1.098   0.355   7.554
   654G12  C01A11970   1.085   0.225   7.507
   654G12  C02K11971   0.957   0.203   7.459
   654G12  O00G11972   0.870   0.308   7.476
   654G12  C02M11973   0.730   0.278   7.485
   654G12  H01G11974   0.696   0.236   7.391
   654G12  H01F11975   0.678   0.370   7.510
   654G12  H01E11976   0.709   0.212   7.569
   654G12  C02J11977   0.925   0.074   7.408
   654G12  H01H11978   0.824   0.077   7.369
   654G12  C02I11979   1.024  -0.026   7.408
   654G12  C02N11980   0.988  -0.163   7.368
   654G12  H01M11981   1.054  -0.236   7.324
   654G12  C02O11982   0.860  -0.207   7.390
   654G12  H01L11983   0.791  -0.138   7.437
   654G12  C02P11984   0.809  -0.337   7.347
   654G12  H01K11985   0.883  -0.414   7.327
   654G12  H01J11986   0.764  -0.369   7.441
   654G12  O00H11987   0.713  -0.330   7.242
   654G12  H01I11988   0.755  -0.335   7.158
   654G12  C02H11989   1.151   0.003   7.459
   654G12  H01C11990   1.231  -0.069   7.456
   654G12  C02L11991   1.185   0.130   7.502
   654G12  H01D11992   1.288   0.144   7.533
   654G12  C01311993   1.166   0.706   7.938
   654G12  H00011994   1.226   0.618   7.955
   654G12  C01411995   1.183   0.829   8.006
   654G12  C00F11996   1.261   0.845   8.122
   654G12  C00H11997   1.225   1.083   8.110
   654G12  C00I11998   1.247   1.212   8.157
   654G12  C00J11999   1.180   1.320   8.084
   654G12  C00Z12000   0.944   1.031   7.804
   654G12  C00Y12001   0.847   1.017   7.700
   654G12  H00612002   0.833   0.925   7.645
   654G12  C00X12003   0.750   1.120   7.675
   654G12  O00312004   0.644   1.092   7.601
   654G12  C01B12005   0.622   1.173   7.487
   654G12  H00912006   0.544   1.133   7.422
   654G12  H00812007   0.716   1.181   7.434
   654G12  H00712008   0.594   1.275   7.512
   654G12  C00W12009   0.757   1.239   7.756
   654G12  O00412010   0.641   1.317   7.755
   654G12  C01C12011   0.644   1.430   7.829
   654G12  H00A12012   0.564   1.500   7.810
   654G12  C00P12013   0.754   1.465   7.917
   654G12  C00O12014   0.733   1.570   8.016
   654G12  C01D12015   0.597   1.613   8.042
   654G12  H00S12016   0.511   1.578   7.986
   654G12  C01E12017   0.566   1.696   8.155
   654G12  O00812018   0.439   1.724   8.195
   654G12  C01V12019   0.333   1.739   8.104
   654G12  C01Z12020   0.200   1.737   8.172
   654G12  H00R12021   0.162   1.838   8.188
   654G12  H00Q12022   0.123   1.676   8.127
   654G12  O00912023   0.216   1.694   8.305
   654G12  H00P12024   0.303   1.700   8.339
   654G12  C01W12025   0.345   1.780   7.980
   654G12  H00O12026   0.440   1.792   7.930
   654G12  C01X12027   0.223   1.812   7.895
   654G12  H00N12028   0.134   1.840   7.951
   654G12  H00M12029   0.240   1.902   7.836
   654G12  C01Y12030   0.194   1.709   7.787
   654G12  C02D12031   0.256   1.583   7.782
   654G12  H01912032   0.325   1.550   7.858
   654G12  C02C12033   0.234   1.494   7.676
   654G12  H01A12034   0.295   1.404   7.673
   654G12  C02B12035   0.151   1.535   7.568
   654G12  O00E12036   0.138   1.460   7.460
   654G12  H01B12037   0.089   1.497   7.388
   654G12  C02F12038   0.083   1.658   7.574
   654G12  O00F12039  -0.009   1.676   7.468
   654G12  C02G12040  -0.090   1.795   7.482
   654G12  H01712041  -0.034   1.885   7.458
   654G12  H01612042  -0.139   1.793   7.580
   654G12  H01512043  -0.174   1.783   7.412
   654G12  C02E12044   0.104   1.742   7.685
   654G12  H01812045   0.062   1.840   7.704
   654G12  C01F12046   0.666   1.743   8.238
   654G12  C01G12047   0.638   1.783   8.373
   654G12  H00L12048   0.538   1.784   8.413
   654G12  C01H12049   0.747   1.800   8.465
   654G12  H00B12050   0.722   1.786   8.569
   654G12  C01I12051   0.876   1.778   8.414
   654G12  C01U12052   0.799   1.725   8.198
   654G12  C00S12053   1.090   1.296   7.987
   654G12  C00K12054   1.158   1.452   8.148
   654G12  C00N12055   0.832   1.629   8.100
   654G12  C00012056   0.909   1.774   8.276
   654G12  C01J12057   0.992   1.712   8.467
   654G12  C01K12058   1.011   1.684   8.606
   654G12  C01P12059   0.962   1.762   8.716
   654G12  C01Q12060   0.923   1.903   8.705
   654G12  H00G12061   0.988   1.970   8.650
   654G12  C01R12062   0.818   1.951   8.774
   654G12  H00F12063   0.750   1.897   8.837
   654G12  C01S12064   0.791   2.103   8.775
   654G12  H00E12065   0.722   2.139   8.852
   654G12  H00D12066   0.887   2.151   8.789
   654G12  O00512067   0.729   2.144   8.657
   654G12  H00C12068   0.790   2.129   8.586
   654G12  C01O12069   0.970   1.712   8.847
   654G12  H00H12070   0.939   1.778   8.926
   654G12  C01N12071   1.027   1.586   8.871
   654G12  O00612072   1.032   1.532   8.995
   654G12  C01T12073   1.152   1.554   9.062
   654G12  H00K12074   1.143   1.493   9.152
   654G12  H00J12075   1.157   1.660   9.087
   654G12  H00I12076   1.232   1.526   8.994
   654G12  C01M12077   1.074   1.513   8.762
   654G12  C02012078   1.208   1.451   8.288
   654G12  C02112079   1.295   1.352   8.343
   654G12  C01L12080   1.080   1.563   8.628
   654G12  O00712081   1.110   1.387   8.786
   654G12  C02212082   1.298   1.311   8.476
   654G12  C02312083   1.324   1.232   8.272
   654G12  C00G12084   1.280   0.973   8.178
   654G12  C00E12085   1.308   0.723   8.197
   654G12  O00A12086   1.298   0.600   8.152
   654G12  C02412087   1.421   0.545   8.105
   654G12  H00V12088   1.440   0.591   8.008
   654G12  H00U12089   1.392   0.442   8.083
   654G12  H00T12090   1.505   0.569   8.170
   664G12  C00D12091   4.332   4.715   3.996
   664G12  O00B12092   4.417   4.646   4.086
   664G12  C02512093   4.416   4.513   4.100
   664G12  C02612094   4.545   4.442   4.074
   664G12  H00Y12095   4.571   4.376   4.157
   664G12  H00X12096   4.620   4.522   4.074
   664G12  O00C12097   4.541   4.371   3.951
   664G12  H00W12098   4.498   4.288   3.964
   664G12  C02712099   4.294   4.459   4.135
   664G12  O00D12100   4.186   4.540   4.172
   664G12  H00Z12101   4.208   4.624   4.209
   664G12  C02812102   4.284   4.314   4.138
   664G12  C02912103   4.194   4.251   4.054
   664G12  H01012104   4.123   4.312   3.999
   664G12  C02T12105   4.191   4.115   4.039
   664G12  H01O12106   4.119   4.072   3.972
   664G12  C02S12107   4.278   4.039   4.116
   664G12  O00J12108   4.299   3.905   4.098
   664G12  H01P12109   4.358   3.881   4.168
   664G12  C02R12110   4.359   4.097   4.213
   664G12  O00I12111   4.438   4.015   4.279
   664G12  C02Q12112   4.533   4.072   4.372
   664G12  H01N12113   4.605   4.134   4.318
   664G12  H01R12114   4.581   3.985   4.417
   664G12  H01Q12115   4.487   4.139   4.445
   664G12  C02A12116   4.360   4.238   4.228
   664G12  H01112117   4.416   4.293   4.302
   664G12  C00C12118   4.316   4.668   3.868
   664G12  H01212119   4.369   4.578   3.842
   664G12  C00B12120   4.230   4.722   3.773
   664G12  C00A12121   4.200   4.671   3.642
   664G12  C00912122   4.294   4.601   3.554
   664G12  C00812123   4.425   4.549   3.564
   664G12  H01312124   4.475   4.542   3.659
   664G12  C00712125   4.508   4.538   3.449
   664G12  H01412126   4.613   4.515   3.456
   664G12  C00612127   4.465   4.591   3.325
   664G12  C00512128   4.331   4.632   3.318
   664G12  C00412129   4.283   4.707   3.203
   664G12  C00312130   4.163   4.782   3.207
   664G12  C00212131   4.127   4.850   3.084
   664G12  C00112132   4.019   4.941   3.050
   664G12  C00M12133   3.995   5.052   3.144
   664G12  C00L12134   3.976   5.034   3.285
   664G12  C00R12135   3.978   5.138   3.379
   664G12  C00Q12136   3.993   5.278   3.367
   664G12  C00V12137   4.002   5.342   3.496
   664G12  C00U12138   4.028   5.275   3.622
   664G12  C00T12139   4.024   5.135   3.622
   664G12  C01612140   4.061   5.055   3.729
   664G12  C01512141   4.098   5.117   3.851
   664G12  C01012142   4.084   5.255   3.857
   664G12  C01112143   4.089   5.317   3.986
   664G12  H00512144   4.054   5.416   4.009
   664G12  C01212145   4.115   5.243   4.108
   664G12  C01712146   4.092   5.305   4.236
   664G12  O00212147   4.025   5.232   4.329
   664G12  H00412148   3.995   5.152   4.290
   664G12  C01812149   4.139   5.432   4.278
   664G12  O00112150   4.224   5.501   4.196
   664G12  H00312151   4.241   5.588   4.229
   664G12  C01912152   4.107   5.512   4.401
   664G12  H00212153   4.004   5.498   4.435
   664G12  H00112154   4.174   5.482   4.482
   664G12  O00012155   4.136   5.654   4.376
   664G12  C01A12156   4.061   5.719   4.278
   664G12  C02K12157   4.132   5.785   4.178
   664G12  O00G12158   4.269   5.768   4.182
   664G12  C02M12159   4.347   5.795   4.063
   664G12  H01G12160   4.296   5.745   3.981
   664G12  H01F12161   4.448   5.754   4.060
   664G12  H01E12162   4.365   5.900   4.043
   664G12  C02J12163   4.066   5.858   4.079
   664G12  H01H12164   4.125   5.913   4.008
   664G12  C02I12165   3.924   5.865   4.084
   664G12  C02N12166   3.847   5.945   3.992
   664G12  H01M12167   3.740   5.955   3.992
   664G12  C02O12168   3.900   6.011   3.889
   664G12  H01L12169   3.997   6.013   3.841
   664G12  C02P12170   3.814   6.071   3.785
   664G12  H01K12171   3.711   6.073   3.822
   664G12  H01J12172   3.851   6.173   3.773
   664G12  O00H12173   3.833   6.006   3.660
   664G12  H01I12174   3.819   5.914   3.675
   664G12  C02H12175   3.850   5.784   4.173
   664G12  H01C12176   3.742   5.779   4.172
   664G12  C02L12177   3.923   5.712   4.270
   664G12  H01D12178   3.870   5.643   4.334
   664G12  C01312179   4.139   5.104   4.089
   664G12  H00012180   4.135   5.042   4.177
   664G12  C01412181   4.145   5.042   3.960
   664G12  C00F12182   4.186   4.909   3.932
   664G12  C00H12183   4.087   4.914   3.712
   664G12  C00I12184   4.058   4.861   3.586
   664G12  C00J12185   3.999   4.942   3.490
   664G12  C00Z12186   4.052   5.336   3.742
   664G12  C00Y12187   4.047   5.475   3.749
   664G12  H00612188   4.066   5.530   3.840
   664G12  C00X12189   4.020   5.547   3.630
   664G12  O00312190   4.008   5.681   3.634
   664G12  C01B12191   4.099   5.760   3.703
   664G12  H00912192   4.069   5.784   3.805
   664G12  H00812193   4.120   5.859   3.661
   664G12  H00712194   4.199   5.717   3.701
   664G12  C00W12195   4.003   5.485   3.504
   664G12  O00412196   3.986   5.565   3.393
   664G12  C01C12197   4.010   5.507   3.271
   664G12  H00A12198   3.979   5.563   3.184
   664G12  C00P12199   4.014   5.363   3.255
   664G12  C00O12200   4.039   5.316   3.124
   664G12  C01D12201   4.086   5.407   3.019
   664G12  H00S12202   4.098   5.511   3.042
   664G12  C01E12203   4.134   5.362   2.889
   664G12  O00812204   4.192   5.450   2.796
   664G12  C01V12205   4.172   5.586   2.803
   664G12  C01Z12206   4.302   5.654   2.839
   664G12  H00R12207   4.395   5.620   2.793
   664G12  H00Q12208   4.303   5.761   2.817
   664G12  O00912209   4.336   5.638   2.976
   664G12  H00P12210   4.364   5.548   2.980
   664G12  C01W12211   4.053   5.648   2.804
   664G12  H00O12212   3.966   5.588   2.784
   664G12  C01X12213   4.021   5.793   2.830
   664G12  H00N12214   4.111   5.851   2.810
   664G12  H00M12215   3.944   5.829   2.762
   664G12  C01Y12216   3.971   5.817   2.976
   664G12  C02D12217   3.832   5.814   2.997
   664G12  H01912218   3.765   5.807   2.912
   664G12  C02C12219   3.786   5.816   3.133
   664G12  H01A12220   3.683   5.806   3.162
   664G12  C02B12221   3.877   5.836   3.234
   664G12  O00E12222   3.832   5.855   3.363
   664G12  H01B12223   3.911   5.853   3.414
   664G12  C02F12224   4.019   5.841   3.212
   664G12  O00F12225   4.099   5.862   3.323
   664G12  C02G12226   4.239   5.895   3.311
   664G12  H01712227   4.291   5.900   3.407
   664G12  H01612228   4.273   5.984   3.257
   664G12  H01512229   4.286   5.820   3.247
   664G12  C02E12230   4.067   5.826   3.081
   664G12  H01812231   4.169   5.836   3.047
   664G12  C01F12232   4.135   5.224   2.868
   664G12  C01G12233   4.223   5.167   2.774
   664G12  H00L12234   4.270   5.236   2.705
   664G12  C01H12235   4.253   5.034   2.785
   664G12  H00B12236   4.337   4.998   2.726
   664G12  C01I12237   4.185   4.955   2.882
   664G12  C01U12238   4.061   5.138   2.949
   664G12  C00S12239   3.982   5.077   3.504
   664G12  C00K12240   4.014   4.915   3.352
   664G12  C00N12241   4.025   5.180   3.079
   664G12  C00012242   4.057   4.997   2.929
   664G12  C01J12243   4.217   4.844   2.973
   664G12  C01K12244   4.331   4.757   2.962
   664G12  C01P12245   4.420   4.731   2.845
   664G12  C01Q12246   4.380   4.741   2.710
   664G12  H00G12247   4.449   4.758   2.628
   664G12  C01R12248   4.255   4.708   2.671
   664G12  H00F12249   4.190   4.682   2.753
   664G12  C01S12250   4.207   4.689   2.525
   664G12  H00E12251   4.293   4.663   2.464
   664G12  H00D12252   4.131   4.611   2.517
   664G12  O00512253   4.160   4.819   2.489
   664G12  H00C12254   4.115   4.826   2.406
   664G12  C01O12255   4.547   4.677   2.865
   664G12  H00H12256   4.611   4.668   2.779
   664G12  C01N12257   4.587   4.635   2.987
   664G12  O00612258   4.715   4.593   3.017
   664G12  C01T12259   4.797   4.532   2.915
   664G12  H00K12260   4.861   4.453   2.954
   664G12  H00J12261   4.871   4.601   2.875
   664G12  H00I12262   4.751   4.482   2.831
   664G12  C01M12263   4.498   4.647   3.094
   664G12  C02012264   4.083   4.792   3.324
   664G12  C02112265   4.120   4.695   3.423
   664G12  C01L12266   4.366   4.699   3.085
   664G12  O00712267   4.546   4.596   3.217
   664G12  C02212268   4.239   4.624   3.426
   664G12  C02312269   4.105   4.731   3.559
   664G12  C00G12270   4.167   4.847   3.806
   664G12  C00E12271   4.267   4.843   4.030
   664G12  O00A12272   4.301   4.894   4.149
   664G12  C02412273   4.423   4.968   4.146
   664G12  H00V12274   4.454   5.009   4.242
   664G12  H00U12275   4.422   5.044   4.068
   664G12  H00T12276   4.506   4.900   4.125
   674G12  C00D12277   4.106   3.897   8.022
   674G12  O00B12278   4.077   4.005   8.090
   674G12  C02512279   4.187   4.067   8.157
   674G12  C02612280   4.228   3.986   8.278
   674G12  H00Y12281   4.304   4.026   8.346
   674G12  H00X12282   4.272   3.891   8.248
   674G12  O00C12283   4.114   3.962   8.360
   674G12  H00W12284   4.046   3.917   8.313
   674G12  C02712285   4.245   4.172   8.100
   674G12  O00D12286   4.202   4.214   7.979
   674G12  H00Z12287   4.123   4.164   7.973
   674G12  C02812288   4.358   4.246   8.153
   674G12  C02912289   4.466   4.277   8.069
   674G12  H01012290   4.454   4.251   7.964
   674G12  C02T12291   4.589   4.324   8.124
   674G12  H01O12292   4.675   4.338   8.060
   674G12  C02S12293   4.591   4.369   8.261
   674G12  O00J12294   4.701   4.418   8.323
   674G12  H01P12295   4.678   4.425   8.415
   674G12  C02R12296   4.476   4.360   8.344
   674G12  O00I12297   4.490   4.418   8.465
   674G12  C02Q12298   4.372   4.440   8.537
   674G12  H01N12299   4.313   4.349   8.553
   674G12  H01R12300   4.315   4.516   8.484
   674G12  H01Q12301   4.393   4.483   8.635
   674G12  C02A12302   4.361   4.294   8.290
   674G12  H01112303   4.274   4.284   8.353
   674G12  C00C12304   4.162   3.903   7.895
   674G12  H01212305   4.216   3.993   7.871
   674G12  C00B12306   4.166   3.788   7.809
   674G12  C00A12307   4.222   3.778   7.674
   674G12  C00912308   4.240   3.884   7.578
   674G12  C00812309   4.203   4.020   7.580
   674G12  H01312310   4.190   4.070   7.674
   674G12  C00712311   4.179   4.091   7.454
   674G12  H01412312   4.147   4.194   7.457
   674G12  C00612313   4.189   4.018   7.333
   674G12  C00512314   4.216   3.880   7.335
   674G12  C00412315   4.188   3.794   7.227
   674G12  C00312316   4.178   3.649   7.248
   674G12  C00212317   4.121   3.572   7.137
   674G12  C00112318   4.083   3.433   7.126
   674G12  C00M12319   4.012   3.360   7.230
   674G12  C00L12320   4.046   3.365   7.366
   674G12  C00R12321   3.969   3.308   7.471
   674G12  C00Q12322   3.853   3.228   7.475
   674G12  C00V12323   3.805   3.205   7.607
   674G12  C00U12324   3.855   3.280   7.717
   674G12  C00T12325   3.962   3.363   7.706
   674G12  C01612326   4.010   3.452   7.805
   674G12  C01512327   3.940   3.456   7.924
   674G12  C01012328   3.839   3.359   7.944
   674G12  C01112329   3.776   3.350   8.071
   674G12  H00512330   3.684   3.296   8.090
   674G12  C01212331   3.823   3.424   8.181
   674G12  C01712332   3.763   3.418   8.314
   674G12  O00212333   3.747   3.542   8.369
   674G12  H00412334   3.712   3.525   8.455
   674G12  C01812335   3.717   3.312   8.371
   674G12  O00112336   3.728   3.188   8.316
   674G12  H00312337   3.795   3.199   8.250
   674G12  C01912338   3.642   3.310   8.503
   674G12  H00212339   3.536   3.306   8.478
   674G12  H00112340   3.665   3.217   8.555
   674G12  O00012341   3.682   3.424   8.580
   674G12  C01A12342   3.629   3.446   8.703
   674G12  C02K12343   3.690   3.548   8.779
   674G12  O00G12344   3.786   3.613   8.708
   674G12  C02M12345   3.853   3.727   8.755
   674G12  H01G12346   3.916   3.767   8.675
   674G12  H01F12347   3.919   3.719   8.841
   674G12  H01E12348   3.786   3.811   8.767
   674G12  C02J12349   3.656   3.578   8.911
   674G12  H01H12350   3.714   3.655   8.959
   674G12  C02I12351   3.542   3.512   8.973
   674G12  C02N12352   3.490   3.555   9.106
   674G12  H01M12353   3.387   3.538   9.132
   674G12  C02O12354   3.551   3.645   9.180
   674G12  H01L12355   3.649   3.684   9.159
   674G12  C02P12356   3.483   3.713   9.298
   674G12  H01K12357   3.466   3.814   9.262
   674G12  H01J12358   3.387   3.671   9.329
   674G12  O00H12359   3.577   3.724   9.399
   674G12  H01I12360   3.614   3.641   9.425
   674G12  C02H12361   3.486   3.406   8.897
   674G12  H01C12362   3.415   3.335   8.938
   674G12  C02L12363   3.536   3.365   8.771
   674G12  H01D12364   3.497   3.272   8.731
   674G12  C01312365   3.918   3.524   8.150
   674G12  H00012366   3.957   3.578   8.235
   674G12  C01412367   3.975   3.552   8.021
   674G12  C00F12368   4.053   3.658   7.983
   674G12  C00H12369   4.107   3.549   7.770
   674G12  C00I12370   4.167   3.545   7.641
   674G12  C00J12371   4.135   3.440   7.556
   674G12  C00Z12372   3.794   3.275   7.838
   674G12  C00Y12373   3.692   3.176   7.860
   674G12  H00612374   3.640   3.162   7.953
   674G12  C00X12375   3.646   3.094   7.759
   674G12  O00312376   3.541   3.011   7.778
   674G12  C01B12377   3.522   2.946   7.900
   674G12  H00912378   3.458   3.002   7.967
   674G12  H00812379   3.619   2.907   7.932
   674G12  H00712380   3.466   2.855   7.880
   674G12  C00W12381   3.690   3.123   7.628
   674G12  O00412382   3.635   3.047   7.528
   674G12  C01C12383   3.675   3.081   7.399
   674G12  H00A12384   3.638   3.026   7.313
   674G12  C00P12385   3.774   3.181   7.365
   674G12  C00O12386   3.778   3.242   7.236
   674G12  C01D12387   3.660   3.231   7.146
   674G12  H00S12388   3.567   3.178   7.164
   674G12  C01E12389   3.649   3.319   7.031
   674G12  O00812390   3.533   3.341   6.955
   674G12  C01V12391   3.410   3.321   7.012
   674G12  C01Z12392   3.359   3.455   7.080
   674G12  H00R12393   3.355   3.541   7.012
   674G12  H00Q12394   3.259   3.431   7.116
   674G12  O00912395   3.439   3.502   7.181
   674G12  H00P12396   3.392   3.575   7.218
   674G12  C01W12397   3.357   3.197   7.015
   674G12  H00O12398   3.419   3.119   6.975
   674G12  C01X12399   3.236   3.153   7.078
   674G12  H00N12400   3.162   3.232   7.090
   674G12  H00M12401   3.183   3.089   7.008
   674G12  C01Y12402   3.253   3.091   7.210
   674G12  C02D12403   3.249   2.953   7.220
   674G12  H01912404   3.227   2.906   7.125
   674G12  C02C12405   3.283   2.889   7.341
   674G12  H01A12406   3.290   2.781   7.345
   674G12  C02B12407   3.326   2.966   7.450
   674G12  O00E12408   3.372   2.908   7.565
   674G12  H01B12409   3.400   2.983   7.615
   674G12  C02F12410   3.348   3.105   7.435
   674G12  O00F12411   3.406   3.170   7.541
   674G12  C02G12412   3.432   3.307   7.531
   674G12  H01712413   3.340   3.366   7.523
   674G12  H01612414   3.494   3.330   7.445
   674G12  H01512415   3.486   3.338   7.621
   674G12  C02E12416   3.310   3.169   7.314
   674G12  H01812417   3.319   3.277   7.303
   674G12  C01F12418   3.759   3.395   6.989
   674G12  C01G12419   3.754   3.500   6.897
   674G12  H00L12420   3.655   3.528   6.864
   674G12  C01H12421   3.864   3.592   6.888
   674G12  H00B12422   3.847   3.689   6.844
   674G12  C01I12423   3.987   3.562   6.955
   674G12  C01U12424   3.885   3.366   7.049
   674G12  C00S12425   4.033   3.348   7.588
   674G12  C00K12426   4.146   3.458   7.415
   674G12  C00N12427   3.885   3.320   7.186
   674G12  C00012428   4.000   3.433   7.014
   674G12  C01J12429   4.075   3.650   7.023
   674G12  C01K12430   4.100   3.790   6.993
   674G12  C01P12431   4.070   3.864   6.874
   674G12  C01Q12432   4.031   3.807   6.748
   674G12  H00G12433   4.085   3.725   6.703
   674G12  C01R12434   3.919   3.848   6.683
   674G12  H00F12435   3.862   3.934   6.713
   674G12  C01S12436   3.877   3.773   6.550
   674G12  H00E12437   3.962   3.706   6.534
   674G12  H00D12438   3.794   3.707   6.574
   674G12  O00512439   3.865   3.876   6.451
   674G12  H00C12440   3.775   3.905   6.455
   674G12  C01O12441   4.095   4.001   6.875
   674G12  H00H12442   4.091   4.065   6.789
   674G12  C01N12443   4.127   4.072   6.985
   674G12  O00612444   4.131   4.211   6.981
   674G12  C01T12445   4.267   4.259   6.980
   674G12  H00K12446   4.256   4.367   6.963
   674G12  H00J12447   4.316   4.217   6.892
   674G12  H00I12448   4.325   4.242   7.070
   674G12  C01M12449   4.151   3.999   7.101
   674G12  C02012450   4.207   3.587   7.371
   674G12  C02112451   4.263   3.677   7.466
   674G12  C01L12452   4.154   3.854   7.103
   674G12  O00712453   4.181   4.078   7.213
   674G12  C02212454   4.261   3.817   7.454
   674G12  C02312455   4.240   3.657   7.604
   674G12  C00G12456   4.118   3.663   7.854
   674G12  C00E12457   4.049   3.778   8.065
   674G12  O00A12458   3.979   3.792   8.174
   674G12  C02412459   3.841   3.823   8.157
   674G12  H00V12460   3.798   3.839   8.256
   674G12  H00U12461   3.787   3.743   8.106
   674G12  H00T12462   3.835   3.914   8.097
   684G12  C00D12463   5.267   5.427   9.076
   684G12  O00B12464   5.238   5.463   9.211
   684G12  C02512465   5.347   5.510   9.287
   684G12  C02612466   5.340   5.660   9.310
   684G12  H00Y12467   5.415   5.686   9.384
   684G12  H00X12468   5.251   5.694   9.365
   684G12  O00C12469   5.361   5.728   9.186
   684G12  H00W12470   5.380   5.816   9.211
   684G12  C02712471   5.444   5.419   9.328
   684G12  O00D12472   5.415   5.287   9.313
   684G12  H00Z12473   5.337   5.284   9.260
   684G12  C02812474   5.568   5.460   9.395
   684G12  C02912475   5.640   5.574   9.349
   684G12  H01012476   5.596   5.639   9.274
   684G12  C02T12477   5.762   5.611   9.409
   684G12  H01O12478   5.817   5.691   9.361
   684G12  C02S12479   5.821   5.532   9.508
   684G12  O00J12480   5.935   5.570   9.579
   684G12  H01P12481   5.965   5.499   9.634
   684G12  C02R12482   5.759   5.415   9.548
   684G12  O00I12483   5.828   5.345   9.643
   684G12  C02Q12484   5.778   5.217   9.680
   684G12  H01N12485   5.678   5.209   9.723
   684G12  H01R12486   5.846   5.183   9.758
   684G12  H01Q12487   5.781   5.152   9.592
   684G12  C02A12488   5.633   5.380   9.489
   684G12  H01112489   5.582   5.291   9.523
   684G12  C00C12490   5.379   5.471   9.006
   684G12  H01212491   5.448   5.538   9.056
   684G12  C00B12492   5.405   5.438   8.872
   684G12  C00A12493   5.526   5.461   8.798
   684G12  C00912494   5.660   5.460   8.851
   684G12  C00812495   5.719   5.434   8.981
   684G12  H01312496   5.652   5.437   9.065
   684G12  C00712497   5.849   5.375   8.985
   684G12  H01412498   5.884   5.366   9.087
   684G12  C00612499   5.927   5.363   8.867
   684G12  C00512500   5.865   5.384   8.745
   684G12  C00412501   5.916   5.324   8.627
   684G12  C00312502   5.830   5.315   8.510
   684G12  C00212503   5.889   5.245   8.394
   684G12  C00112504   5.833   5.191   8.269
   684G12  C00M12505   5.696   5.137   8.264
   684G12  C00L12506   5.578   5.194   8.322
   684G12  C00R12507   5.441   5.138   8.327
   684G12  C00Q12508   5.389   5.008   8.289
   684G12  C00V12509   5.257   4.988   8.326
   684G12  C00U12510   5.199   5.063   8.434
   684G12  C00T12511   5.259   5.177   8.482
   684G12  C01612512   5.235   5.229   8.609
   684G12  C01512513   5.127   5.181   8.682
   684G12  C01012514   5.043   5.087   8.619
   684G12  C01112515   4.922   5.053   8.682
   684G12  H00512516   4.858   4.975   8.644
   684G12  C01212517   4.884   5.112   8.802
   684G12  C01712518   4.748   5.091   8.852
   684G12  O00212519   4.642   5.105   8.762
   684G12  H00412520   4.670   5.064   8.682
   684G12  C01812521   4.719   5.080   8.983
   684G12  O00112522   4.808   5.065   9.086
   684G12  H00312523   4.767   5.012   9.153
   684G12  C01912524   4.577   5.077   9.039
   684G12  H00212525   4.533   5.176   9.038
   684G12  H00112526   4.530   5.004   8.973
   684G12  O00012527   4.575   5.028   9.174
   684G12  C01A12528   4.453   5.012   9.235
   684G12  C02K12529   4.450   4.996   9.369
   684G12  O00G12530   4.570   5.014   9.435
   684G12  C02M12531   4.549   5.055   9.570
   684G12  H01G12532   4.525   4.971   9.636
   684G12  H01F12533   4.474   5.132   9.589
   684G12  H01E12534   4.642   5.100   9.603
   684G12  C02J12535   4.331   4.950   9.430
   684G12  H01H12536   4.327   4.948   9.538
   684G12  C02I12537   4.213   4.934   9.359
   684G12  C02N12538   4.092   4.910   9.434
   684G12  H01M12539   4.090   4.895   9.541
   684G12  C02O12540   3.972   4.910   9.381
   684G12  H01L12541   3.960   4.924   9.274
   684G12  C02P12542   3.844   4.883   9.456
   684G12  H01K12543   3.848   4.884   9.565
   684G12  H01J12544   3.779   4.970   9.443
   684G12  O00H12545   3.799   4.760   9.414
   684G12  H01I12546   3.746   4.771   9.337
   684G12  C02H12547   4.216   4.956   9.219
   684G12  H01C12548   4.128   4.949   9.157
   684G12  C02L12549   4.336   4.987   9.157
   684G12  H01D12550   4.334   4.999   9.050
   684G12  C01312551   4.970   5.195   8.862
   684G12  H00012552   4.932   5.246   8.949
   684G12  C01412553   5.095   5.231   8.810
   684G12  C00F12554   5.193   5.310   8.871
   684G12  C00H12555   5.326   5.320   8.668
   684G12  C00I12556   5.431   5.377   8.591
   684G12  C00J12557   5.453   5.323   8.464
   684G12  C00Z12558   5.084   5.026   8.498
   684G12  C00Y12559   5.010   4.917   8.442
   684G12  H00612560   4.923   4.874   8.490
   684G12  C00X12561   5.052   4.846   8.329
   684G12  O00312562   4.974   4.737   8.298
   684G12  C01B12563   5.021   4.638   8.209
   684G12  H00912564   5.034   4.681   8.109
   684G12  H00812565   4.949   4.556   8.209
   684G12  H00712566   5.112   4.591   8.247
   684G12  C00W12567   5.184   4.873   8.280
   684G12  O00412568   5.245   4.798   8.181
   684G12  C01C12569   5.379   4.777   8.211
   684G12  H00A12570   5.410   4.679   8.242
   684G12  C00P12571   5.460   4.893   8.234
   684G12  C00O12572   5.605   4.890   8.214
   684G12  C01D12573   5.659   4.766   8.171
   684G12  H00S12574   5.592   4.685   8.146
   684G12  C01E12575   5.795   4.730   8.203
   684G12  O00812576   5.854   4.603   8.191
   684G12  C01V12577   5.798   4.507   8.107
   684G12  C01Z12578   5.868   4.496   7.979
   684G12  H00R12579   5.974   4.490   8.004
   684G12  H00Q12580   5.847   4.413   7.912
   684G12  O00912581   5.853   4.613   7.903
   684G12  H00P12582   5.901   4.682   7.947
   684G12  C01W12583   5.691   4.440   8.147
   684G12  H00O12584   5.647   4.455   8.244
   684G12  C01X12585   5.599   4.342   8.076
   684G12  H00N12586   5.652   4.317   7.984
   684G12  H00M12587   5.577   4.260   8.144
   684G12  C01Y12588   5.481   4.413   8.015
   684G12  C02D12589   5.500   4.512   7.920
   684G12  H01912590   5.594   4.537   7.873
   684G12  C02C12591   5.388   4.569   7.859
   684G12  H01A12592   5.402   4.647   7.785
   684G12  C02B12593   5.256   4.528   7.890
   684G12  O00E12594   5.141   4.564   7.827
   684G12  H01B12595   5.064   4.516   7.850
   684G12  C02F12596   5.240   4.423   7.985
   684G12  O00F12597   5.109   4.398   8.020
   684G12  C02G12598   5.079   4.319   8.136
   684G12  H01712599   5.106   4.213   8.132
   684G12  H01612600   4.971   4.327   8.146
   684G12  H01512601   5.125   4.367   8.223
   684G12  C02E12602   5.351   4.369   8.052
   684G12  H01812603   5.331   4.287   8.119
   684G12  C01F12604   5.879   4.832   8.241
   684G12  C01G12605   6.017   4.822   8.290
   684G12  H00L12606   6.064   4.725   8.294
   684G12  C01H12607   6.083   4.940   8.341
   684G12  H00B12608   6.167   4.925   8.408
   684G12  C01I12609   6.028   5.075   8.321
   684G12  C01U12610   5.839   4.970   8.230
   684G12  C00S12611   5.368   5.225   8.412
   684G12  C00K12612   5.589   5.299   8.416
   684G12  C00N12613   5.700   4.994   8.229
   684G12  C00012614   5.917   5.082   8.236
   684G12  C01J12615   6.021   5.194   8.401
   684G12  C01K12616   6.110   5.214   8.521
   684G12  C01P12617   6.246   5.171   8.537
   684G12  C01Q12618   6.316   5.139   8.410
   684G12  H00G12619   6.270   5.179   8.321
   684G12  C01R12620   6.432   5.063   8.409
   684G12  H00F12621   6.487   5.024   8.494
   684G12  C01S12622   6.501   5.041   8.275
   684G12  H00E12623   6.515   4.933   8.264
   684G12  H00D12624   6.448   5.086   8.191
   684G12  O00512625   6.619   5.115   8.280
   684G12  H00C12626   6.603   5.185   8.342
   684G12  C01O12627   6.311   5.168   8.664
   684G12  H00H12628   6.408   5.122   8.677
   684G12  C01N12629   6.239   5.209   8.775
   684G12  O00612630   6.286   5.204   8.909
   684G12  C01T12631   6.405   5.124   8.927
   684G12  H00K12632   6.402   5.024   8.883
   684G12  H00J12633   6.423   5.120   9.034
   684G12  H00I12634   6.493   5.167   8.879
   684G12  C01M12635   6.106   5.259   8.758
   684G12  C02012636   5.692   5.364   8.502
   684G12  C02112637   5.656   5.447   8.612
   684G12  C01L12638   6.043   5.268   8.629
   684G12  O00712639   6.046   5.296   8.878
   684G12  C02212640   5.735   5.442   8.728
   684G12  C02312641   5.527   5.452   8.662
   684G12  C00G12642   5.316   5.348   8.806
   684G12  C00E12643   5.180   5.351   9.010
   684G12  O00A12644   5.088   5.284   9.089
   684G12  C02412645   5.122   5.151   9.134
   684G12  H00V12646   5.136   5.084   9.050
   684G12  H00U12647   5.037   5.109   9.188
   684G12  H00T12648   5.203   5.145   9.208
   694G12  C00D12649   3.621   5.817   9.145
   694G12  O00B12650   3.581   5.847   9.275
   694G12  C02512651   3.651   5.939   9.349
   694G12  C02612652   3.577   6.063   9.391
   694G12  H00Y12653   3.602   6.110   9.486
   694G12  H00X12654   3.471   6.044   9.408
   694G12  O00C12655   3.593   6.154   9.283
   694G12  H00W12656   3.518   6.153   9.224
   694G12  C02712657   3.773   5.902   9.396
   694G12  O00D12658   3.829   5.784   9.368
   694G12  H00Z12659   3.774   5.739   9.305
   694G12  C02812660   3.861   5.985   9.474
   694G12  C02912661   3.990   6.015   9.427
   694G12  H01012662   4.039   5.982   9.337
   694G12  C02T12663   4.073   6.105   9.502
   694G12  H01O12664   4.170   6.124   9.459
   694G12  C02S12665   4.036   6.130   9.634
   694G12  O00J12666   4.114   6.207   9.713
   694G12  H01P12667   4.067   6.220   9.794
   694G12  C02R12668   3.907   6.096   9.678
   694G12  O00I12669   3.888   6.141   9.807
   694G12  C02Q12670   3.767   6.121   9.875
   694G12  H01N12671   3.790   6.171   9.970
   694G12  H01R12672   3.752   6.015   9.897
   694G12  H01Q12673   3.685   6.165   9.818
   694G12  C02A12674   3.817   6.024   9.598
   694G12  H01112675   3.720   5.985   9.625
   694G12  C00C12676   3.665   5.913   9.057
   694G12  H01212677   3.672   6.015   9.093
   694G12  C00B12678   3.710   5.880   8.928
   694G12  C00A12679   3.770   5.968   8.827
   694G12  C00912680   3.761   6.113   8.816
   694G12  C00812681   3.699   6.216   8.889
   694G12  H01312682   3.681   6.205   8.995
   694G12  C00712683   3.661   6.334   8.811
   694G12  H01412684   3.614   6.421   8.854
   694G12  C00612685   3.677   6.348   8.673
   694G12  C00512686   3.742   6.246   8.606
   694G12  C00412687   3.742   6.228   8.469
   694G12  C00312688   3.793   6.105   8.409
   694G12  C00212689   3.780   6.099   8.267
   694G12  C00112690   3.807   6.001   8.164
   694G12  C00M12691   3.774   5.857   8.171
   694G12  C00L12692   3.792   5.790   8.295
   694G12  C00R12693   3.722   5.668   8.331
   694G12  C00Q12694   3.642   5.573   8.261
   694G12  C00V12695   3.601   5.465   8.346
   694G12  C00U12696   3.610   5.462   8.487
   694G12  C00T12697   3.663   5.571   8.553
   694G12  C01612698   3.667   5.590   8.688
   694G12  C01512699   3.593   5.502   8.765
   694G12  C01012700   3.546   5.385   8.707
   694G12  C01112701   3.468   5.295   8.792
   694G12  H00512702   3.433   5.199   8.758
   694G12  C01212703   3.450   5.328   8.928
   694G12  C01712704   3.384   5.234   9.018
   694G12  O00212705   3.455   5.200   9.128
   694G12  H00412706   3.396   5.138   9.169
   694G12  C01812707   3.267   5.176   8.992
   694G12  O00112708   3.189   5.217   8.889
   694G12  H00312709   3.227   5.274   8.823
   694G12  C01912710   3.211   5.071   9.090
   694G12  H00212711   3.123   5.121   9.130
   694G12  H00112712   3.185   4.989   9.023
   694G12  O00012713   3.296   5.011   9.191
   694G12  C01A12714   3.377   4.903   9.168
   694G12  C02K12715   3.404   4.817   9.281
   694G12  O00G12716   3.319   4.839   9.392
   694G12  C02M12717   3.340   4.758   9.512
   694G12  H01G12718   3.254   4.788   9.572
   694G12  H01F12719   3.435   4.786   9.558
   694G12  H01E12720   3.343   4.650   9.500
   694G12  C02J12721   3.507   4.723   9.269
   694G12  H01H12722   3.531   4.665   9.357
   694G12  C02I12723   3.579   4.709   9.147
   694G12  C02N12724   3.671   4.599   9.129
   694G12  H01M12725   3.653   4.493   9.141
   694G12  C02O12726   3.803   4.633   9.115
   694G12  H01L12727   3.830   4.738   9.119
   694G12  C02P12728   3.922   4.543   9.115
   694G12  H01K12729   3.890   4.440   9.133
   694G12  H01J12730   3.979   4.552   9.022
   694G12  O00H12731   4.003   4.579   9.223
   694G12  H01I12732   3.964   4.567   9.309
   694G12  C02H12733   3.538   4.784   9.037
   694G12  H01C12734   3.588   4.766   8.943
   694G12  C02L12735   3.441   4.887   9.045
   694G12  H01D12736   3.423   4.944   8.956
   694G12  C01312737   3.504   5.445   8.983
   694G12  H00012738   3.467   5.469   9.082
   694G12  C01412739   3.590   5.526   8.906
   694G12  C00F12740   3.636   5.648   8.959
   694G12  C00H12741   3.719   5.710   8.743
   694G12  C00I12742   3.788   5.799   8.658
   694G12  C00J12743   3.801   5.762   8.523
   694G12  C00Z12744   3.554   5.366   8.567
   694G12  C00Y12745   3.497   5.254   8.499
   694G12  H00612746   3.436   5.182   8.550
   694G12  C00X12747   3.498   5.245   8.357
   694G12  O00312748   3.441   5.145   8.289
   694G12  C01B12749   3.485   5.015   8.322
   694G12  H00912750   3.481   4.981   8.426
   694G12  H00812751   3.590   5.010   8.295
   694G12  H00712752   3.428   4.941   8.266
   694G12  C00W12753   3.543   5.355   8.279
   694G12  O00412754   3.524   5.343   8.141
   694G12  C01C12755   3.534   5.455   8.066
   694G12  H00A12756   3.535   5.449   7.958
   694G12  C00P12757   3.591   5.580   8.130
   694G12  C00O12758   3.593   5.705   8.056
   694G12  C01D12759   3.479   5.727   7.976
   694G12  H00S12760   3.411   5.647   7.952
   694G12  C01E12761   3.448   5.854   7.916
   694G12  O00812762   3.323   5.886   7.859
   694G12  C01V12763   3.232   5.793   7.860
   694G12  C01Z12764   3.118   5.815   7.956
   694G12  H00R12765   3.057   5.897   7.918
   694G12  H00Q12766   3.056   5.726   7.956
   694G12  O00912767   3.173   5.847   8.076
   694G12  H00P12768   3.253   5.798   8.079
   694G12  C01W12769   3.244   5.689   7.775
   694G12  H00O12770   3.337   5.688   7.720
   694G12  C01X12771   3.146   5.573   7.743
   694G12  H00N12772   3.051   5.614   7.776
   694G12  H00M12773   3.149   5.562   7.634
   694G12  C01Y12774   3.191   5.440   7.805
   694G12  C02D12775   3.212   5.318   7.738
   694G12  H01912776   3.219   5.317   7.630
   694G12  C02C12777   3.253   5.200   7.808
   694G12  H01A12778   3.279   5.110   7.755
   694G12  C02B12779   3.264   5.210   7.942
   694G12  O00E12780   3.322   5.109   8.018
   694G12  H01B12781   3.356   5.144   8.099
   694G12  C02F12782   3.212   5.315   8.015
   694G12  O00F12783   3.219   5.307   8.153
   694G12  C02G12784   3.192   5.414   8.237
   694G12  H01712785   3.189   5.374   8.339
   694G12  H01612786   3.097   5.461   8.211
   694G12  H01512787   3.269   5.489   8.218
   694G12  C02E12788   3.187   5.434   7.945
   694G12  H01812789   3.160   5.523   7.998
   694G12  C01F12790   3.535   5.964   7.946
   694G12  C01G12791   3.492   6.096   7.926
   694G12  H00L12792   3.395   6.101   7.880
   694G12  C01H12793   3.559   6.198   7.998
   694G12  H00B12794   3.511   6.290   8.026
   694G12  C01I12795   3.681   6.165   8.065
   694G12  C01U12796   3.659   5.942   8.008
   694G12  C00S12797   3.728   5.657   8.472
   694G12  C00K12798   3.818   5.858   8.422
   694G12  C00N12799   3.681   5.820   8.074
   694G12  C00012800   3.742   6.046   8.045
   694G12  C01J12801   3.715   6.212   8.198
   694G12  C01K12802   3.698   6.345   8.249
   694G12  C01P12803   3.678   6.469   8.183
   694G12  C01Q12804   3.689   6.478   8.041
   694G12  H00G12805   3.760   6.422   7.982
   694G12  C01R12806   3.620   6.577   7.976
   694G12  H00F12807   3.537   6.628   8.023
   694G12  C01S12808   3.640   6.605   7.828
   694G12  H00E12809   3.664   6.711   7.824
   694G12  H00D12810   3.729   6.557   7.788
   694G12  O00512811   3.524   6.610   7.747
   694G12  H00C12812   3.498   6.701   7.742
   694G12  C01O12813   3.660   6.585   8.264
   694G12  H00H12814   3.659   6.685   8.221
   694G12  C01N12815   3.651   6.576   8.404
   694G12  O00612816   3.650   6.687   8.488
   694G12  C01T12817   3.774   6.752   8.491
   694G12  H00K12818   3.785   6.799   8.394
   694G12  H00J12819   3.864   6.693   8.500
   694G12  H00I12820   3.786   6.821   8.575
   694G12  C01M12821   3.667   6.454   8.465
   694G12  C02012822   3.835   5.989   8.479
   694G12  C02112823   3.846   6.017   8.620
   694G12  C01L12824   3.703   6.338   8.391
   694G12  O00712825   3.647   6.457   8.602
   694G12  C02212826   3.794   6.133   8.678
   694G12  C02312827   3.838   5.912   8.716
   694G12  C00G12828   3.684   5.748   8.875
   694G12  C00E12829   3.627   5.684   9.096
   694G12  O00A12830   3.606   5.598   9.201
   694G12  C02412831   3.697   5.498   9.217
   694G12  H00V12832   3.789   5.544   9.253
   694G12  H00U12833   3.721   5.447   9.123
   694G12  H00T12834   3.663   5.427   9.292
   704G12  C00D12835   2.338   6.522   9.554
   704G12  O00B12836   2.468   6.526   9.519
   704G12  C02512837   2.506   6.521   9.385
   704G12  C02612838   2.542   6.382   9.327
   704G12  H00Y12839   2.555   6.374   9.220
   704G12  H00X12840   2.464   6.320   9.372
   704G12  O00C12841   2.671   6.337   9.377
   704G12  H00W12842   2.652   6.282   9.452
   704G12  C02712843   2.519   6.644   9.321
   704G12  O00D12844   2.498   6.757   9.394
   704G12  H00Z12845   2.471   6.718   9.476
   704G12  C02812846   2.586   6.662   9.197
   704G12  C02912847   2.543   6.762   9.110
   704G12  H01012848   2.462   6.825   9.143
   704G12  C02T12849   2.592   6.775   8.979
   704G12  H01O12850   2.542   6.835   8.904
   704G12  C02S12851   2.700   6.697   8.940
   704G12  O00J12852   2.745   6.690   8.812
   704G12  H01P12853   2.791   6.609   8.798
   704G12  C02R12854   2.760   6.606   9.030
   704G12  O00I12855   2.868   6.533   8.987
   704G12  C02Q12856   2.916   6.435   9.076
   704G12  H01N12857   2.948   6.471   9.174
   704G12  H01R12858   2.990   6.372   9.028
   704G12  H01Q12859   2.836   6.362   9.091
   704G12  C02A12860   2.703   6.592   9.162
   704G12  H01112861   2.750   6.521   9.229
   704G12  C00C12862   2.236   6.457   9.478
   704G12  H01212863   2.260   6.398   9.391
   704G12  C00B12864   2.098   6.459   9.520
   704G12  C00A12865   1.987   6.400   9.454
   704G12  C00912866   1.962   6.363   9.320
   704G12  C00812867   2.045   6.378   9.204
   704G12  H01312868   2.147   6.410   9.218
   704G12  C00712869   1.986   6.385   9.073
   704G12  H01412870   2.050   6.402   8.988
   704G12  C00612871   1.846   6.392   9.061
   704G12  C00512872   1.770   6.392   9.175
   704G12  C00412873   1.642   6.436   9.178
   704G12  C00312874   1.572   6.456   9.302
   704G12  C00212875   1.436   6.506   9.293
   704G12  C00112876   1.340   6.554   9.391
   704G12  C00M12877   1.373   6.631   9.514
   704G12  C00L12878   1.494   6.609   9.581
   704G12  C00R12879   1.547   6.702   9.676
   704G12  C00Q12880   1.508   6.828   9.729
   704G12  C00V12881   1.599   6.878   9.823
   704G12  C00U12882   1.735   6.838   9.836
   704G12  C00T12883   1.772   6.714   9.779
   704G12  C01612884   1.899   6.669   9.763
   704G12  C01512885   1.997   6.741   9.832
   704G12  C01012886   1.965   6.847   9.918
   704G12  C01112887   2.066   6.901   9.994
   704G12  H00512888   2.039   6.980  10.062
   704G12  C01212889   2.202   6.850   9.992
   704G12  C01712890   2.297   6.909  10.083
   704G12  O00212891   2.320   7.042  10.084
   704G12  H00412892   2.407   7.064  10.113
   704G12  C01812893   2.357   6.823  10.169
   704G12  O00112894   2.339   6.689  10.161
   704G12  H00312895   2.280   6.678  10.088
   704G12  C01912896   2.456   6.877  10.269
   704G12  H00212897   2.396   6.932  10.341
   704G12  H00112898   2.505   6.793  10.317
   704G12  O00012899   2.550   6.951  10.198
   704G12  C01A12900   2.664   6.895  10.155
   704G12  C02K12901   2.757   6.999  10.116
   704G12  O00G12902   2.719   7.133  10.134
   704G12  C02M12903   2.817   7.236  10.117
   704G12  H01G12904   2.835   7.257  10.011
   704G12  H01F12905   2.907   7.207  10.171
   704G12  H01E12906   2.778   7.330  10.156
   704G12  C02J12907   2.877   6.959  10.054
   704G12  H01H12908   2.947   7.031  10.014
   704G12  C02I12909   2.905   6.824  10.035
   704G12  C02N12910   3.026   6.776   9.975
   704G12  H01M12911   3.088   6.707  10.030
   704G12  C02O12912   3.079   6.828   9.862
   704G12  H01L12913   3.028   6.912   9.817
   704G12  C02P12914   3.216   6.782   9.805
   704G12  H01K12915   3.259   6.872   9.762
   704G12  H01J12916   3.285   6.761   9.886
   704G12  O00H12917   3.184   6.677   9.725
   704G12  H01I12918   3.238   6.669   9.648
   704G12  C02H12919   2.815   6.721  10.082
   704G12  H01C12920   2.834   6.617  10.059
   704G12  C02L12921   2.694   6.757  10.146
   704G12  H01D12922   2.628   6.676  10.172
   704G12  C01312923   2.227   6.746   9.903
   704G12  H00012924   2.329   6.711   9.904
   704G12  C01412925   2.129   6.699   9.809
   704G12  C00F12926   2.167   6.611   9.703
   704G12  C00H12927   1.928   6.571   9.667
   704G12  C00I12928   1.826   6.499   9.607
   704G12  C00J12929   1.695   6.535   9.635
   704G12  C00Z12930   1.831   6.896   9.922
   704G12  C00Y12931   1.784   7.001  10.003
   704G12  H00612932   1.847   7.057  10.071
   704G12  C00X12933   1.650   7.050   9.992
   704G12  O00312934   1.607   7.170  10.050
   704G12  C01B12935   1.702   7.265  10.099
   704G12  H00912936   1.658   7.364  10.092
   704G12  H00812937   1.797   7.259  10.046
   704G12  H00712938   1.715   7.235  10.204
   704G12  C00W12939   1.560   6.992   9.903
   704G12  O00412940   1.434   7.040   9.893
   704G12  C01C12941   1.370   7.031   9.772
   704G12  H00A12942   1.288   7.096   9.745
   704G12  C00P12943   1.401   6.913   9.689
   704G12  C00O12944   1.333   6.896   9.561
   704G12  C01D12945   1.285   7.012   9.492
   704G12  H00S12946   1.293   7.111   9.536
   704G12  C01E12947   1.241   7.013   9.359
   704G12  O00812948   1.203   7.126   9.283
   704G12  C01V12949   1.165   7.233   9.359
   704G12  C01Z12950   1.263   7.342   9.372
   704G12  H00R12951   1.214   7.440   9.377
   704G12  H00Q12952   1.322   7.336   9.464
   704G12  O00912953   1.362   7.342   9.266
   704G12  H00P12954   1.321   7.320   9.184
   704G12  C01W12955   1.042   7.223   9.411
   704G12  H00O12956   0.994   7.130   9.386
   704G12  C01X12957   0.965   7.319   9.494
   704G12  H00N12958   0.980   7.425   9.472
   704G12  H00M12959   0.864   7.291   9.468
   704G12  C01Y12960   1.003   7.291   9.638
   704G12  C02D12961   1.036   7.398   9.720
   704G12  H01912962   1.021   7.499   9.686
   704G12  C02C12963   1.064   7.379   9.854
   704G12  H01A12964   1.063   7.472   9.908
   704G12  C02B12965   1.056   7.252   9.908
   704G12  O00E12966   1.056   7.224  10.043
   704G12  H01B12967   1.029   7.135  10.059
   704G12  C02F12968   1.031   7.141   9.829
   704G12  O00F12969   1.039   7.022   9.897
   704G12  C02G12970   1.000   6.896   9.839
   704G12  H01712971   0.913   6.911   9.775
   704G12  H01612972   0.985   6.822   9.917
   704G12  H01512973   1.082   6.877   9.769
   704G12  C02E12974   1.002   7.161   9.695
   704G12  H01812975   0.975   7.069   9.644
   704G12  C01F12976   1.237   6.887   9.297
   704G12  C01G12977   1.230   6.875   9.156
   704G12  H00L12978   1.236   6.969   9.103
   704G12  C01H12979   1.261   6.754   9.096
   704G12  H00B12980   1.293   6.760   8.993
   704G12  C01I12981   1.287   6.636   9.178
   704G12  C01U12982   1.254   6.763   9.371
   704G12  C00S12983   1.666   6.644   9.721
   704G12  C00K12984   1.595   6.518   9.544
   704G12  C00N12985   1.320   6.765   9.502
   704G12  C00012986   1.253   6.634   9.314
   704G12  C01J12987   1.386   6.536   9.164
   704G12  C01K12988   1.446   6.501   9.038
   704G12  C01P12989   1.399   6.515   8.903
   704G12  C01Q12990   1.263   6.553   8.883
   704G12  H00G12991   1.173   6.531   8.938
   704G12  C01R12992   1.236   6.622   8.774
   704G12  H00F12993   1.307   6.642   8.695
   704G12  C01S12994   1.095   6.668   8.735
   704G12  H00E12995   1.076   6.632   8.634
   704G12  H00D12996   1.012   6.624   8.790
   704G12  O00512997   1.089   6.804   8.733
   704G12  H00C12998   0.996   6.820   8.731
   704G12  C01O12999   1.472   6.479   8.793
   704G12  H00H13000   1.428   6.472   8.695
   704G12  C01N13001   1.606   6.455   8.803
   704G12  O00613002   1.672   6.438   8.686
   704G12  C01T13003   1.808   6.396   8.673
   704G12  H00K13004   1.817   6.382   8.566
   704G12  H00J13005   1.827   6.304   8.729
   704G12  H00I13006   1.877   6.469   8.714
   704G12  C01M13007   1.659   6.443   8.931
   704G12  C02013008   1.632   6.441   9.428
   704G12  C02113009   1.756   6.376   9.419
   704G12  C01L13010   1.578   6.456   9.052
   704G12  O00713011   1.790   6.410   8.940
   704G12  C02213012   1.822   6.355   9.301
   704G12  C02313013   1.863   6.402   9.513
   704G12  C00G13014   2.063   6.549   9.629
   704G12  C00E13015   2.304   6.592   9.667
   704G12  O00A13016   2.413   6.652   9.725
   704G12  C02413017   2.498   6.558   9.792
   704G12  H00V13018   2.453   6.478   9.851
   704G12  H00U13019   2.554   6.613   9.868
   704G12  H00T13020   2.581   6.528   9.729
   714G12  C00D13021   3.241   3.855   6.758
   714G12  O00B13022   3.292   3.940   6.664
   714G12  C02513023   3.415   3.997   6.698
   714G12  C02613024   3.533   3.906   6.663
   714G12  H00Y13025   3.517   3.806   6.703
   714G12  H00X13026   3.624   3.934   6.716
   714G12  O00C13027   3.542   3.906   6.528
   714G12  H00W13028   3.455   3.905   6.490
   714G12  C02713029   3.414   4.114   6.762
   714G12  O00D13030   3.299   4.175   6.791
   714G12  H00Z13031   3.246   4.100   6.769
   714G12  C02813032   3.541   4.166   6.811
   714G12  C02913033   3.550   4.207   6.953
   714G12  H01013034   3.471   4.191   7.024
   714G12  C02T13035   3.665   4.262   7.006
   714G12  H01O13036   3.669   4.288   7.111
   714G12  C02S13037   3.777   4.278   6.930
   714G12  O00J13038   3.885   4.338   6.977
   714G12  H01P13039   3.958   4.339   6.918
   714G12  C02R13040   3.773   4.251   6.792
   714G12  O00I13041   3.879   4.271   6.710
   714G12  C02Q13042   3.894   4.223   6.580
   714G12  H01N13043   3.865   4.302   6.511
   714G12  H01R13044   3.835   4.136   6.552
   714G12  H01Q13045   3.999   4.203   6.559
   714G12  C02A13046   3.659   4.195   6.737
   714G12  H01113047   3.661   4.173   6.632
   714G12  C00C13048   3.259   3.879   6.898
   714G12  H01213049   3.313   3.961   6.941
   714G12  C00B13050   3.184   3.801   6.991
   714G12  C00A13051   3.180   3.812   7.132
   714G12  C00913052   3.287   3.849   7.225
   714G12  C00813053   3.423   3.887   7.207
   714G12  H01313054   3.469   3.917   7.114
   714G12  C00713055   3.508   3.881   7.319
   714G12  H01413056   3.605   3.930   7.318
   714G12  C00613057   3.465   3.817   7.436
   714G12  C00513058   3.327   3.774   7.445
   714G12  C00413059   3.281   3.691   7.549
   714G12  C00313060   3.154   3.620   7.529
   714G12  C00213061   3.110   3.540   7.639
   714G12  C00113062   2.992   3.459   7.662
   714G12  C00M13063   2.951   3.369   7.551
   714G12  C00L13064   2.930   3.416   7.421
   714G12  C00R13065   2.908   3.337   7.306
   714G12  C00Q13066   2.899   3.193   7.288
   714G12  C00V13067   2.890   3.158   7.150
   714G12  C00U13068   2.917   3.245   7.045
   714G12  C00T13069   2.933   3.380   7.066
   714G12  C01613070   2.995   3.473   6.978
   714G12  C01513071   3.038   3.425   6.858
   714G12  C01013072   3.007   3.291   6.819
   714G12  C01113073   3.045   3.250   6.686
   714G12  H00513074   3.021   3.154   6.644
   714G12  C01213075   3.114   3.334   6.600
   714G12  C01713076   3.150   3.284   6.467
   714G12  O00213077   3.117   3.363   6.362
   714G12  H00413078   3.166   3.326   6.290
   714G12  C01813079   3.217   3.168   6.463
   714G12  O00113080   3.256   3.110   6.584
   714G12  H00313081   3.244   3.187   6.637
   714G12  C01913082   3.272   3.103   6.338
   714G12  H00213083   3.379   3.102   6.359
   714G12  H00113084   3.237   3.000   6.338
   714G12  O00013085   3.232   3.178   6.223
   714G12  C01A13086   3.324   3.181   6.122
   714G12  C02K13087   3.299   3.110   6.007
   714G12  O00G13088   3.197   3.023   5.984
   714G12  C02M13089   3.069   3.067   6.022
   714G12  H01G13090   2.996   3.040   5.946
   714G12  H01F13091   3.067   3.174   6.044
   714G12  H01E13092   3.040   3.021   6.117
   714G12  C02J13093   3.403   3.106   5.912
   714G12  H01H13094   3.395   3.050   5.820
   714G12  C02I13095   3.523   3.170   5.924
   714G12  C02N13096   3.630   3.164   5.826
   714G12  H01M13097   3.728   3.206   5.847
   714G12  C02O13098   3.607   3.116   5.699
   714G12  H01L13099   3.507   3.095   5.665
   714G12  C02P13100   3.710   3.097   5.587
   714G12  H01K13101   3.783   3.020   5.612
   714G12  H01J13102   3.675   3.065   5.489
   714G12  O00H13103   3.772   3.216   5.563
   714G12  H01I13104   3.713   3.288   5.581
   714G12  C02H13105   3.548   3.240   6.042
   714G12  H01C13106   3.637   3.299   6.056
   714G12  C02L13107   3.448   3.249   6.138
   714G12  H01D13108   3.469   3.306   6.228
   714G12  C01313109   3.142   3.464   6.637
   714G12  H00013110   3.198   3.521   6.565
   714G12  C01413111   3.099   3.513   6.766
   714G12  C00F13112   3.131   3.642   6.807
   714G12  C00H13113   3.039   3.600   7.024
   714G12  C00I13114   3.016   3.636   7.158
   714G12  C00J13115   2.948   3.546   7.241
   714G12  C00Z13116   2.951   3.203   6.913
   714G12  C00Y13117   2.930   3.066   6.883
   714G12  H00613118   2.954   3.017   6.790
   714G12  C00X13119   2.880   2.983   6.982
   714G12  O00313120   2.866   2.857   6.931
   714G12  C01B13121   2.791   2.755   6.998
   714G12  H00913122   2.857   2.726   7.080
   714G12  H00813123   2.778   2.668   6.934
   714G12  H00713124   2.697   2.797   7.033
   714G12  C00W13125   2.864   3.027   7.116
   714G12  O00413126   2.839   2.931   7.213
   714G12  C01C13127   2.903   2.952   7.333
   714G12  H00A13128   2.955   2.865   7.371
   714G12  C00P13129   2.922   3.087   7.381
   714G12  C00O13130   2.962   3.102   7.517
   714G12  C01D13131   3.006   2.994   7.592
   714G12  H00S13132   3.002   2.893   7.552
   714G12  C01E13133   3.071   3.001   7.721
   714G12  O00813134   3.125   2.892   7.786
   714G12  C01V13135   3.075   2.763   7.763
   714G12  C01Z13136   3.193   2.665   7.770
   714G12  H00R13137   3.260   2.685   7.854
   714G12  H00Q13138   3.167   2.559   7.777
   714G12  O00913139   3.257   2.673   7.639
   714G12  H00P13140   3.283   2.763   7.647
   714G12  C01W13141   2.945   2.727   7.742
   714G12  H00O13142   2.874   2.807   7.744
   714G12  C01X13143   2.895   2.588   7.718
   714G12  H00N13144   2.973   2.514   7.734
   714G12  H00M13145   2.807   2.559   7.776
   714G12  C01Y13146   2.851   2.571   7.579
   714G12  C02D13147   2.949   2.573   7.476
   714G12  H01913148   3.047   2.612   7.499
   714G12  C02C13149   2.917   2.540   7.341
   714G12  H01A13150   2.993   2.546   7.264
   714G12  C02B13151   2.776   2.523   7.312
   714G12  O00E13152   2.742   2.514   7.180
   714G12  H01B13153   2.647   2.510   7.178
   714G12  C02F13154   2.671   2.519   7.412
   714G12  O00F13155   2.539   2.497   7.374
   714G12  C02G13156   2.447   2.502   7.482
   714G12  H01713157   2.451   2.404   7.530
   714G12  H01613158   2.345   2.515   7.444
   714G12  H01513159   2.465   2.586   7.549
   714G12  C02E13160   2.716   2.556   7.544
   714G12  H01813161   2.647   2.554   7.627
   714G12  C01F13162   3.094   3.130   7.776
   714G12  C01G13163   3.191   3.166   7.873
   714G12  H00L13164   3.254   3.092   7.920
   714G12  C01H13165   3.231   3.304   7.896
   714G12  H00B13166   3.329   3.315   7.940
   714G12  C01I13167   3.158   3.405   7.827
   714G12  C01U13168   3.019   3.239   7.721
   714G12  C00S13169   2.903   3.424   7.198
   714G12  C00K13170   2.978   3.537   7.377
   714G12  C00N13171   2.969   3.228   7.588
   714G12  C00013172   3.036   3.374   7.767
   714G12  C01J13173   3.200   3.521   7.750
   714G12  C01K13174   3.322   3.592   7.773
   714G12  C01P13175   3.408   3.606   7.889
   714G12  C01Q13176   3.355   3.569   8.013
   714G12  H00G13177   3.248   3.563   8.025
   714G12  C01R13178   3.430   3.514   8.103
   714G12  H00F13179   3.538   3.510   8.091
   714G12  C01S13180   3.388   3.473   8.240
   714G12  H00E13181   3.449   3.523   8.315
   714G12  H00D13182   3.283   3.498   8.255
   714G12  O00513183   3.409   3.333   8.262
   714G12  H00C13184   3.494   3.313   8.298
   714G12  C01O13185   3.535   3.673   7.886
   714G12  H00H13186   3.602   3.693   7.967
   714G12  C01N13187   3.586   3.717   7.764
   714G12  O00613188   3.705   3.786   7.778
   714G12  C01T13189   3.798   3.780   7.670
   714G12  H00K13190   3.777   3.849   7.589
   714G12  H00J13191   3.843   3.688   7.633
   714G12  H00I13192   3.878   3.849   7.698
   714G12  C01M13193   3.499   3.726   7.655
   714G12  C02013194   3.068   3.639   7.423
   714G12  C02113195   3.110   3.752   7.348
   714G12  C01L13196   3.367   3.667   7.660
   714G12  O00713197   3.544   3.791   7.542
   714G12  C02213198   3.239   3.797   7.348
   714G12  C02313199   3.077   3.755   7.203
   714G12  C00G13200   3.119   3.684   6.942
   714G12  C00E13201   3.173   3.739   6.712
   714G12  O00A13202   3.143   3.730   6.580
   714G12  C02413203   3.011   3.747   6.539
   714G12  H00V13204   2.981   3.850   6.559
   714G12  H00U13205   2.947   3.676   6.593
   714G12  H00T13206   3.006   3.739   6.430
   724G12  C00D13207   1.694   6.329   8.126
   724G12  O00B13208   1.707   6.198   8.165
   724G12  C02513209   1.597   6.139   8.219
   724G12  C02613210   1.498   6.092   8.110
   724G12  H00Y13211   1.463   6.170   8.042
   724G12  H00X13212   1.401   6.060   8.150
   724G12  O00C13213   1.559   5.978   8.054
   724G12  H00W13214   1.643   5.989   8.011
   724G12  C02713215   1.570   6.128   8.352
   724G12  O00D13216   1.640   6.189   8.450
   724G12  H00Z13217   1.704   6.245   8.410
   724G12  C02813218   1.455   6.054   8.401
   724G12  C02913219   1.410   5.925   8.349
   724G12  H01013220   1.474   5.877   8.276
   724G12  C02T13221   1.291   5.865   8.395
   724G12  H01O13222   1.265   5.769   8.354
   724G12  C02S13223   1.210   5.940   8.483
   724G12  O00J13224   1.080   5.899   8.496
   724G12  H01P13225   1.059   5.946   8.576
   724G12  C02R13226   1.249   6.059   8.537
   724G12  O00I13227   1.166   6.116   8.628
   724G12  C02Q13228   1.191   6.248   8.682
   724G12  H01N13229   1.192   6.322   8.601
   724G12  H01R13230   1.288   6.251   8.731
   724G12  H01Q13231   1.112   6.281   8.750
   724G12  C02A13232   1.374   6.114   8.501
   724G12  H01113233   1.405   6.206   8.547
   724G12  C00C13234   1.640   6.365   8.004
   724G12  H01213235   1.593   6.289   7.943
   724G12  C00B13236   1.622   6.500   7.970
   724G12  C00A13237   1.556   6.553   7.852
   724G12  C00913238   1.569   6.495   7.718
   724G12  C00813239   1.638   6.378   7.676
   724G12  H01313240   1.666   6.295   7.738
   724G12  C00713241   1.671   6.374   7.540
   724G12  H01413242   1.711   6.277   7.515
   724G12  C00613243   1.666   6.488   7.453
   724G12  C00513244   1.614   6.602   7.510
   724G12  C00413245   1.620   6.726   7.442
   724G12  C00313246   1.604   6.843   7.519
   724G12  C00213247   1.631   6.968   7.445
   724G12  C00113248   1.657   7.102   7.484
   724G12  C00M13249   1.732   7.144   7.603
   724G12  C00L13250   1.706   7.074   7.720
   724G12  C00R13251   1.774   7.091   7.845
   724G12  C00Q13252   1.891   7.161   7.887
   724G12  C00V13253   1.928   7.139   8.024
   724G12  C00U13254   1.883   7.033   8.101
   724G12  C00T13255   1.782   6.958   8.055
   724G12  C01613256   1.746   6.833   8.105
   724G12  C01513257   1.794   6.799   8.225
   724G12  C01013258   1.878   6.887   8.296
   724G12  C01113259   1.916   6.852   8.428
   724G12  H00513260   1.978   6.926   8.477
   724G12  C01213261   1.865   6.743   8.490
   724G12  C01713262   1.897   6.737   8.632
   724G12  O00213263   1.805   6.757   8.727
   724G12  H00413264   1.832   6.734   8.815
   724G12  C01813265   2.022   6.704   8.666
   724G12  O00113266   2.121   6.694   8.577
   724G12  H00313267   2.098   6.705   8.486
   724G12  C01913268   2.076   6.703   8.817
   724G12  H00213269   2.143   6.617   8.829
   724G12  H00113270   2.126   6.798   8.833
   724G12  O00013271   1.980   6.674   8.913
   724G12  C01A13272   2.016   6.696   9.046
   724G12  C02K13273   1.914   6.738   9.138
   724G12  O00G13274   1.783   6.749   9.099
   724G12  C02M13275   1.691   6.776   9.203
   724G12  H01G13276   1.595   6.769   9.153
   724G12  H01F13277   1.709   6.877   9.240
   724G12  H01E13278   1.696   6.700   9.281
   724G12  C02J13279   1.951   6.776   9.269
   724G12  H01H13280   1.878   6.810   9.341
   724G12  C02I13281   2.088   6.763   9.311
   724G12  C02N13282   2.125   6.808   9.442
   724G12  H01M13283   2.064   6.788   9.528
   724G12  C02O13284   2.237   6.881   9.454
   724G12  H01L13285   2.300   6.909   9.372
   724G12  C02P13286   2.268   6.950   9.588
   724G12  H01K13287   2.186   6.946   9.659
   724G12  H01J13288   2.350   6.891   9.629
   724G12  O00H13289   2.313   7.078   9.567
   724G12  H01I13290   2.257   7.140   9.611
   724G12  C02H13291   2.187   6.717   9.220
   724G12  H01C13292   2.288   6.708   9.256
   724G12  C02L13293   2.151   6.691   9.088
   724G12  H01D13294   2.233   6.664   9.023
   724G12  C01313295   1.779   6.652   8.421
   724G12  H00013296   1.725   6.576   8.474
   724G12  C01413297   1.765   6.672   8.277
   724G12  C00F13298   1.715   6.573   8.187
   724G12  C00H13299   1.670   6.743   8.027
   724G12  C00I13300   1.605   6.784   7.908
   724G12  C00J13301   1.636   6.910   7.867
   724G12  C00Z13302   1.931   6.997   8.231
   724G12  C00Y13303   2.020   7.090   8.293
   724G12  H00613304   2.036   7.086   8.400
   724G12  C00X13305   2.072   7.197   8.214
   724G12  O00313306   2.152   7.300   8.264
   724G12  C01B13307   2.209   7.267   8.391
   724G12  H00913308   2.138   7.274   8.474
   724G12  H00813309   2.280   7.349   8.401
   724G12  H00713310   2.262   7.172   8.389
   724G12  C00W13311   2.034   7.213   8.085
   724G12  O00413312   2.091   7.312   8.009
   724G12  C01C13313   2.098   7.289   7.875
   724G12  H00A13314   2.193   7.244   7.850
   724G12  C00P13315   1.980   7.241   7.807
   724G12  C00O13316   1.966   7.244   7.660
   724G12  C01D13317   2.080   7.290   7.589
   724G12  H00S13318   2.160   7.343   7.639
   724G12  C01E13319   2.091   7.267   7.452
   724G12  O00813320   2.208   7.289   7.378
   724G12  C01V13321   2.323   7.292   7.454
   724G12  C01Z13322   2.410   7.422   7.460
   724G12  H00R13323   2.406   7.466   7.560
   724G12  H00Q13324   2.518   7.414   7.455
   724G12  O00913325   2.360   7.504   7.359
   724G12  H00P13326   2.356   7.452   7.280
   724G12  C01W13327   2.360   7.175   7.507
   724G12  H00O13328   2.303   7.085   7.493
   724G12  C01X13329   2.482   7.154   7.596
   724G12  H00N13330   2.537   7.063   7.570
   724G12  H00M13331   2.552   7.237   7.583
   724G12  C01Y13332   2.432   7.143   7.740
   724G12  C02D13333   2.367   7.030   7.784
   724G12  H01913334   2.339   6.947   7.722
   724G12  C02C13335   2.349   7.014   7.923
   724G12  H01A13336   2.310   6.916   7.948
   724G12  C02B13337   2.369   7.122   8.009
   724G12  O00E13338   2.343   7.113   8.140
   724G12  H01B13339   2.387   7.183   8.186
   724G12  C02F13340   2.424   7.242   7.966
   724G12  O00F13341   2.445   7.337   8.059
   724G12  C02G13342   2.529   7.445   8.018
   724G12  H01713343   2.627   7.408   7.988
   724G12  H01613344   2.533   7.523   8.094
   724G12  H01513345   2.484   7.491   7.930
   724G12  C02E13346   2.467   7.250   7.830
   724G12  H01813347   2.517   7.336   7.789
   724G12  C01F13348   1.980   7.214   7.377
   724G12  C01G13349   1.994   7.161   7.246
   724G12  H00L13350   2.089   7.155   7.196
   724G12  C01H13351   1.878   7.091   7.188
   724G12  H00B13352   1.899   7.028   7.102
   724G12  C01I13353   1.760   7.070   7.267
   724G12  C01U13354   1.852   7.208   7.435
   724G12  C00S13355   1.720   6.995   7.932
   724G12  C00K13356   1.625   6.954   7.734
   724G12  C00N13357   1.856   7.202   7.575
   724G12  C00013358   1.736   7.159   7.378
   724G12  C01J13359   1.680   6.958   7.306
   724G12  C01K13360   1.682   6.839   7.225
   724G12  C01P13361   1.687   6.822   7.087
   724G12  C01Q13362   1.685   6.927   6.993
   724G12  H00G13363   1.754   6.920   6.910
   724G12  C01R13364   1.594   7.024   6.992
   724G12  H00F13365   1.524   7.015   7.074
   724G12  C01S13366   1.592   7.141   6.896
   724G12  H00E13367   1.675   7.204   6.931
   724G12  H00D13368   1.612   7.095   6.800
   724G12  O00513369   1.475   7.212   6.904
   724G12  H00C13370   1.456   7.215   6.996
   724G12  C01O13371   1.714   6.697   7.030
   724G12  H00H13372   1.736   6.676   6.927
   724G12  C01N13373   1.723   6.588   7.115
   724G12  O00613374   1.758   6.473   7.053
   724G12  C01T13375   1.866   6.399   7.111
   724G12  H00K13376   1.891   6.324   7.035
   724G12  H00J13377   1.842   6.332   7.194
   724G12  H00I13378   1.958   6.456   7.124
   724G12  C01M13379   1.696   6.602   7.252
   724G12  C02013380   1.572   6.849   7.654
   724G12  C02113381   1.521   6.727   7.698
   724G12  C01L13382   1.663   6.729   7.308
   724G12  O00713383   1.707   6.486   7.323
   724G12  C02213384   1.547   6.607   7.633
   724G12  C02313385   1.531   6.688   7.835
   724G12  C00G13386   1.665   6.604   8.059
   724G12  C00E13387   1.738   6.434   8.220
   724G12  O00A13388   1.797   6.389   8.331
   724G12  C02413389   1.939   6.393   8.331
   724G12  H00V13390   1.972   6.303   8.278
   724G12  H00U13391   1.989   6.386   8.428
   724G12  H00T13392   1.984   6.477   8.278
   734G12  C00D13393   4.664   3.958   3.293
   734G12  O00B13394   4.606   3.905   3.403
   734G12  C02513395   4.643   3.781   3.452
   734G12  C02613396   4.783   3.768   3.504
   734G12  H00Y13397   4.810   3.672   3.547
   734G12  H00X13398   4.783   3.852   3.574
   734G12  O00C13399   4.879   3.774   3.402
   734G12  H00W13400   4.947   3.837   3.420
   734G12  C02713401   4.549   3.682   3.448
   734G12  O00D13402   4.419   3.720   3.419
   734G12  H00Z13403   4.412   3.806   3.381
   734G12  C02813404   4.593   3.548   3.463
   734G12  C02913405   4.715   3.491   3.400
   734G12  H01013406   4.779   3.560   3.348
   734G12  C02T13407   4.752   3.356   3.412
   734G12  H01O13408   4.847   3.324   3.372
   734G12  C02S13409   4.664   3.268   3.470
   734G12  O00J13410   4.685   3.134   3.472
   734G12  H01P13411   4.615   3.092   3.520
   734G12  C02R13412   4.555   3.313   3.549
   734G12  O00I13413   4.470   3.220   3.607
   734G12  C02Q13414   4.342   3.247   3.663
   734G12  H01N13415   4.355   3.292   3.761
   734G12  H01R13416   4.286   3.153   3.662
   734G12  H01Q13417   4.292   3.311   3.590
   734G12  C02A13418   4.519   3.451   3.540
   734G12  H01113419   4.426   3.484   3.584
   734G12  C00C13420   4.653   3.876   3.183
   734G12  H01213421   4.594   3.787   3.196
   734G12  C00B13422   4.712   3.908   3.060
   734G12  C00A13423   4.708   3.829   2.935
   734G12  C00913424   4.681   3.686   2.920
   734G12  C00813425   4.637   3.586   3.012
   734G12  H01313426   4.599   3.609   3.110
   734G12  C00713427   4.660   3.450   2.970
   734G12  H01413428   4.629   3.371   3.038
   734G12  C00613429   4.731   3.415   2.854
   734G12  C00513430   4.780   3.517   2.777
   734G12  C00413431   4.886   3.497   2.683
   734G12  C00313432   4.946   3.615   2.629
   734G12  C00213433   5.070   3.588   2.554
   734G12  C00113434   5.164   3.670   2.484
   734G12  C00M13435   5.213   3.799   2.520
   734G12  C00L13436   5.131   3.898   2.574
   734G12  C00R13437   5.188   4.011   2.656
   734G12  C00Q13438   5.319   4.067   2.674
   734G12  C00V13439   5.327   4.173   2.768
   734G12  C00U13440   5.218   4.195   2.858
   734G12  C00T13441   5.100   4.126   2.849
   734G12  C01613442   5.000   4.124   2.943
   734G12  C01513443   5.013   4.206   3.055
   734G12  C01013444   5.125   4.291   3.064
   734G12  C01113445   5.120   4.390   3.165
   734G12  H00513446   5.208   4.452   3.175
   734G12  C01213447   5.009   4.421   3.242
   734G12  C01713448   4.999   4.543   3.328
   734G12  O00213449   4.925   4.534   3.443
   734G12  H00413450   4.891   4.621   3.449
   734G12  C01813451   5.053   4.661   3.285
   734G12  O00113452   5.120   4.669   3.165
   734G12  H00313453   5.088   4.602   3.106
   734G12  C01913454   5.058   4.787   3.368
   734G12  H00213455   5.118   4.761   3.455
   734G12  H00113456   5.111   4.871   3.323
   734G12  O00013457   4.932   4.833   3.427
   734G12  C01A13458   4.847   4.891   3.338
   734G12  C02K13459   4.711   4.903   3.390
   734G12  O00G13460   4.683   4.865   3.520
   734G12  C02M13461   4.549   4.862   3.559
   734G12  H01G13462   4.485   4.808   3.490
   734G12  H01F13463   4.517   4.966   3.558
   734G12  H01E13464   4.519   4.827   3.658
   734G12  C02J13465   4.611   4.950   3.301
   734G12  H01H13466   4.510   4.965   3.335
   734G12  C02I13467   4.637   5.002   3.172
   734G12  C02N13468   4.538   5.073   3.097
   734G12  H01M13469   4.466   5.027   3.031
   734G12  C02O13470   4.525   5.206   3.127
   734G12  H01L13471   4.593   5.244   3.202
   734G12  C02P13472   4.410   5.290   3.082
   734G12  H01K13473   4.332   5.226   3.041
   734G12  H01J13474   4.368   5.337   3.171
   734G12  O00H13475   4.464   5.393   2.994
   734G12  H01I13476   4.542   5.369   2.946
   734G12  C02H13477   4.768   4.985   3.122
   734G12  H01C13478   4.801   5.019   3.025
   734G12  C02L13479   4.870   4.929   3.205
   734G12  H01D13480   4.967   4.919   3.158
   734G12  C01313481   4.910   4.319   3.243
   734G12  H00013482   4.825   4.343   3.305
   734G12  C01413483   4.916   4.202   3.159
   734G12  C00F13484   4.824   4.094   3.165
   734G12  C00H13485   4.888   4.044   2.934
   734G12  C00I13486   4.872   3.971   2.816
   734G12  C00J13487   4.973   3.970   2.720
   734G12  C00Z13488   5.230   4.287   2.961
   734G12  C00Y13489   5.352   4.358   2.972
   734G12  H00613490   5.367   4.430   3.051
   734G12  C00X13491   5.458   4.341   2.879
   734G12  O00313492   5.580   4.408   2.874
   734G12  C01B13493   5.618   4.491   2.986
   734G12  H00913494   5.561   4.583   2.973
   734G12  H00813495   5.725   4.511   2.981
   734G12  H00713496   5.590   4.447   3.082
   734G12  C00W13497   5.446   4.247   2.779
   734G12  O00413498   5.552   4.230   2.696
   734G12  C01C13499   5.550   4.118   2.620
   734G12  H00A13500   5.630   4.116   2.548
   734G12  C00P13501   5.444   4.021   2.619
   734G12  C00O13502   5.463   3.884   2.579
   734G12  C01D13503   5.591   3.826   2.594
   734G12  H00S13504   5.677   3.887   2.619
   734G12  C01E13505   5.614   3.683   2.586
   734G12  O00813506   5.737   3.626   2.581
   734G12  C01V13507   5.846   3.704   2.581
   734G12  C01Z13508   5.905   3.755   2.445
   734G12  H00R13509   6.007   3.792   2.440
   734G12  H00Q13510   5.895   3.676   2.370
   734G12  O00913511   5.821   3.865   2.395
   734G12  H00P13512   5.740   3.817   2.385
   734G12  C01W13513   5.914   3.722   2.695
   734G12  H00O13514   5.870   3.670   2.778
   734G12  C01X13515   6.050   3.781   2.723
   734G12  H00N13516   6.115   3.702   2.761
   734G12  H00M13517   6.097   3.820   2.632
   734G12  C01Y13518   6.057   3.883   2.830
   734G12  C02D13519   6.088   3.854   2.966
   734G12  H01913520   6.101   3.750   2.992
   734G12  C02C13521   6.093   3.959   3.065
   734G12  H01A13522   6.114   3.944   3.170
   734G12  C02B13523   6.077   4.094   3.030
   734G12  O00E13524   6.096   4.197   3.116
   734G12  H01B13525   6.109   4.273   3.062
   734G12  C02F13526   6.036   4.125   2.895
   734G12  O00F13527   6.021   4.257   2.853
   734G12  C02G13528   5.991   4.296   2.724
   734G12  H01713529   5.889   4.275   2.693
   734G12  H01613530   6.066   4.266   2.650
   734G12  H01513531   5.990   4.405   2.723
   734G12  C02E13532   6.026   4.019   2.796
   734G12  H01813533   5.983   4.039   2.699
   734G12  C01F13534   5.501   3.599   2.561
   734G12  C01G13535   5.495   3.457   2.574
   734G12  H00L13536   5.588   3.415   2.609
   734G12  C01H13537   5.365   3.388   2.562
   734G12  H00B13538   5.358   3.286   2.597
   734G12  C01I13539   5.255   3.462   2.512
   734G12  C01U13540   5.384   3.660   2.514
   734G12  C00S13541   5.084   4.053   2.734
   734G12  C00K13542   5.000   3.861   2.631
   734G12  C00N13543   5.359   3.793   2.542
   734G12  C00013544   5.275   3.589   2.465
   734G12  C01J13545   5.116   3.455   2.548
   734G12  C01K13546   5.047   3.335   2.594
   734G12  C01P13547   5.074   3.199   2.566
   734G12  C01Q13548   5.177   3.164   2.475
   734G12  H00G13549   5.206   3.224   2.390
   734G12  C01R13550   5.247   3.049   2.490
   734G12  H00F13551   5.223   2.991   2.579
   734G12  C01S13552   5.342   3.006   2.379
   734G12  H00E13553   5.319   2.900   2.373
   734G12  H00D13554   5.300   3.038   2.284
   734G12  O00513555   5.470   3.056   2.401
   734G12  H00C13556   5.497   3.039   2.490
   734G12  C01O13557   4.983   3.097   2.612
   734G12  H00H13558   5.002   2.996   2.579
   734G12  C01N13559   4.879   3.123   2.704
   734G12  O00613560   4.807   3.030   2.772
   734G12  C01T13561   4.827   2.893   2.743
   734G12  H00K13562   4.802   2.872   2.639
   734G12  H00J13563   4.773   2.827   2.810
   734G12  H00I13564   4.932   2.868   2.758
   734G12  C01M13565   4.854   3.263   2.723
   734G12  C02013566   4.911   3.748   2.654
   734G12  C02113567   4.790   3.764   2.732
   734G12  C01L13568   4.933   3.366   2.669
   734G12  O00713569   4.755   3.285   2.812
   734G12  C02213570   4.740   3.652   2.797
   734G12  C02313571   4.767   3.878   2.814
   734G12  C00G13572   4.807   4.015   3.051
   734G12  C00E13573   4.751   4.070   3.288
   734G12  O00A13574   4.788   4.139   3.402
   734G12  C02413575   4.694   4.157   3.509
   734G12  H00V13576   4.596   4.174   3.464
   734G12  H00U13577   4.725   4.247   3.562
   734G12  H00T13578   4.676   4.074   3.577
   744G12  C00D13579   3.781   6.428   3.840
   744G12  O00B13580   3.688   6.473   3.749
   744G12  C02513581   3.721   6.522   3.619
   744G12  C02613582   3.710   6.411   3.514
   744G12  H00Y13583   3.702   6.452   3.413
   744G12  H00X13584   3.623   6.347   3.530
   744G12  O00C13585   3.828   6.330   3.510
   744G12  H00W13586   3.836   6.280   3.590
   744G12  C02713587   3.740   6.652   3.596
   744G12  O00D13588   3.724   6.737   3.702
   744G12  H00Z13589   3.708   6.676   3.773
   744G12  C02813590   3.769   6.708   3.465
   744G12  C02913591   3.689   6.823   3.429
   744G12  H01013592   3.609   6.866   3.487
   744G12  C02T13593   3.710   6.884   3.302
   744G12  H01O13594   3.644   6.964   3.270
   744G12  C02S13595   3.813   6.831   3.218
   744G12  O00J13596   3.831   6.886   3.097
   744G12  H01P13597   3.874   6.826   3.038
   744G12  C02R13598   3.887   6.718   3.250
   744G12  O00I13599   3.977   6.670   3.160
   744G12  C02Q13600   4.110   6.661   3.207
   744G12  H01N13601   4.130   6.617   3.305
   744G12  H01R13602   4.155   6.760   3.207
   744G12  H01Q13603   4.164   6.590   3.145
   744G12  C02A13604   3.864   6.659   3.373
   744G12  H01113605   3.927   6.574   3.393
   744G12  C00C13606   3.917   6.428   3.815
   744G12  H01213607   3.954   6.469   3.722
   744G12  C00B13608   4.015   6.378   3.903
   744G12  C00A13609   4.155   6.360   3.888
   744G12  C00913610   4.223   6.314   3.764
   744G12  C00813611   4.178   6.281   3.635
   744G12  H01313612   4.087   6.319   3.591
   744G12  C00713613   4.249   6.184   3.560
   744G12  H01413614   4.212   6.162   3.461
   744G12  C00613615   4.369   6.119   3.614
   744G12  C00513616   4.408   6.160   3.742
   744G12  C00413617   4.506   6.088   3.813
   744G12  C00313618   4.529   6.109   3.950
   744G12  C00213619   4.619   6.023   4.016
   744G12  C00113620   4.654   6.003   4.153
   744G12  C00M13621   4.548   5.987   4.252
   744G12  C00L13622   4.441   6.082   4.261
   744G12  C00R13623   4.328   6.058   4.343
   744G12  C00Q13624   4.289   5.957   4.441
   744G12  C00V13625   4.154   5.971   4.483
   744G12  C00U13626   4.060   6.062   4.433
   744G12  C00T13627   4.100   6.144   4.331
   744G12  C01613628   4.017   6.219   4.243
   744G12  C01513629   3.882   6.220   4.274
   744G12  C01013630   3.843   6.153   4.390
   744G12  C01113631   3.710   6.167   4.433
   744G12  H00513632   3.673   6.136   4.529
   744G12  C01213633   3.614   6.242   4.364
   744G12  C01713634   3.482   6.268   4.412
   744G12  O00213635   3.457   6.349   4.518
   744G12  H00413636   3.373   6.389   4.498
   744G12  C01813637   3.372   6.220   4.351
   744G12  O00113638   3.386   6.131   4.249
   744G12  H00313639   3.471   6.090   4.247
   744G12  C01913640   3.236   6.254   4.389
   744G12  H00213641   3.170   6.239   4.303
   744G12  H00113642   3.219   6.183   4.471
   744G12  O00013643   3.220   6.381   4.441
   744G12  C01A13644   3.102   6.410   4.495
   744G12  C02K13645   2.981   6.333   4.510
   744G12  O00G13646   2.975   6.212   4.443
   744G12  C02M13647   2.889   6.113   4.499
   744G12  H01G13648   2.920   6.024   4.446
   744G12  H01F13649   2.785   6.135   4.473
   744G12  H01E13650   2.914   6.105   4.605
   744G12  C02J13651   2.866   6.385   4.581
   744G12  H01H13652   2.774   6.329   4.583
   744G12  C02I13653   2.870   6.521   4.622
   744G12  C02N13654   2.746   6.576   4.664
   744G12  H01M13655   2.653   6.521   4.660
   744G12  C02O13656   2.732   6.694   4.725
   744G12  H01L13657   2.820   6.754   4.741
   744G12  C02P13658   2.590   6.749   4.768
   744G12  H01K13659   2.606   6.794   4.865
   744G12  H01J13660   2.562   6.819   4.689
   744G12  O00H13661   2.495   6.647   4.781
   744G12  H01I13662   2.408   6.677   4.759
   744G12  C02H13663   2.990   6.596   4.613
   744G12  H01C13664   3.000   6.701   4.633
   744G12  C02L13665   3.105   6.541   4.555
   744G12  H01D13666   3.198   6.594   4.540
   744G12  C01313667   3.661   6.295   4.246
   744G12  H00013668   3.592   6.361   4.195
   744G12  C01413669   3.793   6.283   4.193
   744G12  C00F13670   3.835   6.335   4.067
   744G12  C00H13671   4.063   6.285   4.128
   744G12  C00I13672   4.202   6.289   4.107
   744G12  C00J13673   4.286   6.233   4.203
   744G12  C00Z13674   3.926   6.069   4.466
   744G12  C00Y13675   3.884   5.991   4.572
   744G12  H00613676   3.778   5.985   4.594
   744G12  C00X13677   3.969   5.905   4.636
   744G12  O00313678   3.929   5.825   4.743
   744G12  C01B13679   3.892   5.698   4.702
   744G12  H00913680   3.975   5.642   4.660
   744G12  H00813681   3.801   5.699   4.641
   744G12  H00713682   3.874   5.647   4.797
   744G12  C00W13683   4.103   5.891   4.591
   744G12  O00413684   4.185   5.805   4.655
   744G12  C01C13685   4.292   5.764   4.589
   744G12  H00A13686   4.345   5.681   4.632
   744G12  C00P13687   4.359   5.845   4.487
   744G12  C00O13688   4.476   5.792   4.418
   744G12  C01D13689   4.513   5.655   4.437
   744G12  H00S13690   4.474   5.582   4.506
   744G12  C01E13691   4.603   5.584   4.346
   744G12  O00813692   4.636   5.451   4.356
   744G12  C01V13693   4.653   5.399   4.484
   744G12  C01Z13694   4.583   5.265   4.501
   744G12  H00R13695   4.616   5.210   4.413
   744G12  H00Q13696   4.635   5.228   4.590
   744G12  O00913697   4.446   5.265   4.511
   744G12  H00P13698   4.407   5.313   4.440
   744G12  C01W13699   4.723   5.462   4.585
   744G12  H00O13700   4.772   5.554   4.556
   744G12  C01X13701   4.740   5.424   4.729
   744G12  H00N13702   4.747   5.520   4.781
   744G12  H00M13703   4.651   5.377   4.772
   744G12  C01Y13704   4.874   5.352   4.762
   744G12  C02D13705   4.899   5.323   4.897
   744G12  H01913706   4.819   5.334   4.969
   744G12  C02C13707   5.017   5.256   4.934
   744G12  H01A13708   5.023   5.232   5.039
   744G12  C02B13709   5.110   5.215   4.839
   744G12  O00E13710   5.213   5.133   4.873
   744G12  H01B13711   5.262   5.112   4.795
   744G12  C02F13712   5.094   5.256   4.701
   744G12  O00F13713   5.189   5.219   4.606
   744G12  C02G13714   5.211   5.310   4.501
   744G12  H01713715   5.226   5.403   4.555
   744G12  H01613716   5.134   5.329   4.425
   744G12  H01513717   5.309   5.287   4.460
   744G12  C02E13718   4.975   5.320   4.666
   744G12  H01813719   4.954   5.338   4.562
   744G12  C01F13720   4.673   5.660   4.243
   744G12  C01G13721   4.746   5.610   4.130
   744G12  H00L13722   4.755   5.502   4.128
   744G12  C01H13723   4.776   5.687   4.020
   744G12  H00B13724   4.801   5.641   3.925
   744G12  C01I13725   4.746   5.829   4.028
   744G12  C01U13726   4.661   5.801   4.247
   744G12  C00S13727   4.233   6.158   4.313
   744G12  C00K13728   4.412   6.175   4.163
   744G12  C00N13729   4.557   5.862   4.321
   744G12  C00013730   4.731   5.883   4.153
   744G12  C01J13731   4.691   5.923   3.934
   744G12  C01K13732   4.678   5.903   3.792
   744G12  C01P13733   4.759   5.833   3.697
   744G12  C01Q13734   4.882   5.775   3.744
   744G12  H00G13735   4.931   5.820   3.829
   744G12  C01R13736   4.929   5.660   3.689
   744G12  H00F13737   4.877   5.611   3.608
   744G12  C01S13738   5.051   5.586   3.750
   744G12  H00E13739   5.005   5.507   3.809
   744G12  H00D13740   5.101   5.537   3.666
   744G12  O00513741   5.140   5.674   3.810
   744G12  H00C13742   5.212   5.694   3.753
   744G12  C01O13743   4.732   5.828   3.562
   744G12  H00H13744   4.794   5.772   3.493
   744G12  C01N13745   4.615   5.880   3.510
   744G12  O00613746   4.576   5.878   3.378
   744G12  C01T13747   4.621   5.771   3.296
   744G12  H00K13748   4.558   5.776   3.208
   744G12  H00J13749   4.595   5.675   3.341
   744G12  H00I13750   4.725   5.781   3.265
   744G12  C01M13751   4.535   5.959   3.600
   744G12  C02013752   4.449   6.203   4.025
   744G12  C02113753   4.376   6.299   3.948
   744G12  C01L13754   4.569   5.980   3.740
   744G12  O00713755   4.430   6.021   3.546
   744G12  C02213756   4.351   6.270   3.812
   744G12  C02313757   4.250   6.343   3.991
   744G12  C00G13758   3.972   6.337   4.033
   744G12  C00E13759   3.743   6.382   3.966
   744G12  O00A13760   3.606   6.378   3.983
   744G12  C02413761   3.545   6.255   3.961
   744G12  H00V13762   3.525   6.247   3.854
   744G12  H00U13763   3.452   6.267   4.016
   744G12  H00T13764   3.611   6.176   3.997
   754G12  C00D13765   6.722   0.474   8.805
   754G12  O00B13766   6.680   0.604   8.783
   754G12  C02513767   6.601   0.635   8.667
   754G12  C02613768   6.667   0.617   8.532
   754G12  H00Y13769   6.746   0.543   8.547
   754G12  H00X13770   6.720   0.705   8.495
   754G12  O00C13771   6.585   0.552   8.437
   754G12  H00W13772   6.505   0.601   8.436
   754G12  C02713773   6.480   0.688   8.688
   754G12  O00D13774   6.439   0.702   8.818
   754G12  H00Z13775   6.507   0.711   8.882
   754G12  C02813776   6.383   0.733   8.585
   754G12  C02913777   6.425   0.794   8.463
   754G12  H01013778   6.525   0.802   8.422
   754G12  C02T13779   6.327   0.843   8.368
   754G12  H01O13780   6.365   0.882   8.275
   754G12  C02S13781   6.192   0.835   8.393
   754G12  O00J13782   6.095   0.870   8.298
   754G12  H01P13783   6.008   0.849   8.328
   754G12  C02R13784   6.150   0.780   8.513
   754G12  O00I13785   6.011   0.774   8.529
   754G12  C02Q13786   5.956   0.717   8.645
   754G12  H01N13787   5.964   0.609   8.633
   754G12  H01R13788   5.850   0.742   8.655
   754G12  H01Q13789   6.001   0.750   8.739
   754G12  C02A13790   6.243   0.733   8.609
   754G12  H01113791   6.201   0.691   8.699
   754G12  C00C13792   6.670   0.365   8.737
   754G12  H01213793   6.592   0.372   8.663
   754G12  C00B13794   6.727   0.239   8.742
   754G12  C00A13795   6.708   0.123   8.657
   754G12  C00913796   6.604   0.095   8.561
   754G12  C00813797   6.485   0.157   8.517
   754G12  H01313798   6.478   0.264   8.518
   754G12  C00713799   6.372   0.083   8.463
   754G12  H01413800   6.290   0.140   8.422
   754G12  C00613801   6.383  -0.061   8.463
   754G12  C00513802   6.503  -0.118   8.512
   754G12  C00413803   6.516  -0.257   8.544
   754G12  C00313804   6.635  -0.305   8.614
   754G12  C00213805   6.638  -0.448   8.644
   754G12  C00113806   6.736  -0.530   8.712
   754G12  C00M13807   6.785  -0.483   8.840
   754G12  C00L13808   6.869  -0.373   8.848
   754G12  C00R13809   6.905  -0.316   8.975
   754G12  C00Q13810   6.895  -0.356   9.108
   754G12  C00V13811   6.934  -0.258   9.203
   754G12  C00U13812   6.943  -0.121   9.174
   754G12  C00T13813   6.930  -0.077   9.046
   754G12  C01613814   6.920   0.052   9.006
   754G12  C01513815   6.925   0.151   9.103
   754G12  C01013816   6.946   0.111   9.242
   754G12  C01113817   6.950   0.212   9.338
   754G12  H00513818   6.959   0.182   9.441
   754G12  C01213819   6.957   0.345   9.301
   754G12  C01713820   6.976   0.435   9.406
   754G12  O00213821   6.893   0.434   9.515
   754G12  H00413822   6.952   0.478   9.573
   754G12  C01813823   7.072   0.528   9.396
   754G12  O00113824   7.147   0.545   9.286
   754G12  H00313825   7.146   0.464   9.237
   754G12  C01913826   7.107   0.622   9.511
   754G12  H00213827   7.214   0.636   9.497
   754G12  H00113828   7.057   0.718   9.497
   754G12  O00013829   7.081   0.565   9.633
   754G12  C01A13830   7.092   0.642   9.746
   754G12  C02K13831   7.052   0.573   9.863
   754G12  O00G13832   7.022   0.435   9.858
   754G12  C02M13833   6.963   0.372   9.972
   754G12  H01G13834   6.945   0.265   9.958
   754G12  H01F13835   6.874   0.426  10.005
   754G12  H01E13836   7.038   0.373  10.052
   754G12  C02J13837   7.051   0.652   9.983
   754G12  H01H13838   7.037   0.607  10.081
   754G12  C02I13839   7.091   0.788   9.991
   754G12  C02N13840   7.094   0.850  10.123
   754G12  H01M13841   7.025   0.826  10.203
   754G12  C02O13842   7.189   0.936  10.154
   754G12  H01L13843   7.261   0.962  10.077
   754G12  C02P13844   7.181   1.005  10.288
   754G12  H01K13845   7.172   0.917  10.353
   754G12  H01J13846   7.269   1.055  10.328
   754G12  O00H13847   7.074   1.096  10.291
   754G12  H01I13848   7.061   1.130  10.204
   754G12  C02H13849   7.125   0.848   9.869
   754G12  H01C13850   7.146   0.953   9.877
   754G12  C02L13851   7.130   0.777   9.745
   754G12  H01D13852   7.161   0.834   9.659
   754G12  C01313853   6.941   0.383   9.168
   754G12  H00013854   6.933   0.490   9.156
   754G12  C01413855   6.910   0.283   9.068
   754G12  C00F13856   6.850   0.315   8.941
   754G12  C00H13857   6.864   0.081   8.879
   754G12  C00I13858   6.848  -0.018   8.789
   754G12  C00J13859   6.893  -0.147   8.823
   754G12  C00Z13860   6.960  -0.022   9.277
   754G12  C00Y13861   6.964  -0.070   9.409
   754G12  H00613862   6.961  -0.013   9.501
   754G12  C00X13863   6.976  -0.210   9.440
   754G12  O00313864   7.008  -0.255   9.567
   754G12  C01B13865   7.139  -0.223   9.610
   754G12  H00913866   7.159  -0.116   9.615
   754G12  H00813867   7.212  -0.271   9.546
   754G12  H00713868   7.164  -0.252   9.712
   754G12  C00W13869   6.963  -0.303   9.337
   754G12  O00413870   6.961  -0.437   9.371
   754G12  C01C13871   6.865  -0.507   9.300
   754G12  H00A13872   6.782  -0.552   9.352
   754G12  C00P13873   6.850  -0.486   9.159
   754G12  C00O13874   6.787  -0.593   9.084
   754G12  C01D13875   6.729  -0.707   9.148
   754G12  H00S13876   6.764  -0.739   9.245
   754G12  C01E13877   6.619  -0.771   9.079
   754G12  O00813878   6.536  -0.863   9.142
   754G12  C01V13879   6.591  -0.953   9.220
   754G12  C01Z13880   6.530  -0.959   9.357
   754G12  H00R13881   6.422  -0.957   9.345
   754G12  H00Q13882   6.542  -1.055   9.408
   754G12  O00913883   6.564  -0.847   9.438
   754G12  H00P13884   6.546  -0.769   9.387
   754G12  C01W13885   6.688  -1.041   9.187
   754G12  H00O13886   6.722  -1.044   9.085
   754G12  C01X13887   6.762  -1.141   9.275
   754G12  H00N13888   6.708  -1.175   9.363
   754G12  H00M13889   6.777  -1.230   9.214
   754G12  C01Y13890   6.891  -1.087   9.331
   754G12  C02D13891   6.985  -1.028   9.238
   754G12  H01913892   6.963  -1.013   9.133
   754G12  C02C13893   7.112  -0.978   9.278
   754G12  H01A13894   7.184  -0.947   9.204
   754G12  C02B13895   7.148  -0.980   9.415
   754G12  O00E13896   7.258  -0.906   9.453
   754G12  H01B13897   7.291  -0.934   9.537
   754G12  C02F13898   7.054  -1.034   9.510
   754G12  O00F13899   7.088  -1.027   9.645
   754G12  C02G13900   6.994  -1.072   9.738
   754G12  H01713901   6.948  -1.168   9.715
   754G12  H01613902   6.907  -1.007   9.751
   754G12  H01513903   7.029  -1.084   9.840
   754G12  C02E13904   6.929  -1.082   9.466
   754G12  H01813905   6.856  -1.110   9.540
   754G12  C01F13906   6.591  -0.754   8.944
   754G12  C01G13907   6.465  -0.774   8.880
   754G12  H00L13908   6.383  -0.805   8.943
   754G12  C01H13909   6.436  -0.721   8.749
   754G12  H00B13910   6.330  -0.715   8.729
   754G12  C01I13911   6.536  -0.654   8.679
   754G12  C01U13912   6.688  -0.685   8.864
   754G12  C00S13913   6.925  -0.178   8.951
   754G12  C00K13914   6.844  -0.266   8.759
   754G12  C00N13915   6.760  -0.582   8.940
   754G12  C00013916   6.676  -0.660   8.726
   754G12  C01J13917   6.526  -0.530   8.607
   754G12  C01K13918   6.413  -0.484   8.532
   754G12  C01P13919   6.304  -0.560   8.484
   754G12  C01Q13920   6.313  -0.698   8.477
   754G12  H00G13921   6.409  -0.743   8.454
   754G12  C01R13922   6.207  -0.776   8.486
   754G12  H00F13923   6.110  -0.738   8.515
   754G12  C01S13924   6.218  -0.924   8.459
   754G12  H00E13925   6.270  -0.964   8.546
   754G12  H00D13926   6.117  -0.964   8.447
   754G12  O00513927   6.282  -0.949   8.333
   754G12  H00C13928   6.337  -0.879   8.302
   754G12  C01O13929   6.204  -0.493   8.408
   754G12  H00H13930   6.131  -0.558   8.362
   754G12  C01N13931   6.199  -0.357   8.392
   754G12  O00613932   6.112  -0.301   8.309
   754G12  C01T13933   6.128  -0.345   8.176
   754G12  H00K13934   6.090  -0.447   8.161
   754G12  H00J13935   6.235  -0.350   8.156
   754G12  H00I13936   6.079  -0.277   8.106
   754G12  C01M13937   6.297  -0.276   8.449
   754G12  C02013938   6.747  -0.226   8.656
   754G12  C02113939   6.735  -0.097   8.603
   754G12  C01L13940   6.412  -0.343   8.509
   754G12  O00713941   6.282  -0.141   8.427
   754G12  C02213942   6.621  -0.044   8.542
   754G12  C02313943   6.792   0.014   8.668
   754G12  C00G13944   6.815   0.209   8.852
   754G12  C00E13945   6.819   0.450   8.907
   754G12  O00A13946   6.899   0.556   8.958
   754G12  C02413947   6.906   0.682   8.887
   754G12  H00V13948   6.922   0.670   8.779
   754G12  H00U13949   6.997   0.722   8.932
   754G12  H00T13950   6.822   0.744   8.916
   764G12  C00D13951   6.022   1.087   8.785
   764G12  O00B13952   6.094   1.165   8.700
   764G12  C02513953   6.036   1.277   8.648
   764G12  C02613954   6.018   1.393   8.742
   764G12  H00Y13955   5.923   1.384   8.795
   764G12  H00X13956   6.025   1.483   8.681
   764G12  O00C13957   6.126   1.395   8.835
   764G12  H00W13958   6.139   1.311   8.876
   764G12  C02713959   6.019   1.287   8.512
   764G12  O00D13960   6.049   1.174   8.441
   764G12  H00Z13961   6.064   1.117   8.515
   764G12  C02813962   5.954   1.402   8.447
   764G12  C02913963   5.988   1.440   8.312
   764G12  H01013964   6.060   1.386   8.253
   764G12  C02T13965   5.956   1.568   8.266
   764G12  H01O13966   5.989   1.609   8.171
   764G12  C02S13967   5.870   1.650   8.345
   764G12  O00J13968   5.843   1.775   8.300
   764G12  H01P13969   5.813   1.828   8.373
   764G12  C02R13970   5.815   1.615   8.468
   764G12  O00I13971   5.732   1.698   8.544
   764G12  C02Q13972   5.771   1.724   8.681
   764G12  H01N13973   5.879   1.727   8.692
   764G12  H01R13974   5.730   1.645   8.745
   764G12  H01Q13975   5.724   1.818   8.712
   764G12  C02A13976   5.853   1.479   8.513
   764G12  H01113977   5.819   1.456   8.613
   764G12  C00C13978   5.886   1.054   8.757
   764G12  H01213979   5.835   1.089   8.668
   764G12  C00B13980   5.819   0.950   8.822
   764G12  C00A13981   5.679   0.910   8.804
   764G12  C00913982   5.562   0.965   8.743
   764G12  C00813983   5.530   1.090   8.684
   764G12  H01313984   5.615   1.151   8.656
   764G12  C00713985   5.394   1.127   8.676
   764G12  H01413986   5.367   1.227   8.643
   764G12  C00613987   5.291   1.055   8.735
   764G12  C00513988   5.324   0.928   8.791
   764G12  C00413989   5.250   0.859   8.890
   764G12  C00313990   5.296   0.746   8.959
   764G12  C00213991   5.204   0.686   9.052
   764G12  C00113992   5.212   0.568   9.143
   764G12  C00M13993   5.333   0.537   9.220
   764G12  C00L13994   5.462   0.552   9.174
   764G12  C00R13995   5.584   0.543   9.247
   764G12  C00Q13996   5.609   0.522   9.388
   764G12  C00V13997   5.747   0.545   9.427
   764G12  C00U13998   5.840   0.611   9.342
   764G12  C00T13999   5.810   0.638   9.213
   764G12  C01614000   5.877   0.735   9.130
   764G12  C01514001   5.993   0.792   9.182
   764G12  C01014002   6.036   0.752   9.312
   764G12  C01114003   6.147   0.818   9.366
   764G12  H00514004   6.192   0.787   9.459
   764G12  C01214005   6.219   0.923   9.302
   764G12  C01714006   6.327   0.992   9.372
   764G12  O00214007   6.389   0.922   9.476
   764G12  H00414008   6.458   0.983   9.498
   764G12  C01814009   6.377   1.116   9.344
   764G12  O00114010   6.324   1.198   9.247
   764G12  H00314011   6.231   1.180   9.245
   764G12  C01914012   6.486   1.187   9.419
   764G12  H00214013   6.553   1.241   9.352
   764G12  H00114014   6.465   1.276   9.479
   764G12  O00014015   6.552   1.111   9.518
   764G12  C01A14016   6.682   1.139   9.552
   764G12  C02K14017   6.756   1.041   9.627
   764G12  O00G14018   6.694   0.925   9.663
   764G12  C02M14019   6.767   0.808   9.692
   764G12  H01G14020   6.826   0.778   9.605
   764G12  H01F14021   6.695   0.728   9.710
   764G12  H01E14022   6.831   0.828   9.777
   764G12  C02J14023   6.889   1.074   9.663
   764G12  H01H14024   6.946   1.002   9.720
   764G12  C02I14025   6.952   1.195   9.631
   764G12  C02N14026   7.086   1.211   9.665
   764G12  H01M14027   7.143   1.129   9.707
   764G12  C02O14028   7.150   1.324   9.645
   764G12  H01L14029   7.096   1.408   9.603
   764G12  C02P14030   7.292   1.358   9.694
   764G12  H01K14031   7.362   1.274   9.703
   764G12  H01J14032   7.338   1.418   9.616
   764G12  O00H14033   7.291   1.457   9.797
   764G12  H01I14034   7.250   1.532   9.755
   764G12  C02H14035   6.879   1.293   9.557
   764G12  H01C14036   6.915   1.384   9.511
   764G12  C02L14037   6.742   1.265   9.527
   764G12  H01D14038   6.688   1.339   9.471
   764G12  C01314039   6.170   0.951   9.170
   764G12  H00014040   6.230   1.028   9.125
   764G12  C01414041   6.060   0.883   9.104
   764G12  C00F14042   6.013   0.931   8.978
   764G12  C00H14043   5.824   0.782   9.008
   764G12  C00I14044   5.703   0.724   8.963
   764G12  C00J14045   5.637   0.628   9.046
   764G12  C00Z14046   5.965   0.660   9.391
   764G12  C00Y14047   6.010   0.611   9.519
   764G12  H00614048   6.108   0.637   9.556
   764G12  C00X14049   5.923   0.538   9.600
   764G12  O00314050   5.950   0.512   9.731
   764G12  C01B14051   6.079   0.532   9.791
   764G12  H00914052   6.092   0.627   9.843
   764G12  H00814053   6.165   0.501   9.732
   764G12  H00714054   6.072   0.458   9.870
   764G12  C00W14055   5.787   0.513   9.557
   764G12  O00414056   5.705   0.439   9.638
   764G12  C01C14057   5.575   0.428   9.605
   764G12  H00A14058   5.513   0.352   9.650
   764G12  C00P14059   5.516   0.486   9.491
   764G12  C00O14060   5.374   0.519   9.486
   764G12  C01D14061   5.304   0.553   9.606
   764G12  H00S14062   5.355   0.529   9.699
   764G12  C01E14063   5.176   0.628   9.606
   764G12  O00814064   5.117   0.678   9.720
   764G12  C01V14065   5.191   0.673   9.838
   764G12  C01Z14066   5.278   0.791   9.867
   764G12  H00R14067   5.374   0.779   9.917
   764G12  H00Q14068   5.298   0.825   9.766
   764G12  O00914069   5.200   0.884   9.936
   764G12  H00P14070   5.109   0.884   9.911
   764G12  C01W14071   5.168   0.568   9.922
   764G12  H00O14072   5.091   0.500   9.889
   764G12  C01X14073   5.256   0.542  10.044
   764G12  H00N14074   5.311   0.632  10.069
   764G12  H00M14075   5.194   0.504  10.126
   764G12  C01Y14076   5.363   0.437  10.007
   764G12  C02D14077   5.318   0.313   9.957
   764G12  H01914078   5.212   0.303   9.940
   764G12  C02C14079   5.418   0.220   9.917
   764G12  H01A14080   5.393   0.121   9.881
   764G12  C02B14081   5.553   0.245   9.933
   764G12  O00E14082   5.655   0.160   9.896
   764G12  H01B14083   5.733   0.211   9.908
   764G12  C02F14084   5.594   0.374   9.977
   764G12  O00F14085   5.726   0.391   9.999
   764G12  C02G14086   5.777   0.509  10.061
   764G12  H01714087   5.886   0.508  10.072
   764G12  H01614088   5.733   0.519  10.160
   764G12  H01514089   5.753   0.596  10.000
   764G12  C02E14090   5.498   0.468  10.017
   764G12  H01814091   5.540   0.560  10.055
   764G12  C01F14092   5.115   0.660   9.483
   764G12  C01G14093   5.006   0.750   9.459
   764G12  H00L14094   4.951   0.802   9.536
   764G12  C01H14095   4.983   0.782   9.323
   764G12  H00B14096   4.915   0.866   9.315
   764G12  C01I14097   5.037   0.711   9.211
   764G12  C01U14098   5.167   0.596   9.364
   764G12  C00S14099   5.694   0.579   9.166
   764G12  C00K14100   5.495   0.623   9.053
   764G12  C00N14101   5.300   0.544   9.364
   764G12  C00014102   5.111   0.602   9.239
   764G12  C01J14103   5.086   0.755   9.085
   764G12  C01K14104   5.031   0.867   9.015
   764G12  C01P14105   4.908   0.938   9.031
   764G12  C01Q14106   4.798   0.902   9.115
   764G12  H00G14107   4.748   0.960   9.191
   764G12  C01R14108   4.743   0.782   9.100
   764G12  H00F14109   4.786   0.710   9.032
   764G12  C01S14110   4.625   0.733   9.173
   764G12  H00E14111   4.643   0.628   9.199
   764G12  H00D14112   4.599   0.775   9.270
   764G12  O00514113   4.521   0.737   9.074
   764G12  H00C14114   4.556   0.715   8.989
   764G12  C01O14115   4.878   1.055   8.962
   764G12  H00H14116   4.783   1.106   8.963
   764G12  C01N14117   4.969   1.111   8.873
   764G12  O00614118   4.953   1.233   8.807
   764G12  C01T14119   4.845   1.306   8.847
   764G12  H00K14120   4.854   1.409   8.813
   764G12  H00J14121   4.827   1.315   8.954
   764G12  H00I14122   4.757   1.267   8.795
   764G12  C01M14123   5.094   1.048   8.851
   764G12  C02014124   5.429   0.696   8.949
   764G12  C02114125   5.504   0.767   8.850
   764G12  C01L14126   5.124   0.920   8.920
   764G12  O00714127   5.168   1.108   8.752
   764G12  C02214128   5.455   0.872   8.783
   764G12  C02314129   5.637   0.790   8.860
   764G12  C00G14130   5.881   0.892   8.936
   764G12  C00E14131   6.086   1.025   8.892
   764G12  O00A14132   6.210   1.075   8.914
   764G12  C02414133   6.311   0.985   8.867
   764G12  H00V14134   6.353   0.932   8.953
   764G12  H00U14135   6.394   1.039   8.821
   764G12  H00T14136   6.279   0.911   8.795
   774G12  C00D14137   5.466   1.673   7.954
   774G12  O00B14138   5.468   1.544   8.011
   774G12  C02514139   5.386   1.518   8.124
   774G12  C02614140   5.464   1.559   8.247
   774G12  H00Y14141   5.393   1.592   8.324
   774G12  H00X14142   5.524   1.648   8.229
   774G12  O00C14143   5.537   1.445   8.276
   774G12  H00W14144   5.596   1.423   8.206
   774G12  C02714145   5.259   1.484   8.117
   774G12  O00D14146   5.203   1.461   7.988
   774G12  H00Z14147   5.267   1.433   7.925
   774G12  C02814148   5.173   1.473   8.232
   774G12  C02914149   5.219   1.410   8.353
   774G12  H01014150   5.322   1.380   8.345
   774G12  C02T14151   5.130   1.391   8.458
   774G12  H01O14152   5.154   1.351   8.556
   774G12  C02S14153   4.996   1.433   8.446
   774G12  O00J14154   4.911   1.423   8.551
   774G12  H01P14155   4.824   1.404   8.517
   774G12  C02R14156   4.945   1.490   8.332
   774G12  O00I14157   4.811   1.531   8.335
   774G12  C02Q14158   4.739   1.539   8.213
   774G12  H01N14159   4.636   1.539   8.246
   774G12  H01R14160   4.765   1.452   8.152
   774G12  H01Q14161   4.752   1.627   8.149
   774G12  C02A14162   5.034   1.509   8.224
   774G12  H01114163   4.999   1.547   8.129
   774G12  C00C14164   5.357   1.753   7.975
   774G12  H01214165   5.283   1.726   8.048
   774G12  C00B14166   5.346   1.889   7.930
   774G12  C00A14167   5.246   1.980   7.970
   774G12  C00914168   5.106   1.948   7.983
   774G12  C00814169   5.035   1.826   7.998
   774G12  H01314170   5.081   1.733   8.028
   774G12  C00714171   4.904   1.822   7.948
   774G12  H01414172   4.847   1.731   7.955
   774G12  C00614173   4.836   1.940   7.902
   774G12  C00514174   4.908   2.058   7.902
   774G12  C00414175   4.867   2.170   7.830
   774G12  C00314176   4.955   2.273   7.799
   774G12  C00214177   4.904   2.378   7.709
   774G12  C00114178   4.965   2.492   7.639
   774G12  C00M14179   5.091   2.479   7.567
   774G12  C00L14180   5.197   2.415   7.627
   774G12  C00R14181   5.319   2.381   7.556
   774G12  C00Q14182   5.356   2.400   7.417
   774G12  C00V14183   5.482   2.331   7.387
   774G12  C00U14184   5.544   2.232   7.474
   774G12  C00T14185   5.489   2.209   7.597
   774G12  C01614186   5.514   2.096   7.670
   774G12  C01514187   5.616   2.017   7.632
   774G12  C01014188   5.693   2.051   7.518
   774G12  C01114189   5.810   1.970   7.485
   774G12  H00514190   5.868   1.984   7.394
   774G12  C01214191   5.838   1.851   7.555
   774G12  C01714192   5.939   1.758   7.506
   774G12  O00214193   6.043   1.734   7.589
   774G12  H00414194   6.069   1.643   7.585
   774G12  C01814195   5.929   1.704   7.381
   774G12  O00114196   5.823   1.724   7.298
   774G12  H00314197   5.746   1.741   7.352
   774G12  C01914198   6.025   1.617   7.320
   774G12  H00214199   6.024   1.625   7.211
   774G12  H00114200   6.122   1.640   7.365
   774G12  O00014201   5.992   1.485   7.361
   774G12  C01A14202   6.084   1.392   7.328
   774G12  C02K14203   6.183   1.358   7.421
   774G12  O00G14204   6.181   1.428   7.537
   774G12  C02M14205   6.251   1.382   7.651
   774G12  H01G14206   6.208   1.285   7.675
   774G12  H01F14207   6.233   1.444   7.739
   774G12  H01E14208   6.355   1.359   7.627
   774G12  C02J14209   6.284   1.268   7.382
   774G12  H01H14210   6.351   1.232   7.459
   774G12  C02I14211   6.301   1.214   7.254
   774G12  C02N14212   6.412   1.128   7.226
   774G12  H01M14213   6.483   1.091   7.298
   774G12  C02O14214   6.425   1.072   7.103
   774G12  H01L14215   6.355   1.088   7.021
   774G12  C02P14216   6.529   0.968   7.064
   774G12  H01K14217   6.605   0.938   7.136
   774G12  H01J14218   6.479   0.872   7.051
   774G12  O00H14219   6.609   1.003   6.957
   774G12  H01I14220   6.552   0.989   6.883
   774G12  C02H14221   6.194   1.246   7.167
   774G12  H01C14222   6.190   1.194   7.072
   774G12  C02L14223   6.092   1.335   7.198
   774G12  H01D14224   6.007   1.354   7.134
   774G12  C01314225   5.762   1.827   7.674
   774G12  H00014226   5.796   1.735   7.720
   774G12  C01414227   5.644   1.899   7.708
   774G12  C00F14228   5.554   1.851   7.802
   774G12  C00H14229   5.434   2.061   7.784
   774G12  C00I14230   5.336   2.154   7.830
   774G12  C00J14231   5.320   2.269   7.756
   774G12  C00Z14232   5.646   2.148   7.433
   774G12  C00Y14233   5.711   2.190   7.308
   774G12  H00614234   5.809   2.149   7.285
   774G12  C00X14235   5.656   2.288   7.224
   774G12  O00314236   5.709   2.321   7.097
   774G12  C01B14237   5.853   2.293   7.070
   774G12  H00914238   5.881   2.356   6.985
   774G12  H00814239   5.875   2.189   7.045
   774G12  H00714240   5.919   2.312   7.154
   774G12  C00W14241   5.541   2.349   7.261
   774G12  O00414242   5.497   2.451   7.181
   774G12  C01C14243   5.359   2.453   7.180
   774G12  H00A14244   5.316   2.394   7.101
   774G12  C00P14245   5.288   2.460   7.303
   774G12  C00O14246   5.149   2.481   7.309
   774G12  C01D14247   5.071   2.467   7.188
   774G12  H00S14248   5.113   2.446   7.090
   774G12  C01E14249   4.929   2.457   7.182
   774G12  O00814250   4.865   2.425   7.065
   774G12  C01V14251   4.776   2.522   7.021
   774G12  C01Z14252   4.627   2.480   6.996
   774G12  H00R14253   4.582   2.491   6.897
   774G12  H00Q14254   4.634   2.372   7.013
   774G12  O00914255   4.540   2.541   7.092
   774G12  H00P14256   4.552   2.634   7.085
   774G12  C01W14257   4.828   2.641   6.981
   774G12  H00O14258   4.933   2.666   6.984
   774G12  C01X14259   4.749   2.747   6.912
   774G12  H00N14260   4.789   2.760   6.812
   774G12  H00M14261   4.646   2.719   6.889
   774G12  C01Y14262   4.755   2.883   6.979
   774G12  C02D14263   4.762   2.997   6.890
   774G12  H01914264   4.759   2.991   6.782
   774G12  C02C14265   4.782   3.126   6.942
   774G12  H01A14266   4.789   3.213   6.878
   774G12  C02B14267   4.789   3.147   7.081
   774G12  O00E14268   4.822   3.268   7.130
   774G12  H01B14269   4.817   3.256   7.224
   774G12  C02F14270   4.775   3.037   7.169
   774G12  O00F14271   4.783   3.078   7.302
   774G12  C02G14272   4.760   2.976   7.394
   774G12  H01714273   4.809   3.013   7.485
   774G12  H01614274   4.822   2.888   7.379
   774G12  H01514275   4.660   2.934   7.399
   774G12  C02E14276   4.754   2.910   7.120
   774G12  H01814277   4.730   2.829   7.188
   774G12  C01F14278   4.859   2.470   7.303
   774G12  C01G14279   4.720   2.436   7.320
   774G12  H00L14280   4.665   2.382   7.245
   774G12  C01H14281   4.659   2.442   7.444
   774G12  H00B14282   4.566   2.388   7.452
   774G12  C01I14283   4.747   2.458   7.557
   774G12  C01U14284   4.933   2.525   7.417
   774G12  C00S14285   5.386   2.289   7.636
   774G12  C00K14286   5.194   2.332   7.747
   774G12  C00N14287   5.072   2.496   7.426
   774G12  C00014288   4.868   2.534   7.543
   774G12  C01J14289   4.772   2.371   7.669
   774G12  C01K14290   4.672   2.280   7.719
   774G12  C01P14291   4.528   2.287   7.713
   774G12  C01Q14292   4.453   2.412   7.695
   774G12  H00G14293   4.478   2.480   7.615
   774G12  C01R14294   4.352   2.442   7.780
   774G12  H00F14295   4.317   2.375   7.858
   774G12  C01S14296   4.261   2.565   7.755
   774G12  H00E14297   4.270   2.616   7.659
   774G12  H00D14298   4.157   2.533   7.758
   774G12  O00514299   4.296   2.669   7.845
   774G12  H00C14300   4.390   2.665   7.848
   774G12  C01O14301   4.459   2.171   7.744
   774G12  H00H14302   4.352   2.178   7.739
   774G12  C01N14303   4.525   2.052   7.752
   774G12  O00614304   4.447   1.941   7.738
   774G12  C01T14305   4.337   1.941   7.650
   774G12  H00K14306   4.309   1.837   7.633
   774G12  H00J14307   4.345   1.982   7.550
   774G12  H00I14308   4.245   1.987   7.687
   774G12  C01M14309   4.655   2.055   7.794
   774G12  C02014310   5.095   2.267   7.832
   774G12  C02114311   5.125   2.172   7.930
   774G12  C01L14312   4.731   2.172   7.781
   774G12  O00714313   4.710   1.938   7.843
   774G12  C02214314   5.038   2.071   7.959
   774G12  C02314315   5.254   2.113   7.937
   774G12  C00G14316   5.447   1.933   7.844
   774G12  C00E14317   5.568   1.720   7.869
   774G12  O00A14318   5.671   1.625   7.839
   774G12  C02414319   5.628   1.534   7.747
   774G12  H00V14320   5.626   1.590   7.653
   774G12  H00U14321   5.534   1.481   7.766
   774G12  H00T14322   5.700   1.454   7.735
   784G12  C00D14323   3.038   1.558   9.141
   784G12  O00B14324   3.002   1.619   9.023
   784G12  C02514325   3.096   1.691   8.953
   784G12  C02614326   3.093   1.846   8.983
   784G12  H00Y14327   2.999   1.886   9.020
   784G12  H00X14328   3.101   1.902   8.890
   784G12  O00C14329   3.187   1.891   9.075
   784G12  H00W14330   3.186   1.985   9.081
   784G12  C02714331   3.166   1.636   8.848
   784G12  O00D14332   3.138   1.505   8.809
   784G12  H00Z14333   3.053   1.476   8.836
   784G12  C02814334   3.272   1.706   8.777
   784G12  C02914335   3.273   1.704   8.638
   784G12  H01014336   3.188   1.658   8.591
   784G12  C02T14337   3.379   1.752   8.559
   784G12  H01O14338   3.383   1.740   8.452
   784G12  C02S14339   3.486   1.822   8.632
   784G12  O00J14340   3.590   1.880   8.564
   784G12  H01P14341   3.657   1.913   8.622
   784G12  C02R14342   3.483   1.832   8.768
   784G12  O00I14343   3.586   1.896   8.827
   784G12  C02Q14344   3.598   1.906   8.967
   784G12  H01N14345   3.517   1.957   9.019
   784G12  H01R14346   3.690   1.962   8.985
   784G12  H01Q14347   3.613   1.809   9.013
   784G12  C02A14348   3.378   1.774   8.838
   784G12  H01114349   3.358   1.794   8.942
   784G12  C00C14350   3.166   1.566   9.193
   784G12  H01214351   3.246   1.621   9.146
   784G12  C00B14352   3.196   1.511   9.319
   784G12  C00A14353   3.318   1.528   9.388
   784G12  C00914354   3.455   1.553   9.341
   784G12  C00814355   3.524   1.594   9.221
   784G12  H01314356   3.468   1.646   9.145
   784G12  C00714357   3.668   1.572   9.211
   784G12  H01414358   3.725   1.618   9.131
   784G12  C00614359   3.734   1.503   9.318
   784G12  C00514360   3.659   1.468   9.430
   784G12  C00414361   3.711   1.382   9.529
   784G12  C00314362   3.631   1.335   9.634
   784G12  C00214363   3.685   1.240   9.729
   784G12  C00114364   3.642   1.173   9.851
   784G12  C00M14365   3.511   1.107   9.858
   784G12  C00L14366   3.400   1.177   9.813
   784G12  C00R14367   3.268   1.116   9.799
   784G12  C00Q14368   3.215   0.981   9.814
   784G12  C00V14369   3.082   0.968   9.771
   784G12  C00U14370   3.014   1.062   9.689
   784G12  C00T14371   3.069   1.189   9.662
   784G12  C01614372   3.036   1.267   9.552
   784G12  C01514373   2.922   1.236   9.484
   784G12  C01014374   2.839   1.127   9.531
   784G12  C01114375   2.710   1.108   9.477
   784G12  H00514376   2.639   1.031   9.505
   784G12  C01214377   2.661   1.190   9.372
   784G12  C01714378   2.528   1.157   9.319
   784G12  O00214379   2.417   1.151   9.403
   784G12  H00414380   2.340   1.148   9.349
   784G12  C01814381   2.518   1.125   9.193
   784G12  O00114382   2.637   1.119   9.116
   784G12  H00314383   2.717   1.132   9.164
   784G12  C01914384   2.385   1.095   9.123
   784G12  H00214385   2.391   1.125   9.018
   784G12  H00114386   2.377   0.987   9.121
   784G12  O00014387   2.267   1.147   9.193
   784G12  C01A14388   2.138   1.106   9.154
   784G12  C02K14389   2.041   1.069   9.256
   784G12  O00G14390   2.076   1.081   9.390
   784G12  C02M14391   2.013   1.007   9.490
   784G12  H01G14392   2.041   1.028   9.593
   784G12  H01F14393   2.042   0.902   9.480
   784G12  H01E14394   1.904   1.008   9.483
   784G12  C02J14395   1.910   1.045   9.218
   784G12  H01H14396   1.833   1.031   9.293
   784G12  C02I14397   1.871   1.031   9.084
   784G12  C02N14398   1.735   1.003   9.052
   784G12  H01M14399   1.668   0.949   9.117
   784G12  C02O14400   1.677   1.073   8.957
   784G12  H01L14401   1.728   1.137   8.887
   784G12  C02P14402   1.533   1.061   8.928
   784G12  H01K14403   1.477   1.007   9.004
   784G12  H01J14404   1.484   1.154   8.900
   784G12  O00H14405   1.527   0.975   8.816
   784G12  H01I14406   1.586   0.902   8.830
   784G12  C02H14407   1.965   1.056   8.985
   784G12  H01C14408   1.946   1.048   8.879
   784G12  C02L14409   2.098   1.089   9.024
   784G12  H01D14410   2.173   1.112   8.949
   784G12  C01314411   2.746   1.287   9.325
   784G12  H00014412   2.703   1.338   9.240
   784G12  C01414413   2.877   1.313   9.378
   784G12  C00F14414   2.964   1.415   9.329
   784G12  C00H14415   3.120   1.366   9.506
   784G12  C00I14416   3.230   1.398   9.582
   784G12  C00J14417   3.267   1.317   9.691
   784G12  C00Z14418   2.893   1.031   9.623
   784G12  C00Y14419   2.831   0.906   9.652
   784G12  H00614420   2.734   0.879   9.612
   784G12  C00X14421   2.893   0.814   9.738
   784G12  O00314422   2.836   0.686   9.767
   784G12  C01B14423   2.697   0.663   9.736
   784G12  H00914424   2.661   0.565   9.767
   784G12  H00814425   2.674   0.665   9.629
   784G12  H00714426   2.637   0.732   9.796
   784G12  C00W14427   3.017   0.841   9.798
   784G12  O00414428   3.074   0.743   9.873
   784G12  C01C14429   3.208   0.738   9.852
   784G12  H00A14430   3.227   0.666   9.773
   784G12  C00P14431   3.287   0.860   9.848
   784G12  C00O14432   3.426   0.853   9.868
   784G12  C01D14433   3.493   0.725   9.874
   784G12  H00S14434   3.444   0.629   9.880
   784G12  C01E14435   3.636   0.708   9.857
   784G12  O00814436   3.688   0.582   9.856
   784G12  C01V14437   3.686   0.502   9.967
   784G12  C01Z14438   3.790   0.533  10.074
   784G12  H00R14439   3.812   0.639  10.090
   784G12  H00Q14440   3.769   0.495  10.174
   784G12  O00914441   3.913   0.478  10.024
   784G12  H00P14442   3.893   0.386  10.011
   784G12  C01W14443   3.601   0.399   9.964
   784G12  H00O14444   3.527   0.385   9.887
   784G12  C01X14445   3.581   0.303  10.086
   784G12  H00N14446   3.557   0.205  10.044
   784G12  H00M14447   3.672   0.298  10.145
   784G12  C01Y14448   3.464   0.353  10.176
   784G12  C02D14449   3.401   0.255  10.256
   784G12  H01914450   3.434   0.152  10.249
   784G12  C02C14451   3.304   0.298  10.352
   784G12  H01A14452   3.254   0.231  10.421
   784G12  C02B14453   3.264   0.430  10.363
   784G12  O00E14454   3.168   0.459  10.455
   784G12  H01B14455   3.173   0.552  10.473
   784G12  C02F14456   3.333   0.526  10.289
   784G12  O00F14457   3.309   0.661  10.314
   784G12  C02G14458   3.380   0.765  10.238
   784G12  H01714459   3.344   0.863  10.270
   784G12  H01614460   3.347   0.763  10.135
   784G12  H01514461   3.489   0.767  10.237
   784G12  C02E14462   3.438   0.488  10.200
   784G12  H01814463   3.493   0.561  10.142
   784G12  C01F14464   3.718   0.823   9.844
   784G12  C01G14465   3.845   0.826   9.786
   784G12  H00L14466   3.884   0.729   9.758
   784G12  C01H14467   3.898   0.947   9.737
   784G12  H00B14468   3.979   0.926   9.669
   784G12  C01I14469   3.840   1.075   9.775
   784G12  C01U14470   3.667   0.948   9.882
   784G12  C00S14471   3.192   1.213   9.730
   784G12  C00K14472   3.401   1.301   9.737
   784G12  C00N14473   3.525   0.962   9.884
   784G12  C00014474   3.739   1.072   9.872
   784G12  C01J14475   3.817   1.196   9.699
   784G12  C01K14476   3.912   1.253   9.602
   784G12  C01P14477   4.052   1.225   9.581
   784G12  C01Q14478   4.133   1.141   9.665
   784G12  H00G14479   4.134   1.150   9.773
   784G12  C01R14480   4.215   1.044   9.620
   784G12  H00F14481   4.233   1.046   9.514
   784G12  C01S14482   4.294   0.947   9.703
   784G12  H00E14483   4.399   0.968   9.723
   784G12  H00D14484   4.244   0.941   9.800
   784G12  O00514485   4.287   0.813   9.657
   784G12  H00C14486   4.265   0.808   9.565
   784G12  C01O14487   4.117   1.277   9.471
   784G12  H00H14488   4.221   1.255   9.450
   784G12  C01N14489   4.056   1.369   9.387
   784G12  O00614490   4.128   1.441   9.292
   784G12  C01T14491   4.263   1.479   9.327
   784G12  H00K14492   4.334   1.404   9.292
   784G12  H00J14493   4.285   1.510   9.429
   784G12  H00I14494   4.288   1.573   9.277
   784G12  C01M14495   3.925   1.399   9.405
   784G12  C02014496   3.496   1.372   9.653
   784G12  C02114497   3.458   1.468   9.553
   784G12  C01L14498   3.845   1.341   9.513
   784G12  O00714499   3.868   1.479   9.311
   784G12  C02214500   3.529   1.500   9.447
   784G12  C02314501   3.321   1.485   9.519
   784G12  C00G14502   3.099   1.429   9.384
   784G12  C00E14503   2.937   1.489   9.206
   784G12  O00A14504   2.819   1.483   9.140
   784G12  C02414505   2.733   1.596   9.172
   784G12  H00V14506   2.636   1.568   9.131
   784G12  H00U14507   2.759   1.696   9.135
   784G12  H00T14508   2.726   1.600   9.280
   794G12  C00D14509   6.165   3.517   8.244
   794G12  O00B14510   6.077   3.420   8.296
   794G12  C02514511   6.118   3.338   8.397
   794G12  C02614512   6.072   3.371   8.536
   794G12  H00Y14513   6.158   3.423   8.580
   794G12  H00X14514   6.072   3.282   8.599
   794G12  O00C14515   5.946   3.430   8.534
   794G12  H00W14516   5.891   3.379   8.477
   794G12  C02714517   6.199   3.228   8.372
   794G12  O00D14518   6.231   3.197   8.242
   794G12  H00Z14519   6.197   3.278   8.208
   794G12  C02814520   6.253   3.146   8.477
   794G12  C02914521   6.340   3.189   8.579
   794G12  H01014522   6.353   3.295   8.592
   794G12  C02T14523   6.389   3.103   8.675
   794G12  H01O14524   6.440   3.148   8.759
   794G12  C02S14525   6.369   2.966   8.661
   794G12  O00J14526   6.413   2.874   8.750
   794G12  H01P14527   6.401   2.786   8.717
   794G12  C02R14528   6.285   2.922   8.555
   794G12  O00I14529   6.267   2.781   8.543
   794G12  C02Q14530   6.167   2.733   8.461
   794G12  H01N14531   6.077   2.780   8.499
   794G12  H01R14532   6.165   2.624   8.471
   794G12  H01Q14533   6.198   2.762   8.361
   794G12  C02A14534   6.227   3.008   8.461
   794G12  H01114535   6.167   2.976   8.377
   794G12  C00C14536   6.298   3.522   8.288
   794G12  H01214537   6.335   3.473   8.377
   794G12  C00B14538   6.396   3.609   8.237
   794G12  C00A14539   6.537   3.613   8.278
   794G12  C00914540   6.603   3.575   8.403
   794G12  C00814541   6.575   3.506   8.521
   794G12  H01314542   6.482   3.453   8.531
   794G12  C00714543   6.662   3.533   8.634
   794G12  H01414544   6.653   3.470   8.721
   794G12  C00614545   6.777   3.618   8.620
   794G12  C00514546   6.798   3.681   8.498
   794G12  C00414547   6.884   3.792   8.486
   794G12  C00314548   6.889   3.866   8.362
   794G12  C00214549   6.967   3.990   8.367
   794G12  C00114550   6.993   4.094   8.270
   794G12  C00M14551   6.884   4.158   8.200
   794G12  C00L14552   6.794   4.077   8.122
   794G12  C00R14553   6.679   4.138   8.060
   794G12  C00Q14554   6.623   4.274   8.052
   794G12  C00V14555   6.495   4.275   8.000
   794G12  C00U14556   6.415   4.156   7.982
   794G12  C00T14557   6.463   4.032   8.013
   794G12  C01614558   6.388   3.919   8.026
   794G12  C01514559   6.256   3.921   7.987
   794G12  C01014560   6.210   4.039   7.920
   794G12  C01114561   6.086   4.030   7.858
   794G12  H00514562   6.042   4.113   7.806
   794G12  C01214563   6.007   3.917   7.862
   794G12  C01714564   5.883   3.909   7.795
   794G12  O00214565   5.762   3.916   7.852
   794G12  H00414566   5.701   3.900   7.782
   794G12  C01814567   5.895   3.885   7.661
   794G12  O00114568   6.014   3.891   7.598
   794G12  H00314569   6.008   3.837   7.520
   794G12  C01914570   5.780   3.876   7.558
   794G12  H00214571   5.801   3.921   7.461
   794G12  H00114572   5.765   3.770   7.539
   794G12  O00014573   5.657   3.937   7.613
   794G12  C01A14574   5.544   3.863   7.624
   794G12  C02K14575   5.540   3.740   7.690
   794G12  O00G14576   5.651   3.683   7.750
   794G12  C02M14577   5.668   3.541   7.744
   794G12  H01G14578   5.655   3.498   7.644
   794G12  H01F14579   5.598   3.494   7.812
   794G12  H01E14580   5.764   3.507   7.784
   794G12  C02J14581   5.414   3.680   7.698
   794G12  H01H14582   5.415   3.579   7.738
   794G12  C02I14583   5.296   3.744   7.659
   794G12  C02N14584   5.163   3.692   7.688
   794G12  H01M14585   5.076   3.754   7.672
   794G12  C02O14586   5.142   3.570   7.742
   794G12  H01L14587   5.225   3.502   7.752
   794G12  C02P14588   5.003   3.511   7.782
   794G12  H01K14589   4.972   3.546   7.881
   794G12  H01J14590   4.941   3.552   7.702
   794G12  O00H14591   5.013   3.370   7.769
   794G12  H01I14592   4.994   3.342   7.681
   794G12  C02H14593   5.304   3.870   7.597
   794G12  H01C14594   5.216   3.929   7.577
   794G12  C02L14595   5.426   3.925   7.570
   794G12  H01D14596   5.438   4.010   7.505
   794G12  C01314597   6.048   3.812   7.941
   794G12  H00014598   5.976   3.731   7.939
   794G12  C01414599   6.176   3.808   8.009
   794G12  C00F14600   6.219   3.711   8.106
   794G12  C00H14601   6.440   3.805   8.090
   794G12  C00I14602   6.579   3.792   8.109
   794G12  C00J14603   6.657   3.906   8.075
   794G12  C00Z14604   6.284   4.162   7.931
   794G12  C00Y14605   6.228   4.290   7.903
   794G12  H00614606   6.127   4.295   7.865
   794G12  C00X14607   6.299   4.409   7.930
   794G12  O00314608   6.235   4.530   7.919
   794G12  C01B14609   6.216   4.611   8.032
   794G12  H00914610   6.307   4.666   8.057
   794G12  H00814611   6.201   4.541   8.115
   794G12  H00714612   6.131   4.678   8.018
   794G12  C00W14613   6.432   4.402   7.972
   794G12  O00414614   6.499   4.519   7.986
   794G12  C01C14615   6.625   4.516   8.037
   794G12  H00A14616   6.683   4.607   8.044
   794G12  C00P14617   6.678   4.397   8.093
   794G12  C00O14618   6.786   4.408   8.192
   794G12  C01D14619   6.801   4.525   8.272
   794G12  H00S14620   6.759   4.619   8.240
   794G12  C01E14621   6.882   4.527   8.389
   794G12  O00814622   6.896   4.639   8.471
   794G12  C01V14623   6.910   4.761   8.409
   794G12  C01Z14624   6.799   4.852   8.454
   794G12  H00R14625   6.822   4.957   8.435
   794G12  H00Q14626   6.708   4.823   8.402
   794G12  O00914627   6.789   4.818   8.589
   794G12  H00P14628   6.822   4.729   8.585
   794G12  C01W14629   7.006   4.786   8.320
   794G12  H00O14630   7.083   4.712   8.302
   794G12  C01X14631   7.023   4.907   8.225
   794G12  H00N14632   6.961   4.991   8.257
   794G12  H00M14633   7.125   4.945   8.233
   794G12  C01Y14634   6.986   4.855   8.091
   794G12  C02D14635   7.086   4.813   8.003
   794G12  H01914636   7.191   4.812   8.028
   794G12  C02C14637   7.041   4.740   7.890
   794G12  H01A14638   7.113   4.693   7.823
   794G12  C02B14639   6.905   4.740   7.853
   794G12  O00E14640   6.863   4.677   7.739
   794G12  H01B14641   6.769   4.680   7.730
   794G12  C02F14642   6.808   4.804   7.934
   794G12  O00F14643   6.678   4.796   7.892
   794G12  C02G14644   6.584   4.878   7.959
   794G12  H01714645   6.551   4.835   8.053
   794G12  H01614646   6.489   4.887   7.905
   794G12  H01514647   6.614   4.982   7.966
   794G12  C02E14648   6.849   4.861   8.054
   794G12  H01814649   6.780   4.903   8.126
   794G12  C01F14650   6.949   4.410   8.423
   794G12  C01G14651   6.999   4.384   8.556
   794G12  H00L14652   6.988   4.460   8.632
   794G12  C01H14653   7.059   4.261   8.588
   794G12  H00B14654   7.091   4.243   8.690
   794G12  C01I14655   7.064   4.160   8.488
   794G12  C01U14656   6.972   4.312   8.330
   794G12  C00S14657   6.599   4.023   8.034
   794G12  C00K14658   6.774   3.939   8.144
   794G12  C00N14659   6.873   4.298   8.231
   794G12  C00014660   7.054   4.198   8.352
   794G12  C01J14661   7.031   4.016   8.491
   794G12  C01K14662   7.051   3.932   8.605
   794G12  C01P14663   7.137   3.944   8.715
   794G12  C01Q14664   7.251   4.038   8.706
   794G12  H00G14665   7.289   4.083   8.616
   794G12  C01R14666   7.311   4.077   8.819
   794G12  H00F14667   7.278   4.053   8.919
   794G12  C01S14668   7.409   4.195   8.833
   794G12  H00E14669   7.357   4.288   8.855
   794G12  H00D14670   7.472   4.175   8.920
   794G12  O00514671   7.499   4.207   8.718
   794G12  H00C14672   7.495   4.132   8.660
   794G12  C01O14673   7.125   3.861   8.827
   794G12  H00H14674   7.188   3.875   8.914
   794G12  C01N14675   7.022   3.765   8.831
   794G12  O00614676   7.006   3.702   8.951
   794G12  C01T14677   7.103   3.610   8.991
   794G12  H00K14678   7.115   3.593   9.098
   794G12  H00J14679   7.197   3.633   8.942
   794G12  H00I14680   7.082   3.518   8.936
   794G12  C01M14681   6.945   3.743   8.717
   794G12  C02014682   6.809   3.836   8.245
   794G12  C02114683   6.739   3.713   8.261
   794G12  C01L14684   6.959   3.825   8.603
   794G12  O00714685   6.858   3.640   8.729
   794G12  C02214686   6.720   3.649   8.385
   794G12  C02314687   6.620   3.688   8.191
   794G12  C00G14688   6.355   3.707   8.147
   794G12  C00E14689   6.124   3.614   8.154
   794G12  O00A14690   5.993   3.606   8.121
   794G12  C02414691   5.908   3.684   8.203
   794G12  H00V14692   5.926   3.655   8.307
   794G12  H00U14693   5.806   3.662   8.174
   794G12  H00T14694   5.927   3.790   8.187
   804G12  C00D14695   5.177   4.999   6.396
   804G12  O00B14696   5.101   4.888   6.373
   804G12  C02514697   5.165   4.759   6.360
   804G12  C02614698   5.205   4.736   6.216
   804G12  H00Y14699   5.140   4.796   6.153
   804G12  H00X14700   5.190   4.630   6.195
   804G12  O00C14701   5.337   4.771   6.196
   804G12  H00W14702   5.339   4.843   6.135
   804G12  C02714703   5.158   4.665   6.458
   804G12  O00D14704   5.106   4.714   6.578
   804G12  H00Z14705   5.099   4.808   6.575
   804G12  C02814706   5.201   4.529   6.448
   804G12  C02914707   5.112   4.424   6.490
   804G12  H01014708   5.015   4.443   6.534
   804G12  C02T14709   5.163   4.290   6.497
   804G12  H01O14710   5.098   4.209   6.527
   804G12  C02S14711   5.296   4.261   6.476
   804G12  O00J14712   5.329   4.132   6.486
   804G12  H01P14713   5.414   4.117   6.447
   804G12  C02R14714   5.380   4.363   6.424
   804G12  O00I14715   5.502   4.322   6.382
   804G12  C02Q14716   5.583   4.406   6.302
   804G12  H01N14717   5.643   4.478   6.358
   804G12  H01R14718   5.527   4.451   6.219
   804G12  H01Q14719   5.659   4.350   6.248
   804G12  C02A14720   5.330   4.497   6.401
   804G12  H01114721   5.400   4.571   6.366
   804G12  C00C14722   5.303   4.984   6.448
   804G12  H01214723   5.345   4.884   6.457
   804G12  C00B14724   5.389   5.087   6.478
   804G12  C00A14725   5.521   5.079   6.531
   804G12  C00914726   5.577   4.988   6.626
   804G12  C00814727   5.531   4.870   6.694
   804G12  H01314728   5.448   4.811   6.658
   804G12  C00714729   5.613   4.825   6.798
   804G12  H01414730   5.595   4.728   6.842
   804G12  C00614731   5.717   4.904   6.858
   804G12  C00514732   5.746   5.024   6.800
   804G12  C00414733   5.817   5.124   6.865
   804G12  C00314734   5.831   5.254   6.808
   804G12  C00214735   5.889   5.353   6.889
   804G12  C00114736   5.931   5.494   6.868
   804G12  C00M14737   5.834   5.583   6.820
   804G12  C00L14738   5.758   5.556   6.708
   804G12  C00R14739   5.640   5.628   6.672
   804G12  C00Q14740   5.583   5.750   6.718
   804G12  C00V14741   5.455   5.778   6.652
   804G12  C00U14742   5.382   5.687   6.574
   804G12  C00T14743   5.437   5.570   6.535
   804G12  C01614744   5.367   5.463   6.487
   804G12  C01514745   5.234   5.484   6.459
   804G12  C01014746   5.175   5.609   6.483
   804G12  C01114747   5.043   5.636   6.442
   804G12  H00514748   4.990   5.730   6.436
   804G12  C01214749   4.962   5.534   6.396
   804G12  C01714750   4.831   5.563   6.340
   804G12  O00214751   4.723   5.562   6.425
   804G12  H00414752   4.768   5.533   6.504
   804G12  C01814753   4.820   5.607   6.213
   804G12  O00114754   4.928   5.623   6.127
   804G12  H00314755   4.872   5.665   6.064
   804G12  C01914756   4.690   5.646   6.150
   804G12  H00214757   4.655   5.552   6.107
   804G12  H00114758   4.607   5.691   6.204
   804G12  O00014759   4.723   5.734   6.040
   804G12  C01A14760   4.684   5.868   6.063
   804G12  C02K14761   4.612   5.940   5.964
   804G12  O00G14762   4.585   5.864   5.850
   804G12  C02M14763   4.481   5.908   5.759
   804G12  H01G14764   4.388   5.925   5.814
   804G12  H01F14765   4.457   5.823   5.695
   804G12  H01E14766   4.507   5.988   5.690
   804G12  C02J14767   4.553   6.069   5.993
   804G12  H01H14768   4.505   6.120   5.911
   804G12  C02I14769   4.580   6.138   6.114
   804G12  C02N14770   4.518   6.270   6.124
   804G12  H01M14771   4.470   6.321   6.041
   804G12  C02O14772   4.528   6.339   6.237
   804G12  H01L14773   4.567   6.293   6.327
   804G12  C02P14774   4.472   6.478   6.265
   804G12  H01K14775   4.391   6.460   6.336
   804G12  H01J14776   4.550   6.538   6.312
   804G12  O00H14777   4.436   6.540   6.147
   804G12  H01I14778   4.508   6.582   6.103
   804G12  C02H14779   4.667   6.074   6.209
   804G12  H01C14780   4.707   6.129   6.293
   804G12  C02L14781   4.721   5.947   6.175
   804G12  H01D14782   4.795   5.905   6.242
   804G12  C01314783   5.015   5.408   6.377
   804G12  H00014784   4.935   5.344   6.342
   804G12  C01414785   5.154   5.373   6.417
   804G12  C00F14786   5.210   5.241   6.419
   804G12  C00H14787   5.421   5.330   6.485
   804G12  C00I14788   5.552   5.317   6.518
   804G12  C00J14789   5.626   5.427   6.558
   804G12  C00Z14790   5.252   5.714   6.531
   804G12  C00Y14791   5.191   5.838   6.556
   804G12  H00614792   5.088   5.862   6.538
   804G12  C00X14793   5.271   5.934   6.624
   804G12  O00314794   5.219   6.061   6.644
   804G12  C01B14795   5.264   6.162   6.552
   804G12  H00914796   5.371   6.182   6.560
   804G12  H00814797   5.207   6.250   6.580
   804G12  H00714798   5.231   6.128   6.454
   804G12  C00W14799   5.397   5.907   6.674
   804G12  O00414800   5.464   6.008   6.743
   804G12  C01C14801   5.556   5.965   6.834
   804G12  H00A14802   5.620   6.036   6.884
   804G12  C00P14803   5.621   5.839   6.818
   804G12  C00O14804   5.726   5.809   6.918
   804G12  C01D14805   5.739   5.879   7.042
   804G12  H00S14806   5.678   5.967   7.057
   804G12  C01E14807   5.795   5.828   7.162
   804G12  O00814808   5.762   5.876   7.286
   804G12  C01V14809   5.750   6.011   7.305
   804G12  C01Z14810   5.878   6.089   7.322
   804G12  H00R14811   5.959   6.037   7.272
   804G12  H00Q14812   5.884   6.185   7.271
   804G12  O00914813   5.910   6.089   7.459
   804G12  H00P14814   5.889   6.003   7.493
   804G12  C01W14815   5.628   6.069   7.294
   804G12  H00O14816   5.545   6.001   7.282
   804G12  C01X14817   5.596   6.219   7.306
   804G12  H00N14818   5.515   6.237   7.377
   804G12  H00M14819   5.676   6.281   7.348
   804G12  C01Y14820   5.565   6.268   7.163
   804G12  C02D14821   5.475   6.201   7.075
   804G12  H01914822   5.415   6.116   7.101
   804G12  C02C14823   5.457   6.248   6.946
   804G12  H01A14824   5.387   6.200   6.880
   804G12  C02B14825   5.513   6.368   6.906
   804G12  O00E14826   5.515   6.401   6.773
   804G12  H01B14827   5.566   6.481   6.773
   804G12  C02F14828   5.597   6.446   6.990
   804G12  O00F14829   5.655   6.560   6.936
   804G12  C02G14830   5.734   6.637   7.022
   804G12  H01714831   5.676   6.675   7.106
   804G12  H01614832   5.795   6.710   6.969
   804G12  H01514833   5.811   6.580   7.073
   804G12  C02E14834   5.629   6.389   7.119
   804G12  H01814835   5.695   6.441   7.188
   804G12  C01F14836   5.865   5.708   7.150
   804G12  C01G14837   5.902   5.621   7.256
   804G12  H00L14838   5.881   5.644   7.359
   804G12  C01H14839   5.940   5.485   7.228
   804G12  H00B14840   5.926   5.417   7.311
   804G12  C01I14841   5.952   5.447   7.093
   804G12  C01U14842   5.899   5.666   7.020
   804G12  C00S14843   5.570   5.551   6.576
   804G12  C00K14844   5.739   5.429   6.648
   804G12  C00N14845   5.818   5.700   6.910
   804G12  C00014846   5.959   5.544   6.997
   804G12  C01J14847   5.931   5.321   7.023
   804G12  C01K14848   5.932   5.190   7.083
   804G12  C01P14849   5.985   5.141   7.209
   804G12  C01Q14850   6.073   5.220   7.294
   804G12  H00G14851   6.138   5.297   7.255
   804G12  C01R14852   6.097   5.193   7.423
   804G12  H00F14853   6.031   5.117   7.463
   804G12  C01S14854   6.186   5.280   7.517
   804G12  H00E14855   6.172   5.253   7.621
   804G12  H00D14856   6.292   5.260   7.502
   804G12  O00514857   6.172   5.414   7.491
   804G12  H00C14858   6.261   5.444   7.478
   804G12  C01O14859   5.969   5.006   7.240
   804G12  H00H14860   6.018   4.972   7.330
   804G12  C01N14861   5.903   4.910   7.161
   804G12  O00614862   5.876   4.778   7.197
   804G12  C01T14863   5.920   4.746   7.331
   804G12  H00K14864   6.028   4.743   7.342
   804G12  H00J14865   5.899   4.644   7.362
   804G12  H00I14866   5.872   4.804   7.410
   804G12  C01M14867   5.844   4.954   7.045
   804G12  C02014868   5.775   5.293   6.680
   804G12  C02114869   5.719   5.181   6.607
   804G12  C01L14870   5.866   5.091   6.994
   804G12  O00714871   5.765   4.867   6.981
   804G12  C02214872   5.693   5.061   6.671
   804G12  C02314873   5.605   5.190   6.526
   804G12  C00G14874   5.343   5.218   6.457
   804G12  C00E14875   5.130   5.126   6.374
   804G12  O00A14876   5.019   5.133   6.302
   804G12  C02414877   5.055   5.152   6.163
   804G12  H00V14878   4.963   5.198   6.124
   804G12  H00U14879   5.073   5.054   6.120
   804G12  H00T14880   5.142   5.216   6.150
   814G12  C00D14881   0.644   4.990   5.368
   814G12  O00B14882   0.572   5.078   5.449
   814G12  C02514883   0.627   5.184   5.510
   814G12  C02614884   0.694   5.159   5.653
   814G12  H00Y14885   0.625   5.102   5.714
   814G12  H00X14886   0.712   5.248   5.712
   814G12  O00C14887   0.820   5.095   5.624
   814G12  H00W14888   0.805   5.002   5.624
   814G12  C02714889   0.622   5.303   5.450
   814G12  O00D14890   0.579   5.312   5.322
   814G12  H00Z14891   0.519   5.240   5.311
   814G12  C02814892   0.649   5.423   5.521
   814G12  C02914893   0.574   5.452   5.639
   814G12  H01014894   0.501   5.382   5.678
   814G12  C02T14895   0.618   5.555   5.717
   814G12  H01O14896   0.577   5.566   5.816
   814G12  C02S14897   0.706   5.651   5.670
   814G12  O00J14898   0.734   5.761   5.745
   814G12  H01P14899   0.785   5.817   5.687
   814G12  C02R14900   0.771   5.637   5.549
   814G12  O00I14901   0.857   5.738   5.506
   814G12  C02Q14902   0.907   5.725   5.377
   814G12  H01N14903   0.832   5.702   5.301
   814G12  H01R14904   0.986   5.650   5.374
   814G12  H01Q14905   0.952   5.819   5.344
   814G12  C02A14906   0.745   5.518   5.479
   814G12  H01114907   0.807   5.495   5.393
   814G12  C00C14908   0.764   5.020   5.308
   814G12  H01214909   0.800   5.117   5.342
   814G12  C00B14910   0.843   4.934   5.224
   814G12  C00A14911   0.961   4.973   5.150
   814G12  C00914912   1.005   5.100   5.096
   814G12  C00814913   0.970   5.236   5.122
   814G12  H01314914   0.906   5.259   5.206
   814G12  C00714915   1.013   5.331   5.023
   814G12  H01414916   0.993   5.437   5.031
   814G12  C00614917   1.086   5.295   4.903
   814G12  C00514918   1.116   5.159   4.897
   814G12  C00414919   1.171   5.104   4.782
   814G12  C00314920   1.164   4.962   4.763
   814G12  C00214921   1.204   4.918   4.630
   814G12  C00114922   1.211   4.787   4.567
   814G12  C00M14923   1.102   4.690   4.585
   814G12  C00L14924   1.052   4.656   4.706
   814G12  C00R14925   0.955   4.557   4.738
   814G12  C00Q14926   0.864   4.495   4.648
   814G12  C00V14927   0.758   4.434   4.720
   814G12  C00U14928   0.723   4.464   4.852
   814G12  C00T14929   0.807   4.550   4.926
   814G12  C01614930   0.772   4.610   5.050
   814G12  C01514931   0.642   4.583   5.093
   814G12  C01014932   0.569   4.483   5.035
   814G12  C01114933   0.449   4.435   5.102
   814G12  H00514934   0.373   4.374   5.056
   814G12  C01214935   0.413   4.489   5.231
   814G12  C01714936   0.284   4.464   5.303
   814G12  O00214937   0.206   4.572   5.338
   814G12  H00414938   0.115   4.552   5.351
   814G12  C01814939   0.244   4.333   5.312
   814G12  O00114940   0.333   4.233   5.284
   814G12  H00314941   0.420   4.268   5.276
   814G12  C01914942   0.113   4.287   5.362
   814G12  H00214943   0.065   4.248   5.273
   814G12  H00114944   0.127   4.203   5.430
   814G12  O00014945   0.034   4.397   5.410
   814G12  C01A14946  -0.098   4.381   5.446
   814G12  C02K14947  -0.176   4.501   5.456
   814G12  O00G14948  -0.109   4.626   5.442
   814G12  C02M14949  -0.178   4.744   5.424
   814G12  H01G14950  -0.244   4.733   5.338
   814G12  H01F14951  -0.109   4.819   5.386
   814G12  H01E14952  -0.234   4.781   5.510
   814G12  C02J14953  -0.313   4.488   5.487
   814G12  H01H14954  -0.369   4.579   5.499
   814G12  C02I14955  -0.377   4.363   5.508
   814G12  C02N14956  -0.521   4.361   5.541
   814G12  H01M14957  -0.576   4.453   5.557
   814G12  C02O14958  -0.589   4.251   5.555
   814G12  H01L14959  -0.542   4.157   5.531
   814G12  C02P14960  -0.740   4.239   5.589
   814G12  H01K14961  -0.776   4.341   5.594
   814G12  H01J14962  -0.794   4.196   5.504
   814G12  O00H14963  -0.758   4.173   5.711
   814G12  H01I14964  -0.709   4.092   5.713
   814G12  C02H14965  -0.297   4.247   5.496
   814G12  H01C14966  -0.351   4.154   5.507
   814G12  C02L14967  -0.161   4.251   5.466
   814G12  H01D14968  -0.106   4.159   5.454
   814G12  C01314969   0.494   4.591   5.278
   814G12  H00014970   0.458   4.628   5.372
   814G12  C01414971   0.595   4.651   5.207
   814G12  C00F14972   0.655   4.773   5.249
   814G12  C00H14973   0.845   4.719   5.099
   814G12  C00I14974   0.969   4.745   5.040
   814G12  C00J14975   1.009   4.665   4.930
   814G12  C00Z14976   0.605   4.430   4.911
   814G12  C00Y14977   0.532   4.324   4.845
   814G12  H00614978   0.450   4.273   4.892
   814G12  C00X14979   0.554   4.288   4.713
   814G12  O00314980   0.467   4.189   4.662
   814G12  C01B14981   0.440   4.192   4.521
   814G12  H00914982   0.432   4.295   4.487
   814G12  H00814983   0.344   4.147   4.496
   814G12  H00714984   0.523   4.144   4.469
   814G12  C00W14985   0.666   4.355   4.652
   814G12  O00414986   0.679   4.323   4.517
   814G12  C01C14987   0.747   4.417   4.446
   814G12  H00A14988   0.743   4.405   4.338
   814G12  C00P14989   0.842   4.507   4.507
   814G12  C00O14990   0.905   4.611   4.426
   814G12  C01D14991   0.859   4.646   4.296
   814G12  H00S14992   0.771   4.597   4.257
   814G12  C01E14993   0.901   4.754   4.217
   814G12  O00814994   0.842   4.807   4.104
   814G12  C01V14995   0.724   4.761   4.051
   814G12  C01Z14996   0.738   4.708   3.918
   814G12  H00R14997   0.841   4.725   3.888
   814G12  H00Q14998   0.725   4.600   3.921
   814G12  O00914999   0.663   4.787   3.815
   814G12  H00P15000   0.673   4.876   3.846
   814G12  C01W15001   0.612   4.773   4.119
   814G12  H00O15002   0.620   4.821   4.215
   814G12  C01X15003   0.477   4.734   4.077
   814G12  H00N15004   0.393   4.795   4.111
   814G12  H00M15005   0.482   4.746   3.969
   814G12  C01Y15006   0.444   4.584   4.103
   814G12  C02D15007   0.383   4.545   4.224
   814G12  H01915008   0.355   4.613   4.303
   814G12  C02C15009   0.354   4.410   4.250
   814G12  H01A15010   0.291   4.394   4.336
   814G12  C02B15011   0.399   4.314   4.158
   814G12  O00E15012   0.368   4.184   4.186
   814G12  H01B15013   0.412   4.134   4.119
   814G12  C02F15014   0.447   4.344   4.031
   814G12  O00F15015   0.442   4.243   3.935
   814G12  C02G15016   0.466   4.281   3.806
   814G12  H01715017   0.563   4.326   3.785
   814G12  H01615018   0.391   4.352   3.772
   814G12  H01515019   0.448   4.195   3.741
   814G12  C02E15020   0.463   4.485   4.005
   814G12  H01815021   0.502   4.517   3.910
   814G12  C01F15022   1.015   4.823   4.269
   814G12  C01G15023   1.067   4.946   4.218
   814G12  H00L15024   1.025   4.991   4.129
   814G12  C01H15025   1.169   5.020   4.287
   814G12  H00B15026   1.198   5.120   4.258
   814G12  C01I15027   1.222   4.958   4.406
   814G12  C01U15028   1.096   4.766   4.370
   814G12  C00S15029   0.940   4.559   4.877
   814G12  C00K15030   1.081   4.732   4.826
   814G12  C00N15031   1.028   4.678   4.460
   814G12  C00015032   1.216   4.820   4.427
   814G12  C01J15033   1.242   5.018   4.534
   814G12  C01K15034   1.259   5.158   4.556
   814G12  C01P15035   1.321   5.257   4.469
   814G12  C01Q15036   1.411   5.212   4.363
   814G12  H00G15037   1.456   5.114   4.359
   814G12  C01R15038   1.456   5.296   4.267
   814G12  H00F15039   1.424   5.399   4.255
   814G12  C01S15040   1.534   5.262   4.141
   814G12  H00E15041   1.473   5.272   4.051
   814G12  H00D15042   1.620   5.324   4.116
   814G12  O00515043   1.580   5.127   4.146
   814G12  H00C15044   1.501   5.075   4.142
   814G12  C01O15045   1.290   5.389   4.491
   814G12  H00H15046   1.325   5.468   4.427
   814G12  C01N15047   1.216   5.434   4.606
   814G12  O00615048   1.177   5.567   4.622
   814G12  C01T15049   1.193   5.655   4.515
   814G12  H00K15050   1.297   5.683   4.499
   814G12  H00J15051   1.137   5.745   4.541
   814G12  H00I15052   1.140   5.628   4.424
   814G12  C01M15053   1.184   5.339   4.700
   814G12  C02015054   1.133   4.863   4.858
   814G12  C02115055   1.115   4.928   4.986
   814G12  C01L15056   1.207   5.196   4.682
   814G12  O00715057   1.113   5.386   4.806
   814G12  C02215058   1.103   5.065   4.998
   814G12  C02315059   1.029   4.868   5.082
   814G12  C00G15060   0.784   4.807   5.198
   814G12  C00E15061   0.586   4.870   5.333
   814G12  O00A15062   0.446   4.860   5.348
   814G12  C02415063   0.395   4.847   5.478
   814G12  H00V15064   0.298   4.801   5.460
   814G12  H00U15065   0.389   4.937   5.539
   814G12  H00T15066   0.463   4.775   5.525
   824G12  C00D15067   4.347   5.759   7.226
   824G12  O00B15068   4.274   5.710   7.120
   824G12  C02515069   4.314   5.724   6.985
   824G12  C02615070   4.357   5.596   6.914
   824G12  H00Y15071   4.346   5.597   6.805
   824G12  H00X15072   4.297   5.510   6.942
   824G12  O00C15073   4.490   5.559   6.948
   824G12  H00W15074   4.493   5.466   6.931
   824G12  C02715075   4.331   5.847   6.934
   824G12  O00D15076   4.304   5.955   7.011
   824G12  H00Z15077   4.297   5.914   7.096
   824G12  C02815078   4.366   5.872   6.796
   824G12  C02915079   4.467   5.806   6.721
   824G12  H01015080   4.537   5.738   6.768
   824G12  C02T15081   4.490   5.822   6.584
   824G12  H01O15082   4.557   5.760   6.527
   824G12  C02S15083   4.434   5.941   6.529
   824G12  O00J15084   4.448   5.964   6.397
   824G12  H01P15085   4.398   6.040   6.375
   824G12  C02R15086   4.343   6.020   6.599
   824G12  O00I15087   4.294   6.125   6.520
   824G12  C02Q15088   4.243   6.241   6.579
   824G12  H01N15089   4.316   6.277   6.652
   824G12  H01R15090   4.143   6.232   6.623
   824G12  H01Q15091   4.227   6.323   6.508
   824G12  C02A15092   4.308   5.985   6.733
   824G12  H01115093   4.227   6.038   6.780
   824G12  C00C15094   4.482   5.768   7.221
   824G12  H01215095   4.538   5.729   7.137
   824G12  C00B15096   4.557   5.802   7.338
   824G12  C00A15097   4.700   5.784   7.359
   824G12  C00915098   4.779   5.672   7.316
   824G12  C00815099   4.756   5.568   7.223
   824G12  H01315100   4.669   5.568   7.159
   824G12  C00715101   4.841   5.452   7.225
   824G12  H01415102   4.834   5.371   7.154
   824G12  C00615103   4.938   5.438   7.329
   824G12  C00515104   4.951   5.545   7.422
   824G12  C00415105   5.007   5.513   7.549
   824G12  C00315106   4.996   5.612   7.650
   824G12  C00215107   5.054   5.571   7.776
   824G12  C00115108   5.056   5.638   7.901
   824G12  C00M15109   4.943   5.697   7.966
   824G12  C00L15110   4.857   5.788   7.896
   824G12  C00R15111   4.734   5.833   7.944
   824G12  C00Q15112   4.664   5.799   8.072
   824G12  C00V15113   4.529   5.843   8.066
   824G12  C00U15114   4.458   5.872   7.947
   824G12  C00T15115   4.527   5.880   7.823
   824G12  C01615116   4.469   5.876   7.696
   824G12  C01515117   4.332   5.884   7.688
   824G12  C01015118   4.260   5.899   7.807
   824G12  C01115119   4.121   5.935   7.801
   824G12  H00515120   4.066   5.956   7.892
   824G12  C01215121   4.060   5.954   7.680
   824G12  C01715122   3.919   5.996   7.665
   824G12  O00215123   3.835   5.899   7.617
   824G12  H00415124   3.774   5.962   7.582
   824G12  C01815125   3.880   6.122   7.701
   824G12  O00115126   3.971   6.200   7.754
   824G12  H00315127   4.043   6.141   7.767
   824G12  C01915128   3.743   6.178   7.679
   824G12  H00215129   3.677   6.142   7.758
   824G12  H00115130   3.765   6.284   7.679
   824G12  O00015131   3.700   6.124   7.551
   824G12  C01A15132   3.583   6.178   7.502
   824G12  C02K15133   3.524   6.124   7.385
   824G12  O00G15134   3.583   6.024   7.310
   824G12  C02M15135   3.640   6.078   7.194
   824G12  H01G15136   3.623   6.002   7.117
   824G12  H01F15137   3.748   6.090   7.206
   824G12  H01E15138   3.602   6.172   7.155
   824G12  C02J15139   3.399   6.170   7.339
   824G12  H01H15140   3.358   6.119   7.253
   824G12  C02I15141   3.327   6.277   7.404
   824G12  C02N15142   3.183   6.316   7.384
   824G12  H01M15143   3.149   6.401   7.440
   824G12  C02O15144   3.099   6.258   7.297
   824G12  H01L15145   3.142   6.186   7.229
   824G12  C02P15146   2.950   6.287   7.285
   824G12  H01K15147   2.933   6.291   7.177
   824G12  H01J15148   2.892   6.206   7.328
   824G12  O00H15149   2.903   6.411   7.337
   824G12  H01I15150   2.933   6.419   7.427
   824G12  C02H15151   3.390   6.323   7.523
   824G12  H01C15152   3.342   6.399   7.582
   824G12  C02L15153   3.510   6.276   7.574
   824G12  H01D15154   3.539   6.322   7.667
   824G12  C01315155   4.137   5.925   7.567
   824G12  H00015156   4.079   5.919   7.476
   824G12  C01415157   4.272   5.886   7.565
   824G12  C00F15158   4.344   5.851   7.453
   824G12  C00H15159   4.549   5.866   7.580
   824G12  C00I15160   4.691   5.872   7.590
   824G12  C00J15161   4.744   5.873   7.722
   824G12  C00Z15162   4.322   5.893   7.935
   824G12  C00Y15163   4.253   5.900   8.055
   824G12  H00615164   4.148   5.925   8.058
   824G12  C00X15165   4.316   5.878   8.179
   824G12  O00315166   4.251   5.878   8.303
   824G12  C01B15167   4.115   5.878   8.324
   824G12  H00915168   4.095   5.861   8.430
   824G12  H00815169   4.075   5.791   8.273
   824G12  H00715170   4.071   5.969   8.283
   824G12  C00W15171   4.452   5.835   8.184
   824G12  O00415172   4.508   5.819   8.300
   824G12  C01C15173   4.601   5.717   8.286
   824G12  H00A15174   4.578   5.630   8.345
   824G12  C00P15175   4.702   5.724   8.187
   824G12  C00O15176   4.823   5.644   8.194
   824G12  C01D15177   4.834   5.554   8.306
   824G12  H00S15178   4.762   5.559   8.386
   824G12  C01E15179   4.923   5.442   8.302
   824G12  O00815180   4.924   5.357   8.409
   824G12  C01V15181   4.937   5.425   8.528
   824G12  C01Z15182   5.071   5.496   8.544
   824G12  H00R15183   5.107   5.471   8.644
   824G12  H00Q15184   5.141   5.461   8.469
   824G12  O00915185   5.063   5.635   8.528
   824G12  H00P15186   5.026   5.655   8.443
   824G12  C01W15187   4.835   5.427   8.620
   824G12  H00O15188   4.753   5.359   8.602
   824G12  C01X15189   4.824   5.509   8.748
   824G12  H00N15190   4.817   5.451   8.841
   824G12  H00M15191   4.911   5.573   8.764
   824G12  C01Y15192   4.707   5.603   8.730
   824G12  C02D15193   4.587   5.584   8.796
   824G12  H01915194   4.585   5.502   8.867
   824G12  C02C15195   4.476   5.660   8.771
   824G12  H01A15196   4.387   5.637   8.827
   824G12  C02B15197   4.485   5.766   8.677
   824G12  O00E15198   4.377   5.843   8.643
   824G12  H01B15199   4.405   5.927   8.611
   824G12  C02F15200   4.613   5.795   8.623
   824G12  O00F15201   4.618   5.911   8.544
   824G12  C02G15202   4.745   5.939   8.484
   824G12  H01715203   4.771   5.866   8.407
   824G12  H01615204   4.817   5.951   8.565
   824G12  H01515205   4.741   6.042   8.449
   824G12  C02E15206   4.723   5.715   8.643
   824G12  H01815207   4.816   5.736   8.593
   824G12  C01F15208   5.012   5.426   8.186
   824G12  C01G15209   5.069   5.307   8.147
   824G12  H00L15210   5.066   5.221   8.212
   824G12  C01H15211   5.117   5.298   8.009
   824G12  H00B15212   5.140   5.198   7.974
   824G12  C01I15213   5.133   5.415   7.927
   824G12  C01U15214   5.034   5.542   8.106
   824G12  C00S15215   4.663   5.882   7.830
   824G12  C00K15216   4.861   5.798   7.754
   824G12  C00N15217   4.927   5.638   8.093
   824G12  C00015218   5.114   5.540   7.988
   824G12  C01J15219   5.120   5.444   7.785
   824G12  C01K15220   5.143   5.350   7.678
   824G12  C01P15221   5.211   5.226   7.673
   824G12  C01Q15222   5.296   5.182   7.784
   824G12  H00G15223   5.361   5.249   7.838
   824G12  C01R15224   5.300   5.046   7.807
   824G12  H00F15225   5.246   4.971   7.752
   824G12  C01S15226   5.373   4.994   7.930
   824G12  H00E15227   5.295   4.958   7.998
   824G12  H00D15228   5.436   4.911   7.898
   824G12  O00515229   5.460   5.082   7.999
   824G12  H00C15230   5.403   5.149   8.034
   824G12  C01O15231   5.210   5.143   7.563
   824G12  H00H15232   5.263   5.050   7.563
   824G12  C01N15233   5.141   5.178   7.448
   824G12  O00615234   5.160   5.094   7.339
   824G12  C01T15235   5.088   5.115   7.215
   824G12  H00K15236   5.108   5.211   7.167
   824G12  H00J15237   4.982   5.091   7.221
   824G12  H00I15238   5.139   5.038   7.156
   824G12  C01M15239   5.071   5.297   7.450
   824G12  C02015240   4.922   5.730   7.643
   824G12  C02115241   4.882   5.758   7.509
   824G12  C01L15242   5.073   5.390   7.563
   824G12  O00715243   4.999   5.325   7.339
   824G12  C02215244   4.895   5.670   7.404
   824G12  C02315245   4.763   5.831   7.477
   824G12  C00G15246   4.484   5.841   7.457
   824G12  C00E15247   4.278   5.794   7.341
   824G12  O00A15248   4.148   5.778   7.337
   824G12  C02415249   4.100   5.656   7.392
   824G12  H00V15250   4.140   5.572   7.335
   824G12  H00U15251   3.992   5.662   7.380
   824G12  H00T15252   4.123   5.658   7.499
   834G12  C00D15253   3.044   2.033   4.693
   834G12  O00B15254   2.966   1.965   4.599
   834G12  C02515255   2.978   1.827   4.590
   834G12  C02615256   3.035   1.775   4.462
   834G12  H00Y15257   2.985   1.813   4.373
   834G12  H00X15258   3.029   1.666   4.464
   834G12  O00C15259   3.171   1.819   4.459
   834G12  H00W15260   3.180   1.913   4.469
   834G12  C02715261   2.954   1.752   4.706
   834G12  O00D15262   2.912   1.808   4.819
   834G12  H00Z15263   2.896   1.900   4.807
   834G12  C02815264   2.982   1.611   4.726
   834G12  C02915265   2.903   1.527   4.803
   834G12  H01015266   2.813   1.567   4.846
   834G12  C02T15267   2.945   1.401   4.844
   834G12  H01O15268   2.872   1.348   4.902
   834G12  C02S15269   3.068   1.354   4.801
   834G12  O00J15270   3.114   1.237   4.851
   834G12  H01P15271   3.193   1.219   4.802
   834G12  C02R15272   3.144   1.436   4.723
   834G12  O00I15273   3.267   1.386   4.688
   834G12  C02Q15274   3.389   1.452   4.725
   834G12  H01N15275   3.376   1.554   4.689
   834G12  H01R15276   3.470   1.407   4.667
   834G12  H01Q15277   3.410   1.467   4.831
   834G12  C02A15278   3.100   1.561   4.674
   834G12  H01115279   3.158   1.621   4.605
   834G12  C00C15280   3.156   1.974   4.753
   834G12  H01215281   3.198   1.879   4.724
   834G12  C00B15282   3.223   2.032   4.865
   834G12  C00A15283   3.340   1.975   4.929
   834G12  C00915284   3.361   1.832   4.968
   834G12  C00815285   3.289   1.715   4.938
   834G12  H01315286   3.212   1.706   4.862
   834G12  C00715287   3.298   1.609   5.031
   834G12  H01415288   3.245   1.517   5.009
   834G12  C00615289   3.364   1.622   5.156
   834G12  C00515290   3.428   1.742   5.180
   834G12  C00415291   3.459   1.786   5.312
   834G12  C00315292   3.496   1.922   5.343
   834G12  C00215293   3.531   1.944   5.482
   834G12  C00115294   3.546   2.061   5.560
   834G12  C00M15295   3.485   2.193   5.543
   834G12  C00L15296   3.456   2.249   5.414
   834G12  C00R15297   3.362   2.351   5.385
   834G12  C00Q15298   3.277   2.431   5.467
   834G12  C00V15299   3.180   2.504   5.394
   834G12  C00U15300   3.158   2.490   5.254
   834G12  C00T15301   3.228   2.401   5.180
   834G12  C01615302   3.194   2.357   5.057
   834G12  C01515303   3.093   2.421   4.990
   834G12  C01015304   3.040   2.535   5.049
   834G12  C01115305   2.952   2.610   4.971
   834G12  H00515306   2.886   2.688   5.007
   834G12  C01215307   2.923   2.580   4.840
   834G12  C01715308   2.849   2.670   4.756
   834G12  O00215309   2.723   2.710   4.794
   834G12  H00415310   2.682   2.712   4.709
   834G12  C01815311   2.910   2.720   4.646
   834G12  O00115312   3.040   2.698   4.618
   834G12  H00315313   3.070   2.616   4.654
   834G12  C01915314   2.827   2.813   4.549
   834G12  H00215315   2.819   2.904   4.608
   834G12  H00115316   2.881   2.849   4.462
   834G12  O00015317   2.699   2.760   4.521
   834G12  C01A15318   2.698   2.637   4.456
   834G12  C02K15319   2.614   2.538   4.512
   834G12  O00G15320   2.542   2.576   4.621
   834G12  C02M15321   2.426   2.515   4.648
   834G12  H01G15322   2.359   2.534   4.564
   834G12  H01F15323   2.374   2.549   4.738
   834G12  H01E15324   2.443   2.408   4.646
   834G12  C02J15325   2.616   2.403   4.454
   834G12  H01H15326   2.549   2.326   4.488
   834G12  C02I15327   2.707   2.374   4.351
   834G12  C02N15328   2.715   2.252   4.276
   834G12  H01M15329   2.799   2.212   4.222
   834G12  C02O15330   2.604   2.178   4.269
   834G12  H01L15331   2.510   2.212   4.309
   834G12  C02P15332   2.596   2.050   4.188
   834G12  H01K15333   2.687   1.992   4.203
   834G12  H01J15334   2.516   1.979   4.207
   834G12  O00H15335   2.579   2.094   4.060
   834G12  H01I15336   2.499   2.053   4.031
   834G12  C02H15337   2.791   2.478   4.313
   834G12  H01C15338   2.855   2.457   4.228
   834G12  C02L15339   2.785   2.608   4.352
   834G12  H01D15340   2.856   2.675   4.307
   834G12  C01315341   2.973   2.454   4.794
   834G12  H00015342   2.956   2.433   4.689
   834G12  C01415343   3.049   2.371   4.867
   834G12  C00F15344   3.082   2.239   4.833
   834G12  C00H15345   3.252   2.241   5.003
   834G12  C00I15346   3.359   2.180   5.069
   834G12  C00J15347   3.401   2.240   5.189
   834G12  C00Z15348   3.062   2.562   5.185
   834G12  C00Y15349   2.980   2.639   5.262
   834G12  H00615350   2.912   2.706   5.212
   834G12  C00X15351   2.991   2.651   5.400
   834G12  O00315352   2.901   2.730   5.473
   834G12  C01B15353   2.778   2.769   5.416
   834G12  H00915354   2.726   2.832   5.488
   834G12  H00815355   2.715   2.685   5.388
   834G12  H00715356   2.795   2.841   5.335
   834G12  C00W15357   3.089   2.580   5.466
   834G12  O00415358   3.080   2.590   5.605
   834G12  C01C15359   3.179   2.524   5.672
   834G12  H00A15360   3.196   2.559   5.772
   834G12  C00P15361   3.261   2.427   5.609
   834G12  C00O15362   3.309   2.321   5.692
   834G12  C01D15363   3.244   2.297   5.814
   834G12  H00S15364   3.167   2.355   5.865
   834G12  C01E15365   3.249   2.179   5.885
   834G12  O00815366   3.175   2.155   5.997
   834G12  C01V15367   3.043   2.194   6.017
   834G12  C01Z15368   3.008   2.218   6.156
   834G12  H00R15369   3.036   2.322   6.176
   834G12  H00Q15370   2.901   2.213   6.174
   834G12  O00915371   3.076   2.128   6.244
   834G12  H00P15372   3.142   2.088   6.189
   834G12  C01W15373   2.957   2.209   5.913
   834G12  H00O15374   2.989   2.191   5.811
   834G12  C01X15375   2.812   2.263   5.916
   834G12  H00N15376   2.733   2.217   5.856
   834G12  H00M15377   2.764   2.246   6.012
   834G12  C01Y15378   2.807   2.412   5.889
   834G12  C02D15379   2.748   2.460   5.772
   834G12  H01915380   2.696   2.395   5.703
   834G12  C02C15381   2.746   2.597   5.745
   834G12  H01A15382   2.698   2.633   5.655
   834G12  C02B15383   2.784   2.688   5.841
   834G12  O00E15384   2.777   2.820   5.813
   834G12  H01B15385   2.752   2.874   5.887
   834G12  C02F15386   2.819   2.643   5.973
   834G12  O00F15387   2.845   2.742   6.066
   834G12  C02G15388   2.930   2.707   6.178
   834G12  H01715389   2.953   2.800   6.229
   834G12  H01615390   3.029   2.669   6.152
   834G12  H01515391   2.890   2.644   6.258
   834G12  C02E15392   2.839   2.501   5.996
   834G12  H01815393   2.866   2.463   6.093
   834G12  C01F15394   3.334   2.077   5.842
   834G12  C01G15395   3.323   1.938   5.886
   834G12  H00L15396   3.245   1.906   5.954
   834G12  C01H15397   3.395   1.845   5.804
   834G12  H00B15398   3.370   1.740   5.811
   834G12  C01I15399   3.493   1.887   5.707
   834G12  C01U15400   3.427   2.113   5.748
   834G12  C00S15401   3.338   2.345   5.248
   834G12  C00K15402   3.464   2.168   5.292
   834G12  C00N15403   3.405   2.221   5.660
   834G12  C00015404   3.523   2.023   5.695
   834G12  C01J15405   3.509   1.839   5.576
   834G12  C01K15406   3.486   1.700   5.548
   834G12  C01P15407   3.504   1.590   5.631
   834G12  C01Q15408   3.565   1.600   5.763
   834G12  H00G15409   3.644   1.670   5.785
   834G12  C01R15410   3.512   1.521   5.857
   834G12  H00F15411   3.442   1.440   5.840
   834G12  C01S15412   3.569   1.515   5.997
   834G12  H00E15413   3.603   1.415   6.022
   834G12  H00D15414   3.656   1.579   6.011
   834G12  O00515415   3.478   1.580   6.083
   834G12  H00C15416   3.433   1.645   6.031
   834G12  C01O15417   3.470   1.464   5.582
   834G12  H00H15418   3.485   1.376   5.642
   834G12  C01N15419   3.415   1.441   5.454
   834G12  O00615420   3.378   1.311   5.433
   834G12  C01T15421   3.363   1.264   5.300
   834G12  H00K15422   3.281   1.318   5.255
   834G12  H00J15423   3.341   1.157   5.297
   834G12  H00I15424   3.454   1.282   5.243
   834G12  C01M15425   3.398   1.553   5.376
   834G12  C02015426   3.492   2.032   5.251
   834G12  C02115427   3.475   1.979   5.116
   834G12  C01L15428   3.450   1.682   5.411
   834G12  O00715429   3.345   1.538   5.252
   834G12  C02215430   3.446   1.845   5.086
   834G12  C02315431   3.408   2.057   5.018
   834G12  C00G15432   3.190   2.167   4.894
   834G12  C00E15433   3.014   2.170   4.726
   834G12  O00A15434   2.913   2.226   4.646
   834G12  C02415435   2.776   2.206   4.705
   834G12  H00V15436   2.770   2.254   4.803
   834G12  H00U15437   2.764   2.098   4.712
   834G12  H00T15438   2.708   2.254   4.635
   844G12  C00D15439   1.771   1.127   8.263
   844G12  O00B15440   1.680   1.109   8.365
   844G12  C02515441   1.713   1.167   8.488
   844G12  C02615442   1.749   1.055   8.586
   844G12  H00Y15443   1.675   0.976   8.573
   844G12  H00X15444   1.733   1.085   8.689
   844G12  O00C15445   1.889   1.013   8.587
   844G12  H00W15446   1.914   0.977   8.504
   844G12  C02715447   1.697   1.300   8.526
   844G12  O00D15448   1.650   1.384   8.428
   844G12  H00Z15449   1.600   1.325   8.375
   844G12  C02815450   1.751   1.349   8.649
   844G12  C02915451   1.677   1.432   8.735
   844G12  H01015452   1.576   1.461   8.710
   844G12  C02T15453   1.742   1.464   8.857
   844G12  H01O15454   1.685   1.520   8.930
   844G12  C02S15455   1.873   1.422   8.898
   844G12  O00J15456   1.929   1.459   9.015
   844G12  H01P15457   2.014   1.417   9.015
   844G12  C02R15458   1.946   1.354   8.799
   844G12  O00I15459   2.074   1.330   8.838
   844G12  C02Q15460   2.166   1.289   8.736
   844G12  H01N15461   2.186   1.366   8.660
   844G12  H01R15462   2.134   1.195   8.690
   844G12  H01Q15463   2.264   1.276   8.781
   844G12  C02A15464   1.889   1.316   8.676
   844G12  H01115465   1.939   1.261   8.597
   844G12  C00C15466   1.902   1.179   8.282
   844G12  H01215467   1.944   1.221   8.372
   844G12  C00B15468   1.990   1.182   8.171
   844G12  C00A15469   2.133   1.225   8.181
   844G12  C00915470   2.184   1.333   8.254
   844G12  C00815471   2.141   1.421   8.357
   844G12  H01315472   2.041   1.403   8.395
   844G12  C00715473   2.209   1.544   8.382
   844G12  H01415474   2.167   1.611   8.456
   844G12  C00615475   2.313   1.587   8.303
   844G12  C00515476   2.352   1.502   8.197
   844G12  C00415477   2.436   1.552   8.093
   844G12  C00315478   2.456   1.467   7.981
   844G12  C00215479   2.543   1.517   7.877
   844G12  C00115480   2.584   1.464   7.748
   844G12  C00M15481   2.490   1.405   7.653
   844G12  C00L15482   2.386   1.322   7.694
   844G12  C00R15483   2.270   1.281   7.618
   844G12  C00Q15484   2.220   1.310   7.486
   844G12  C00V15485   2.096   1.250   7.462
   844G12  C00U15486   2.020   1.184   7.559
   844G12  C00T15487   2.062   1.172   7.688
   844G12  C01615488   1.984   1.141   7.797
   844G12  C01515489   1.845   1.110   7.777
   844G12  C01015490   1.804   1.100   7.645
   844G12  C01115491   1.674   1.043   7.621
   844G12  H00515492   1.645   1.012   7.521
   844G12  C01215493   1.581   1.022   7.722
   844G12  C01715494   1.450   0.961   7.697
   844G12  O00215495   1.414   0.860   7.784
   844G12  H00415496   1.483   0.838   7.846
   844G12  C01815497   1.373   1.019   7.605
   844G12  O00115498   1.411   1.120   7.530
   844G12  H00315499   1.332   1.157   7.493
   844G12  C01915500   1.240   0.956   7.554
   844G12  H00215501   1.249   0.870   7.488
   844G12  H00115502   1.179   0.905   7.628
   844G12  O00015503   1.161   1.070   7.506
   844G12  C01A15504   1.061   1.050   7.413
   844G12  C02K15505   0.983   0.932   7.394
   844G12  O00G15506   1.015   0.822   7.472
   844G12  C02M15507   0.972   0.698   7.434
   844G12  H01G15508   1.014   0.663   7.340
   844G12  H01F15509   0.863   0.699   7.425
   844G12  H01E15510   1.002   0.629   7.512
   844G12  C02J15511   0.882   0.925   7.295
   844G12  H01H15512   0.813   0.842   7.299
   844G12  C02I15513   0.846   1.046   7.228
   844G12  C02N15514   0.747   1.059   7.125
   844G12  H01M15515   0.769   1.093   7.025
   844G12  C02O15516   0.616   1.038   7.150
   844G12  H01L15517   0.599   0.997   7.248
   844G12  C02P15518   0.503   1.045   7.050
   844G12  H01K15519   0.550   1.082   6.958
   844G12  H01J15520   0.453   0.949   7.037
   844G12  O00H15521   0.403   1.138   7.074
   844G12  H01I15522   0.325   1.123   7.022
   844G12  C02H15523   0.931   1.158   7.236
   844G12  H01C15524   0.918   1.243   7.171
   844G12  C02L15525   1.034   1.159   7.337
   844G12  H01D15526   1.094   1.249   7.333
   844G12  C01315527   1.625   1.059   7.856
   844G12  H00015528   1.547   1.061   7.930
   844G12  C01415529   1.762   1.082   7.886
   844G12  C00F15530   1.816   1.095   8.020
   844G12  C00H15531   2.034   1.146   7.932
   844G12  C00I15532   2.176   1.174   7.949
   844G12  C00J15533   2.247   1.202   7.834
   844G12  C00Z15534   1.891   1.141   7.541
   844G12  C00Y15535   1.845   1.150   7.410
   844G12  H00615536   1.741   1.125   7.395
   844G12  C00X15537   1.924   1.204   7.298
   844G12  O00315538   1.872   1.228   7.169
   844G12  C01B15539   1.762   1.151   7.124
   844G12  H00915540   1.733   1.186   7.025
   844G12  H00815541   1.672   1.146   7.186
   844G12  H00715542   1.804   1.052   7.112
   844G12  C00W15543   2.044   1.262   7.332
   844G12  O00415544   2.107   1.334   7.233
   844G12  C01C15545   2.234   1.384   7.256
   844G12  H00A15546   2.279   1.435   7.172
   844G12  C00P15547   2.287   1.392   7.385
   844G12  C00O15548   2.399   1.479   7.412
   844G12  C01D15549   2.421   1.589   7.321
   844G12  H00S15550   2.350   1.603   7.241
   844G12  C01E15551   2.503   1.702   7.358
   844G12  O00815552   2.489   1.815   7.273
   844G12  C01V15553   2.594   1.829   7.184
   844G12  C01Z15554   2.545   1.854   7.050
   844G12  H00R15555   2.609   1.800   6.980
   844G12  H00Q15556   2.443   1.815   7.053
   844G12  O00915557   2.549   1.989   7.021
   844G12  H00P15558   2.466   2.029   7.044
   844G12  C01W15559   2.722   1.830   7.218
   844G12  H00O15560   2.738   1.825   7.324
   844G12  C01X15561   2.845   1.847   7.130
   844G12  H00N15562   2.821   1.900   7.038
   844G12  H00M15563   2.922   1.905   7.182
   844G12  C01Y15564   2.909   1.712   7.096
   844G12  C02D15565   2.912   1.666   6.962
   844G12  H01915566   2.883   1.735   6.884
   844G12  C02C15567   2.961   1.538   6.928
   844G12  H01A15568   2.970   1.503   6.826
   844G12  C02B15569   3.001   1.450   7.033
   844G12  O00E15570   3.037   1.327   6.999
   844G12  H01B15571   3.050   1.276   7.077
   844G12  C02F15572   2.992   1.485   7.173
   844G12  O00F15573   3.027   1.394   7.267
   844G12  C02G15574   3.015   1.439   7.402
   844G12  H01715575   2.907   1.447   7.414
   844G12  H01615576   3.062   1.533   7.431
   844G12  H01515577   3.040   1.358   7.471
   844G12  C02E15578   2.953   1.624   7.202
   844G12  H01815579   2.948   1.661   7.303
   844G12  C01F15580   2.568   1.706   7.484
   844G12  C01G15581   2.607   1.826   7.559
   844G12  H00L15582   2.590   1.920   7.507
   844G12  C01H15583   2.620   1.821   7.700
   844G12  H00B15584   2.584   1.909   7.751
   844G12  C01I15585   2.633   1.693   7.764
   844G12  C01U15586   2.582   1.584   7.551
   844G12  C00S15587   2.196   1.203   7.704
   844G12  C00K15588   2.358   1.291   7.828
   844G12  C00N15589   2.482   1.480   7.527
   844G12  C00015590   2.642   1.577   7.683
   844G12  C01J15591   2.583   1.650   7.889
   844G12  C01K15592   2.571   1.743   8.003
   844G12  C01P15593   2.622   1.878   8.027
   844G12  C01Q15594   2.731   1.938   7.947
   844G12  H00G15595   2.743   2.037   7.905
   844G12  C01R15596   2.836   1.860   7.914
   844G12  H00F15597   2.849   1.760   7.952
   844G12  C01S15598   2.955   1.884   7.825
   844G12  H00E15599   2.958   1.981   7.775
   844G12  H00D15600   3.051   1.866   7.873
   844G12  O00515601   2.950   1.793   7.719
   844G12  H00C15602   2.867   1.781   7.676
   844G12  C01O15603   2.588   1.943   8.146
   844G12  H00H15604   2.632   2.038   8.173
   844G12  C01N15605   2.495   1.892   8.239
   844G12  O00615606   2.450   1.974   8.348
   844G12  C01T15607   2.457   2.114   8.334
   844G12  H00K15608   2.436   2.151   8.234
   844G12  H00J15609   2.549   2.157   8.374
   844G12  H00I15610   2.378   2.159   8.395
   844G12  C01M15611   2.454   1.757   8.221
   844G12  C02015612   2.384   1.343   7.963
   844G12  C02115613   2.332   1.286   8.080
   844G12  C01L15614   2.489   1.683   8.103
   844G12  O00715615   2.364   1.714   8.311
   844G12  C02215616   2.306   1.369   8.188
   844G12  C02315617   2.217   1.205   8.077
   844G12  C00G15618   1.951   1.137   8.044
   844G12  C00E15619   1.735   1.080   8.138
   844G12  O00A15620   1.618   1.003   8.137
   844G12  C02415621   1.644   0.869   8.180
   844G12  H00V15622   1.569   0.800   8.143
   844G12  H00U15623   1.664   0.863   8.287
   844G12  H00T15624   1.738   0.836   8.137
   854G12  C00D15625   1.312   1.631   4.160
   854G12  O00B15626   1.232   1.527   4.205
   854G12  C02515627   1.267   1.449   4.314
   854G12  C02615628   1.382   1.349   4.294
   854G12  H00Y15629   1.380   1.302   4.195
   854G12  H00X15630   1.367   1.272   4.369
   854G12  O00C15631   1.505   1.420   4.314
   854G12  H00W15632   1.566   1.349   4.323
   854G12  C02715633   1.204   1.486   4.423
   854G12  O00D15634   1.116   1.589   4.413
   854G12  H00Z15635   1.109   1.601   4.320
   854G12  C02815636   1.221   1.438   4.559
   854G12  C02915637   1.347   1.404   4.607
   854G12  H01015638   1.439   1.415   4.553
   854G12  C02T15639   1.364   1.341   4.735
   854G12  H01O15640   1.458   1.318   4.782
   854G12  C02S15641   1.246   1.330   4.817
   854G12  O00J15642   1.253   1.280   4.941
   854G12  H01P15643   1.166   1.265   4.974
   854G12  C02R15644   1.117   1.353   4.761
   854G12  O00I15645   1.008   1.316   4.829
   854G12  C02Q15646   0.893   1.298   4.758
   854G12  H01N15647   0.860   1.400   4.742
   854G12  H01R15648   0.820   1.248   4.822
   854G12  H01Q15649   0.916   1.233   4.673
   854G12  C02A15650   1.103   1.417   4.640
   854G12  H01115651   1.005   1.426   4.596
   854G12  C00C15652   1.395   1.694   4.248
   854G12  H01215653   1.396   1.659   4.350
   854G12  C00B15654   1.497   1.778   4.213
   854G12  C00A15655   1.599   1.843   4.295
   854G12  C00915656   1.593   1.876   4.433
   854G12  C00815657   1.493   1.871   4.532
   854G12  H01315658   1.408   1.807   4.512
   854G12  C00715659   1.510   1.957   4.648
   854G12  H01415660   1.445   1.949   4.734
   854G12  C00615661   1.603   2.067   4.649
   854G12  C00515662   1.687   2.071   4.536
   854G12  C00415663   1.772   2.184   4.517
   854G12  C00315664   1.848   2.192   4.392
   854G12  C00215665   1.923   2.318   4.374
   854G12  C00115666   2.007   2.366   4.265
   854G12  C00M15667   1.962   2.359   4.123
   854G12  C00L15668   1.907   2.244   4.073
   854G12  C00R15669   1.840   2.240   3.948
   854G12  C00Q15670   1.811   2.339   3.848
   854G12  C00V15671   1.723   2.292   3.750
   854G12  C00U15672   1.647   2.171   3.760
   854G12  C00T15673   1.663   2.086   3.867
   854G12  C01615674   1.580   1.982   3.909
   854G12  C01515675   1.477   1.952   3.818
   854G12  C01015676   1.467   2.025   3.696
   854G12  C01115677   1.373   1.982   3.598
   854G12  H00515678   1.360   2.038   3.507
   854G12  C01215679   1.287   1.878   3.621
   854G12  C01715680   1.174   1.835   3.543
   854G12  O00215681   1.073   1.918   3.501
   854G12  H00415682   1.010   1.877   3.445
   854G12  C01815683   1.169   1.697   3.523
   854G12  O00115684   1.274   1.614   3.559
   854G12  H00315685   1.344   1.667   3.593
   854G12  C01915686   1.056   1.615   3.463
   854G12  H00215687   1.088   1.529   3.404
   854G12  H00115688   1.002   1.564   3.542
   854G12  O00015689   0.970   1.699   3.388
   854G12  C01A15690   0.999   1.733   3.257
   854G12  C02K15691   0.915   1.835   3.202
   854G12  O00G15692   0.812   1.876   3.272
   854G12  C02M15693   0.711   1.954   3.218
   854G12  H01G15694   0.743   2.058   3.217
   854G12  H01F15695   0.622   1.959   3.280
   854G12  H01E15696   0.672   1.916   3.124
   854G12  C02J15697   0.949   1.877   3.071
   854G12  H01H15698   0.894   1.964   3.039
   854G12  C02I15699   1.056   1.824   2.992
   854G12  C02N15700   1.088   1.888   2.863
   854G12  H01M15701   1.015   1.948   2.811
   854G12  C02O15702   1.207   1.879   2.808
   854G12  H01L15703   1.288   1.834   2.864
   854G12  C02P15704   1.252   1.947   2.675
   854G12  H01K15705   1.256   1.867   2.601
   854G12  H01J15706   1.208   2.042   2.647
   854G12  O00H15707   1.383   1.981   2.694
   854G12  H01I15708   1.405   2.048   2.631
   854G12  C02H15709   1.121   1.715   3.045
   854G12  H01C15710   1.194   1.674   2.977
   854G12  C02L15711   1.105   1.674   3.178
   854G12  H01D15712   1.162   1.592   3.219
   854G12  C01315713   1.296   1.822   3.751
   854G12  H00015714   1.217   1.755   3.784
   854G12  C01415715   1.392   1.848   3.854
   854G12  C00F15716   1.402   1.782   3.985
   854G12  C00H15717   1.597   1.915   4.030
   854G12  C00I15718   1.711   1.945   4.110
   854G12  C00J15719   1.800   2.046   4.061
   854G12  C00Z15720   1.547   2.139   3.667
   854G12  C00Y15721   1.515   2.234   3.566
   854G12  H00615722   1.433   2.218   3.497
   854G12  C00X15723   1.589   2.347   3.546
   854G12  O00315724   1.579   2.432   3.439
   854G12  C01B15725   1.496   2.395   3.328
   854G12  H00915726   1.518   2.450   3.237
   854G12  H00815727   1.390   2.405   3.353
   854G12  H00715728   1.509   2.291   3.299
   854G12  C00W15729   1.689   2.379   3.639
   854G12  O00415730   1.749   2.500   3.615
   854G12  C01C15731   1.830   2.545   3.712
   854G12  H00A15732   1.889   2.633   3.694
   854G12  C00P15733   1.840   2.481   3.841
   854G12  C00O15734   1.908   2.553   3.948
   854G12  C01D15735   1.897   2.691   3.949
   854G12  H00S15736   1.872   2.750   3.862
   854G12  C01E15737   1.905   2.775   4.066
   854G12  O00815738   1.856   2.899   4.056
   854G12  C01V15739   1.947   3.001   4.087
   854G12  C01Z15740   1.899   3.138   4.043
   854G12  H00R15741   1.793   3.139   4.069
   854G12  H00Q15742   1.953   3.221   4.088
   854G12  O00915743   1.917   3.137   3.904
   854G12  H00P15744   1.856   3.081   3.860
   854G12  C01W15745   2.069   2.989   4.142
   854G12  H00O15746   2.101   2.890   4.171
   854G12  C01X15747   2.159   3.103   4.187
   854G12  H00N15748   2.256   3.055   4.204
   854G12  H00M15749   2.181   3.170   4.104
   854G12  C01Y15750   2.128   3.172   4.321
   854G12  C02D15751   2.222   3.263   4.369
   854G12  H01915752   2.309   3.292   4.312
   854G12  C02C15753   2.203   3.329   4.488
   854G12  H01A15754   2.287   3.388   4.522
   854G12  C02B15755   2.095   3.296   4.572
   854G12  O00E15756   2.087   3.353   4.699
   854G12  H01B15757   2.004   3.332   4.741
   854G12  C02F15758   2.004   3.201   4.534
   854G12  O00F15759   1.907   3.160   4.627
   854G12  C02G15760   1.818   3.048   4.595
   854G12  H01715761   1.757   3.073   4.508
   854G12  H01615762   1.760   3.038   4.687
   854G12  H01515763   1.872   2.958   4.567
   854G12  C02E15764   2.020   3.136   4.405
   854G12  H01815765   1.951   3.059   4.374
   854G12  C01F15766   1.925   2.707   4.192
   854G12  C01G15767   1.889   2.759   4.322
   854G12  H00L15768   1.835   2.853   4.321
   854G12  C01H15769   1.907   2.673   4.437
   854G12  H00B15770   1.865   2.702   4.532
   854G12  C01I15771   1.959   2.542   4.420
   854G12  C01U15772   1.978   2.576   4.186
   854G12  C00S15773   1.772   2.114   3.946
   854G12  C00K15774   1.867   2.133   4.154
   854G12  C00N15775   1.952   2.493   4.072
   854G12  C00015776   2.020   2.503   4.296
   854G12  C01J15777   1.927   2.414   4.483
   854G12  C01K15778   1.855   2.398   4.607
   854G12  C01P15779   1.858   2.494   4.718
   854G12  C01Q15780   1.964   2.594   4.719
   854G12  H00G15781   2.062   2.567   4.681
   854G12  C01R15782   1.944   2.711   4.780
   854G12  H00F15783   1.849   2.728   4.828
   854G12  C01S15784   2.056   2.810   4.792
   854G12  H00E15785   2.132   2.800   4.715
   854G12  H00D15786   2.023   2.914   4.793
   854G12  O00515787   2.123   2.791   4.913
   854G12  H00C15788   2.184   2.856   4.943
   854G12  C01O15789   1.773   2.470   4.827
   854G12  H00H15790   1.777   2.543   4.907
   854G12  C01N15791   1.691   2.364   4.844
   854G12  O00615792   1.620   2.355   4.964
   854G12  C01T15793   1.559   2.233   5.001
   854G12  H00K15794   1.536   2.235   5.107
   854G12  H00J15795   1.611   2.139   4.983
   854G12  H00I15796   1.464   2.235   4.947
   854G12  C01M15797   1.696   2.264   4.743
   854G12  C02015798   1.844   2.094   4.287
   854G12  C02115799   1.783   1.973   4.327
   854G12  C01L15800   1.778   2.283   4.617
   854G12  O00715801   1.605   2.158   4.745
   854G12  C02215802   1.704   1.968   4.440
   854G12  C02315803   1.715   1.891   4.235
   854G12  C00G15804   1.497   1.826   4.077
   854G12  C00E15805   1.318   1.672   4.025
   854G12  O00A15806   1.241   1.608   3.926
   854G12  C02415807   1.150   1.499   3.941
   854G12  H00V15808   1.205   1.417   3.987
   854G12  H00U15809   1.116   1.475   3.841
   854G12  H00T15810   1.067   1.520   4.009
   864G12  C00D15811   3.821   4.414   5.797
   864G12  O00B15812   3.903   4.522   5.777
   864G12  C02515813   4.030   4.503   5.716
   864G12  C02615814   4.150   4.507   5.812
   864G12  H00Y15815   4.174   4.600   5.863
   864G12  H00X15816   4.239   4.473   5.759
   864G12  O00C15817   4.122   4.414   5.919
   864G12  H00W15818   4.037   4.434   5.954
   864G12  C02715819   4.038   4.507   5.586
   864G12  O00D15820   3.925   4.495   5.518
   864G12  H00Z15821   3.854   4.505   5.579
   864G12  C02815822   4.161   4.519   5.507
   864G12  C02915823   4.171   4.456   5.381
   864G12  H01015824   4.083   4.408   5.341
   864G12  C02T15825   4.287   4.468   5.303
   864G12  H01O15826   4.288   4.408   5.213
   864G12  C02S15827   4.403   4.532   5.360
   864G12  O00J15828   4.515   4.530   5.284
   864G12  H01P15829   4.586   4.566   5.335
   864G12  C02R15830   4.394   4.602   5.484
   864G12  O00I15831   4.500   4.682   5.516
   864G12  C02Q15832   4.499   4.750   5.641
   864G12  H01N15833   4.499   4.677   5.722
   864G12  H01R15834   4.411   4.815   5.641
   864G12  H01Q15835   4.588   4.814   5.647
   864G12  C02A15836   4.267   4.604   5.547
   864G12  H01115837   4.253   4.667   5.633
   864G12  C00C15838   3.834   4.289   5.741
   864G12  H01215839   3.920   4.267   5.680
   864G12  C00B15840   3.736   4.190   5.762
   864G12  C00A15841   3.724   4.058   5.699
   864G12  C00915842   3.780   4.007   5.573
   864G12  C00815843   3.861   4.061   5.470
   864G12  H01315844   3.930   4.141   5.493
   864G12  C00715845   3.842   4.017   5.336
   864G12  H01415846   3.888   4.075   5.257
   864G12  C00615847   3.749   3.920   5.306
   864G12  C00515848   3.668   3.870   5.412
   864G12  C00415849   3.561   3.781   5.391
   864G12  C00315850   3.470   3.751   5.499
   864G12  C00215851   3.349   3.685   5.458
   864G12  C00115852   3.232   3.646   5.534
   864G12  C00M15853   3.166   3.724   5.637
   864G12  C00L15854   3.236   3.796   5.736
   864G12  C00R15855   3.181   3.890   5.829
   864G12  C00Q15856   3.046   3.951   5.841
   864G12  C00V15857   3.043   4.064   5.931
   864G12  C00U15858   3.159   4.125   5.977
   864G12  C00T15859   3.285   4.087   5.936
   864G12  C01615860   3.400   4.168   5.933
   864G12  C01515861   3.393   4.291   5.998
   864G12  C01015862   3.274   4.325   6.058
   864G12  C01115863   3.281   4.441   6.144
   864G12  H00515864   3.198   4.456   6.212
   864G12  C01215865   3.397   4.516   6.157
   864G12  C01715866   3.399   4.634   6.249
   864G12  O00215867   3.333   4.628   6.367
   864G12  H00415868   3.396   4.669   6.425
   864G12  C01815869   3.468   4.747   6.222
   864G12  O00115870   3.526   4.761   6.098
   864G12  H00315871   3.524   4.679   6.050
   864G12  C01915872   3.492   4.861   6.311
   864G12  H00215873   3.591   4.900   6.289
   864G12  H00115874   3.423   4.939   6.281
   864G12  O00015875   3.497   4.827   6.450
   864G12  C01A15876   3.551   4.922   6.540
   864G12  C02K15877   3.568   5.057   6.511
   864G12  O00G15878   3.531   5.117   6.395
   864G12  C02M15879   3.524   5.256   6.382
   864G12  H01G15880   3.468   5.310   6.458
   864G12  H01F15881   3.485   5.272   6.281
   864G12  H01E15882   3.628   5.287   6.378
   864G12  C02J15883   3.619   5.141   6.615
   864G12  H01H15884   3.642   5.246   6.603
   864G12  C02I15885   3.658   5.081   6.743
   864G12  C02N15886   3.697   5.160   6.859
   864G12  H01M15887   3.665   5.156   6.962
   864G12  C02O15888   3.778   5.265   6.830
   864G12  H01L15889   3.810   5.286   6.730
   864G12  C02P15890   3.826   5.363   6.929
   864G12  H01K15891   3.780   5.461   6.915
   864G12  H01J15892   3.797   5.336   7.030
   864G12  O00H15893   3.968   5.381   6.908
   864G12  H01I15894   4.009   5.363   6.991
   864G12  C02H15895   3.630   4.953   6.773
   864G12  H01C15896   3.655   4.913   6.871
   864G12  C02L15897   3.585   4.870   6.666
   864G12  H01D15898   3.561   4.767   6.687
   864G12  C01315899   3.511   4.477   6.081
   864G12  H00015900   3.607   4.522   6.100
   864G12  C01415901   3.506   4.370   5.994
   864G12  C00F15902   3.614   4.340   5.905
   864G12  C00H15903   3.517   4.127   5.869
   864G12  C00I15904   3.525   3.995   5.822
   864G12  C00J15905   3.408   3.916   5.827
   864G12  C00Z15906   3.156   4.250   6.039
   864G12  C00Y15907   3.033   4.295   6.090
   864G12  H00615908   3.018   4.383   6.151
   864G12  C00X15909   2.916   4.232   6.051
   864G12  O00315910   2.800   4.262   6.107
   864G12  C01B15911   2.723   4.339   6.021
   864G12  H00915912   2.634   4.286   5.990
   864G12  H00815913   2.763   4.389   5.932
   864G12  H00715914   2.676   4.422   6.074
   864G12  C00W15915   2.921   4.119   5.967
   864G12  O00415916   2.806   4.062   5.928
   864G12  C01C15917   2.815   4.006   5.799
   864G12  H00A15918   2.728   3.953   5.762
   864G12  C00P15919   2.930   3.935   5.758
   864G12  C00O15920   2.936   3.861   5.631
   864G12  C01D15921   2.846   3.906   5.532
   864G12  H00S15922   2.778   3.988   5.547
   864G12  C01E15923   2.858   3.864   5.400
   864G12  O00815924   2.794   3.924   5.304
   864G12  C01V15925   2.657   3.947   5.314
   864G12  C01Z15926   2.630   4.093   5.289
   864G12  H00R15927   2.533   4.110   5.242
   864G12  H00Q15928   2.637   4.148   5.383
   864G12  O00915929   2.728   4.142   5.204
   864G12  H00P15930   2.782   4.068   5.180
   864G12  C01W15931   2.564   3.852   5.355
   864G12  H00O15932   2.598   3.751   5.375
   864G12  C01X15933   2.418   3.876   5.381
   864G12  H00N15934   2.402   3.831   5.479
   864G12  H00M15935   2.401   3.983   5.382
   864G12  C01Y15936   2.326   3.815   5.274
   864G12  C02D15937   2.256   3.894   5.181
   864G12  H01915938   2.261   4.002   5.187
   864G12  C02C15939   2.180   3.834   5.083
   864G12  H01A15940   2.136   3.900   5.009
   864G12  C02B15941   2.163   3.695   5.081
   864G12  O00E15942   2.081   3.635   4.984
   864G12  H01B15943   2.077   3.546   5.016
   864G12  C02F15944   2.231   3.614   5.178
   864G12  O00F15945   2.208   3.480   5.172
   864G12  C02G15946   2.283   3.388   5.260
   864G12  H01715947   2.258   3.383   5.366
   864G12  H01615948   2.388   3.414   5.261
   864G12  H01515949   2.274   3.286   5.222
   864G12  C02E15950   2.311   3.674   5.276
   864G12  H01815951   2.360   3.615   5.352
   864G12  C01F15952   2.948   3.763   5.367
   864G12  C01G15953   2.978   3.722   5.234
   864G12  H00L15954   2.924   3.770   5.153
   864G12  C01H15955   3.103   3.655   5.203
   864G12  H00B15956   3.137   3.652   5.100
   864G12  C01I15957   3.187   3.626   5.308
   864G12  C01U15958   3.023   3.699   5.465
   864G12  C00S15959   3.292   3.951   5.889
   864G12  C00K15960   3.377   3.819   5.723
   864G12  C00N15961   3.040   3.772   5.589
   864G12  C00015962   3.134   3.612   5.437
   864G12  C01J15963   3.329   3.650   5.318
   864G12  C01K15964   3.427   3.656   5.216
   864G12  C01P15965   3.423   3.607   5.082
   864G12  C01Q15966   3.326   3.509   5.041
   864G12  H00G15967   3.300   3.426   5.105
   864G12  C01R15968   3.274   3.499   4.916
   864G12  H00F15969   3.299   3.571   4.840
   864G12  C01S15970   3.186   3.386   4.864
   864G12  H00E15971   3.126   3.342   4.943
   864G12  H00D15972   3.113   3.434   4.798
   864G12  O00515973   3.265   3.285   4.807
   864G12  H00C15974   3.275   3.304   4.714
   864G12  C01O15975   3.522   3.646   4.985
   864G12  H00H15976   3.518   3.604   4.885
   864G12  C01N15977   3.620   3.736   5.019
   864G12  O00615978   3.714   3.777   4.929
   864G12  C01T15979   3.715   3.737   4.788
   864G12  H00K15980   3.722   3.629   4.779
   864G12  H00J15981   3.785   3.791   4.724
   864G12  H00I15982   3.621   3.761   4.738
   864G12  C01M15983   3.630   3.779   5.155
   864G12  C02015984   3.485   3.802   5.630
   864G12  C02115985   3.610   3.864   5.650
   864G12  C01L15986   3.536   3.734   5.258
   864G12  O00715987   3.724   3.877   5.180
   864G12  C02215988   3.698   3.894   5.548
   864G12  C02315989   3.639   3.960   5.753
   864G12  C00G15990   3.625   4.216   5.847
   864G12  C00E15991   3.709   4.443   5.871
   864G12  O00A15992   3.692   4.575   5.911
   864G12  C02415993   3.619   4.657   5.820
   864G12  H00V15994   3.661   4.656   5.720
   864G12  H00U15995   3.618   4.762   5.849
   864G12  H00T15996   3.518   4.618   5.818
   874G12  C00D15997   4.377   1.046   4.838
   874G12  O00B15998   4.253   1.000   4.787
   874G12  C02515999   4.261   0.893   4.706
   874G12  C02616000   4.293   0.761   4.767
   874G12  H00Y16001   4.206   0.697   4.782
   874G12  H00X16002   4.342   0.779   4.863
   874G12  O00C16003   4.396   0.698   4.696
   874G12  H00W16004   4.349   0.676   4.617
   874G12  C02716005   4.238   0.919   4.574
   874G12  O00D16006   4.230   1.052   4.545
   874G12  H00Z16007   4.225   1.104   4.624
   874G12  C02816008   4.230   0.814   4.474
   874G12  C02916009   4.290   0.835   4.348
   874G12  H01016010   4.346   0.927   4.338
   874G12  C02T16011   4.290   0.732   4.249
   874G12  H01O16012   4.339   0.756   4.155
   874G12  C02S16013   4.233   0.606   4.277
   874G12  O00J16014   4.223   0.507   4.176
   874G12  H01P16015   4.182   0.422   4.186
   874G12  C02R16016   4.164   0.584   4.399
   874G12  O00I16017   4.095   0.469   4.431
   874G12  C02Q16018   4.124   0.412   4.555
   874G12  H01N16019   4.094   0.478   4.637
   874G12  H01R16020   4.232   0.405   4.560
   874G12  H01Q16021   4.076   0.316   4.577
   874G12  C02A16022   4.163   0.688   4.499
   874G12  H01116023   4.111   0.677   4.593
   874G12  C00C16024   4.486   1.064   4.756
   874G12  H01216025   4.475   1.053   4.650
   874G12  C00B16026   4.607   1.105   4.814
   874G12  C00A16027   4.722   1.152   4.743
   874G12  C00916028   4.779   1.097   4.622
   874G12  C00816029   4.740   0.999   4.524
   874G12  H01316030   4.638   0.965   4.516
   874G12  C00716031   4.844   0.937   4.451
   874G12  H01416032   4.820   0.858   4.381
   874G12  C00616033   4.981   0.963   4.471
   874G12  C00516034   5.014   1.055   4.566
   874G12  C00416035   5.148   1.067   4.619
   874G12  C00316036   5.171   1.148   4.736
   874G12  C00216037   5.305   1.134   4.784
   874G12  C00116038   5.373   1.185   4.905
   874G12  C00M16039   5.316   1.180   5.039
   874G12  C00L16040   5.180   1.215   5.064
   874G12  C00R16041   5.106   1.174   5.183
   874G12  C00Q16042   5.151   1.119   5.310
   874G12  C00V16043   5.039   1.092   5.397
   874G12  C00U16044   4.904   1.090   5.347
   874G12  C00T16045   4.871   1.135   5.224
   874G12  C01616046   4.749   1.120   5.159
   874G12  C01516047   4.644   1.084   5.238
   874G12  C01016048   4.663   1.055   5.375
   874G12  C01116049   4.547   1.039   5.459
   874G12  H00516050   4.547   1.013   5.564
   874G12  C01216051   4.416   1.065   5.406
   874G12  C01716052   4.300   1.051   5.489
   874G12  O00216053   4.189   1.008   5.413
   874G12  H00416054   4.121   1.025   5.477
   874G12  C01816055   4.283   1.075   5.621
   874G12  O00116056   4.381   1.138   5.689
   874G12  H00316057   4.439   1.182   5.629
   874G12  C01916058   4.150   1.059   5.683
   874G12  H00216059   4.128   0.959   5.647
   874G12  H00116060   4.150   1.062   5.792
   874G12  O00016061   4.056   1.149   5.616
   874G12  C01A16062   4.035   1.272   5.675
   874G12  C02K16063   3.906   1.326   5.683
   874G12  O00G16064   3.812   1.258   5.609
   874G12  C02M16065   3.809   1.307   5.475
   874G12  H01G16066   3.822   1.416   5.477
   874G12  H01F16067   3.719   1.282   5.420
   874G12  H01E16068   3.890   1.266   5.416
   874G12  C02J16069   3.877   1.445   5.751
   874G12  H01H16070   3.778   1.489   5.742
   874G12  C02I16071   3.972   1.499   5.839
   874G12  C02N16072   3.931   1.595   5.942
   874G12  H01M16073   3.837   1.643   5.921
   874G12  C02O16074   3.996   1.625   6.060
   874G12  H01L16075   4.090   1.580   6.086
   874G12  C02P16076   3.951   1.732   6.150
   874G12  H01K16077   3.872   1.682   6.206
   874G12  H01J16078   4.031   1.763   6.216
   874G12  O00H16079   3.892   1.841   6.085
   874G12  H01I16080   3.961   1.891   6.045
   874G12  C02H16081   4.101   1.445   5.836
   874G12  H01C16082   4.181   1.494   5.890
   874G12  C02L16083   4.133   1.338   5.746
   874G12  H01D16084   4.239   1.318   5.741
   874G12  C01316085   4.402   1.090   5.265
   874G12  H00016086   4.306   1.123   5.228
   874G12  C01416087   4.514   1.091   5.180
   874G12  C00F16088   4.501   1.096   5.040
   874G12  C00H16089   4.733   1.147   5.021
   874G12  C00I16090   4.836   1.208   4.952
   874G12  C00J16091   4.955   1.229   5.025
   874G12  C00Z16092   4.794   1.047   5.425
   874G12  C00Y16093   4.821   0.999   5.558
   874G12  H00616094   4.745   0.969   5.629
   874G12  C00X16095   4.951   0.989   5.608
   874G12  O00316096   4.954   0.944   5.739
   874G12  C01B16097   5.068   0.875   5.785
   874G12  H00916098   5.096   0.797   5.714
   874G12  H00816099   5.043   0.839   5.884
   874G12  H00716100   5.160   0.933   5.798
   874G12  C00W16101   5.057   1.032   5.526
   874G12  O00416102   5.188   1.017   5.580
   874G12  C01C16103   5.293   1.058   5.497
   874G12  H00A16104   5.393   1.067   5.539
   874G12  C00P16105   5.283   1.087   5.356
   874G12  C00O16106   5.389   1.059   5.265
   874G12  C01D16107   5.496   0.978   5.312
   874G12  H00S16108   5.504   0.961   5.419
   874G12  C01E16109   5.582   0.919   5.225
   874G12  O00816110   5.690   0.846   5.273
   874G12  C01V16111   5.695   0.710   5.266
   874G12  C01Z16112   5.809   0.647   5.340
   874G12  H00R16113   5.829   0.703   5.432
   874G12  H00Q16114   5.795   0.540   5.350
   874G12  O00916115   5.920   0.656   5.253
   874G12  H00P16116   5.998   0.621   5.292
   874G12  C01W16117   5.606   0.630   5.197
   874G12  H00O16118   5.521   0.682   5.156
   874G12  C01X16119   5.609   0.475   5.181
   874G12  H00N16120   5.549   0.450   5.094
   874G12  H00M16121   5.716   0.458   5.165
   874G12  C01Y16122   5.565   0.401   5.306
   874G12  C02D16123   5.623   0.274   5.330
   874G12  H01916124   5.694   0.226   5.264
   874G12  C02C16125   5.578   0.200   5.440
   874G12  H01A16126   5.619   0.104   5.468
   874G12  C02B16127   5.463   0.239   5.511
   874G12  O00E16128   5.432   0.165   5.619
   874G12  H01B16129   5.350   0.196   5.655
   874G12  C02F16130   5.414   0.371   5.495
   874G12  O00F16131   5.306   0.408   5.574
   874G12  C02G16132   5.249   0.535   5.562
   874G12  H01716133   5.190   0.535   5.470
   874G12  H01616134   5.322   0.616   5.559
   874G12  H01516135   5.178   0.552   5.642
   874G12  C02E16136   5.462   0.445   5.383
   874G12  H01816137   5.422   0.542   5.356
   874G12  C01F16138   5.575   0.946   5.086
   874G12  C01G16139   5.631   0.870   4.980
   874G12  H00L16140   5.692   0.785   5.007
   874G12  C01H16141   5.589   0.895   4.846
   874G12  H00B16142   5.604   0.819   4.771
   874G12  C01I16143   5.508   1.011   4.815
   874G12  C01U16144   5.506   1.060   5.047
   874G12  C00S16145   4.972   1.191   5.160
   874G12  C00K16146   5.084   1.233   4.961
   874G12  C00N16147   5.399   1.098   5.129
   874G12  C00016148   5.495   1.108   4.916
   874G12  C01J16149   5.400   1.047   4.721
   874G12  C01K16150   5.379   0.982   4.598
   874G12  C01P16151   5.477   0.907   4.520
   874G12  C01Q16152   5.617   0.920   4.531
   874G12  H00G16153   5.665   1.016   4.544
   874G12  C01R16154   5.702   0.808   4.529
   874G12  H00F16155   5.682   0.702   4.524
   874G12  C01S16156   5.852   0.819   4.533
   874G12  H00E16157   5.895   0.723   4.559
   874G12  H00D16158   5.890   0.842   4.434
   874G12  O00516159   5.882   0.922   4.629
   874G12  H00C16160   5.851   0.900   4.715
   874G12  C01O16161   5.435   0.844   4.398
   874G12  H00H16162   5.511   0.797   4.338
   874G12  C01N16163   5.302   0.858   4.350
   874G12  O00616164   5.279   0.809   4.221
   874G12  C01T16165   5.223   0.898   4.129
   874G12  H00K16166   5.160   0.981   4.160
   874G12  H00J16167   5.162   0.850   4.052
   874G12  H00I16168   5.304   0.944   4.073
   874G12  C01M16169   5.204   0.916   4.432
   874G12  C02016170   5.067   1.204   4.815
   874G12  C02116171   4.944   1.212   4.747
   874G12  C01L16172   5.244   0.987   4.551
   874G12  O00716173   5.077   0.900   4.397
   874G12  C02216174   4.918   1.143   4.628
   874G12  C02316175   4.822   1.222   4.815
   874G12  C00G16176   4.613   1.118   4.958
   874G12  C00E16177   4.379   1.066   4.977
   874G12  O00A16178   4.257   1.035   5.038
   874G12  C02416179   4.168   1.144   5.039
   874G12  H00V16180   4.214   1.223   5.098
   874G12  H00U16181   4.071   1.125   5.086
   874G12  H00T16182   4.136   1.172   4.938
   884G12  C00D16183   0.701   2.016   4.095
   884G12  O00B16184   0.627   1.909   4.059
   884G12  C02516185   0.503   1.901   4.123
   884G12  C02616186   0.487   1.800   4.241
   884G12  H00Y16187   0.397   1.748   4.208
   884G12  H00X16188   0.465   1.835   4.342
   884G12  O00C16189   0.605   1.722   4.224
   884G12  H00W16190   0.643   1.752   4.143
   884G12  C02716191   0.411   1.986   4.082
   884G12  O00D16192   0.436   2.068   3.972
   884G12  H00Z16193   0.517   2.022   3.955
   884G12  C02816194   0.276   1.989   4.140
   884G12  C02916195   0.240   2.089   4.230
   884G12  H01016196   0.302   2.173   4.257
   884G12  C02T16197   0.113   2.078   4.289
   884G12  H01O16198   0.083   2.152   4.362
   884G12  C02S16199   0.017   1.981   4.253
   884G12  O00J16200  -0.107   1.984   4.308
   884G12  H01P16201  -0.148   1.909   4.268
   884G12  C02R16202   0.051   1.885   4.163
   884G12  O00I16203  -0.045   1.788   4.141
   884G12  C02Q16204  -0.029   1.715   4.023
   884G12  H01N16205  -0.023   1.791   3.944
   884G12  H01R16206  -0.128   1.672   4.008
   884G12  H01Q16207   0.053   1.643   4.024
   884G12  C02A16208   0.183   1.886   4.104
   884G12  H01116209   0.215   1.820   4.025
   884G12  C00C16210   0.713   2.054   4.232
   884G12  H01216211   0.655   2.004   4.309
   884G12  C00B16212   0.806   2.148   4.273
   884G12  C00A16213   0.850   2.168   4.407
   884G12  C00916214   0.780   2.147   4.533
   884G12  C00816215   0.670   2.078   4.581
   884G12  H01316216   0.624   1.992   4.533
   884G12  C00716217   0.609   2.121   4.702
   884G12  H01416218   0.516   2.075   4.733
   884G12  C00616219   0.666   2.221   4.786
   884G12  C00516220   0.777   2.286   4.738
   884G12  C00416221   0.832   2.403   4.797
   884G12  C00316222   0.928   2.478   4.724
   884G12  C00216223   0.962   2.604   4.779
   884G12  C00116224   1.051   2.715   4.735
   884G12  C00M16225   1.058   2.750   4.596
   884G12  C00L16226   1.097   2.665   4.494
   884G12  C00R16227   1.096   2.697   4.353
   884G12  C00Q16228   1.086   2.822   4.284
   884G12  C00V16229   1.066   2.805   4.146
   884G12  C00U16230   1.035   2.681   4.087
   884G12  C00T16231   1.024   2.562   4.160
   884G12  C01616232   0.967   2.446   4.121
   884G12  C01516233   0.917   2.434   3.997
   884G12  C01016234   0.936   2.548   3.915
   884G12  C01116235   0.910   2.530   3.779
   884G12  H00516236   0.934   2.609   3.709
   884G12  C01216237   0.866   2.415   3.723
   884G12  C01716238   0.870   2.404   3.579
   884G12  O00216239   0.812   2.513   3.518
   884G12  H00416240   0.764   2.547   3.592
   884G12  C01816241   0.928   2.296   3.517
   884G12  O00116242   0.984   2.189   3.576
   884G12  H00316243   1.045   2.157   3.511
   884G12  C01916244   0.936   2.287   3.369
   884G12  H00216245   0.863   2.213   3.338
   884G12  H00116246   0.927   2.384   3.320
   884G12  O00016247   1.063   2.235   3.337
   884G12  C01A16248   1.105   2.246   3.205
   884G12  C02K16249   1.235   2.203   3.170
   884G12  O00G16250   1.307   2.123   3.258
   884G12  C02M16251   1.257   1.994   3.244
   884G12  H01G16252   1.290   1.960   3.145
   884G12  H01F16253   1.149   1.986   3.255
   884G12  H01E16254   1.303   1.932   3.320
   884G12  C02J16255   1.290   2.228   3.043
   884G12  H01H16256   1.386   2.186   3.015
   884G12  C02I16257   1.212   2.287   2.940
   884G12  C02N16258   1.258   2.308   2.808
   884G12  H01M16259   1.190   2.323   2.725
   884G12  C02O16260   1.392   2.306   2.775
   884G12  H01L16261   1.466   2.299   2.853
   884G12  C02P16262   1.450   2.333   2.644
   884G12  H01K16263   1.377   2.336   2.564
   884G12  H01J16264   1.516   2.420   2.647
   884G12  O00H16265   1.547   2.228   2.624
   884G12  H01I16266   1.606   2.223   2.697
   884G12  C02H16267   1.075   2.314   2.973
   884G12  H01C16268   1.014   2.356   2.895
   884G12  C02L16269   1.025   2.291   3.104
   884G12  H01D16270   0.921   2.320   3.113
   884G12  C01316271   0.833   2.309   3.809
   884G12  H00016272   0.791   2.219   3.766
   884G12  C01416273   0.862   2.317   3.950
   884G12  C00F16274   0.835   2.213   4.042
   884G12  C00H16275   0.944   2.338   4.215
   884G12  C00I16276   0.989   2.358   4.344
   884G12  C00J16277   1.051   2.477   4.377
   884G12  C00Z16278   1.001   2.668   3.955
   884G12  C00Y16279   1.017   2.775   3.867
   884G12  H00616280   0.997   2.768   3.761
   884G12  C00X16281   1.046   2.905   3.919
   884G12  O00316282   1.059   3.020   3.839
   884G12  C01B16283   1.014   3.011   3.711
   884G12  H00916284   1.008   3.107   3.660
   884G12  H00816285   0.909   2.983   3.721
   884G12  H00716286   1.045   2.936   3.638
   884G12  C00W16287   1.069   2.920   4.056
   884G12  O00416288   1.080   3.049   4.101
   884G12  C01C16289   1.088   3.060   4.237
   884G12  H00A16290   1.129   3.151   4.277
   884G12  C00P16291   1.067   2.954   4.330
   884G12  C00O16292   1.023   2.978   4.470
   884G12  C01D16293   0.972   3.109   4.502
   884G12  H00S16294   0.967   3.192   4.433
   884G12  C01E16295   0.905   3.137   4.624
   884G12  O00816296   0.842   3.263   4.637
   884G12  C01V16297   0.914   3.357   4.704
   884G12  C01Z16298   0.840   3.430   4.810
   884G12  H00R16299   0.795   3.352   4.871
   884G12  H00Q16300   0.897   3.496   4.875
   884G12  O00916301   0.721   3.504   4.775
   884G12  H00P16302   0.681   3.477   4.695
   884G12  C01W16303   1.042   3.375   4.666
   884G12  H00O16304   1.080   3.329   4.576
   884G12  C01X16305   1.140   3.465   4.731
   884G12  H00N16306   1.171   3.541   4.659
   884G12  H00M16307   1.092   3.524   4.809
   884G12  C01Y16308   1.253   3.385   4.794
   884G12  C02D16309   1.379   3.375   4.736
   884G12  H01916310   1.390   3.413   4.635
   884G12  C02C16311   1.483   3.308   4.805
   884G12  H01A16312   1.582   3.307   4.761
   884G12  C02B16313   1.462   3.246   4.929
   884G12  O00E16314   1.569   3.186   4.991
   884G12  H01B16315   1.546   3.166   5.081
   884G12  C02F16316   1.331   3.239   4.978
   884G12  O00F16317   1.312   3.180   5.100
   884G12  C02G16318   1.177   3.149   5.141
   884G12  H01716319   1.192   3.078   5.222
   884G12  H01616320   1.114   3.107   5.063
   884G12  H01516321   1.131   3.234   5.191
   884G12  C02E16322   1.224   3.312   4.910
   884G12  H01816323   1.125   3.311   4.953
   884G12  C01F16324   0.900   3.034   4.724
   884G12  C01G16325   0.818   3.034   4.843
   884G12  H00L16326   0.748   3.113   4.868
   884G12  C01H16327   0.812   2.915   4.923
   884G12  H00B16328   0.727   2.896   4.988
   884G12  C01I16329   0.897   2.804   4.894
   884G12  C01U16330   0.977   2.922   4.705
   884G12  C00S16331   1.060   2.581   4.292
   884G12  C00K16332   1.056   2.526   4.509
   884G12  C00N16333   1.024   2.888   4.578
   884G12  C00016334   1.006   2.827   4.805
   884G12  C01J16335   0.883   2.660   4.887
   884G12  C01K16336   0.792   2.582   4.962
   884G12  C01P16337   0.740   2.610   5.094
   884G12  C01Q16338   0.796   2.717   5.174
   884G12  H00G16339   0.896   2.749   5.148
   884G12  C01R16340   0.723   2.787   5.260
   884G12  H00F16341   0.621   2.765   5.288
   884G12  C01S16342   0.770   2.911   5.329
   884G12  H00E16343   0.735   2.907   5.432
   884G12  H00D16344   0.877   2.928   5.330
   884G12  O00516345   0.704   3.016   5.264
   884G12  H00C16346   0.615   2.985   5.258
   884G12  C01O16347   0.640   2.528   5.145
   884G12  H00H16348   0.604   2.554   5.244
   884G12  C01N16349   0.599   2.412   5.081
   884G12  O00616350   0.508   2.322   5.141
   884G12  C01T16351   0.512   2.312   5.284
   884G12  H00K16352   0.604   2.302   5.342
   884G12  H00J16353   0.458   2.221   5.311
   884G12  H00I16354   0.465   2.401   5.325
   884G12  C01M16355   0.656   2.384   4.958
   884G12  C02016356   0.990   2.436   4.600
   884G12  C02116357   0.952   2.303   4.574
   884G12  C01L16358   0.763   2.458   4.904
   884G12  O00716359   0.606   2.272   4.896
   884G12  C02216360   0.842   2.240   4.625
   884G12  C02316361   0.952   2.261   4.437
   884G12  C00G16362   0.864   2.232   4.176
   884G12  C00E16363   0.773   2.090   3.999
   884G12  O00A16364   0.757   2.040   3.869
   884G12  C02416365   0.875   1.987   3.808
   884G12  H00V16366   0.914   1.889   3.834
   884G12  H00U16367   0.970   2.042   3.814
   884G12  H00T16368   0.863   1.976   3.700
   894G12  C00D16369   6.223   2.977   7.598
   894G12  O00B16370   6.232   3.008   7.737
   894G12  C02516371   6.350   2.988   7.805
   894G12  C02616372   6.413   3.125   7.844
   894G12  H00Y16373   6.481   3.117   7.928
   894G12  H00X16374   6.336   3.197   7.870
   894G12  O00C16375   6.492   3.154   7.731
   894G12  H00W16376   6.440   3.184   7.658
   894G12  C02716377   6.395   2.866   7.838
   894G12  O00D16378   6.344   2.749   7.796
   894G12  H00Z16379   6.250   2.761   7.795
   894G12  C02816380   6.521   2.860   7.913
   894G12  C02916381   6.641   2.879   7.845
   894G12  H01016382   6.653   2.911   7.743
   894G12  C02T16383   6.765   2.854   7.905
   894G12  H01O16384   6.851   2.883   7.848
   894G12  C02S16385   6.773   2.814   8.039
   894G12  O00J16386   6.895   2.807   8.092
   894G12  H01P16387   6.887   2.781   8.182
   894G12  C02R16388   6.657   2.816   8.120
   894G12  O00I16389   6.672   2.797   8.258
   894G12  C02Q16390   6.553   2.811   8.330
   894G12  H01N16391   6.513   2.912   8.325
   894G12  H01R16392   6.563   2.784   8.436
   894G12  H01Q16393   6.476   2.738   8.302
   894G12  C02A16394   6.534   2.830   8.053
   894G12  H01116395   6.439   2.809   8.101
   894G12  C00C16396   6.327   2.916   7.529
   894G12  H01216397   6.416   2.890   7.585
   894G12  C00B16398   6.327   2.871   7.400
   894G12  C00A16399   6.423   2.784   7.333
   894G12  C00916400   6.563   2.756   7.370
   894G12  C00816401   6.650   2.781   7.478
   894G12  H01316402   6.615   2.803   7.577
   894G12  C00716403   6.790   2.797   7.452
   894G12  H01416404   6.854   2.821   7.536
   894G12  C00616405   6.838   2.792   7.320
   894G12  C00516406   6.747   2.766   7.215
   894G12  C00416407   6.784   2.775   7.078
   894G12  C00316408   6.687   2.776   6.976
   894G12  C00216409   6.734   2.797   6.838
   894G12  C00116410   6.672   2.818   6.711
   894G12  C00M16411   6.553   2.902   6.699
   894G12  C00L16412   6.440   2.873   6.776
   894G12  C00R16413   6.320   2.960   6.781
   894G12  C00Q16414   6.281   3.086   6.715
   894G12  C00V16415   6.158   3.141   6.765
   894G12  C00U16416   6.096   3.100   6.883
   894G12  C00T16417   6.156   3.000   6.964
   894G12  C01616418   6.140   2.986   7.101
   894G12  C01516419   6.030   3.040   7.155
   894G12  C01016420   5.946   3.121   7.068
   894G12  C01116421   5.821   3.167   7.125
   894G12  H00516422   5.747   3.209   7.059
   894G12  C01216423   5.798   3.147   7.259
   894G12  C01716424   5.671   3.178   7.315
   894G12  O00216425   5.608   3.078   7.379
   894G12  H00416426   5.665   3.003   7.384
   894G12  C01816427   5.621   3.304   7.301
   894G12  O00116428   5.685   3.401   7.233
   894G12  H00316429   5.633   3.478   7.253
   894G12  C01916430   5.488   3.355   7.350
   894G12  H00216431   5.431   3.359   7.257
   894G12  H00116432   5.443   3.291   7.426
   894G12  O00016433   5.506   3.490   7.399
   894G12  C01A16434   5.428   3.579   7.344
   894G12  C02K16435   5.482   3.672   7.250
   894G12  O00G16436   5.615   3.656   7.207
   894G12  C02M16437   5.668   3.747   7.105
   894G12  H01G16438   5.668   3.845   7.152
   894G12  H01F16439   5.603   3.759   7.019
   894G12  H01E16440   5.763   3.726   7.054
   894G12  C02J16441   5.393   3.775   7.210
   894G12  H01H16442   5.433   3.849   7.141
   894G12  C02I16443   5.262   3.792   7.267
   894G12  C02N16444   5.180   3.902   7.236
   894G12  H01M16445   5.078   3.901   7.273
   894G12  C02O16446   5.225   4.008   7.166
   894G12  H01L16447   5.329   4.022   7.138
   894G12  C02P16448   5.138   4.125   7.152
   894G12  H01K16449   5.051   4.125   7.217
   894G12  H01J16450   5.192   4.218   7.167
   894G12  O00H16451   5.097   4.128   7.014
   894G12  H01I16452   5.029   4.063   7.014
   894G12  C02H16453   5.219   3.696   7.352
   894G12  H01C16454   5.117   3.699   7.389
   894G12  C02L16455   5.296   3.588   7.394
   894G12  H01D16456   5.260   3.505   7.453
   894G12  C01316457   5.885   3.078   7.343
   894G12  H00016458   5.862   3.059   7.446
   894G12  C01416459   6.010   3.034   7.295
   894G12  C00F16460   6.108   2.978   7.378
   894G12  C00H16461   6.222   2.903   7.177
   894G12  C00I16462   6.313   2.820   7.112
   894G12  C00J16463   6.326   2.830   6.972
   894G12  C00Z16464   5.989   3.155   6.939
   894G12  C00Y16465   5.924   3.258   6.865
   894G12  H00616466   5.835   3.300   6.908
   894G12  C00X16467   5.976   3.310   6.746
   894G12  O00316468   5.922   3.411   6.672
   894G12  C01B16469   5.799   3.476   6.716
   894G12  H00916470   5.812   3.508   6.819
   894G12  H00816471   5.713   3.409   6.714
   894G12  H00716472   5.785   3.555   6.642
   894G12  C00W16473   6.097   3.253   6.698
   894G12  O00416474   6.158   3.306   6.589
   894G12  C01C16475   6.292   3.289   6.590
   894G12  H00A16476   6.349   3.378   6.612
   894G12  C00P16477   6.359   3.166   6.626
   894G12  C00O16478   6.503   3.144   6.606
   894G12  C01D16479   6.579   3.254   6.553
   894G12  H00S16480   6.541   3.351   6.526
   894G12  C01E16481   6.723   3.248   6.556
   894G12  O00816482   6.797   3.364   6.541
   894G12  C01V16483   6.795   3.429   6.662
   894G12  C01Z16484   6.897   3.387   6.772
   894G12  H00R16485   6.992   3.354   6.727
   894G12  H00Q16486   6.936   3.471   6.829
   894G12  O00916487   6.855   3.274   6.842
   894G12  H00P16488   6.800   3.237   6.775
   894G12  C01W16489   6.693   3.520   6.684
   894G12  H00O16490   6.630   3.550   6.601
   894G12  C01X16491   6.663   3.594   6.809
   894G12  H00N16492   6.752   3.591   6.871
   894G12  H00M16493   6.648   3.702   6.803
   894G12  C01Y16494   6.550   3.525   6.885
   894G12  C02D16495   6.438   3.605   6.913
   894G12  H01916496   6.435   3.709   6.884
   894G12  C02C16497   6.336   3.555   6.995
   894G12  H01A16498   6.249   3.614   7.020
   894G12  C02B16499   6.350   3.424   7.047
   894G12  O00E16500   6.256   3.368   7.125
   894G12  H01B16501   6.261   3.273   7.121
   894G12  C02F16502   6.454   3.337   7.008
   894G12  O00F16503   6.449   3.205   7.057
   894G12  C02G16504   6.560   3.123   7.031
   894G12  H01716505   6.527   3.031   7.080
   894G12  H01616506   6.651   3.157   7.081
   894G12  H01516507   6.561   3.116   6.922
   894G12  C02E16508   6.560   3.391   6.931
   894G12  H01816509   6.647   3.332   6.908
   894G12  C01F16510   6.795   3.125   6.576
   894G12  C01G16511   6.941   3.107   6.597
   894G12  H00L16512   7.008   3.191   6.588
   894G12  C01H16513   6.984   2.991   6.666
   894G12  H00B16514   7.081   2.994   6.712
   894G12  C01I16515   6.889   2.886   6.705
   894G12  C01U16516   6.718   3.010   6.599
   894G12  C00S16517   6.253   2.922   6.900
   894G12  C00K16518   6.450   2.804   6.904
   894G12  C00N16519   6.581   3.027   6.634
   894G12  C00016520   6.771   2.886   6.639
   894G12  C01J16521   6.872   2.825   6.828
   894G12  C01K16522   6.975   2.793   6.924
   894G12  C01P16523   7.120   2.782   6.908
   894G12  C01Q16524   7.191   2.758   6.789
   894G12  H00G16525   7.291   2.798   6.788
   894G12  C01R16526   7.143   2.682   6.697
   894G12  H00F16527   7.042   2.643   6.693
   894G12  C01S16528   7.211   2.644   6.567
   894G12  H00E16529   7.202   2.535   6.571
   894G12  H00D16530   7.171   2.673   6.469
   894G12  O00516531   7.346   2.669   6.564
   894G12  H00C16532   7.392   2.596   6.525
   894G12  C01O16533   7.204   2.806   7.021
   894G12  H00H16534   7.308   2.809   6.993
   894G12  C01N16535   7.152   2.825   7.151
   894G12  O00616536   7.232   2.835   7.268
   894G12  C01T16537   7.368   2.856   7.234
   894G12  H00K16538   7.435   2.840   7.319
   894G12  H00J16539   7.393   2.958   7.205
   894G12  H00I16540   7.407   2.779   7.168
   894G12  C01M16541   7.011   2.809   7.166
   894G12  C02016542   6.551   2.753   7.000
   894G12  C02116543   6.523   2.710   7.136
   894G12  C01L16544   6.921   2.794   7.055
   894G12  O00716545   6.966   2.814   7.293
   894G12  C02216546   6.613   2.729   7.240
   894G12  C02316547   6.401   2.752   7.201
   894G12  C00G16548   6.218   2.911   7.315
   894G12  C00E16549   6.108   3.004   7.518
   894G12  O00A16550   6.011   3.076   7.589
   894G12  C02416551   5.939   3.006   7.681
   894G12  H00V16552   5.890   2.925   7.628
   894G12  H00U16553   5.861   3.066   7.727
   894G12  H00T16554   5.996   2.959   7.762
   904G12  C00D16555   4.057   1.942   3.244
   904G12  O00B16556   4.149   1.985   3.152
   904G12  C02516557   4.283   1.979   3.172
   904G12  C02616558   4.335   2.099   3.249
   904G12  H00Y16559   4.433   2.084   3.295
   904G12  H00X16560   4.265   2.119   3.331
   904G12  O00C16561   4.358   2.209   3.156
   904G12  H00W16562   4.297   2.276   3.182
   904G12  C02716563   4.350   1.869   3.126
   904G12  O00D16564   4.289   1.754   3.071
   904G12  H00Z16565   4.197   1.758   3.091
   904G12  C02816566   4.498   1.860   3.136
   904G12  C02916567   4.563   1.730   3.149
   904G12  H01016568   4.508   1.638   3.146
   904G12  C02T16569   4.701   1.717   3.165
   904G12  H01O16570   4.749   1.622   3.189
   904G12  C02S16571   4.785   1.829   3.160
   904G12  O00J16572   4.919   1.813   3.177
   904G12  H01P16573   4.964   1.896   3.170
   904G12  C02R16574   4.725   1.955   3.133
   904G12  O00I16575   4.804   2.069   3.127
   904G12  C02Q16576   4.749   2.193   3.092
   904G12  H01N16577   4.677   2.230   3.164
   904G12  H01R16578   4.717   2.175   2.989
   904G12  H01Q16579   4.838   2.256   3.089
   904G12  C02A16580   4.581   1.972   3.122
   904G12  H01116581   4.538   2.070   3.105
   904G12  C00C16582   4.092   1.852   3.348
   904G12  H01216583   4.189   1.806   3.350
   904G12  C00B16584   3.999   1.821   3.445
   904G12  C00A16585   4.015   1.740   3.563
   904G12  C00916586   4.117   1.636   3.594
   904G12  C00816587   4.230   1.573   3.535
   904G12  H01316588   4.274   1.606   3.442
   904G12  C00716589   4.272   1.447   3.585
   904G12  H01416590   4.353   1.400   3.532
   904G12  C00616591   4.201   1.373   3.687
   904G12  C00516592   4.092   1.438   3.744
   904G12  C00416593   4.003   1.374   3.829
   904G12  C00316594   3.886   1.449   3.873
   904G12  C00216595   3.792   1.373   3.953
   904G12  C00116596   3.662   1.409   4.011
   904G12  C00M16597   3.556   1.479   3.940
   904G12  C00L16598   3.579   1.595   3.865
   904G12  C00R16599   3.491   1.655   3.774
   904G12  C00Q16600   3.354   1.635   3.743
   904G12  C00V16601   3.312   1.724   3.637
   904G12  C00U16602   3.400   1.804   3.564
   904G12  C00T16603   3.532   1.811   3.586
   904G12  C01616604   3.629   1.865   3.509
   904G12  C01516605   3.589   1.936   3.401
   904G12  C01016606   3.452   1.947   3.377
   904G12  C01116607   3.416   2.014   3.261
   904G12  H00516608   3.310   2.030   3.245
   904G12  C01216609   3.502   2.082   3.178
   904G12  C01716610   3.454   2.158   3.065
   904G12  O00216611   3.386   2.091   2.972
   904G12  H00416612   3.399   1.998   2.979
   904G12  C01816613   3.471   2.294   3.076
   904G12  O00116614   3.532   2.352   3.187
   904G12  H00316615   3.546   2.441   3.158
   904G12  C01916616   3.413   2.386   2.975
   904G12  H00216617   3.467   2.385   2.881
   904G12  H00116618   3.313   2.350   2.953
   904G12  O00016619   3.411   2.518   3.030
   904G12  C01A16620   3.307   2.595   2.982
   904G12  C02K16621   3.271   2.706   3.061
   904G12  O00G16622   3.329   2.726   3.183
   904G12  C02M16623   3.314   2.617   3.280
   904G12  H01G16624   3.394   2.614   3.354
   904G12  H01F16625   3.299   2.515   3.245
   904G12  H01E16626   3.224   2.645   3.335
   904G12  C02J16627   3.176   2.803   3.010
   904G12  H01H16628   3.152   2.892   3.066
   904G12  C02I16629   3.114   2.790   2.883
   904G12  C02N16630   3.020   2.887   2.821
   904G12  H01M16631   2.959   2.849   2.740
   904G12  C02O16632   2.999   3.015   2.876
   904G12  H01L16633   3.054   3.057   2.959
   904G12  C02P16634   2.891   3.108   2.832
   904G12  H01K16635   2.876   3.187   2.906
   904G12  H01J16636   2.933   3.153   2.742
   904G12  O00H16637   2.767   3.042   2.842
   904G12  H01I16638   2.777   2.976   2.909
   904G12  C02H16639   3.154   2.677   2.803
   904G12  H01C16640   3.116   2.677   2.702
   904G12  C02L16641   3.255   2.584   2.848
   904G12  H01D16642   3.274   2.509   2.772
   904G12  C01316643   3.638   2.068   3.199
   904G12  H00016644   3.698   2.115   3.122
   904G12  C01416645   3.686   1.985   3.307
   904G12  C00F16646   3.828   1.956   3.324
   904G12  C00H16647   3.766   1.849   3.537
   904G12  C00I16648   3.800   1.782   3.656
   904G12  C00J16649   3.700   1.747   3.743
   904G12  C00Z16650   3.356   1.873   3.454
   904G12  C00Y16651   3.218   1.877   3.428
   904G12  H00616652   3.170   1.936   3.351
   904G12  C00X16653   3.121   1.805   3.502
   904G12  O00316654   2.982   1.809   3.481
   904G12  C01B16655   2.932   1.897   3.382
   904G12  H00916656   2.961   1.862   3.283
   904G12  H00816657   2.968   2.000   3.393
   904G12  H00716658   2.823   1.905   3.382
   904G12  C00W16659   3.175   1.727   3.603
   904G12  O00416660   3.088   1.638   3.662
   904G12  C01C16661   3.129   1.543   3.753
   904G12  H00A16662   3.052   1.498   3.815
   904G12  C00P16663   3.267   1.536   3.793
   904G12  C00O16664   3.316   1.420   3.861
   904G12  C01D16665   3.241   1.301   3.865
   904G12  H00S16666   3.142   1.305   3.821
   904G12  C01E16667   3.287   1.171   3.901
   904G12  O00816668   3.211   1.064   3.865
   904G12  C01V16669   3.143   0.990   3.958
   904G12  C01Z16670   3.051   0.884   3.890
   904G12  H00R16671   2.968   0.853   3.953
   904G12  H00Q16672   3.008   0.912   3.794
   904G12  O00916673   3.138   0.771   3.877
   904G12  H00P16674   3.197   0.787   3.804
   904G12  C01W16675   3.154   1.008   4.091
   904G12  H00O16676   3.215   1.087   4.132
   904G12  C01X16677   3.085   0.917   4.193
   904G12  H00N16678   3.072   0.812   4.166
   904G12  H00M16679   3.153   0.927   4.277
   904G12  C01Y16680   2.948   0.976   4.240
   904G12  C02D16681   2.827   0.900   4.222
   904G12  H01916682   2.823   0.797   4.190
   904G12  C02C16683   2.703   0.958   4.260
   904G12  H01A16684   2.607   0.909   4.260
   904G12  C02B16685   2.705   1.088   4.308
   904G12  O00E16686   2.588   1.149   4.339
   904G12  H01B16687   2.604   1.223   4.395
   904G12  C02F16688   2.823   1.160   4.328
   904G12  O00F16689   2.809   1.284   4.382
   904G12  C02G16690   2.914   1.375   4.398
   904G12  H01716691   2.971   1.394   4.308
   904G12  H01616692   2.987   1.334   4.468
   904G12  H01516693   2.880   1.466   4.449
   904G12  C02E16694   2.946   1.101   4.306
   904G12  H01816695   3.040   1.155   4.310
   904G12  C01F16696   3.413   1.161   3.955
   904G12  C01G16697   3.490   1.044   3.956
   904G12  H00L16698   3.449   0.953   3.916
   904G12  C01H16699   3.633   1.060   3.964
   904G12  H00B16700   3.690   0.980   3.920
   904G12  C01I16701   3.690   1.181   4.017
   904G12  C01U16702   3.478   1.282   3.999
   904G12  C00S16703   3.571   1.741   3.699
   904G12  C00K16704   3.710   1.632   3.831
   904G12  C00N16705   3.436   1.398   3.931
   904G12  C00016706   3.611   1.285   4.055
   904G12  C01J16707   3.811   1.235   3.970
   904G12  C01K16708   3.931   1.162   3.936
   904G12  C01P16709   3.973   1.033   3.977
   904G12  C01Q16710   3.890   0.967   4.075
   904G12  H00G16711   3.835   1.026   4.147
   904G12  C01R16712   3.879   0.832   4.077
   904G12  H00F16713   3.923   0.770   4.001
   904G12  C01S16714   3.787   0.760   4.179
   904G12  H00E16715   3.848   0.702   4.248
   904G12  H00D16716   3.723   0.821   4.242
   904G12  O00516717   3.708   0.666   4.104
   904G12  H00C16718   3.675   0.599   4.163
   904G12  C01O16719   4.090   0.981   3.927
   904G12  H00H16720   4.122   0.885   3.965
   904G12  C01N16721   4.170   1.044   3.828
   904G12  O00616722   4.291   0.998   3.780
   904G12  C01T16723   4.321   0.862   3.801
   904G12  H00K16724   4.342   0.836   3.905
   904G12  H00J16725   4.407   0.822   3.748
   904G12  H00I16726   4.232   0.800   3.787
   904G12  C01M16727   4.136   1.177   3.796
   904G12  C02016728   3.848   1.582   3.835
   904G12  C02116729   3.954   1.646   3.763
   904G12  C01L16730   4.022   1.240   3.858
   904G12  O00716731   4.221   1.239   3.708
   904G12  C02216732   4.060   1.572   3.712
   904G12  C02316733   3.930   1.750   3.675
   904G12  C00G16734   3.866   1.877   3.435
   904G12  C00E16735   3.933   1.994   3.238
   904G12  O00A16736   3.907   2.077   3.132
   904G12  C02416737   3.954   2.209   3.139
   904G12  H00V16738   3.896   2.267   3.211
   904G12  H00U16739   3.931   2.250   3.041
   904G12  H00T16740   4.060   2.214   3.165
   914G12  C00D16741   5.308   0.687   8.354
   914G12  O00B16742   5.392   0.706   8.460
   914G12  C02516743   5.418   0.597   8.537
   914G12  C02616744   5.565   0.612   8.578
   914G12  H00Y16745   5.576   0.563   8.674
   914G12  H00X16746   5.585   0.719   8.572
   914G12  O00C16747   5.643   0.533   8.488
   914G12  H00W16748   5.647   0.583   8.408
   914G12  C02716749   5.327   0.508   8.590
   914G12  O00D16750   5.192   0.500   8.567
   914G12  H00Z16751   5.149   0.426   8.609
   914G12  C02816752   5.366   0.414   8.684
   914G12  C02916753   5.288   0.387   8.801
   914G12  H01016754   5.201   0.449   8.811
   914G12  C02T16755   5.330   0.296   8.898
   914G12  H01O16756   5.270   0.285   8.987
   914G12  C02S16757   5.444   0.216   8.876
   914G12  O00J16758   5.491   0.134   8.969
   914G12  H01P16759   5.566   0.104   8.920
   914G12  C02R16760   5.518   0.233   8.762
   914G12  O00I16761   5.621   0.142   8.747
   914G12  C02Q16762   5.657   0.104   8.617
   914G12  H01N16763   5.724   0.018   8.619
   914G12  H01R16764   5.709   0.186   8.567
   914G12  H01Q16765   5.566   0.080   8.562
   914G12  C02A16766   5.476   0.324   8.661
   914G12  H01116767   5.540   0.343   8.576
   914G12  C00C16768   5.175   0.713   8.364
   914G12  H01216769   5.127   0.741   8.456
   914G12  C00B16770   5.093   0.733   8.253
   914G12  C00A16771   4.951   0.758   8.246
   914G12  C00916772   4.843   0.740   8.339
   914G12  C00816773   4.837   0.664   8.456
   914G12  H01316774   4.927   0.621   8.497
   914G12  C00716775   4.709   0.621   8.498
   914G12  H01416776   4.699   0.555   8.583
   914G12  C00616777   4.593   0.646   8.422
   914G12  C00516778   4.613   0.719   8.304
   914G12  C00416779   4.519   0.711   8.198
   914G12  C00316780   4.551   0.764   8.074
   914G12  C00216781   4.450   0.755   7.967
   914G12  C00116782   4.449   0.781   7.824
   914G12  C00M16783   4.554   0.747   7.733
   914G12  C00L16784   4.694   0.769   7.765
   914G12  C00R16785   4.807   0.714   7.696
   914G12  C00Q16786   4.821   0.634   7.576
   914G12  C00V16787   4.958   0.596   7.555
   914G12  C00U16788   5.063   0.623   7.646
   914G12  C00T16789   5.042   0.686   7.768
   914G12  C01616790   5.122   0.692   7.881
   914G12  C01516791   5.246   0.626   7.872
   914G12  C01016792   5.286   0.584   7.740
   914G12  C01116793   5.419   0.538   7.724
   914G12  H00516794   5.461   0.518   7.626
   914G12  C01216795   5.510   0.538   7.828
   914G12  C01716796   5.641   0.490   7.801
   914G12  O00216797   5.656   0.364   7.759
   914G12  H00416798   5.580   0.334   7.713
   914G12  C01816799   5.750   0.573   7.812
   914G12  O00116800   5.745   0.709   7.834
   914G12  H00316801   5.832   0.728   7.801
   914G12  C01916802   5.887   0.527   7.767
   914G12  H00216803   5.904   0.438   7.828
   914G12  H00116804   5.885   0.496   7.662
   914G12  O00016805   5.978   0.632   7.780
   914G12  C01A16806   6.091   0.602   7.853
   914G12  C02K16807   6.174   0.497   7.804
   914G12  O00G16808   6.136   0.433   7.688
   914G12  C02M16809   6.221   0.339   7.639
   914G12  H01G16810   6.188   0.286   7.550
   914G12  H01F16811   6.235   0.258   7.711
   914G12  H01E16812   6.318   0.371   7.601
   914G12  C02J16813   6.290   0.464   7.876
   914G12  H01H16814   6.353   0.380   7.850
   914G12  C02I16815   6.333   0.543   7.987
   914G12  C02N16816   6.444   0.514   8.075
   914G12  H01M16817   6.444   0.540   8.179
   914G12  C02O16818   6.552   0.447   8.020
   914G12  H01L16819   6.552   0.420   7.916
   914G12  C02P16820   6.676   0.395   8.095
   914G12  H01K16821   6.654   0.301   8.144
   914G12  H01J16822   6.749   0.378   8.016
   914G12  O00H16823   6.738   0.489   8.177
   914G12  H01I16824   6.688   0.496   8.257
   914G12  C02H16825   6.256   0.649   8.031
   914G12  H01C16826   6.288   0.717   8.108
   914G12  C02L16827   6.136   0.679   7.961
   914G12  H01D16828   6.070   0.763   7.980
   914G12  C01316829   5.466   0.587   7.952
   914G12  H00016830   5.545   0.584   8.026
   914G12  C01416831   5.331   0.629   7.980
   914G12  C00F16832   5.283   0.665   8.109
   914G12  C00H16833   5.079   0.738   8.008
   914G12  C00I16834   4.957   0.805   8.013
   914G12  C00J16835   4.879   0.814   7.891
   914G12  C00Z16836   5.194   0.570   7.635
   914G12  C00Y16837   5.222   0.494   7.516
   914G12  H00616838   5.317   0.444   7.512
   914G12  C00X16839   5.121   0.469   7.417
   914G12  O00316840   5.133   0.392   7.301
   914G12  C01B16841   5.230   0.294   7.303
   914G12  H00916842   5.220   0.241   7.397
   914G12  H00816843   5.327   0.340   7.286
   914G12  H00716844   5.211   0.224   7.221
   914G12  C00W16845   4.987   0.521   7.439
   914G12  O00416846   4.892   0.492   7.342
   914G12  C01C16847   4.760   0.503   7.383
   914G12  H00A16848   4.690   0.479   7.305
   914G12  C00P16849   4.717   0.572   7.498
   914G12  C00O16850   4.577   0.569   7.540
   914G12  C01D16851   4.495   0.470   7.477
   914G12  H00S16852   4.536   0.409   7.398
   914G12  C01E16853   4.364   0.436   7.531
   914G12  O00816854   4.292   0.325   7.480
   914G12  C01V16855   4.303   0.312   7.341
   914G12  C01Z16856   4.360   0.170   7.298
   914G12  H00R16857   4.379   0.164   7.191
   914G12  H00Q16858   4.457   0.157   7.345
   914G12  O00916859   4.255   0.075   7.334
   914G12  H00P16860   4.184   0.132   7.361
   914G12  C01W16861   4.271   0.408   7.248
   914G12  H00O16862   4.225   0.499   7.283
   914G12  C01X16863   4.286   0.411   7.096
   914G12  H00N16864   4.292   0.313   7.050
   914G12  H00M16865   4.195   0.451   7.052
   914G12  C01Y16866   4.403   0.497   7.061
   914G12  C02D16867   4.386   0.630   7.032
   914G12  H01916868   4.291   0.677   7.012
   914G12  C02C16869   4.505   0.715   7.028
   914G12  H01A16870   4.489   0.820   7.013
   914G12  C02B16871   4.631   0.663   7.040
   914G12  O00E16872   4.738   0.749   7.036
   914G12  H01B16873   4.812   0.732   7.092
   914G12  C02F16874   4.641   0.522   7.048
   914G12  O00F16875   4.763   0.462   7.043
   914G12  C02G16876   4.809   0.447   6.908
   914G12  H01716877   4.838   0.543   6.864
   914G12  H01616878   4.738   0.387   6.851
   914G12  H01516879   4.902   0.391   6.901
   914G12  C02E16880   4.528   0.441   7.064
   914G12  H01816881   4.543   0.334   7.077
   914G12  C01F16882   4.313   0.504   7.639
   914G12  C01G16883   4.210   0.463   7.727
   914G12  H00L16884   4.164   0.365   7.724
   914G12  C01H16885   4.187   0.532   7.851
   914G12  H00B16886   4.128   0.491   7.931
   914G12  C01I16887   4.263   0.646   7.875
   914G12  C01U16888   4.373   0.629   7.667
   914G12  C00S16889   4.915   0.750   7.778
   914G12  C00K16890   4.738   0.800   7.896
   914G12  C00N16891   4.512   0.653   7.635
   914G12  C00016892   4.336   0.714   7.775
   914G12  C01J16893   4.328   0.686   7.999
   914G12  C01K16894   4.286   0.653   8.133
   914G12  C01P16895   4.153   0.624   8.179
   914G12  C01Q16896   4.041   0.644   8.094
   914G12  H00G16897   4.035   0.726   8.024
   914G12  C01R16898   3.934   0.564   8.093
   914G12  H00F16899   3.933   0.479   8.161
   914G12  C01S16900   3.823   0.589   7.992
   914G12  H00E16901   3.739   0.638   8.042
   914G12  H00D16902   3.850   0.659   7.913
   914G12  O00516903   3.771   0.468   7.939
   914G12  H00C16904   3.826   0.445   7.865
   914G12  C01O16905   4.133   0.588   8.315
   914G12  H00H16906   4.030   0.568   8.342
   914G12  C01N16907   4.239   0.584   8.407
   914G12  O00616908   4.222   0.536   8.537
   914G12  C01T16909   4.096   0.486   8.572
   914G12  H00K16910   4.107   0.453   8.676
   914G12  H00J16911   4.081   0.392   8.518
   914G12  H00I16912   4.012   0.553   8.560
   914G12  C01M16913   4.369   0.615   8.359
   914G12  C02016914   4.686   0.804   8.033
   914G12  C02116915   4.764   0.827   8.147
   914G12  C01L16916   4.390   0.660   8.225
   914G12  O00716917   4.474   0.596   8.446
   914G12  C02216918   4.729   0.778   8.266
   914G12  C02316919   4.901   0.830   8.143
   914G12  C00G16920   5.155   0.715   8.127
   914G12  C00E16921   5.360   0.642   8.232
   914G12  O00A16922   5.475   0.575   8.233
   914G12  C02416923   5.464   0.436   8.260
   914G12  H00V16924   5.406   0.389   8.180
   914G12  H00U16925   5.423   0.405   8.356
   914G12  H00T16926   5.562   0.388   8.250
   924G12  C00D16927   2.574   3.880   9.443
   924G12  O00B16928   2.701   3.938   9.423
   924G12  C02516929   2.801   3.865   9.477
   924G12  C02616930   2.814   3.879   9.630
   924G12  H00Y16931   2.882   3.801   9.665
   924G12  H00X16932   2.722   3.855   9.683
   924G12  O00C16933   2.882   4.001   9.661
   924G12  H00W16934   2.813   4.059   9.635
   924G12  C02716935   2.865   3.780   9.393
   924G12  O00D16936   2.828   3.773   9.265
   924G12  H00Z16937   2.762   3.840   9.267
   924G12  C02816938   2.980   3.709   9.429
   924G12  C02916939   2.989   3.576   9.391
   924G12  H01016940   2.912   3.531   9.331
   924G12  C02T16941   3.102   3.502   9.434
   924G12  H01O16942   3.096   3.398   9.406
   924G12  C02S16943   3.203   3.562   9.513
   924G12  O00J16944   3.305   3.488   9.565
   924G12  H01P16945   3.345   3.535   9.636
   924G12  C02R16946   3.185   3.696   9.555
   924G12  O00I16947   3.282   3.753   9.636
   924G12  C02Q16948   3.244   3.860   9.726
   924G12  H01N16949   3.333   3.911   9.763
   924G12  H01R16950   3.190   3.817   9.810
   924G12  H01Q16951   3.194   3.946   9.681
   924G12  C02A16952   3.078   3.764   9.504
   924G12  H01116953   3.076   3.871   9.520
   924G12  C00C16954   2.552   3.745   9.460
   924G12  H01216955   2.634   3.674   9.461
   924G12  C00B16956   2.425   3.696   9.489
   924G12  C00A16957   2.392   3.555   9.519
   924G12  C00916958   2.453   3.434   9.463
   924G12  C00816959   2.566   3.399   9.389
   924G12  H01316960   2.649   3.466   9.372
   924G12  C00716961   2.570   3.269   9.326
   924G12  H01416962   2.660   3.244   9.271
   924G12  C00616963   2.459   3.177   9.326
   924G12  C00516964   2.353   3.222   9.396
   924G12  C00416965   2.233   3.145   9.388
   924G12  C00316966   2.112   3.202   9.442
   924G12  C00216967   1.992   3.133   9.403
   924G12  C00116968   1.853   3.161   9.419
   924G12  C00M16969   1.798   3.298   9.402
   924G12  C00L16970   1.853   3.413   9.464
   924G12  C00R16971   1.821   3.547   9.423
   924G12  C00Q16972   1.726   3.603   9.327
   924G12  C00V16973   1.736   3.745   9.316
   924G12  C00U16974   1.842   3.822   9.360
   924G12  C00T16975   1.945   3.768   9.425
   924G12  C01616976   2.071   3.820   9.444
   924G12  C01516977   2.096   3.950   9.402
   924G12  C01016978   1.987   4.018   9.340
   924G12  C01116979   2.007   4.146   9.291
   924G12  H00516980   1.938   4.205   9.233
   924G12  C01216981   2.131   4.216   9.310
   924G12  C01716982   2.156   4.342   9.237
   924G12  O00216983   2.274   4.361   9.175
   924G12  H00416984   2.275   4.450   9.143
   924G12  C01816985   2.064   4.439   9.230
   924G12  O00116986   1.943   4.428   9.298
   924G12  H00316987   1.958   4.387   9.382
   924G12  C01916988   2.081   4.563   9.141
   924G12  H00216989   2.043   4.505   9.056
   924G12  H00116990   2.016   4.643   9.177
   924G12  O00016991   2.213   4.614   9.125
   924G12  C01A16992   2.226   4.707   9.021
   924G12  C02K16993   2.354   4.754   8.996
   924G12  O00G16994   2.453   4.716   9.089
   924G12  C02M16995   2.588   4.705   9.051
   924G12  H01G16996   2.633   4.804   9.055
   924G12  H01F16997   2.612   4.649   8.960
   924G12  H01E16998   2.639   4.649   9.129
   924G12  C02J16999   2.385   4.842   8.891
   924G12  H01H17000   2.483   4.883   8.871
   924G12  C02I17001   2.283   4.878   8.803
   924G12  C02N17002   2.303   4.961   8.689
   924G12  H01M17003   2.236   5.039   8.657
   924G12  C02O17004   2.418   4.937   8.619
   924G12  H01L17005   2.496   4.874   8.660
   924G12  C02P17006   2.441   4.991   8.482
   924G12  H01K17007   2.444   4.912   8.407
   924G12  H01J17008   2.356   5.053   8.453
   924G12  O00H17009   2.567   5.058   8.492
   924G12  H01I17010   2.548   5.149   8.509
   924G12  C02H17011   2.152   4.839   8.830
   924G12  H01C17012   2.067   4.878   8.776
   924G12  C02L17013   2.120   4.757   8.940
   924G12  H01D17014   2.015   4.736   8.955
   924G12  C01317015   2.234   4.142   9.368
   924G12  H00017016   2.323   4.200   9.387
   924G12  C01417017   2.225   4.004   9.404
   924G12  C00F17018   2.333   3.923   9.444
   924G12  C00H17019   2.178   3.735   9.487
   924G12  C00I17020   2.152   3.602   9.533
   924G12  C00J17021   2.019   3.556   9.517
   924G12  C00Z17022   1.860   3.959   9.324
   924G12  C00Y17023   1.750   4.026   9.272
   924G12  H00617024   1.759   4.130   9.247
   924G12  C00X17025   1.634   3.952   9.245
   924G12  O00317026   1.522   4.010   9.187
   924G12  C01B17027   1.529   4.157   9.166
   924G12  H00917028   1.436   4.186   9.117
   924G12  H00817029   1.608   4.184   9.096
   924G12  H00717030   1.535   4.207   9.263
   924G12  C00W17031   1.632   3.813   9.254
   924G12  O00417032   1.522   3.746   9.196
   924G12  C01C17033   1.553   3.622   9.151
   924G12  H00A17034   1.534   3.597   9.047
   924G12  C00P17035   1.629   3.536   9.239
   924G12  C00O17036   1.630   3.395   9.219
   924G12  C01D17037   1.559   3.341   9.106
   924G12  H00S17038   1.495   3.405   9.046
   924G12  C01E17039   1.586   3.214   9.052
   924G12  O00817040   1.520   3.184   8.937
   924G12  C01V17041   1.396   3.122   8.950
   924G12  C01Z17042   1.278   3.200   8.894
   924G12  H00R17043   1.206   3.204   8.976
   924G12  H00Q17044   1.318   3.295   8.858
   924G12  O00917045   1.232   3.126   8.783
   924G12  H00P17046   1.307   3.129   8.726
   924G12  C01W17047   1.376   3.005   9.019
   924G12  H00O17048   1.465   2.955   9.056
   924G12  C01X17049   1.244   2.928   9.040
   924G12  H00N17050   1.177   2.915   8.955
   924G12  H00M17051   1.273   2.824   9.060
   924G12  C01Y17052   1.162   2.986   9.156
   924G12  C02D17053   1.022   3.002   9.139
   924G12  H01917054   0.974   2.975   9.046
   924G12  C02C17055   0.946   3.058   9.246
   924G12  H01A17056   0.843   3.086   9.230
   924G12  C02B17057   1.011   3.098   9.364
   924G12  O00E17058   0.944   3.165   9.463
   924G12  H01B17059   1.000   3.180   9.537
   924G12  C02F17060   1.142   3.054   9.394
   924G12  O00F17061   1.192   3.070   9.523
   924G12  C02G17062   1.322   3.027   9.560
   924G12  H01717063   1.397   3.064   9.490
   924G12  H01617064   1.332   2.919   9.548
   924G12  H01517065   1.356   3.060   9.658
   924G12  C02E17066   1.219   3.013   9.282
   924G12  H01817067   1.326   3.009   9.296
   924G12  C01F17068   1.665   3.123   9.125
   924G12  C01G17069   1.724   3.000   9.077
   924G12  H00L17070   1.689   2.969   8.980
   924G12  C01H17071   1.827   2.936   9.150
   924G12  H00B17072   1.884   2.857   9.103
   924G12  C01I17073   1.872   2.986   9.273
   924G12  C01U17074   1.708   3.162   9.251
   924G12  C00S17075   1.921   3.635   9.470
   924G12  C00K17076   1.987   3.414   9.505
   924G12  C00N17077   1.700   3.297   9.297
   924G12  C00017078   1.782   3.071   9.339
   924G12  C01J17079   1.999   3.008   9.337
   924G12  C01K17080   2.122   2.942   9.299
   924G12  C01P17081   2.137   2.810   9.246
   924G12  C01Q17082   2.032   2.716   9.259
   924G12  H00G17083   1.981   2.697   9.353
   924G12  C01R17084   2.023   2.632   9.153
   924G12  H00F17085   2.076   2.642   9.059
   924G12  C01S17086   1.933   2.512   9.151
   924G12  H00E17087   1.995   2.424   9.136
   924G12  H00D17088   1.881   2.515   9.246
   924G12  O00517089   1.840   2.515   9.045
   924G12  H00C17090   1.886   2.498   8.963
   924G12  C01O17091   2.258   2.771   9.188
   924G12  H00H17092   2.264   2.672   9.146
   924G12  C01N17093   2.368   2.853   9.187
   924G12  O00617094   2.484   2.837   9.117
   924G12  C01T17095   2.478   2.733   9.016
   924G12  H00K17096   2.492   2.634   9.058
   924G12  H00J17097   2.555   2.747   8.940
   924G12  H00I17098   2.385   2.746   8.961
   924G12  C01M17099   2.358   2.978   9.258
   924G12  C02017100   2.106   3.330   9.508
   924G12  C02117101   2.235   3.386   9.536
   924G12  C01L17102   2.235   3.023   9.320
   924G12  O00717103   2.464   3.060   9.257
   924G12  C02217104   2.350   3.335   9.478
   924G12  C02317105   2.264   3.524   9.565
   924G12  C00G17106   2.309   3.785   9.476
   924G12  C00E17107   2.468   3.967   9.427
   924G12  O00A17108   2.501   4.102   9.415
   924G12  C02417109   2.533   4.147   9.284
   924G12  H00V17110   2.635   4.112   9.269
   924G12  H00U17111   2.527   4.253   9.262
   924G12  H00T17112   2.476   4.102   9.203
   934G12  C00D17113   4.271   5.578   6.059
   934G12  O00B17114   4.172   5.666   6.092
   934G12  C02517115   4.101   5.734   5.992
   934G12  C02617116   4.001   5.646   5.917
   934G12  H00Y17117   3.898   5.662   5.949
   934G12  H00X17118   4.018   5.541   5.941
   934G12  O00C17119   4.007   5.655   5.779
   934G12  H00W17120   3.970   5.737   5.748
   934G12  C02717121   4.126   5.866   5.974
   934G12  O00D17122   4.224   5.920   6.055
   934G12  H00Z17123   4.248   5.846   6.109
   934G12  C02817124   4.055   5.954   5.878
   934G12  C02917125   3.919   5.936   5.836
   934G12  H01017126   3.849   5.869   5.884
   934G12  C02T17127   3.871   6.014   5.730
   934G12  H01O17128   3.776   5.984   5.688
   934G12  C02S17129   3.946   6.116   5.670
   934G12  O00J17130   3.890   6.182   5.560
   934G12  H01P17131   3.959   6.224   5.511
   934G12  C02R17132   4.076   6.146   5.718
   934G12  O00I17133   4.133   6.260   5.681
   934G12  C02Q17134   4.258   6.299   5.736
   934G12  H01N17135   4.329   6.217   5.727
   934G12  H01R17136   4.261   6.331   5.840
   934G12  H01Q17137   4.297   6.373   5.666
   934G12  C02A17138   4.127   6.059   5.818
   934G12  H01117139   4.230   6.064   5.849
   934G12  C00C17140   4.313   5.565   5.928
   934G12  H01217141   4.270   5.623   5.848
   934G12  C00B17142   4.419   5.488   5.895
   934G12  C00A17143   4.487   5.492   5.770
   934G12  C00917144   4.434   5.511   5.640
   934G12  C00817145   4.297   5.525   5.598
   934G12  H01317146   4.216   5.543   5.667
   934G12  C00717147   4.275   5.486   5.463
   934G12  H01417148   4.177   5.490   5.417
   934G12  C00617149   4.371   5.413   5.383
   934G12  C00517150   4.497   5.392   5.441
   934G12  C00417151   4.587   5.299   5.386
   934G12  C00317152   4.697   5.253   5.461
   934G12  C00217153   4.779   5.152   5.394
   934G12  C00117154   4.900   5.080   5.435
   934G12  C00M17155   4.913   5.020   5.567
   934G12  C00L17156   4.866   5.094   5.684
   934G12  C00R17157   4.842   5.033   5.818
   934G12  C00Q17158   4.846   4.900   5.869
   934G12  C00V17159   4.795   4.887   5.999
   934G12  C00U17160   4.719   4.988   6.062
   934G12  C00T17161   4.704   5.116   6.010
   934G12  C01617162   4.615   5.210   6.043
   934G12  C01517163   4.541   5.184   6.159
   934G12  C01017164   4.554   5.061   6.222
   934G12  C01117165   4.472   5.032   6.336
   934G12  H00517166   4.483   4.941   6.393
   934G12  C01217167   4.378   5.124   6.387
   934G12  C01717168   4.302   5.092   6.507
   934G12  O00217169   4.369   5.091   6.625
   934G12  H00417170   4.306   5.059   6.687
   934G12  C01817171   4.172   5.075   6.509
   934G12  O00117172   4.095   5.084   6.395
   934G12  H00317173   4.156   5.095   6.324
   934G12  C01917174   4.091   5.040   6.640
   934G12  H00217175   4.009   5.111   6.645
   934G12  H00117176   4.038   4.948   6.613
   934G12  O00017177   4.164   5.040   6.765
   934G12  C01A17178   4.132   4.941   6.856
   934G12  C02K17179   4.228   4.842   6.886
   934G12  O00G17180   4.344   4.831   6.816
   934G12  C02M17181   4.314   4.763   6.694
   934G12  H01G17182   4.375   4.814   6.619
   934G12  H01F17183   4.213   4.783   6.657
   934G12  H01E17184   4.323   4.656   6.710
   934G12  C02J17185   4.189   4.743   6.981
   934G12  H01H17186   4.264   4.668   7.002
   934G12  C02I17187   4.063   4.730   7.045
   934G12  C02N17188   4.032   4.618   7.129
   934G12  H01M17189   3.932   4.579   7.139
   934G12  C02O17190   4.128   4.553   7.197
   934G12  H01L17191   4.232   4.582   7.195
   934G12  C02P17192   4.101   4.427   7.286
   934G12  H01K17193   3.996   4.397   7.294
   934G12  H01J17194   4.151   4.340   7.243
   934G12  O00H17195   4.151   4.449   7.414
   934G12  H01I17196   4.082   4.465   7.476
   934G12  C02H17197   3.968   4.825   7.001
   934G12  H01C17198   3.868   4.824   7.043
   934G12  C02L17199   4.000   4.932   6.906
   934G12  H01D17200   3.927   5.001   6.868
   934G12  C01317201   4.370   5.245   6.313
   934G12  H00017202   4.286   5.308   6.339
   934G12  C01417203   4.446   5.280   6.198
   934G12  C00F17204   4.420   5.390   6.118
   934G12  C00H17205   4.585   5.319   5.957
   934G12  C00I17206   4.663   5.342   5.849
   934G12  C00J17207   4.762   5.242   5.821
   934G12  C00Z17208   4.644   4.963   6.174
   934G12  C00Y17209   4.663   4.836   6.237
   934G12  H00617210   4.620   4.799   6.328
   934G12  C00X17211   4.736   4.735   6.175
   934G12  O00317212   4.737   4.615   6.242
   934G12  C01B17213   4.852   4.595   6.321
   934G12  H00917214   4.904   4.686   6.351
   934G12  H00817215   4.925   4.548   6.255
   934G12  H00717216   4.841   4.533   6.410
   934G12  C00W17217   4.806   4.759   6.058
   934G12  O00417218   4.881   4.660   6.003
   934G12  C01C17219   4.938   4.676   5.883
   934G12  H00A17220   5.019   4.609   5.857
   934G12  C00P17221   4.893   4.786   5.801
   934G12  C00O17222   4.884   4.774   5.657
   934G12  C01D17223   4.862   4.642   5.605
   934G12  H00S17224   4.852   4.558   5.673
   934G12  C01E17225   4.840   4.623   5.462
   934G12  O00817226   4.812   4.508   5.399
   934G12  C01V17227   4.815   4.391   5.479
   934G12  C01Z17228   4.953   4.324   5.507
   934G12  H00R17229   4.954   4.264   5.598
   934G12  H00Q17230   4.981   4.252   5.430
   934G12  O00917231   5.052   4.423   5.516
   934G12  H00P17232   5.034   4.501   5.465
   934G12  C01W17233   4.703   4.347   5.524
   934G12  H00O17234   4.621   4.412   5.497
   934G12  C01X17235   4.675   4.222   5.609
   934G12  H00N17236   4.584   4.181   5.565
   934G12  H00M17237   4.751   4.145   5.595
   934G12  C01Y17238   4.652   4.278   5.745
   934G12  C02D17239   4.523   4.290   5.796
   934G12  H01917240   4.444   4.252   5.733
   934G12  C02C17241   4.501   4.356   5.915
   934G12  H01A17242   4.399   4.362   5.950
   934G12  C02B17243   4.608   4.398   6.000
   934G12  O00E17244   4.581   4.438   6.128
   934G12  H01B17245   4.666   4.450   6.169
   934G12  C02F17246   4.741   4.374   5.956
   934G12  O00F17247   4.836   4.412   6.045
   934G12  C02G17248   4.960   4.339   6.053
   934G12  H01717249   5.016   4.349   5.960
   934G12  H01617250   4.947   4.234   6.081
   934G12  H01517251   5.014   4.389   6.133
   934G12  C02E17252   4.759   4.306   5.830
   934G12  H01817253   4.861   4.278   5.805
   934G12  C01F17254   4.847   4.732   5.375
   934G12  C01G17255   4.795   4.728   5.244
   934G12  H00L17256   4.751   4.637   5.206
   934G12  C01H17257   4.764   4.851   5.185
   934G12  H00B17258   4.687   4.853   5.110
   934G12  C01I17259   4.808   4.969   5.249
   934G12  C01U17260   4.909   4.849   5.419
   934G12  C00S17261   4.788   5.135   5.898
   934G12  C00K17262   4.802   5.221   5.684
   934G12  C00N17263   4.904   4.872   5.560
   934G12  C00017264   4.914   4.969   5.346
   934G12  C01J17265   4.738   5.098   5.265
   934G12  C01K17266   4.625   5.145   5.188
   934G12  C01P17267   4.595   5.122   5.053
   934G12  C01Q17268   4.694   5.057   4.967
   934G12  H00G17269   4.800   5.068   4.988
   934G12  C01R17270   4.661   4.976   4.871
   934G12  H00F17271   4.557   4.948   4.854
   934G12  C01S17272   4.756   4.900   4.779
   934G12  H00E17273   4.861   4.920   4.798
   934G12  H00D17274   4.747   4.792   4.793
   934G12  O00517275   4.727   4.921   4.645
   934G12  H00C17276   4.635   4.935   4.629
   934G12  C01O17277   4.485   5.178   4.989
   934G12  H00H17278   4.473   5.158   4.884
   934G12  C01N17279   4.394   5.251   5.059
   934G12  O00617280   4.279   5.299   5.006
   934G12  C01T17281   4.261   5.304   4.864
   934G12  H00K17282   4.338   5.368   4.819
   934G12  H00J17283   4.163   5.348   4.844
   934G12  H00I17284   4.255   5.205   4.819
   934G12  C01M17285   4.425   5.283   5.198
   934G12  C02017286   4.728   5.299   5.593
   934G12  C02117287   4.649   5.416   5.627
   934G12  C01L17288   4.551   5.243   5.256
   934G12  O00717289   4.339   5.366   5.260
   934G12  C02217290   4.536   5.450   5.561
   934G12  C02317291   4.619   5.445   5.764
   934G12  C00G17292   4.471   5.396   5.986
   934G12  C00E17293   4.330   5.499   6.159
   934G12  O00A17294   4.302   5.524   6.292
   934G12  C02417295   4.313   5.658   6.349
   934G12  H00V17296   4.223   5.719   6.337
   934G12  H00U17297   4.393   5.716   6.303
   934G12  H00T17298   4.344   5.658   6.453
   944G12  C00D17299   2.490   4.510   7.182
   944G12  O00B17300   2.565   4.459   7.078
   944G12  C02517301   2.646   4.532   7.003
   944G12  C02617302   2.577   4.586   6.879
   944G12  H00Y17303   2.628   4.674   6.838
   944G12  H00X17304   2.476   4.624   6.896
   944G12  O00C17305   2.576   4.491   6.770
   944G12  H00W17306   2.590   4.406   6.809
   944G12  C02717307   2.771   4.560   7.047
   944G12  O00D17308   2.808   4.504   7.165
   944G12  H00Z17309   2.733   4.468   7.212
   944G12  C02817310   2.878   4.623   6.969
   944G12  C02917311   2.878   4.625   6.824
   944G12  H01017312   2.811   4.569   6.761
   944G12  C02T17313   2.973   4.701   6.753
   944G12  H01O17314   2.966   4.701   6.645
   944G12  C02S17315   3.064   4.776   6.828
   944G12  O00J17316   3.150   4.850   6.757
   944G12  H01P17317   3.190   4.908   6.819
   944G12  C02R17318   3.070   4.777   6.968
   944G12  O00I17319   3.165   4.850   7.029
   944G12  C02Q17320   3.179   4.843   7.168
   944G12  H01N17321   3.263   4.906   7.196
   944G12  H01R17322   3.196   4.745   7.213
   944G12  H01Q17323   3.084   4.875   7.211
   944G12  C02A17324   2.977   4.697   7.039
   944G12  H01117325   2.976   4.695   7.147
   944G12  C00C17326   2.401   4.410   7.244
   944G12  H01217327   2.406   4.306   7.215
   944G12  C00B17328   2.318   4.447   7.354
   944G12  C00A17329   2.226   4.368   7.427
   944G12  C00917330   2.132   4.272   7.370
   944G12  C00817331   2.120   4.208   7.242
   944G12  H01317332   2.197   4.202   7.166
   944G12  C00717333   1.993   4.165   7.203
   944G12  H01417334   1.976   4.122   7.106
   944G12  C00617335   1.887   4.168   7.292
   944G12  C00517336   1.906   4.230   7.420
   944G12  C00417337   1.790   4.273   7.494
   944G12  C00317338   1.805   4.369   7.601
   944G12  C00217339   1.683   4.421   7.658
   944G12  C00117340   1.662   4.517   7.767
   944G12  C00M17341   1.731   4.643   7.766
   944G12  C00L17342   1.867   4.658   7.745
   944G12  C00R17343   1.939   4.783   7.738
   944G12  C00Q17344   1.901   4.920   7.730
   944G12  C00V17345   2.007   5.004   7.697
   944G12  C00U17346   2.128   4.960   7.636
   944G12  C00T17347   2.155   4.827   7.624
   944G12  C01617348   2.246   4.768   7.537
   944G12  C01517349   2.341   4.852   7.484
   944G12  C01017350   2.340   4.991   7.513
   944G12  C01117351   2.445   5.074   7.466
   944G12  H00517352   2.435   5.182   7.475
   944G12  C01217353   2.554   5.023   7.394
   944G12  C01717354   2.665   5.113   7.363
   944G12  O00217355   2.712   5.204   7.452
   944G12  H00417356   2.769   5.257   7.398
   944G12  C01817357   2.710   5.111   7.240
   944G12  O00117358   2.672   5.013   7.147
   944G12  H00317359   2.602   4.965   7.189
   944G12  C01917360   2.820   5.205   7.198
   944G12  H00217361   2.895   5.148   7.143
   944G12  H00117362   2.776   5.275   7.127
   944G12  O00017363   2.877   5.292   7.290
   944G12  C01A17364   2.969   5.387   7.240
   944G12  C02K17365   3.050   5.449   7.334
   944G12  O00G17366   3.023   5.421   7.473
   944G12  C02M17367   2.903   5.479   7.517
   944G12  H01G17368   2.819   5.458   7.451
   944G12  H01F17369   2.914   5.587   7.520
   944G12  H01E17370   2.867   5.458   7.618
   944G12  C02J17371   3.147   5.547   7.300
   944G12  H01H17372   3.216   5.594   7.369
   944G12  C02I17373   3.171   5.583   7.163
   944G12  C02N17374   3.264   5.685   7.136
   944G12  H01M17375   3.356   5.674   7.192
   944G12  C02O17376   3.257   5.774   7.035
   944G12  H01L17377   3.166   5.772   6.977
   944G12  C02P17378   3.356   5.884   6.998
   944G12  H01K17379   3.453   5.865   7.044
   944G12  H01J17380   3.366   5.888   6.889
   944G12  O00H17381   3.317   6.011   7.040
   944G12  H01I17382   3.340   6.081   6.981
   944G12  C02H17383   3.092   5.523   7.066
   944G12  H01C17384   3.105   5.552   6.963
   944G12  C02L17385   2.990   5.424   7.100
   944G12  H01D17386   2.942   5.373   7.018
   944G12  C01317387   2.545   4.883   7.362
   944G12  H00017388   2.634   4.842   7.315
   944G12  C01417389   2.435   4.798   7.396
   944G12  C00F17390   2.417   4.673   7.340
   944G12  C00H17391   2.249   4.629   7.508
   944G12  C00I17392   2.166   4.548   7.586
   944G12  C00J17393   2.067   4.610   7.668
   944G12  C00Z17394   2.222   5.048   7.578
   944G12  C00Y17395   2.210   5.184   7.610
   944G12  H00617396   2.287   5.256   7.586
   944G12  C00X17397   2.090   5.232   7.664
   944G12  O00317398   2.069   5.366   7.680
   944G12  C01B17399   2.140   5.458   7.606
   944G12  H00917400   2.134   5.434   7.500
   944G12  H00817401   2.245   5.456   7.636
   944G12  H00717402   2.087   5.552   7.619
   944G12  C00W17403   1.982   5.147   7.701
   944G12  O00417404   1.863   5.204   7.736
   944G12  C01C17405   1.764   5.121   7.770
   944G12  H00A17406   1.677   5.165   7.815
   944G12  C00P17407   1.772   4.978   7.746
   944G12  C00O17408   1.651   4.897   7.753
   944G12  C01D17409   1.521   4.961   7.734
   944G12  H00S17410   1.514   5.068   7.747
   944G12  C01E17411   1.407   4.891   7.689
   944G12  O00817412   1.301   4.952   7.627
   944G12  C01V17413   1.283   5.090   7.647
   944G12  C01Z17414   1.348   5.192   7.547
   944G12  H00R17415   1.410   5.150   7.468
   944G12  H00Q17416   1.267   5.241   7.493
   944G12  O00917417   1.436   5.286   7.610
   944G12  H00P17418   1.395   5.321   7.688
   944G12  C01W17419   1.193   5.129   7.740
   944G12  H00O17420   1.141   5.051   7.794
   944G12  C01X17421   1.145   5.271   7.753
   944G12  H00N17422   1.186   5.334   7.674
   944G12  H00M17423   1.037   5.277   7.739
   944G12  C01Y17424   1.185   5.351   7.878
   944G12  C02D17425   1.255   5.470   7.871
   944G12  H01917426   1.273   5.509   7.772
   944G12  C02C17427   1.273   5.550   7.989
   944G12  H01A17428   1.316   5.649   7.981
   944G12  C02B17429   1.225   5.499   8.113
   944G12  O00E17430   1.231   5.571   8.228
   944G12  H01B17431   1.162   5.528   8.277
   944G12  C02F17432   1.156   5.381   8.117
   944G12  O00F17433   1.102   5.347   8.243
   944G12  C02G17434   1.042   5.224   8.247
   944G12  H01717435   1.101   5.133   8.231
   944G12  H01617436   0.951   5.213   8.187
   944G12  H01517437   1.001   5.211   8.347
   944G12  C02E17438   1.132   5.307   7.999
   944G12  H01817439   1.077   5.214   7.995
   944G12  C01F17440   1.408   4.751   7.704
   944G12  C01G17441   1.313   4.672   7.637
   944G12  H00L17442   1.230   4.720   7.587
   944G12  C01H17443   1.339   4.530   7.615
   944G12  H00B17444   1.283   4.478   7.538
   944G12  C01I17445   1.457   4.481   7.673
   944G12  C01U17446   1.508   4.685   7.769
   944G12  C00S17447   2.063   4.744   7.685
   944G12  C00K17448   1.944   4.548   7.703
   944G12  C00N17449   1.637   4.751   7.764
   944G12  C00017450   1.523   4.545   7.769
   944G12  C01J17451   1.557   4.388   7.608
   944G12  C01K17452   1.537   4.284   7.510
   944G12  C01P17453   1.417   4.211   7.479
   944G12  C01Q17454   1.300   4.228   7.562
   944G12  H00G17455   1.300   4.256   7.666
   944G12  C01R17456   1.176   4.217   7.517
   944G12  H00F17457   1.151   4.188   7.416
   944G12  C01S17458   1.047   4.255   7.598
   944G12  H00E17459   0.980   4.322   7.543
   944G12  H00D17460   0.978   4.170   7.599
   944G12  O00517461   1.085   4.304   7.726
   944G12  H00C17462   1.065   4.230   7.783
   944G12  C01O17463   1.416   4.131   7.366
   944G12  H00H17464   1.316   4.094   7.349
   944G12  C01N17465   1.527   4.108   7.289
   944G12  O00617466   1.540   4.029   7.181
   944G12  C01T17467   1.423   3.977   7.122
   944G12  H00K17468   1.439   3.928   7.026
   944G12  H00J17469   1.354   4.061   7.111
   944G12  H00I17470   1.375   3.898   7.180
   944G12  C01M17471   1.648   4.166   7.335
   944G12  C02017472   1.932   4.413   7.646
   944G12  C02117473   2.043   4.344   7.582
   944G12  C01L17474   1.663   4.242   7.452
   944G12  O00717475   1.759   4.131   7.260
   944G12  C02217476   2.029   4.263   7.472
   944G12  C02317477   2.165   4.409   7.552
   944G12  C00G17478   2.329   4.582   7.404
   944G12  C00E17479   2.483   4.641   7.228
   944G12  O00A17480   2.538   4.733   7.139
   944G12  C02417481   2.457   4.812   7.054
   944G12  H00V17482   2.413   4.901   7.098
   944G12  H00U17483   2.371   4.755   7.017
   944G12  H00T17484   2.522   4.850   6.976
   954G12  C00D17485   5.163   1.508   6.133
   954G12  O00B17486   5.192   1.552   6.002
   954G12  C02517487   5.084   1.539   5.915
   954G12  C02617488   5.004   1.675   5.914
   954G12  H00Y17489   4.898   1.652   5.921
   954G12  H00X17490   5.016   1.717   5.814
   954G12  O00C17491   5.042   1.776   6.004
   954G12  H00W17492   5.134   1.794   5.989
   954G12  C02717493   5.060   1.416   5.867
   954G12  O00D17494   5.138   1.307   5.896
   954G12  H00Z17495   5.208   1.341   5.950
   954G12  C02817496   4.939   1.391   5.799
   954G12  C02917497   4.863   1.282   5.842
   954G12  H01017498   4.880   1.211   5.922
   954G12  C02T17499   4.745   1.258   5.769
   954G12  H01O17500   4.681   1.175   5.793
   954G12  C02S17501   4.696   1.339   5.661
   954G12  O00J17502   4.581   1.315   5.589
   954G12  H01P17503   4.562   1.398   5.549
   954G12  C02R17504   4.768   1.450   5.625
   954G12  O00I17505   4.723   1.533   5.525
   954G12  C02Q17506   4.783   1.659   5.517
   954G12  H01N17507   4.745   1.719   5.599
   954G12  H01R17508   4.761   1.692   5.415
   954G12  H01Q17509   4.892   1.656   5.512
   954G12  C02A17510   4.892   1.469   5.694
   954G12  H01117511   4.960   1.549   5.669
   954G12  C00C17512   5.034   1.479   6.179
   954G12  H01217513   4.947   1.497   6.117
   954G12  C00B17514   5.014   1.446   6.318
   954G12  C00A17515   4.881   1.421   6.380
   954G12  C00917516   4.758   1.489   6.349
   954G12  C00817517   4.709   1.573   6.248
   954G12  H01317518   4.754   1.568   6.150
   954G12  C00717519   4.605   1.666   6.282
   954G12  H01417520   4.570   1.728   6.201
   954G12  C00617521   4.555   1.681   6.412
   954G12  C00517522   4.604   1.596   6.509
   954G12  C00417523   4.573   1.611   6.648
   954G12  C00317524   4.641   1.535   6.741
   954G12  C00217525   4.613   1.574   6.880
   954G12  C00117526   4.670   1.540   7.001
   954G12  C00M17527   4.811   1.528   7.017
   954G12  C00L17528   4.894   1.447   6.935
   954G12  C00R17529   5.040   1.443   6.943
   954G12  C00Q17530   5.127   1.511   7.033
   954G12  C00V17531   5.263   1.501   6.987
   954G12  C00U17532   5.305   1.458   6.858
   954G12  C00T17533   5.209   1.431   6.766
   954G12  C01617534   5.228   1.424   6.629
   954G12  C01517535   5.350   1.432   6.581
   954G12  C01017536   5.457   1.439   6.674
   954G12  C01117537   5.586   1.419   6.625
   954G12  H00517538   5.672   1.420   6.690
   954G12  C01217539   5.608   1.400   6.490
   954G12  C01717540   5.744   1.388   6.438
   954G12  O00217541   5.774   1.424   6.311
   954G12  H00417542   5.868   1.426   6.308
   954G12  C01817543   5.850   1.326   6.503
   954G12  O00117544   5.838   1.282   6.635
   954G12  H00317545   5.804   1.196   6.650
   954G12  C01917546   5.984   1.296   6.428
   954G12  H00217547   6.063   1.247   6.485
   954G12  H00117548   5.955   1.211   6.366
   954G12  O00017549   6.032   1.412   6.356
   954G12  C01A17550   6.098   1.383   6.241
   954G12  C02K17551   6.093   1.477   6.134
   954G12  O00G17552   6.018   1.587   6.169
   954G12  C02M17553   6.014   1.695   6.077
   954G12  H01G17554   5.982   1.674   5.975
   954G12  H01F17555   6.117   1.728   6.085
   954G12  H01E17556   5.958   1.782   6.112
   954G12  C02J17557   6.174   1.456   6.021
   954G12  H01H17558   6.162   1.538   5.952
   954G12  C02I17559   6.258   1.342   5.995
   954G12  C02N17560   6.342   1.323   5.880
   954G12  H01M17561   6.411   1.240   5.877
   954G12  C02O17562   6.329   1.410   5.778
   954G12  H01L17563   6.258   1.492   5.776
   954G12  C02P17564   6.407   1.401   5.645
   954G12  H01K17565   6.362   1.462   5.568
   954G12  H01J17566   6.513   1.426   5.660
   954G12  O00H17567   6.397   1.267   5.602
   954G12  H01I17568   6.487   1.240   5.588
   954G12  C02H17569   6.261   1.248   6.110
   954G12  H01C17570   6.324   1.160   6.108
   954G12  C02L17571   6.189   1.270   6.234
   954G12  H01D17572   6.207   1.203   6.317
   954G12  C01317573   5.503   1.422   6.396
   954G12  H00017574   5.521   1.408   6.290
   954G12  C01417575   5.366   1.437   6.444
   954G12  C00F17576   5.257   1.447   6.358
   954G12  C00H17577   5.116   1.405   6.544
   954G12  C00I17578   4.991   1.387   6.597
   954G12  C00J17579   4.984   1.384   6.739
   954G12  C00Z17580   5.439   1.461   6.814
   954G12  C00Y17581   5.535   1.482   6.906
   954G12  H00617582   5.640   1.493   6.881
   954G12  C00X17583   5.503   1.512   7.040
   954G12  O00317584   5.600   1.522   7.135
   954G12  C01B17585   5.731   1.466   7.110
   954G12  H00917586   5.796   1.452   7.197
   954G12  H00817587   5.784   1.529   7.039
   954G12  H00717588   5.725   1.368   7.062
   954G12  C00W17589   5.364   1.541   7.076
   954G12  O00417590   5.342   1.588   7.197
   954G12  C01C17591   5.214   1.607   7.241
   954G12  H00A17592   5.197   1.627   7.346
   954G12  C00P17593   5.103   1.597   7.149
   954G12  C00O17594   4.980   1.659   7.175
   954G12  C01D17595   4.969   1.771   7.262
   954G12  H00S17596   5.059   1.801   7.312
   954G12  C01E17597   4.852   1.851   7.278
   954G12  O00817598   4.851   1.973   7.344
   954G12  C01V17599   4.963   2.006   7.422
   954G12  C01Z17600   5.011   2.144   7.386
   954G12  H00R17601   4.934   2.220   7.380
   954G12  H00Q17602   5.078   2.183   7.463
   954G12  O00917603   5.093   2.144   7.274
   954G12  H00P17604   5.060   2.083   7.210
   954G12  C01W17605   5.008   1.919   7.520
   954G12  H00O17606   4.958   1.824   7.534
   954G12  C01X17607   5.118   1.938   7.617
   954G12  H00N17608   5.157   2.040   7.612
   954G12  H00M17609   5.112   1.914   7.723
   954G12  C01Y17610   5.233   1.866   7.558
   954G12  C02D17611   5.319   1.940   7.467
   954G12  H01917612   5.297   2.042   7.442
   954G12  C02C17613   5.433   1.881   7.416
   954G12  H01A17614   5.504   1.935   7.356
   954G12  C02B17615   5.465   1.747   7.446
   954G12  O00E17616   5.568   1.688   7.379
   954G12  H01B17617   5.550   1.597   7.399
   954G12  C02F17618   5.377   1.665   7.530
   954G12  O00F17619   5.403   1.536   7.562
   954G12  C02G17620   5.299   1.458   7.621
   954G12  H01717621   5.333   1.356   7.637
   954G12  H01617622   5.211   1.458   7.557
   954G12  H01517623   5.279   1.489   7.723
   954G12  C02E17624   5.267   1.731   7.586
   954G12  H01817625   5.199   1.677   7.651
   954G12  C01F17626   4.738   1.817   7.206
   954G12  C01G17627   4.621   1.897   7.184
   954G12  H00L17628   4.613   2.000   7.215
   954G12  C01H17629   4.535   1.859   7.082
   954G12  H00B17630   4.479   1.938   7.033
   954G12  C01I17631   4.536   1.728   7.041
   954G12  C01U17632   4.731   1.686   7.151
   954G12  C00S17633   5.085   1.402   6.823
   954G12  C00K17634   4.862   1.418   6.803
   954G12  C00N17635   4.853   1.621   7.119
   954G12  C00017636   4.622   1.630   7.098
   954G12  C01J17637   4.511   1.671   6.912
   954G12  C01K17638   4.427   1.734   6.815
   954G12  C01P17639   4.312   1.818   6.834
   954G12  C01Q17640   4.241   1.810   6.960
   954G12  H00G17641   4.195   1.717   6.990
   954G12  C01R17642   4.228   1.916   7.042
   954G12  H00F17643   4.266   2.016   7.026
   954G12  C01S17644   4.159   1.908   7.176
   954G12  H00E17645   4.078   1.981   7.168
   954G12  H00D17646   4.126   1.807   7.197
   954G12  O00517647   4.253   1.933   7.275
   954G12  H00C17648   4.305   1.854   7.281
   954G12  C01O17649   4.259   1.886   6.729
   954G12  H00H17650   4.169   1.944   6.742
   954G12  C01N17651   4.310   1.875   6.600
   954G12  O00617652   4.253   1.937   6.489
   954G12  C01T17653   4.163   2.048   6.510
   954G12  H00K17654   4.213   2.105   6.588
   954G12  H00J17655   4.067   2.013   6.550
   954G12  H00I17656   4.162   2.105   6.417
   954G12  C01M17657   4.418   1.785   6.576
   954G12  C02017658   4.759   1.454   6.711
   954G12  C02117659   4.757   1.413   6.573
   954G12  C01L17660   4.476   1.708   6.683
   954G12  O00717661   4.460   1.780   6.445
   954G12  C02217662   4.692   1.491   6.478
   954G12  C02317663   4.880   1.389   6.513
   954G12  C00G17664   5.128   1.428   6.408
   954G12  C00E17665   5.271   1.500   6.225
   954G12  O00A17666   5.393   1.562   6.194
   954G12  C02417667   5.392   1.704   6.200
   954G12  H00V17668   5.489   1.754   6.202
   954G12  H00U17669   5.337   1.727   6.291
   954G12  H00T17670   5.337   1.741   6.113
   964G12  C00D17671   3.995   4.063   6.022
   964G12  O00B17672   4.111   4.112   5.973
   964G12  C02517673   4.199   4.029   5.905
   964G12  C02617674   4.261   3.924   5.991
   964G12  H00Y17675   4.355   3.895   5.945
   964G12  H00X17676   4.189   3.842   5.992
   964G12  O00C17677   4.305   3.984   6.113
   964G12  H00W17678   4.231   4.020   6.160
   964G12  C02717679   4.225   4.065   5.778
   964G12  O00D17680   4.161   4.167   5.716
   964G12  H00Z17681   4.128   4.209   5.794
   964G12  C02817682   4.304   3.986   5.696
   964G12  C02917683   4.443   3.960   5.716
   964G12  H01017684   4.486   4.003   5.805
   964G12  C02T17685   4.520   3.890   5.622
   964G12  H01O17686   4.624   3.885   5.648
   964G12  C02S17687   4.453   3.831   5.516
   964G12  O00J17688   4.522   3.776   5.418
   964G12  H01P17689   4.471   3.734   5.351
   964G12  C02R17690   4.317   3.847   5.490
   964G12  O00I17691   4.259   3.801   5.377
   964G12  C02Q17692   4.123   3.835   5.347
   964G12  H01N17693   4.051   3.784   5.410
   964G12  H01R17694   4.099   3.792   5.250
   964G12  H01Q17695   4.107   3.943   5.350
   964G12  C02A17696   4.245   3.926   5.585
   964G12  H01117697   4.138   3.942   5.578
   964G12  C00C17698   3.939   3.946   5.973
   964G12  H01217699   3.974   3.893   5.885
   964G12  C00B17700   3.823   3.891   6.033
   964G12  C00A17701   3.760   3.761   6.008
   964G12  C00917702   3.776   3.665   5.904
   964G12  C00817703   3.840   3.668   5.776
   964G12  H01317704   3.925   3.732   5.755
   964G12  C00717705   3.784   3.584   5.673
   964G12  H01417706   3.836   3.583   5.578
   964G12  C00617707   3.658   3.511   5.685
   964G12  C00517708   3.599   3.521   5.808
   964G12  C00417709   3.465   3.474   5.829
   964G12  C00317710   3.396   3.505   5.952
   964G12  C00217711   3.259   3.465   5.960
   964G12  C00117712   3.152   3.490   6.052
   964G12  C00M17713   3.129   3.616   6.131
   964G12  C00L17714   3.234   3.684   6.186
   964G12  C00R17715   3.229   3.816   6.235
   964G12  C00Q17716   3.126   3.910   6.262
   964G12  C00V17717   3.176   4.032   6.320
   964G12  C00U17718   3.311   4.069   6.326
   964G12  C00T17719   3.407   3.993   6.274
   964G12  C01617720   3.532   4.025   6.237
   964G12  C01517721   3.579   4.152   6.275
   964G12  C01017722   3.491   4.235   6.346
   964G12  C01117723   3.545   4.356   6.394
   964G12  H00517724   3.482   4.420   6.453
   964G12  C01217725   3.674   4.405   6.368
   964G12  C01717726   3.723   4.532   6.426
   964G12  O00217727   3.669   4.572   6.548
   964G12  H00417728   3.613   4.507   6.587
   964G12  C01817729   3.814   4.616   6.365
   964G12  O00117730   3.862   4.592   6.235
   964G12  H00317731   3.942   4.635   6.210
   964G12  C01917732   3.856   4.743   6.429
   964G12  H00217733   3.799   4.821   6.378
   964G12  H00117734   3.825   4.746   6.534
   964G12  O00017735   4.001   4.759   6.417
   964G12  C01A17736   4.087   4.650   6.449
   964G12  C02K17737   4.197   4.630   6.370
   964G12  O00G17738   4.226   4.715   6.261
   964G12  C02M17739   4.325   4.670   6.161
   964G12  H01G17740   4.425   4.680   6.203
   964G12  H01F17741   4.323   4.730   6.070
   964G12  H01E17742   4.306   4.569   6.124
   964G12  C02J17743   4.278   4.517   6.390
   964G12  H01H17744   4.362   4.493   6.326
   964G12  C02I17745   4.247   4.427   6.492
   964G12  C02N17746   4.330   4.310   6.506
   964G12  H01M17747   4.414   4.296   6.439
   964G12  C02O17748   4.299   4.211   6.592
   964G12  H01L17749   4.218   4.215   6.663
   964G12  C02P17750   4.371   4.076   6.605
   964G12  H01K17751   4.459   4.078   6.540
   964G12  H01J17752   4.410   4.059   6.705
   964G12  O00H17753   4.285   3.971   6.566
   964G12  H01I17754   4.262   3.975   6.475
   964G12  C02H17755   4.140   4.457   6.579
   964G12  H01C17756   4.111   4.389   6.657
   964G12  C02L17757   4.053   4.562   6.559
   964G12  H01D17758   3.967   4.581   6.623
   964G12  C01317759   3.752   4.320   6.285
   964G12  H00017760   3.850   4.363   6.273
   964G12  C01417761   3.707   4.192   6.238
   964G12  C00F17762   3.795   4.106   6.161
   964G12  C00H17763   3.626   3.932   6.179
   964G12  C00I17764   3.584   3.799   6.169
   964G12  C00J17765   3.447   3.771   6.203
   964G12  C00Z17766   3.356   4.198   6.363
   964G12  C00Y17767   3.259   4.272   6.430
   964G12  H00617768   3.284   4.366   6.476
   964G12  C00X17769   3.127   4.234   6.444
   964G12  O00317770   3.032   4.300   6.521
   964G12  C01B17771   3.078   4.410   6.600
   964G12  H00917772   3.166   4.392   6.661
   964G12  H00817773   2.992   4.455   6.651
   964G12  H00717774   3.105   4.488   6.529
   964G12  C00W17775   3.083   4.126   6.369
   964G12  O00417776   2.952   4.101   6.366
   964G12  C01C17777   2.904   3.999   6.290
   964G12  H00A17778   2.800   3.976   6.309
   964G12  C00P17779   2.986   3.898   6.232
   964G12  C00O17780   2.928   3.790   6.150
   964G12  C01D17781   2.797   3.794   6.092
   964G12  H00S17782   2.728   3.875   6.112
   964G12  C01E17783   2.747   3.704   5.986
   964G12  O00817784   2.626   3.726   5.919
   964G12  C01V17785   2.523   3.742   6.000
   964G12  C01Z17786   2.460   3.611   6.040
   964G12  H00R17787   2.355   3.599   6.014
   964G12  H00Q17788   2.500   3.534   5.974
   964G12  O00917789   2.475   3.592   6.178
   964G12  H00P17790   2.487   3.499   6.186
   964G12  C01W17791   2.477   3.864   6.041
   964G12  H00O17792   2.524   3.953   6.004
   964G12  C01X17793   2.360   3.896   6.133
   964G12  H00N17794   2.289   3.958   6.078
   964G12  H00M17795   2.308   3.801   6.139
   964G12  C01Y17796   2.421   3.963   6.260
   964G12  C02D17797   2.422   4.105   6.269
   964G12  H01917798   2.372   4.171   6.199
   964G12  C02C17799   2.475   4.174   6.376
   964G12  H01A17800   2.472   4.282   6.376
   964G12  C02B17801   2.528   4.099   6.485
   964G12  O00E17802   2.604   4.163   6.577
   964G12  H01B17803   2.652   4.098   6.627
   964G12  C02F17804   2.522   3.956   6.487
   964G12  O00F17805   2.565   3.895   6.605
   964G12  C02G17806   2.566   3.752   6.599
   964G12  H01717807   2.616   3.734   6.504
   964G12  H01617808   2.467   3.708   6.603
   964G12  H01517809   2.636   3.718   6.676
   964G12  C02E17810   2.462   3.893   6.372
   964G12  H01817811   2.439   3.787   6.374
   964G12  C01F17812   2.835   3.607   5.931
   964G12  C01G17813   2.832   3.548   5.806
   964G12  H00L17814   2.748   3.564   5.740
   964G12  C01H17815   2.943   3.477   5.753
   964G12  H00B17816   2.961   3.463   5.648
   964G12  C01I17817   3.054   3.445   5.840
   964G12  C01U17818   2.948   3.578   6.005
   964G12  C00S17819   3.362   3.860   6.257
   964G12  C00K17820   3.374   3.660   6.152
   964G12  C00N17821   2.996   3.671   6.108
   964G12  C00017822   3.032   3.469   5.975
   964G12  C01J17823   3.198   3.426   5.837
   964G12  C01K17824   3.262   3.366   5.728
   964G12  C01P17825   3.215   3.279   5.626
   964G12  C01Q17826   3.086   3.219   5.639
   964G12  H00G17827   3.061   3.167   5.730
   964G12  C01R17828   3.008   3.214   5.532
   964G12  H00F17829   3.044   3.264   5.443
   964G12  C01S17830   2.873   3.151   5.538
   964G12  H00E17831   2.866   3.084   5.623
   964G12  H00D17832   2.804   3.235   5.541
   964G12  O00517833   2.855   3.076   5.419
   964G12  H00C17834   2.939   3.032   5.411
   964G12  C01O17835   3.295   3.257   5.510
   964G12  H00H17836   3.245   3.193   5.439
   964G12  C01N17837   3.421   3.320   5.499
   964G12  O00617838   3.500   3.304   5.387
   964G12  C01T17839   3.454   3.217   5.286
   964G12  H00K17840   3.454   3.112   5.313
   964G12  H00J17841   3.522   3.232   5.202
   964G12  H00I17842   3.353   3.234   5.250
   964G12  C01M17843   3.470   3.394   5.605
   964G12  C02017844   3.452   3.584   6.054
   964G12  C02117845   3.594   3.598   6.039
   964G12  C01L17846   3.395   3.411   5.726
   964G12  O00717847   3.598   3.436   5.592
   964G12  C02217848   3.663   3.576   5.921
   964G12  C02317849   3.666   3.710   6.096
   964G12  C00G17850   3.750   3.974   6.126
   964G12  C00E17851   3.923   4.145   6.114
   964G12  O00A17852   3.986   4.260   6.151
   964G12  C02417853   4.099   4.241   6.230
   964G12  H00V17854   4.118   4.332   6.286
   964G12  H00U17855   4.185   4.228   6.165
   964G12  H00T17856   4.081   4.161   6.302
   974G12  C00D17857   4.856   4.453   7.539
   974G12  O00B17858   4.852   4.313   7.543
   974G12  C02517859   4.871   4.242   7.662
   974G12  C02617860   4.763   4.245   7.775
   974G12  H00Y17861   4.705   4.154   7.766
   974G12  H00X17862   4.683   4.319   7.767
   974G12  O00C17863   4.820   4.280   7.900
   974G12  H00W17864   4.907   4.244   7.900
   974G12  C02717865   4.985   4.167   7.659
   974G12  O00D17866   5.065   4.174   7.555
   974G12  H00Z17867   5.014   4.221   7.490
   974G12  C02817868   5.003   4.078   7.766
   974G12  C02917869   4.915   3.965   7.787
   974G12  H01017870   4.832   3.943   7.721
   974G12  C02T17871   4.935   3.885   7.900
   974G12  H01O17872   4.867   3.803   7.920
   974G12  C02S17873   5.044   3.902   7.977
   974G12  O00J17874   5.065   3.817   8.083
   974G12  H01P17875   5.136   3.864   8.124
   974G12  C02R17876   5.144   4.004   7.949
   974G12  O00I17877   5.254   4.024   8.030
   974G12  C02Q17878   5.374   3.975   7.971
   974G12  H01N17879   5.462   4.030   8.005
   974G12  H01R17880   5.376   3.979   7.862
   974G12  H01Q17881   5.397   3.869   7.980
   974G12  C02A17882   5.111   4.096   7.852
   974G12  H01117883   5.172   4.182   7.831
   974G12  C00C17884   4.891   4.525   7.650
   974G12  H01217885   4.914   4.469   7.739
   974G12  C00B17886   4.889   4.668   7.644
   974G12  C00A17887   4.911   4.756   7.755
   974G12  C00917888   4.864   4.736   7.887
   974G12  C00817889   4.810   4.629   7.958
   974G12  H01317890   4.824   4.524   7.938
   974G12  C00717891   4.723   4.658   8.067
   974G12  H01417892   4.676   4.577   8.122
   974G12  C00617893   4.697   4.789   8.110
   974G12  C00517894   4.754   4.891   8.037
   974G12  C00417895   4.723   5.023   8.069
   974G12  C00317896   4.764   5.123   7.978
   974G12  C00217897   4.717   5.256   8.004
   974G12  C00117898   4.719   5.379   7.928
   974G12  C00M17899   4.692   5.388   7.784
   974G12  C00L17900   4.753   5.298   7.695
   974G12  C00R17901   4.720   5.273   7.558
   974G12  C00Q17902   4.618   5.326   7.475
   974G12  C00V17903   4.609   5.260   7.349
   974G12  C00U17904   4.669   5.140   7.321
   974G12  C00T17905   4.751   5.073   7.408
   974G12  C01617906   4.779   4.939   7.408
   974G12  C01517907   4.741   4.869   7.297
   974G12  C01017908   4.692   4.937   7.184
   974G12  C01117909   4.675   4.865   7.062
   974G12  H00517910   4.664   4.919   6.969
   974G12  C01217911   4.695   4.724   7.058
   974G12  C01717912   4.676   4.655   6.933
   974G12  O00217913   4.570   4.683   6.851
   974G12  H00417914   4.515   4.757   6.874
   974G12  C01817915   4.756   4.556   6.888
   974G12  O00117916   4.860   4.499   6.950
   974G12  H00317917   4.906   4.443   6.889
   974G12  C01917918   4.733   4.488   6.750
   974G12  H00217919   4.630   4.457   6.738
   974G12  H00117920   4.757   4.542   6.658
   974G12  O00017921   4.809   4.370   6.735
   974G12  C01A17922   4.783   4.292   6.622
   974G12  C02K17923   4.843   4.159   6.625
   974G12  O00G17924   4.908   4.117   6.744
   974G12  C02M17925   4.975   3.980   6.737
   974G12  H01G17926   4.890   3.912   6.740
   974G12  H01F17927   5.044   3.962   6.819
   974G12  H01E17928   5.034   3.956   6.648
   974G12  C02J17929   4.809   4.072   6.520
   974G12  H01H17930   4.843   3.969   6.519
   974G12  C02I17931   4.736   4.108   6.405
   974G12  C02N17932   4.708   4.018   6.296
   974G12  H01M17933   4.701   3.913   6.320
   974G12  C02O17934   4.687   4.062   6.172
   974G12  H01L17935   4.696   4.169   6.163
   974G12  C02P17936   4.688   3.981   6.043
   974G12  H01K17937   4.669   4.042   5.954
   974G12  H01J17938   4.788   3.945   6.020
   974G12  O00H17939   4.597   3.872   6.046
   974G12  H01I17940   4.512   3.901   6.076
   974G12  C02H17941   4.676   4.234   6.405
   974G12  H01C17942   4.623   4.267   6.317
   974G12  C02L17943   4.705   4.326   6.509
   974G12  H01D17944   4.675   4.428   6.492
   974G12  C01317945   4.732   4.656   7.172
   974G12  H00017946   4.736   4.551   7.146
   974G12  C01417947   4.760   4.729   7.294
   974G12  C00F17948   4.808   4.663   7.413
   974G12  C00H17949   4.838   4.879   7.521
   974G12  C00I17950   4.883   4.961   7.627
   974G12  C00J17951   4.850   5.100   7.625
   974G12  C00Z17952   4.650   5.069   7.199
   974G12  C00Y17953   4.576   5.131   7.096
   974G12  H00617954   4.557   5.091   6.998
   974G12  C00X17955   4.518   5.255   7.121
   974G12  O00317956   4.439   5.319   7.023
   974G12  C01B17957   4.360   5.234   6.932
   974G12  H00917958   4.407   5.205   6.838
   974G12  H00817959   4.266   5.279   6.900
   974G12  H00717960   4.331   5.141   6.982
   974G12  C00W17961   4.528   5.313   7.249
   974G12  O00417962   4.452   5.424   7.275
   974G12  C01C17963   4.416   5.436   7.411
   974G12  H00A17964   4.313   5.441   7.443
   974G12  C00P17965   4.518   5.422   7.508
   974G12  C00O17966   4.494   5.476   7.640
   974G12  C01D17967   4.374   5.552   7.670
   974G12  H00S17968   4.308   5.592   7.594
   974G12  C01E17969   4.317   5.566   7.794
   974G12  O00817970   4.186   5.592   7.824
   974G12  C01V17971   4.093   5.506   7.772
   974G12  C01Z17972   3.956   5.563   7.744
   974G12  H00R17973   3.960   5.640   7.668
   974G12  H00Q17974   3.882   5.490   7.713
   974G12  O00917975   3.921   5.629   7.860
   974G12  H00P17976   3.997   5.685   7.869
   974G12  C01W17977   4.121   5.381   7.733
   974G12  H00O17978   4.223   5.345   7.741
   974G12  C01X17979   4.023   5.275   7.672
   974G12  H00N17980   4.058   5.179   7.709
   974G12  H00M17981   3.924   5.282   7.716
   974G12  C01Y17982   4.034   5.275   7.521
   974G12  C02D17983   3.954   5.361   7.445
   974G12  H01917984   3.889   5.428   7.499
   974G12  C02C17985   3.988   5.364   7.309
   974G12  H01A17986   3.934   5.430   7.242
   974G12  C02B17987   4.083   5.276   7.251
   974G12  O00E17988   4.112   5.289   7.118
   974G12  H01B17989   4.204   5.266   7.115
   974G12  C02F17990   4.145   5.169   7.329
   974G12  O00F17991   4.242   5.088   7.270
   974G12  C02G17992   4.329   5.004   7.343
   974G12  H01717993   4.273   4.938   7.409
   974G12  H01617994   4.396   5.069   7.401
   974G12  H01517995   4.394   4.947   7.276
   974G12  C02E17996   4.119   5.176   7.464
   974G12  H01817997   4.168   5.111   7.536
   974G12  C01F17998   4.395   5.532   7.906
   974G12  C01G17999   4.345   5.515   8.040
   974G12  H00L18000   4.239   5.521   8.057
   974G12  C01H18001   4.426   5.437   8.129
   974G12  H00B18002   4.367   5.393   8.208
   974G12  C01I18003   4.562   5.407   8.096
   974G12  C01U18004   4.534   5.506   7.887
   974G12  C00S18005   4.782   5.152   7.521
   974G12  C00K18006   4.818   5.177   7.739
   974G12  C00N18007   4.577   5.465   7.759
   974G12  C00018008   4.621   5.465   7.986
   974G12  C01J18009   4.628   5.281   8.116
   974G12  C01K18010   4.599   5.180   8.215
   974G12  C01P18011   4.537   5.195   8.340
   974G12  C01Q18012   4.518   5.323   8.393
   974G12  H00G18013   4.597   5.397   8.385
   974G12  C01R18014   4.412   5.357   8.466
   974G12  H00F18015   4.339   5.282   8.492
   974G12  C01S18016   4.389   5.488   8.529
   974G12  H00E18017   4.339   5.469   8.625
   974G12  H00D18018   4.486   5.526   8.561
   974G12  O00518019   4.334   5.583   8.444
   974G12  H00C18020   4.343   5.669   8.484
   974G12  C01O18021   4.506   5.080   8.416
   974G12  H00H18022   4.448   5.089   8.506
   974G12  C01N18023   4.535   4.954   8.373
   974G12  O00618024   4.491   4.853   8.447
   974G12  C01T18025   4.591   4.767   8.506
   974G12  H00K18026   4.599   4.777   8.615
   974G12  H00J18027   4.686   4.776   8.454
   974G12  H00I18028   4.562   4.663   8.490
   974G12  C01M18029   4.610   4.939   8.259
   974G12  C02018030   4.840   5.094   7.856
   974G12  C02118031   4.905   4.966   7.861
   974G12  C01L18032   4.646   5.051   8.180
   974G12  O00718033   4.624   4.808   8.217
   974G12  C02218034   4.846   4.868   7.935
   974G12  C02318035   4.932   4.894   7.738
   974G12  C00G18036   4.848   4.735   7.526
   974G12  C00E18037   4.826   4.522   7.417
   974G12  O00A18038   4.800   4.433   7.315
   974G12  C02418039   4.918   4.396   7.248
   974G12  H00V18040   4.907   4.320   7.171
   974G12  H00U18041   4.984   4.361   7.327
   974G12  H00T18042   4.949   4.487   7.197
   984G12  C00D18043   0.770   6.625   5.983
   984G12  O00B18044   0.666   6.693   5.944
   984G12  C02518045   0.538   6.665   5.989
   984G12  C02618046   0.477   6.754   6.092
   984G12  H00Y18047   0.556   6.823   6.120
   984G12  H00X18048   0.442   6.691   6.174
   984G12  O00C18049   0.381   6.841   6.037
   984G12  H00W18050   0.312   6.786   6.004
   984G12  C02718051   0.484   6.541   5.954
   984G12  O00D18052   0.548   6.457   5.871
   984G12  H00Z18053   0.485   6.400   5.830
   984G12  C02818054   0.354   6.505   6.006
   984G12  C02918055   0.345   6.405   6.108
   984G12  H01018056   0.435   6.356   6.142
   984G12  C02T18057   0.220   6.357   6.155
   984G12  H01O18058   0.216   6.279   6.229
   984G12  C02S18059   0.106   6.413   6.101
   984G12  O00J18060  -0.016   6.382   6.150
   984G12  H01P18061  -0.082   6.427   6.101
   984G12  C02R18062   0.109   6.501   5.988
   984G12  O00I18063  -0.018   6.534   5.942
   984G12  C02Q18064  -0.034   6.642   5.851
   984G12  H01N18065  -0.137   6.668   5.826
   984G12  H01R18066   0.013   6.614   5.757
   984G12  H01Q18067   0.006   6.729   5.902
   984G12  C02A18068   0.235   6.555   5.945
   984G12  H01118069   0.245   6.627   5.865
   984G12  C00C18070   0.772   6.582   6.118
   984G12  H01218071   0.689   6.597   6.185
   984G12  C00B18072   0.875   6.488   6.151
   984G12  C00A18073   0.893   6.424   6.277
   984G12  C00918074   0.856   6.459   6.411
   984G12  C00818075   0.784   6.566   6.467
   984G12  H01318076   0.733   6.641   6.409
   984G12  C00718077   0.815   6.604   6.603
   984G12  H01418078   0.771   6.692   6.647
   984G12  C00618079   0.906   6.533   6.684
   984G12  C00518080   0.969   6.426   6.621
   984G12  C00418081   1.077   6.355   6.674
   984G12  C00318082   1.157   6.262   6.600
   984G12  C00218083   1.270   6.195   6.665
   984G12  C00118084   1.374   6.104   6.620
   984G12  C00M18085   1.441   6.113   6.494
   984G12  C00L18086   1.374   6.151   6.378
   984G12  C00R18087   1.431   6.200   6.254
   984G12  C00Q18088   1.567   6.230   6.222
   984G12  C00V18089   1.579   6.307   6.101
   984G12  C00U18090   1.469   6.362   6.035
   984G12  C00T18091   1.337   6.338   6.075
   984G12  C01618092   1.223   6.402   6.035
   984G12  C01518093   1.242   6.493   5.936
   984G12  C01018094   1.369   6.523   5.889
   984G12  C01118095   1.379   6.624   5.788
   984G12  H00518096   1.472   6.657   5.745
   984G12  C01218097   1.272   6.689   5.733
   984G12  C01718098   1.300   6.797   5.634
   984G12  O00218099   1.353   6.915   5.666
   984G12  H00418100   1.333   6.966   5.588
   984G12  C01818101   1.254   6.781   5.506
   984G12  O00118102   1.186   6.668   5.474
   984G12  H00318103   1.155   6.610   5.542
   984G12  C01918104   1.272   6.879   5.393
   984G12  H00218105   1.342   6.840   5.319
   984G12  H00118106   1.181   6.883   5.333
   984G12  O00018107   1.301   7.009   5.437
   984G12  C01A18108   1.352   7.099   5.344
   984G12  C02K18109   1.297   7.233   5.335
   984G12  O00G18110   1.199   7.254   5.430
   984G12  C02M18111   1.143   7.380   5.425
   984G12  H01G18112   1.218   7.458   5.438
   984G12  H01F18113   1.078   7.397   5.511
   984G12  H01E18114   1.092   7.392   5.329
   984G12  C02J18115   1.345   7.325   5.242
   984G12  H01H18116   1.305   7.425   5.238
   984G12  C02I18117   1.438   7.288   5.146
   984G12  C02N18118   1.472   7.389   5.043
   984G12  H01M18119   1.399   7.459   5.005
   984G12  C02O18120   1.600   7.388   5.005
   984G12  H01L18121   1.673   7.318   5.045
   984G12  C02P18122   1.659   7.486   4.905
   984G12  H01K18123   1.596   7.570   4.877
   984G12  H01J18124   1.742   7.531   4.960
   984G12  O00H18125   1.706   7.415   4.794
   984G12  H01I18126   1.645   7.346   4.777
   984G12  C02H18127   1.496   7.159   5.151
   984G12  H01C18128   1.573   7.122   5.086
   984G12  C02L18129   1.449   7.067   5.250
   984G12  H01D18130   1.494   6.969   5.257
   984G12  C01318131   1.149   6.656   5.789
   984G12  H00018132   1.077   6.733   5.767
   984G12  C01418133   1.129   6.564   5.889
   984G12  C00F18134   1.002   6.553   5.955
   984G12  C00H18135   1.101   6.390   6.106
   984G12  C00I18136   1.088   6.299   6.211
   984G12  C00J18137   1.203   6.231   6.241
   984G12  C00Z18138   1.481   6.457   5.931
   984G12  C00Y18139   1.615   6.491   5.888
   984G12  H00618140   1.626   6.559   5.805
   984G12  C00X18141   1.724   6.430   5.947
   984G12  O00318142   1.857   6.461   5.914
   984G12  C01B18143   1.893   6.591   5.860
   984G12  H00918144   1.858   6.610   5.759
   984G12  H00818145   1.999   6.616   5.865
   984G12  H00718146   1.850   6.676   5.913
   984G12  C00W18147   1.708   6.337   6.054
   984G12  O00418148   1.823   6.297   6.114
   984G12  C01C18149   1.815   6.234   6.228
   984G12  H00A18150   1.909   6.200   6.269
   984G12  C00P18151   1.688   6.204   6.291
   984G12  C00O18152   1.692   6.170   6.426
   984G12  C01D18153   1.815   6.205   6.505
   984G12  H00S18154   1.909   6.222   6.456
   984G12  C01E18155   1.815   6.228   6.644
   984G12  O00818156   1.917   6.301   6.693
   984G12  C01V18157   2.018   6.247   6.766
   984G12  C01Z18158   2.136   6.338   6.777
   984G12  H00R18159   2.216   6.291   6.834
   984G12  H00Q18160   2.178   6.351   6.678
   984G12  O00918161   2.096   6.456   6.835
   984G12  H00P18162   2.009   6.453   6.871
   984G12  C01W18163   2.003   6.129   6.837
   984G12  H00O18164   1.909   6.078   6.827
   984G12  C01X18165   2.103   6.064   6.927
   984G12  H00N18166   2.081   5.958   6.914
   984G12  H00M18167   2.207   6.059   6.896
   984G12  C01Y18168   2.071   6.096   7.070
   984G12  C02D18169   2.154   6.186   7.139
   984G12  H01918170   2.234   6.249   7.103
   984G12  C02C18171   2.131   6.203   7.279
   984G12  H01A18172   2.198   6.265   7.337
   984G12  C02B18173   2.026   6.140   7.342
   984G12  O00E18174   2.000   6.160   7.472
   984G12  H01B18175   1.961   6.082   7.507
   984G12  C02F18176   1.941   6.052   7.271
   984G12  O00F18177   1.837   6.003   7.341
   984G12  C02G18178   1.741   5.924   7.261
   984G12  H01718179   1.651   5.918   7.321
   984G12  H01618180   1.788   5.827   7.243
   984G12  H01518181   1.708   5.965   7.165
   984G12  C02E18182   1.963   6.035   7.132
   984G12  H01818183   1.894   5.971   7.079
   984G12  C01F18184   1.695   6.211   6.710
   984G12  C01G18185   1.665   6.274   6.830
   984G12  H00L18186   1.733   6.350   6.865
   984G12  C01H18187   1.531   6.272   6.891
   984G12  H00B18188   1.500   6.341   6.968
   984G12  C01I18189   1.427   6.198   6.824
   984G12  C01U18190   1.594   6.136   6.657
   984G12  C00S18191   1.325   6.237   6.170
   984G12  C00K18192   1.239   6.191   6.372
   984G12  C00N18193   1.583   6.136   6.516
   984G12  C00018194   1.471   6.109   6.719
   984G12  C01J18195   1.291   6.228   6.803
   984G12  C01K18196   1.216   6.323   6.881
   984G12  C01P18197   1.230   6.348   7.020
   984G12  C01Q18198   1.310   6.259   7.101
   984G12  H00G18199   1.333   6.157   7.074
   984G12  C01R18200   1.379   6.303   7.208
   984G12  H00F18201   1.371   6.406   7.241
   984G12  C01S18202   1.494   6.218   7.262
   984G12  H00E18203   1.509   6.124   7.209
   984G12  H00D18204   1.592   6.267   7.258
   984G12  O00518205   1.467   6.195   7.396
   984G12  H00C18206   1.481   6.274   7.445
   984G12  C01O18207   1.153   6.450   7.081
   984G12  H00H18208   1.157   6.454   7.189
   984G12  C01N18209   1.068   6.533   7.014
   984G12  O00618210   1.002   6.625   7.089
   984G12  C01T18211   0.866   6.657   7.057
   984G12  H00K18212   0.824   6.723   7.134
   984G12  H00J18213   0.800   6.571   7.055
   984G12  H00I18214   0.849   6.710   6.964
   984G12  C01M18215   1.050   6.504   6.873
   984G12  C02018216   1.133   6.233   6.464
   984G12  C02118217   1.001   6.277   6.424
   984G12  C01L18218   1.117   6.394   6.803
   984G12  O00718219   0.950   6.568   6.807
   984G12  C02218220   0.932   6.372   6.493
   984G12  C02318221   0.979   6.314   6.288
   984G12  C00G18222   0.988   6.472   6.069
   984G12  C00E18223   0.881   6.613   5.903
   984G12  O00A18224   0.865   6.663   5.773
   984G12  C02418225   0.854   6.566   5.676
   984G12  H00V18226   0.936   6.496   5.689
   984G12  H00U18227   0.859   6.612   5.577
   984G12  H00T18228   0.760   6.512   5.693
   994G12  C00D18229   1.921   4.385   6.615
   994G12  O00B18230   1.931   4.474   6.720
   994G12  C02518231   1.818   4.491   6.793
   994G12  C02618232   1.747   4.621   6.765
   994G12  H00Y18233   1.806   4.680   6.695
   994G12  H00X18234   1.746   4.682   6.856
   994G12  O00C18235   1.617   4.615   6.709
   994G12  H00W18236   1.553   4.638   6.775
   994G12  C02718237   1.787   4.403   6.888
   994G12  O00D18238   1.854   4.285   6.896
   994G12  H00Z18239   1.922   4.279   6.830
   994G12  C02818240   1.681   4.428   6.986
   994G12  C02918241   1.712   4.438   7.125
   994G12  H01018242   1.809   4.410   7.165
   994G12  C02T18243   1.611   4.469   7.215
   994G12  H01O18244   1.634   4.484   7.320
   994G12  C02S18245   1.479   4.488   7.176
   994G12  O00J18246   1.382   4.519   7.258
   994G12  H01P18247   1.297   4.547   7.227
   994G12  C02R18248   1.446   4.494   7.036
   994G12  O00I18249   1.324   4.547   6.996
   994G12  C02Q18250   1.287   4.536   6.861
   994G12  H01N18251   1.349   4.597   6.796
   994G12  H01R18252   1.181   4.556   6.846
   994G12  H01Q18253   1.288   4.432   6.829
   994G12  C02A18254   1.548   4.460   6.944
   994G12  H01118255   1.522   4.448   6.840
   994G12  C00C18256   1.834   4.406   6.507
   994G12  H01218257   1.763   4.487   6.506
   994G12  C00B18258   1.843   4.327   6.389
   994G12  C00A18259   1.769   4.351   6.268
   994G12  C00918260   1.639   4.410   6.236
   994G12  C00818261   1.532   4.468   6.300
   994G12  H01318262   1.540   4.498   6.404
   994G12  C00718263   1.401   4.468   6.240
   994G12  H01418264   1.317   4.518   6.285
   994G12  C00618265   1.377   4.409   6.112
   994G12  C00518266   1.487   4.359   6.047
   994G12  C00418267   1.478   4.287   5.928
   994G12  C00318268   1.590   4.210   5.883
   994G12  C00218269   1.569   4.118   5.773
   994G12  C00118270   1.656   4.018   5.712
   994G12  C00M18271   1.739   3.923   5.780
   994G12  C00L18272   1.822   3.966   5.877
   994G12  C00R18273   1.896   3.877   5.962
   994G12  C00Q18274   1.907   3.733   5.981
   994G12  C00V18275   1.987   3.699   6.093
   994G12  C00U18276   2.038   3.789   6.194
   994G12  C00T18277   2.010   3.921   6.184
   994G12  C01618278   2.013   4.017   6.283
   994G12  C01518279   2.062   3.972   6.402
   994G12  C01018280   2.107   3.845   6.416
   994G12  C01118281   2.188   3.810   6.529
   994G12  H00518282   2.229   3.710   6.534
   994G12  C01218283   2.199   3.892   6.639
   994G12  C01718284   2.263   3.841   6.759
   994G12  O00218285   2.252   3.708   6.791
   994G12  H00418286   2.303   3.688   6.868
   994G12  C01818287   2.325   3.933   6.844
   994G12  O00118288   2.344   4.065   6.803
   994G12  H00318289   2.312   4.069   6.714
   994G12  C01918290   2.373   3.894   6.982
   994G12  H00218291   2.440   3.977   7.008
   994G12  H00118292   2.284   3.897   7.045
   994G12  O00018293   2.407   3.756   6.997
   994G12  C01A18294   2.472   3.712   7.106
   994G12  C02K18295   2.486   3.572   7.121
   994G12  O00G18296   2.451   3.487   7.022
   994G12  C02M18297   2.315   3.450   7.023
   994G12  H01G18298   2.283   3.426   6.922
   994G12  H01F18299   2.246   3.526   7.060
   994G12  H01E18300   2.299   3.359   7.081
   994G12  C02J18301   2.530   3.505   7.241
   994G12  H01H18302   2.531   3.397   7.245
   994G12  C02I18303   2.571   3.585   7.356
   994G12  C02N18304   2.603   3.536   7.491
   994G12  H01M18305   2.636   3.605   7.568
   994G12  C02O18306   2.573   3.410   7.531
   994G12  H01L18307   2.538   3.336   7.462
   994G12  C02P18308   2.599   3.359   7.668
   994G12  H01K18309   2.678   3.284   7.666
   994G12  H01J18310   2.629   3.435   7.740
   994G12  O00H18311   2.477   3.292   7.716
   994G12  H01I18312   2.402   3.347   7.703
   994G12  C02H18313   2.566   3.725   7.329
   994G12  H01C18314   2.593   3.782   7.417
   994G12  C02L18315   2.514   3.788   7.213
   994G12  H01D18316   2.507   3.896   7.218
   994G12  C01318317   2.137   4.018   6.628
   994G12  H00018318   2.131   4.072   6.721
   994G12  C01418319   2.076   4.067   6.507
   994G12  C00F18320   2.012   4.190   6.501
   994G12  C00H18321   1.953   4.141   6.272
   994G12  C00I18322   1.897   4.180   6.151
   994G12  C00J18323   1.891   4.085   6.050
   994G12  C00Z18324   2.086   3.747   6.313
   994G12  C00Y18325   2.107   3.606   6.337
   994G12  H00618326   2.149   3.566   6.428
   994G12  C00X18327   2.062   3.513   6.237
   994G12  O00318328   2.053   3.372   6.257
   994G12  C01B18329   2.144   3.321   6.359
   994G12  H00918330   2.124   3.360   6.458
   994G12  H00818331   2.242   3.362   6.333
   994G12  H00718332   2.148   3.212   6.368
   994G12  C00W18333   2.003   3.561   6.122
   994G12  O00418334   1.937   3.463   6.050
   994G12  C01C18335   1.884   3.496   5.930
   994G12  H00A18336   1.875   3.421   5.853
   994G12  C00P18337   1.840   3.633   5.905
   994G12  C00O18338   1.727   3.659   5.818
   994G12  C01D18339   1.639   3.554   5.787
   994G12  H00S18340   1.651   3.457   5.833
   994G12  C01E18341   1.516   3.568   5.718
   994G12  O00818342   1.428   3.462   5.695
   994G12  C01V18343   1.385   3.449   5.564
   994G12  C01Z18344   1.249   3.389   5.548
   994G12  H00R18345   1.177   3.462   5.586
   994G12  H00Q18346   1.218   3.336   5.458
   994G12  O00918347   1.237   3.284   5.642
   994G12  H00P18348   1.288   3.310   5.717
   994G12  C01W18349   1.462   3.475   5.452
   994G12  H00O18350   1.563   3.511   5.463
   994G12  C01X18351   1.430   3.453   5.308
   994G12  H00N18352   1.501   3.414   5.235
   994G12  H00M18353   1.341   3.397   5.280
   994G12  C01Y18354   1.388   3.592   5.254
   994G12  C02D18355   1.426   3.715   5.312
   994G12  H01918356   1.493   3.716   5.397
   994G12  C02C18357   1.373   3.841   5.265
   994G12  H01A18358   1.397   3.931   5.318
   994G12  C02B18359   1.287   3.842   5.160
   994G12  O00E18360   1.228   3.961   5.126
   994G12  H01B18361   1.223   3.980   5.033
   994G12  C02F18362   1.264   3.721   5.091
   994G12  O00F18363   1.176   3.711   4.990
   994G12  C02G18364   1.039   3.689   5.035
   994G12  H01718365   1.022   3.776   5.098
   994G12  H01618366   1.021   3.604   5.101
   994G12  H01518367   0.966   3.686   4.954
   994G12  C02E18368   1.312   3.598   5.138
   994G12  H01818369   1.298   3.501   5.092
   994G12  C01F18370   1.489   3.699   5.676
   994G12  C01G18371   1.355   3.741   5.646
   994G12  H00L18372   1.276   3.669   5.657
   994G12  C01H18373   1.325   3.882   5.625
   994G12  H00B18374   1.222   3.915   5.614
   994G12  C01I18375   1.431   3.982   5.643
   994G12  C01U18376   1.587   3.803   5.676
   994G12  C00S18377   1.949   3.960   6.063
   994G12  C00K18378   1.801   4.090   5.944
   994G12  C00N18379   1.693   3.788   5.765
   994G12  C00018380   1.565   3.936   5.639
   994G12  C01J18381   1.439   4.107   5.713
   994G12  C01K18382   1.330   4.201   5.744
   994G12  C01P18383   1.199   4.223   5.679
   994G12  C01Q18384   1.171   4.159   5.553
   994G12  H00G18385   1.250   4.138   5.483
   994G12  C01R18386   1.047   4.116   5.524
   994G12  H00F18387   0.967   4.124   5.596
   994G12  C01S18388   1.007   4.042   5.402
   994G12  H00E18389   0.899   4.049   5.389
   994G12  H00D18390   1.049   4.090   5.313
   994G12  O00518391   1.047   3.907   5.409
   994G12  H00C18392   1.039   3.885   5.318
   994G12  C01O18393   1.101   4.302   5.743
   994G12  H00H18394   1.002   4.314   5.702
   994G12  C01N18395   1.120   4.359   5.866
   994G12  O00618396   1.019   4.419   5.940
   994G12  C01T18397   0.932   4.504   5.868
   994G12  H00K18398   0.988   4.553   5.789
   994G12  H00J18399   0.906   4.577   5.944
   994G12  H00I18400   0.844   4.446   5.839
   994G12  C01M18401   1.246   4.353   5.927
   994G12  C02018402   1.713   4.200   5.958
   994G12  C02118403   1.726   4.308   6.047
   994G12  C01L18404   1.353   4.276   5.866
   994G12  O00718405   1.249   4.402   6.055
   994G12  C02218406   1.614   4.370   6.103
   994G12  C02318407   1.817   4.295   6.153
   994G12  C00G18408   1.937   4.223   6.383
   994G12  C00E18409   2.013   4.283   6.611
   994G12  O00A18410   2.100   4.283   6.717
   994G12  C02418411   2.212   4.366   6.695
   994G12  H00V18412   2.283   4.316   6.629
   994G12  H00U18413   2.261   4.376   6.793
   994G12  H00T18414   2.197   4.470   6.669
  1004G12  C00D18415   2.764   3.852   4.760
  1004G12  O00B18416   2.769   3.847   4.898
  1004G12  C02518417   2.712   3.734   4.952
  1004G12  C02618418   2.582   3.770   5.029
  1004G12  H00Y18419   2.592   3.869   5.075
  1004G12  H00X18420   2.569   3.706   5.116
  1004G12  O00C18421   2.473   3.761   4.940
  1004G12  H00W18422   2.399   3.815   4.965
  1004G12  C02718423   2.777   3.616   4.941
  1004G12  O00D18424   2.898   3.607   4.871
  1004G12  H00Z18425   2.915   3.697   4.851
  1004G12  C02818426   2.727   3.494   5.005
  1004G12  C02918427   2.804   3.416   5.100
  1004G12  H01018428   2.904   3.451   5.121
  1004G12  C02T18429   2.749   3.304   5.162
  1004G12  H01O18430   2.805   3.242   5.230
  1004G12  C02S18431   2.616   3.266   5.134
  1004G12  O00J18432   2.563   3.149   5.186
  1004G12  H01P18433   2.519   3.092   5.125
  1004G12  C02R18434   2.539   3.333   5.040
  1004G12  O00I18435   2.411   3.284   5.027
  1004G12  C02Q18436   2.333   3.348   4.925
  1004G12  H01N18437   2.227   3.322   4.913
  1004G12  H01R18438   2.385   3.318   4.834
  1004G12  H01Q18439   2.328   3.456   4.937
  1004G12  C02A18440   2.594   3.451   4.983
  1004G12  H01118441   2.539   3.505   4.908
  1004G12  C00C18442   2.646   3.848   4.689
  1004G12  H01218443   2.546   3.846   4.731
  1004G12  C00B18444   2.638   3.875   4.552
  1004G12  C00A18445   2.522   3.888   4.472
  1004G12  C00918446   2.390   3.830   4.491
  1004G12  C00818447   2.323   3.760   4.597
  1004G12  H01318448   2.365   3.763   4.696
  1004G12  C00718449   2.201   3.694   4.569
  1004G12  H01418450   2.144   3.639   4.643
  1004G12  C00618451   2.147   3.682   4.439
  1004G12  C00518452   2.222   3.741   4.336
  1004G12  C00418453   2.203   3.711   4.202
  1004G12  C00318454   2.287   3.757   4.100
  1004G12  C00218455   2.276   3.711   3.967
  1004G12  C00118456   2.349   3.727   3.847
  1004G12  C00M18457   2.496   3.720   3.838
  1004G12  C00L18458   2.576   3.790   3.926
  1004G12  C00R18459   2.722   3.784   3.939
  1004G12  C00Q18460   2.817   3.702   3.872
  1004G12  C00V18461   2.947   3.712   3.928
  1004G12  C00U18462   2.973   3.767   4.056
  1004G12  C00T18463   2.870   3.831   4.126
  1004G12  C01618464   2.870   3.860   4.262
  1004G12  C01518465   2.994   3.858   4.327
  1004G12  C01018466   3.106   3.816   4.251
  1004G12  C01118467   3.233   3.824   4.314
  1004G12  H00518468   3.327   3.800   4.266
  1004G12  C01218469   3.251   3.866   4.443
  1004G12  C01718470   3.388   3.878   4.487
  1004G12  O00218471   3.464   3.764   4.492
  1004G12  H00418472   3.553   3.787   4.514
  1004G12  C01818473   3.431   4.003   4.511
  1004G12  O00118474   3.350   4.113   4.490
  1004G12  H00318475   3.262   4.080   4.477
  1004G12  C01918476   3.573   4.032   4.554
  1004G12  H00218477   3.598   4.133   4.521
  1004G12  H00118478   3.579   4.027   4.663
  1004G12  O00018479   3.666   3.929   4.510
  1004G12  C01A18480   3.707   3.921   4.378
  1004G12  C02K18481   3.783   3.803   4.359
  1004G12  O00G18482   3.794   3.717   4.468
  1004G12  C02M18483   3.924   3.658   4.468
  1004G12  H01G18484   3.940   3.601   4.560
  1004G12  H01F18485   3.998   3.738   4.473
  1004G12  H01E18486   3.954   3.600   4.381
  1004G12  C02J18487   3.830   3.778   4.230
  1004G12  H01H18488   3.880   3.688   4.199
  1004G12  C02I18489   3.810   3.870   4.122
  1004G12  C02N18490   3.880   3.850   4.001
  1004G12  H01M18491   3.919   3.754   3.970
  1004G12  C02O18492   3.904   3.946   3.912
  1004G12  H01L18493   3.867   4.044   3.938
  1004G12  C02P18494   3.984   3.916   3.785
  1004G12  H01K18495   4.082   3.883   3.820
  1004G12  H01J18496   3.937   3.850   3.713
  1004G12  O00H18497   4.002   4.037   3.710
  1004G12  H01I18498   3.915   4.068   3.692
  1004G12  C02H18499   3.730   3.984   4.147
  1004G12  H01C18500   3.719   4.062   4.074
  1004G12  C02L18501   3.675   4.004   4.273
  1004G12  H01D18502   3.620   4.096   4.288
  1004G12  C01318503   3.134   3.891   4.520
  1004G12  H00018504   3.146   3.934   4.618
  1004G12  C01418505   3.002   3.884   4.461
  1004G12  C00F18506   2.882   3.879   4.540
  1004G12  C00H18507   2.757   3.901   4.330
  1004G12  C00I18508   2.641   3.924   4.257
  1004G12  C00J18509   2.639   3.891   4.119
  1004G12  C00Z18510   3.101   3.768   4.119
  1004G12  C00Y18511   3.205   3.698   4.058
  1004G12  H00618512   3.303   3.690   4.103
  1004G12  C00X18513   3.187   3.641   3.935
  1004G12  O00318514   3.294   3.605   3.866
  1004G12  C01B18515   3.353   3.482   3.903
  1004G12  H00918516   3.440   3.475   3.838
  1004G12  H00818517   3.290   3.395   3.885
  1004G12  H00718518   3.393   3.481   4.005
  1004G12  C00W18519   3.063   3.644   3.875
  1004G12  O00418520   3.055   3.573   3.753
  1004G12  C01C18521   2.925   3.558   3.701
  1004G12  H00A18522   2.928   3.503   3.608
  1004G12  C00P18523   2.801   3.607   3.762
  1004G12  C00O18524   2.666   3.559   3.726
  1004G12  C01D18525   2.654   3.437   3.653
  1004G12  H00S18526   2.748   3.389   3.628
  1004G12  C01E18527   2.539   3.358   3.641
  1004G12  O00818528   2.535   3.227   3.601
  1004G12  C01V18529   2.605   3.144   3.683
  1004G12  C01Z18530   2.524   3.091   3.801
  1004G12  H00R18531   2.595   3.044   3.869
  1004G12  H00Q18532   2.470   3.172   3.849
  1004G12  O00918533   2.427   2.993   3.753
  1004G12  H00P18534   2.469   2.941   3.687
  1004G12  C01W18535   2.736   3.114   3.649
  1004G12  H00O18536   2.776   3.169   3.565
  1004G12  C01X18537   2.834   3.022   3.719
  1004G12  H00N18538   2.780   2.945   3.775
  1004G12  H00M18539   2.882   2.968   3.638
  1004G12  C01Y18540   2.935   3.091   3.810
  1004G12  C02D18541   3.069   3.061   3.791
  1004G12  H01918542   3.098   2.990   3.714
  1004G12  C02C18543   3.170   3.111   3.874
  1004G12  H01A18544   3.271   3.082   3.849
  1004G12  C02B18545   3.135   3.201   3.978
  1004G12  O00E18546   3.224   3.261   4.062
  1004G12  H01B18547   3.177   3.318   4.121
  1004G12  C02F18548   3.000   3.240   3.994
  1004G12  O00F18549   2.973   3.344   4.081
  1004G12  C02G18550   2.836   3.376   4.099
  1004G12  H01718551   2.833   3.438   4.189
  1004G12  H01618552   2.772   3.292   4.123
  1004G12  H01518553   2.784   3.432   4.021
  1004G12  C02E18554   2.900   3.176   3.914
  1004G12  H01818555   2.799   3.213   3.924
  1004G12  C01F18556   2.421   3.416   3.690
  1004G12  C01G18557   2.304   3.342   3.719
  1004G12  H00L18558   2.299   3.237   3.697
  1004G12  C01H18559   2.196   3.398   3.801
  1004G12  H00B18560   2.121   3.342   3.855
  1004G12  C01I18561   2.204   3.542   3.822
  1004G12  C01U18562   2.419   3.551   3.720
  1004G12  C00S18563   2.751   3.849   4.054
  1004G12  C00K18564   2.523   3.848   4.047
  1004G12  C00N18565   2.538   3.617   3.752
  1004G12  C00018566   2.300   3.620   3.758
  1004G12  C01J18567   2.169   3.618   3.942
  1004G12  C01K18568   2.069   3.583   4.039
  1004G12  C01P18569   1.947   3.509   4.018
  1004G12  C01Q18570   1.901   3.474   3.889
  1004G12  H00G18571   1.860   3.375   3.876
  1004G12  C01R18572   1.897   3.562   3.789
  1004G12  H00F18573   1.928   3.666   3.794
  1004G12  C01S18574   1.855   3.527   3.647
  1004G12  H00E18575   1.752   3.561   3.637
  1004G12  H00D18576   1.916   3.577   3.571
  1004G12  O00518577   1.863   3.394   3.613
  1004G12  H00C18578   1.922   3.350   3.672
  1004G12  C01O18579   1.868   3.470   4.127
  1004G12  H00H18580   1.784   3.406   4.107
  1004G12  C01N18581   1.907   3.499   4.260
  1004G12  O00618582   1.836   3.447   4.368
  1004G12  C01T18583   1.711   3.373   4.355
  1004G12  H00K18584   1.637   3.436   4.305
  1004G12  H00J18585   1.677   3.360   4.458
  1004G12  H00I18586   1.731   3.277   4.308
  1004G12  C01M18587   2.017   3.576   4.281
  1004G12  C02018588   2.399   3.839   4.137
  1004G12  C02118589   2.408   3.887   4.270
  1004G12  C01L18590   2.098   3.620   4.169
  1004G12  O00718591   2.045   3.604   4.413
  1004G12  C02218592   2.329   3.831   4.364
  1004G12  C02318593   2.523   3.935   4.336
  1004G12  C00G18594   2.756   3.886   4.473
  1004G12  C00E18595   2.885   3.871   4.690
  1004G12  O00A18596   2.999   3.860   4.761
  1004G12  C02418597   3.030   3.987   4.821
  1004G12  H00V18598   2.956   4.021   4.894
  1004G12  H00U18599   3.039   4.072   4.754
  1004G12  H00T18600   3.122   3.966   4.875
  1014G12  C00D18601   4.789   5.128   4.022
  1014G12  O00B18602   4.652   5.136   4.058
  1014G12  C02518603   4.573   5.220   3.972
  1014G12  C02618604   4.503   5.332   4.049
  1014G12  H00Y18605   4.426   5.388   3.997
  1014G12  H00X18606   4.574   5.405   4.087
  1014G12  O00C18607   4.430   5.275   4.155
  1014G12  H00W18608   4.347   5.319   4.147
  1014G12  C02718609   4.549   5.194   3.843
  1014G12  O00D18610   4.603   5.087   3.786
  1014G12  H00Z18611   4.660   5.049   3.851
  1014G12  C02818612   4.495   5.293   3.754
  1014G12  C02918613   4.523   5.431   3.758
  1014G12  H01018614   4.588   5.481   3.828
  1014G12  C02T18615   4.457   5.521   3.675
  1014G12  H01O18616   4.480   5.626   3.673
  1014G12  C02S18617   4.376   5.476   3.567
  1014G12  O00J18618   4.334   5.566   3.472
  1014G12  H01P18619   4.289   5.523   3.401
  1014G12  C02R18620   4.362   5.342   3.546
  1014G12  O00I18621   4.301   5.299   3.430
  1014G12  C02Q18622   4.296   5.165   3.397
  1014G12  H01N18623   4.396   5.122   3.397
  1014G12  H01R18624   4.255   5.152   3.297
  1014G12  H01Q18625   4.238   5.106   3.468
  1014G12  C02A18626   4.409   5.250   3.648
  1014G12  H01118627   4.397   5.143   3.636
  1014G12  C00C18628   4.852   5.190   3.914
  1014G12  H01218629   4.794   5.247   3.844
  1014G12  C00B18630   4.989   5.182   3.887
  1014G12  C00A18631   5.051   5.241   3.777
  1014G12  C00918632   5.000   5.261   3.643
  1014G12  C00818633   4.876   5.245   3.570
  1014G12  H01318634   4.784   5.242   3.627
  1014G12  C00718635   4.878   5.236   3.429
  1014G12  H01418636   4.786   5.223   3.374
  1014G12  C00618637   4.997   5.236   3.359
  1014G12  C00518638   5.118   5.250   3.434
  1014G12  C00418639   5.245   5.223   3.378
  1014G12  C00318640   5.361   5.208   3.463
  1014G12  C00218641   5.483   5.171   3.397
  1014G12  C00118642   5.621   5.137   3.436
  1014G12  C00M18643   5.646   5.053   3.553
  1014G12  C00L18644   5.576   5.080   3.678
  1014G12  C00R18645   5.576   4.992   3.790
  1014G12  C00Q18646   5.639   4.855   3.809
  1014G12  C00V18647   5.596   4.789   3.922
  1014G12  C00U18648   5.483   4.831   4.001
  1014G12  C00T18649   5.417   4.948   3.973
  1014G12  C01618650   5.290   4.984   4.007
  1014G12  C01518651   5.222   4.887   4.084
  1014G12  C01018652   5.295   4.781   4.140
  1014G12  C01118653   5.219   4.682   4.224
  1014G12  H00518654   5.273   4.593   4.253
  1014G12  C01218655   5.083   4.687   4.244
  1014G12  C01718656   5.005   4.573   4.300
  1014G12  O00218657   4.900   4.525   4.231
  1014G12  H00418658   4.841   4.493   4.298
  1014G12  C01818659   5.026   4.522   4.423
  1014G12  O00118660   5.123   4.579   4.507
  1014G12  H00318661   5.156   4.656   4.464
  1014G12  C01918662   4.945   4.411   4.481
  1014G12  H00218663   5.003   4.326   4.445
  1014G12  H00118664   4.942   4.399   4.589
  1014G12  O00018665   4.807   4.420   4.429
  1014G12  C01A18666   4.707   4.471   4.511
  1014G12  C02K18667   4.637   4.583   4.471
  1014G12  O00G18668   4.654   4.628   4.343
  1014G12  C02M18669   4.616   4.759   4.309
  1014G12  H01G18670   4.668   4.832   4.371
  1014G12  H01F18671   4.508   4.777   4.314
  1014G12  H01E18672   4.635   4.763   4.201
  1014G12  C02J18673   4.542   4.637   4.560
  1014G12  H01H18674   4.481   4.720   4.529
  1014G12  C02I18675   4.531   4.586   4.689
  1014G12  C02N18676   4.449   4.659   4.779
  1014G12  H01M18677   4.379   4.730   4.736
  1014G12  C02O18678   4.465   4.665   4.915
  1014G12  H01L18679   4.537   4.607   4.969
  1014G12  C02P18680   4.372   4.746   5.005
  1014G12  H01K18681   4.317   4.815   4.941
  1014G12  H01J18682   4.305   4.677   5.056
  1014G12  O00H18683   4.450   4.820   5.088
  1014G12  H01I18684   4.415   4.828   5.175
  1014G12  C02H18685   4.607   4.469   4.726
  1014G12  H01C18686   4.616   4.438   4.830
  1014G12  C02L18687   4.691   4.405   4.638
  1014G12  H01D18688   4.758   4.325   4.664
  1014G12  C01318689   5.018   4.801   4.190
  1014G12  H00018690   4.910   4.808   4.194
  1014G12  C01418691   5.088   4.906   4.115
  1014G12  C00F18692   5.014   5.018   4.063
  1014G12  C00H18693   5.215   5.089   3.947
  1014G12  C00I18694   5.276   5.169   3.856
  1014G12  C00J18695   5.411   5.139   3.819
  1014G12  C00Z18696   5.427   4.754   4.099
  1014G12  C00Y18697   5.496   4.640   4.147
  1014G12  H00618698   5.469   4.584   4.236
  1014G12  C00X18699   5.601   4.587   4.066
  1014G12  O00318700   5.656   4.463   4.083
  1014G12  C01B18701   5.580   4.372   4.159
  1014G12  H00918702   5.479   4.356   4.121
  1014G12  H00818703   5.576   4.391   4.267
  1014G12  H00718704   5.638   4.280   4.147
  1014G12  C00W18705   5.655   4.660   3.958
  1014G12  O00418706   5.765   4.609   3.891
  1014G12  C01C18707   5.792   4.668   3.770
  1014G12  H00A18708   5.883   4.637   3.720
  1014G12  C00P18709   5.721   4.781   3.712
  1014G12  C00O18710   5.747   4.807   3.577
  1014G12  C01D18711   5.786   4.704   3.488
  1014G12  H00S18712   5.820   4.603   3.509
  1014G12  C01E18713   5.777   4.712   3.342
  1014G12  O00818714   5.798   4.606   3.258
  1014G12  C01V18715   5.792   4.473   3.297
  1014G12  C01Z18716   5.926   4.396   3.299
  1014G12  H00R18717   5.909   4.306   3.241
  1014G12  H00Q18718   6.009   4.456   3.261
  1014G12  O00918719   5.982   4.381   3.430
  1014G12  H00P18720   6.076   4.382   3.426
  1014G12  C01W18721   5.670   4.415   3.322
  1014G12  H00O18722   5.578   4.471   3.309
  1014G12  C01X18723   5.654   4.271   3.366
  1014G12  H00N18724   5.746   4.221   3.397
  1014G12  H00M18725   5.597   4.268   3.458
  1014G12  C01Y18726   5.571   4.200   3.269
  1014G12  C02D18727   5.433   4.184   3.289
  1014G12  H01918728   5.376   4.227   3.370
  1014G12  C02C18729   5.354   4.106   3.200
  1014G12  H01A18730   5.247   4.099   3.214
  1014G12  C02B18731   5.415   4.030   3.098
  1014G12  O00E18732   5.341   3.954   3.015
  1014G12  H01B18733   5.372   3.964   2.926
  1014G12  C02F18734   5.559   4.038   3.081
  1014G12  O00F18735   5.607   3.966   2.979
  1014G12  C02G18736   5.740   3.980   2.930
  1014G12  H01718737   5.768   4.083   2.909
  1014G12  H01618738   5.740   3.924   2.836
  1014G12  H01518739   5.811   3.932   2.997
  1014G12  C02E18740   5.632   4.132   3.162
  1014G12  H01818741   5.738   4.141   3.150
  1014G12  C01F18742   5.735   4.830   3.289
  1014G12  C01G18743   5.677   4.839   3.160
  1014G12  H00L18744   5.673   4.752   3.096
  1014G12  C01H18745   5.595   4.951   3.128
  1014G12  H00B18746   5.527   4.938   3.045
  1014G12  C01I18747   5.594   5.063   3.216
  1014G12  C01U18748   5.717   4.946   3.371
  1014G12  C00S18749   5.475   5.032   3.876
  1014G12  C00K18750   5.459   5.157   3.688
  1014G12  C00N18751   5.710   4.932   3.515
  1014G12  C00018752   5.682   5.072   3.326
  1014G12  C01J18753   5.482   5.150   3.251
  1014G12  C01K18754   5.365   5.171   3.165
  1014G12  C01P18755   5.367   5.175   3.024
  1014G12  C01Q18756   5.495   5.185   2.942
  1014G12  H00G18757   5.589   5.204   2.991
  1014G12  C01R18758   5.508   5.182   2.808
  1014G12  H00F18759   5.420   5.171   2.746
  1014G12  C01S18760   5.644   5.181   2.737
  1014G12  H00E18761   5.723   5.115   2.775
  1014G12  H00D18762   5.623   5.154   2.633
  1014G12  O00518763   5.701   5.308   2.733
  1014G12  H00C18764   5.695   5.344   2.820
  1014G12  C01O18765   5.241   5.162   2.957
  1014G12  H00H18766   5.246   5.132   2.854
  1014G12  C01N18767   5.125   5.167   3.029
  1014G12  O00618768   5.000   5.150   2.965
  1014G12  C01T18769   4.935   5.271   2.928
  1014G12  H00K18770   4.893   5.308   3.021
  1014G12  H00J18771   4.848   5.252   2.866
  1014G12  H00I18772   5.004   5.346   2.890
  1014G12  C01M18773   5.130   5.204   3.163
  1014G12  C02018774   5.363   5.219   3.607
  1014G12  C02118775   5.239   5.277   3.648
  1014G12  C01L18776   5.249   5.205   3.240
  1014G12  O00718777   5.004   5.213   3.224
  1014G12  C02218778   5.122   5.280   3.573
  1014G12  C02318779   5.192   5.251   3.780
  1014G12  C00G18780   5.076   5.095   3.964
  1014G12  C00E18781   4.874   5.044   4.101
  1014G12  O00A18782   4.825   5.000   4.219
  1014G12  C02418783   4.888   5.049   4.337
  1014G12  H00V18784   4.996   5.069   4.339
  1014G12  H00U18785   4.851   4.979   4.412
  1014G12  H00T18786   4.840   5.143   4.361
  1024G12  C00D18787   1.137   5.384   9.483
  1024G12  O00B18788   1.153   5.427   9.353
  1024G12  C02518789   1.252   5.529   9.339
  1024G12  C02618790   1.393   5.472   9.319
  1024G12  H00Y18791   1.469   5.547   9.296
  1024G12  H00X18792   1.388   5.394   9.242
  1024G12  O00C18793   1.431   5.431   9.443
  1024G12  H00W18794   1.391   5.346   9.456
  1024G12  C02718795   1.214   5.660   9.345
  1024G12  O00D18796   1.084   5.686   9.335
  1024G12  H00Z18797   1.045   5.606   9.304
  1024G12  C02818798   1.311   5.768   9.353
  1024G12  C02918799   1.430   5.758   9.433
  1024G12  H01018800   1.448   5.663   9.480
  1024G12  C02T18801   1.523   5.868   9.437
  1024G12  H01O18802   1.616   5.862   9.492
  1024G12  C02S18803   1.483   5.993   9.385
  1024G12  O00J18804   1.553   6.106   9.408
  1024G12  H01P18805   1.522   6.161   9.338
  1024G12  C02R18806   1.369   6.004   9.313
  1024G12  O00I18807   1.345   6.133   9.274
  1024G12  C02Q18808   1.227   6.161   9.203
  1024G12  H01N18809   1.145   6.130   9.269
  1024G12  H01R18810   1.216   6.108   9.109
  1024G12  H01Q18811   1.217   6.266   9.178
  1024G12  C02A18812   1.281   5.898   9.297
  1024G12  H01118813   1.188   5.907   9.242
  1024G12  C00C18814   1.125   5.468   9.592
  1024G12  H01218815   1.146   5.574   9.582
  1024G12  C00B18816   1.091   5.423   9.717
  1024G12  C00A18817   1.076   5.498   9.835
  1024G12  C00918818   1.119   5.632   9.872
  1024G12  C00818819   1.200   5.733   9.815
  1024G12  H01318820   1.205   5.741   9.707
  1024G12  C00718821   1.291   5.804   9.899
  1024G12  H01418822   1.355   5.879   9.855
  1024G12  C00618823   1.293   5.784  10.041
  1024G12  C00518824   1.208   5.688  10.090
  1024G12  C00418825   1.226   5.641  10.224
  1024G12  C00318826   1.154   5.527  10.275
  1024G12  C00218827   1.183   5.483  10.414
  1024G12  C00118828   1.148   5.365  10.493
  1024G12  C00M18829   1.151   5.233  10.439
  1024G12  C00L18830   1.099   5.201  10.314
  1024G12  C00R18831   1.113   5.073  10.245
  1024G12  C00Q18832   1.181   4.951  10.274
  1024G12  C00V18833   1.175   4.860  10.168
  1024G12  C00U18834   1.136   4.893  10.039
  1024G12  C00T18835   1.088   5.011  10.005
  1024G12  C01618836   1.084   5.069   9.880
  1024G12  C01518837   1.116   4.987   9.776
  1024G12  C01018838   1.142   4.849   9.798
  1024G12  C01118839   1.184   4.767   9.690
  1024G12  H00518840   1.186   4.659   9.694
  1024G12  C01218841   1.204   4.825   9.567
  1024G12  C01718842   1.238   4.737   9.456
  1024G12  O00218843   1.340   4.643   9.479
  1024G12  H00418844   1.346   4.598   9.397
  1024G12  C01818845   1.191   4.756   9.331
  1024G12  O00118846   1.087   4.854   9.314
  1024G12  H00318847   1.048   4.872   9.399
  1024G12  C01918848   1.226   4.677   9.205
  1024G12  H00218849   1.142   4.618   9.170
  1024G12  H00118850   1.246   4.762   9.139
  1024G12  O00018851   1.330   4.576   9.229
  1024G12  C01A18852   1.430   4.575   9.138
  1024G12  C02K18853   1.562   4.543   9.189
  1024G12  O00G18854   1.572   4.525   9.326
  1024G12  C02M18855   1.664   4.618   9.377
  1024G12  H01G18856   1.628   4.721   9.372
  1024G12  H01F18857   1.758   4.625   9.323
  1024G12  H01E18858   1.697   4.592   9.477
  1024G12  C02J18859   1.673   4.548   9.099
  1024G12  H01H18860   1.773   4.526   9.134
  1024G12  C02I18861   1.657   4.585   8.962
  1024G12  C02N18862   1.767   4.591   8.867
  1024G12  H01M18863   1.870   4.608   8.896
  1024G12  C02O18864   1.755   4.582   8.735
  1024G12  H01L18865   1.672   4.551   8.674
  1024G12  C02P18866   1.879   4.603   8.644
  1024G12  H01K18867   1.974   4.635   8.687
  1024G12  H01J18868   1.902   4.513   8.588
  1024G12  O00H18869   1.860   4.698   8.540
  1024G12  H01I18870   1.812   4.656   8.470
  1024G12  C02H18871   1.525   4.608   8.918
  1024G12  H01C18872   1.500   4.623   8.814
  1024G12  C02L18873   1.411   4.606   9.004
  1024G12  H01D18874   1.318   4.643   8.964
  1024G12  C01318875   1.193   4.964   9.550
  1024G12  H00018876   1.217   5.005   9.453
  1024G12  C01418877   1.136   5.050   9.650
  1024G12  C00F18878   1.119   5.190   9.630
  1024G12  C00H18879   1.066   5.209   9.861
  1024G12  C00I18880   1.038   5.289   9.970
  1024G12  C00J18881   1.039   5.226  10.096
  1024G12  C00Z18882   1.149   4.804   9.934
  1024G12  C00Y18883   1.185   4.671   9.964
  1024G12  H00618884   1.181   4.594   9.888
  1024G12  C00X18885   1.211   4.625  10.093
  1024G12  O00318886   1.241   4.495  10.131
  1024G12  C01B18887   1.209   4.395  10.033
  1024G12  H00918888   1.220   4.299  10.083
  1024G12  H00818889   1.287   4.417   9.959
  1024G12  H00718890   1.106   4.402   9.997
  1024G12  C00W18891   1.208   4.724  10.195
  1024G12  O00418892   1.245   4.679  10.319
  1024G12  C01C18893   1.306   4.773  10.397
  1024G12  H00A18894   1.398   4.742  10.445
  1024G12  C00P18895   1.264   4.911  10.390
  1024G12  C00O18896   1.304   5.018  10.485
  1024G12  C01D18897   1.419   4.988  10.564
  1024G12  H00S18898   1.476   4.899  10.543
  1024G12  C01E18899   1.494   5.085  10.629
  1024G12  O00818900   1.627   5.067  10.664
  1024G12  C01V18901   1.713   5.051  10.559
  1024G12  C01Z18902   1.789   4.922  10.563
  1024G12  H00R18903   1.894   4.924  10.532
  1024G12  H00Q18904   1.796   4.891  10.667
  1024G12  O00918905   1.725   4.827  10.480
  1024G12  H00P18906   1.667   4.873  10.421
  1024G12  C01W18907   1.710   5.140  10.458
  1024G12  H00O18908   1.639   5.221  10.460
  1024G12  C01X18909   1.787   5.121  10.332
  1024G12  H00N18910   1.836   5.217  10.313
  1024G12  H00M18911   1.870   5.050  10.340
  1024G12  C01Y18912   1.696   5.075  10.221
  1024G12  C02D18913   1.701   4.936  10.177
  1024G12  H01918914   1.767   4.857  10.211
  1024G12  C02C18915   1.610   4.896  10.079
  1024G12  H01A18916   1.636   4.801  10.033
  1024G12  C02B18917   1.518   4.986  10.021
  1024G12  O00E18918   1.431   4.946   9.931
  1024G12  H01B18919   1.373   5.019   9.916
  1024G12  C02F18920   1.515   5.121  10.061
  1024G12  O00F18921   1.420   5.201   9.990
  1024G12  C02G18922   1.433   5.344  10.028
  1024G12  H01718923   1.353   5.393   9.972
  1024G12  H01618924   1.525   5.389   9.991
  1024G12  H01518925   1.413   5.359  10.134
  1024G12  C02E18926   1.602   5.166  10.164
  1024G12  H01818927   1.609   5.270  10.193
  1024G12  C01F18928   1.439   5.217  10.642
  1024G12  C01G18929   1.513   5.339  10.676
  1024G12  H00L18930   1.618   5.335  10.698
  1024G12  C01H18931   1.461   5.467  10.641
  1024G12  H00B18932   1.540   5.539  10.625
  1024G12  C01I18933   1.332   5.479  10.590
  1024G12  C01U18934   1.307   5.236  10.604
  1024G12  C00S18935   1.057   5.090  10.116
  1024G12  C00K18936   1.071   5.299  10.213
  1024G12  C00N18937   1.254   5.148  10.503
  1024G12  C00018938   1.245   5.365  10.602
  1024G12  C01J18939   1.281   5.559  10.482
  1024G12  C01K18940   1.340   5.687  10.442
  1024G12  C01P18941   1.422   5.777  10.520
  1024G12  C01Q18942   1.415   5.765  10.660
  1024G12  H00G18943   1.325   5.732  10.710
  1024G12  C01R18944   1.518   5.806  10.737
  1024G12  H00F18945   1.606   5.852  10.695
  1024G12  C01S18946   1.524   5.830  10.884
  1024G12  H00E18947   1.597   5.909  10.902
  1024G12  H00D18948   1.426   5.852  10.925
  1024G12  O00518949   1.567   5.705  10.931
  1024G12  H00C18950   1.496   5.661  10.975
  1024G12  C01O18951   1.462   5.902  10.462
  1024G12  H00H18952   1.516   5.977  10.518
  1024G12  C01N18953   1.458   5.913  10.325
  1024G12  O00618954   1.516   6.021  10.270
  1024G12  C01T18955   1.647   5.998  10.217
  1024G12  H00K18956   1.630   5.929  10.134
  1024G12  H00J18957   1.699   5.957  10.304
  1024G12  H00I18958   1.687   6.093  10.181
  1024G12  C01M18959   1.377   5.830  10.246
  1024G12  C02018960   1.078   5.443  10.187
  1024G12  C02118961   1.053   5.506  10.060
  1024G12  C01L18962   1.306   5.722  10.305
  1024G12  O00718963   1.377   5.859  10.114
  1024G12  C02218964   1.111   5.622  10.016
  1024G12  C02318965   1.033   5.428   9.949
  1024G12  C00G18966   1.089   5.276   9.737
  1024G12  C00E18967   1.122   5.248   9.497
  1024G12  O00A18968   1.122   5.173   9.380
  1024G12  C02418969   0.994   5.172   9.322
  1024G12  H00V18970   0.988   5.267   9.269
  1024G12  H00U18971   0.912   5.174   9.393
  1024G12  H00T18972   0.977   5.088   9.253
  1034G12  C00D18973   6.613   1.156   6.594
  1034G12  O00B18974   6.531   1.143   6.701
  1034G12  C02518975   6.479   1.252   6.769
  1034G12  C02618976   6.329   1.267   6.738
  1034G12  H00Y18977   6.284   1.362   6.768
  1034G12  H00X18978   6.283   1.190   6.799
  1034G12  O00C18979   6.307   1.245   6.597
  1034G12  H00W18980   6.299   1.150   6.598
  1034G12  C02718981   6.551   1.329   6.861
  1034G12  O00D18982   6.686   1.311   6.886
  1034G12  H00Z18983   6.706   1.355   6.968
  1034G12  C02818984   6.496   1.447   6.917
  1034G12  C02918985   6.458   1.457   7.054
  1034G12  H01018986   6.479   1.373   7.118
  1034G12  C02T18987   6.395   1.572   7.106
  1034G12  H01O18988   6.367   1.566   7.210
  1034G12  C02S18989   6.374   1.685   7.025
  1034G12  O00J18990   6.327   1.804   7.073
  1034G12  H01P18991   6.356   1.876   7.020
  1034G12  C02R18992   6.406   1.671   6.887
  1034G12  O00I18993   6.371   1.782   6.813
  1034G12  C02Q18994   6.380   1.779   6.674
  1034G12  H01N18995   6.316   1.704   6.628
  1034G12  H01R18996   6.484   1.772   6.641
  1034G12  H01Q18997   6.339   1.876   6.646
  1034G12  C02A18998   6.463   1.555   6.832
  1034G12  H01118999   6.497   1.545   6.730
  1034G12  C00C19000   6.614   1.278   6.521
  1034G12  H01219001   6.548   1.359   6.544
  1034G12  C00B19002   6.710   1.300   6.419
  1034G12  C00A19003   6.722   1.423   6.346
  1034G12  C00919004   6.614   1.511   6.300
  1034G12  C00819005   6.474   1.507   6.314
  1034G12  H01319006   6.425   1.455   6.395
  1034G12  C00719007   6.396   1.584   6.225
  1034G12  H01419008   6.289   1.597   6.230
  1034G12  C00619009   6.454   1.639   6.111
  1034G12  C00519010   6.585   1.623   6.087
  1034G12  C00419011   6.647   1.636   5.961
  1034G12  C00319012   6.779   1.588   5.937
  1034G12  C00219013   6.825   1.622   5.803
  1034G12  C00119014   6.949   1.574   5.740
  1034G12  C00M19015   7.000   1.441   5.757
  1034G12  C00L19016   7.021   1.378   5.881
  1034G12  C00R19017   7.048   1.242   5.900
  1034G12  C00Q19018   7.067   1.137   5.810
  1034G12  C00V19019   7.063   1.010   5.874
  1034G12  C00U19020   7.016   0.986   6.007
  1034G12  C00T19021   7.003   1.096   6.093
  1034G12  C01619022   6.932   1.088   6.207
  1034G12  C01519023   6.900   0.963   6.254
  1034G12  C01019024   6.939   0.846   6.188
  1034G12  C01119025   6.901   0.721   6.236
  1034G12  H00519026   6.927   0.626   6.193
  1034G12  C01219027   6.817   0.709   6.348
  1034G12  C01719028   6.750   0.589   6.386
  1034G12  O00219029   6.615   0.591   6.390
  1034G12  H00419030   6.590   0.504   6.418
  1034G12  C01819031   6.818   0.471   6.405
  1034G12  O00119032   6.954   0.461   6.398
  1034G12  H00319033   6.999   0.544   6.399
  1034G12  C01919034   6.757   0.339   6.443
  1034G12  H00219035   6.721   0.295   6.351
  1034G12  H00119036   6.828   0.268   6.485
  1034G12  O00019037   6.658   0.361   6.540
  1034G12  C01A19038   6.552   0.281   6.538
  1034G12  C02K19039   6.456   0.284   6.433
  1034G12  O00G19040   6.485   0.373   6.335
  1034G12  C02M19041   6.406   0.350   6.219
  1034G12  H01G19042   6.424   0.249   6.180
  1034G12  H01F19043   6.442   0.410   6.135
  1034G12  H01E19044   6.300   0.367   6.233
  1034G12  C02J19045   6.348   0.190   6.440
  1034G12  H01H19046   6.269   0.177   6.368
  1034G12  C02I19047   6.330   0.100   6.547
  1034G12  C02N19048   6.222   0.008   6.542
  1034G12  H01M19049   6.134   0.009   6.606
  1034G12  C02O19050   6.223  -0.079   6.441
  1034G12  H01L19051   6.313  -0.085   6.382
  1034G12  C02P19052   6.118  -0.179   6.414
  1034G12  H01K19053   6.172  -0.271   6.394
  1034G12  H01J19054   6.051  -0.205   6.497
  1034G12  O00H19055   6.043  -0.144   6.304
  1034G12  H01I19056   5.967  -0.196   6.286
  1034G12  C02H19057   6.429   0.105   6.646
  1034G12  H01C19058   6.417   0.035   6.727
  1034G12  C02L19059   6.540   0.189   6.638
  1034G12  H01D19060   6.613   0.180   6.717
  1034G12  C01319061   6.775   0.828   6.411
  1034G12  H00019062   6.690   0.814   6.476
  1034G12  C01419063   6.824   0.957   6.370
  1034G12  C00F19064   6.778   1.074   6.436
  1034G12  C00H19065   6.886   1.207   6.271
  1034G12  C00I19066   6.915   1.333   6.224
  1034G12  C00J19067   6.993   1.338   6.106
  1034G12  C00Z19068   6.993   0.858   6.060
  1034G12  C00Y19069   7.039   0.748   5.983
  1034G12  H00619070   7.036   0.648   6.024
  1034G12  C00X19071   7.073   0.765   5.846
  1034G12  O00319072   7.093   0.654   5.761
  1034G12  C01B19073   7.107   0.521   5.815
  1034G12  H00919074   7.171   0.527   5.902
  1034G12  H00819075   7.152   0.445   5.750
  1034G12  H00719076   7.010   0.501   5.860
  1034G12  C00W19077   7.088   0.893   5.796
  1034G12  O00419078   7.132   0.889   5.666
  1034G12  C01C19079   7.144   1.018   5.604
  1034G12  H00A19080   7.227   1.034   5.538
  1034G12  C00P19081   7.077   1.131   5.669
  1034G12  C00O19082   7.043   1.245   5.588
  1034G12  C01D19083   7.034   1.218   5.447
  1034G12  H00S19084   7.059   1.125   5.400
  1034G12  C01E19085   6.970   1.311   5.358
  1034G12  O00819086   6.951   1.275   5.222
  1034G12  C01V19087   7.031   1.348   5.133
  1034G12  C01Z19088   7.176   1.298   5.125
  1034G12  H00R19089   7.223   1.329   5.031
  1034G12  H00Q19090   7.238   1.351   5.197
  1034G12  O00919091   7.180   1.157   5.144
  1034G12  H00P19092   7.092   1.124   5.138
  1034G12  C01W19093   6.988   1.464   5.081
  1034G12  H00O19094   6.887   1.498   5.097
  1034G12  C01X19095   7.076   1.559   4.998
  1034G12  H00N19096   7.044   1.660   5.024
  1034G12  H00M19097   7.179   1.560   5.033
  1034G12  C01Y19098   7.080   1.549   4.846
  1034G12  C02D19099   7.044   1.423   4.785
  1034G12  H01919100   7.009   1.334   4.835
  1034G12  C02C19101   7.046   1.420   4.645
  1034G12  H01A19102   7.025   1.324   4.600
  1034G12  C02B19103   7.087   1.530   4.569
  1034G12  O00E19104   7.106   1.516   4.436
  1034G12  H01B19105   7.113   1.594   4.384
  1034G12  C02F19106   7.123   1.653   4.630
  1034G12  O00F19107   7.171   1.761   4.557
  1034G12  C02G19108   7.313   1.792   4.581
  1034G12  H01719109   7.376   1.704   4.576
  1034G12  H01619110   7.310   1.855   4.670
  1034G12  H01519111   7.336   1.863   4.501
  1034G12  C02E19112   7.122   1.660   4.768
  1034G12  H01819113   7.134   1.755   4.817
  1034G12  C01F19114   6.920   1.432   5.412
  1034G12  C01G19115   6.812   1.503   5.362
  1034G12  H00L19116   6.768   1.477   5.266
  1034G12  C01H19117   6.743   1.589   5.448
  1034G12  H00B19118   6.647   1.618   5.409
  1034G12  C01I19119   6.794   1.630   5.573
  1034G12  C01U19120   6.969   1.478   5.536
  1034G12  C00S19121   7.030   1.221   6.039
  1034G12  C00K19122   6.964   1.431   6.001
  1034G12  C00N19123   7.009   1.378   5.626
  1034G12  C00019124   6.924   1.591   5.603
  1034G12  C01J19125   6.737   1.666   5.699
  1034G12  C01K19126   6.612   1.723   5.725
  1034G12  C01P19127   6.521   1.796   5.646
  1034G12  C01Q19128   6.552   1.829   5.508
  1034G12  H00G19129   6.651   1.869   5.488
  1034G12  C01R19130   6.462   1.795   5.413
  1034G12  H00F19131   6.367   1.757   5.448
  1034G12  C01S19132   6.480   1.810   5.261
  1034G12  H00E19133   6.408   1.889   5.236
  1034G12  H00D19134   6.585   1.833   5.242
  1034G12  O00519135   6.428   1.689   5.215
  1034G12  H00C19136   6.338   1.683   5.241
  1034G12  C01O19137   6.392   1.839   5.689
  1034G12  H00H19138   6.316   1.893   5.634
  1034G12  C01N19139   6.349   1.813   5.817
  1034G12  O00619140   6.226   1.846   5.870
  1034G12  C01T19141   6.208   1.979   5.910
  1034G12  H00K19142   6.123   1.973   5.977
  1034G12  H00J19143   6.196   2.052   5.829
  1034G12  H00I19144   6.291   2.018   5.970
  1034G12  C01M19145   6.436   1.730   5.893
  1034G12  C02019146   6.861   1.523   6.036
  1034G12  C02119147   6.807   1.539   6.164
  1034G12  C01L19148   6.568   1.691   5.855
  1034G12  O00719149   6.381   1.706   6.018
  1034G12  C02219150   6.676   1.585   6.189
  1034G12  C02319151   6.835   1.440   6.265
  1034G12  C00G19152   6.794   1.192   6.376
  1034G12  C00E19153   6.708   1.057   6.561
  1034G12  O00A19154   6.742   0.964   6.653
  1034G12  C02419155   6.871   0.990   6.715
  1034G12  H00V19156   6.858   1.091   6.753
  1034G12  H00U19157   6.948   0.993   6.638
  1034G12  H00T19158   6.896   0.916   6.791
  1044G12  C00D19159   3.753   1.214   8.567
  1044G12  O00B19160   3.812   1.317   8.492
  1044G12  C02519161   3.951   1.329   8.484
  1044G12  C02619162   3.988   1.291   8.337
  1044G12  H00Y19163   3.931   1.200   8.320
  1044G12  H00X19164   4.094   1.268   8.334
  1044G12  O00C19165   3.952   1.393   8.250
  1044G12  H00W19166   3.861   1.415   8.263
  1044G12  C02719167   4.033   1.369   8.586
  1044G12  O00D19168   3.992   1.388   8.711
  1044G12  H00Z19169   3.897   1.391   8.703
  1044G12  C02819170   4.174   1.383   8.563
  1044G12  C02919171   4.272   1.319   8.648
  1044G12  H01019172   4.233   1.251   8.723
  1044G12  C02T19173   4.410   1.346   8.637
  1044G12  H01O19174   4.480   1.297   8.702
  1044G12  C02S19175   4.455   1.426   8.531
  1044G12  O00J19176   4.590   1.426   8.494
  1044G12  H01P19177   4.612   1.494   8.432
  1044G12  C02R19178   4.362   1.495   8.447
  1044G12  O00I19179   4.416   1.564   8.347
  1044G12  C02Q19180   4.350   1.596   8.227
  1044G12  H01N19181   4.424   1.633   8.156
  1044G12  H01R19182   4.277   1.674   8.250
  1044G12  H01Q19183   4.280   1.523   8.185
  1044G12  C02A19184   4.221   1.465   8.457
  1044G12  H01119185   4.152   1.518   8.393
  1044G12  C00C19186   3.821   1.131   8.657
  1044G12  H01219187   3.929   1.136   8.660
  1044G12  C00B19188   3.751   1.051   8.747
  1044G12  C00A19189   3.798   0.969   8.858
  1044G12  C00919190   3.923   0.897   8.872
  1044G12  C00819191   4.039   0.885   8.789
  1044G12  H01319192   4.051   0.959   8.711
  1044G12  C00719193   4.123   0.775   8.813
  1044G12  H01419194   4.211   0.762   8.751
  1044G12  C00619195   4.083   0.665   8.901
  1044G12  C00519196   3.969   0.689   8.981
  1044G12  C00419197   3.901   0.586   9.050
  1044G12  C00319198   3.775   0.603   9.106
  1044G12  C00219199   3.712   0.487   9.160
  1044G12  C00119200   3.587   0.460   9.223
  1044G12  C00M19201   3.458   0.507   9.166
  1044G12  C00L19202   3.435   0.638   9.119
  1044G12  C00R19203   3.326   0.674   9.030
  1044G12  C00Q19204   3.211   0.598   8.978
  1044G12  C00V19205   3.146   0.665   8.870
  1044G12  C00U19206   3.199   0.783   8.804
  1044G12  C00T19207   3.322   0.837   8.842
  1044G12  C01619208   3.397   0.930   8.781
  1044G12  C01519209   3.340   0.981   8.663
  1044G12  C01019210   3.215   0.936   8.620
  1044G12  C01119211   3.168   0.984   8.495
  1044G12  H00519212   3.070   0.952   8.464
  1044G12  C01219213   3.247   1.062   8.407
  1044G12  C01719214   3.205   1.088   8.272
  1044G12  O00219215   3.148   0.989   8.196
  1044G12  H00419216   3.124   0.923   8.259
  1044G12  C01819217   3.226   1.207   8.215
  1044G12  O00119218   3.283   1.318   8.270
  1044G12  H00319219   3.306   1.373   8.197
  1044G12  C01919220   3.193   1.228   8.068
  1044G12  H00219221   3.132   1.149   8.025
  1044G12  H00119222   3.140   1.321   8.048
  1044G12  O00019223   3.317   1.243   7.995
  1044G12  C01A19224   3.305   1.215   7.859
  1044G12  C02K19225   3.332   1.318   7.764
  1044G12  O00G19226   3.381   1.446   7.809
  1044G12  C02M19227   3.364   1.562   7.734
  1044G12  H01G19228   3.406   1.641   7.796
  1044G12  H01F19229   3.257   1.574   7.720
  1044G12  H01E19230   3.409   1.558   7.635
  1044G12  C02J19231   3.306   1.295   7.625
  1044G12  H01H19232   3.317   1.370   7.548
  1044G12  C02I19233   3.263   1.166   7.577
  1044G12  C02N19234   3.241   1.136   7.438
  1044G12  H01M19235   3.292   1.191   7.359
  1044G12  C02O19236   3.164   1.036   7.401
  1044G12  H01L19237   3.102   0.979   7.468
  1044G12  C02P19238   3.134   1.005   7.256
  1044G12  H01K19239   3.232   0.981   7.213
  1044G12  H01J19240   3.072   0.916   7.246
  1044G12  O00H19241   3.076   1.114   7.182
  1044G12  H01I19242   2.988   1.123   7.215
  1044G12  C02H19243   3.242   1.068   7.676
  1044G12  H01C19244   3.206   0.969   7.653
  1044G12  C02L19245   3.262   1.088   7.815
  1044G12  H01D19246   3.233   1.008   7.881
  1044G12  C01319247   3.371   1.109   8.458
  1044G12  H00019248   3.429   1.163   8.385
  1044G12  C01419249   3.415   1.076   8.589
  1044G12  C00F19250   3.544   1.114   8.632
  1044G12  C00H19251   3.528   0.958   8.822
  1044G12  C00I19252   3.581   0.904   8.938
  1044G12  C00J19253   3.490   0.820   9.009
  1044G12  C00Z19254   3.145   0.837   8.690
  1044G12  C00Y19255   3.020   0.786   8.650
  1044G12  H00619256   2.971   0.817   8.558
  1044G12  C00X19257   2.960   0.674   8.709
  1044G12  O00319258   2.840   0.629   8.666
  1044G12  C01B19259   2.855   0.529   8.574
  1044G12  H00919260   2.767   0.466   8.560
  1044G12  H00819261   2.932   0.458   8.605
  1044G12  H00719262   2.871   0.581   8.480
  1044G12  C00W19263   3.018   0.613   8.825
  1044G12  O00419264   2.956   0.505   8.879
  1044G12  C01C19265   3.020   0.441   8.978
  1044G12  H00A19266   2.963   0.372   9.039
  1044G12  C00P19267   3.159   0.471   9.014
  1044G12  C00O19268   3.245   0.372   9.075
  1044G12  C01D19269   3.202   0.236   9.059
  1044G12  H00S19270   3.101   0.210   9.030
  1044G12  C01E19271   3.291   0.127   9.079
  1044G12  O00819272   3.250  -0.003   9.057
  1044G12  C01V19273   3.230  -0.082   9.167
  1044G12  C01Z19274   3.248  -0.235   9.135
  1044G12  H00R19275   3.250  -0.298   9.224
  1044G12  H00Q19276   3.167  -0.268   9.070
  1044G12  O00919277   3.369  -0.248   9.072
  1044G12  H00P19278   3.351  -0.236   8.980
  1044G12  C01W19279   3.187  -0.026   9.284
  1044G12  H00O19280   3.177   0.081   9.292
  1044G12  C01X19281   3.148  -0.100   9.412
  1044G12  H00N19282   3.049  -0.083   9.454
  1044G12  H00M19283   3.141  -0.205   9.384
  1044G12  C01Y19284   3.249  -0.092   9.527
  1044G12  C02D19285   3.200  -0.121   9.657
  1044G12  H01919286   3.095  -0.143   9.673
  1044G12  C02C19287   3.278  -0.116   9.768
  1044G12  H01A19288   3.231  -0.125   9.865
  1044G12  C02B19289   3.414  -0.076   9.753
  1044G12  O00E19290   3.496  -0.054   9.863
  1044G12  H01B19291   3.585  -0.058   9.833
  1044G12  C02F19292   3.466  -0.049   9.617
  1044G12  O00F19293   3.597  -0.005   9.611
  1044G12  C02G19294   3.654   0.021   9.483
  1044G12  H01719295   3.665  -0.072   9.427
  1044G12  H01619296   3.753   0.067   9.480
  1044G12  H01519297   3.586   0.093   9.436
  1044G12  C02E19298   3.387  -0.063   9.503
  1044G12  H01819299   3.422  -0.059   9.401
  1044G12  C01F19300   3.421   0.150   9.125
  1044G12  C01G19301   3.536   0.067   9.097
  1044G12  H00L19302   3.516  -0.026   9.047
  1044G12  C01H19303   3.667   0.119   9.113
  1044G12  H00B19304   3.749   0.057   9.080
  1044G12  C01I19305   3.685   0.252   9.167
  1044G12  C01U19306   3.455   0.282   9.174
  1044G12  C00S19307   3.364   0.792   8.968
  1044G12  C00K19308   3.545   0.722   9.089
  1044G12  C00N19309   3.370   0.389   9.139
  1044G12  C00019310   3.575   0.319   9.223
  1044G12  C01J19311   3.781   0.359   9.149
  1044G12  C01K19312   3.917   0.345   9.113
  1044G12  C01P19313   3.999   0.229   9.125
  1044G12  C01Q19314   3.961   0.118   9.213
  1044G12  H00G19315   3.918   0.143   9.309
  1044G12  C01R19316   3.986  -0.008   9.175
  1044G12  H00F19317   4.028  -0.037   9.080
  1044G12  C01S19318   3.971  -0.117   9.272
  1044G12  H00E19319   4.055  -0.187   9.278
  1044G12  H00D19320   3.961  -0.075   9.372
  1044G12  O00519321   3.850  -0.185   9.252
  1044G12  H00C19322   3.832  -0.248   9.320
  1044G12  C01O19323   4.131   0.230   9.071
  1044G12  H00H19324   4.190   0.140   9.085
  1044G12  C01N19325   4.178   0.337   8.996
  1044G12  O00619326   4.310   0.331   8.953
  1044G12  C01T19327   4.411   0.368   9.049
  1044G12  H00K19328   4.513   0.345   9.017
  1044G12  H00J19329   4.393   0.310   9.140
  1044G12  H00I19330   4.406   0.470   9.087
  1044G12  C01M19331   4.095   0.450   8.990
  1044G12  C02019332   3.693   0.723   9.089
  1044G12  C02119333   3.776   0.830   9.046
  1044G12  C01L19334   3.967   0.461   9.051
  1044G12  O00719335   4.158   0.555   8.925
  1044G12  C02219336   3.901   0.813   8.982
  1044G12  C02319337   3.714   0.925   8.961
  1044G12  C00G19338   3.607   1.047   8.739
  1044G12  C00E19339   3.613   1.212   8.565
  1044G12  O00A19340   3.556   1.302   8.478
  1044G12  C02419341   3.486   1.411   8.541
  1044G12  H00V19342   3.565   1.466   8.592
  1044G12  H00U19343   3.417   1.382   8.620
  1044G12  H00T19344   3.446   1.473   8.461
  1054G12  C00D19345   1.980   5.222   6.790
  1054G12  O00B19346   1.864   5.165   6.842
  1054G12  C02519347   1.878   5.067   6.944
  1054G12  C02619348   1.832   5.110   7.081
  1054G12  H00Y19349   1.898   5.080   7.162
  1054G12  H00X19350   1.727   5.085   7.093
  1054G12  O00C19351   1.834   5.250   7.090
  1054G12  H00W19352   1.789   5.283   7.013
  1054G12  C02719353   1.921   4.941   6.915
  1054G12  O00D19354   1.958   4.915   6.788
  1054G12  H00Z19355   1.953   4.997   6.740
  1054G12  C02819356   1.937   4.838   7.009
  1054G12  C02919357   2.048   4.748   6.999
  1054G12  H01019358   2.121   4.765   6.921
  1054G12  C02T19359   2.073   4.651   7.095
  1054G12  H01O19360   2.161   4.589   7.088
  1054G12  C02S19361   1.985   4.639   7.203
  1054G12  O00J19362   2.018   4.556   7.304
  1054G12  H01P19363   1.964   4.569   7.380
  1054G12  C02R19364   1.866   4.719   7.214
  1054G12  O00I19365   1.784   4.691   7.320
  1054G12  C02Q19366   1.676   4.785   7.341
  1054G12  H01N19367   1.632   4.752   7.435
  1054G12  H01R19368   1.595   4.795   7.269
  1054G12  H01Q19369   1.722   4.878   7.376
  1054G12  C02A19370   1.836   4.814   7.111
  1054G12  H01119371   1.741   4.865   7.114
  1054G12  C00C19372   2.088   5.252   6.867
  1054G12  H01219373   2.084   5.214   6.968
  1054G12  C00B19374   2.211   5.302   6.822
  1054G12  C00A19375   2.335   5.323   6.890
  1054G12  C00919376   2.374   5.339   7.027
  1054G12  C00819377   2.300   5.357   7.147
  1054G12  H01319378   2.196   5.329   7.149
  1054G12  C00719379   2.358   5.430   7.256
  1054G12  H01419380   2.295   5.452   7.341
  1054G12  C00619381   2.486   5.484   7.246
  1054G12  C00519382   2.556   5.468   7.127
  1054G12  C00419383   2.650   5.566   7.087
  1054G12  C00319384   2.688   5.576   6.955
  1054G12  C00219385   2.787   5.679   6.927
  1054G12  C00119386   2.856   5.728   6.808
  1054G12  C00M19387   2.796   5.742   6.683
  1054G12  C00L19388   2.693   5.658   6.644
  1054G12  C00R19389   2.610   5.669   6.532
  1054G12  C00Q19390   2.602   5.769   6.429
  1054G12  C00V19391   2.502   5.742   6.330
  1054G12  C00U19392   2.405   5.643   6.351
  1054G12  C00T19393   2.412   5.559   6.453
  1054G12  C01619394   2.310   5.475   6.502
  1054G12  C01519395   2.198   5.469   6.420
  1054G12  C01019396   2.194   5.532   6.298
  1054G12  C01119397   2.080   5.515   6.214
  1054G12  H00519398   2.072   5.570   6.122
  1054G12  C01219399   1.965   5.438   6.251
  1054G12  C01719400   1.854   5.436   6.162
  1054G12  O00219401   1.854   5.537   6.067
  1054G12  H00419402   1.767   5.545   6.031
  1054G12  C01819403   1.765   5.330   6.156
  1054G12  O00119404   1.779   5.211   6.229
  1054G12  H00319405   1.710   5.155   6.198
  1054G12  C01919406   1.655   5.318   6.058
  1054G12  H00219407   1.602   5.413   6.055
  1054G12  H00119408   1.705   5.312   5.961
  1054G12  O00019409   1.573   5.201   6.083
  1054G12  C01A19410   1.465   5.180   6.003
  1054G12  C02K19411   1.334   5.216   6.040
  1054G12  O00G19412   1.295   5.260   6.160
  1054G12  C02M19413   1.373   5.233   6.275
  1054G12  H01G19414   1.403   5.129   6.267
  1054G12  H01F19415   1.325   5.261   6.368
  1054G12  H01E19416   1.465   5.292   6.270
  1054G12  C02J19417   1.235   5.202   5.944
  1054G12  H01H19418   1.135   5.227   5.977
  1054G12  C02I19419   1.259   5.153   5.810
  1054G12  C02N19420   1.157   5.137   5.713
  1054G12  H01M19421   1.053   5.111   5.727
  1054G12  C02O19422   1.195   5.147   5.578
  1054G12  H01L19423   1.294   5.184   5.554
  1054G12  C02P19424   1.088   5.132   5.462
  1054G12  H01K19425   1.135   5.134   5.364
  1054G12  H01J19426   1.041   5.034   5.464
  1054G12  O00H19427   0.995   5.232   5.473
  1054G12  H01I19428   0.951   5.225   5.556
  1054G12  C02H19429   1.390   5.100   5.787
  1054G12  H01C19430   1.420   5.048   5.697
  1054G12  C02L19431   1.493   5.119   5.883
  1054G12  H01D19432   1.593   5.081   5.863
  1054G12  C01319433   1.975   5.382   6.380
  1054G12  H00019434   1.885   5.337   6.418
  1054G12  C01419435   2.091   5.393   6.467
  1054G12  C00F19436   2.098   5.329   6.598
  1054G12  C00H19437   2.323   5.406   6.623
  1054G12  C00I19438   2.447   5.403   6.689
  1054G12  C00J19439   2.557   5.469   6.628
  1054G12  C00Z19440   2.294   5.634   6.270
  1054G12  C00Y19441   2.283   5.725   6.162
  1054G12  H00619442   2.200   5.726   6.093
  1054G12  C00X19443   2.377   5.828   6.138
  1054G12  O00319444   2.357   5.932   6.051
  1054G12  C01B19445   2.238   5.925   5.973
  1054G12  H00919446   2.233   5.828   5.923
  1054G12  H00819447   2.229   5.985   5.882
  1054G12  H00719448   2.153   5.942   6.038
  1054G12  C00W19449   2.483   5.835   6.227
  1054G12  O00419450   2.568   5.942   6.208
  1054G12  C01C19451   2.626   5.988   6.323
  1054G12  H00A19452   2.678   6.082   6.312
  1054G12  C00P19453   2.655   5.901   6.431
  1054G12  C00O19454   2.723   5.955   6.547
  1054G12  C01D19455   2.739   6.094   6.558
  1054G12  H00S19456   2.692   6.163   6.490
  1054G12  C01E19457   2.795   6.157   6.666
  1054G12  O00819458   2.774   6.294   6.677
  1054G12  C01V19459   2.879   6.376   6.637
  1054G12  C01Z19460   2.878   6.394   6.482
  1054G12  H00R19461   2.984   6.397   6.455
  1054G12  H00Q19462   2.842   6.314   6.417
  1054G12  O00919463   2.825   6.521   6.450
  1054G12  H00P19464   2.877   6.587   6.492
  1054G12  C01W19465   2.975   6.418   6.726
  1054G12  H00O19466   2.967   6.399   6.832
  1054G12  C01X19467   3.109   6.491   6.696
  1054G12  H00N19468   3.124   6.523   6.593
  1054G12  H00M19469   3.114   6.578   6.763
  1054G12  C01Y19470   3.219   6.395   6.738
  1054G12  C02D19471   3.321   6.441   6.830
  1054G12  H01919472   3.323   6.538   6.876
  1054G12  C02C19473   3.426   6.357   6.866
  1054G12  H01A19474   3.502   6.393   6.933
  1054G12  C02B19475   3.431   6.227   6.821
  1054G12  O00E19476   3.523   6.142   6.868
  1054G12  H01B19477   3.541   6.082   6.796
  1054G12  C02F19478   3.334   6.173   6.735
  1054G12  O00F19479   3.335   6.043   6.716
  1054G12  C02G19480   3.224   5.979   6.645
  1054G12  H01719481   3.201   6.025   6.549
  1054G12  H01619482   3.130   5.985   6.700
  1054G12  H01519483   3.254   5.874   6.643
  1054G12  C02E19484   3.230   6.266   6.687
  1054G12  H01819485   3.153   6.234   6.618
  1054G12  C01F19486   2.846   6.079   6.770
  1054G12  C01G19487   2.864   6.124   6.909
  1054G12  H00L19488   2.836   6.226   6.932
  1054G12  C01H19489   2.875   6.030   7.015
  1054G12  H00B19490   2.860   6.057   7.118
  1054G12  C01I19491   2.889   5.888   6.977
  1054G12  C01U19492   2.871   5.941   6.747
  1054G12  C00S19493   2.537   5.553   6.518
  1054G12  C00K19494   2.648   5.541   6.711
  1054G12  C00N19495   2.795   5.880   6.644
  1054G12  C00019496   2.910   5.854   6.844
  1054G12  C01J19497   2.828   5.769   7.032
  1054G12  C01K19498   2.797   5.746   7.171
  1054G12  C01P19499   2.853   5.803   7.287
  1054G12  C01Q19500   2.984   5.861   7.285
  1054G12  H00G19501   3.025   5.905   7.195
  1054G12  C01R19502   3.063   5.857   7.395
  1054G12  H00F19503   3.022   5.811   7.483
  1054G12  C01S19504   3.199   5.920   7.398
  1054G12  H00E19505   3.233   5.944   7.297
  1054G12  H00D19506   3.206   6.011   7.458
  1054G12  O00519507   3.290   5.830   7.465
  1054G12  H00C19508   3.377   5.861   7.445
  1054G12  C01O19509   2.781   5.803   7.407
  1054G12  H00H19510   2.811   5.856   7.496
  1054G12  C01N19511   2.675   5.717   7.423
  1054G12  O00619512   2.618   5.736   7.548
  1054G12  C01T19513   2.487   5.684   7.584
  1054G12  H00K19514   2.491   5.577   7.604
  1054G12  H00J19515   2.416   5.702   7.503
  1054G12  H00I19516   2.456   5.733   7.676
  1054G12  C01M19517   2.632   5.635   7.321
  1054G12  C02019518   2.639   5.495   6.847
  1054G12  C02119519   2.562   5.388   6.895
  1054G12  C01L19520   2.692   5.650   7.191
  1054G12  O00719521   2.538   5.549   7.353
  1054G12  C02219522   2.513   5.382   7.025
  1054G12  C02319523   2.451   5.349   6.819
  1054G12  C00G19524   2.213   5.346   6.683
  1054G12  C00E19525   1.987   5.248   6.650
  1054G12  O00A19526   1.872   5.210   6.584
  1054G12  C02419527   1.893   5.086   6.508
  1054G12  H00V19528   1.899   4.996   6.569
  1054G12  H00U19529   1.986   5.099   6.454
  1054G12  H00T19530   1.813   5.076   6.435
  1064G12  C00D19531   2.610   1.488   4.018
  1064G12  O00B19532   2.719   1.470   4.103
  1064G12  C02519533   2.810   1.572   4.128
  1064G12  C02619534   2.750   1.688   4.208
  1064G12  H00Y19535   2.663   1.722   4.151
  1064G12  H00X19536   2.814   1.776   4.213
  1064G12  O00C19537   2.713   1.642   4.330
  1064G12  H00W19538   2.668   1.559   4.322
  1064G12  C02719539   2.937   1.561   4.086
  1064G12  O00D19540   2.965   1.443   4.027
  1064G12  H00Z19541   2.892   1.385   4.045
  1064G12  C02819542   3.029   1.671   4.074
  1064G12  C02919543   3.166   1.634   4.077
  1064G12  H01019544   3.202   1.534   4.097
  1064G12  C02T19545   3.264   1.732   4.070
  1064G12  H01O19546   3.367   1.701   4.081
  1064G12  C02S19547   3.223   1.867   4.054
  1064G12  O00J19548   3.310   1.973   4.054
  1064G12  H01P19549   3.256   2.036   4.009
  1064G12  C02R19550   3.086   1.902   4.038
  1064G12  O00I19551   3.063   2.038   4.023
  1064G12  C02Q19552   2.929   2.078   4.020
  1064G12  H01N19553   2.863   2.040   4.097
  1064G12  H01R19554   2.886   2.043   3.926
  1064G12  H01Q19555   2.926   2.186   4.013
  1064G12  C02A19556   2.992   1.802   4.042
  1064G12  H01119557   2.886   1.818   4.029
  1064G12  C00C19558   2.514   1.385   4.016
  1064G12  H01219559   2.538   1.295   4.070
  1064G12  C00B19560   2.397   1.386   3.942
  1064G12  C00A19561   2.297   1.286   3.935
  1064G12  C00919562   2.315   1.139   3.939
  1064G12  C00819563   2.426   1.054   3.951
  1064G12  H01319564   2.519   1.094   3.988
  1064G12  C00719565   2.422   0.925   3.897
  1064G12  H01419566   2.507   0.859   3.908
  1064G12  C00619567   2.309   0.884   3.825
  1064G12  C00519568   2.202   0.968   3.816
  1064G12  C00419569   2.109   0.961   3.712
  1064G12  C00319570   2.017   1.068   3.675
  1064G12  C00219571   1.926   1.035   3.562
  1064G12  C00119572   1.828   1.115   3.488
  1064G12  C00M19573   1.849   1.261   3.457
  1064G12  C00L19574   1.894   1.352   3.547
  1064G12  C00R19575   1.951   1.478   3.510
  1064G12  C00Q19576   1.956   1.552   3.385
  1064G12  C00V19577   2.031   1.672   3.395
  1064G12  C00U19578   2.117   1.704   3.506
  1064G12  C00T19579   2.128   1.615   3.610
  1064G12  C01619580   2.229   1.618   3.705
  1064G12  C01519581   2.320   1.726   3.701
  1064G12  C01019582   2.299   1.830   3.607
  1064G12  C01119583   2.382   1.945   3.606
  1064G12  H00519584   2.366   2.027   3.538
  1064G12  C01219585   2.487   1.956   3.703
  1064G12  C01719586   2.572   2.071   3.700
  1064G12  O00219587   2.519   2.192   3.737
  1064G12  H00419588   2.427   2.187   3.714
  1064G12  C01819589   2.699   2.055   3.667
  1064G12  O00119590   2.751   1.933   3.637
  1064G12  H00319591   2.839   1.953   3.611
  1064G12  C01919592   2.794   2.160   3.621
  1064G12  H00219593   2.782   2.152   3.513
  1064G12  H00119594   2.759   2.263   3.637
  1064G12  O00019595   2.917   2.116   3.678
  1064G12  C01A19596   3.038   2.173   3.659
  1064G12  C02K19597   3.062   2.279   3.562
  1064G12  O00G19598   2.965   2.336   3.491
  1064G12  C02M19599   2.993   2.392   3.358
  1064G12  H01G19600   2.898   2.394   3.304
  1064G12  H01F19601   3.040   2.324   3.287
  1064G12  H01E19602   3.045   2.487   3.352
  1064G12  C02J19603   3.194   2.324   3.546
  1064G12  H01H19604   3.214   2.399   3.472
  1064G12  C02I19605   3.299   2.262   3.619
  1064G12  C02N19606   3.435   2.304   3.607
  1064G12  H01M19607   3.464   2.408   3.606
  1064G12  C02O19608   3.533   2.217   3.596
  1064G12  H01L19609   3.512   2.111   3.596
  1064G12  C02P19610   3.682   2.236   3.574
  1064G12  H01K19611   3.726   2.294   3.654
  1064G12  H01J19612   3.731   2.139   3.567
  1064G12  O00H19613   3.694   2.289   3.444
  1064G12  H01I19614   3.631   2.241   3.392
  1064G12  C02H19615   3.274   2.168   3.717
  1064G12  H01C19616   3.351   2.116   3.771
  1064G12  C02L19617   3.143   2.123   3.739
  1064G12  H01D19618   3.142   2.032   3.798
  1064G12  C01319619   2.504   1.851   3.788
  1064G12  H00019620   2.582   1.869   3.861
  1064G12  C01419621   2.429   1.727   3.783
  1064G12  C00F19622   2.462   1.613   3.861
  1064G12  C00H19623   2.242   1.514   3.797
  1064G12  C00I19624   2.146   1.417   3.808
  1064G12  C00J19625   2.036   1.421   3.712
  1064G12  C00Z19626   2.202   1.814   3.504
  1064G12  C00Y19627   2.180   1.910   3.404
  1064G12  H00619628   2.236   2.003   3.400
  1064G12  C00X19629   2.095   1.891   3.297
  1064G12  O00319630   2.083   1.994   3.209
  1064G12  C01B19631   2.046   1.980   3.071
  1064G12  H00919632   1.941   1.957   3.055
  1064G12  H00819633   2.111   1.909   3.019
  1064G12  H00719634   2.072   2.071   3.017
  1064G12  C00W19635   2.025   1.769   3.288
  1064G12  O00419636   1.951   1.746   3.176
  1064G12  C01C19637   1.906   1.621   3.157
  1064G12  H00A19638   1.837   1.606   3.075
  1064G12  C00P19639   1.912   1.514   3.251
  1064G12  C00O19640   1.888   1.375   3.213
  1064G12  C01D19641   1.894   1.334   3.070
  1064G12  H00S19642   1.918   1.403   2.990
  1064G12  C01E19643   1.894   1.196   3.038
  1064G12  O00819644   1.931   1.145   2.914
  1064G12  C01V19645   2.015   1.221   2.841
  1064G12  C01Z19646   1.947   1.255   2.710
  1064G12  H00R19647   1.995   1.207   2.625
  1064G12  H00Q19648   1.846   1.218   2.693
  1064G12  O00919649   1.954   1.398   2.702
  1064G12  H00P19650   1.892   1.435   2.641
  1064G12  C01W19651   2.140   1.250   2.891
  1064G12  H00O19652   2.183   1.216   2.984
  1064G12  C01X19653   2.254   1.323   2.815
  1064G12  H00N19654   2.342   1.262   2.793
  1064G12  H00M19655   2.218   1.332   2.713
  1064G12  C01Y19656   2.306   1.450   2.886
  1064G12  C02D19657   2.389   1.444   2.996
  1064G12  H01919658   2.419   1.349   3.038
  1064G12  C02C19659   2.437   1.561   3.055
  1064G12  H01A19660   2.496   1.558   3.145
  1064G12  C02B19661   2.404   1.682   2.996
  1064G12  O00E19662   2.452   1.794   3.049
  1064G12  H01B19663   2.406   1.871   3.020
  1064G12  C02F19664   2.307   1.697   2.896
  1064G12  O00F19665   2.285   1.821   2.849
  1064G12  C02G19666   2.195   1.825   2.737
  1064G12  H01719667   2.239   1.800   2.640
  1064G12  H01619668   2.143   1.920   2.725
  1064G12  H01519669   2.113   1.755   2.750
  1064G12  C02E19670   2.261   1.572   2.839
  1064G12  H01819671   2.198   1.566   2.752
  1064G12  C01F19672   1.879   1.102   3.142
  1064G12  C01G19673   1.911   0.966   3.125
  1064G12  H00L19674   1.934   0.936   3.023
  1064G12  C01H19675   1.910   0.873   3.235
  1064G12  H00B19676   1.952   0.775   3.216
  1064G12  C01I19677   1.889   0.926   3.364
  1064G12  C01U19678   1.830   1.141   3.270
  1064G12  C00S19679   2.033   1.512   3.616
  1064G12  C00K19680   1.965   1.307   3.669
  1064G12  C00N19681   1.853   1.273   3.313
  1064G12  C00019682   1.818   1.048   3.373
  1064G12  C01J19683   1.946   0.912   3.496
  1064G12  C01K19684   2.035   0.805   3.532
  1064G12  C01P19685   2.029   0.668   3.492
  1064G12  C01Q19686   1.911   0.622   3.428
  1064G12  H00G19687   1.817   0.673   3.442
  1064G12  C01R19688   1.920   0.510   3.353
  1064G12  H00F19689   2.010   0.456   3.326
  1064G12  C01S19690   1.800   0.451   3.279
  1064G12  H00E19691   1.715   0.516   3.300
  1064G12  H00D19692   1.815   0.453   3.171
  1064G12  O00519693   1.781   0.319   3.325
  1064G12  H00C19694   1.741   0.326   3.410
  1064G12  C01O19695   2.122   0.572   3.536
  1064G12  H00H19696   2.130   0.469   3.504
  1064G12  C01N19697   2.221   0.608   3.624
  1064G12  O00619698   2.313   0.515   3.671
  1064G12  C01T19699   2.281   0.466   3.801
  1064G12  H00K19700   2.190   0.408   3.789
  1064G12  H00J19701   2.284   0.543   3.879
  1064G12  H00I19702   2.363   0.398   3.825
  1064G12  C01M19703   2.217   0.739   3.670
  1064G12  C02019704   2.010   1.190   3.744
  1064G12  C02119705   2.097   1.194   3.860
  1064G12  C01L19706   2.122   0.841   3.633
  1064G12  O00719707   2.313   0.768   3.761
  1064G12  C02219708   2.194   1.091   3.880
  1064G12  C02319709   2.166   1.314   3.897
  1064G12  C00G19710   2.366   1.506   3.870
  1064G12  C00E19711   2.587   1.597   3.932
  1064G12  O00A19712   2.695   1.683   3.908
  1064G12  C02419713   2.774   1.634   3.799
  1064G12  H00V19714   2.821   1.538   3.823
  1064G12  H00U19715   2.854   1.703   3.773
  1064G12  H00T19716   2.714   1.626   3.708
  1074G12  C00D19717   5.257   6.650   6.290
  1074G12  O00B19718   5.343   6.600   6.387
  1074G12  C02519719   5.347   6.649   6.518
  1074G12  C02619720   5.302   6.543   6.618
  1074G12  H00Y19721   5.314   6.570   6.722
  1074G12  H00X19722   5.340   6.441   6.604
  1074G12  O00C19723   5.162   6.537   6.608
  1074G12  H00W19724   5.145   6.543   6.515
  1074G12  C02719725   5.399   6.773   6.554
  1074G12  O00D19726   5.453   6.860   6.457
  1074G12  H00Z19727   5.454   6.811   6.376
  1074G12  C02819728   5.391   6.828   6.686
  1074G12  C02919729   5.281   6.814   6.775
  1074G12  H01019730   5.191   6.760   6.746
  1074G12  C02T19731   5.277   6.877   6.897
  1074G12  H01O19732   5.185   6.864   6.952
  1074G12  C02S19733   5.393   6.940   6.947
  1074G12  O00J19734   5.407   6.997   7.069
  1074G12  H01P19735   5.501   7.004   7.080
  1074G12  C02R19736   5.503   6.953   6.865
  1074G12  O00I19737   5.615   7.022   6.917
  1074G12  C02Q19738   5.730   7.043   6.833
  1074G12  H01N19739   5.774   6.948   6.804
  1074G12  H01R19740   5.809   7.094   6.888
  1074G12  H01Q19741   5.709   7.102   6.744
  1074G12  C02A19742   5.503   6.895   6.736
  1074G12  H01119743   5.587   6.894   6.669
  1074G12  C00C19744   5.173   6.757   6.305
  1074G12  H01219745   5.176   6.800   6.404
  1074G12  C00B19746   5.114   6.830   6.201
  1074G12  C00A19747   5.042   6.950   6.211
  1074G12  C00919748   4.961   7.011   6.316
  1074G12  C00819749   4.933   6.983   6.451
  1074G12  H01319750   4.994   6.912   6.504
  1074G12  C00719751   4.819   7.047   6.515
  1074G12  H01419752   4.787   7.014   6.613
  1074G12  C00619753   4.735   7.128   6.435
  1074G12  C00519754   4.770   7.162   6.304
  1074G12  C00419755   4.682   7.224   6.214
  1074G12  C00319756   4.713   7.222   6.077
  1074G12  C00219757   4.610   7.273   5.993
  1074G12  C00119758   4.594   7.281   5.847
  1074G12  C00M19759   4.638   7.178   5.752
  1074G12  C00L19760   4.745   7.087   5.783
  1074G12  C00R19761   4.790   6.977   5.704
  1074G12  C00Q19762   4.726   6.899   5.602
  1074G12  C00V19763   4.798   6.784   5.564
  1074G12  C00U19764   4.904   6.736   5.642
  1074G12  C00T19765   4.956   6.805   5.748
  1074G12  C01619766   5.039   6.758   5.847
  1074G12  C01519767   5.089   6.627   5.827
  1074G12  C01019768   5.064   6.560   5.707
  1074G12  C01119769   5.131   6.434   5.678
  1074G12  H00519770   5.111   6.378   5.588
  1074G12  C01219771   5.221   6.377   5.770
  1074G12  C01719772   5.281   6.247   5.748
  1074G12  O00219773   5.194   6.155   5.689
  1074G12  H00419774   5.252   6.082   5.669
  1074G12  C01819775   5.409   6.221   5.777
  1074G12  O00119776   5.495   6.316   5.826
  1074G12  H00319777   5.460   6.402   5.808
  1074G12  C01919778   5.480   6.084   5.755
  1074G12  H00219779   5.577   6.101   5.708
  1074G12  H00119780   5.501   6.046   5.855
  1074G12  O00019781   5.401   6.004   5.673
  1074G12  C01A19782   5.429   5.867   5.653
  1074G12  C02K19783   5.328   5.790   5.596
  1074G12  O00G19784   5.216   5.854   5.546
  1074G12  C02M19785   5.112   5.784   5.479
  1074G12  H01G19786   5.027   5.845   5.451
  1074G12  H01F19787   5.071   5.691   5.519
  1074G12  H01E19788   5.157   5.750   5.386
  1074G12  C02J19789   5.339   5.648   5.590
  1074G12  H01H19790   5.263   5.600   5.531
  1074G12  C02I19791   5.459   5.584   5.645
  1074G12  C02N19792   5.480   5.448   5.618
  1074G12  H01M19793   5.436   5.407   5.529
  1074G12  C02O19794   5.567   5.378   5.693
  1074G12  H01L19795   5.625   5.417   5.775
  1074G12  C02P19796   5.622   5.244   5.665
  1074G12  H01K19797   5.635   5.222   5.559
  1074G12  H01J19798   5.718   5.229   5.715
  1074G12  O00H19799   5.535   5.141   5.722
  1074G12  H01I19800   5.445   5.161   5.702
  1074G12  C02H19801   5.560   5.661   5.700
  1074G12  H01C19802   5.657   5.627   5.733
  1074G12  C02L19803   5.545   5.801   5.704
  1074G12  H01D19804   5.625   5.855   5.751
  1074G12  C01319805   5.236   6.444   5.893
  1074G12  H00019806   5.305   6.395   5.961
  1074G12  C01419807   5.170   6.572   5.930
  1074G12  C00F19808   5.182   6.635   6.055
  1074G12  C00H19809   5.061   6.825   5.962
  1074G12  C00I19810   5.021   6.962   5.969
  1074G12  C00J19811   4.944   7.016   5.862
  1074G12  C00Z19812   4.964   6.609   5.618
  1074G12  C00Y19813   4.928   6.541   5.498
  1074G12  H00619814   4.964   6.442   5.474
  1074G12  C00X19815   4.817   6.588   5.422
  1074G12  O00319816   4.781   6.518   5.307
  1074G12  C01B19817   4.747   6.385   5.322
  1074G12  H00919818   4.836   6.328   5.348
  1074G12  H00819819   4.729   6.351   5.220
  1074G12  H00719820   4.663   6.357   5.386
  1074G12  C00W19821   4.751   6.704   5.456
  1074G12  O00419822   4.643   6.745   5.381
  1074G12  C01C19823   4.556   6.839   5.433
  1074G12  H00A19824   4.472   6.863   5.369
  1074G12  C00P19825   4.594   6.920   5.548
  1074G12  C00O19826   4.497   7.009   5.600
  1074G12  C01D19827   4.364   6.964   5.589
  1074G12  H00S19828   4.332   6.876   5.536
  1074G12  C01E19829   4.254   7.043   5.650
  1074G12  O00819830   4.134   6.990   5.639
  1074G12  C01V19831   4.036   7.052   5.573
  1074G12  C01Z19832   3.905   6.985   5.610
  1074G12  H00R19833   3.907   6.934   5.707
  1074G12  H00Q19834   3.828   7.059   5.629
  1074G12  O00919835   3.856   6.913   5.493
  1074G12  H00P19836   3.905   6.957   5.425
  1074G12  C01W19837   4.046   7.151   5.484
  1074G12  H00O19838   4.141   7.195   5.456
  1074G12  C01X19839   3.929   7.218   5.405
  1074G12  H00N19840   3.836   7.185   5.451
  1074G12  H00M19841   3.930   7.327   5.415
  1074G12  C01Y19842   3.947   7.170   5.257
  1074G12  C02D19843   4.058   7.207   5.183
  1074G12  H01919844   4.129   7.271   5.233
  1074G12  C02C19845   4.071   7.171   5.044
  1074G12  H01A19846   4.162   7.198   4.992
  1074G12  C02B19847   3.971   7.089   4.985
  1074G12  O00E19848   3.993   7.041   4.855
  1074G12  H01B19849   3.933   6.970   4.838
  1074G12  C02F19850   3.862   7.050   5.064
  1074G12  O00F19851   3.761   6.984   4.993
  1074G12  C02G19852   3.641   6.937   5.052
  1074G12  H01719853   3.673   6.857   5.119
  1074G12  H01619854   3.579   6.906   4.969
  1074G12  H01519855   3.597   7.017   5.111
  1074G12  C02E19856   3.849   7.088   5.201
  1074G12  H01819857   3.764   7.056   5.260
  1074G12  C01F19858   4.282   7.153   5.739
  1074G12  C01G19859   4.190   7.197   5.835
  1074G12  H00L19860   4.098   7.141   5.839
  1074G12  C01H19861   4.244   7.273   5.941
  1074G12  H00B19862   4.190   7.276   6.035
  1074G12  C01I19863   4.383   7.301   5.944
  1074G12  C01U19864   4.409   7.205   5.735
  1074G12  C00S19865   4.914   6.939   5.748
  1074G12  C00K19866   4.833   7.106   5.890
  1074G12  C00N19867   4.518   7.130   5.682
  1074G12  C00019868   4.456   7.306   5.821
  1074G12  C01J19869   4.481   7.306   6.051
  1074G12  C01K19870   4.454   7.325   6.187
  1074G12  C01P19871   4.345   7.386   6.249
  1074G12  C01Q19872   4.258   7.474   6.170
  1074G12  H00G19873   4.286   7.506   6.071
  1074G12  C01R19874   4.144   7.520   6.216
  1074G12  H00F19875   4.103   7.479   6.307
  1074G12  C01S19876   4.061   7.622   6.140
  1074G12  H00E19877   4.065   7.716   6.194
  1074G12  H00D19878   4.100   7.641   6.040
  1074G12  O00519879   3.927   7.591   6.143
  1074G12  H00C19880   3.893   7.649   6.209
  1074G12  C01O19881   4.326   7.358   6.384
  1074G12  H00H19882   4.256   7.418   6.441
  1074G12  C01N19883   4.406   7.268   6.459
  1074G12  O00619884   4.364   7.258   6.589
  1074G12  C01T19885   4.424   7.174   6.677
  1074G12  H00K19886   4.444   7.076   6.635
  1074G12  H00J19887   4.357   7.152   6.760
  1074G12  H00I19888   4.518   7.213   6.717
  1074G12  C01M19889   4.526   7.233   6.400
  1074G12  C02019890   4.828   7.166   6.019
  1074G12  C02119891   4.927   7.131   6.114
  1074G12  C01L19892   4.557   7.264   6.261
  1074G12  O00719893   4.612   7.170   6.485
  1074G12  C02219894   4.888   7.116   6.248
  1074G12  C02319895   5.021   7.022   6.093
  1074G12  C00G19896   5.118   6.762   6.074
  1074G12  C00E19897   5.248   6.581   6.167
  1074G12  O00A19898   5.338   6.476   6.164
  1074G12  C02419899   5.286   6.346   6.181
  1074G12  H00V19900   5.188   6.338   6.135
  1074G12  H00U19901   5.271   6.325   6.287
  1074G12  H00T19902   5.353   6.278   6.127
  1084G12  C00D19903   1.522   1.389   3.497
  1084G12  O00B19904   1.480   1.263   3.545
  1084G12  C02519905   1.389   1.194   3.462
  1084G12  C02619906   1.457   1.083   3.384
  1084G12  H00Y19907   1.391   0.998   3.369
  1084G12  H00X19908   1.526   1.029   3.449
  1084G12  O00C19909   1.515   1.127   3.267
  1084G12  H00W19910   1.598   1.151   3.307
  1084G12  C02719911   1.254   1.227   3.450
  1084G12  O00D19912   1.188   1.324   3.517
  1084G12  H00Z19913   1.252   1.376   3.565
  1084G12  C02819914   1.179   1.142   3.367
  1084G12  C02919915   1.205   1.129   3.228
  1084G12  H01019916   1.286   1.192   3.195
  1084G12  C02T19917   1.127   1.058   3.144
  1084G12  H01O19918   1.145   1.053   3.037
  1084G12  C02S19919   1.021   0.986   3.194
  1084G12  O00J19920   0.948   0.902   3.120
  1084G12  H01P19921   0.873   0.884   3.174
  1084G12  C02R19922   0.985   0.989   3.333
  1084G12  O00I19923   0.871   0.927   3.372
  1084G12  C02Q19924   0.825   0.961   3.502
  1084G12  H01N19925   0.733   0.906   3.522
  1084G12  H01R19926   0.801   1.067   3.502
  1084G12  H01Q19927   0.896   0.943   3.583
  1084G12  C02A19928   1.062   1.073   3.418
  1084G12  H01119929   1.035   1.099   3.519
  1084G12  C00C19930   1.515   1.434   3.367
  1084G12  H01219931   1.477   1.370   3.288
  1084G12  C00B19932   1.527   1.575   3.336
  1084G12  C00A19933   1.516   1.633   3.206
  1084G12  C00919934   1.531   1.581   3.074
  1084G12  C00819935   1.568   1.451   3.020
  1084G12  H01319936   1.566   1.354   3.068
  1084G12  C00719937   1.625   1.449   2.887
  1084G12  H01419938   1.651   1.352   2.847
  1084G12  C00619939   1.658   1.572   2.818
  1084G12  C00519940   1.615   1.697   2.881
  1084G12  C00419941   1.663   1.821   2.826
  1084G12  C00319942   1.652   1.937   2.904
  1084G12  C00219943   1.711   2.061   2.856
  1084G12  C00119944   1.728   2.195   2.904
  1084G12  C00M19945   1.767   2.230   3.036
  1084G12  C00L19946   1.709   2.164   3.148
  1084G12  C00R19947   1.766   2.162   3.282
  1084G12  C00Q19948   1.885   2.232   3.333
  1084G12  C00V19949   1.921   2.180   3.461
  1084G12  C00U19950   1.866   2.066   3.523
  1084G12  C00T19951   1.760   2.000   3.464
  1084G12  C01619952   1.704   1.869   3.493
  1084G12  C01519953   1.754   1.814   3.604
  1084G12  C01019954   1.858   1.880   3.680
  1084G12  C01119955   1.900   1.824   3.797
  1084G12  H00519956   1.977   1.871   3.857
  1084G12  C01219957   1.852   1.705   3.846
  1084G12  C01719958   1.898   1.663   3.979
  1084G12  O00219959   2.021   1.700   4.021
  1084G12  H00419960   2.063   1.696   3.936
  1084G12  C01819961   1.819   1.602   4.069
  1084G12  O00119962   1.692   1.555   4.049
  1084G12  H00319963   1.679   1.519   4.135
  1084G12  C01919964   1.859   1.571   4.211
  1084G12  H00219965   1.966   1.554   4.199
  1084G12  H00119966   1.845   1.653   4.281
  1084G12  O00019967   1.799   1.457   4.265
  1084G12  C01A19968   1.857   1.399   4.384
  1084G12  C02K19969   1.789   1.288   4.441
  1084G12  O00G19970   1.676   1.242   4.378
  1084G12  C02M19971   1.613   1.130   4.429
  1084G12  H01G19972   1.534   1.162   4.498
  1084G12  H01F19973   1.677   1.047   4.461
  1084G12  H01E19974   1.554   1.079   4.353
  1084G12  C02J19975   1.836   1.235   4.561
  1084G12  H01H19976   1.780   1.157   4.609
  1084G12  C02I19977   1.963   1.275   4.619
  1084G12  C02N19978   2.022   1.213   4.741
  1084G12  H01M19979   1.959   1.170   4.817
  1084G12  C02O19980   2.152   1.214   4.768
  1084G12  H01L19981   2.226   1.248   4.696
  1084G12  C02P19982   2.211   1.158   4.893
  1084G12  H01K19983   2.286   1.223   4.938
  1084G12  H01J19984   2.129   1.147   4.964
  1084G12  O00H19985   2.274   1.036   4.866
  1084G12  H01I19986   2.231   0.997   4.791
  1084G12  C02H19987   2.024   1.383   4.556
  1084G12  H01C19988   2.115   1.422   4.600
  1084G12  C02L19989   1.974   1.451   4.443
  1084G12  H01D19990   2.024   1.539   4.405
  1084G12  C01319991   1.765   1.631   3.765
  1084G12  H00019992   1.762   1.530   3.805
  1084G12  C01419993   1.710   1.688   3.642
  1084G12  C00F19994   1.623   1.609   3.563
  1084G12  C00H19995   1.610   1.799   3.416
  1084G12  C00I19996   1.575   1.853   3.297
  1084G12  C00J19997   1.616   1.984   3.268
  1084G12  C00Z19998   1.917   1.999   3.636
  1084G12  C00Y19999   2.025   2.061   3.706
  1084G12  H00620000   2.073   2.019   3.794
  1084G12  C00X20001   2.083   2.177   3.649
  1084G12  O00320002   2.195   2.230   3.711
  1084G12  C01B20003   2.171   2.346   3.791
  1084G12  H00920004   2.090   2.412   3.761
  1084G12  H00820005   2.271   2.390   3.796
  1084G12  H00720006   2.141   2.322   3.893
  1084G12  C00W20007   2.035   2.234   3.530
  1084G12  O00420008   2.106   2.339   3.483
  1084G12  C01C20009   2.072   2.387   3.357
  1084G12  H00A20010   2.125   2.477   3.327
  1084G12  C00P20011   1.974   2.326   3.273
  1084G12  C00O20012   1.986   2.351   3.130
  1084G12  C01D20013   2.104   2.401   3.076
  1084G12  H00S20014   2.183   2.444   3.136
  1084G12  C01E20015   2.158   2.378   2.954
  1084G12  O00820016   2.295   2.386   2.929
  1084G12  C01V20017   2.380   2.349   3.033
  1084G12  C01Z20018   2.352   2.212   3.085
  1084G12  H00R20019   2.303   2.147   3.012
  1084G12  H00Q20020   2.451   2.168   3.097
  1084G12  O00920021   2.281   2.211   3.208
  1084G12  H00P20022   2.208   2.152   3.194
  1084G12  C01W20023   2.484   2.427   3.074
  1084G12  H00O20024   2.489   2.522   3.024
  1084G12  C01X20025   2.582   2.398   3.181
  1084G12  H00N20026   2.603   2.488   3.239
  1084G12  H00M20027   2.538   2.318   3.240
  1084G12  C01Y20028   2.715   2.354   3.110
  1084G12  C02D20029   2.791   2.451   3.040
  1084G12  H01920030   2.749   2.550   3.032
  1084G12  C02C20031   2.919   2.414   2.996
  1084G12  H01A20032   2.968   2.488   2.934
  1084G12  C02B20033   2.970   2.288   3.011
  1084G12  O00E20034   3.089   2.256   2.962
  1084G12  H01B20035   3.097   2.162   2.971
  1084G12  C02F20036   2.891   2.192   3.078
  1084G12  O00F20037   2.943   2.063   3.092
  1084G12  C02G20038   2.871   1.966   3.009
  1084G12  H01720039   2.894   1.861   3.024
  1084G12  H01620040   2.888   1.987   2.903
  1084G12  H01520041   2.762   1.974   3.004
  1084G12  C02E20042   2.762   2.226   3.131
  1084G12  H01820043   2.723   2.155   3.203
  1084G12  C01F20044   2.065   2.329   2.859
  1084G12  C01G20045   2.095   2.270   2.735
  1084G12  H00L20046   2.202   2.273   2.721
  1084G12  C01H20047   2.004   2.185   2.665
  1084G12  H00B20048   2.046   2.123   2.588
  1084G12  C01I20049   1.872   2.163   2.719
  1084G12  C01U20050   1.922   2.317   2.896
  1084G12  C00S20051   1.699   2.065   3.354
  1084G12  C00K20052   1.628   2.043   3.140
  1084G12  C00N20053   1.889   2.305   3.036
  1084G12  C00020054   1.821   2.261   2.815
  1084G12  C01J20055   1.780   2.048   2.731
  1084G12  C01K20056   1.780   1.935   2.644
  1084G12  C01P20057   1.837   1.926   2.512
  1084G12  C01Q20058   1.879   2.034   2.429
  1084G12  H00G20059   1.979   2.038   2.389
  1084G12  C01R20060   1.795   2.124   2.390
  1084G12  H00F20061   1.691   2.123   2.420
  1084G12  C01S20062   1.833   2.240   2.298
  1084G12  H00E20063   1.816   2.330   2.356
  1084G12  H00D20064   1.939   2.243   2.272
  1084G12  O00520065   1.773   2.234   2.171
  1084G12  H00C20066   1.692   2.283   2.174
  1084G12  C01O20067   1.852   1.801   2.453
  1084G12  H00H20068   1.896   1.789   2.355
  1084G12  C01N20069   1.813   1.678   2.518
  1084G12  O00620070   1.837   1.547   2.470
  1084G12  C01T20071   1.895   1.547   2.342
  1084G12  H00K20072   1.978   1.617   2.338
  1084G12  H00J20073   1.935   1.449   2.319
  1084G12  H00I20074   1.830   1.577   2.259
  1084G12  C01M20075   1.759   1.694   2.642
  1084G12  C02020076   1.599   1.942   3.035
  1084G12  C02120077   1.526   1.823   3.071
  1084G12  C01L20078   1.732   1.818   2.703
  1084G12  O00720079   1.722   1.575   2.699
  1084G12  C02220080   1.536   1.703   2.993
  1084G12  C02320081   1.510   1.772   3.204
  1084G12  C00G20082   1.587   1.661   3.438
  1084G12  C00E20083   1.569   1.483   3.596
  1084G12  O00A20084   1.580   1.430   3.723
  1084G12  C02420085   1.464   1.450   3.803
  1084G12  H00V20086   1.481   1.553   3.835
  1084G12  H00U20087   1.480   1.383   3.888
  1084G12  H00T20088   1.373   1.436   3.744
  1094G12  C00D20089   3.131   1.079   3.557
  1094G12  O00B20090   2.999   1.046   3.559
  1094G12  C02520091   2.907   1.153   3.576
  1094G12  C02620092   2.863   1.166   3.717
  1094G12  H00Y20093   2.809   1.260   3.728
  1094G12  H00X20094   2.951   1.183   3.779
  1094G12  O00C20095   2.783   1.060   3.765
  1094G12  H00W20096   2.786   0.990   3.702
  1094G12  C02720097   2.864   1.222   3.471
  1094G12  O00D20098   2.916   1.186   3.348
  1094G12  H00Z20099   2.959   1.103   3.365
  1094G12  C02820100   2.777   1.335   3.485
  1094G12  C02920101   2.818   1.468   3.451
  1094G12  H01020102   2.921   1.491   3.426
  1094G12  C02T20103   2.723   1.574   3.436
  1094G12  H01O20104   2.757   1.672   3.405
  1094G12  C02S20105   2.590   1.546   3.455
  1094G12  O00J20106   2.502   1.646   3.452
  1094G12  H01P20107   2.414   1.614   3.462
  1094G12  C02R20108   2.546   1.418   3.494
  1094G12  O00I20109   2.411   1.394   3.515
  1094G12  C02Q20110   2.360   1.263   3.503
  1094G12  H01N20111   2.408   1.195   3.433
  1094G12  H01R20112   2.251   1.267   3.493
  1094G12  H01Q20113   2.375   1.213   3.598
  1094G12  C02A20114   2.642   1.312   3.511
  1094G12  H01120115   2.607   1.212   3.532
  1094G12  C00C20116   3.188   1.207   3.539
  1094G12  H01220117   3.122   1.290   3.518
  1094G12  C00B20118   3.323   1.227   3.545
  1094G12  C00A20119   3.391   1.349   3.523
  1094G12  C00920120   3.356   1.461   3.432
  1094G12  C00820121   3.250   1.476   3.343
  1094G12  H01320122   3.155   1.425   3.354
  1094G12  C00720123   3.268   1.554   3.225
  1094G12  H01420124   3.178   1.565   3.166
  1094G12  C00620125   3.393   1.612   3.191
  1094G12  C00520126   3.502   1.588   3.280
  1094G12  C00420127   3.633   1.606   3.245
  1094G12  C00320128   3.735   1.546   3.327
  1094G12  C00220129   3.869   1.555   3.271
  1094G12  C00120130   4.003   1.512   3.306
  1094G12  C00M20131   4.036   1.382   3.365
  1094G12  C00L20132   3.957   1.327   3.467
  1094G12  C00R20133   3.947   1.185   3.495
  1094G12  C00Q20134   4.033   1.077   3.461
  1094G12  C00V20135   3.985   0.951   3.512
  1094G12  C00U20136   3.854   0.927   3.557
  1094G12  C00T20137   3.768   1.032   3.572
  1094G12  C01620138   3.630   1.021   3.589
  1094G12  C01520139   3.576   0.894   3.605
  1094G12  C01020140   3.668   0.787   3.613
  1094G12  C01120141   3.613   0.660   3.641
  1094G12  H00520142   3.677   0.575   3.659
  1094G12  C01220143   3.474   0.629   3.646
  1094G12  C01720144   3.414   0.506   3.665
  1094G12  O00220145   3.349   0.448   3.558
  1094G12  H00420146   3.318   0.363   3.586
  1094G12  C01820147   3.422   0.444   3.779
  1094G12  O00120148   3.485   0.501   3.890
  1094G12  H00320149   3.512   0.590   3.873
  1094G12  C01920150   3.373   0.303   3.802
  1094G12  H00220151   3.457   0.245   3.765
  1094G12  H00120152   3.363   0.276   3.907
  1094G12  O00020153   3.258   0.265   3.719
  1094G12  C01A20154   3.128   0.294   3.763
  1094G12  C02K20155   3.017   0.223   3.707
  1094G12  O00G20156   3.036   0.125   3.613
  1094G12  C02M20157   3.047   0.179   3.480
  1094G12  H01G20158   3.139   0.238   3.473
  1094G12  H01F20159   2.958   0.235   3.451
  1094G12  H01E20160   3.059   0.101   3.406
  1094G12  C02J20161   2.892   0.262   3.750
  1094G12  H01H20162   2.809   0.199   3.722
  1094G12  C02I20163   2.871   0.375   3.830
  1094G12  C02N20164   2.737   0.409   3.878
  1094G12  H01M20165   2.671   0.324   3.890
  1094G12  C02O20166   2.702   0.537   3.896
  1094G12  H01L20167   2.774   0.612   3.868
  1094G12  C02P20168   2.575   0.592   3.958
  1094G12  H01K20169   2.516   0.640   3.879
  1094G12  H01J20170   2.521   0.510   4.005
  1094G12  O00H20171   2.606   0.681   4.065
  1094G12  H01I20172   2.561   0.664   4.146
  1094G12  C02H20173   2.976   0.449   3.878
  1094G12  H01C20174   2.962   0.528   3.950
  1094G12  C02L20175   3.108   0.404   3.845
  1094G12  H01D20176   3.187   0.462   3.889
  1094G12  C01320177   3.390   0.738   3.625
  1094G12  H00020178   3.288   0.704   3.631
  1094G12  C01420179   3.439   0.874   3.605
  1094G12  C00F20180   3.354   0.984   3.580
  1094G12  C00H20181   3.550   1.138   3.586
  1094G12  C00I20182   3.614   1.266   3.577
  1094G12  C00J20183   3.755   1.266   3.562
  1094G12  C00Z20184   3.803   0.805   3.589
  1094G12  C00Y20185   3.893   0.695   3.575
  1094G12  H00620186   3.856   0.595   3.593
  1094G12  C00X20187   4.026   0.705   3.527
  1094G12  O00320188   4.109   0.600   3.506
  1094G12  C01B20189   4.054   0.470   3.487
  1094G12  H00920190   3.974   0.491   3.416
  1094G12  H00820191   4.018   0.424   3.579
  1094G12  H00720192   4.132   0.413   3.438
  1094G12  C00W20193   4.069   0.829   3.487
  1094G12  O00420194   4.202   0.841   3.450
  1094G12  C01C20195   4.225   0.956   3.374
  1094G12  H00A20196   4.325   0.964   3.334
  1094G12  C00P20197   4.141   1.074   3.373
  1094G12  C00O20198   4.159   1.170   3.267
  1094G12  C01D20199   4.224   1.138   3.145
  1094G12  H00S20200   4.258   1.036   3.138
  1094G12  C01E20201   4.227   1.222   3.026
  1094G12  O00820202   4.286   1.188   2.905
  1094G12  C01V20203   4.348   1.066   2.886
  1094G12  C01Z20204   4.294   0.985   2.768
  1094G12  H00R20205   4.331   0.883   2.779
  1094G12  H00Q20206   4.185   0.978   2.759
  1094G12  O00920207   4.326   1.046   2.648
  1094G12  H00P20208   4.293   1.134   2.640
  1094G12  C01W20209   4.444   1.027   2.966
  1094G12  H00O20210   4.487   1.095   3.038
  1094G12  C01X20211   4.527   0.898   2.956
  1094G12  H00N20212   4.529   0.858   2.855
  1094G12  H00M20213   4.629   0.930   2.979
  1094G12  C01Y20214   4.481   0.797   3.057
  1094G12  C02D20215   4.569   0.746   3.155
  1094G12  H01920216   4.674   0.770   3.163
  1094G12  C02C20217   4.517   0.663   3.256
  1094G12  H01A20218   4.591   0.628   3.327
  1094G12  C02B20219   4.380   0.637   3.265
  1094G12  O00E20220   4.336   0.572   3.373
  1094G12  H01B20221   4.242   0.579   3.368
  1094G12  C02F20222   4.292   0.686   3.165
  1094G12  O00F20223   4.154   0.660   3.186
  1094G12  C02G20224   4.054   0.717   3.102
  1094G12  H01720225   4.063   0.825   3.086
  1094G12  H01620226   3.960   0.695   3.152
  1094G12  H01520227   4.070   0.656   3.013
  1094G12  C02E20228   4.342   0.774   3.063
  1094G12  H01820229   4.276   0.828   2.996
  1094G12  C01F20230   4.179   1.348   3.035
  1094G12  C01G20231   4.145   1.432   2.925
  1094G12  H00L20232   4.177   1.405   2.825
  1094G12  C01H20233   4.060   1.546   2.950
  1094G12  H00B20234   4.019   1.599   2.866
  1094G12  C01I20235   4.014   1.571   3.082
  1094G12  C01U20236   4.143   1.396   3.165
  1094G12  C00S20237   3.826   1.155   3.556
  1094G12  C00K20238   3.818   1.367   3.485
  1094G12  C00N20239   4.113   1.304   3.271
  1094G12  C00020240   4.083   1.519   3.191
  1094G12  C01J20241   3.885   1.615   3.138
  1094G12  C01K20242   3.786   1.692   3.067
  1094G12  C01P20243   3.800   1.786   2.960
  1094G12  C01Q20244   3.931   1.842   2.911
  1094G12  H00G20245   4.017   1.878   2.966
  1094G12  C01R20246   3.944   1.852   2.775
  1094G12  H00F20247   3.874   1.816   2.702
  1094G12  C01S20248   4.071   1.921   2.716
  1094G12  H00E20249   4.045   2.014   2.664
  1094G12  H00D20250   4.134   1.961   2.796
  1094G12  O00520251   4.142   1.816   2.656
  1094G12  H00C20252   4.230   1.849   2.645
  1094G12  C01O20253   3.683   1.835   2.904
  1094G12  H00H20254   3.687   1.913   2.830
  1094G12  C01N20255   3.556   1.800   2.945
  1094G12  O00620256   3.444   1.837   2.880
  1094G12  C01T20257   3.455   1.870   2.742
  1094G12  H00K20258   3.511   1.798   2.682
  1094G12  H00J20259   3.481   1.973   2.720
  1094G12  H00I20260   3.355   1.873   2.697
  1094G12  C01M20261   3.545   1.716   3.054
  1094G12  C02020262   3.719   1.463   3.440
  1094G12  C02120263   3.581   1.477   3.488
  1094G12  C01L20264   3.662   1.669   3.125
  1094G12  O00720265   3.411   1.690   3.084
  1094G12  C02220266   3.484   1.522   3.402
  1094G12  C02320267   3.525   1.369   3.560
  1094G12  C00G20268   3.411   1.117   3.575
  1094G12  C00E20269   3.213   0.970   3.561
  1094G12  O00A20270   3.147   0.849   3.549
  1094G12  C02420271   3.151   0.787   3.418
  1094G12  H00V20272   3.245   0.809   3.367
  1094G12  H00U20273   3.077   0.817   3.344
  1094G12  H00T20274   3.135   0.681   3.438
  1104G12  C00D20275   5.807   4.650   8.682
  1104G12  O00B20276   5.923   4.708   8.720
  1104G12  C02520277   5.922   4.818   8.811
  1104G12  C02620278   5.949   4.952   8.745
  1104G12  H00Y20279   6.002   4.925   8.654
  1104G12  H00X20280   6.002   5.024   8.808
  1104G12  O00C20281   5.821   5.009   8.718
  1104G12  H00W20282   5.829   5.060   8.639
  1104G12  C02720283   5.912   4.789   8.947
  1104G12  O00D20284   5.910   4.660   8.999
  1104G12  H00Z20285   5.936   4.659   9.090
  1104G12  C02820286   5.902   4.888   9.049
  1104G12  C02920287   5.980   4.899   9.167
  1104G12  H01020288   6.064   4.831   9.175
  1104G12  C02T20289   5.955   5.000   9.264
  1104G12  H01O20290   6.010   5.019   9.355
  1104G12  C02S20291   5.846   5.088   9.243
  1104G12  O00J20292   5.820   5.201   9.316
  1104G12  H01P20293   5.737   5.233   9.284
  1104G12  C02R20294   5.758   5.071   9.134
  1104G12  O00I20295   5.655   5.164   9.115
  1104G12  C02Q20296   5.572   5.151   8.998
  1104G12  H01N20297   5.513   5.060   9.012
  1104G12  H01R20298   5.605   5.151   8.895
  1104G12  H01Q20299   5.503   5.235   8.986
  1104G12  C02A20300   5.785   4.972   9.037
  1104G12  H01120301   5.718   4.970   8.952
  1104G12  C00C20302   5.685   4.716   8.706
  1104G12  H01220303   5.685   4.803   8.769
  1104G12  C00B20304   5.561   4.677   8.657
  1104G12  C00A20305   5.432   4.732   8.674
  1104G12  C00920306   5.376   4.802   8.792
  1104G12  C00820307   5.428   4.831   8.921
  1104G12  H01320308   5.535   4.833   8.935
  1104G12  C00720309   5.334   4.853   9.026
  1104G12  H01420310   5.379   4.872   9.122
  1104G12  C00620311   5.197   4.829   9.018
  1104G12  C00520312   5.152   4.790   8.892
  1104G12  C00420313   5.019   4.743   8.873
  1104G12  C00320314   4.984   4.675   8.752
  1104G12  C00220315   4.850   4.620   8.740
  1104G12  C00120316   4.781   4.549   8.640
  1104G12  C00M20317   4.853   4.433   8.578
  1104G12  C00L20318   4.982   4.442   8.524
  1104G12  C00R20319   5.062   4.331   8.468
  1104G12  C00Q20320   5.044   4.185   8.471
  1104G12  C00V20321   5.164   4.113   8.437
  1104G12  C00U20322   5.294   4.171   8.424
  1104G12  C00T20323   5.308   4.307   8.451
  1104G12  C01620324   5.431   4.369   8.481
  1104G12  C01520325   5.547   4.297   8.458
  1104G12  C01020326   5.535   4.166   8.409
  1104G12  C01120327   5.652   4.103   8.354
  1104G12  H00520328   5.660   4.005   8.308
  1104G12  C01220329   5.780   4.167   8.353
  1104G12  C01720330   5.891   4.104   8.289
  1104G12  O00220331   5.874   4.031   8.173
  1104G12  H00420332   5.955   4.043   8.127
  1104G12  C01820333   6.017   4.116   8.340
  1104G12  O00120334   6.050   4.189   8.453
  1104G12  H00320335   6.143   4.177   8.465
  1104G12  C01920336   6.146   4.041   8.279
  1104G12  H00220337   6.128   3.945   8.229
  1104G12  H00120338   6.185   4.110   8.205
  1104G12  O00020339   6.245   4.026   8.380
  1104G12  C01A20340   6.261   3.913   8.457
  1104G12  C02K20341   6.368   3.910   8.549
  1104G12  O00G20342   6.469   4.002   8.541
  1104G12  C02M20343   6.576   3.967   8.455
  1104G12  H01G20344   6.625   3.876   8.490
  1104G12  H01F20345   6.655   4.040   8.436
  1104G12  H01E20346   6.537   3.947   8.356
  1104G12  C02J20347   6.387   3.802   8.633
  1104G12  H01H20348   6.472   3.791   8.699
  1104G12  C02I20349   6.292   3.698   8.643
  1104G12  C02N20350   6.298   3.602   8.750
  1104G12  H01M20351   6.396   3.573   8.785
  1104G12  C02O20352   6.184   3.553   8.812
  1104G12  H01L20353   6.087   3.590   8.782
  1104G12  C02P20354   6.184   3.447   8.915
  1104G12  H01K20355   6.194   3.490   9.015
  1104G12  H01J20356   6.091   3.390   8.914
  1104G12  O00H20357   6.294   3.357   8.915
  1104G12  H01I20358   6.257   3.270   8.921
  1104G12  C02H20359   6.180   3.710   8.558
  1104G12  H01C20360   6.097   3.641   8.556
  1104G12  C02L20361   6.167   3.807   8.460
  1104G12  H01D20362   6.087   3.823   8.390
  1104G12  C01320363   5.780   4.297   8.417
  1104G12  H00020364   5.872   4.354   8.407
  1104G12  C01420365   5.667   4.364   8.474
  1104G12  C00F20366   5.672   4.482   8.555
  1104G12  C00H20367   5.436   4.503   8.527
  1104G12  C00I20368   5.315   4.580   8.533
  1104G12  C00J20369   5.195   4.518   8.488
  1104G12  C00Z20370   5.410   4.100   8.401
  1104G12  C00Y20371   5.394   3.962   8.375
  1104G12  H00620372   5.481   3.898   8.371
  1104G12  C00X20373   5.269   3.905   8.368
  1104G12  O00320374   5.241   3.772   8.349
  1104G12  C01B20375   5.345   3.683   8.306
  1104G12  H00920376   5.417   3.677   8.387
  1104G12  H00820377   5.386   3.734   8.219
  1104G12  H00720378   5.301   3.586   8.282
  1104G12  C00W20379   5.153   3.974   8.407
  1104G12  O00420380   5.038   3.906   8.420
  1104G12  C01C20381   4.942   3.967   8.495
  1104G12  H00A20382   4.910   3.909   8.580
  1104G12  C00P20383   4.927   4.109   8.508
  1104G12  C00O20384   4.813   4.166   8.576
  1104G12  C01D20385   4.720   4.080   8.637
  1104G12  H00S20386   4.718   3.973   8.620
  1104G12  C01E20387   4.626   4.123   8.737
  1104G12  O00820388   4.545   4.028   8.802
  1104G12  C01V20389   4.464   3.958   8.721
  1104G12  C01Z20390   4.352   4.037   8.669
  1104G12  H00R20391   4.264   3.979   8.644
  1104G12  H00Q20392   4.319   4.101   8.751
  1104G12  O00920393   4.393   4.118   8.561
  1104G12  H00P20394   4.472   4.163   8.586
  1104G12  C01W20395   4.493   3.834   8.690
  1104G12  H00O20396   4.569   3.783   8.747
  1104G12  C01X20397   4.435   3.749   8.576
  1104G12  H00N20398   4.398   3.651   8.606
  1104G12  H00M20399   4.351   3.795   8.526
  1104G12  C01Y20400   4.544   3.727   8.482
  1104G12  C02D20401   4.609   3.605   8.484
  1104G12  H01920402   4.574   3.527   8.550
  1104G12  C02C20403   4.714   3.580   8.386
  1104G12  H01A20404   4.781   3.495   8.387
  1104G12  C02B20405   4.758   3.682   8.300
  1104G12  O00E20406   4.855   3.652   8.214
  1104G12  H01B20407   4.888   3.726   8.166
  1104G12  C02F20408   4.691   3.807   8.304
  1104G12  O00F20409   4.746   3.907   8.229
  1104G12  C02G20410   4.690   4.037   8.260
  1104G12  H01720411   4.584   4.044   8.235
  1104G12  H01620412   4.747   4.106   8.196
  1104G12  H01520413   4.713   4.068   8.362
  1104G12  C02E20414   4.583   3.826   8.391
  1104G12  H01820415   4.543   3.926   8.400
  1104G12  C01F20416   4.614   4.263   8.769
  1104G12  C01G20417   4.558   4.314   8.885
  1104G12  H00L20418   4.512   4.241   8.951
  1104G12  C01H20419   4.589   4.447   8.927
  1104G12  H00B20420   4.595   4.463   9.034
  1104G12  C01I20421   4.658   4.533   8.835
  1104G12  C01U20422   4.673   4.352   8.679
  1104G12  C00S20423   5.191   4.386   8.451
  1104G12  C00K20424   5.068   4.553   8.546
  1104G12  C00N20425   4.791   4.308   8.607
  1104G12  C00020426   4.667   4.492   8.700
  1104G12  C01J20427   4.759   4.631   8.856
  1104G12  C01K20428   4.801   4.704   8.978
  1104G12  C01P20429   4.715   4.731   9.094
  1104G12  C01Q20430   4.568   4.706   9.074
  1104G12  H00G20431   4.517   4.713   8.979
  1104G12  C01R20432   4.501   4.643   9.169
  1104G12  H00F20433   4.547   4.626   9.265
  1104G12  C01S20434   4.361   4.594   9.169
  1104G12  H00E20435   4.313   4.639   9.256
  1104G12  H00D20436   4.313   4.604   9.072
  1104G12  O00520437   4.364   4.452   9.192
  1104G12  H00C20438   4.441   4.431   9.243
  1104G12  C01O20439   4.773   4.774   9.213
  1104G12  H00H20440   4.713   4.795   9.300
  1104G12  C01N20441   4.909   4.807   9.220
  1104G12  O00620442   4.970   4.866   9.329
  1104G12  C01T20443   4.901   4.963   9.395
  1104G12  H00K20444   4.814   4.925   9.449
  1104G12  H00J20445   4.875   5.047   9.330
  1104G12  H00I20446   4.975   5.004   9.463
  1104G12  C01M20447   4.991   4.791   9.108
  1104G12  C02020448   5.078   4.660   8.643
  1104G12  C02120449   5.198   4.734   8.661
  1104G12  C01L20450   4.939   4.744   8.983
  1104G12  O00720451   5.122   4.819   9.133
  1104G12  C02220452   5.234   4.790   8.777
  1104G12  C02320453   5.322   4.700   8.598
  1104G12  C00G20454   5.556   4.553   8.584
  1104G12  C00E20455   5.800   4.536   8.601
  1104G12  O00A20456   5.923   4.474   8.579
  1104G12  C02420457   5.955   4.377   8.676
  1104G12  H00V20458   5.957   4.418   8.778
  1104G12  H00U20459   6.058   4.345   8.665
  1104G12  H00T20460   5.895   4.287   8.670
  1114G12  C00D20461   5.470   4.305   3.701
  1114G12  O00B20462   5.481   4.435   3.663
  1114G12  C02520463   5.373   4.515   3.653
  1114G12  C02620464   5.336   4.545   3.508
  1114G12  H00Y20465   5.235   4.585   3.511
  1114G12  H00X20466   5.331   4.455   3.446
  1114G12  O00C20467   5.420   4.641   3.454
  1114G12  H00W20468   5.493   4.644   3.514
  1114G12  C02720469   5.313   4.562   3.768
  1114G12  O00D20470   5.349   4.520   3.895
  1114G12  H00Z20471   5.403   4.444   3.881
  1114G12  C02820472   5.207   4.651   3.755
  1114G12  C02920473   5.224   4.783   3.720
  1114G12  H01020474   5.326   4.813   3.699
  1114G12  C02T20475   5.117   4.873   3.713
  1114G12  H01O20476   5.139   4.972   3.677
  1114G12  C02S20477   4.985   4.834   3.736
  1114G12  O00J20478   4.879   4.914   3.719
  1114G12  H01P20479   4.812   4.856   3.688
  1114G12  C02R20480   4.960   4.698   3.773
  1114G12  O00I20481   4.828   4.664   3.786
  1114G12  C02Q20482   4.799   4.533   3.826
  1114G12  H01N20483   4.858   4.502   3.912
  1114G12  H01R20484   4.817   4.470   3.739
  1114G12  H01Q20485   4.692   4.525   3.848
  1114G12  C02A20486   5.073   4.610   3.781
  1114G12  H01120487   5.052   4.507   3.809
  1114G12  C00C20488   5.594   4.244   3.715
  1114G12  H01220489   5.681   4.306   3.697
  1114G12  C00B20490   5.613   4.112   3.758
  1114G12  C00A20491   5.739   4.042   3.768
  1114G12  C00920492   5.870   4.055   3.707
  1114G12  C00820493   5.925   4.142   3.605
  1114G12  H01320494   5.880   4.237   3.580
  1114G12  C00720495   6.030   4.094   3.522
  1114G12  H01420496   6.061   4.155   3.439
  1114G12  C00620497   6.071   3.960   3.529
  1114G12  C00520498   6.015   3.885   3.626
  1114G12  C00420499   6.039   3.749   3.634
  1114G12  C00320500   5.968   3.658   3.719
  1114G12  C00220501   5.982   3.517   3.700
  1114G12  C00120502   5.916   3.400   3.751
  1114G12  C00M20503   5.774   3.386   3.763
  1114G12  C00L20504   5.699   3.485   3.819
  1114G12  C00R20505   5.558   3.490   3.815
  1114G12  C00Q20506   5.458   3.402   3.761
  1114G12  C00V20507   5.330   3.462   3.762
  1114G12  C00U20508   5.303   3.594   3.796
  1114G12  C00T20509   5.401   3.681   3.821
  1114G12  C01620510   5.391   3.818   3.814
  1114G12  C01520511   5.266   3.874   3.805
  1114G12  C01020512   5.155   3.788   3.814
  1114G12  C01120513   5.024   3.843   3.831
  1114G12  H00520514   4.939   3.778   3.846
  1114G12  C01220515   5.013   3.983   3.846
  1114G12  C01720516   4.888   4.046   3.891
  1114G12  O00220517   4.857   4.170   3.844
  1114G12  H00420518   4.763   4.176   3.834
  1114G12  C01820519   4.815   4.002   4.002
  1114G12  O00120520   4.852   3.893   4.076
  1114G12  H00320521   4.940   3.866   4.055
  1114G12  C01920522   4.689   4.068   4.051
  1114G12  H00220523   4.648   3.999   4.125
  1114G12  H00120524   4.711   4.164   4.097
  1114G12  O00020525   4.613   4.094   3.930
  1114G12  C01A20526   4.538   3.993   3.876
  1114G12  C02K20527   4.444   4.025   3.773
  1114G12  O00G20528   4.432   4.160   3.735
  1114G12  C02M20529   4.317   4.195   3.663
  1114G12  H01G20530   4.304   4.156   3.562
  1114G12  H01F20531   4.295   4.301   3.660
  1114G12  H01E20532   4.231   4.160   3.719
  1114G12  C02J20533   4.350   3.926   3.725
  1114G12  H01H20534   4.269   3.946   3.656
  1114G12  C02I20535   4.354   3.798   3.773
  1114G12  C02N20536   4.251   3.704   3.733
  1114G12  H01M20537   4.213   3.698   3.632
  1114G12  C02O20538   4.190   3.621   3.816
  1114G12  H01L20539   4.221   3.617   3.920
  1114G12  C02P20540   4.076   3.540   3.769
  1114G12  H01K20541   3.993   3.526   3.838
  1114G12  H01J20542   4.042   3.566   3.668
  1114G12  O00H20543   4.125   3.412   3.754
  1114G12  H01I20544   4.049   3.356   3.745
  1114G12  C02H20545   4.445   3.772   3.875
  1114G12  H01C20546   4.433   3.672   3.914
  1114G12  C02L20547   4.542   3.859   3.920
  1114G12  H01D20548   4.618   3.830   3.991
  1114G12  C01320549   5.128   4.064   3.821
  1114G12  H00020550   5.107   4.168   3.840
  1114G12  C01420551   5.258   4.009   3.801
  1114G12  C00F20552   5.368   4.087   3.770
  1114G12  C00H20553   5.502   3.901   3.818
  1114G12  C00I20554   5.630   3.839   3.855
  1114G12  C00J20555   5.637   3.700   3.875
  1114G12  C00Z20556   5.175   3.651   3.784
  1114G12  C00Y20557   5.067   3.568   3.739
  1114G12  H00620558   4.969   3.612   3.727
  1114G12  C00X20559   5.084   3.428   3.717
  1114G12  O00320560   4.986   3.343   3.674
  1114G12  C01B20561   4.864   3.355   3.738
  1114G12  H00920562   4.798   3.269   3.733
  1114G12  H00820563   4.809   3.445   3.709
  1114G12  H00720564   4.884   3.367   3.845
  1114G12  C00W20565   5.224   3.385   3.716
  1114G12  O00420566   5.232   3.252   3.675
  1114G12  C01C20567   5.357   3.203   3.659
  1114G12  H00A20568   5.371   3.098   3.638
  1114G12  C00P20569   5.475   3.279   3.680
  1114G12  C00O20570   5.604   3.236   3.629
  1114G12  C01D20571   5.611   3.146   3.516
  1114G12  H00S20572   5.515   3.116   3.477
  1114G12  C01E20573   5.733   3.111   3.448
  1114G12  O00820574   5.754   3.029   3.334
  1114G12  C01V20575   5.637   2.960   3.303
  1114G12  C01Z20576   5.561   3.026   3.192
  1114G12  H00R20577   5.622   3.016   3.103
  1114G12  H00Q20578   5.464   2.987   3.162
  1114G12  O00920579   5.532   3.162   3.218
  1114G12  H00P20580   5.609   3.209   3.189
  1114G12  C01W20581   5.598   2.849   3.368
  1114G12  H00O20582   5.656   2.804   3.448
  1114G12  C01X20583   5.478   2.763   3.331
  1114G12  H00N20584   5.461   2.770   3.224
  1114G12  H00M20585   5.498   2.661   3.364
  1114G12  C01Y20586   5.359   2.812   3.409
  1114G12  C02D20587   5.336   2.746   3.533
  1114G12  H01920588   5.404   2.671   3.571
  1114G12  C02C20589   5.228   2.778   3.613
  1114G12  H01A20590   5.208   2.733   3.710
  1114G12  C02B20591   5.151   2.891   3.564
  1114G12  O00E20592   5.042   2.928   3.634
  1114G12  H01B20593   5.000   2.987   3.574
  1114G12  C02F20594   5.173   2.962   3.440
  1114G12  O00F20595   5.086   3.054   3.395
  1114G12  C02G20596   5.151   3.168   3.338
  1114G12  H01720597   5.214   3.155   3.250
  1114G12  H01620598   5.217   3.210   3.413
  1114G12  H01520599   5.082   3.247   3.307
  1114G12  C02E20600   5.274   2.913   3.358
  1114G12  H01820601   5.281   2.948   3.256
  1114G12  C01F20602   5.853   3.162   3.496
  1114G12  C01G20603   5.979   3.156   3.433
  1114G12  H00L20604   5.973   3.110   3.335
  1114G12  C01H20605   6.082   3.250   3.468
  1114G12  H00B20606   6.151   3.278   3.390
  1114G12  C01I20607   6.062   3.329   3.584
  1114G12  C01U20608   5.854   3.230   3.620
  1114G12  C00S20609   5.526   3.621   3.843
  1114G12  C00K20610   5.751   3.620   3.839
  1114G12  C00N20611   5.728   3.287   3.671
  1114G12  C00020612   5.965   3.292   3.677
  1114G12  C01J20613   6.082   3.472   3.611
  1114G12  C01K20614   6.173   3.556   3.538
  1114G12  C01P20615   6.285   3.515   3.459
  1114G12  C01Q20616   6.355   3.389   3.477
  1114G12  H00G20617   6.386   3.322   3.398
  1114G12  C01R20618   6.366   3.339   3.601
  1114G12  H00F20619   6.326   3.397   3.683
  1114G12  C01S20620   6.427   3.203   3.632
  1114G12  H00E20621   6.367   3.122   3.674
  1114G12  H00D20622   6.478   3.166   3.542
  1114G12  O00520623   6.530   3.225   3.722
  1114G12  H00C20624   6.579   3.305   3.706
  1114G12  C01O20625   6.343   3.611   3.379
  1114G12  H00H20626   6.414   3.572   3.308
  1114G12  C01N20627   6.297   3.739   3.356
  1114G12  O00620628   6.346   3.815   3.252
  1114G12  C01T20629   6.412   3.936   3.303
  1114G12  H00K20630   6.490   3.909   3.374
  1114G12  H00J20631   6.347   4.016   3.338
  1114G12  H00I20632   6.457   3.982   3.216
  1114G12  C01M20633   6.202   3.786   3.452
  1114G12  C02020634   5.862   3.704   3.803
  1114G12  C02120635   5.863   3.847   3.820
  1114G12  C01L20636   6.138   3.700   3.547
  1114G12  O00720637   6.161   3.914   3.436
  1114G12  C02220638   5.934   3.930   3.731
  1114G12  C02320639   5.741   3.918   3.837
  1114G12  C00G20640   5.497   4.033   3.785
  1114G12  C00E20641   5.354   4.221   3.720
  1114G12  O00A20642   5.231   4.287   3.699
  1114G12  C02420643   5.163   4.258   3.577
  1114G12  H00V20644   5.086   4.182   3.590
  1114G12  H00U20645   5.229   4.216   3.502
  1114G12  H00T20646   5.116   4.346   3.532
  1124G12  C00D20647   1.992   3.931   5.498
  1124G12  O00B20648   1.920   3.822   5.548
  1124G12  C02520649   1.952   3.704   5.485
  1124G12  C02620650   2.092   3.649   5.521
  1124G12  H00Y20651   2.176   3.713   5.495
  1124G12  H00X20652   2.100   3.560   5.459
  1124G12  O00C20653   2.096   3.611   5.655
  1124G12  H00W20654   2.015   3.643   5.691
  1124G12  C02720655   1.858   3.648   5.413
  1124G12  O00D20656   1.741   3.712   5.406
  1124G12  H00Z20657   1.771   3.797   5.434
  1124G12  C02820658   1.866   3.526   5.337
  1124G12  C02920659   1.909   3.405   5.394
  1124G12  H01020660   1.927   3.417   5.500
  1124G12  C02T20661   1.920   3.292   5.315
  1124G12  H01O20662   1.957   3.197   5.351
  1124G12  C02S20663   1.906   3.308   5.175
  1124G12  O00J20664   1.939   3.209   5.092
  1124G12  H01P20665   1.913   3.227   5.003
  1124G12  C02R20666   1.853   3.421   5.115
  1124G12  O00I20667   1.820   3.412   4.982
  1124G12  C02Q20668   1.761   3.527   4.922
  1124G12  H01N20669   1.752   3.531   4.813
  1124G12  H01R20670   1.828   3.612   4.935
  1124G12  H01Q20671   1.666   3.550   4.970
  1124G12  C02A20672   1.833   3.533   5.199
  1124G12  H01120673   1.815   3.625   5.145
  1124G12  C00C20674   2.098   3.979   5.573
  1124G12  H01220675   2.104   3.950   5.676
  1124G12  C00B20676   2.180   4.084   5.535
  1124G12  C00A20677   2.287   4.155   5.606
  1124G12  C00920678   2.300   4.182   5.742
  1124G12  C00820679   2.217   4.155   5.850
  1124G12  H01320680   2.138   4.083   5.834
  1124G12  C00720681   2.234   4.225   5.972
  1124G12  H01420682   2.173   4.202   6.058
  1124G12  C00620683   2.318   4.339   5.969
  1124G12  C00520684   2.388   4.368   5.849
  1124G12  C00420685   2.455   4.492   5.827
  1124G12  C00320686   2.503   4.527   5.700
  1124G12  C00220687   2.562   4.658   5.686
  1124G12  C00120688   2.603   4.727   5.566
  1124G12  C00M20689   2.518   4.737   5.453
  1124G12  C00L20690   2.480   4.623   5.384
  1124G12  C00R20691   2.393   4.610   5.279
  1124G12  C00Q20692   2.314   4.710   5.212
  1124G12  C00V20693   2.222   4.653   5.118
  1124G12  C00U20694   2.188   4.520   5.117
  1124G12  C00T20695   2.244   4.433   5.206
  1124G12  C01620696   2.197   4.310   5.235
  1124G12  C01520697   2.090   4.263   5.162
  1124G12  C01020698   2.044   4.337   5.052
  1124G12  C01120699   1.961   4.275   4.961
  1124G12  H00520700   1.922   4.327   4.874
  1124G12  C01220701   1.906   4.149   4.991
  1124G12  C01720702   1.820   4.088   4.894
  1124G12  O00220703   1.699   4.148   4.885
  1124G12  H00420704   1.671   4.165   4.797
  1124G12  C01820705   1.845   3.980   4.819
  1124G12  O00120706   1.955   3.899   4.838
  1124G12  H00320707   1.963   3.844   4.761
  1124G12  C01920708   1.756   3.927   4.706
  1124G12  H00220709   1.688   3.857   4.754
  1124G12  H00120710   1.692   4.011   4.676
  1124G12  O00020711   1.838   3.870   4.601
  1124G12  C01A20712   1.782   3.856   4.477
  1124G12  C02K20713   1.645   3.822   4.445
  1124G12  O00G20714   1.557   3.798   4.550
  1124G12  C02M20715   1.491   3.669   4.550
  1124G12  H01G20716   1.421   3.652   4.468
  1124G12  H01F20717   1.435   3.661   4.643
  1124G12  H01E20718   1.559   3.584   4.558
  1124G12  C02J20719   1.601   3.802   4.312
  1124G12  H01H20720   1.499   3.778   4.288
  1124G12  C02I20721   1.690   3.821   4.202
  1124G12  C02N20722   1.654   3.807   4.066
  1124G12  H01M20723   1.679   3.883   3.993
  1124G12  C02O20724   1.581   3.700   4.034
  1124G12  H01L20725   1.554   3.632   4.113
  1124G12  C02P20726   1.547   3.669   3.892
  1124G12  H01K20727   1.557   3.754   3.824
  1124G12  H01J20728   1.606   3.585   3.856
  1124G12  O00H20729   1.415   3.653   3.873
  1124G12  H01I20730   1.367   3.735   3.867
  1124G12  C02H20731   1.821   3.853   4.231
  1124G12  H01C20732   1.889   3.879   4.151
  1124G12  C02L20733   1.866   3.872   4.365
  1124G12  H01D20734   1.965   3.908   4.391
  1124G12  C01320735   1.938   4.085   5.107
  1124G12  H00020736   1.912   3.980   5.113
  1124G12  C01420737   2.028   4.147   5.202
  1124G12  C00F20738   2.048   4.094   5.330
  1124G12  C00H20739   2.232   4.246   5.353
  1124G12  C00I20740   2.345   4.293   5.419
  1124G12  C00J20741   2.409   4.405   5.373
  1124G12  C00Z20742   2.086   4.469   5.037
  1124G12  C00Y20743   2.020   4.556   4.949
  1124G12  H00620744   1.933   4.517   4.898
  1124G12  C00X20745   2.061   4.694   4.933
  1124G12  O00320746   1.986   4.772   4.856
  1124G12  C01B20747   2.058   4.795   4.729
  1124G12  H00920748   1.994   4.859   4.669
  1124G12  H00820749   2.072   4.701   4.676
  1124G12  H00720750   2.158   4.837   4.740
  1124G12  C00W20751   2.156   4.741   5.025
  1124G12  O00420752   2.176   4.880   5.031
  1124G12  C01C20753   2.207   4.920   5.153
  1124G12  H00A20754   2.159   5.008   5.194
  1124G12  C00P20755   2.310   4.856   5.231
  1124G12  C00O20756   2.381   4.933   5.336
  1124G12  C01D20757   2.360   5.072   5.355
  1124G12  H00S20758   2.303   5.126   5.280
  1124G12  C01E20759   2.397   5.134   5.477
  1124G12  O00820760   2.364   5.263   5.511
  1124G12  C01V20761   2.244   5.307   5.463
  1124G12  C01Z20762   2.127   5.236   5.526
  1124G12  H00R20763   2.149   5.220   5.632
  1124G12  H00Q20764   2.047   5.310   5.523
  1124G12  O00920765   2.093   5.118   5.464
  1124G12  H00P20766   2.137   5.046   5.507
  1124G12  C01W20767   2.248   5.387   5.357
  1124G12  H00O20768   2.343   5.414   5.313
  1124G12  C01X20769   2.127   5.442   5.275
  1124G12  H00N20770   2.048   5.448   5.350
  1124G12  H00M20771   2.145   5.545   5.243
  1124G12  C01Y20772   2.080   5.359   5.158
  1124G12  C02D20773   2.112   5.396   5.026
  1124G12  H01920774   2.173   5.484   5.008
  1124G12  C02C20775   2.072   5.316   4.915
  1124G12  H01A20776   2.102   5.345   4.816
  1124G12  C02B20777   2.000   5.198   4.937
  1124G12  O00E20778   1.981   5.113   4.830
  1124G12  H01B20779   1.926   5.041   4.856
  1124G12  C02F20780   1.966   5.159   5.070
  1124G12  O00F20781   1.902   5.039   5.083
  1124G12  C02G20782   1.846   5.006   5.215
  1124G12  H01720783   1.913   5.035   5.296
  1124G12  H01620784   1.842   4.897   5.217
  1124G12  H01520785   1.749   5.055   5.227
  1124G12  C02E20786   2.007   5.241   5.177
  1124G12  H01820787   1.993   5.233   5.284
  1124G12  C01F20788   2.480   5.069   5.568
  1124G12  C01G20789   2.487   5.099   5.707
  1124G12  H00L20790   2.451   5.195   5.740
  1124G12  C01H20791   2.532   5.000   5.799
  1124G12  H00B20792   2.513   5.022   5.904
  1124G12  C01I20793   2.588   4.877   5.753
  1124G12  C01U20794   2.534   4.941   5.534
  1124G12  C00S20795   2.358   4.476   5.270
  1124G12  C00K20796   2.473   4.498   5.453
  1124G12  C00N20797   2.475   4.875   5.425
  1124G12  C00020798   2.619   4.859   5.614
  1124G12  C01J20799   2.573   4.743   5.800
  1124G12  C01K20800   2.540   4.697   5.931
  1124G12  C01P20801   2.577   4.764   6.054
  1124G12  C01Q20802   2.679   4.866   6.054
  1124G12  H00G20803   2.742   4.887   5.969
  1124G12  C01R20804   2.698   4.947   6.158
  1124G12  H00F20805   2.643   4.936   6.251
  1124G12  C01S20806   2.803   5.060   6.147
  1124G12  H00E20807   2.898   5.036   6.195
  1124G12  H00D20808   2.817   5.090   6.043
  1124G12  O00520809   2.750   5.167   6.224
  1124G12  H00C20810   2.689   5.214   6.169
  1124G12  C01O20811   2.511   4.722   6.173
  1124G12  H00H20812   2.529   4.778   6.263
  1124G12  C01N20813   2.433   4.608   6.186
  1124G12  O00620814   2.385   4.583   6.313
  1124G12  C01T20815   2.261   4.509   6.337
  1124G12  H00K20816   2.171   4.552   6.293
  1124G12  H00J20817   2.249   4.509   6.446
  1124G12  H00I20818   2.267   4.404   6.310
  1124G12  C01M20819   2.410   4.534   6.068
  1124G12  C02020820   2.486   4.444   5.587
  1124G12  C02120821   2.457   4.309   5.626
  1124G12  C01L20822   2.466   4.572   5.941
  1124G12  O00720823   2.334   4.421   6.076
  1124G12  C02220824   2.411   4.273   5.750
  1124G12  C02320825   2.378   4.227   5.537
  1124G12  C00G20826   2.158   4.139   5.406
  1124G12  C00E20827   1.960   3.994   5.382
  1124G12  O00A20828   1.842   3.959   5.327
  1124G12  C02420829   1.742   4.057   5.343
  1124G12  H00V20830   1.763   4.142   5.279
  1124G12  H00U20831   1.719   4.086   5.445
  1124G12  H00T20832   1.650   4.023   5.295
  1134G12  C00D20833   2.422   3.022   5.797
  1134G12  O00B20834   2.443   3.157   5.817
  1134G12  C02520835   2.524   3.187   5.924
  1134G12  C02620836   2.671   3.152   5.907
  1134G12  H00Y20837   2.738   3.236   5.891
  1134G12  H00X20838   2.689   3.077   5.830
  1134G12  O00C20839   2.729   3.080   6.012
  1134G12  H00W20840   2.683   3.095   6.094
  1134G12  C02720841   2.471   3.238   6.043
  1134G12  O00D20842   2.337   3.260   6.048
  1134G12  H00Z20843   2.307   3.287   5.963
  1134G12  C02820844   2.558   3.271   6.154
  1134G12  C02920845   2.680   3.343   6.140
  1134G12  H01020846   2.708   3.379   6.042
  1134G12  C02T20847   2.760   3.377   6.258
  1134G12  H01O20848   2.857   3.421   6.248
  1134G12  C02S20849   2.711   3.340   6.383
  1134G12  O00J20850   2.783   3.371   6.495
  1134G12  H01P20851   2.876   3.377   6.482
  1134G12  C02R20852   2.589   3.272   6.394
  1134G12  O00I20853   2.547   3.227   6.518
  1134G12  C02Q20854   2.464   3.314   6.592
  1134G12  H01N20855   2.505   3.415   6.598
  1134G12  H01R20856   2.446   3.271   6.691
  1134G12  H01Q20857   2.365   3.333   6.552
  1134G12  C02A20858   2.512   3.235   6.283
  1134G12  H01120859   2.417   3.185   6.299
  1134G12  C00C20860   2.422   2.927   5.905
  1134G12  H01220861   2.424   2.964   6.006
  1134G12  C00B20862   2.402   2.786   5.886
  1134G12  C00A20863   2.390   2.683   5.992
  1134G12  C00920864   2.451   2.676   6.121
  1134G12  C00820865   2.546   2.758   6.186
  1134G12  H01320866   2.568   2.862   6.169
  1134G12  C00720867   2.631   2.698   6.281
  1134G12  H01420868   2.703   2.760   6.332
  1134G12  C00620869   2.640   2.563   6.314
  1134G12  C00520870   2.550   2.484   6.236
  1134G12  C00420871   2.560   2.345   6.224
  1134G12  C00320872   2.494   2.265   6.122
  1134G12  C00220873   2.536   2.128   6.110
  1134G12  C00120874   2.516   2.031   6.012
  1134G12  C00M20875   2.511   2.054   5.871
  1134G12  C00L20876   2.443   2.163   5.816
  1134G12  C00R20877   2.445   2.195   5.678
  1134G12  C00Q20878   2.519   2.145   5.565
  1134G12  C00V20879   2.505   2.230   5.452
  1134G12  C00U20880   2.460   2.366   5.454
  1134G12  C00T20881   2.412   2.419   5.572
  1134G12  C01620882   2.387   2.552   5.601
  1134G12  C01520883   2.395   2.640   5.496
  1134G12  C01020884   2.416   2.587   5.361
  1134G12  C01120885   2.410   2.670   5.249
  1134G12  H00520886   2.415   2.642   5.145
  1134G12  C01220887   2.383   2.804   5.262
  1134G12  C01720888   2.359   2.881   5.144
  1134G12  O00220889   2.233   2.925   5.116
  1134G12  H00420890   2.174   2.869   5.165
  1134G12  C01820891   2.466   2.899   5.064
  1134G12  O00120892   2.586   2.832   5.097
  1134G12  H00320893   2.641   2.834   5.020
  1134G12  C01920894   2.462   2.964   4.930
  1134G12  H00220895   2.438   2.884   4.860
  1134G12  H00120896   2.387   3.040   4.948
  1134G12  O00020897   2.590   3.011   4.902
  1134G12  C01A20898   2.605   3.088   4.783
  1134G12  C02K20899   2.534   3.080   4.663
  1134G12  O00G20900   2.442   2.977   4.658
  1134G12  C02M20901   2.332   2.974   4.560
  1134G12  H01G20902   2.270   3.063   4.550
  1134G12  H01F20903   2.266   2.890   4.581
  1134G12  H01E20904   2.371   2.963   4.459
  1134G12  C02J20905   2.545   3.184   4.565
  1134G12  H01H20906   2.484   3.192   4.476
  1134G12  C02I20907   2.636   3.290   4.584
  1134G12  C02N20908   2.645   3.401   4.491
  1134G12  H01M20909   2.687   3.496   4.521
  1134G12  C02O20910   2.587   3.407   4.372
  1134G12  H01L20911   2.540   3.323   4.323
  1134G12  C02P20912   2.576   3.534   4.299
  1134G12  H01K20913   2.494   3.596   4.335
  1134G12  H01J20914   2.666   3.595   4.301
  1134G12  O00H20915   2.552   3.504   4.168
  1134G12  H01I20916   2.539   3.585   4.121
  1134G12  C02H20917   2.712   3.294   4.703
  1134G12  H01C20918   2.781   3.377   4.715
  1134G12  C02L20919   2.700   3.194   4.798
  1134G12  H01D20920   2.755   3.202   4.890
  1134G12  C01320921   2.368   2.861   5.392
  1134G12  H00020922   2.356   2.968   5.397
  1134G12  C01420923   2.375   2.774   5.514
  1134G12  C00F20924   2.382   2.827   5.646
  1134G12  C00H20925   2.370   2.599   5.726
  1134G12  C00I20926   2.349   2.508   5.833
  1134G12  C00J20927   2.358   2.374   5.794
  1134G12  C00Z20928   2.463   2.454   5.350
  1134G12  C00Y20929   2.510   2.406   5.222
  1134G12  H00620930   2.510   2.466   5.132
  1134G12  C00X20931   2.546   2.271   5.213
  1134G12  O00320932   2.583   2.237   5.083
  1134G12  C01B20933   2.543   2.110   5.034
  1134G12  H00920934   2.448   2.087   5.084
  1134G12  H00820935   2.604   2.023   5.060
  1134G12  H00720936   2.541   2.102   4.926
  1134G12  C00W20937   2.549   2.187   5.327
  1134G12  O00420938   2.593   2.060   5.312
  1134G12  C01C20939   2.654   2.003   5.418
  1134G12  H00A20940   2.721   1.923   5.390
  1134G12  C00P20941   2.615   2.040   5.555
  1134G12  C00O20942   2.674   1.973   5.674
  1134G12  C01D20943   2.797   1.905   5.667
  1134G12  H00S20944   2.842   1.882   5.571
  1134G12  C01E20945   2.874   1.868   5.777
  1134G12  O00820946   3.005   1.828   5.765
  1134G12  C01V20947   3.072   1.841   5.648
  1134G12  C01Z20948   3.116   1.710   5.578
  1134G12  H00R20949   3.205   1.729   5.519
  1134G12  H00Q20950   3.155   1.630   5.641
  1134G12  O00920951   3.027   1.665   5.469
  1134G12  H00P20952   3.046   1.573   5.463
  1134G12  C01W20953   3.113   1.961   5.600
  1134G12  H00O20954   3.087   2.057   5.644
  1134G12  C01X20955   3.188   1.993   5.473
  1134G12  H00N20956   3.250   2.077   5.507
  1134G12  H00M20957   3.254   1.914   5.436
  1134G12  C01Y20958   3.102   2.037   5.358
  1134G12  C02D20959   3.100   1.969   5.234
  1134G12  H01920960   3.158   1.880   5.215
  1134G12  C02C20961   3.012   2.009   5.131
  1134G12  H01A20962   3.006   1.960   5.035
  1134G12  C02B20963   2.939   2.123   5.158
  1134G12  O00E20964   2.856   2.163   5.058
  1134G12  H01B20965   2.806   2.236   5.092
  1134G12  C02F20966   2.938   2.191   5.276
  1134G12  O00F20967   2.851   2.303   5.287
  1134G12  C02G20968   2.830   2.350   5.416
  1134G12  H01720969   2.764   2.435   5.400
  1134G12  H01620970   2.916   2.387   5.471
  1134G12  H01520971   2.781   2.269   5.469
  1134G12  C02E20972   3.027   2.151   5.376
  1134G12  H01820973   3.020   2.202   5.471
  1134G12  C01F20974   2.818   1.874   5.904
  1134G12  C01G20975   2.887   1.861   6.027
  1134G12  H00L20976   2.990   1.832   6.025
  1134G12  C01H20977   2.828   1.921   6.140
  1134G12  H00B20978   2.890   1.940   6.226
  1134G12  C01I20979   2.694   1.965   6.134
  1134G12  C01U20980   2.682   1.908   5.906
  1134G12  C00S20981   2.400   2.331   5.671
  1134G12  C00K20982   2.393   2.274   5.890
  1134G12  C00N20983   2.623   1.979   5.804
  1134G12  C00020984   2.612   1.931   6.030
  1134G12  C01J20985   2.633   2.078   6.197
  1134G12  C01K20986   2.690   2.148   6.312
  1134G12  C01P20987   2.760   2.096   6.422
  1134G12  C01Q20988   2.752   1.950   6.438
  1134G12  H00G20989   2.673   1.888   6.400
  1134G12  C01R20990   2.853   1.881   6.502
  1134G12  H00F20991   2.935   1.941   6.539
  1134G12  C01S20992   2.845   1.730   6.523
  1134G12  H00E20993   2.774   1.689   6.451
  1134G12  H00D20994   2.945   1.694   6.500
  1134G12  O00520995   2.809   1.711   6.657
  1134G12  H00C20996   2.719   1.682   6.653
  1134G12  C01O20997   2.829   2.184   6.514
  1134G12  H00H20998   2.898   2.153   6.591
  1134G12  C01N20999   2.816   2.326   6.503
  1134G12  O00621000   2.873   2.418   6.595
  1134G12  C01T21001   2.865   2.375   6.731
  1134G12  H00K21002   2.837   2.464   6.789
  1134G12  H00J21003   2.966   2.346   6.760
  1134G12  H00I21004   2.793   2.297   6.754
  1134G12  C01M21005   2.724   2.367   6.405
  1134G12  C02021006   2.416   2.332   6.020
  1134G12  C02121007   2.374   2.461   6.066
  1134G12  C01L21008   2.650   2.283   6.315
  1134G12  O00721009   2.723   2.509   6.402
  1134G12  C02221010   2.455   2.541   6.149
  1134G12  C02321011   2.332   2.556   5.963
  1134G12  C00G21012   2.379   2.736   5.753
  1134G12  C00E21013   2.400   2.969   5.667
  1134G12  O00A21014   2.421   3.065   5.571
  1134G12  C02421015   2.551   3.085   5.541
  1134G12  H00V21016   2.584   3.007   5.472
  1134G12  H00U21017   2.614   3.076   5.629
  1134G12  H00T21018   2.559   3.185   5.497
  1144G12  C00D21019   0.393   5.403   8.527
  1144G12  O00B21020   0.367   5.269   8.540
  1144G12  C02521021   0.466   5.191   8.590
  1144G12  C02621022   0.438   5.141   8.732
  1144G12  H00Y21023   0.429   5.224   8.801
  1144G12  H00X21024   0.528   5.084   8.755
  1144G12  O00C21025   0.324   5.060   8.743
  1144G12  H00W21026   0.335   4.983   8.689
  1144G12  C02721027   0.583   5.177   8.518
  1144G12  O00D21028   0.591   5.230   8.391
  1144G12  H00Z21029   0.513   5.280   8.372
  1144G12  C02821030   0.696   5.112   8.571
  1144G12  C02921031   0.813   5.184   8.586
  1144G12  H01021032   0.809   5.291   8.573
  1144G12  C02T21033   0.926   5.121   8.637
  1144G12  H01O21034   1.010   5.185   8.660
  1144G12  C02S21035   0.935   4.981   8.663
  1144G12  O00J21036   1.054   4.915   8.699
  1144G12  H01P21037   1.019   4.831   8.724
  1144G12  C02R21038   0.817   4.909   8.644
  1144G12  O00I21039   0.835   4.780   8.677
  1144G12  C02Q21040   0.734   4.687   8.641
  1144G12  H01N21041   0.754   4.590   8.688
  1144G12  H01R21042   0.729   4.675   8.533
  1144G12  H01Q21043   0.643   4.722   8.689
  1144G12  C02A21044   0.699   4.974   8.598
  1144G12  H01121045   0.603   4.926   8.582
  1144G12  C00C21046   0.488   5.470   8.594
  1144G12  H01221047   0.554   5.419   8.662
  1144G12  C00B21048   0.520   5.600   8.563
  1144G12  C00A21049   0.623   5.683   8.619
  1144G12  C00921050   0.667   5.693   8.749
  1144G12  C00821051   0.615   5.635   8.867
  1144G12  H01321052   0.545   5.553   8.858
  1144G12  C00721053   0.631   5.704   8.990
  1144G12  H01421054   0.579   5.676   9.080
  1144G12  C00621055   0.700   5.836   8.994
  1144G12  C00521056   0.749   5.882   8.873
  1144G12  C00421057   0.791   6.015   8.861
  1144G12  C00321058   0.794   6.075   8.733
  1144G12  C00221059   0.820   6.218   8.727
  1144G12  C00121060   0.835   6.309   8.616
  1144G12  C00M21061   0.731   6.313   8.519
  1144G12  C00L21062   0.697   6.199   8.435
  1144G12  C00R21063   0.572   6.195   8.364
  1144G12  C00Q21064   0.477   6.292   8.324
  1144G12  C00V21065   0.366   6.234   8.258
  1144G12  C00U21066   0.335   6.095   8.256
  1144G12  C00T21067   0.421   6.006   8.311
  1144G12  C01621068   0.398   5.872   8.341
  1144G12  C01521069   0.280   5.817   8.285
  1144G12  C01021070   0.191   5.901   8.209
  1144G12  C01121071   0.081   5.838   8.162
  1144G12  H00521072  -0.004   5.894   8.124
  1144G12  C01221073   0.062   5.697   8.162
  1144G12  C01721074  -0.048   5.641   8.091
  1144G12  O00221075  -0.171   5.707   8.089
  1144G12  H00421076  -0.247   5.659   8.061
  1144G12  C01821077  -0.030   5.524   8.025
  1144G12  O00121078   0.099   5.478   7.996
  1144G12  H00321079   0.080   5.397   7.952
  1144G12  C01921080  -0.141   5.444   7.960
  1144G12  H00221081  -0.234   5.466   8.013
  1144G12  H00121082  -0.149   5.456   7.852
  1144G12  O00021083  -0.102   5.304   7.989
  1144G12  C01A21084  -0.110   5.214   7.884
  1144G12  C02K21085  -0.019   5.219   7.776
  1144G12  O00G21086   0.076   5.312   7.773
  1144G12  C02M21087   0.163   5.328   7.660
  1144G12  H01G21088   0.237   5.250   7.645
  1144G12  H01F21089   0.223   5.419   7.672
  1144G12  H01E21090   0.118   5.355   7.565
  1144G12  C02J21091  -0.024   5.112   7.685
  1144G12  H01H21092   0.038   5.110   7.596
  1144G12  C02I21093  -0.118   5.004   7.703
  1144G12  C02N21094  -0.139   4.894   7.611
  1144G12  H01M21095  -0.185   4.799   7.635
  1144G12  C02O21096  -0.091   4.906   7.485
  1144G12  H01L21097  -0.032   4.991   7.454
  1144G12  C02P21098  -0.084   4.789   7.385
  1144G12  H01K21099   0.014   4.764   7.346
  1144G12  H01J21100  -0.127   4.705   7.439
  1144G12  O00H21101  -0.161   4.836   7.278
  1144G12  H01I21102  -0.144   4.783   7.202
  1144G12  C02H21103  -0.196   5.000   7.813
  1144G12  H01C21104  -0.265   4.919   7.832
  1144G12  C02L21105  -0.200   5.109   7.898
  1144G12  H01D21106  -0.274   5.114   7.977
  1144G12  C01321107   0.156   5.622   8.238
  1144G12  H00021108   0.130   5.517   8.239
  1144G12  C01421109   0.259   5.680   8.308
  1144G12  C00F21110   0.341   5.609   8.396
  1144G12  C00H21111   0.489   5.799   8.415
  1144G12  C00I21112   0.608   5.855   8.452
  1144G12  C00J21113   0.639   5.984   8.407
  1144G12  C00Z21114   0.213   6.043   8.207
  1144G12  C00Y21115   0.126   6.135   8.147
  1144G12  H00621116   0.028   6.113   8.106
  1144G12  C00X21117   0.157   6.271   8.135
  1144G12  O00321118   0.074   6.348   8.061
  1144G12  C01B21119   0.136   6.410   7.948
  1144G12  H00921120   0.175   6.510   7.968
  1144G12  H00821121   0.071   6.405   7.860
  1144G12  H00721122   0.222   6.346   7.929
  1144G12  C00W21123   0.276   6.324   8.194
  1144G12  O00421124   0.288   6.457   8.202
  1144G12  C01C21125   0.400   6.507   8.259
  1144G12  H00A21126   0.440   6.602   8.226
  1144G12  C00P21127   0.484   6.430   8.342
  1144G12  C00O21128   0.571   6.504   8.433
  1144G12  C01D21129   0.540   6.637   8.473
  1144G12  H00S21130   0.458   6.679   8.417
  1144G12  C01E21131   0.597   6.699   8.587
  1144G12  O00821132   0.542   6.819   8.632
  1144G12  C01V21133   0.616   6.927   8.593
  1144G12  C01Z21134   0.709   6.974   8.703
  1144G12  H00R21135   0.718   7.080   8.724
  1144G12  H00Q21136   0.672   6.939   8.800
  1144G12  O00921137   0.831   6.916   8.664
  1144G12  H00P21138   0.813   6.861   8.590
  1144G12  C01W21139   0.596   6.990   8.475
  1144G12  H00O21140   0.534   6.944   8.400
  1144G12  C01X21141   0.680   7.114   8.432
  1144G12  H00N21142   0.758   7.114   8.508
  1144G12  H00M21143   0.729   7.096   8.337
  1144G12  C01Y21144   0.589   7.240   8.440
  1144G12  C02D21145   0.619   7.334   8.537
  1144G12  H01921146   0.713   7.330   8.590
  1144G12  C02C21147   0.536   7.446   8.564
  1144G12  H01A21148   0.558   7.510   8.649
  1144G12  C02B21149   0.418   7.459   8.486
  1144G12  O00E21150   0.319   7.534   8.536
  1144G12  H01B21151   0.242   7.531   8.481
  1144G12  C02F21152   0.391   7.372   8.379
  1144G12  O00F21153   0.280   7.397   8.313
  1144G12  C02G21154   0.273   7.346   8.182
  1144G12  H01721155   0.273   7.237   8.176
  1144G12  H01621156   0.352   7.380   8.115
  1144G12  H01521157   0.182   7.381   8.135
  1144G12  C02E21158   0.481   7.265   8.354
  1144G12  H01821159   0.459   7.190   8.280
  1144G12  C01F21160   0.691   6.627   8.658
  1144G12  C01G21161   0.706   6.641   8.800
  1144G12  H00L21162   0.659   6.720   8.857
  1144G12  C01H21163   0.769   6.540   8.877
  1144G12  H00B21164   0.741   6.542   8.981
  1144G12  C01I21165   0.827   6.430   8.809
  1144G12  C01U21166   0.754   6.520   8.602
  1144G12  C00S21167   0.548   6.058   8.339
  1144G12  C00K21168   0.718   6.070   8.488
  1144G12  C00N21169   0.679   6.446   8.506
  1144G12  C00021170   0.840   6.436   8.674
  1144G12  C01J21171   0.844   6.295   8.845
  1144G12  C01K21172   0.846   6.235   8.978
  1144G12  C01P21173   0.878   6.299   9.107
  1144G12  C01Q21174   0.927   6.433   9.117
  1144G12  H00G21175   1.003   6.484   9.060
  1144G12  C01R21176   0.884   6.510   9.219
  1144G12  H00F21177   0.820   6.479   9.300
  1144G12  C01S21178   0.916   6.655   9.236
  1144G12  H00E21179   0.931   6.682   9.341
  1144G12  H00D21180   1.009   6.682   9.185
  1144G12  O00521181   0.809   6.729   9.194
  1144G12  H00C21182   0.742   6.667   9.169
  1144G12  C01O21183   0.867   6.221   9.221
  1144G12  H00H21184   0.892   6.265   9.317
  1144G12  C01N21185   0.825   6.086   9.221
  1144G12  O00621186   0.808   6.031   9.343
  1144G12  C01T21187   0.880   5.918   9.381
  1144G12  H00K21188   0.983   5.933   9.346
  1144G12  H00J21189   0.846   5.820   9.348
  1144G12  H00I21190   0.891   5.904   9.488
  1144G12  C01M21191   0.785   6.030   9.101
  1144G12  C02021192   0.763   6.006   8.612
  1144G12  C02121193   0.760   5.865   8.634
  1144G12  C01L21194   0.813   6.094   8.979
  1144G12  O00721195   0.708   5.916   9.105
  1144G12  C02221196   0.753   5.807   8.754
  1144G12  C02321197   0.680   5.785   8.551
  1144G12  C00G21198   0.450   5.669   8.454
  1144G12  C00E21199   0.309   5.472   8.443
  1144G12  O00A21200   0.194   5.403   8.420
  1144G12  C02421201   0.100   5.414   8.524
  1144G12  H00V21202   0.146   5.409   8.623
  1144G12  H00U21203   0.010   5.352   8.517
  1144G12  H00T21204   0.058   5.514   8.527
  1154G12  C00D21205   1.553   2.670   5.845
  1154G12  O00B21206   1.510   2.787   5.784
  1154G12  C02521207   1.477   2.906   5.851
  1154G12  C02621208   1.596   3.006   5.860
  1154G12  H00Y21209   1.691   2.958   5.841
  1154G12  H00X21210   1.602   3.061   5.954
  1154G12  O00C21211   1.579   3.096   5.751
  1154G12  H00W21212   1.507   3.063   5.700
  1154G12  C02721213   1.349   2.911   5.899
  1154G12  O00D21214   1.270   2.804   5.886
  1154G12  H00Z21215   1.298   2.753   5.811
  1154G12  C02821216   1.303   3.017   5.985
  1154G12  C02921217   1.375   3.061   6.103
  1154G12  H01021218   1.469   3.017   6.131
  1154G12  C02T21219   1.312   3.154   6.184
  1154G12  H01O21220   1.363   3.179   6.276
  1154G12  C02S21221   1.185   3.212   6.152
  1154G12  O00J21222   1.128   3.304   6.237
  1154G12  H01P21223   1.060   3.355   6.195
  1154G12  C02R21224   1.126   3.184   6.030
  1154G12  O00I21225   1.003   3.242   5.995
  1154G12  C02Q21226   0.982   3.260   5.857
  1154G12  H01N21227   0.891   3.320   5.850
  1154G12  H01R21228   0.973   3.176   5.788
  1154G12  H01Q21229   1.052   3.335   5.820
  1154G12  C02A21230   1.183   3.081   5.952
  1154G12  H01121231   1.140   3.059   5.856
  1154G12  C00C21232   1.584   2.672   5.982
  1154G12  H01221233   1.595   2.767   6.033
  1154G12  C00B21234   1.596   2.552   6.050
  1154G12  C00A21235   1.601   2.534   6.190
  1154G12  C00921236   1.657   2.610   6.296
  1154G12  C00821237   1.729   2.735   6.294
  1154G12  H01321238   1.730   2.796   6.205
  1154G12  C00721239   1.813   2.773   6.402
  1154G12  H01421240   1.875   2.860   6.395
  1154G12  C00621241   1.827   2.678   6.511
  1154G12  C00521242   1.757   2.556   6.505
  1154G12  C00421243   1.800   2.444   6.583
  1154G12  C00321244   1.750   2.318   6.549
  1154G12  C00221245   1.813   2.209   6.620
  1154G12  C00121246   1.804   2.067   6.616
  1154G12  C00M21247   1.796   1.990   6.493
  1154G12  C00L21248   1.712   2.024   6.390
  1154G12  C00R21249   1.718   1.971   6.259
  1154G12  C00Q21250   1.802   1.871   6.196
  1154G12  C00V21251   1.777   1.861   6.058
  1154G12  C00U21252   1.722   1.960   5.976
  1154G12  C00T21253   1.677   2.077   6.035
  1154G12  C01621254   1.641   2.190   5.966
  1154G12  C01521255   1.643   2.190   5.829
  1154G12  C01021256   1.682   2.072   5.767
  1154G12  C01121257   1.712   2.076   5.628
  1154G12  H00521258   1.764   1.995   5.577
  1154G12  C01221259   1.696   2.192   5.554
  1154G12  C01721260   1.735   2.192   5.413
  1154G12  O00221261   1.726   2.067   5.347
  1154G12  H00421262   1.772   2.090   5.267
  1154G12  C01821263   1.785   2.303   5.353
  1154G12  O00121264   1.794   2.422   5.415
  1154G12  H00321265   1.810   2.403   5.506
  1154G12  C01921266   1.857   2.312   5.221
  1154G12  H00221267   1.812   2.380   5.148
  1154G12  H00121268   1.955   2.353   5.244
  1154G12  O00021269   1.884   2.183   5.170
  1154G12  C01A21270   1.982   2.159   5.075
  1154G12  C02K21271   2.050   2.256   4.989
  1154G12  O00G21272   2.038   2.394   5.011
  1154G12  C02M21273   2.161   2.468   5.012
  1154G12  H01G21274   2.235   2.405   5.062
  1154G12  H01F21275   2.150   2.560   5.069
  1154G12  H01E21276   2.215   2.483   4.918
  1154G12  C02J21277   2.137   2.209   4.888
  1154G12  H01H21278   2.192   2.282   4.830
  1154G12  C02I21279   2.163   2.068   4.871
  1154G12  C02N21280   2.257   2.015   4.775
  1154G12  H01M21281   2.273   1.911   4.749
  1154G12  C02O21282   2.348   2.096   4.718
  1154G12  H01L21283   2.355   2.202   4.737
  1154G12  C02P21284   2.447   2.048   4.612
  1154G12  H01K21285   2.551   2.064   4.640
  1154G12  H01J21286   2.428   1.945   4.582
  1154G12  O00H21287   2.406   2.119   4.502
  1154G12  H01I21288   2.316   2.098   4.487
  1154G12  C02H21289   2.089   1.980   4.951
  1154G12  H01C21290   2.089   1.873   4.931
  1154G12  C02L21291   2.007   2.020   5.049
  1154G12  H01D21292   1.947   1.949   5.103
  1154G12  C01321293   1.638   2.305   5.618
  1154G12  H00021294   1.611   2.385   5.551
  1154G12  C01421295   1.623   2.311   5.763
  1154G12  C00F21296   1.598   2.432   5.834
  1154G12  C00H21297   1.612   2.307   6.040
  1154G12  C00I21298   1.583   2.295   6.180
  1154G12  C00J21299   1.610   2.168   6.240
  1154G12  C00Z21300   1.712   1.954   5.835
  1154G12  C00Y21301   1.752   1.828   5.773
  1154G12  H00621302   1.730   1.809   5.669
  1154G12  C00X21303   1.813   1.727   5.854
  1154G12  O00321304   1.872   1.609   5.802
  1154G12  C01B21305   1.914   1.626   5.668
  1154G12  H00921306   1.843   1.648   5.589
  1154G12  H00821307   1.960   1.532   5.637
  1154G12  H00721308   1.998   1.695   5.663
  1154G12  C00W21309   1.833   1.745   5.990
  1154G12  O00421310   1.897   1.647   6.056
  1154G12  C01C21311   1.962   1.693   6.162
  1154G12  H00A21312   2.067   1.668   6.164
  1154G12  C00P21313   1.906   1.785   6.254
  1154G12  C00O21314   1.954   1.803   6.387
  1154G12  C01D21315   2.069   1.735   6.430
  1154G12  H00S21316   2.119   1.666   6.364
  1154G12  C01E21317   2.146   1.763   6.549
  1154G12  O00821318   2.273   1.707   6.562
  1154G12  C01V21319   2.317   1.676   6.690
  1154G12  C01Z21320   2.457   1.713   6.718
  1154G12  H00R21321   2.492   1.804   6.670
  1154G12  H00Q21322   2.457   1.751   6.820
  1154G12  O00921323   2.541   1.602   6.698
  1154G12  H00P21324   2.481   1.540   6.660
  1154G12  C01W21325   2.236   1.618   6.777
  1154G12  H00O21326   2.139   1.591   6.739
  1154G12  C01X21327   2.265   1.577   6.923
  1154G12  H00N21328   2.308   1.658   6.983
  1154G12  H00M21329   2.171   1.548   6.970
  1154G12  C01Y21330   2.343   1.450   6.940
  1154G12  C02D21331   2.480   1.446   6.974
  1154G12  H01921332   2.537   1.536   6.985
  1154G12  C02C21333   2.551   1.325   6.974
  1154G12  H01A21334   2.656   1.326   6.998
  1154G12  C02B21335   2.479   1.199   6.973
  1154G12  O00E21336   2.538   1.073   6.985
  1154G12  H01B21337   2.470   1.010   6.966
  1154G12  C02F21338   2.340   1.196   6.947
  1154G12  O00F21339   2.278   1.074   6.962
  1154G12  C02G21340   2.139   1.075   6.970
  1154G12  H01721341   2.095   1.102   6.874
  1154G12  H01621342   2.096   1.142   7.046
  1154G12  H01521343   2.093   0.978   6.990
  1154G12  C02E21344   2.278   1.326   6.925
  1154G12  H01821345   2.173   1.316   6.903
  1154G12  C01F21346   2.099   1.868   6.628
  1154G12  C01G21347   2.180   1.949   6.715
  1154G12  H00L21348   2.285   1.927   6.716
  1154G12  C01H21349   2.135   2.076   6.758
  1154G12  H00B21350   2.211   2.144   6.793
  1154G12  C01I21351   1.997   2.114   6.742
  1154G12  C01U21352   1.969   1.917   6.608
  1154G12  C00S21353   1.658   2.067   6.171
  1154G12  C00K21354   1.656   2.158   6.381
  1154G12  C00N21355   1.903   1.897   6.484
  1154G12  C00021356   1.914   2.015   6.690
  1154G12  C01J21357   1.927   2.236   6.710
  1154G12  C01K21358   1.974   2.364   6.748
  1154G12  C01P21359   2.065   2.405   6.847
  1154G12  C01Q21360   2.102   2.311   6.953
  1154G12  H00G21361   2.032   2.238   6.991
  1154G12  C01R21362   2.223   2.304   7.009
  1154G12  H00F21363   2.300   2.363   6.962
  1154G12  C01S21364   2.264   2.208   7.115
  1154G12  H00E21365   2.355   2.253   7.155
  1154G12  H00D21366   2.193   2.205   7.198
  1154G12  O00521367   2.278   2.069   7.072
  1154G12  H00C21368   2.192   2.038   7.097
  1154G12  C01O21369   2.109   2.538   6.856
  1154G12  H00H21370   2.187   2.568   6.924
  1154G12  C01N21371   2.061   2.639   6.774
  1154G12  O00621372   2.106   2.769   6.783
  1154G12  C01T21373   2.059   2.836   6.897
  1154G12  H00K21374   2.117   2.928   6.894
  1154G12  H00J21375   2.076   2.786   6.993
  1154G12  H00I21376   1.955   2.869   6.889
  1154G12  C01M21377   1.966   2.599   6.682
  1154G12  C02021378   1.659   2.289   6.443
  1154G12  C02121379   1.597   2.406   6.386
  1154G12  C01L21380   1.909   2.467   6.675
  1154G12  O00721381   1.928   2.702   6.604
  1154G12  C02221382   1.645   2.531   6.418
  1154G12  C02321383   1.559   2.413   6.248
  1154G12  C00G21384   1.596   2.432   5.975
  1154G12  C00E21385   1.574   2.556   5.766
  1154G12  O00A21386   1.543   2.568   5.632
  1154G12  C02421387   1.643   2.644   5.558
  1154G12  H00V21388   1.624   2.751   5.566
  1154G12  H00U21389   1.633   2.630   5.450
  1154G12  H00T21390   1.748   2.620   5.574
  1164G12  C00D21391   5.251   2.577   4.280
  1164G12  O00B21392   5.218   2.469   4.207
  1164G12  C02521393   5.131   2.375   4.255
  1164G12  C02621394   4.991   2.393   4.203
  1164G12  H00Y21395   4.961   2.311   4.137
  1164G12  H00X21396   4.997   2.482   4.141
  1164G12  O00C21397   4.898   2.418   4.314
  1164G12  H00W21398   4.880   2.338   4.360
  1164G12  C02721399   5.174   2.283   4.340
  1164G12  O00D21400   5.302   2.285   4.389
  1164G12  H00Z21401   5.307   2.220   4.457
  1164G12  C02821402   5.081   2.179   4.374
  1164G12  C02921403   5.063   2.067   4.281
  1164G12  H01021404   5.113   2.075   4.185
  1164G12  C02T21405   4.974   1.969   4.318
  1164G12  H01O21406   4.968   1.890   4.244
  1164G12  C02S21407   4.909   1.965   4.448
  1164G12  O00J21408   4.823   1.864   4.485
  1164G12  H01P21409   4.758   1.881   4.551
  1164G12  C02R21410   4.934   2.072   4.533
  1164G12  O00I21411   4.889   2.097   4.668
  1164G12  C02Q21412   4.799   2.013   4.732
  1164G12  H01N21413   4.706   1.987   4.681
  1164G12  H01R21414   4.772   2.057   4.828
  1164G12  H01Q21415   4.856   1.921   4.742
  1164G12  C02A21416   5.018   2.184   4.501
  1164G12  H01121417   5.054   2.261   4.567
  1164G12  C00C21418   5.181   2.604   4.397
  1164G12  H01221419   5.106   2.537   4.436
  1164G12  C00B21420   5.220   2.713   4.471
  1164G12  C00A21421   5.174   2.741   4.603
  1164G12  C00921422   5.043   2.725   4.661
  1164G12  C00821423   4.922   2.667   4.603
  1164G12  H01321424   4.927   2.599   4.519
  1164G12  C00721425   4.794   2.712   4.646
  1164G12  H01421426   4.712   2.651   4.609
  1164G12  C00621427   4.789   2.814   4.746
  1164G12  C00521428   4.910   2.868   4.797
  1164G12  C00421429   4.912   2.988   4.868
  1164G12  C00321430   5.032   3.060   4.888
  1164G12  C00221431   5.021   3.185   4.957
  1164G12  C00121432   5.112   3.290   4.983
  1164G12  C00M21433   5.195   3.344   4.870
  1164G12  C00L21434   5.277   3.256   4.799
  1164G12  C00R21435   5.346   3.292   4.678
  1164G12  C00Q21436   5.347   3.413   4.605
  1164G12  C00V21437   5.411   3.401   4.480
  1164G12  C00U21438   5.434   3.275   4.416
  1164G12  C00T21439   5.414   3.159   4.486
  1164G12  C01621440   5.402   3.036   4.426
  1164G12  C01521441   5.444   3.026   4.296
  1164G12  C01021442   5.491   3.139   4.232
  1164G12  C01121443   5.553   3.124   4.110
  1164G12  H00521444   5.599   3.204   4.053
  1164G12  C01221445   5.556   2.999   4.045
  1164G12  C01721446   5.624   2.981   3.925
  1164G12  O00221447   5.546   2.966   3.816
  1164G12  H00421448   5.610   2.956   3.746
  1164G12  C01821449   5.760   2.972   3.926
  1164G12  O00121450   5.823   2.973   4.046
  1164G12  H00321451   5.758   2.985   4.113
  1164G12  C01921452   5.856   2.935   3.814
  1164G12  H00221453   5.923   3.019   3.799
  1164G12  H00121454   5.921   2.863   3.864
  1164G12  O00021455   5.805   2.904   3.687
  1164G12  C01A21456   5.846   2.776   3.639
  1164G12  C02K21457   5.766   2.659   3.669
  1164G12  O00G21458   5.649   2.678   3.745
  1164G12  C02M21459   5.581   2.559   3.779
  1164G12  H01G21460   5.496   2.594   3.839
  1164G12  H01F21461   5.646   2.497   3.840
  1164G12  H01E21462   5.548   2.513   3.685
  1164G12  C02J21463   5.812   2.533   3.618
  1164G12  H01H21464   5.768   2.440   3.650
  1164G12  C02I21465   5.933   2.516   3.540
  1164G12  C02N21466   5.967   2.390   3.483
  1164G12  H01M21467   5.932   2.294   3.520
  1164G12  C02O21468   6.041   2.377   3.373
  1164G12  H01L21469   6.090   2.453   3.313
  1164G12  C02P21470   6.075   2.245   3.311
  1164G12  H01K21471   6.176   2.246   3.268
  1164G12  H01J21472   6.059   2.166   3.383
  1164G12  O00H21473   5.993   2.229   3.198
  1164G12  H01I21474   5.915   2.196   3.241
  1164G12  C02H21475   6.013   2.634   3.521
  1164G12  H01C21476   6.110   2.639   3.474
  1164G12  C02L21477   5.966   2.763   3.562
  1164G12  H01D21478   6.020   2.855   3.542
  1164G12  C01321479   5.488   2.892   4.101
  1164G12  H00021480   5.467   2.809   4.036
  1164G12  C01421481   5.437   2.900   4.230
  1164G12  C00F21482   5.361   2.794   4.284
  1164G12  C00H21483   5.341   2.927   4.491
  1164G12  C00I21484   5.321   2.933   4.630
  1164G12  C00J21485   5.343   3.064   4.690
  1164G12  C00Z21486   5.480   3.267   4.285
  1164G12  C00Y21487   5.487   3.384   4.206
  1164G12  H00621488   5.509   3.375   4.101
  1164G12  C00X21489   5.473   3.508   4.265
  1164G12  O00321490   5.494   3.621   4.185
  1164G12  C01B21491   5.363   3.682   4.147
  1164G12  H00921492   5.328   3.732   4.237
  1164G12  H00821493   5.283   3.613   4.121
  1164G12  H00721494   5.374   3.753   4.064
  1164G12  C00W21495   5.432   3.521   4.396
  1164G12  O00421496   5.409   3.651   4.444
  1164G12  C01C21497   5.347   3.658   4.561
  1164G12  H00A21498   5.381   3.744   4.618
  1164G12  C00P21499   5.297   3.545   4.637
  1164G12  C00O21500   5.196   3.571   4.737
  1164G12  C01D21501   5.121   3.696   4.738
  1164G12  H00S21502   5.152   3.785   4.685
  1164G12  C01E21503   4.993   3.708   4.800
  1164G12  O00821504   4.911   3.818   4.786
  1164G12  C01V21505   4.924   3.911   4.685
  1164G12  C01Z21506   4.874   4.044   4.733
  1164G12  H00R21507   4.782   4.061   4.679
  1164G12  H00Q21508   4.847   4.042   4.839
  1164G12  O00921509   4.954   4.154   4.712
  1164G12  H00P21510   5.015   4.155   4.784
  1164G12  C01W21511   4.954   3.890   4.553
  1164G12  H00O21512   4.983   3.792   4.518
  1164G12  C01X21513   4.951   3.999   4.449
  1164G12  H00N21514   4.893   3.950   4.372
  1164G12  H00M21515   4.897   4.090   4.475
  1164G12  C01Y21516   5.087   4.039   4.387
  1164G12  C02D21517   5.213   3.984   4.432
  1164G12  H01921518   5.226   3.924   4.521
  1164G12  C02C21519   5.322   4.015   4.355
  1164G12  H01A21520   5.415   3.970   4.385
  1164G12  C02B21521   5.320   4.088   4.231
  1164G12  O00E21522   5.431   4.112   4.160
  1164G12  H01B21523   5.396   4.151   4.081
  1164G12  C02F21524   5.201   4.147   4.197
  1164G12  O00F21525   5.213   4.224   4.090
  1164G12  C02G21526   5.124   4.339   4.072
  1164G12  H01721527   5.140   4.385   3.974
  1164G12  H01621528   5.139   4.412   4.151
  1164G12  H01521529   5.017   4.316   4.072
  1164G12  C02E21530   5.086   4.124   4.272
  1164G12  H01821531   4.995   4.160   4.229
  1164G12  C01F21532   4.954   3.602   4.886
  1164G12  C01G21533   4.826   3.595   4.955
  1164G12  H00L21534   4.761   3.679   4.939
  1164G12  C01H21535   4.785   3.464   5.004
  1164G12  H00B21536   4.679   3.448   4.998
  1164G12  C01I21537   4.888   3.366   5.025
  1164G12  C01U21538   5.045   3.500   4.917
  1164G12  C00S21539   5.390   3.172   4.621
  1164G12  C00K21540   5.257   3.114   4.797
  1164G12  C00N21541   5.155   3.477   4.836
  1164G12  C00021542   5.030   3.405   5.021
  1164G12  C01J21543   4.888   3.224   5.003
  1164G12  C01K21544   4.774   3.147   4.999
  1164G12  C01P21545   4.643   3.181   5.053
  1164G12  C01Q21546   4.626   3.280   5.158
  1164G12  H00G21547   4.712   3.315   5.213
  1164G12  C01R21548   4.510   3.345   5.175
  1164G12  H00F21549   4.421   3.316   5.121
  1164G12  C01S21550   4.498   3.458   5.273
  1164G12  H00E21551   4.431   3.439   5.357
  1164G12  H00D21552   4.597   3.478   5.315
  1164G12  O00521553   4.461   3.576   5.206
  1164G12  H00C21554   4.408   3.561   5.129
  1164G12  C01O21555   4.530   3.108   5.009
  1164G12  H00H21556   4.432   3.133   5.047
  1164G12  C01N21557   4.539   2.999   4.922
  1164G12  O00621558   4.418   2.953   4.874
  1164G12  C01T21559   4.394   2.818   4.893
  1164G12  H00K21560   4.301   2.781   4.850
  1164G12  H00J21561   4.396   2.781   4.995
  1164G12  H00I21562   4.464   2.758   4.835
  1164G12  C01M21563   4.665   2.960   4.879
  1164G12  C02021564   5.155   3.020   4.832
  1164G12  C02121565   5.150   2.883   4.789
  1164G12  C01L21566   4.787   3.033   4.917
  1164G12  O00721567   4.671   2.862   4.782
  1164G12  C02221568   5.032   2.820   4.770
  1164G12  C02321569   5.239   2.833   4.688
  1164G12  C00G21570   5.308   2.811   4.415
  1164G12  C00E21571   5.344   2.666   4.223
  1164G12  O00A21572   5.419   2.622   4.112
  1164G12  C02421573   5.534   2.555   4.144
  1164G12  H00V21574   5.588   2.609   4.222
  1164G12  H00U21575   5.600   2.543   4.059
  1164G12  H00T21576   5.518   2.452   4.175
  1174G12  C00D21577   4.122   1.003   7.713
  1174G12  O00B21578   4.002   0.958   7.661
  1174G12  C02521579   3.994   0.941   7.526
  1174G12  C02621580   3.968   1.066   7.446
  1174G12  H00Y21581   3.883   1.049   7.380
  1174G12  H00X21582   4.063   1.086   7.395
  1174G12  O00C21583   3.948   1.174   7.528
  1174G12  H00W21584   3.879   1.147   7.587
  1174G12  C02721585   3.995   0.811   7.482
  1174G12  O00D21586   4.001   0.717   7.577
  1174G12  H00Z21587   4.039   0.744   7.659
  1174G12  C02821588   4.003   0.784   7.343
  1174G12  C02921589   3.919   0.683   7.296
  1174G12  H01021590   3.854   0.627   7.360
  1174G12  C02T21591   3.901   0.664   7.156
  1174G12  H01O21592   3.825   0.596   7.121
  1174G12  C02S21593   3.974   0.738   7.064
  1174G12  O00J21594   3.953   0.728   6.930
  1174G12  H01P21595   4.020   0.778   6.885
  1174G12  C02R21596   4.070   0.828   7.113
  1174G12  O00I21597   4.139   0.898   7.017
  1174G12  C02Q21598   4.243   0.989   7.063
  1174G12  H01N21599   4.317   0.927   7.114
  1174G12  H01R21600   4.200   1.061   7.132
  1174G12  H01Q21601   4.288   1.042   6.979
  1174G12  C02A21602   4.084   0.848   7.253
  1174G12  H01121603   4.156   0.914   7.299
  1174G12  C00C21604   4.236   1.035   7.636
  1174G12  H01221605   4.237   1.018   7.530
  1174G12  C00B21606   4.347   1.089   7.696
  1174G12  C00A21607   4.468   1.118   7.628
  1174G12  C00921608   4.524   1.040   7.519
  1174G12  C00821609   4.484   0.936   7.434
  1174G12  H01321610   4.389   0.886   7.429
  1174G12  C00721611   4.587   0.876   7.351
  1174G12  H01421612   4.561   0.806   7.273
  1174G12  C00621613   4.728   0.905   7.369
  1174G12  C00521614   4.756   1.002   7.462
  1174G12  C00421615   4.885   1.037   7.502
  1174G12  C00321616   4.906   1.123   7.612
  1174G12  C00221617   5.043   1.128   7.659
  1174G12  C00121618   5.107   1.205   7.760
  1174G12  C00M21619   5.050   1.211   7.893
  1174G12  C00L21620   4.918   1.250   7.924
  1174G12  C00R21621   4.847   1.220   8.044
  1174G12  C00Q21622   4.893   1.178   8.175
  1174G12  C00V21623   4.785   1.155   8.264
  1174G12  C00U21624   4.645   1.153   8.225
  1174G12  C00T21625   4.609   1.184   8.099
  1174G12  C01621626   4.487   1.155   8.040
  1174G12  C01521627   4.387   1.100   8.120
  1174G12  C01021628   4.414   1.083   8.257
  1174G12  C01121629   4.308   1.038   8.340
  1174G12  H00521630   4.311   1.043   8.448
  1174G12  C01221631   4.185   0.990   8.286
  1174G12  C01721632   4.086   0.922   8.373
  1174G12  O00221633   4.131   0.874   8.492
  1174G12  H00421634   4.223   0.854   8.481
  1174G12  C01821635   3.956   0.902   8.343
  1174G12  O00121636   3.904   0.938   8.223
  1174G12  H00321637   3.822   0.895   8.240
  1174G12  C01921638   3.860   0.846   8.453
  1174G12  H00221639   3.914   0.768   8.508
  1174G12  H00121640   3.841   0.916   8.533
  1174G12  O00021641   3.733   0.809   8.390
  1174G12  C01A21642   3.653   0.731   8.465
  1174G12  C02K21643   3.580   0.631   8.398
  1174G12  O00G21644   3.589   0.640   8.261
  1174G12  C02M21645   3.525   0.540   8.190
  1174G12  H01G21646   3.419   0.531   8.215
  1174G12  H01F21647   3.561   0.437   8.198
  1174G12  H01E21648   3.542   0.556   8.084
  1174G12  C02J21649   3.509   0.528   8.474
  1174G12  H01H21650   3.468   0.448   8.415
  1174G12  C02I21651   3.507   0.534   8.617
  1174G12  C02N21652   3.442   0.440   8.705
  1174G12  H01M21653   3.445   0.453   8.812
  1174G12  C02O21654   3.395   0.326   8.660
  1174G12  H01L21655   3.390   0.292   8.558
  1174G12  C02P21656   3.344   0.221   8.755
  1174G12  H01K21657   3.399   0.225   8.849
  1174G12  H01J21658   3.240   0.226   8.789
  1174G12  O00H21659   3.378   0.093   8.703
  1174G12  H01I21660   3.454   0.108   8.648
  1174G12  C02H21661   3.576   0.638   8.681
  1174G12  H01C21662   3.580   0.637   8.789
  1174G12  C02L21663   3.649   0.734   8.608
  1174G12  H01D21664   3.717   0.799   8.661
  1174G12  C01321665   4.173   0.992   8.144
  1174G12  H00021666   4.090   0.937   8.104
  1174G12  C01421667   4.267   1.054   8.056
  1174G12  C00F21668   4.250   1.057   7.916
  1174G12  C00H21669   4.472   1.163   7.897
  1174G12  C00I21670   4.578   1.208   7.820
  1174G12  C00J21671   4.693   1.248   7.886
  1174G12  C00Z21672   4.545   1.112   8.309
  1174G12  C00Y21673   4.576   1.079   8.444
  1174G12  H00621674   4.502   1.047   8.516
  1174G12  C00X21675   4.708   1.092   8.489
  1174G12  O00321676   4.736   1.073   8.619
  1174G12  C01B21677   4.750   0.934   8.648
  1174G12  H00921678   4.666   0.867   8.631
  1174G12  H00821679   4.774   0.923   8.753
  1174G12  H00721680   4.837   0.893   8.597
  1174G12  C00W21681   4.814   1.110   8.397
  1174G12  O00421682   4.940   1.100   8.447
  1174G12  C01C21683   5.041   1.115   8.361
  1174G12  H00A21684   5.141   1.114   8.403
  1174G12  C00P21685   5.022   1.141   8.221
  1174G12  C00O21686   5.135   1.122   8.129
  1174G12  C01D21687   5.253   1.052   8.173
  1174G12  H00S21688   5.253   1.012   8.274
  1174G12  C01E21689   5.352   0.999   8.095
  1174G12  O00821690   5.452   0.920   8.148
  1174G12  C01V21691   5.576   0.974   8.158
  1174G12  C01Z21692   5.679   0.870   8.214
  1174G12  H00R21693   5.671   0.780   8.153
  1174G12  H00Q21694   5.785   0.895   8.214
  1174G12  O00921695   5.634   0.855   8.345
  1174G12  H00P21696   5.547   0.820   8.334
  1174G12  C01W21697   5.618   1.102   8.128
  1174G12  H00O21698   5.542   1.173   8.100
  1174G12  C01X21699   5.758   1.169   8.124
  1174G12  H00N21700   5.746   1.250   8.196
  1174G12  H00M21701   5.833   1.105   8.170
  1174G12  C01Y21702   5.800   1.200   7.984
  1174G12  C02D21703   5.763   1.111   7.879
  1174G12  H01921704   5.699   1.025   7.896
  1174G12  C02C21705   5.793   1.144   7.747
  1174G12  H01A21706   5.747   1.083   7.671
  1174G12  C02B21707   5.870   1.258   7.721
  1174G12  O00E21708   5.896   1.282   7.591
  1174G12  H01B21709   5.934   1.366   7.573
  1174G12  C02F21710   5.920   1.340   7.824
  1174G12  O00F21711   5.994   1.450   7.783
  1174G12  C02G21712   6.017   1.554   7.879
  1174G12  H01721713   5.919   1.591   7.910
  1174G12  H01621714   6.071   1.635   7.829
  1174G12  H01521715   6.078   1.528   7.966
  1174G12  C02E21716   5.876   1.312   7.955
  1174G12  H01821717   5.891   1.387   8.031
  1174G12  C01F21718   5.341   1.016   7.958
  1174G12  C01G21719   5.398   0.928   7.856
  1174G12  H00L21720   5.460   0.842   7.877
  1174G12  C01H21721   5.348   0.933   7.721
  1174G12  H00B21722   5.365   0.844   7.663
  1174G12  C01I21723   5.259   1.040   7.687
  1174G12  C01U21724   5.260   1.121   7.913
  1174G12  C00S21725   4.710   1.233   8.021
  1174G12  C00K21726   4.817   1.241   7.819
  1174G12  C00N21727   5.144   1.156   7.991
  1174G12  C00021728   5.238   1.151   7.775
  1174G12  C01J21729   5.149   1.048   7.598
  1174G12  C01K21730   5.126   0.966   7.481
  1174G12  C01P21731   5.223   0.896   7.401
  1174G12  C01Q21732   5.368   0.922   7.417
  1174G12  H00G21733   5.408   1.022   7.430
  1174G12  C01R21734   5.448   0.811   7.415
  1174G12  H00F21735   5.398   0.716   7.406
  1174G12  C01S21736   5.594   0.806   7.442
  1174G12  H00E21737   5.640   0.773   7.348
  1174G12  H00D21738   5.635   0.901   7.475
  1174G12  O00521739   5.618   0.700   7.535
  1174G12  H00C21740   5.602   0.730   7.623
  1174G12  C01O21741   5.188   0.820   7.288
  1174G12  H00H21742   5.266   0.780   7.226
  1174G12  C01N21743   5.046   0.802   7.263
  1174G12  O00621744   4.991   0.727   7.156
  1174G12  C01T21745   5.085   0.668   7.069
  1174G12  H00K21746   5.135   0.588   7.124
  1174G12  H00J21747   5.164   0.734   7.032
  1174G12  H00I21748   5.021   0.617   6.997
  1174G12  C01M21749   4.951   0.868   7.340
  1174G12  C02021750   4.805   1.197   7.678
  1174G12  C02121751   4.684   1.192   7.606
  1174G12  C01L21752   4.992   0.967   7.440
  1174G12  O00721753   4.822   0.835   7.311
  1174G12  C02221754   4.659   1.077   7.527
  1174G12  C02321755   4.563   1.206   7.683
  1174G12  C00G21756   4.357   1.101   7.839
  1174G12  C00E21757   4.129   1.016   7.849
  1174G12  O00A21758   4.003   1.000   7.912
  1174G12  C02421759   3.963   1.131   7.958
  1174G12  H00V21760   3.868   1.122   8.012
  1174G12  H00U21761   3.958   1.212   7.886
  1174G12  H00T21762   4.022   1.162   8.044
  1184G12  C00D21763   5.418   6.119   3.824
  1184G12  O00B21764   5.460   6.028   3.726
  1184G12  C02521765   5.567   5.948   3.758
  1184G12  C02621766   5.546   5.826   3.841
  1184G12  H00Y21767   5.596   5.834   3.938
  1184G12  H00X21768   5.594   5.739   3.797
  1184G12  O00C21769   5.412   5.802   3.858
  1184G12  H00W21770   5.372   5.880   3.823
  1184G12  C02721771   5.690   5.978   3.696
  1184G12  O00D21772   5.699   6.090   3.617
  1184G12  H00Z21773   5.607   6.110   3.604
  1184G12  C02821774   5.812   5.900   3.701
  1184G12  C02921775   5.899   5.896   3.582
  1184G12  H01021776   5.876   5.953   3.493
  1184G12  C02T21777   6.023   5.832   3.589
  1184G12  H01O21778   6.086   5.834   3.501
  1184G12  C02S21779   6.075   5.775   3.709
  1184G12  O00J21780   6.190   5.709   3.707
  1184G12  H01P21781   6.215   5.672   3.791
  1184G12  C02R21782   5.992   5.778   3.821
  1184G12  O00I21783   6.032   5.716   3.932
  1184G12  C02Q21784   5.959   5.590   3.951
  1184G12  H01N21785   5.973   5.562   4.055
  1184G12  H01R21786   5.993   5.516   3.878
  1184G12  H01Q21787   5.852   5.605   3.944
  1184G12  C02A21788   5.866   5.840   3.818
  1184G12  H01121789   5.812   5.842   3.911
  1184G12  C00C21790   5.469   6.125   3.953
  1184G12  H01221791   5.543   6.054   3.989
  1184G12  C00B21792   5.429   6.215   4.053
  1184G12  C00A21793   5.461   6.220   4.196
  1184G12  C00921794   5.484   6.103   4.285
  1184G12  C00821795   5.488   5.965   4.279
  1184G12  H01321796   5.503   5.916   4.184
  1184G12  C00721797   5.463   5.890   4.399
  1184G12  H01421798   5.453   5.784   4.387
  1184G12  C00621799   5.435   5.955   4.524
  1184G12  C00521800   5.437   6.094   4.526
  1184G12  C00421801   5.375   6.167   4.628
  1184G12  C00321802   5.347   6.305   4.617
  1184G12  C00221803   5.271   6.370   4.724
  1184G12  C00121804   5.214   6.499   4.740
  1184G12  C00M21805   5.139   6.572   4.642
  1184G12  C00L21806   5.191   6.587   4.512
  1184G12  C00R21807   5.119   6.637   4.399
  1184G12  C00Q21808   4.981   6.677   4.387
  1184G12  C00V21809   4.948   6.704   4.247
  1184G12  C00U21810   5.021   6.660   4.137
  1184G12  C00T21811   5.136   6.593   4.158
  1184G12  C01621812   5.197   6.509   4.066
  1184G12  C01521813   5.141   6.514   3.939
  1184G12  C01021814   5.043   6.603   3.904
  1184G12  C01121815   5.022   6.633   3.770
  1184G12  H00521816   4.954   6.711   3.739
  1184G12  C01221817   5.097   6.570   3.671
  1184G12  C01721818   5.091   6.629   3.538
  1184G12  O00221819   5.089   6.762   3.532
  1184G12  H00421820   5.108   6.800   3.616
  1184G12  C01821821   5.092   6.554   3.422
  1184G12  O00121822   5.086   6.418   3.418
  1184G12  H00321823   5.090   6.404   3.325
  1184G12  C01921824   5.087   6.618   3.284
  1184G12  H00221825   4.995   6.677   3.279
  1184G12  H00121826   5.167   6.692   3.286
  1184G12  O00021827   5.115   6.509   3.181
  1184G12  C01A21828   5.138   6.542   3.050
  1184G12  C02K21829   5.204   6.443   2.967
  1184G12  O00G21830   5.241   6.313   3.007
  1184G12  C02M21831   5.215   6.264   3.138
  1184G12  H01G21832   5.285   6.309   3.209
  1184G12  H01F21833   5.255   6.163   3.142
  1184G12  H01E21834   5.113   6.276   3.173
  1184G12  C02J21835   5.244   6.487   2.839
  1184G12  H01H21836   5.294   6.421   2.769
  1184G12  C02I21837   5.226   6.614   2.787
  1184G12  C02N21838   5.271   6.643   2.651
  1184G12  H01M21839   5.332   6.578   2.590
  1184G12  C02O21840   5.248   6.769   2.603
  1184G12  H01L21841   5.193   6.843   2.659
  1184G12  C02P21842   5.296   6.827   2.476
  1184G12  H01K21843   5.334   6.751   2.408
  1184G12  H01J21844   5.210   6.881   2.436
  1184G12  O00H21845   5.403   6.919   2.510
  1184G12  H01I21846   5.479   6.867   2.534
  1184G12  C02H21847   5.157   6.711   2.874
  1184G12  H01C21848   5.134   6.812   2.845
  1184G12  C02L21849   5.123   6.676   3.005
  1184G12  H01D21850   5.073   6.741   3.075
  1184G12  C01321851   5.174   6.463   3.709
  1184G12  H00021852   5.226   6.406   3.633
  1184G12  C01421853   5.190   6.426   3.844
  1184G12  C00F21854   5.284   6.325   3.880
  1184G12  C00H21855   5.305   6.425   4.103
  1184G12  C00I21856   5.362   6.434   4.235
  1184G12  C00J21857   5.298   6.519   4.324
  1184G12  C00Z21858   4.974   6.671   4.008
  1184G12  C00Y21859   4.869   6.758   3.983
  1184G12  H00621860   4.846   6.793   3.883
  1184G12  C00X21861   4.796   6.816   4.089
  1184G12  O00321862   4.694   6.906   4.087
  1184G12  C01B21863   4.624   6.907   3.961
  1184G12  H00921864   4.688   6.957   3.889
  1184G12  H00821865   4.538   6.970   3.980
  1184G12  H00721866   4.602   6.808   3.920
  1184G12  C00W21867   4.834   6.782   4.221
  1184G12  O00421868   4.756   6.843   4.322
  1184G12  C01C21869   4.762   6.775   4.444
  1184G12  H00A21870   4.671   6.778   4.502
  1184G12  C00P21871   4.876   6.696   4.487
  1184G12  C00O21872   4.883   6.637   4.615
  1184G12  C01D21873   4.761   6.614   4.689
  1184G12  H00S21874   4.662   6.640   4.655
  1184G12  C01E21875   4.761   6.540   4.810
  1184G12  O00821876   4.656   6.524   4.889
  1184G12  C01V21877   4.597   6.649   4.912
  1184G12  C01Z21878   4.659   6.710   5.032
  1184G12  H00R21879   4.579   6.731   5.103
  1184G12  H00Q21880   4.719   6.637   5.087
  1184G12  O00921881   4.739   6.825   4.988
  1184G12  H00P21882   4.797   6.848   5.059
  1184G12  C01W21883   4.495   6.701   4.848
  1184G12  H00O21884   4.452   6.643   4.768
  1184G12  C01X21885   4.432   6.843   4.865
  1184G12  H00N21886   4.511   6.917   4.855
  1184G12  H00M21887   4.379   6.862   4.772
  1184G12  C01Y21888   4.344   6.850   4.988
  1184G12  C02D21889   4.242   6.758   5.012
  1184G12  H01921890   4.220   6.681   4.939
  1184G12  C02C21891   4.166   6.782   5.125
  1184G12  H01A21892   4.089   6.707   5.141
  1184G12  C02B21893   4.192   6.884   5.217
  1184G12  O00E21894   4.121   6.890   5.334
  1184G12  H01B21895   4.129   6.975   5.374
  1184G12  C02F21896   4.291   6.979   5.195
  1184G12  O00F21897   4.311   7.072   5.293
  1184G12  C02G21898   4.414   7.164   5.267
  1184G12  H01721899   4.403   7.230   5.181
  1184G12  H01621900   4.500   7.107   5.231
  1184G12  H01521901   4.443   7.225   5.352
  1184G12  C02E21902   4.368   6.956   5.076
  1184G12  H01821903   4.443   7.028   5.048
  1184G12  C01F21904   4.876   6.477   4.860
  1184G12  C01G21905   4.885   6.371   4.954
  1184G12  H00L21906   4.792   6.341   5.000
  1184G12  C01H21907   5.001   6.295   4.964
  1184G12  H00B21908   4.997   6.196   5.007
  1184G12  C01I21909   5.118   6.346   4.893
  1184G12  C01U21910   4.994   6.525   4.806
  1184G12  C00S21911   5.191   6.598   4.285
  1184G12  C00K21912   5.296   6.500   4.463
  1184G12  C00N21913   5.001   6.589   4.678
  1184G12  C00021914   5.118   6.478   4.840
  1184G12  C01J21915   5.226   6.280   4.830
  1184G12  C01K21916   5.275   6.143   4.854
  1184G12  C01P21917   5.251   6.059   4.968
  1184G12  C01Q21918   5.225   6.131   5.093
  1184G12  H00G21919   5.254   6.235   5.101
  1184G12  C01R21920   5.167   6.068   5.197
  1184G12  H00F21921   5.131   5.967   5.179
  1184G12  C01S21922   5.115   6.145   5.323
  1184G12  H00E21923   5.034   6.088   5.369
  1184G12  H00D21924   5.202   6.148   5.389
  1184G12  O00521925   5.059   6.272   5.291
  1184G12  H00C21926   5.098   6.309   5.213
  1184G12  C01O21927   5.281   5.923   4.966
  1184G12  H00H21928   5.276   5.854   5.049
  1184G12  C01N21929   5.330   5.870   4.846
  1184G12  O00621930   5.350   5.733   4.845
  1184G12  C01T21931   5.487   5.708   4.877
  1184G12  H00K21932   5.561   5.736   4.801
  1184G12  H00J21933   5.487   5.601   4.896
  1184G12  H00I21934   5.511   5.743   4.977
  1184G12  C01M21935   5.369   5.950   4.741
  1184G12  C02021936   5.371   6.377   4.499
  1184G12  C02121937   5.460   6.307   4.409
  1184G12  C01L21938   5.346   6.093   4.746
  1184G12  O00721939   5.412   5.883   4.633
  1184G12  C02221940   5.474   6.170   4.412
  1184G12  C02321941   5.454   6.337   4.269
  1184G12  C00G21942   5.341   6.321   4.015
  1184G12  C00E21943   5.318   6.215   3.791
  1184G12  O00A21944   5.252   6.186   3.675
  1184G12  C02421945   5.110   6.169   3.681
  1184G12  H00V21946   5.067   6.076   3.719
  1184G12  H00U21947   5.067   6.175   3.581
  1184G12  H00T21948   5.064   6.240   3.750
  1194G12  C00D21949   6.188   5.325   6.579
  1194G12  O00B21950   6.052   5.321   6.555
  1194G12  C02521951   6.001   5.296   6.433
  1194G12  C02621952   5.982   5.424   6.355
  1194G12  H00Y21953   6.016   5.421   6.252
  1194G12  H00X21954   6.030   5.508   6.405
  1194G12  O00C21955   5.844   5.459   6.370
  1194G12  H00W21956   5.812   5.429   6.453
  1194G12  C02721957   5.972   5.165   6.395
  1194G12  O00D21958   5.997   5.055   6.470
  1194G12  H00Z21959   6.018   5.095   6.553
  1194G12  C02821960   5.916   5.136   6.265
  1194G12  C02921961   5.968   5.034   6.182
  1194G12  H01021962   6.050   4.975   6.220
  1194G12  C02T21963   5.906   5.005   6.061
  1194G12  H01O21964   5.953   4.931   5.998
  1194G12  C02S21965   5.783   5.062   6.023
  1194G12  O00J21966   5.735   5.031   5.895
  1194G12  H01P21967   5.647   5.060   5.876
  1194G12  C02R21968   5.724   5.153   6.112
  1194G12  O00I21969   5.602   5.194   6.074
  1194G12  C02Q21970   5.528   5.284   6.157
  1194G12  H01N21971   5.562   5.388   6.163
  1194G12  H01R21972   5.523   5.245   6.258
  1194G12  H01Q21973   5.423   5.292   6.128
  1194G12  C02A21974   5.789   5.188   6.235
  1194G12  H01121975   5.743   5.257   6.303
  1194G12  C00C21976   6.229   5.335   6.715
  1194G12  H01221977   6.154   5.342   6.793
  1194G12  C00B21978   6.363   5.306   6.751
  1194G12  C00A21979   6.412   5.287   6.888
  1194G12  C00921980   6.380   5.365   7.006
  1194G12  C00821981   6.283   5.463   7.034
  1194G12  H01321982   6.195   5.471   6.971
  1194G12  C00721983   6.294   5.541   7.152
  1194G12  H01421984   6.209   5.605   7.173
  1194G12  C00621985   6.414   5.530   7.232
  1194G12  C00521986   6.514   5.443   7.185
  1194G12  C00421987   6.644   5.446   7.242
  1194G12  C00321988   6.751   5.378   7.175
  1194G12  C00221989   6.885   5.401   7.222
  1194G12  C00121990   7.016   5.364   7.176
  1194G12  C00M21991   7.059   5.368   7.036
  1194G12  C00L21992   6.976   5.317   6.935
  1194G12  C00R21993   6.983   5.349   6.795
  1194G12  C00Q21994   7.079   5.421   6.726
  1194G12  C00V21995   7.043   5.433   6.588
  1194G12  C00U21996   6.916   5.401   6.534
  1194G12  C00T21997   6.819   5.357   6.616
  1194G12  C01621998   6.687   5.328   6.581
  1194G12  C01521999   6.654   5.350   6.447
  1194G12  C01022000   6.751   5.392   6.352
  1194G12  C01122001   6.713   5.428   6.221
  1194G12  H00522002   6.780   5.473   6.150
  1194G12  C01222003   6.581   5.405   6.178
  1194G12  C01722004   6.537   5.433   6.042
  1194G12  O00222005   6.563   5.552   5.991
  1194G12  H00422006   6.528   5.560   5.904
  1194G12  C01822007   6.490   5.332   5.965
  1194G12  O00122008   6.476   5.204   6.014
  1194G12  H00322009   6.547   5.193   6.075
  1194G12  C01922010   6.462   5.344   5.823
  1194G12  H00222011   6.552   5.301   5.778
  1194G12  H00122012   6.375   5.285   5.794
  1194G12  O00022013   6.443   5.474   5.763
  1194G12  C01A22014   6.420   5.477   5.632
  1194G12  C02K22015   6.383   5.608   5.587
  1194G12  O00G22016   6.397   5.714   5.673
  1194G12  C02M22017   6.282   5.778   5.708
  1194G12  H01G22018   6.224   5.838   5.637
  1194G12  H01F22019   6.311   5.846   5.788
  1194G12  H01E22020   6.212   5.699   5.736
  1194G12  C02J22021   6.326   5.630   5.465
  1194G12  H01H22022   6.302   5.730   5.433
  1194G12  C02I22023   6.300   5.519   5.375
  1194G12  C02N22024   6.234   5.552   5.253
  1194G12  H01M22025   6.243   5.652   5.212
  1194G12  C02O22026   6.171   5.456   5.178
  1194G12  H01L22027   6.165   5.354   5.213
  1194G12  C02P22028   6.106   5.470   5.045
  1194G12  H01K22029   6.081   5.369   5.011
  1194G12  H01J22030   6.009   5.519   5.051
  1194G12  O00H22031   6.201   5.527   4.960
  1194G12  H01I22032   6.169   5.606   4.918
  1194G12  C02H22033   6.342   5.388   5.411
  1194G12  H01C22034   6.338   5.302   5.346
  1194G12  C02L22035   6.400   5.371   5.541
  1194G12  H01D22036   6.418   5.269   5.571
  1194G12  C01322037   6.488   5.356   6.273
  1194G12  H00022038   6.389   5.348   6.230
  1194G12  C01422039   6.518   5.332   6.414
  1194G12  C00F22040   6.425   5.306   6.516
  1194G12  C00H22041   6.597   5.287   6.678
  1194G12  C00I22042   6.640   5.252   6.806
  1194G12  C00J22043   6.781   5.252   6.831
  1194G12  C00Z22044   6.883   5.420   6.396
  1194G12  C00Y22045   6.983   5.467   6.306
  1194G12  H00622046   6.969   5.481   6.199
  1194G12  C00X22047   7.108   5.502   6.355
  1194G12  O00322048   7.219   5.542   6.273
  1194G12  C01B22049   7.183   5.561   6.132
  1194G12  H00922050   7.275   5.599   6.087
  1194G12  H00822051   7.103   5.635   6.125
  1194G12  H00722052   7.149   5.480   6.068
  1194G12  C00W22053   7.140   5.491   6.497
  1194G12  O00422054   7.261   5.533   6.542
  1194G12  C01C22055   7.290   5.541   6.673
  1194G12  H00A22056   7.393   5.549   6.703
  1194G12  C00P22057   7.197   5.493   6.769
  1194G12  C00O22058   7.223   5.527   6.902
  1194G12  C01D22059   7.301   5.650   6.929
  1194G12  H00S22060   7.359   5.697   6.850
  1194G12  C01E22061   7.302   5.714   7.059
  1194G12  O00822062   7.355   5.839   7.076
  1194G12  C01V22063   7.318   5.937   6.980
  1194G12  C01Z22064   7.441   6.005   6.918
  1194G12  H00R22065   7.488   5.935   6.849
  1194G12  H00Q22066   7.420   6.095   6.860
  1194G12  O00922067   7.529   6.056   7.018
  1194G12  H00P22068   7.533   5.991   7.087
  1194G12  C01W22069   7.183   5.956   6.951
  1194G12  H00O22070   7.113   5.900   7.011
  1194G12  C01X22071   7.133   6.054   6.850
  1194G12  H00N22072   7.077   6.131   6.903
  1194G12  H00M22073   7.212   6.102   6.793
  1194G12  C01Y22074   7.051   5.988   6.745
  1194G12  C02D22075   7.122   5.886   6.675
  1194G12  H01922076   7.221   5.846   6.692
  1194G12  C02C22077   7.052   5.817   6.573
  1194G12  H01A22078   7.105   5.742   6.516
  1194G12  C02B22079   6.917   5.850   6.546
  1194G12  O00E22080   6.850   5.781   6.449
  1194G12  H01B22081   6.757   5.800   6.450
  1194G12  C02F22082   6.849   5.949   6.621
  1194G12  O00F22083   6.719   5.972   6.600
  1194G12  C02G22084   6.649   6.083   6.650
  1194G12  H01722085   6.713   6.163   6.611
  1194G12  H01622086   6.653   6.084   6.759
  1194G12  H01522087   6.545   6.086   6.619
  1194G12  C02E22088   6.916   6.017   6.726
  1194G12  H01822089   6.867   6.095   6.783
  1194G12  C01F22090   7.237   5.652   7.168
  1194G12  C01G22091   7.204   5.716   7.296
  1194G12  H00L22092   7.246   5.812   7.321
  1194G12  C01H22093   7.105   5.662   7.380
  1194G12  H00B22094   7.070   5.729   7.458
  1194G12  C01I22095   7.041   5.535   7.346
  1194G12  C01U22096   7.183   5.522   7.152
  1194G12  C00S22097   6.867   5.300   6.734
  1194G12  C00K22098   6.836   5.276   6.955
  1194G12  C00N22099   7.155   5.475   7.016
  1194G12  C00022100   7.102   5.459   7.247
  1194G12  C01J22101   6.899   5.485   7.339
  1194G12  C01K22102   6.797   5.544   7.419
  1194G12  C01P22103   6.802   5.612   7.547
  1194G12  C01Q22104   6.920   5.622   7.632
  1194G12  H00G22105   6.966   5.711   7.674
  1194G12  C01R22106   6.987   5.509   7.658
  1194G12  H00F22107   6.949   5.413   7.625
  1194G12  C01S22108   7.114   5.497   7.746
  1194G12  H00E22109   7.091   5.481   7.852
  1194G12  H00D22110   7.179   5.421   7.702
  1194G12  O00522111   7.175   5.623   7.732
  1194G12  H00C22112   7.147   5.683   7.799
  1194G12  C01O22113   6.690   5.689   7.590
  1194G12  H00H22114   6.687   5.742   7.684
  1194G12  C01N22115   6.566   5.689   7.520
  1194G12  O00622116   6.458   5.755   7.574
  1194G12  C01T22117   6.437   5.706   7.707
  1194G12  H00K22118   6.415   5.600   7.696
  1194G12  H00J22119   6.345   5.756   7.736
  1194G12  H00I22120   6.510   5.720   7.786
  1194G12  C01M22121   6.558   5.616   7.399
  1194G12  C02022122   6.730   5.301   7.054
  1194G12  C02122123   6.591   5.275   7.032
  1194G12  C01L22124   6.667   5.531   7.352
  1194G12  O00722125   6.430   5.601   7.350
  1194G12  C02222126   6.488   5.346   7.095
  1194G12  C02322127   6.540   5.236   6.905
  1194G12  C00G22128   6.463   5.301   6.653
  1194G12  C00E22129   6.287   5.290   6.480
  1194G12  O00A22130   6.262   5.233   6.360
  1194G12  C02422131   6.299   5.103   6.335
  1194G12  H00V22132   6.273   5.073   6.234
  1194G12  H00U22133   6.263   5.039   6.415
  1194G12  H00T22134   6.407   5.085   6.331
  1204G12  C00D22135   2.236   2.386   8.472
  1204G12  O00B22136   2.104   2.332   8.477
  1204G12  C02522137   2.036   2.336   8.358
  1204G12  C02622138   1.918   2.427   8.373
  1204G12  H00Y22139   1.863   2.424   8.279
  1204G12  H00X22140   1.945   2.532   8.389
  1204G12  O00C22141   1.849   2.394   8.485
  1204G12  H00W22142   1.915   2.376   8.551
  1204G12  C02722143   2.076   2.273   8.244
  1204G12  O00D22144   2.170   2.175   8.249
  1204G12  H00Z22145   2.122   2.093   8.250
  1204G12  C02822146   2.029   2.315   8.112
  1204G12  C02922147   2.025   2.448   8.068
  1204G12  H01022148   2.044   2.528   8.138
  1204G12  C02T22149   2.015   2.473   7.929
  1204G12  H01O22150   2.031   2.574   7.893
  1204G12  C02S22151   1.978   2.372   7.837
  1204G12  O00J22152   1.974   2.398   7.704
  1204G12  H01P22153   1.930   2.322   7.671
  1204G12  C02R22154   1.966   2.244   7.881
  1204G12  O00I22155   1.934   2.147   7.788
  1204G12  C02Q22156   1.877   2.028   7.835
  1204G12  H01N22157   1.950   1.957   7.871
  1204G12  H01R22158   1.820   1.987   7.751
  1204G12  H01Q22159   1.803   2.055   7.911
  1204G12  C02A22160   1.993   2.212   8.015
  1204G12  H01122161   1.986   2.110   8.051
  1204G12  C00C22162   2.293   2.435   8.355
  1204G12  H01222163   2.235   2.450   8.265
  1204G12  C00B22164   2.430   2.453   8.344
  1204G12  C00A22165   2.505   2.469   8.225
  1204G12  C00922166   2.481   2.422   8.097
  1204G12  C00822167   2.377   2.349   8.041
  1204G12  H01322168   2.289   2.326   8.099
  1204G12  C00722169   2.402   2.284   7.918
  1204G12  H01422170   2.322   2.229   7.870
  1204G12  C00622171   2.534   2.282   7.860
  1204G12  C00522172   2.632   2.363   7.920
  1204G12  C00422173   2.767   2.337   7.899
  1204G12  C00322174   2.865   2.393   7.987
  1204G12  C00222175   2.997   2.355   7.957
  1204G12  C00122176   3.123   2.384   8.024
  1204G12  C00M22177   3.146   2.365   8.169
  1204G12  C00L22178   3.054   2.422   8.260
  1204G12  C00R22179   3.053   2.388   8.400
  1204G12  C00Q22180   3.130   2.290   8.475
  1204G12  C00V22181   3.084   2.285   8.613
  1204G12  C00U22182   2.954   2.333   8.655
  1204G12  C00T22183   2.868   2.391   8.560
  1204G12  C01622184   2.728   2.425   8.574
  1204G12  C01522185   2.671   2.388   8.695
  1204G12  C01022186   2.752   2.336   8.800
  1204G12  C01122187   2.691   2.320   8.927
  1204G12  H00522188   2.744   2.269   9.006
  1204G12  C01222189   2.554   2.354   8.946
  1204G12  C01722190   2.485   2.361   9.076
  1204G12  O00222191   2.349   2.335   9.080
  1204G12  H00422192   2.316   2.296   9.159
  1204G12  C01822193   2.556   2.386   9.191
  1204G12  O00122194   2.686   2.433   9.195
  1204G12  H00322195   2.716   2.468   9.113
  1204G12  C01922196   2.501   2.357   9.332
  1204G12  H00222197   2.581   2.322   9.397
  1204G12  H00122198   2.478   2.455   9.373
  1204G12  O00022199   2.386   2.268   9.331
  1204G12  C01A22200   2.412   2.132   9.351
  1204G12  C02K22201   2.365   2.038   9.249
  1204G12  O00G22202   2.288   2.078   9.144
  1204G12  C02M22203   2.264   1.993   9.032
  1204G12  H01G22204   2.196   1.911   9.057
  1204G12  H01F22205   2.352   1.976   8.970
  1204G12  H01E22206   2.198   2.047   8.964
  1204G12  C02J22207   2.404   1.905   9.264
  1204G12  H01H22208   2.372   1.832   9.192
  1204G12  C02I22209   2.475   1.851   9.377
  1204G12  C02N22210   2.507   1.711   9.401
  1204G12  H01M22211   2.587   1.681   9.466
  1204G12  C02O22212   2.412   1.622   9.360
  1204G12  H01L22213   2.320   1.645   9.309
  1204G12  C02P22214   2.415   1.476   9.379
  1204G12  H01K22215   2.500   1.436   9.434
  1204G12  H01J22216   2.321   1.452   9.428
  1204G12  O00H22217   2.433   1.430   9.247
  1204G12  H01I22218   2.416   1.338   9.262
  1204G12  C02H22219   2.510   1.950   9.479
  1204G12  H01C22220   2.547   1.900   9.568
  1204G12  C02L22221   2.490   2.087   9.454
  1204G12  H01D22222   2.504   2.157   9.535
  1204G12  C01322223   2.481   2.397   8.836
  1204G12  H00022224   2.376   2.419   8.848
  1204G12  C01422225   2.534   2.409   8.707
  1204G12  C00F22226   2.450   2.413   8.588
  1204G12  C00H22227   2.652   2.461   8.466
  1204G12  C00I22228   2.716   2.487   8.344
  1204G12  C00J22229   2.855   2.488   8.341
  1204G12  C00Z22230   2.890   2.303   8.779
  1204G12  C00Y22231   2.977   2.254   8.883
  1204G12  H00622232   2.946   2.224   8.982
  1204G12  C00X22233   3.110   2.216   8.850
  1204G12  O00322234   3.182   2.155   8.952
  1204G12  C01B22235   3.323   2.152   8.937
  1204G12  H00922236   3.364   2.251   8.914
  1204G12  H00822237   3.357   2.070   8.873
  1204G12  H00722238   3.372   2.114   9.026
  1204G12  C00W22239   3.158   2.211   8.709
  1204G12  O00422240   3.270   2.139   8.668
  1204G12  C01C22241   3.274   2.109   8.537
  1204G12  H00A22242   3.290   2.007   8.506
  1204G12  C00P22243   3.240   2.204   8.439
  1204G12  C00O22244   3.287   2.192   8.305
  1204G12  C01D22245   3.375   2.084   8.278
  1204G12  H00S22246   3.422   2.033   8.360
  1204G12  C01E22247   3.394   2.030   8.149
  1204G12  O00822248   3.459   1.910   8.126
  1204G12  C01V22249   3.592   1.898   8.150
  1204G12  C01Z22250   3.630   1.752   8.185
  1204G12  H00R22251   3.738   1.736   8.195
  1204G12  H00Q22252   3.576   1.726   8.276
  1204G12  O00922253   3.584   1.662   8.096
  1204G12  H00P22254   3.519   1.701   8.040
  1204G12  C01W22255   3.679   2.004   8.155
  1204G12  H00O22256   3.634   2.103   8.155
  1204G12  C01X22257   3.822   1.993   8.191
  1204G12  H00N22258   3.871   1.903   8.153
  1204G12  H00M22259   3.868   2.085   8.157
  1204G12  C01Y22260   3.840   2.006   8.343
  1204G12  C02D22261   3.791   2.118   8.412
  1204G12  H01922262   3.731   2.197   8.367
  1204G12  C02C22263   3.814   2.127   8.550
  1204G12  H01A22264   3.764   2.211   8.595
  1204G12  C02B22265   3.892   2.036   8.622
  1204G12  O00E22266   3.920   2.049   8.757
  1204G12  H01B22267   3.974   1.972   8.769
  1204G12  C02F22268   3.948   1.929   8.552
  1204G12  O00F22269   4.013   1.838   8.627
  1204G12  C02G22270   4.071   1.732   8.555
  1204G12  H01722271   4.124   1.679   8.635
  1204G12  H01622272   4.147   1.760   8.482
  1204G12  H01522273   3.998   1.670   8.504
  1204G12  C02E22274   3.932   1.921   8.412
  1204G12  H01822275   3.974   1.839   8.354
  1204G12  C01F22276   3.333   2.098   8.039
  1204G12  C01G22277   3.312   2.044   7.906
  1204G12  H00L22278   3.357   1.947   7.891
  1204G12  C01H22279   3.220   2.107   7.815
  1204G12  H00B22280   3.192   2.047   7.731
  1204G12  C01I22281   3.170   2.232   7.852
  1204G12  C01U22282   3.279   2.226   8.061
  1204G12  C00S22283   2.928   2.432   8.446
  1204G12  C00K22284   2.922   2.468   8.219
  1204G12  C00N22285   3.245   2.266   8.190
  1204G12  C00022286   3.222   2.304   7.961
  1204G12  C01J22287   3.031   2.279   7.839
  1204G12  C01K22288   2.935   2.247   7.739
  1204G12  C01P22289   2.958   2.210   7.599
  1204G12  C01Q22290   3.080   2.210   7.530
  1204G12  H00G22291   3.150   2.292   7.544
  1204G12  C01R22292   3.107   2.104   7.452
  1204G12  H00F22293   3.034   2.025   7.440
  1204G12  C01S22294   3.228   2.080   7.362
  1204G12  H00E22295   3.208   2.085   7.255
  1204G12  H00D22296   3.311   2.149   7.376
  1204G12  O00522297   3.263   1.948   7.369
  1204G12  H00C22298   3.314   1.939   7.448
  1204G12  C01O22299   2.845   2.191   7.520
  1204G12  H00H22300   2.867   2.170   7.416
  1204G12  C01N22301   2.716   2.186   7.564
  1204G12  O00622302   2.602   2.169   7.483
  1204G12  C01T22303   2.618   2.157   7.343
  1204G12  H00K22304   2.686   2.236   7.311
  1204G12  H00J22305   2.520   2.172   7.297
  1204G12  H00I22306   2.675   2.067   7.322
  1204G12  C01M22307   2.697   2.219   7.700
  1204G12  C02022308   2.837   2.468   8.104
  1204G12  C02122309   2.697   2.505   8.105
  1204G12  C01L22310   2.803   2.269   7.781
  1204G12  O00722311   2.571   2.213   7.749
  1204G12  C02222312   2.598   2.455   8.023
  1204G12  C02322313   2.634   2.509   8.231
  1204G12  C00G22314   2.510   2.442   8.464
  1204G12  C00E22315   2.309   2.383   8.586
  1204G12  O00A22316   2.243   2.324   8.697
  1204G12  C02422317   2.280   2.186   8.704
  1204G12  H00V22318   2.268   2.149   8.602
  1204G12  H00U22319   2.203   2.144   8.768
  1204G12  H00T22320   2.378   2.163   8.744
  1214G12  C00D22321   1.811   5.488   9.057
  1214G12  O00B22322   1.687   5.436   9.084
  1214G12  C02522323   1.584   5.500   9.027
  1214G12  C02622324   1.532   5.417   8.910
  1214G12  H00Y22325   1.525   5.482   8.823
  1214G12  H00X22326   1.441   5.372   8.948
  1214G12  O00C22327   1.620   5.312   8.865
  1214G12  H00W22328   1.679   5.314   8.940
  1214G12  C02722329   1.539   5.627   9.062
  1214G12  O00D22330   1.604   5.701   9.159
  1214G12  H00Z22331   1.671   5.650   9.201
  1214G12  C02822332   1.428   5.693   8.999
  1214G12  C02922333   1.317   5.629   8.938
  1214G12  H01022334   1.308   5.522   8.931
  1214G12  C02T22335   1.207   5.708   8.898
  1214G12  H01O22336   1.115   5.656   8.879
  1214G12  C02S22337   1.223   5.846   8.887
  1214G12  O00J22338   1.123   5.916   8.839
  1214G12  H01P22339   1.163   6.001   8.827
  1214G12  C02R22340   1.334   5.911   8.934
  1214G12  O00I22341   1.337   6.049   8.910
  1214G12  C02Q22342   1.454   6.127   8.935
  1214G12  H01N22343   1.431   6.234   8.931
  1214G12  H01R22344   1.521   6.101   8.853
  1214G12  H01Q22345   1.506   6.114   9.030
  1214G12  C02A22346   1.437   5.835   8.985
  1214G12  H01122347   1.521   5.886   9.030
  1214G12  C00C22348   1.846   5.544   8.934
  1214G12  H01222349   1.775   5.544   8.853
  1214G12  C00B22350   1.963   5.609   8.913
  1214G12  C00A22351   2.006   5.680   8.801
  1214G12  C00922352   1.971   5.664   8.666
  1214G12  C00822353   1.886   5.583   8.592
  1214G12  H01322354   1.805   5.528   8.636
  1214G12  C00722355   1.915   5.562   8.452
  1214G12  H01422356   1.852   5.490   8.402
  1214G12  C00622357   2.030   5.618   8.394
  1214G12  C00522358   2.105   5.705   8.471
  1214G12  C00422359   2.231   5.745   8.425
  1214G12  C00322360   2.318   5.813   8.518
  1214G12  C00222361   2.447   5.848   8.466
  1214G12  C00122362   2.562   5.893   8.524
  1214G12  C00M22363   2.609   5.848   8.655
  1214G12  C00L22364   2.531   5.858   8.772
  1214G12  C00R22365   2.564   5.791   8.894
  1214G12  C00Q22366   2.682   5.734   8.944
  1214G12  C00V22367   2.665   5.672   9.066
  1214G12  C00U22368   2.535   5.637   9.121
  1214G12  C00T22369   2.422   5.682   9.065
  1214G12  C01622370   2.293   5.630   9.088
  1214G12  C01522371   2.279   5.544   9.189
  1214G12  C01022372   2.394   5.504   9.262
  1214G12  C01122373   2.373   5.417   9.367
  1214G12  H00522374   2.464   5.392   9.420
  1214G12  C01222375   2.254   5.359   9.406
  1214G12  C01722376   2.246   5.255   9.506
  1214G12  O00222377   2.353   5.173   9.509
  1214G12  H00422378   2.366   5.158   9.416
  1214G12  C01822379   2.138   5.237   9.582
  1214G12  O00122380   2.026   5.312   9.572
  1214G12  H00322381   1.961   5.269   9.627
  1214G12  C01922382   2.124   5.122   9.675
  1214G12  H00222383   2.115   5.039   9.605
  1214G12  H00122384   2.213   5.102   9.735
  1214G12  O00022385   2.007   5.127   9.762
  1214G12  C01A22386   1.908   5.027   9.751
  1214G12  C02K22387   1.779   5.057   9.715
  1214G12  O00G22388   1.751   5.186   9.670
  1214G12  C02M22389   1.613   5.209   9.634
  1214G12  H01G22390   1.590   5.139   9.553
  1214G12  H01F22391   1.601   5.304   9.583
  1214G12  H01E22392   1.531   5.207   9.706
  1214G12  C02J22393   1.690   4.948   9.712
  1214G12  H01H22394   1.584   4.962   9.696
  1214G12  C02I22395   1.726   4.819   9.744
  1214G12  C02N22396   1.629   4.714   9.745
  1214G12  H01M22397   1.529   4.741   9.775
  1214G12  C02O22398   1.652   4.585   9.732
  1214G12  H01L22399   1.752   4.547   9.713
  1214G12  C02P22400   1.545   4.481   9.743
  1214G12  H01K22401   1.551   4.394   9.678
  1214G12  H01J22402   1.566   4.436   9.840
  1214G12  O00H22403   1.415   4.534   9.749
  1214G12  H01I22404   1.390   4.577   9.669
  1214G12  C02H22405   1.866   4.788   9.765
  1214G12  H01C22406   1.908   4.690   9.781
  1214G12  C02L22407   1.956   4.896   9.777
  1214G12  H01D22408   2.061   4.877   9.799
  1214G12  C01322409   2.147   5.394   9.319
  1214G12  H00022410   2.064   5.330   9.346
  1214G12  C01422411   2.156   5.486   9.211
  1214G12  C00F22412   2.045   5.521   9.128
  1214G12  C00H22413   2.190   5.662   9.001
  1214G12  C00I22414   2.202   5.763   8.907
  1214G12  C00J22415   2.332   5.825   8.893
  1214G12  C00Z22416   2.523   5.553   9.229
  1214G12  C00Y22417   2.642   5.516   9.298
  1214G12  H00622418   2.638   5.461   9.390
  1214G12  C00X22419   2.771   5.550   9.254
  1214G12  O00322420   2.884   5.519   9.331
  1214G12  C01B22421   2.910   5.385   9.366
  1214G12  H00922422   2.968   5.340   9.286
  1214G12  H00822423   2.821   5.330   9.396
  1214G12  H00722424   2.972   5.393   9.456
  1214G12  C00W22425   2.779   5.623   9.133
  1214G12  O00422426   2.903   5.656   9.095
  1214G12  C01C22427   2.920   5.678   8.960
  1214G12  H00A22428   3.017   5.707   8.923
  1214G12  C00P22429   2.807   5.715   8.881
  1214G12  C00O22430   2.832   5.738   8.742
  1214G12  C01D22431   2.947   5.679   8.680
  1214G12  H00S22432   3.028   5.633   8.734
  1214G12  C01E22433   2.956   5.654   8.542
  1214G12  O00822434   3.050   5.573   8.494
  1214G12  C01V22435   3.181   5.620   8.497
  1214G12  C01Z22436   3.263   5.533   8.583
  1214G12  H00R22437   3.320   5.478   8.508
  1214G12  H00Q22438   3.334   5.594   8.637
  1214G12  O00922439   3.194   5.438   8.651
  1214G12  H00P22440   3.159   5.389   8.578
  1214G12  C01W22441   3.224   5.735   8.444
  1214G12  H00O22442   3.164   5.797   8.379
  1214G12  C01X22443   3.364   5.781   8.446
  1214G12  H00N22444   3.437   5.705   8.474
  1214G12  H00M22445   3.397   5.800   8.344
  1214G12  C01Y22446   3.368   5.894   8.541
  1214G12  C02D22447   3.394   5.869   8.682
  1214G12  H01922448   3.417   5.769   8.716
  1214G12  C02C22449   3.380   5.973   8.774
  1214G12  H01A22450   3.400   5.954   8.879
  1214G12  C02B22451   3.356   6.100   8.726
  1214G12  O00E22452   3.335   6.206   8.813
  1214G12  H01B22453   3.336   6.283   8.759
  1214G12  C02F22454   3.341   6.130   8.591
  1214G12  O00F22455   3.325   6.264   8.550
  1214G12  C02G22456   3.322   6.306   8.410
  1214G12  H01722457   3.303   6.413   8.399
  1214G12  H01622458   3.233   6.262   8.366
  1214G12  H01522459   3.412   6.270   8.360
  1214G12  C02E22460   3.348   6.019   8.496
  1214G12  H01822461   3.321   6.036   8.393
  1214G12  C01F22462   2.860   5.710   8.456
  1214G12  C01G22463   2.835   5.674   8.324
  1214G12  H00L22464   2.899   5.601   8.276
  1214G12  C01H22465   2.716   5.714   8.252
  1214G12  H00B22466   2.701   5.651   8.166
  1214G12  C01I22467   2.624   5.800   8.323
  1214G12  C01U22468   2.775   5.811   8.511
  1214G12  C00S22469   2.441   5.785   8.969
  1214G12  C00K22470   2.386   5.853   8.762
  1214G12  C00N22471   2.747   5.804   8.651
  1214G12  C00022472   2.669   5.873   8.431
  1214G12  C01J22473   2.480   5.806   8.331
  1214G12  C01K22474   2.390   5.757   8.232
  1214G12  C01P22475   2.410   5.746   8.094
  1214G12  C01Q22476   2.532   5.799   8.031
  1214G12  H00G22477   2.564   5.899   8.057
  1214G12  C01R22478   2.604   5.738   7.932
  1214G12  H00F22479   2.571   5.643   7.892
  1214G12  C01S22480   2.720   5.806   7.858
  1214G12  H00E22481   2.686   5.892   7.800
  1214G12  H00D22482   2.789   5.827   7.940
  1214G12  O00522483   2.778   5.702   7.775
  1214G12  H00C22484   2.777   5.737   7.687
  1214G12  C01O22485   2.306   5.696   8.015
  1214G12  H00H22486   2.314   5.713   7.908
  1214G12  C01N22487   2.189   5.639   8.070
  1214G12  O00622488   2.087   5.593   7.983
  1214G12  C01T22489   2.042   5.462   8.006
  1214G12  H00K22490   2.015   5.430   7.905
  1214G12  H00J22491   1.951   5.465   8.065
  1214G12  H00I22492   2.123   5.393   8.030
  1214G12  C01M22493   2.172   5.650   8.207
  1214G12  C02022494   2.290   5.834   8.656
  1214G12  C02122495   2.151   5.812   8.683
  1214G12  C01L22496   2.267   5.717   8.291
  1214G12  O00722497   2.065   5.590   8.266
  1214G12  C02222498   2.065   5.747   8.595
  1214G12  C02322499   2.110   5.770   8.808
  1214G12  C00G22500   2.066   5.600   9.015
  1214G12  C00E22501   1.913   5.475   9.155
  1214G12  O00A22502   1.879   5.408   9.269
  1214G12  C02422503   1.797   5.476   9.367
  1214G12  H00V22504   1.705   5.515   9.323
  1214G12  H00U22505   1.835   5.569   9.407
  1214G12  H00T22506   1.780   5.413   9.455
  1224G12  C00D22507   2.396   5.266   6.037
  1224G12  O00B22508   2.440   5.163   6.125
  1224G12  C02522509   2.348   5.099   6.211
  1224G12  C02622510   2.342   5.164   6.345
  1224G12  H00Y22511   2.273   5.116   6.414
  1224G12  H00X22512   2.307   5.267   6.332
  1224G12  O00C22513   2.478   5.156   6.398
  1224G12  H00W22514   2.521   5.170   6.316
  1224G12  C02722515   2.270   4.997   6.166
  1224G12  O00D22516   2.270   4.963   6.031
  1224G12  H00Z22517   2.202   4.900   6.010
  1224G12  C02822518   2.185   4.926   6.253
  1224G12  C02922519   2.055   4.897   6.214
  1224G12  H01022520   2.015   4.930   6.120
  1224G12  C02T22521   1.971   4.825   6.295
  1224G12  H01O22522   1.874   4.797   6.255
  1224G12  C02S22523   2.013   4.776   6.423
  1224G12  O00J22524   1.933   4.693   6.499
  1224G12  H01P22525   1.986   4.673   6.575
  1224G12  C02R22526   2.145   4.790   6.462
  1224G12  O00I22527   2.184   4.722   6.572
  1224G12  C02Q22528   2.319   4.726   6.614
  1224G12  H01N22529   2.335   4.659   6.699
  1224G12  H01R22530   2.339   4.824   6.658
  1224G12  H01Q22531   2.383   4.692   6.533
  1224G12  C02A22532   2.227   4.869   6.378
  1224G12  H01122533   2.334   4.876   6.396
  1224G12  C00C22534   2.261   5.283   6.000
  1224G12  H01222535   2.186   5.215   6.040
  1224G12  C00B22536   2.223   5.385   5.912
  1224G12  C00A22537   2.093   5.413   5.865
  1224G12  C00922538   1.982   5.323   5.846
  1224G12  C00822539   1.964   5.177   5.861
  1224G12  H01322540   2.024   5.118   5.928
  1224G12  C00722541   1.865   5.109   5.779
  1224G12  H01422542   1.840   5.005   5.795
  1224G12  C00622543   1.794   5.178   5.677
  1224G12  C00522544   1.823   5.315   5.662
  1224G12  C00422545   1.785   5.381   5.543
  1224G12  C00322546   1.836   5.508   5.521
  1224G12  C00222547   1.793   5.568   5.398
  1224G12  C00122548   1.819   5.694   5.332
  1224G12  C00M22549   1.952   5.745   5.315
  1224G12  C00L22550   2.043   5.744   5.424
  1224G12  C00R22551   2.188   5.755   5.411
  1224G12  C00Q22552   2.271   5.788   5.301
  1224G12  C00V22553   2.411   5.773   5.333
  1224G12  C00U22554   2.460   5.722   5.458
  1224G12  C00T22555   2.375   5.696   5.563
  1224G12  C01622556   2.396   5.616   5.674
  1224G12  C01522557   2.524   5.580   5.693
  1224G12  C01022558   2.625   5.624   5.599
  1224G12  C01122559   2.763   5.603   5.632
  1224G12  H00522560   2.853   5.630   5.579
  1224G12  C01222561   2.803   5.544   5.748
  1224G12  C01722562   2.942   5.536   5.789
  1224G12  O00222563   3.015   5.656   5.778
  1224G12  H00422564   3.105   5.637   5.799
  1224G12  C01822565   2.996   5.426   5.843
  1224G12  O00122566   2.928   5.306   5.863
  1224G12  H00322567   2.996   5.241   5.867
  1224G12  C01922568   3.140   5.406   5.878
  1224G12  H00222569   3.195   5.500   5.873
  1224G12  H00122570   3.158   5.374   5.981
  1224G12  O00022571   3.182   5.310   5.784
  1224G12  C01A22572   3.301   5.250   5.811
  1224G12  C02K22573   3.309   5.166   5.925
  1224G12  O00G22574   3.209   5.156   6.021
  1224G12  C02M22575   3.134   5.037   6.016
  1224G12  H01G22576   3.059   5.048   5.937
  1224G12  H01F22577   3.081   5.025   6.111
  1224G12  H01E22578   3.207   4.956   6.017
  1224G12  C02J22579   3.418   5.087   5.945
  1224G12  H01H22580   3.423   5.020   6.029
  1224G12  C02I22581   3.531   5.094   5.857
  1224G12  C02N22582   3.653   5.021   5.880
  1224G12  H01M22583   3.703   4.972   5.797
  1224G12  C02O22584   3.699   5.005   6.000
  1224G12  H01L22585   3.665   5.053   6.091
  1224G12  C02P22586   3.819   4.919   6.035
  1224G12  H01K22587   3.883   4.982   6.097
  1224G12  H01J22588   3.777   4.845   6.104
  1224G12  O00H22589   3.889   4.858   5.935
  1224G12  H01I22590   3.828   4.822   5.871
  1224G12  C02H22591   3.524   5.178   5.744
  1224G12  H01C22592   3.608   5.200   5.679
  1224G12  C02L22593   3.407   5.252   5.721
  1224G12  H01D22594   3.407   5.315   5.634
  1224G12  C01322595   2.695   5.504   5.831
  1224G12  H00022596   2.735   5.476   5.928
  1224G12  C01422597   2.560   5.512   5.806
  1224G12  C00F22598   2.460   5.446   5.888
  1224G12  C00H22599   2.295   5.567   5.757
  1224G12  C00I22600   2.165   5.601   5.729
  1224G12  C00J22601   2.138   5.683   5.618
  1224G12  C00Z22602   2.591   5.687   5.479
  1224G12  C00Y22603   2.686   5.716   5.382
  1224G12  H00622604   2.792   5.694   5.389
  1224G12  C00X22605   2.644   5.761   5.254
  1224G12  O00322606   2.737   5.776   5.152
  1224G12  C01B22607   2.822   5.889   5.154
  1224G12  H00922608   2.870   5.903   5.251
  1224G12  H00822609   2.764   5.978   5.128
  1224G12  H00722610   2.902   5.885   5.081
  1224G12  C00W22611   2.509   5.794   5.228
  1224G12  O00422612   2.472   5.820   5.101
  1224G12  C01C22613   2.340   5.854   5.074
  1224G12  H00A22614   2.322   5.922   4.992
  1224G12  C00P22615   2.234   5.812   5.164
  1224G12  C00O22616   2.107   5.782   5.107
  1224G12  C01D22617   2.093   5.764   4.962
  1224G12  H00S22618   2.175   5.796   4.899
  1224G12  C01E22619   1.988   5.684   4.903
  1224G12  O00822620   1.982   5.649   4.771
  1224G12  C01V22621   2.054   5.723   4.684
  1224G12  C01Z22622   1.986   5.843   4.612
  1224G12  H00R22623   2.048   5.902   4.544
  1224G12  H00Q22624   1.905   5.803   4.551
  1224G12  O00922625   1.920   5.931   4.701
  1224G12  H00P22626   1.850   5.886   4.745
  1224G12  C01W22627   2.186   5.697   4.673
  1224G12  H00O22628   2.221   5.603   4.713
  1224G12  C01X22629   2.292   5.762   4.587
  1224G12  H00N22630   2.336   5.688   4.520
  1224G12  H00M22631   2.246   5.825   4.512
  1224G12  C01Y22632   2.401   5.844   4.655
  1224G12  C02D22633   2.498   5.771   4.729
  1224G12  H01922634   2.487   5.664   4.732
  1224G12  C02C22635   2.617   5.829   4.779
  1224G12  H01A22636   2.694   5.774   4.830
  1224G12  C02B22637   2.632   5.968   4.751
  1224G12  O00E22638   2.734   6.038   4.810
  1224G12  H01B22639   2.729   6.128   4.781
  1224G12  C02F22640   2.533   6.047   4.686
  1224G12  O00F22641   2.555   6.185   4.695
  1224G12  C02G22642   2.456   6.259   4.625
  1224G12  H01722643   2.474   6.362   4.656
  1224G12  H01622644   2.356   6.238   4.663
  1224G12  H01522645   2.467   6.257   4.517
  1224G12  C02E22646   2.419   5.982   4.639
  1224G12  H01822647   2.341   6.032   4.584
  1224G12  C01F22648   1.883   5.645   4.987
  1224G12  C01G22649   1.793   5.537   4.964
  1224G12  H00L22650   1.802   5.486   4.870
  1224G12  C01H22651   1.694   5.494   5.060
  1224G12  H00B22652   1.633   5.405   5.057
  1224G12  C01I22653   1.707   5.555   5.186
  1224G12  C01U22654   1.869   5.709   5.111
  1224G12  C00S22655   2.243   5.733   5.538
  1224G12  C00K22656   2.017   5.679   5.549
  1224G12  C00N22657   1.983   5.764   5.177
  1224G12  C00022658   1.762   5.685   5.203
  1224G12  C01J22659   1.695   5.499   5.318
  1224G12  C01K22660   1.628   5.374   5.350
  1224G12  C01P22661   1.514   5.312   5.290
  1224G12  C01Q22662   1.426   5.378   5.193
  1224G12  H00G22663   1.383   5.327   5.108
  1224G12  C01R22664   1.398   5.505   5.213
  1224G12  H00F22665   1.443   5.566   5.290
  1224G12  C01S22666   1.294   5.574   5.130
  1224G12  H00E22667   1.330   5.676   5.117
  1224G12  H00D22668   1.263   5.526   5.037
  1224G12  O00522669   1.172   5.587   5.211
  1224G12  H00C22670   1.159   5.505   5.255
  1224G12  C01O22671   1.483   5.177   5.320
  1224G12  H00H22672   1.408   5.121   5.267
  1224G12  C01N22673   1.553   5.110   5.421
  1224G12  O00622674   1.543   4.979   5.459
  1224G12  C01T22675   1.448   4.906   5.387
  1224G12  H00K22676   1.450   4.799   5.409
  1224G12  H00J22677   1.460   4.903   5.279
  1224G12  H00I22678   1.346   4.935   5.414
  1224G12  C01M22679   1.647   5.181   5.490
  1224G12  C02022680   1.926   5.580   5.605
  1224G12  C02122681   1.939   5.522   5.735
  1224G12  C01L22682   1.685   5.317   5.462
  1224G12  O00722683   1.706   5.117   5.592
  1224G12  C02222684   1.893   5.392   5.757
  1224G12  C02322685   2.062   5.531   5.801
  1224G12  C00G22686   2.328   5.466   5.856
  1224G12  C00E22687   2.494   5.355   5.990
  1224G12  O00A22688   2.613   5.345   6.053
  1224G12  C02422689   2.625   5.446   6.154
  1224G12  H00V22690   2.726   5.459   6.191
  1224G12  H00U22691   2.566   5.432   6.244
  1224G12  H00T22692   2.588   5.544   6.124
  1234G12  C00D22693   1.905   0.776   5.425
  1234G12  O00B22694   1.811   0.872   5.387
  1234G12  C02522695   1.726   0.924   5.480
  1234G12  C02622696   1.611   0.824   5.510
  1234G12  H00Y22697   1.610   0.750   5.430
  1234G12  H00X22698   1.510   0.864   5.518
  1234G12  O00C22699   1.623   0.744   5.627
  1234G12  H00W22700   1.698   0.687   5.619
  1234G12  C02722701   1.747   1.050   5.526
  1234G12  O00D22702   1.854   1.115   5.481
  1234G12  H00Z22703   1.894   1.066   5.411
  1234G12  C02822704   1.662   1.123   5.619
  1234G12  C02922705   1.664   1.264   5.616
  1234G12  H01022706   1.707   1.307   5.527
  1234G12  C02T22707   1.585   1.343   5.709
  1234G12  H01O22708   1.593   1.450   5.700
  1234G12  C02S22709   1.511   1.276   5.803
  1234G12  O00J22710   1.440   1.341   5.900
  1234G12  H01P22711   1.382   1.284   5.949
  1234G12  C02R22712   1.516   1.137   5.817
  1234G12  O00I22713   1.451   1.081   5.926
  1234G12  C02Q22714   1.349   0.991   5.868
  1234G12  H01N22715   1.266   1.048   5.827
  1234G12  H01R22716   1.298   0.942   5.952
  1234G12  H01Q22717   1.388   0.919   5.796
  1234G12  C02A22718   1.591   1.062   5.725
  1234G12  H01122719   1.599   0.955   5.737
  1234G12  C00C22720   1.935   0.746   5.562
  1234G12  H01222721   1.891   0.793   5.649
  1234G12  C00B22722   2.003   0.631   5.591
  1234G12  C00A22723   2.037   0.583   5.725
  1234G12  C00922724   2.043   0.654   5.848
  1234G12  C00822725   2.041   0.792   5.883
  1234G12  H01322726   1.992   0.872   5.828
  1234G12  C00722727   2.110   0.830   6.003
  1234G12  H01422728   2.097   0.931   6.040
  1234G12  C00622729   2.183   0.737   6.079
  1234G12  C00522730   2.182   0.604   6.039
  1234G12  C00422731   2.272   0.507   6.092
  1234G12  C00322732   2.281   0.376   6.036
  1234G12  C00222733   2.386   0.290   6.089
  1234G12  C00122734   2.443   0.168   6.044
  1234G12  C00M22735   2.478   0.133   5.901
  1234G12  C00L22736   2.396   0.171   5.792
  1234G12  C00R22737   2.430   0.169   5.651
  1234G12  C00Q22738   2.547   0.135   5.583
  1234G12  C00V22739   2.530   0.158   5.442
  1234G12  C00U22740   2.423   0.235   5.383
  1234G12  C00T22741   2.325   0.286   5.460
  1234G12  C01622742   2.231   0.384   5.427
  1234G12  C01522743   2.237   0.428   5.291
  1234G12  C01022744   2.325   0.367   5.200
  1234G12  C01122745   2.324   0.418   5.063
  1234G12  H00522746   2.394   0.388   4.987
  1234G12  C01222747   2.234   0.519   5.025
  1234G12  C01722748   2.218   0.574   4.892
  1234G12  O00222749   2.187   0.703   4.875
  1234G12  H00422750   2.177   0.728   4.784
  1234G12  C01822751   2.241   0.497   4.782
  1234G12  O00122752   2.253   0.364   4.786
  1234G12  H00322753   2.192   0.340   4.854
  1234G12  C01922754   2.243   0.551   4.638
  1234G12  H00222755   2.312   0.500   4.572
  1234G12  H00122756   2.149   0.543   4.583
  1234G12  O00022757   2.277   0.688   4.627
  1234G12  C01A22758   2.223   0.753   4.518
  1234G12  C02K22759   2.162   0.877   4.535
  1234G12  O00G22760   2.138   0.930   4.664
  1234G12  C02M22761   2.002   0.882   4.698
  1234G12  H01G22762   1.979   0.910   4.801
  1234G12  H01F22763   1.997   0.774   4.703
  1234G12  H01E22764   1.922   0.916   4.633
  1234G12  C02J22765   2.111   0.945   4.421
  1234G12  H01H22766   2.070   1.039   4.455
  1234G12  C02I22767   2.102   0.894   4.295
  1234G12  C02N22768   2.034   0.946   4.181
  1234G12  H01M22769   2.055   0.917   4.079
  1234G12  C02O22770   1.954   1.048   4.205
  1234G12  H01L22771   1.941   1.085   4.306
  1234G12  C02P22772   1.876   1.122   4.098
  1234G12  H01K22773   1.926   1.216   4.074
  1234G12  H01J22774   1.881   1.066   4.004
  1234G12  O00H22775   1.740   1.142   4.142
  1234G12  H01I22776   1.745   1.182   4.228
  1234G12  C02H22777   2.166   0.771   4.277
  1234G12  H01C22778   2.155   0.731   4.177
  1234G12  C02L22779   2.227   0.700   4.386
  1234G12  H01D22780   2.263   0.600   4.366
  1234G12  C01322781   2.156   0.575   5.128
  1234G12  H00022782   2.110   0.662   5.083
  1234G12  C01422783   2.150   0.537   5.263
  1234G12  C00F22784   2.068   0.599   5.356
  1234G12  C00H22785   2.146   0.437   5.519
  1234G12  C00I22786   2.152   0.386   5.648
  1234G12  C00J22787   2.242   0.284   5.680
  1234G12  C00Z22788   2.426   0.281   5.253
  1234G12  C00Y22789   2.533   0.235   5.171
  1234G12  H00622790   2.543   0.271   5.070
  1234G12  C00X22791   2.633   0.152   5.219
  1234G12  O00322792   2.731   0.107   5.132
  1234G12  C01B22793   2.689  -0.015   5.071
  1234G12  H00922794   2.582  -0.021   5.054
  1234G12  H00822795   2.722  -0.084   5.148
  1234G12  H00722796   2.743  -0.032   4.978
  1234G12  C00W22797   2.635   0.113   5.355
  1234G12  O00422798   2.746   0.051   5.403
  1234G12  C01C22799   2.767   0.046   5.538
  1234G12  H00A22800   2.851  -0.014   5.570
  1234G12  C00P22801   2.672   0.079   5.637
  1234G12  C00O22802   2.706   0.089   5.780
  1234G12  C01D22803   2.840   0.089   5.823
  1234G12  H00S22804   2.918   0.068   5.750
  1234G12  C01E22805   2.895   0.128   5.946
  1234G12  O00822806   3.030   0.143   5.964
  1234G12  C01V22807   3.118   0.050   5.911
  1234G12  C01Z22808   3.254   0.116   5.901
  1234G12  H00R22809   3.305   0.101   5.806
  1234G12  H00Q22810   3.243   0.223   5.919
  1234G12  O00922811   3.339   0.060   5.997
  1234G12  H00P22812   3.323  -0.033   5.998
  1234G12  C01W22813   3.090  -0.080   5.882
  1234G12  H00O22814   2.998  -0.128   5.909
  1234G12  C01X22815   3.181  -0.170   5.799
  1234G12  H00N22816   3.287  -0.145   5.808
  1234G12  H00M22817   3.168  -0.277   5.820
  1234G12  C01Y22818   3.135  -0.155   5.653
  1234G12  C02D22819   3.190  -0.066   5.567
  1234G12  H01922820   3.269  -0.001   5.603
  1234G12  C02C22821   3.155  -0.066   5.430
  1234G12  H01A22822   3.200   0.012   5.370
  1234G12  C02B22823   3.060  -0.158   5.378
  1234G12  O00E22824   2.999  -0.157   5.258
  1234G12  H01B22825   2.926  -0.217   5.265
  1234G12  C02F22826   2.998  -0.246   5.471
  1234G12  O00F22827   2.904  -0.335   5.421
  1234G12  C02G22828   2.848  -0.420   5.514
  1234G12  H01722829   2.759  -0.471   5.479
  1234G12  H01622830   2.801  -0.382   5.605
  1234G12  H01522831   2.915  -0.502   5.540
  1234G12  C02E22832   3.032  -0.239   5.608
  1234G12  H01822833   2.991  -0.308   5.681
  1234G12  C01F22834   2.802   0.170   6.043
  1234G12  C01G22835   2.827   0.247   6.156
  1234G12  H00L22836   2.925   0.292   6.165
  1234G12  C01H22837   2.716   0.308   6.228
  1234G12  H00B22838   2.736   0.389   6.296
  1234G12  C01I22839   2.587   0.269   6.199
  1234G12  C01U22840   2.666   0.130   6.020
  1234G12  C00S22841   2.327   0.237   5.584
  1234G12  C00K22842   2.288   0.259   5.816
  1234G12  C00N22843   2.619   0.108   5.890
  1234G12  C00022844   2.564   0.161   6.110
  1234G12  C01J22845   2.464   0.343   6.195
  1234G12  C01K22846   2.428   0.466   6.271
  1234G12  C01P22847   2.477   0.504   6.400
  1234G12  C01Q22848   2.561   0.409   6.477
  1234G12  H00G22849   2.524   0.311   6.504
  1234G12  C01R22850   2.678   0.458   6.528
  1234G12  H00F22851   2.718   0.556   6.507
  1234G12  C01S22852   2.781   0.376   6.605
  1234G12  H00E22853   2.817   0.424   6.695
  1234G12  H00D22854   2.737   0.282   6.638
  1234G12  O00522855   2.884   0.354   6.509
  1234G12  H00C22856   2.926   0.431   6.475
  1234G12  C01O22857   2.444   0.624   6.461
  1234G12  H00H22858   2.494   0.650   6.553
  1234G12  C01N22859   2.368   0.722   6.393
  1234G12  O00622860   2.316   0.837   6.438
  1234G12  C01T22861   2.314   0.870   6.575
  1234G12  H00K22862   2.418   0.875   6.606
  1234G12  H00J22863   2.268   0.787   6.630
  1234G12  H00I22864   2.252   0.954   6.606
  1234G12  C01M22865   2.318   0.679   6.263
  1234G12  C02022866   2.218   0.342   5.916
  1234G12  C02122867   2.105   0.422   5.889
  1234G12  C01L22868   2.340   0.548   6.209
  1234G12  O00722869   2.250   0.771   6.193
  1234G12  C02222870   2.103   0.554   5.935
  1234G12  C02322871   2.073   0.446   5.744
  1234G12  C00G22872   2.067   0.556   5.490
  1234G12  C00E22873   1.974   0.704   5.327
  1234G12  O00A22874   1.946   0.750   5.197
  1234G12  C02422875   1.853   0.674   5.130
  1234G12  H00V22876   1.757   0.693   5.178
  1234G12  H00U22877   1.871   0.566   5.133
  1234G12  H00T22878   1.848   0.700   5.024
  1244G12  C00D22879   0.905   3.588   4.015
  1244G12  O00B22880   0.815   3.486   4.007
  1244G12  C02522881   0.794   3.422   3.880
  1244G12  C02622882   0.881   3.294   3.861
  1244G12  H00Y22883   0.832   3.221   3.797
  1244G12  H00X22884   0.879   3.246   3.958
  1244G12  O00C22885   1.016   3.320   3.827
  1244G12  H00W22886   1.065   3.241   3.844
  1244G12  C02722887   0.719   3.490   3.790
  1244G12  O00D22888   0.662   3.602   3.842
  1244G12  H00Z22889   0.710   3.600   3.923
  1244G12  C02822890   0.713   3.473   3.643
  1244G12  C02922891   0.793   3.390   3.562
  1244G12  H01022892   0.866   3.320   3.599
  1244G12  C02T22893   0.781   3.385   3.419
  1244G12  H01O22894   0.827   3.312   3.354
  1244G12  C02S22895   0.691   3.470   3.355
  1244G12  O00J22896   0.670   3.476   3.221
  1244G12  H01P22897   0.611   3.549   3.207
  1244G12  C02R22898   0.619   3.565   3.429
  1244G12  O00I22899   0.541   3.647   3.362
  1244G12  C02Q22900   0.537   3.782   3.412
  1244G12  H01N22901   0.641   3.815   3.399
  1244G12  H01R22902   0.491   3.817   3.504
  1244G12  H01Q22903   0.476   3.835   3.339
  1244G12  C02A22904   0.620   3.553   3.566
  1244G12  H01122905   0.543   3.608   3.618
  1244G12  C00C22906   0.976   3.634   3.903
  1244G12  H01222907   0.969   3.586   3.807
  1244G12  C00B22908   1.052   3.754   3.901
  1244G12  C00A22909   1.127   3.813   3.793
  1244G12  C00922910   1.178   3.747   3.672
  1244G12  C00822911   1.168   3.614   3.630
  1244G12  H01322912   1.094   3.541   3.659
  1244G12  C00722913   1.270   3.564   3.548
  1244G12  H01422914   1.275   3.463   3.512
  1244G12  C00622915   1.385   3.648   3.518
  1244G12  C00522916   1.392   3.773   3.580
  1244G12  C00422917   1.507   3.850   3.578
  1244G12  C00322918   1.513   3.970   3.657
  1244G12  C00222919   1.642   4.038   3.660
  1244G12  C00122920   1.694   4.153   3.735
  1244G12  C00M22921   1.666   4.180   3.873
  1244G12  C00L22922   1.535   4.179   3.920
  1244G12  C00R22923   1.497   4.179   4.058
  1244G12  C00Q22924   1.579   4.186   4.177
  1244G12  C00V22925   1.508   4.153   4.293
  1244G12  C00U22926   1.381   4.086   4.299
  1244G12  C00T22927   1.314   4.060   4.180
  1244G12  C01622928   1.207   3.967   4.165
  1244G12  C01522929   1.159   3.912   4.278
  1244G12  C01022930   1.211   3.953   4.403
  1244G12  C01122931   1.138   3.916   4.519
  1244G12  H00522932   1.153   3.954   4.619
  1244G12  C01222933   1.016   3.847   4.513
  1244G12  C01722934   0.936   3.827   4.626
  1244G12  O00222935   0.900   3.696   4.648
  1244G12  H00422936   0.838   3.684   4.718
  1244G12  C01822937   0.903   3.930   4.700
  1244G12  O00122938   0.927   4.057   4.656
  1244G12  H00322939   0.886   4.065   4.571
  1244G12  C01922940   0.831   3.931   4.832
  1244G12  H00222941   0.892   3.949   4.920
  1244G12  H00122942   0.770   4.021   4.829
  1244G12  O00022943   0.757   3.820   4.860
  1244G12  C01A22944   0.634   3.848   4.922
  1244G12  C02K22945   0.615   3.805   5.054
  1244G12  O00G22946   0.709   3.718   5.111
  1244G12  C02M22947   0.669   3.646   5.227
  1244G12  H01G22948   0.583   3.582   5.206
  1244G12  H01F22949   0.653   3.707   5.315
  1244G12  H01E22950   0.760   3.586   5.239
  1244G12  C02J22951   0.494   3.837   5.116
  1244G12  H01H22952   0.474   3.791   5.212
  1244G12  C02I22953   0.399   3.922   5.064
  1244G12  C02N22954   0.273   3.960   5.131
  1244G12  H01M22955   0.227   4.056   5.143
  1244G12  C02O22956   0.213   3.875   5.216
  1244G12  H01L22957   0.246   3.773   5.225
  1244G12  C02P22958   0.102   3.906   5.309
  1244G12  H01K22959   0.145   3.898   5.409
  1244G12  H01J22960   0.056   4.004   5.296
  1244G12  O00H22961   0.007   3.810   5.296
  1244G12  H01I22962  -0.045   3.816   5.375
  1244G12  C02H22963   0.425   3.971   4.935
  1244G12  H01C22964   0.354   4.032   4.882
  1244G12  C02L22965   0.536   3.929   4.863
  1244G12  H01D22966   0.566   3.964   4.765
  1244G12  C01322967   0.983   3.790   4.388
  1244G12  H00022968   0.901   3.720   4.392
  1244G12  C01422969   1.054   3.818   4.270
  1244G12  C00F22970   1.022   3.767   4.142
  1244G12  C00H22971   1.162   3.933   4.037
  1244G12  C00I22972   1.218   3.998   3.927
  1244G12  C00J22973   1.325   4.092   3.945
  1244G12  C00Z22974   1.324   4.031   4.417
  1244G12  C00Y22975   1.374   4.068   4.540
  1244G12  H00622976   1.345   4.043   4.641
  1244G12  C00X22977   1.491   4.155   4.538
  1244G12  O00322978   1.529   4.217   4.652
  1244G12  C01B22979   1.428   4.255   4.743
  1244G12  H00922980   1.478   4.324   4.811
  1244G12  H00822981   1.400   4.172   4.808
  1244G12  H00722982   1.347   4.314   4.699
  1244G12  C00W22983   1.560   4.184   4.421
  1244G12  O00422984   1.686   4.238   4.436
  1244G12  C01C22985   1.767   4.219   4.326
  1244G12  H00A22986   1.873   4.223   4.351
  1244G12  C00P22987   1.720   4.214   4.192
  1244G12  C00O22988   1.821   4.192   4.084
  1244G12  C01D22989   1.964   4.185   4.109
  1244G12  H00S22990   2.007   4.205   4.206
  1244G12  C01E22991   2.058   4.125   4.014
  1244G12  O00822992   2.183   4.076   4.046
  1244G12  C01V22993   2.243   4.158   4.136
  1244G12  C01Z22994   2.319   4.273   4.066
  1244G12  H00R22995   2.292   4.280   3.961
  1244G12  H00Q22996   2.304   4.373   4.108
  1244G12  O00922997   2.450   4.231   4.073
  1244G12  H00P22998   2.456   4.150   4.025
  1244G12  C01W22999   2.246   4.137   4.268
  1244G12  H00O23000   2.194   4.054   4.314
  1244G12  C01X23001   2.297   4.228   4.383
  1244G12  H00N23002   2.352   4.175   4.461
  1244G12  H00M23003   2.359   4.302   4.333
  1244G12  C01Y23004   2.179   4.301   4.443
  1244G12  C02D23005   2.102   4.230   4.535
  1244G12  H01923006   2.135   4.129   4.549
  1244G12  C02C23007   1.992   4.285   4.601
  1244G12  H01A23008   1.938   4.218   4.666
  1244G12  C02B23009   1.968   4.420   4.578
  1244G12  O00E23010   1.867   4.477   4.645
  1244G12  H01B23011   1.858   4.566   4.613
  1244G12  C02F23012   2.042   4.491   4.486
  1244G12  O00F23013   1.989   4.615   4.474
  1244G12  C02G23014   2.064   4.711   4.398
  1244G12  H01723015   2.076   4.674   4.296
  1244G12  H01623016   2.166   4.726   4.434
  1244G12  H01523017   2.011   4.804   4.378
  1244G12  C02E23018   2.151   4.432   4.413
  1244G12  H01823019   2.204   4.489   4.337
  1244G12  C01F23020   2.013   4.085   3.886
  1244G12  C01G23021   2.069   3.985   3.791
  1244G12  H00L23022   2.158   3.926   3.809
  1244G12  C01H23023   1.997   3.956   3.674
  1244G12  H00B23024   2.023   3.873   3.610
  1244G12  C01I23025   1.870   4.026   3.640
  1244G12  C01U23026   1.887   4.140   3.849
  1244G12  C00S23027   1.370   4.126   4.069
  1244G12  C00K23028   1.430   4.109   3.849
  1244G12  C00N23029   1.791   4.178   3.948
  1244G12  C00023030   1.835   4.139   3.719
  1244G12  C01J23031   1.750   3.979   3.586
  1244G12  C01K23032   1.743   3.866   3.495
  1244G12  C01P23033   1.844   3.819   3.405
  1244G12  C01Q23034   1.952   3.906   3.365
  1244G12  H00G23035   2.057   3.881   3.368
  1244G12  C01R23036   1.919   4.026   3.326
  1244G12  H00F23037   1.814   4.051   3.326
  1244G12  C01S23038   2.013   4.144   3.295
  1244G12  H00E23039   2.105   4.105   3.251
  1244G12  H00D23040   1.977   4.202   3.210
  1244G12  O00523041   2.033   4.230   3.400
  1244G12  H00C23042   1.999   4.183   3.474
  1244G12  C01O23043   1.825   3.695   3.330
  1244G12  H00H23044   1.906   3.673   3.262
  1244G12  C01N23045   1.699   3.628   3.344
  1244G12  O00623046   1.663   3.510   3.281
  1244G12  C01T23047   1.767   3.431   3.225
  1244G12  H00K23048   1.735   3.333   3.189
  1244G12  H00J23049   1.844   3.407   3.299
  1244G12  H00I23050   1.809   3.496   3.149
  1244G12  C01M23051   1.604   3.677   3.434
  1244G12  C02023052   1.404   4.024   3.732
  1244G12  C02123053   1.281   3.957   3.701
  1244G12  C01L23054   1.619   3.799   3.512
  1244G12  O00723055   1.490   3.607   3.445
  1244G12  C02223056   1.280   3.835   3.632
  1244G12  C02323057   1.188   3.937   3.805
  1244G12  C00G23058   1.080   3.820   4.028
  1244G12  C00E23059   0.927   3.657   4.129
  1244G12  O00A23060   0.848   3.602   4.225
  1244G12  C02423061   0.902   3.488   4.289
  1244G12  H00V23062   0.979   3.519   4.359
  1244G12  H00U23063   0.937   3.411   4.220
  1244G12  H00T23064   0.822   3.454   4.355
  1254G12  C00D23065   3.118   5.226   5.483
  1254G12  O00B23066   3.013   5.313   5.494
  1254G12  C02523067   3.013   5.432   5.423
  1254G12  C02623068   2.912   5.432   5.306
  1254G12  H00Y23069   2.892   5.533   5.271
  1254G12  H00X23070   2.824   5.388   5.352
  1254G12  O00C23071   2.966   5.340   5.206
  1254G12  H00W23072   3.015   5.270   5.247
  1254G12  C02723073   3.090   5.534   5.466
  1254G12  O00D23074   3.166   5.521   5.579
  1254G12  H00Z23075   3.137   5.440   5.620
  1254G12  C02823076   3.114   5.646   5.380
  1254G12  C02923077   3.130   5.782   5.427
  1254G12  H01023078   3.122   5.802   5.533
  1254G12  C02T23079   3.163   5.894   5.348
  1254G12  H01O23080   3.177   5.991   5.393
  1254G12  C02S23081   3.186   5.866   5.213
  1254G12  O00J23082   3.213   5.971   5.128
  1254G12  H01P23083   3.198   5.934   5.042
  1254G12  C02R23084   3.169   5.740   5.164
  1254G12  O00I23085   3.176   5.733   5.028
  1254G12  C02Q23086   3.156   5.599   4.972
  1254G12  H01N23087   3.122   5.612   4.869
  1254G12  H01R23088   3.066   5.560   5.020
  1254G12  H01Q23089   3.244   5.536   4.988
  1254G12  C02A23090   3.141   5.632   5.244
  1254G12  H01123091   3.138   5.533   5.202
  1254G12  C00C23092   3.233   5.256   5.415
  1254G12  H01223093   3.238   5.349   5.360
  1254G12  C00B23094   3.339   5.160   5.416
  1254G12  C00A23095   3.463   5.172   5.345
  1254G12  C00923096   3.517   5.258   5.237
  1254G12  C00823097   3.453   5.349   5.151
  1254G12  H01323098   3.358   5.395   5.171
  1254G12  C00723099   3.519   5.366   5.023
  1254G12  H01423100   3.481   5.437   4.951
  1254G12  C00623101   3.637   5.295   4.978
  1254G12  C00523102   3.685   5.206   5.072
  1254G12  C00423103   3.787   5.116   5.031
  1254G12  C00323104   3.830   5.020   5.130
  1254G12  C00223105   3.920   4.922   5.076
  1254G12  C00123106   3.965   4.800   5.132
  1254G12  C00M23107   3.883   4.699   5.208
  1254G12  C00L23108   3.803   4.737   5.314
  1254G12  C00R23109   3.705   4.649   5.371
  1254G12  C00Q23110   3.662   4.511   5.347
  1254G12  C00V23111   3.546   4.479   5.423
  1254G12  C00U23112   3.465   4.571   5.488
  1254G12  C00T23113   3.494   4.706   5.483
  1254G12  C01623114   3.405   4.805   5.522
  1254G12  C01523115   3.278   4.771   5.576
  1254G12  C01023116   3.263   4.634   5.612
  1254G12  C01123117   3.157   4.600   5.704
  1254G12  H00523118   3.134   4.501   5.741
  1254G12  C01223119   3.075   4.700   5.754
  1254G12  C01723120   2.979   4.679   5.856
  1254G12  O00223121   2.853   4.648   5.815
  1254G12  H00423122   2.833   4.705   5.742
  1254G12  C01823123   3.024   4.677   5.990
  1254G12  O00123124   3.154   4.700   6.033
  1254G12  H00323125   3.162   4.669   6.122
  1254G12  C01923126   2.935   4.651   6.102
  1254G12  H00223127   2.890   4.750   6.108
  1254G12  H00123128   2.860   4.575   6.081
  1254G12  O00023129   3.014   4.632   6.214
  1254G12  C01A23130   2.966   4.703   6.318
  1254G12  C02K23131   2.839   4.674   6.375
  1254G12  O00G23132   2.782   4.560   6.332
  1254G12  C02M23133   2.771   4.453   6.425
  1254G12  H01G23134   2.792   4.493   6.524
  1254G12  H01F23135   2.847   4.383   6.391
  1254G12  H01E23136   2.669   4.418   6.437
  1254G12  C02J23137   2.767   4.761   6.460
  1254G12  H01H23138   2.676   4.717   6.499
  1254G12  C02I23139   2.822   4.887   6.499
  1254G12  C02N23140   2.743   4.982   6.576
  1254G12  H01M23141   2.763   5.088   6.564
  1254G12  C02O23142   2.632   4.941   6.650
  1254G12  H01L23143   2.600   4.838   6.645
  1254G12  C02P23144   2.546   5.041   6.722
  1254G12  H01K23145   2.531   5.009   6.826
  1254G12  H01J23146   2.601   5.133   6.741
  1254G12  O00H23147   2.433   5.057   6.649
  1254G12  H01I23148   2.453   5.100   6.567
  1254G12  C02H23149   2.946   4.918   6.442
  1254G12  H01C23150   2.996   5.012   6.458
  1254G12  C02L23151   3.020   4.821   6.365
  1254G12  H01D23152   3.121   4.854   6.345
  1254G12  C01323153   3.079   4.828   5.695
  1254G12  H00023154   3.004   4.898   5.727
  1254G12  C01423155   3.184   4.872   5.603
  1254G12  C00F23156   3.201   5.002   5.549
  1254G12  C00H23157   3.432   4.934   5.491
  1254G12  C00I23158   3.563   4.964   5.439
  1254G12  C00J23159   3.663   4.859   5.435
  1254G12  C00Z23160   3.355   4.539   5.564
  1254G12  C00Y23161   3.321   4.396   5.572
  1254G12  H00623162   3.227   4.376   5.620
  1254G12  C00X23163   3.397   4.302   5.500
  1254G12  O00323164   3.358   4.170   5.484
  1254G12  C01B23165   3.256   4.122   5.560
  1254G12  H00923166   3.278   4.120   5.666
  1254G12  H00823167   3.240   4.016   5.539
  1254G12  H00723168   3.159   4.171   5.545
  1254G12  C00W23169   3.504   4.345   5.421
  1254G12  O00423170   3.586   4.243   5.368
  1254G12  C01C23171   3.658   4.284   5.260
  1254G12  H00A23172   3.639   4.228   5.170
  1254G12  C00P23173   3.715   4.418   5.255
  1254G12  C00O23174   3.811   4.457   5.154
  1254G12  C01D23175   3.849   4.369   5.043
  1254G12  H00S23176   3.816   4.268   5.061
  1254G12  C01E23177   3.933   4.393   4.930
  1254G12  O00823178   3.953   4.296   4.833
  1254G12  C01V23179   3.943   4.161   4.879
  1254G12  C01Z23180   3.849   4.072   4.794
  1254G12  H00R23181   3.836   4.104   4.691
  1254G12  H00Q23182   3.908   3.981   4.786
  1254G12  O00923183   3.728   4.047   4.871
  1254G12  H00P23184   3.728   3.953   4.880
  1254G12  C01W23185   4.020   4.114   4.980
  1254G12  H00O23186   4.084   4.183   5.032
  1254G12  C01X23187   4.016   3.977   5.038
  1254G12  H00N23188   4.039   3.984   5.144
  1254G12  H00M23189   3.918   3.930   5.036
  1254G12  C01Y23190   4.112   3.872   4.980
  1254G12  C02D23191   4.075   3.734   4.962
  1254G12  H01923192   3.972   3.705   4.979
  1254G12  C02C23193   4.175   3.648   4.917
  1254G12  H01A23194   4.140   3.548   4.895
  1254G12  C02B23195   4.312   3.678   4.897
  1254G12  O00E23196   4.407   3.591   4.869
  1254G12  H01B23197   4.481   3.650   4.863
  1254G12  C02F23198   4.342   3.814   4.922
  1254G12  O00F23199   4.483   3.834   4.923
  1254G12  C02G23200   4.529   3.967   4.934
  1254G12  H01723201   4.474   4.025   4.860
  1254G12  H01623202   4.634   3.983   4.911
  1254G12  H01523203   4.509   4.020   5.026
  1254G12  C02E23204   4.248   3.908   4.962
  1254G12  H01823205   4.277   4.010   4.980
  1254G12  C01F23206   3.976   4.524   4.916
  1254G12  C01G23207   4.012   4.586   4.797
  1254G12  H00L23208   4.018   4.529   4.705
  1254G12  C01H23209   4.028   4.728   4.784
  1254G12  H00B23210   4.017   4.782   4.691
  1254G12  C01I23211   4.018   4.803   4.909
  1254G12  C01U23212   3.982   4.602   5.031
  1254G12  C00S23213   3.623   4.734   5.439
  1254G12  C00K23214   3.762   4.874   5.331
  1254G12  C00N23215   3.887   4.577   5.137
  1254G12  C00023216   4.029   4.737   5.032
  1254G12  C01J23217   3.960   4.929   4.942
  1254G12  C01K23218   3.957   5.041   4.859
  1254G12  C01P23219   4.036   5.081   4.743
  1254G12  C01Q23220   4.146   5.004   4.692
  1254G12  H00G23221   4.221   4.961   4.756
  1254G12  C01R23222   4.176   4.992   4.558
  1254G12  H00F23223   4.109   5.034   4.484
  1254G12  C01S23224   4.303   4.931   4.515
  1254G12  H00E23225   4.295   4.822   4.523
  1254G12  H00D23226   4.311   4.948   4.407
  1254G12  O00523227   4.415   4.987   4.587
  1254G12  H00C23228   4.412   5.081   4.575
  1254G12  C01O23229   3.993   5.200   4.678
  1254G12  H00H23230   4.051   5.244   4.599
  1254G12  C01N23231   3.886   5.282   4.712
  1254G12  O00623232   3.869   5.403   4.655
  1254G12  C01T23233   3.749   5.418   4.577
  1254G12  H00K23234   3.657   5.378   4.622
  1254G12  H00J23235   3.771   5.385   4.476
  1254G12  H00I23236   3.730   5.524   4.560
  1254G12  C01M23237   3.816   5.243   4.832
  1254G12  C02023238   3.763   4.997   5.256
  1254G12  C02123239   3.680   5.108   5.290
  1254G12  C01L23240   3.856   5.129   4.910
  1254G12  O00723241   3.709   5.326   4.868
  1254G12  C02223242   3.640   5.198   5.203
  1254G12  C02323243   3.566   5.083   5.372
  1254G12  C00G23244   3.324   5.030   5.483
  1254G12  C00E23245   3.097   5.106   5.552
  1254G12  O00A23246   2.979   5.082   5.616
  1254G12  C02423247   2.878   5.031   5.525
  1254G12  H00V23248   2.782   5.047   5.574
  1254G12  H00U23249   2.882   4.923   5.512
  1254G12  H00T23250   2.880   5.088   5.433
  1264G12  C00D23251   6.037   0.430   6.715
  1264G12  O00B23252   6.072   0.568   6.705
  1264G12  C02523253   6.180   0.619   6.782
  1264G12  C02623254   6.122   0.721   6.880
  1264G12  H00Y23255   6.192   0.787   6.930
  1264G12  H00X23256   6.064   0.675   6.960
  1264G12  O00C23257   6.035   0.804   6.812
  1264G12  H00W23258   6.100   0.845   6.757
  1264G12  C02723259   6.307   0.583   6.763
  1264G12  O00D23260   6.341   0.505   6.654
  1264G12  H00Z23261   6.252   0.491   6.624
  1264G12  C02823262   6.408   0.605   6.861
  1264G12  C02923263   6.383   0.606   7.005
  1264G12  H01023264   6.284   0.611   7.050
  1264G12  C02T23265   6.488   0.597   7.085
  1264G12  H01O23266   6.469   0.595   7.192
  1264G12  C02S23267   6.619   0.606   7.040
  1264G12  O00J23268   6.720   0.593   7.133
  1264G12  H01P23269   6.798   0.605   7.081
  1264G12  C02R23270   6.644   0.609   6.903
  1264G12  O00I23271   6.779   0.615   6.864
  1264G12  C02Q23272   6.800   0.622   6.730
  1264G12  H01N23273   6.765   0.533   6.678
  1264G12  H01R23274   6.908   0.614   6.722
  1264G12  H01Q23275   6.774   0.714   6.678
  1264G12  C02A23276   6.537   0.610   6.813
  1264G12  H01123277   6.548   0.609   6.706
  1264G12  C00C23278   6.095   0.347   6.816
  1264G12  H01223279   6.158   0.394   6.890
  1264G12  C00B23280   6.051   0.218   6.827
  1264G12  C00A23281   6.109   0.126   6.919
  1264G12  C00923282   6.245   0.122   6.966
  1264G12  C00823283   6.361   0.204   6.963
  1264G12  H01323284   6.342   0.303   6.924
  1264G12  C00723285   6.486   0.151   6.994
  1264G12  H01423286   6.572   0.216   6.994
  1264G12  C00623287   6.506   0.014   7.026
  1264G12  C00523288   6.391  -0.065   7.027
  1264G12  C00423289   6.393  -0.206   7.024
  1264G12  C00323290   6.270  -0.281   6.996
  1264G12  C00223291   6.294  -0.424   6.980
  1264G12  C00123292   6.200  -0.542   6.957
  1264G12  C00M23293   6.088  -0.533   6.863
  1264G12  C00L23294   5.999  -0.421   6.857
  1264G12  C00R23295   5.908  -0.388   6.750
  1264G12  C00Q23296   5.875  -0.462   6.631
  1264G12  C00V23297   5.783  -0.390   6.550
  1264G12  C00U23298   5.758  -0.252   6.564
  1264G12  C00T23299   5.817  -0.181   6.663
  1264G12  C01623300   5.827  -0.040   6.667
  1264G12  C01523301   5.779   0.035   6.562
  1264G12  C01023302   5.707  -0.035   6.465
  1264G12  C01123303   5.650   0.039   6.356
  1264G12  H00523304   5.584   0.003   6.278
  1264G12  C01223305   5.680   0.174   6.344
  1264G12  C01723306   5.651   0.253   6.226
  1264G12  O00223307   5.617   0.387   6.240
  1264G12  H00423308   5.583   0.421   6.158
  1264G12  C01823309   5.649   0.203   6.101
  1264G12  O00123310   5.692   0.074   6.075
  1264G12  H00323311   5.690   0.020   6.152
  1264G12  C01923312   5.602   0.279   5.975
  1264G12  H00223313   5.698   0.292   5.925
  1264G12  H00123314   5.543   0.218   5.906
  1264G12  O00023315   5.533   0.405   5.992
  1264G12  C01A23316   5.544   0.500   5.897
  1264G12  C02K23317   5.505   0.625   5.936
  1264G12  O00G23318   5.468   0.662   6.062
  1264G12  C02M23319   5.328   0.650   6.079
  1264G12  H01G23320   5.296   0.666   6.182
  1264G12  H01F23321   5.304   0.547   6.053
  1264G12  H01E23322   5.274   0.724   6.020
  1264G12  C02J23323   5.521   0.729   5.841
  1264G12  H01H23324   5.491   0.831   5.860
  1264G12  C02I23325   5.593   0.711   5.719
  1264G12  C02N23326   5.631   0.816   5.634
  1264G12  H01M23327   5.624   0.800   5.528
  1264G12  C02O23328   5.682   0.931   5.685
  1264G12  H01L23329   5.677   0.944   5.792
  1264G12  C02P23330   5.725   1.047   5.603
  1264G12  H01K23331   5.819   1.094   5.634
  1264G12  H01J23332   5.739   1.024   5.498
  1264G12  O00H23333   5.624   1.140   5.619
  1264G12  H01I23334   5.624   1.177   5.706
  1264G12  C02H23335   5.602   0.581   5.677
  1264G12  H01C23336   5.632   0.577   5.573
  1264G12  C02L23337   5.592   0.467   5.766
  1264G12  H01D23338   5.611   0.366   5.733
  1264G12  C01323339   5.743   0.244   6.456
  1264G12  H00023340   5.737   0.352   6.458
  1264G12  C01423341   5.804   0.173   6.560
  1264G12  C00F23342   5.895   0.231   6.646
  1264G12  C00H23343   5.910   0.019   6.763
  1264G12  C00I23344   5.955  -0.061   6.876
  1264G12  C00J23345   5.934  -0.200   6.867
  1264G12  C00Z23346   5.685  -0.177   6.470
  1264G12  C00Y23347   5.617  -0.248   6.368
  1264G12  H00623348   5.558  -0.202   6.290
  1264G12  C00X23349   5.624  -0.388   6.361
  1264G12  O00323350   5.569  -0.458   6.256
  1264G12  C01B23351   5.472  -0.560   6.296
  1264G12  H00923352   5.442  -0.618   6.209
  1264G12  H00823353   5.381  -0.520   6.341
  1264G12  H00723354   5.519  -0.635   6.360
  1264G12  C00W23355   5.708  -0.458   6.451
  1264G12  O00423356   5.731  -0.596   6.430
  1264G12  C01C23357   5.845  -0.655   6.480
  1264G12  H00A23358   5.873  -0.751   6.440
  1264G12  C00P23359   5.924  -0.590   6.584
  1264G12  C00O23360   6.055  -0.640   6.627
  1264G12  C01D23361   6.133  -0.711   6.531
  1264G12  H00S23362   6.089  -0.717   6.433
  1264G12  C01E23363   6.265  -0.757   6.558
  1264G12  O00823364   6.347  -0.823   6.465
  1264G12  C01V23365   6.333  -0.766   6.339
  1264G12  C01Z23366   6.393  -0.626   6.323
  1264G12  H00R23367   6.437  -0.620   6.224
  1264G12  H00Q23368   6.319  -0.546   6.334
  1264G12  O00923369   6.509  -0.613   6.398
  1264G12  H00P23370   6.486  -0.613   6.490
  1264G12  C01W23371   6.268  -0.830   6.239
  1264G12  H00O23372   6.226  -0.928   6.256
  1264G12  C01X23373   6.247  -0.775   6.094
  1264G12  H00N23374   6.327  -0.719   6.045
  1264G12  H00M23375   6.229  -0.866   6.036
  1264G12  C01Y23376   6.123  -0.691   6.112
  1264G12  C02D23377   6.143  -0.551   6.133
  1264G12  H01923378   6.238  -0.504   6.151
  1264G12  C02C23379   6.038  -0.463   6.129
  1264G12  H01A23380   6.053  -0.356   6.136
  1264G12  C02B23381   5.902  -0.510   6.114
  1264G12  O00E23382   5.797  -0.426   6.091
  1264G12  H01B23383   5.723  -0.460   6.139
  1264G12  C02F23384   5.883  -0.648   6.103
  1264G12  O00F23385   5.756  -0.686   6.073
  1264G12  C02G23386   5.722  -0.826   6.054
  1264G12  H01723387   5.786  -0.871   5.978
  1264G12  H01623388   5.621  -0.841   6.016
  1264G12  H01523389   5.740  -0.877   6.148
  1264G12  C02E23390   5.989  -0.742   6.107
  1264G12  H01823391   5.972  -0.849   6.104
  1264G12  C01F23392   6.319  -0.733   6.686
  1264G12  C01G23393   6.459  -0.718   6.710
  1264G12  H00L23394   6.538  -0.746   6.641
  1264G12  C01H23395   6.511  -0.648   6.821
  1264G12  H00B23396   6.615  -0.620   6.816
  1264G12  C01I23397   6.420  -0.607   6.922
  1264G12  C01U23398   6.231  -0.693   6.787
  1264G12  C00S23399   5.860  -0.260   6.769
  1264G12  C00K23400   6.030  -0.292   6.915
  1264G12  C00N23401   6.114  -0.623   6.752
  1264G12  C00023402   6.279  -0.645   6.909
  1264G12  C01J23403   6.425  -0.481   6.993
  1264G12  C01K23404   6.542  -0.407   7.020
  1264G12  C01P23405   6.675  -0.460   7.038
  1264G12  C01Q23406   6.708  -0.604   7.030
  1264G12  H00G23407   6.637  -0.681   7.059
  1264G12  C01R23408   6.822  -0.642   6.972
  1264G12  H00F23409   6.892  -0.566   6.939
  1264G12  C01S23410   6.844  -0.792   6.941
  1264G12  H00E23411   6.951  -0.804   6.959
  1264G12  H00D23412   6.788  -0.855   7.010
  1264G12  O00523413   6.802  -0.814   6.806
  1264G12  H00C23414   6.809  -0.908   6.795
  1264G12  C01O23415   6.783  -0.374   7.066
  1264G12  H00H23416   6.887  -0.391   7.088
  1264G12  C01N23417   6.760  -0.234   7.072
  1264G12  O00623418   6.873  -0.161   7.093
  1264G12  C01T23419   6.890  -0.118   7.228
  1264G12  H00K23420   6.981  -0.059   7.222
  1264G12  H00J23421   6.909  -0.203   7.293
  1264G12  H00I23422   6.800  -0.061   7.250
  1264G12  C01M23423   6.636  -0.178   7.052
  1264G12  C02023424   6.139  -0.225   6.981
  1264G12  C02123425   6.148  -0.085   7.003
  1264G12  C01L23426   6.521  -0.265   7.032
  1264G12  O00723427   6.625  -0.042   7.063
  1264G12  C02223428   6.264  -0.010   7.015
  1264G12  C02323429   6.050  -0.000   6.949
  1264G12  C00G23430   5.953   0.156   6.747
  1264G12  C00E23431   5.945   0.367   6.629
  1264G12  O00A23432   5.925   0.440   6.515
  1264G12  C02423433   6.035   0.409   6.426
  1264G12  H00V23434   6.036   0.469   6.335
  1264G12  H00U23435   6.029   0.302   6.406
  1264G12  H00T23436   6.136   0.428   6.463
  1274G12  C00D23437   6.271   6.777   8.807
  1274G12  O00B23438   6.187   6.867   8.742
  1274G12  C02523439   6.105   6.817   8.642
  1274G12  C02623440   5.969   6.763   8.685
  1274G12  H00Y23441   5.902   6.787   8.602
  1274G12  H00X23442   5.928   6.807   8.776
  1274G12  O00C23443   5.965   6.613   8.679
  1274G12  H00W23444   5.898   6.580   8.736
  1274G12  C02723445   6.139   6.842   8.511
  1274G12  O00D23446   6.260   6.893   8.484
  1274G12  H00Z23447   6.300   6.926   8.563
  1274G12  C02823448   6.051   6.812   8.398
  1274G12  C02923449   6.003   6.908   8.318
  1274G12  H01023450   6.036   7.009   8.333
  1274G12  C02T23451   5.911   6.876   8.210
  1274G12  H01O23452   5.881   6.957   8.145
  1274G12  C02S23453   5.856   6.749   8.193
  1274G12  O00J23454   5.766   6.713   8.094
  1274G12  H01P23455   5.760   6.620   8.108
  1274G12  C02R23456   5.907   6.650   8.276
  1274G12  O00I23457   5.862   6.526   8.244
  1274G12  C02Q23458   5.904   6.411   8.328
  1274G12  H01N23459   5.873   6.326   8.267
  1274G12  H01R23460   5.859   6.403   8.427
  1274G12  H01Q23461   6.012   6.402   8.337
  1274G12  C02A23462   6.001   6.680   8.377
  1274G12  H01123463   6.040   6.592   8.427
  1274G12  C00C23464   6.294   6.642   8.778
  1274G12  H01223465   6.244   6.592   8.697
  1274G12  C00B23466   6.379   6.560   8.859
  1274G12  C00A23467   6.393   6.417   8.841
  1274G12  C00923468   6.302   6.321   8.789
  1274G12  C00823469   6.173   6.327   8.724
  1274G12  H01323470   6.142   6.416   8.671
  1274G12  C00723471   6.078   6.220   8.747
  1274G12  H01423472   5.976   6.228   8.715
  1274G12  C00623473   6.113   6.109   8.827
  1274G12  C00523474   6.244   6.107   8.886
  1274G12  C00423475   6.278   6.019   8.990
  1274G12  C00323476   6.395   6.037   9.073
  1274G12  C00223477   6.411   5.946   9.184
  1274G12  C00123478   6.504   5.937   9.297
  1274G12  C00M23479   6.551   6.053   9.371
  1274G12  C00L23480   6.589   6.172   9.305
  1274G12  C00R23481   6.604   6.296   9.370
  1274G12  C00Q23482   6.584   6.337   9.506
  1274G12  C00V23483   6.594   6.480   9.522
  1274G12  C00U23484   6.609   6.568   9.417
  1274G12  C00T23485   6.603   6.528   9.291
  1274G12  C01623486   6.560   6.601   9.179
  1274G12  C01523487   6.559   6.738   9.189
  1274G12  C01023488   6.587   6.788   9.314
  1274G12  C01123489   6.597   6.925   9.325
  1274G12  H00523490   6.612   6.980   9.417
  1274G12  C01223491   6.579   7.014   9.215
  1274G12  C01723492   6.608   7.159   9.219
  1274G12  O00223493   6.543   7.248   9.137
  1274G12  H00423494   6.608   7.314   9.118
  1274G12  C01823495   6.706   7.204   9.299
  1274G12  O00123496   6.797   7.137   9.373
  1274G12  H00323497   6.792   7.044   9.357
  1274G12  C01923498   6.732   7.355   9.303
  1274G12  H00223499   6.635   7.398   9.332
  1274G12  H00123500   6.801   7.393   9.378
  1274G12  O00023501   6.777   7.394   9.168
  1274G12  C01A23502   6.746   7.520   9.134
  1274G12  C02K23503   6.648   7.539   9.030
  1274G12  O00G23504   6.625   7.436   8.950
  1274G12  C02M23505   6.669   7.441   8.814
  1274G12  H01G23506   6.775   7.464   8.825
  1274G12  H01F23507   6.619   7.520   8.757
  1274G12  H01E23508   6.659   7.345   8.764
  1274G12  C02J23509   6.598   7.667   9.004
  1274G12  H01H23510   6.535   7.676   8.917
  1274G12  C02I23511   6.632   7.779   9.087
  1274G12  C02N23512   6.572   7.908   9.091
  1274G12  H01M23513   6.626   7.987   9.142
  1274G12  C02O23514   6.465   7.939   9.015
  1274G12  H01L23515   6.419   7.851   8.973
  1274G12  C02P23516   6.386   8.064   9.004
  1274G12  H01K23517   6.391   8.096   8.900
  1274G12  H01J23518   6.285   8.044   9.039
  1274G12  O00H23519   6.435   8.163   9.083
  1274G12  H01I23520   6.403   8.242   9.043
  1274G12  C02H23521   6.738   7.759   9.180
  1274G12  H01C23522   6.777   7.837   9.244
  1274G12  C02L23523   6.790   7.632   9.208
  1274G12  H01D23524   6.854   7.612   9.292
  1274G12  C01323525   6.523   6.960   9.098
  1274G12  H00023526   6.496   7.027   9.017
  1274G12  C01423527   6.511   6.819   9.087
  1274G12  C00F23528   6.435   6.757   8.984
  1274G12  C00H23529   6.521   6.542   9.059
  1274G12  C00I23530   6.542   6.411   9.040
  1274G12  C00J23531   6.587   6.335   9.148
  1274G12  C00Z23532   6.600   6.706   9.427
  1274G12  C00Y23533   6.591   6.758   9.561
  1274G12  H00623534   6.571   6.862   9.583
  1274G12  C00X23535   6.588   6.670   9.678
  1274G12  O00323536   6.602   6.718   9.810
  1274G12  C01B23537   6.660   6.847   9.821
  1274G12  H00923538   6.583   6.923   9.810
  1274G12  H00823539   6.738   6.869   9.749
  1274G12  H00723540   6.690   6.857   9.925
  1274G12  C00W23541   6.589   6.531   9.656
  1274G12  O00423542   6.588   6.451   9.762
  1274G12  C01C23543   6.574   6.316   9.747
  1274G12  H00A23544   6.602   6.246   9.824
  1274G12  C00P23545   6.547   6.261   9.617
  1274G12  C00O23546   6.488   6.136   9.607
  1274G12  C01D23547   6.417   6.085   9.721
  1274G12  H00S23548   6.413   6.136   9.816
  1274G12  C01E23549   6.318   5.974   9.712
  1274G12  O00823550   6.233   5.954   9.814
  1274G12  C01V23551   6.099   5.993   9.802
  1274G12  C01Z23552   6.002   5.893   9.869
  1274G12  H00R23553   5.933   5.868   9.788
  1274G12  H00Q23554   6.042   5.799   9.905
  1274G12  O00923555   5.930   5.956   9.971
  1274G12  H00P23556   5.999   5.970  10.035
  1274G12  C01W23557   6.061   6.087   9.715
  1274G12  H00O23558   6.139   6.150   9.672
  1274G12  C01X23559   5.916   6.132   9.695
  1274G12  H00N23560   5.854   6.105   9.781
  1274G12  H00M23561   5.914   6.241   9.706
  1274G12  C01Y23562   5.862   6.088   9.563
  1274G12  C02D23563   5.761   5.988   9.554
  1274G12  H01923564   5.720   5.948   9.646
  1274G12  C02C23565   5.710   5.941   9.432
  1274G12  H01A23566   5.630   5.869   9.425
  1274G12  C02B23567   5.772   5.981   9.316
  1274G12  O00E23568   5.761   5.902   9.209
  1274G12  H01B23569   5.808   5.949   9.142
  1274G12  C02F23570   5.873   6.080   9.310
  1274G12  O00F23571   5.918   6.116   9.186
  1274G12  C02G23572   6.003   6.229   9.184
  1274G12  H01723573   6.093   6.197   9.237
  1274G12  H01623574   5.960   6.321   9.223
  1274G12  H01523575   6.029   6.237   9.078
  1274G12  C02E23576   5.919   6.132   9.440
  1274G12  H01823577   6.002   6.201   9.433
  1274G12  C01F23578   6.328   5.891   9.596
  1274G12  C01G23579   6.232   5.792   9.560
  1274G12  H00L23580   6.148   5.769   9.624
  1274G12  C01H23581   6.227   5.741   9.422
  1274G12  H00B23582   6.137   5.698   9.381
  1274G12  C01I23583   6.333   5.784   9.333
  1274G12  C01U23584   6.436   5.912   9.506
  1274G12  C00S23585   6.615   6.390   9.271
  1274G12  C00K23586   6.561   6.197   9.166
  1274G12  C00N23587   6.493   6.041   9.504
  1274G12  C00023588   6.448   5.846   9.383
  1274G12  C01J23589   6.323   5.834   9.197
  1274G12  C01K23590   6.209   5.816   9.117
  1274G12  C01P23591   6.128   5.693   9.113
  1274G12  C01Q23592   6.188   5.574   9.164
  1274G12  H00G23593   6.295   5.562   9.175
  1274G12  C01R23594   6.107   5.483   9.217
  1274G12  H00F23595   6.003   5.502   9.239
  1274G12  C01S23596   6.159   5.348   9.265
  1274G12  H00E23597   6.157   5.364   9.373
  1274G12  H00D23598   6.079   5.278   9.243
  1274G12  O00523599   6.273   5.299   9.198
  1274G12  H00C23600   6.249   5.271   9.112
  1274G12  C01O23601   6.006   5.698   9.046
  1274G12  H00H23602   5.938   5.614   9.044
  1274G12  C01N23603   5.967   5.804   8.960
  1274G12  O00623604   5.854   5.792   8.886
  1274G12  C01T23605   5.882   5.763   8.752
  1274G12  H00K23606   5.796   5.750   8.686
  1274G12  H00J23607   5.939   5.672   8.737
  1274G12  H00I23608   5.930   5.845   8.698
  1274G12  C01M23609   6.063   5.911   8.943
  1274G12  C02023610   6.477   6.147   9.061
  1274G12  C02123611   6.449   6.216   8.939
  1274G12  C01L23612   6.185   5.916   9.014
  1274G12  O00723613   6.027   6.011   8.855
  1274G12  C02223614   6.344   6.199   8.849
  1274G12  C02323615   6.491   6.352   8.920
  1274G12  C00G23616   6.452   6.621   8.964
  1274G12  C00E23617   6.337   6.833   8.917
  1274G12  O00A23618   6.290   6.956   8.953
  1274G12  C02423619   6.185   6.950   9.050
  1274G12  H00V23620   6.224   6.917   9.146
  1274G12  H00U23621   6.097   6.889   9.030
  1274G12  H00T23622   6.153   7.055   9.047
  1284G12  C00D23623   0.772   5.140   3.690
  1284G12  O00B23624   0.787   5.003   3.664
  1284G12  C02523625   0.816   4.954   3.536
  1284G12  C02623626   0.705   4.894   3.454
  1284G12  H00Y23627   0.734   4.867   3.352
  1284G12  H00X23628   0.622   4.965   3.444
  1284G12  O00C23629   0.671   4.776   3.525
  1284G12  H00W23630   0.678   4.800   3.616
  1284G12  C02723631   0.939   4.979   3.491
  1284G12  O00D23632   1.027   5.040   3.572
  1284G12  H00Z23633   0.974   5.047   3.650
  1284G12  C02823634   0.991   4.913   3.373
  1284G12  C02923635   1.056   4.983   3.270
  1284G12  H01023636   1.056   5.091   3.265
  1284G12  C02T23637   1.116   4.917   3.161
  1284G12  H01O23638   1.176   4.968   3.087
  1284G12  C02S23639   1.105   4.778   3.146
  1284G12  O00J23640   1.166   4.706   3.047
  1284G12  H01P23641   1.145   4.621   3.082
  1284G12  C02R23642   1.033   4.705   3.254
  1284G12  O00I23643   1.023   4.570   3.227
  1284G12  C02Q23644   0.967   4.485   3.322
  1284G12  H01N23645   0.876   4.529   3.364
  1284G12  H01R23646   1.026   4.463   3.411
  1284G12  H01Q23647   0.951   4.391   3.269
  1284G12  C02A23648   0.985   4.774   3.367
  1284G12  H01123649   0.941   4.724   3.452
  1284G12  C00C23650   0.791   5.239   3.595
  1284G12  H01223651   0.819   5.212   3.494
  1284G12  C00B23652   0.757   5.373   3.618
  1284G12  C00A23653   0.756   5.489   3.525
  1284G12  C00923654   0.826   5.507   3.396
  1284G12  C00823655   0.925   5.422   3.333
  1284G12  H01323656   0.931   5.315   3.351
  1284G12  C00723657   1.028   5.483   3.254
  1284G12  H01423658   1.104   5.416   3.218
  1284G12  C00623659   1.039   5.630   3.248
  1284G12  C00523660   0.940   5.704   3.313
  1284G12  C00423661   0.956   5.842   3.338
  1284G12  C00323662   0.875   5.912   3.432
  1284G12  C00223663   0.905   6.053   3.453
  1284G12  C00123664   0.868   6.149   3.558
  1284G12  C00M23665   0.874   6.112   3.696
  1284G12  C00L23666   0.821   5.995   3.744
  1284G12  C00R23667   0.823   5.943   3.882
  1284G12  C00Q23668   0.888   5.985   4.002
  1284G12  C00V23669   0.874   5.890   4.104
  1284G12  C00U23670   0.824   5.757   4.086
  1284G12  C00T23671   0.782   5.717   3.967
  1284G12  C01623672   0.753   5.583   3.930
  1284G12  C01523673   0.760   5.484   4.025
  1284G12  C01023674   0.786   5.525   4.156
  1284G12  C01123675   0.790   5.426   4.262
  1284G12  H00523676   0.797   5.446   4.368
  1284G12  C01223677   0.778   5.291   4.230
  1284G12  C01723678   0.791   5.181   4.329
  1284G12  O00223679   0.688   5.087   4.324
  1284G12  H00423680   0.710   5.019   4.386
  1284G12  C01823681   0.879   5.177   4.430
  1284G12  O00123682   0.972   5.276   4.440
  1284G12  H00323683   0.983   5.330   4.363
  1284G12  C01923684   0.872   5.077   4.548
  1284G12  H00223685   0.971   5.034   4.566
  1284G12  H00123686   0.840   5.127   4.639
  1284G12  O00023687   0.781   4.970   4.521
  1284G12  C01A23688   0.709   4.929   4.624
  1284G12  C02K23689   0.580   4.884   4.609
  1284G12  O00G23690   0.541   4.874   4.475
  1284G12  C02M23691   0.405   4.848   4.447
  1284G12  H01G23692   0.376   4.766   4.514
  1284G12  H01F23693   0.390   4.812   4.345
  1284G12  H01E23694   0.345   4.933   4.479
  1284G12  C02J23695   0.495   4.856   4.719
  1284G12  H01H23696   0.395   4.821   4.697
  1284G12  C02I23697   0.536   4.868   4.852
  1284G12  C02N23698   0.446   4.854   4.967
  1284G12  H01M23699   0.478   4.878   5.067
  1284G12  C02O23700   0.314   4.841   4.949
  1284G12  H01L23701   0.274   4.817   4.852
  1284G12  C02P23702   0.216   4.849   5.063
  1284G12  H01K23703   0.265   4.881   5.155
  1284G12  H01J23704   0.148   4.932   5.044
  1284G12  O00H23705   0.151   4.726   5.077
  1284G12  H01I23706   0.208   4.669   5.127
  1284G12  C02H23707   0.678   4.898   4.871
  1284G12  H01C23708   0.722   4.904   4.969
  1284G12  C02L23709   0.760   4.925   4.756
  1284G12  H01D23710   0.863   4.953   4.777
  1284G12  C01323711   0.757   5.257   4.098
  1284G12  H00023712   0.772   5.152   4.080
  1284G12  C01423713   0.739   5.355   3.991
  1284G12  C00F23714   0.727   5.314   3.857
  1284G12  C00H23715   0.735   5.549   3.793
  1284G12  C00I23716   0.715   5.653   3.699
  1284G12  C00J23717   0.722   5.787   3.745
  1284G12  C00Z23718   0.825   5.661   4.187
  1284G12  C00Y23719   0.858   5.709   4.316
  1284G12  H00623720   0.835   5.646   4.401
  1284G12  C00X23721   0.907   5.837   4.337
  1284G12  O00323722   0.942   5.885   4.462
  1284G12  C01B23723   0.826   5.921   4.537
  1284G12  H00923724   0.777   6.007   4.490
  1284G12  H00823725   0.851   5.961   4.635
  1284G12  H00723726   0.748   5.846   4.550
  1284G12  C00W23727   0.925   5.926   4.229
  1284G12  O00423728   0.972   6.053   4.256
  1284G12  C01C23729   1.020   6.127   4.147
  1284G12  H00A23730   1.021   6.233   4.168
  1284G12  C00P23731   0.975   6.095   4.015
  1284G12  C00O23732   1.009   6.189   3.908
  1284G12  C01D23733   1.126   6.270   3.925
  1284G12  H00S23734   1.177   6.259   4.019
  1284G12  C01E23735   1.189   6.347   3.823
  1284G12  O00823736   1.308   6.416   3.839
  1284G12  C01V23737   1.342   6.454   3.969
  1284G12  C01Z23738   1.271   6.576   4.015
  1284G12  H00R23739   1.341   6.644   4.062
  1284G12  H00Q23740   1.234   6.642   3.936
  1284G12  O00923741   1.166   6.558   4.106
  1284G12  H00P23742   1.111   6.491   4.070
  1284G12  C01W23743   1.431   6.385   4.049
  1284G12  H00O23744   1.474   6.299   3.999
  1284G12  C01X23745   1.462   6.424   4.196
  1284G12  H00N23746   1.560   6.381   4.214
  1284G12  H00M23747   1.467   6.529   4.224
  1284G12  C01Y23748   1.367   6.341   4.276
  1284G12  C02D23749   1.273   6.402   4.362
  1284G12  H01923750   1.269   6.510   4.368
  1284G12  C02C23751   1.183   6.325   4.436
  1284G12  H01A23752   1.114   6.368   4.507
  1284G12  C02B23753   1.182   6.187   4.428
  1284G12  O00E23754   1.093   6.123   4.505
  1284G12  H01B23755   1.078   6.030   4.495
  1284G12  C02F23756   1.272   6.124   4.343
  1284G12  O00F23757   1.272   5.989   4.336
  1284G12  C02G23758   1.354   5.925   4.241
  1284G12  H01723759   1.323   5.939   4.138
  1284G12  H01623760   1.355   5.818   4.261
  1284G12  H01523761   1.458   5.950   4.264
  1284G12  C02E23762   1.361   6.201   4.267
  1284G12  H01823763   1.432   6.148   4.205
  1284G12  C01F23764   1.137   6.334   3.693
  1284G12  C01G23765   1.219   6.353   3.575
  1284G12  H00L23766   1.315   6.395   3.601
  1284G12  C01H23767   1.175   6.305   3.448
  1284G12  H00B23768   1.252   6.299   3.373
  1284G12  C01I23769   1.051   6.237   3.445
  1284G12  C01U23770   1.006   6.291   3.668
  1284G12  C00S23771   0.758   5.816   3.877
  1284G12  C00K23772   0.773   5.891   3.659
  1284G12  C00N23773   0.962   6.200   3.772
  1284G12  C00023774   0.954   6.260   3.545
  1284G12  C01J23775   1.016   6.111   3.382
  1284G12  C01K23776   1.084   6.050   3.271
  1284G12  C01P23777   1.176   6.103   3.179
  1284G12  C01Q23778   1.171   6.244   3.149
  1284G12  H00G23779   1.086   6.310   3.158
  1284G12  C01R23780   1.282   6.300   3.095
  1284G12  H00F23781   1.372   6.239   3.095
  1284G12  C01S23782   1.288   6.441   3.054
  1284G12  H00E23783   1.317   6.469   2.953
  1284G12  H00D23784   1.194   6.493   3.071
  1284G12  O00523785   1.393   6.504   3.125
  1284G12  H00C23786   1.372   6.596   3.133
  1284G12  C01O23787   1.255   6.017   3.096
  1284G12  H00H23788   1.315   6.054   3.013
  1284G12  C01N23789   1.249   5.879   3.104
  1284G12  O00623790   1.320   5.795   3.023
  1284G12  C01T23791   1.456   5.825   2.996
  1284G12  H00K23792   1.509   5.735   2.968
  1284G12  H00J23793   1.517   5.875   3.071
  1284G12  H00I23794   1.465   5.886   2.906
  1284G12  C01M23795   1.147   5.827   3.185
  1284G12  C02023796   0.790   5.844   3.521
  1284G12  C02123797   0.746   5.719   3.468
  1284G12  C01L23798   1.060   5.909   3.268
  1284G12  O00723799   1.139   5.694   3.181
  1284G12  C02223800   0.819   5.648   3.366
  1284G12  C02323801   0.713   5.618   3.561
  1284G12  C00G23802   0.734   5.411   3.756
  1284G12  C00E23803   0.730   5.181   3.817
  1284G12  O00A23804   0.682   5.085   3.895
  1284G12  C02423805   0.546   5.082   3.910
  1284G12  H00V23806   0.504   4.996   3.962
  1284G12  H00U23807   0.502   5.072   3.811
  1284G12  H00T23808   0.505   5.175   3.947
  1294G12  C00D23809   3.446   1.319   7.022
  1294G12  O00B23810   3.398   1.410   6.927
  1294G12  C02523811   3.411   1.359   6.792
  1294G12  C02623812   3.280   1.330   6.729
  1294G12  H00Y23813   3.291   1.290   6.628
  1294G12  H00X23814   3.236   1.429   6.713
  1294G12  O00C23815   3.206   1.235   6.800
  1294G12  H00W23816   3.164   1.274   6.875
  1294G12  C02723817   3.538   1.348   6.739
  1294G12  O00D23818   3.647   1.390   6.809
  1294G12  H00Z23819   3.621   1.441   6.885
  1294G12  C02823820   3.559   1.272   6.620
  1294G12  C02923821   3.546   1.127   6.619
  1294G12  H01023822   3.520   1.090   6.717
  1294G12  C02T23823   3.577   1.049   6.507
  1294G12  H01O23824   3.562   0.942   6.516
  1294G12  C02S23825   3.621   1.110   6.392
  1294G12  O00J23826   3.636   1.039   6.278
  1294G12  H01P23827   3.685   1.089   6.214
  1294G12  C02R23828   3.655   1.246   6.389
  1294G12  O00I23829   3.720   1.293   6.273
  1294G12  C02Q23830   3.770   1.429   6.287
  1294G12  H01N23831   3.844   1.445   6.208
  1294G12  H01R23832   3.828   1.443   6.379
  1294G12  H01Q23833   3.686   1.496   6.272
  1294G12  C02A23834   3.615   1.331   6.503
  1294G12  H01123835   3.640   1.436   6.501
  1294G12  C00C23836   3.442   1.177   7.019
  1294G12  H01223837   3.404   1.136   6.927
  1294G12  C00B23838   3.493   1.093   7.122
  1294G12  C00A23839   3.496   0.949   7.133
  1294G12  C00923840   3.407   0.857   7.072
  1294G12  C00823841   3.294   0.877   6.988
  1294G12  H01323842   3.270   0.969   6.937
  1294G12  C00723843   3.202   0.766   6.985
  1294G12  H01423844   3.119   0.773   6.916
  1294G12  C00623845   3.204   0.661   7.079
  1294G12  C00523846   3.313   0.658   7.166
  1294G12  C00423847   3.315   0.575   7.280
  1294G12  C00323848   3.406   0.597   7.382
  1294G12  C00223849   3.389   0.520   7.503
  1294G12  C00123850   3.465   0.515   7.626
  1294G12  C00M23851   3.509   0.635   7.705
  1294G12  C00L23852   3.569   0.741   7.639
  1294G12  C00R23853   3.600   0.867   7.694
  1294G12  C00Q23854   3.581   0.926   7.821
  1294G12  C00V23855   3.614   1.064   7.829
  1294G12  C00U23856   3.641   1.144   7.713
  1294G12  C00T23857   3.633   1.088   7.590
  1294G12  C01623858   3.619   1.153   7.470
  1294G12  C01523859   3.634   1.289   7.471
  1294G12  C01023860   3.672   1.351   7.593
  1294G12  C01123861   3.714   1.484   7.592
  1294G12  H00523862   3.764   1.523   7.680
  1294G12  C01223863   3.724   1.557   7.469
  1294G12  C01723864   3.795   1.687   7.473
  1294G12  O00223865   3.918   1.685   7.541
  1294G12  H00423866   3.964   1.611   7.506
  1294G12  C01823867   3.754   1.791   7.396
  1294G12  O00123868   3.630   1.796   7.337
  1294G12  H00323869   3.631   1.857   7.265
  1294G12  C01923870   3.831   1.916   7.393
  1294G12  H00223871   3.820   1.984   7.477
  1294G12  H00123872   3.937   1.888   7.391
  1294G12  O00023873   3.800   1.983   7.268
  1294G12  C01A23874   3.789   2.114   7.277
  1294G12  C02K23875   3.669   2.175   7.238
  1294G12  O00G23876   3.578   2.113   7.158
  1294G12  C02M23877   3.497   2.190   7.069
  1294G12  H01G23878   3.428   2.255   7.123
  1294G12  H01F23879   3.438   2.113   7.020
  1294G12  H01E23880   3.547   2.248   6.991
  1294G12  C02J23881   3.659   2.308   7.282
  1294G12  H01H23882   3.565   2.358   7.264
  1294G12  C02I23883   3.757   2.383   7.342
  1294G12  C02N23884   3.719   2.516   7.379
  1294G12  H01M23885   3.626   2.553   7.340
  1294G12  C02O23886   3.794   2.595   7.464
  1294G12  H01L23887   3.882   2.560   7.516
  1294G12  C02P23888   3.757   2.736   7.493
  1294G12  H01K23889   3.835   2.805   7.460
  1294G12  H01J23890   3.668   2.763   7.437
  1294G12  O00H23891   3.741   2.761   7.628
  1294G12  H01I23892   3.683   2.835   7.645
  1294G12  C02H23893   3.882   2.327   7.353
  1294G12  H01C23894   3.968   2.377   7.396
  1294G12  C02L23895   3.899   2.189   7.324
  1294G12  H01D23896   3.989   2.136   7.353
  1294G12  C01323897   3.668   1.499   7.351
  1294G12  H00023898   3.658   1.563   7.265
  1294G12  C01423899   3.621   1.359   7.353
  1294G12  C00F23900   3.558   1.297   7.245
  1294G12  C00H23901   3.603   1.088   7.350
  1294G12  C00I23902   3.612   0.948   7.351
  1294G12  C00J23903   3.628   0.882   7.471
  1294G12  C00Z23904   3.661   1.280   7.716
  1294G12  C00Y23905   3.667   1.350   7.843
  1294G12  H00623906   3.689   1.455   7.854
  1294G12  C00X23907   3.646   1.272   7.961
  1294G12  O00323908   3.671   1.339   8.081
  1294G12  C01B23909   3.562   1.343   8.172
  1294G12  H00923910   3.481   1.389   8.115
  1294G12  H00823911   3.581   1.408   8.258
  1294G12  H00723912   3.545   1.240   8.203
  1294G12  C00W23913   3.611   1.135   7.954
  1294G12  O00423914   3.600   1.064   8.069
  1294G12  C01C23915   3.526   0.948   8.057
  1294G12  H00A23916   3.498   0.906   8.153
  1294G12  C00P23917   3.521   0.867   7.936
  1294G12  C00O23918   3.436   0.757   7.932
  1294G12  C01D23919   3.333   0.733   8.033
  1294G12  H00S23920   3.306   0.809   8.105
  1294G12  C01E23921   3.247   0.623   8.017
  1294G12  O00823922   3.134   0.621   8.095
  1294G12  C01V23923   3.148   0.552   8.217
  1294G12  C01Z23924   3.149   0.648   8.337
  1294G12  H00R23925   3.138   0.601   8.435
  1294G12  H00Q23926   3.246   0.698   8.326
  1294G12  O00923927   3.030   0.717   8.308
  1294G12  H00P23928   3.018   0.702   8.216
  1294G12  C01W23929   3.160   0.419   8.224
  1294G12  H00O23930   3.148   0.372   8.128
  1294G12  C01X23931   3.177   0.328   8.343
  1294G12  H00N23932   3.251   0.254   8.313
  1294G12  H00M23933   3.208   0.381   8.434
  1294G12  C01Y23934   3.046   0.256   8.379
  1294G12  C02D23935   2.931   0.271   8.299
  1294G12  H01923936   2.938   0.328   8.208
  1294G12  C02C23937   2.812   0.208   8.330
  1294G12  H01A23938   2.723   0.215   8.269
  1294G12  C02B23939   2.797   0.137   8.453
  1294G12  O00E23940   2.683   0.077   8.481
  1294G12  H01B23941   2.684   0.037   8.567
  1294G12  C02F23942   2.909   0.115   8.533
  1294G12  O00F23943   2.887   0.037   8.645
  1294G12  C02G23944   2.994  -0.003   8.728
  1294G12  H01723945   2.955  -0.064   8.809
  1294G12  H01623946   3.053   0.080   8.769
  1294G12  H01523947   3.056  -0.071   8.670
  1294G12  C02E23948   3.035   0.167   8.493
  1294G12  H01823949   3.117   0.165   8.563
  1294G12  C01F23950   3.250   0.534   7.913
  1294G12  C01G23951   3.146   0.451   7.873
  1294G12  H00L23952   3.057   0.443   7.933
  1294G12  C01H23953   3.139   0.400   7.739
  1294G12  H00B23954   3.042   0.365   7.707
  1294G12  C01I23955   3.250   0.418   7.654
  1294G12  C01U23956   3.365   0.530   7.833
  1294G12  C00S23957   3.636   0.949   7.591
  1294G12  C00K23958   3.570   0.753   7.499
  1294G12  C00N23959   3.442   0.648   7.834
  1294G12  C00023960   3.377   0.450   7.714
  1294G12  C01J23961   3.273   0.440   7.513
  1294G12  C01K23962   3.182   0.408   7.405
  1294G12  C01P23963   3.076   0.310   7.404
  1294G12  C01Q23964   3.067   0.213   7.508
  1294G12  H00G23965   3.149   0.180   7.569
  1294G12  C01R23966   2.940   0.172   7.547
  1294G12  H00F23967   2.852   0.204   7.493
  1294G12  C01S23968   2.911   0.092   7.673
  1294G12  H00E23969   2.973   0.111   7.760
  1294G12  H00D23970   2.814   0.108   7.718
  1294G12  O00523971   2.933  -0.039   7.659
  1294G12  H00C23972   3.009  -0.062   7.712
  1294G12  C01O23973   3.003   0.287   7.283
  1294G12  H00H23974   2.927   0.211   7.273
  1294G12  C01N23975   3.010   0.376   7.177
  1294G12  O00623976   2.920   0.387   7.069
  1294G12  C01T23977   2.840   0.268   7.037
  1294G12  H00K23978   2.768   0.244   7.116
  1294G12  H00J23979   2.898   0.176   7.025
  1294G12  H00I23980   2.799   0.287   6.939
  1294G12  C01M23981   3.110   0.472   7.181
  1294G12  C02023982   3.507   0.698   7.379
  1294G12  C02123983   3.528   0.747   7.244
  1294G12  C01L23984   3.208   0.482   7.291
  1294G12  O00723985   3.111   0.562   7.077
  1294G12  C02223986   3.420   0.740   7.155
  1294G12  C02323987   3.570   0.883   7.232
  1294G12  C00G23988   3.557   1.159   7.236
  1294G12  C00E23989   3.501   1.375   7.141
  1294G12  O00A23990   3.489   1.514   7.147
  1294G12  C02423991   3.360   1.551   7.194
  1294G12  H00V23992   3.290   1.563   7.111
  1294G12  H00U23993   3.371   1.647   7.244
  1294G12  H00T23994   3.315   1.472   7.254
  1304G12  C00D23995   2.145   2.964   7.853
  1304G12  O00B23996   2.146   2.878   7.744
  1304G12  C02523997   2.047   2.886   7.644
  1304G12  C02623998   1.971   2.745   7.644
  1304G12  H00Y23999   1.901   2.751   7.560
  1304G12  H00X24000   1.912   2.750   7.735
  1304G12  O00C24001   2.066   2.643   7.619
  1304G12  H00W24002   2.041   2.563   7.662
  1304G12  C02724003   2.029   2.997   7.563
  1304G12  O00D24004   2.103   3.111   7.577
  1304G12  H00Z24005   2.151   3.106   7.658
  1304G12  C02824006   1.926   3.005   7.463
  1304G12  C02924007   1.884   2.903   7.372
  1304G12  H01024008   1.935   2.807   7.371
  1304G12  C02T24009   1.774   2.917   7.289
  1304G12  H01O24010   1.740   2.837   7.224
  1304G12  C02S24011   1.708   3.037   7.287
  1304G12  O00J24012   1.601   3.067   7.211
  1304G12  H01P24013   1.575   3.153   7.240
  1304G12  C02R24014   1.755   3.150   7.357
  1304G12  O00I24015   1.686   3.267   7.342
  1304G12  C02Q24016   1.753   3.390   7.371
  1304G12  H01N24017   1.693   3.475   7.339
  1304G12  H01R24018   1.851   3.392   7.323
  1304G12  H01Q24019   1.770   3.396   7.479
  1304G12  C02A24020   1.864   3.132   7.445
  1304G12  H01124021   1.899   3.213   7.508
  1304G12  C00C24022   2.035   3.045   7.884
  1304G12  H01224023   1.936   3.035   7.840
  1304G12  C00B24024   2.037   3.146   7.980
  1304G12  C00A24025   1.932   3.239   8.020
  1304G12  C00924026   1.815   3.272   7.946
  1304G12  C00824027   1.747   3.228   7.829
  1304G12  H01324028   1.742   3.127   7.792
  1304G12  C00724029   1.665   3.323   7.761
  1304G12  H01424030   1.607   3.293   7.675
  1304G12  C00624031   1.653   3.461   7.795
  1304G12  C00524032   1.722   3.500   7.913
  1304G12  C00424033   1.728   3.636   7.960
  1304G12  C00324034   1.813   3.666   8.072
  1304G12  C00224035   1.829   3.807   8.090
  1304G12  C00124036   1.920   3.884   8.181
  1304G12  C00M24037   2.058   3.855   8.211
  1304G12  C00L24038   2.101   3.729   8.230
  1304G12  C00R24039   2.237   3.686   8.228
  1304G12  C00Q24040   2.364   3.755   8.202
  1304G12  C00V24041   2.475   3.667   8.182
  1304G12  C00U24042   2.461   3.529   8.174
  1304G12  C00T24043   2.339   3.464   8.187
  1304G12  C01624044   2.312   3.335   8.149
  1304G12  C01524045   2.419   3.248   8.125
  1304G12  C01024046   2.549   3.301   8.133
  1304G12  C01124047   2.657   3.209   8.135
  1304G12  H00524048   2.760   3.231   8.159
  1304G12  C01224049   2.635   3.066   8.117
  1304G12  C01724050   2.740   2.965   8.126
  1304G12  O00224051   2.711   2.837   8.172
  1304G12  H00424052   2.801   2.813   8.164
  1304G12  C01824053   2.854   2.981   8.062
  1304G12  O00124054   2.884   3.088   7.987
  1304G12  H00324055   2.803   3.136   7.984
  1304G12  C01924056   2.956   2.865   8.055
  1304G12  H00224057   2.909   2.791   7.990
  1304G12  H00124058   3.046   2.895   8.003
  1304G12  O00024059   2.987   2.802   8.178
  1304G12  C01A24060   3.096   2.835   8.253
  1304G12  C02K24061   3.087   2.834   8.392
  1304G12  O00G24062   2.961   2.796   8.451
  1304G12  C02M24063   2.969   2.770   8.590
  1304G12  H01G24064   2.878   2.714   8.611
  1304G12  H01F24065   2.962   2.862   8.648
  1304G12  H01E24066   3.057   2.708   8.607
  1304G12  C02J24067   3.203   2.871   8.469
  1304G12  H01H24068   3.204   2.876   8.577
  1304G12  C02I24069   3.329   2.898   8.410
  1304G12  C02N24070   3.442   2.945   8.484
  1304G12  H01M24071   3.479   3.046   8.482
  1304G12  C02O24072   3.489   2.870   8.582
  1304G12  H01L24073   3.447   2.771   8.596
  1304G12  C02P24074   3.608   2.915   8.673
  1304G12  H01K24075   3.669   2.826   8.685
  1304G12  H01J24076   3.670   2.984   8.615
  1304G12  O00H24077   3.566   2.967   8.794
  1304G12  H01I24078   3.649   2.996   8.829
  1304G12  C02H24079   3.333   2.909   8.268
  1304G12  H01C24080   3.424   2.920   8.210
  1304G12  C02L24081   3.225   2.861   8.192
  1304G12  H01D24082   3.235   2.854   8.084
  1304G12  C01324083   2.497   3.027   8.095
  1304G12  H00024084   2.478   2.922   8.079
  1304G12  C01424085   2.392   3.121   8.084
  1304G12  C00F24086   2.268   3.089   8.032
  1304G12  C00H24087   2.184   3.292   8.126
  1304G12  C00I24088   2.078   3.374   8.167
  1304G12  C00J24089   2.105   3.498   8.234
  1304G12  C00Z24090   2.573   3.441   8.155
  1304G12  C00Y24091   2.696   3.497   8.144
  1304G12  H00624092   2.785   3.436   8.140
  1304G12  C00X24093   2.716   3.637   8.140
  1304G12  O00324094   2.842   3.694   8.117
  1304G12  C01B24095   2.959   3.617   8.090
  1304G12  H00924096   2.935   3.576   7.992
  1304G12  H00824097   2.986   3.530   8.150
  1304G12  H00724098   3.037   3.694   8.084
  1304G12  C00W24099   2.602   3.719   8.154
  1304G12  O00424100   2.623   3.853   8.142
  1304G12  C01C24101   2.527   3.937   8.180
  1304G12  H00A24102   2.555   4.035   8.217
  1304G12  C00P24103   2.389   3.895   8.182
  1304G12  C00O24104   2.284   3.986   8.151
  1304G12  C01D24105   2.312   4.117   8.099
  1304G12  H00S24106   2.417   4.138   8.080
  1304G12  C01E24107   2.218   4.204   8.035
  1304G12  O00824108   2.249   4.321   7.963
  1304G12  C01V24109   2.325   4.305   7.854
  1304G12  C01Z24110   2.412   4.433   7.828
  1304G12  H00R24111   2.475   4.433   7.740
  1304G12  H00Q24112   2.349   4.520   7.811
  1304G12  O00924113   2.491   4.454   7.947
  1304G12  H00P24114   2.441   4.435   8.025
  1304G12  C01W24115   2.329   4.196   7.780
  1304G12  H00O24116   2.261   4.112   7.786
  1304G12  C01X24117   2.412   4.167   7.659
  1304G12  H00N24118   2.349   4.118   7.585
  1304G12  H00M24119   2.460   4.252   7.611
  1304G12  C01Y24120   2.526   4.071   7.694
  1304G12  C02D24121   2.661   4.104   7.673
  1304G12  H01924122   2.693   4.200   7.637
  1304G12  C02C24123   2.763   4.016   7.704
  1304G12  H01A24124   2.865   4.050   7.694
  1304G12  C02B24125   2.726   3.892   7.754
  1304G12  O00E24126   2.829   3.804   7.784
  1304G12  H01B24127   2.805   3.733   7.843
  1304G12  C02F24128   2.592   3.849   7.769
  1304G12  O00F24129   2.582   3.722   7.819
  1304G12  C02G24130   2.457   3.656   7.805
  1304G12  H01724131   2.469   3.548   7.817
  1304G12  H01624132   2.405   3.667   7.709
  1304G12  H01524133   2.391   3.692   7.884
  1304G12  C02E24134   2.488   3.945   7.748
  1304G12  H01824135   2.385   3.920   7.766
  1304G12  C01F24136   2.085   4.168   8.039
  1304G12  C01G24137   1.984   4.215   7.946
  1304G12  H00L24138   2.005   4.295   7.878
  1304G12  C01H24139   1.867   4.136   7.928
  1304G12  H00B24140   1.809   4.149   7.838
  1304G12  C01I24141   1.838   4.032   8.018
  1304G12  C01U24142   2.047   4.065   8.128
  1304G12  C00S24143   2.234   3.545   8.236
  1304G12  C00K24144   2.018   3.610   8.212
  1304G12  C00N24145   2.143   3.969   8.173
  1304G12  C00024146   1.914   4.020   8.135
  1304G12  C01J24147   1.763   3.907   8.006
  1304G12  C01K24148   1.671   3.878   7.903
  1304G12  C01P24149   1.590   3.965   7.832
  1304G12  C01Q24150   1.570   4.110   7.850
  1304G12  H00G24151   1.578   4.177   7.766
  1304G12  C01R24152   1.555   4.158   7.977
  1304G12  H00F24153   1.550   4.094   8.064
  1304G12  C01S24154   1.552   4.309   8.002
  1304G12  H00E24155   1.588   4.335   8.102
  1304G12  H00D24156   1.621   4.350   7.928
  1304G12  O00524157   1.418   4.350   7.988
  1304G12  H00C24158   1.425   4.426   7.933
  1304G12  C01O24159   1.520   3.917   7.723
  1304G12  H00H24160   1.459   3.981   7.662
  1304G12  C01N24161   1.515   3.776   7.692
  1304G12  O00624162   1.442   3.728   7.586
  1304G12  C01T24163   1.364   3.812   7.504
  1304G12  H00K24164   1.287   3.862   7.562
  1304G12  H00J24165   1.312   3.769   7.419
  1304G12  H00I24166   1.425   3.888   7.456
  1304G12  C01M24167   1.590   3.687   7.773
  1304G12  C02024168   1.892   3.571   8.138
  1304G12  C02124169   1.859   3.435   8.107
  1304G12  C01L24170   1.667   3.736   7.883
  1304G12  O00724171   1.576   3.556   7.736
  1304G12  C02224172   1.787   3.406   7.995
  1304G12  C02324173   1.958   3.334   8.118
  1304G12  C00G24174   2.161   3.175   8.049
  1304G12  C00E24175   2.263   2.982   7.930
  1304G12  O00A24176   2.367   2.892   7.893
  1304G12  C02424177   2.332   2.765   7.941
  1304G12  H00V24178   2.261   2.757   8.023
  1304G12  H00U24179   2.428   2.720   7.966
  1304G12  H00T24180   2.297   2.701   7.861
  1314G12  C00D24181   5.854   6.174   4.155
  1314G12  O00B24182   5.910   6.048   4.129
  1314G12  C02524183   5.941   5.965   4.232
  1314G12  C02624184   5.837   5.867   4.267
  1314G12  H00Y24185   5.751   5.911   4.318
  1314G12  H00X24186   5.891   5.799   4.332
  1314G12  O00C24187   5.801   5.800   4.152
  1314G12  H00W24188   5.875   5.769   4.103
  1314G12  C02724189   6.061   5.991   4.288
  1314G12  O00D24190   6.144   6.091   4.235
  1314G12  H00Z24191   6.088   6.116   4.162
  1314G12  C02824192   6.094   5.918   4.397
  1314G12  C02924193   6.017   5.918   4.516
  1314G12  H01024194   5.930   5.982   4.514
  1314G12  C02T24195   6.057   5.837   4.623
  1314G12  H01O24196   6.010   5.842   4.721
  1314G12  C02S24197   6.176   5.772   4.610
  1314G12  O00J24198   6.224   5.711   4.724
  1314G12  H01P24199   6.312   5.680   4.712
  1314G12  C02R24200   6.257   5.766   4.494
  1314G12  O00I24201   6.378   5.702   4.511
  1314G12  C02Q24202   6.465   5.713   4.401
  1314G12  H01N24203   6.412   5.669   4.317
  1314G12  H01R24204   6.551   5.648   4.414
  1314G12  H01Q24205   6.493   5.810   4.361
  1314G12  C02A24206   6.212   5.841   4.385
  1314G12  H01124207   6.265   5.841   4.291
  1314G12  C00C24208   5.838   6.228   4.285
  1314G12  H01224209   5.870   6.167   4.368
  1314G12  C00B24210   5.804   6.361   4.306
  1314G12  C00A24211   5.799   6.431   4.432
  1314G12  C00924212   5.770   6.381   4.563
  1314G12  C00824213   5.744   6.248   4.615
  1314G12  H01324214   5.771   6.157   4.564
  1314G12  C00724215   5.689   6.235   4.744
  1314G12  H01424216   5.681   6.136   4.785
  1314G12  C00624217   5.638   6.348   4.810
  1314G12  C00524218   5.652   6.472   4.752
  1314G12  C00424219   5.578   6.585   4.789
  1314G12  C00324220   5.571   6.699   4.709
  1314G12  C00224221   5.481   6.807   4.753
  1314G12  C00124222   5.430   6.922   4.685
  1314G12  C00M24223   5.402   6.923   4.543
  1314G12  C00L24224   5.495   6.897   4.444
  1314G12  C00R24225   5.461   6.882   4.301
  1314G12  C00Q24226   5.342   6.914   4.231
  1314G12  C00V24227   5.350   6.871   4.093
  1314G12  C00U24228   5.440   6.778   4.044
  1314G12  C00T24229   5.537   6.723   4.126
  1314G12  C01624230   5.622   6.616   4.103
  1314G12  C01524231   5.603   6.556   3.985
  1314G12  C01024232   5.523   6.619   3.889
  1314G12  C01124233   5.539   6.575   3.752
  1314G12  H00524234   5.492   6.631   3.673
  1314G12  C01224235   5.617   6.466   3.715
  1314G12  C01724236   5.623   6.419   3.584
  1314G12  O00224237   5.505   6.402   3.521
  1314G12  H00424238   5.530   6.360   3.440
  1314G12  C01824239   5.743   6.383   3.524
  1314G12  O00124240   5.867   6.401   3.579
  1314G12  H00324241   5.866   6.476   3.636
  1314G12  C01924242   5.753   6.319   3.394
  1314G12  H00224243   5.770   6.388   3.311
  1314G12  H00124244   5.844   6.260   3.395
  1314G12  O00024245   5.643   6.236   3.376
  1314G12  C01A24246   5.649   6.133   3.282
  1314G12  C02K24247   5.570   6.014   3.300
  1314G12  O00G24248   5.500   5.997   3.415
  1314G12  C02M24249   5.374   6.053   3.406
  1314G12  H01G24250   5.305   5.990   3.462
  1314G12  H01F24251   5.330   6.054   3.306
  1314G12  H01E24252   5.370   6.150   3.457
  1314G12  C02J24253   5.580   5.906   3.206
  1314G12  H01H24254   5.505   5.830   3.225
  1314G12  C02I24255   5.643   5.918   3.085
  1314G12  C02N24256   5.647   5.817   2.985
  1314G12  H01M24257   5.662   5.835   2.880
  1314G12  C02O24258   5.620   5.685   3.025
  1314G12  H01L24259   5.600   5.662   3.129
  1314G12  C02P24260   5.609   5.566   2.932
  1314G12  H01K24261   5.520   5.504   2.936
  1314G12  H01J24262   5.616   5.606   2.831
  1314G12  O00H24263   5.734   5.492   2.948
  1314G12  H01I24264   5.779   5.519   3.027
  1314G12  C02H24265   5.718   6.038   3.064
  1314G12  H01C24266   5.783   6.050   2.978
  1314G12  C02L24267   5.722   6.146   3.160
  1314G12  H01D24268   5.776   6.238   3.145
  1314G12  C01324269   5.689   6.405   3.820
  1314G12  H00024270   5.753   6.324   3.788
  1314G12  C01424271   5.688   6.449   3.953
  1314G12  C00F24272   5.756   6.383   4.060
  1314G12  C00H24273   5.705   6.566   4.204
  1314G12  C00I24274   5.718   6.636   4.325
  1314G12  C00J24275   5.647   6.756   4.339
  1314G12  C00Z24276   5.433   6.718   3.920
  1314G12  C00Y24277   5.335   6.770   3.831
  1314G12  H00624278   5.332   6.738   3.728
  1314G12  C00X24279   5.241   6.868   3.867
  1314G12  O00324280   5.149   6.890   3.772
  1314G12  C01B24281   5.057   6.995   3.790
  1314G12  H00924282   5.004   7.012   3.696
  1314G12  H00824283   5.113   7.085   3.816
  1314G12  H00724284   4.976   6.969   3.859
  1314G12  C00W24285   5.251   6.919   4.000
  1314G12  O00424286   5.163   7.017   4.041
  1314G12  C01C24287   5.120   6.998   4.173
  1314G12  H00A24288   5.014   6.984   4.189
  1314G12  C00P24289   5.214   6.968   4.277
  1314G12  C00O24290   5.176   6.984   4.421
  1314G12  C01D24291   5.043   7.026   4.454
  1314G12  H00S24292   4.969   7.035   4.377
  1314G12  C01E24293   4.991   7.012   4.588
  1314G12  O00824294   4.860   7.042   4.619
  1314G12  C01V24295   4.846   7.123   4.727
  1314G12  C01Z24296   4.713   7.101   4.796
  1314G12  H00R24297   4.670   7.029   4.726
  1314G12  H00Q24298   4.724   7.074   4.900
  1314G12  O00924299   4.642   7.221   4.798
  1314G12  H00P24300   4.556   7.211   4.761
  1314G12  C01W24301   4.934   7.220   4.759
  1314G12  H00O24302   5.024   7.240   4.702
  1314G12  C01X24303   4.923   7.312   4.885
  1314G12  H00N24304   4.946   7.416   4.863
  1314G12  H00M24305   4.817   7.307   4.911
  1314G12  C01Y24306   5.023   7.256   4.985
  1314G12  C02D24307   5.159   7.236   4.947
  1314G12  H01924308   5.196   7.253   4.847
  1314G12  C02C24309   5.253   7.208   5.054
  1314G12  H01A24310   5.357   7.208   5.027
  1314G12  C02B24311   5.212   7.190   5.184
  1314G12  O00E24312   5.294   7.168   5.290
  1314G12  H01B24313   5.230   7.153   5.358
  1314G12  C02F24314   5.073   7.185   5.215
  1314G12  O00F24315   5.042   7.145   5.345
  1314G12  C02G24316   4.912   7.125   5.385
  1314G12  H01724317   4.926   7.109   5.492
  1314G12  H01624318   4.878   7.028   5.350
  1314G12  H01524319   4.855   7.216   5.364
  1314G12  C02E24320   4.980   7.220   5.116
  1314G12  H01824321   4.876   7.211   5.144
  1314G12  C01F24322   5.076   6.968   4.692
  1314G12  C01G24323   5.042   6.925   4.823
  1314G12  H00L24324   4.938   6.905   4.844
  1314G12  C01H24325   5.146   6.863   4.900
  1314G12  H00B24326   5.108   6.794   4.973
  1314G12  C01I24327   5.286   6.872   4.868
  1314G12  C01U24328   5.216   6.971   4.666
  1314G12  C00S24329   5.557   6.796   4.243
  1314G12  C00K24330   5.595   6.798   4.472
  1314G12  C00N24331   5.264   6.968   4.533
  1314G12  C00024332   5.317   6.958   4.761
  1314G12  C01J24333   5.398   6.786   4.871
  1314G12  C01K24334   5.420   6.671   4.963
  1314G12  C01P24335   5.367   6.651   5.099
  1314G12  C01Q24336   5.286   6.758   5.157
  1314G12  H00G24337   5.323   6.859   5.169
  1314G12  C01R24338   5.165   6.732   5.213
  1314G12  H00F24339   5.126   6.631   5.206
  1314G12  C01S24340   5.071   6.836   5.263
  1314G12  H00E24341   5.057   6.829   5.371
  1314G12  H00D24342   5.114   6.932   5.233
  1314G12  O00524343   4.948   6.815   5.200
  1314G12  H00C24344   4.912   6.731   5.224
  1314G12  C01O24345   5.388   6.538   5.177
  1314G12  H00H24346   5.352   6.529   5.278
  1314G12  C01N24347   5.458   6.432   5.118
  1314G12  O00624348   5.468   6.307   5.179
  1314G12  C01T24349   5.483   6.309   5.322
  1314G12  H00K24350   5.564   6.377   5.347
  1314G12  H00J24351   5.502   6.212   5.367
  1314G12  H00I24352   5.395   6.346   5.374
  1314G12  C01M24353   5.513   6.445   4.987
  1314G12  C02024354   5.633   6.707   4.581
  1314G12  C02124355   5.733   6.609   4.566
  1314G12  C01L24356   5.502   6.570   4.908
  1314G12  O00724357   5.578   6.338   4.932
  1314G12  C02224358   5.731   6.492   4.641
  1314G12  C02324359   5.775   6.572   4.432
  1314G12  C00G24360   5.757   6.434   4.192
  1314G12  C00E24361   5.825   6.255   4.041
  1314G12  O00A24362   5.830   6.179   3.927
  1314G12  C02424363   5.959   6.179   3.865
  1314G12  H00V24364   5.947   6.136   3.766
  1314G12  H00U24365   6.038   6.124   3.916
  1314G12  H00T24366   5.984   6.283   3.844
  1324G12  C00D24367   5.197   3.125   5.368
  1324G12  O00B24368   5.113   3.133   5.475
  1324G12  C02524369   5.067   3.252   5.526
  1324G12  C02624370   5.098   3.260   5.679
  1324G12  H00Y24371   5.029   3.192   5.730
  1324G12  H00X24372   5.070   3.362   5.703
  1324G12  O00C24373   5.236   3.250   5.717
  1324G12  H00W24374   5.289   3.276   5.643
  1324G12  C02724375   5.001   3.342   5.448
  1324G12  O00D24376   4.960   3.301   5.323
  1324G12  H00Z24377   4.972   3.207   5.328
  1324G12  C02824378   4.983   3.476   5.494
  1324G12  C02924379   4.855   3.537   5.483
  1324G12  H01024380   4.770   3.482   5.447
  1324G12  C02T24381   4.842   3.671   5.520
  1324G12  H01O24382   4.748   3.723   5.509
  1324G12  C02S24383   4.945   3.749   5.575
  1324G12  O00J24384   4.919   3.874   5.622
  1324G12  H01P24385   4.998   3.924   5.632
  1324G12  C02R24386   5.070   3.694   5.585
  1324G12  O00I24387   5.172   3.774   5.642
  1324G12  C02Q24388   5.255   3.720   5.744
  1324G12  H01N24389   5.201   3.692   5.835
  1324G12  H01R24390   5.316   3.800   5.784
  1324G12  H01Q24391   5.315   3.635   5.711
  1324G12  C02A24392   5.086   3.554   5.553
  1324G12  H01124393   5.183   3.507   5.560
  1324G12  C00C24394   5.260   3.237   5.313
  1324G12  H01224395   5.256   3.333   5.362
  1324G12  C00B24396   5.357   3.232   5.214
  1324G12  C00A24397   5.438   3.342   5.164
  1324G12  C00924398   5.410   3.485   5.151
  1324G12  C00824399   5.293   3.555   5.163
  1324G12  H01324400   5.209   3.514   5.218
  1324G12  C00724401   5.288   3.682   5.094
  1324G12  H01424402   5.200   3.744   5.095
  1324G12  C00624403   5.389   3.725   5.004
  1324G12  C00524404   5.505   3.643   4.998
  1324G12  C00424405   5.592   3.650   4.884
  1324G12  C00324406   5.681   3.547   4.860
  1324G12  C00224407   5.760   3.555   4.744
  1324G12  C00124408   5.863   3.478   4.688
  1324G12  C00M24409   5.863   3.333   4.671
  1324G12  C00L24410   5.806   3.247   4.764
  1324G12  C00R24411   5.757   3.117   4.746
  1324G12  C00Q24412   5.747   3.032   4.634
  1324G12  C00V24413   5.670   2.912   4.663
  1324G12  C00U24414   5.601   2.887   4.781
  1324G12  C00T24415   5.603   2.977   4.885
  1324G12  C01624416   5.515   2.980   4.996
  1324G12  C01524417   5.438   2.871   5.016
  1324G12  C01024418   5.449   2.762   4.931
  1324G12  C01124419   5.364   2.645   4.952
  1324G12  H00524420   5.363   2.552   4.898
  1324G12  C01224421   5.284   2.640   5.071
  1324G12  C01724422   5.195   2.528   5.099
  1324G12  O00224423   5.058   2.548   5.096
  1324G12  H00424424   5.043   2.630   5.051
  1324G12  C01824425   5.245   2.407   5.130
  1324G12  O00124426   5.383   2.379   5.129
  1324G12  H00324427   5.383   2.287   5.152
  1324G12  C01924428   5.157   2.291   5.167
  1324G12  H00224429   5.103   2.308   5.260
  1324G12  H00124430   5.071   2.281   5.100
  1324G12  O00024431   5.230   2.168   5.172
  1324G12  C01A24432   5.298   2.150   5.293
  1324G12  C02K24433   5.434   2.136   5.281
  1324G12  O00G24434   5.486   2.132   5.151
  1324G12  C02M24435   5.626   2.103   5.140
  1324G12  H01G24436   5.691   2.183   5.176
  1324G12  H01F24437   5.637   2.095   5.032
  1324G12  H01E24438   5.648   2.010   5.191
  1324G12  C02J24439   5.521   2.147   5.393
  1324G12  H01H24440   5.626   2.128   5.379
  1324G12  C02I24441   5.462   2.168   5.520
  1324G12  C02N24442   5.545   2.170   5.641
  1324G12  H01M24443   5.518   2.114   5.728
  1324G12  C02O24444   5.667   2.231   5.634
  1324G12  H01L24445   5.689   2.290   5.546
  1324G12  C02P24446   5.781   2.219   5.737
  1324G12  H01K24447   5.848   2.304   5.748
  1324G12  H01J24448   5.740   2.201   5.836
  1324G12  O00H24449   5.844   2.100   5.689
  1324G12  H01I24450   5.793   2.056   5.623
  1324G12  C02H24451   5.324   2.171   5.537
  1324G12  H01C24452   5.287   2.187   5.637
  1324G12  C02L24453   5.245   2.165   5.423
  1324G12  H01D24454   5.139   2.152   5.441
  1324G12  C01324455   5.279   2.754   5.146
  1324G12  H00024456   5.207   2.742   5.225
  1324G12  C01424457   5.353   2.873   5.124
  1324G12  C00F24458   5.331   2.989   5.201
  1324G12  C00H24459   5.508   3.096   5.077
  1324G12  C00I24460   5.596   3.203   5.056
  1324G12  C00J24461   5.695   3.189   4.957
  1324G12  C00Z24462   5.527   2.767   4.811
  1324G12  C00Y24463   5.533   2.662   4.708
  1324G12  H00624464   5.469   2.577   4.724
  1324G12  C00X24465   5.596   2.691   4.586
  1324G12  O00324466   5.585   2.601   4.479
  1324G12  C01B24467   5.505   2.481   4.492
  1324G12  H00924468   5.397   2.496   4.495
  1324G12  H00824469   5.532   2.421   4.580
  1324G12  H00724470   5.519   2.417   4.404
  1324G12  C00W24471   5.662   2.813   4.559
  1324G12  O00424472   5.709   2.830   4.434
  1324G12  C01C24473   5.783   2.946   4.405
  1324G12  H00A24474   5.859   2.936   4.329
  1324G12  C00P24475   5.797   3.053   4.500
  1324G12  C00O24476   5.834   3.185   4.450
  1324G12  C01D24477   5.843   3.208   4.314
  1324G12  H00S24478   5.830   3.128   4.242
  1324G12  C01E24479   5.842   3.336   4.249
  1324G12  O00824480   5.844   3.338   4.112
  1324G12  C01V24481   5.971   3.363   4.059
  1324G12  C01Z24482   6.052   3.231   4.035
  1324G12  H00R24483   6.014   3.141   4.084
  1324G12  H00Q24484   6.062   3.203   3.930
  1324G12  O00924485   6.175   3.247   4.092
  1324G12  H00P24486   6.193   3.339   4.107
  1324G12  C01W24487   6.023   3.486   4.052
  1324G12  H00O24488   5.966   3.567   4.096
  1324G12  C01X24489   6.155   3.529   3.988
  1324G12  H00N24490   6.184   3.448   3.920
  1324G12  H00M24491   6.156   3.625   3.937
  1324G12  C01Y24492   6.264   3.552   4.093
  1324G12  C02D24493   6.395   3.500   4.071
  1324G12  H01924494   6.409   3.441   3.981
  1324G12  C02C24495   6.494   3.524   4.164
  1324G12  H01A24496   6.590   3.485   4.134
  1324G12  C02B24497   6.466   3.605   4.276
  1324G12  O00E24498   6.562   3.638   4.367
  1324G12  H01B24499   6.505   3.682   4.428
  1324G12  C02F24500   6.335   3.651   4.301
  1324G12  O00F24501   6.322   3.728   4.414
  1324G12  C02G24502   6.201   3.792   4.433
  1324G12  H01724503   6.201   3.868   4.512
  1324G12  H01624504   6.137   3.706   4.451
  1324G12  H01524505   6.171   3.848   4.344
  1324G12  C02E24506   6.235   3.632   4.206
  1324G12  H01824507   6.134   3.669   4.211
  1324G12  C01F24508   5.840   3.450   4.339
  1324G12  C01G24509   5.791   3.577   4.297
  1324G12  H00L24510   5.759   3.588   4.195
  1324G12  C01H24511   5.755   3.671   4.407
  1324G12  H00B24512   5.679   3.745   4.386
  1324G12  C01I24513   5.799   3.642   4.539
  1324G12  C01U24514   5.873   3.429   4.471
  1324G12  C00S24515   5.698   3.077   4.867
  1324G12  C00K24516   5.739   3.300   4.887
  1324G12  C00N24517   5.869   3.301   4.528
  1324G12  C00024518   5.884   3.533   4.562
  1324G12  C01J24519   5.744   3.673   4.664
  1324G12  C01K24520   5.662   3.787   4.689
  1324G12  C01P24521   5.650   3.914   4.620
  1324G12  C01Q24522   5.762   3.954   4.542
  1324G12  H00G24523   5.862   3.915   4.547
  1324G12  C01R24524   5.751   4.052   4.447
  1324G12  H00F24525   5.656   4.100   4.434
  1324G12  C01S24526   5.868   4.100   4.360
  1324G12  H00E24527   5.961   4.043   4.363
  1324G12  H00D24528   5.834   4.114   4.257
  1324G12  O00524529   5.901   4.225   4.418
  1324G12  H00C24530   5.934   4.214   4.506
  1324G12  C01O24531   5.541   3.995   4.655
  1324G12  H00H24532   5.552   4.097   4.622
  1324G12  C01N24533   5.450   3.968   4.758
  1324G12  O00624534   5.337   4.044   4.792
  1324G12  C01T24535   5.320   4.169   4.728
  1324G12  H00K24536   5.324   4.163   4.619
  1324G12  H00J24537   5.408   4.232   4.745
  1324G12  H00I24538   5.229   4.222   4.757
  1324G12  C01M24539   5.471   3.851   4.828
  1324G12  C02024540   5.693   3.427   4.945
  1324G12  C02124541   5.624   3.438   5.074
  1324G12  C01L24542   5.572   3.757   4.794
  1324G12  O00724543   5.376   3.832   4.924
  1324G12  C02224544   5.525   3.535   5.086
  1324G12  C02324545   5.565   3.322   5.123
  1324G12  C00G24546   5.400   3.107   5.169
  1324G12  C00E24547   5.236   3.003   5.309
  1324G12  O00A24548   5.183   2.892   5.371
  1324G12  C02424549   5.275   2.839   5.466
  1324G12  H00V24550   5.238   2.745   5.506
  1324G12  H00U24551   5.280   2.901   5.556
  1324G12  H00T24552   5.372   2.812   5.423
  1334G12  C00D24553   2.547   1.187   5.406
  1334G12  O00B24554   2.500   1.314   5.461
  1334G12  C02524555   2.588   1.361   5.559
  1334G12  C02624556   2.536   1.345   5.701
  1334G12  H00Y24557   2.436   1.301   5.699
  1334G12  H00X24558   2.535   1.438   5.759
  1334G12  O00C24559   2.621   1.256   5.772
  1334G12  H00W24560   2.693   1.308   5.804
  1334G12  C02724561   2.710   1.405   5.520
  1334G12  O00D24562   2.737   1.417   5.390
  1334G12  H00Z24563   2.663   1.376   5.348
  1334G12  C02824564   2.812   1.437   5.620
  1334G12  C02924565   2.787   1.527   5.726
  1334G12  H01024566   2.690   1.575   5.728
  1334G12  C02T24567   2.886   1.556   5.827
  1334G12  H01O24568   2.873   1.626   5.908
  1334G12  C02S24569   3.009   1.492   5.821
  1334G12  O00J24570   3.105   1.514   5.922
  1334G12  H01P24571   3.174   1.450   5.909
  1334G12  C02R24572   3.034   1.405   5.717
  1334G12  O00I24573   3.149   1.335   5.727
  1334G12  C02Q24574   3.172   1.213   5.650
  1334G12  H01N24575   3.268   1.173   5.682
  1334G12  H01R24576   3.177   1.230   5.543
  1334G12  H01Q24577   3.096   1.136   5.663
  1334G12  C02A24578   2.933   1.368   5.622
  1334G12  H01124579   2.941   1.283   5.556
  1334G12  C00C24580   2.600   1.088   5.488
  1334G12  H01224581   2.595   1.101   5.596
  1334G12  C00B24582   2.675   0.981   5.437
  1334G12  C00A24583   2.749   0.885   5.514
  1334G12  C00924584   2.797   0.904   5.652
  1334G12  C00824585   2.761   0.986   5.764
  1334G12  H01324586   2.660   1.024   5.762
  1334G12  C00724587   2.862   1.019   5.861
  1334G12  H01424588   2.837   1.096   5.933
  1334G12  C00624589   2.994   0.977   5.844
  1334G12  C00524590   3.019   0.886   5.740
  1334G12  C00424591   3.152   0.852   5.701
  1334G12  C00324592   3.175   0.780   5.578
  1334G12  C00224593   3.317   0.771   5.541
  1334G12  C00124594   3.385   0.716   5.429
  1334G12  C00M24595   3.346   0.721   5.292
  1334G12  C00L24596   3.210   0.705   5.254
  1334G12  C00R24597   3.163   0.755   5.127
  1334G12  C00Q24598   3.227   0.798   5.008
  1334G12  C00V24599   3.139   0.844   4.909
  1334G12  C00U24600   3.003   0.874   4.935
  1334G12  C00T24601   2.946   0.847   5.058
  1334G12  C01624602   2.831   0.902   5.105
  1334G12  C01524603   2.769   0.998   5.022
  1334G12  C01024604   2.813   1.017   4.891
  1334G12  C01124605   2.745   1.107   4.806
  1334G12  H00524606   2.791   1.128   4.710
  1334G12  C01224607   2.627   1.179   4.851
  1334G12  C01724608   2.552   1.265   4.767
  1334G12  O00224609   2.540   1.227   4.640
  1334G12  H00424610   2.473   1.285   4.606
  1334G12  C01824611   2.510   1.386   4.816
  1334G12  O00124612   2.535   1.432   4.942
  1334G12  H00324613   2.594   1.377   4.990
  1334G12  C01924614   2.452   1.488   4.733
  1334G12  H00224615   2.372   1.541   4.784
  1334G12  H00124616   2.541   1.545   4.705
  1334G12  O00024617   2.392   1.436   4.613
  1334G12  C01A24618   2.384   1.518   4.508
  1334G12  C02K24619   2.318   1.466   4.400
  1334G12  O00G24620   2.267   1.335   4.411
  1334G12  C02M24621   2.242   1.262   4.295
  1334G12  H01G24622   2.214   1.157   4.306
  1334G12  H01F24623   2.334   1.256   4.236
  1334G12  H01E24624   2.171   1.314   4.231
  1334G12  C02J24625   2.298   1.545   4.286
  1334G12  H01H24626   2.249   1.524   4.192
  1334G12  C02I24627   2.341   1.676   4.284
  1334G12  C02N24628   2.311   1.748   4.161
  1334G12  H01M24629   2.313   1.698   4.066
  1334G12  C02O24630   2.271   1.878   4.161
  1334G12  H01L24631   2.247   1.933   4.250
  1334G12  C02P24632   2.226   1.941   4.026
  1334G12  H01K24633   2.265   1.881   3.944
  1334G12  H01J24634   2.121   1.967   4.014
  1334G12  O00H24635   2.293   2.067   4.026
  1334G12  H01I24636   2.253   2.127   4.086
  1334G12  C02H24637   2.413   1.729   4.388
  1334G12  H01C24638   2.444   1.832   4.382
  1334G12  C02L24639   2.436   1.647   4.501
  1334G12  H01D24640   2.486   1.698   4.582
  1334G12  C01324641   2.582   1.145   4.974
  1334G12  H00024642   2.489   1.195   4.998
  1334G12  C01424643   2.658   1.066   5.069
  1334G12  C00F24644   2.628   1.062   5.210
  1334G12  C00H24645   2.794   0.891   5.240
  1334G12  C00I24646   2.869   0.806   5.326
  1334G12  C00J24647   2.988   0.753   5.269
  1334G12  C00Z24648   2.926   0.947   4.846
  1334G12  C00Y24649   2.976   0.962   4.715
  1334G12  H00624650   2.931   1.016   4.634
  1334G12  C00X24651   3.107   0.927   4.683
  1334G12  O00324652   3.170   0.953   4.562
  1334G12  C01B24653   3.218   1.084   4.554
  1334G12  H00924654   3.246   1.098   4.449
  1334G12  H00824655   3.305   1.086   4.620
  1334G12  H00724656   3.140   1.154   4.582
  1334G12  C00W24657   3.186   0.872   4.782
  1334G12  O00424658   3.309   0.832   4.739
  1334G12  C01C24659   3.404   0.817   4.838
  1334G12  H00A24660   3.487   0.753   4.812
  1334G12  C00P24661   3.367   0.808   4.978
  1334G12  C00O24662   3.469   0.823   5.076
  1334G12  C01D24663   3.583   0.901   5.047
  1334G12  H00S24664   3.599   0.953   4.953
  1334G12  C01E24665   3.673   0.945   5.155
  1334G12  O00824666   3.779   1.029   5.131
  1334G12  C01V24667   3.809   1.070   4.999
  1334G12  C01Z24668   3.790   1.211   4.973
  1334G12  H00R24669   3.767   1.258   5.068
  1334G12  H00Q24670   3.886   1.253   4.941
  1334G12  O00924671   3.684   1.234   4.883
  1334G12  H00P24672   3.659   1.146   4.861
  1334G12  C01W24673   3.857   0.981   4.917
  1334G12  H00O24674   3.869   0.882   4.958
  1334G12  C01X24675   3.899   0.998   4.776
  1334G12  H00N24676   3.919   1.103   4.752
  1334G12  H00M24677   3.996   0.954   4.756
  1334G12  C01Y24678   3.794   0.948   4.681
  1334G12  C02D24679   3.762   0.805   4.675
  1334G12  H01924680   3.816   0.734   4.735
  1334G12  C02C24681   3.660   0.760   4.589
  1334G12  H01A24682   3.637   0.655   4.583
  1334G12  C02B24683   3.588   0.854   4.508
  1334G12  O00E24684   3.491   0.803   4.418
  1334G12  H01B24685   3.457   0.884   4.382
  1334G12  C02F24686   3.625   0.986   4.509
  1334G12  O00F24687   3.555   1.066   4.421
  1334G12  C02G24688   3.606   1.196   4.400
  1334G12  H01724689   3.532   1.255   4.345
  1334G12  H01624690   3.705   1.194   4.355
  1334G12  H01524691   3.615   1.255   4.491
  1334G12  C02E24692   3.724   1.032   4.598
  1334G12  H01824693   3.755   1.135   4.597
  1334G12  C01F24694   3.644   0.910   5.285
  1334G12  C01G24695   3.685   0.986   5.402
  1334G12  H00L24696   3.755   1.067   5.386
  1334G12  C01H24697   3.630   0.960   5.529
  1334G12  H00B24698   3.649   1.037   5.603
  1334G12  C01I24699   3.533   0.855   5.542
  1334G12  C01U24700   3.562   0.793   5.304
  1334G12  C00S24701   3.025   0.779   5.144
  1334G12  C00K24702   3.103   0.713   5.346
  1334G12  C00N24703   3.455   0.775   5.211
  1334G12  C00024704   3.523   0.758   5.437
  1334G12  C01J24705   3.418   0.834   5.628
  1334G12  C01K24706   3.397   0.898   5.750
  1334G12  C01P24707   3.493   0.941   5.849
  1334G12  C01Q24708   3.629   0.905   5.845
  1334G12  H00G24709   3.662   0.810   5.804
  1334G12  C01R24710   3.727   0.996   5.880
  1334G12  H00F24711   3.701   1.091   5.926
  1334G12  C01S24712   3.874   0.965   5.881
  1334G12  H00E24713   3.895   0.888   5.807
  1334G12  H00D24714   3.931   1.052   5.846
  1334G12  O00524715   3.910   0.923   6.013
  1334G12  H00C24716   3.943   0.997   6.061
  1334G12  C01O24717   3.452   1.014   5.959
  1334G12  H00H24718   3.518   1.052   6.035
  1334G12  C01N24719   3.312   1.038   5.983
  1334G12  O00624720   3.268   1.124   6.081
  1334G12  C01T24721   3.354   1.203   6.164
  1334G12  H00K24722   3.425   1.261   6.104
  1334G12  H00J24723   3.411   1.147   6.238
  1334G12  H00I24724   3.297   1.274   6.224
  1334G12  C01M24725   3.222   0.984   5.895
  1334G12  C02024726   3.074   0.739   5.488
  1334G12  C02124727   2.944   0.758   5.542
  1334G12  C01L24728   3.259   0.910   5.779
  1334G12  O00724729   3.093   1.020   5.924
  1334G12  C02224730   2.918   0.832   5.656
  1334G12  C02324731   2.836   0.788   5.460
  1334G12  C00G24732   2.690   0.968   5.295
  1334G12  C00E24733   2.555   1.176   5.265
  1334G12  O00A24734   2.514   1.289   5.197
  1334G12  C02424735   2.369   1.305   5.206
  1334G12  H00V24736   2.330   1.350   5.298
  1334G12  H00U24737   2.320   1.208   5.205
  1334G12  H00T24738   2.323   1.364   5.127
  1344G12  C00D24739   4.703   1.284   3.492
  1344G12  O00B24740   4.636   1.371   3.577
  1344G12  C02524741   4.625   1.334   3.707
  1344G12  C02624742   4.719   1.414   3.798
  1344G12  H00Y24743   4.714   1.397   3.906
  1344G12  H00X24744   4.697   1.521   3.793
  1344G12  O00C24745   4.854   1.406   3.759
  1344G12  H00W24746   4.862   1.461   3.683
  1344G12  C02724747   4.552   1.227   3.750
  1344G12  O00D24748   4.476   1.171   3.651
  1344G12  H00Z24749   4.409   1.110   3.677
  1344G12  C02824750   4.562   1.168   3.883
  1344G12  C02924751   4.496   1.205   4.000
  1344G12  H01024752   4.431   1.291   3.996
  1344G12  C02T24753   4.498   1.119   4.116
  1344G12  H01O24754   4.448   1.151   4.206
  1344G12  C02S24755   4.571   1.004   4.113
  1344G12  O00J24756   4.573   0.922   4.222
  1344G12  H01P24757   4.612   0.839   4.197
  1344G12  C02R24758   4.633   0.955   3.994
  1344G12  O00I24759   4.680   0.824   3.994
  1344G12  C02Q24760   4.771   0.788   3.885
  1344G12  H01N24761   4.831   0.698   3.901
  1344G12  H01R24762   4.838   0.871   3.863
  1344G12  H01Q24763   4.705   0.780   3.798
  1344G12  C02A24764   4.633   1.041   3.882
  1344G12  H01124765   4.678   1.004   3.792
  1344G12  C00C24766   4.794   1.186   3.545
  1344G12  H01224767   4.807   1.178   3.652
  1344G12  C00B24768   4.839   1.086   3.463
  1344G12  C00A24769   4.903   0.968   3.507
  1344G12  C00924770   4.996   0.954   3.616
  1344G12  C00824771   5.046   1.036   3.721
  1344G12  H01324772   4.997   1.126   3.755
  1344G12  C00724773   5.172   0.999   3.778
  1344G12  H01424774   5.218   1.068   3.847
  1344G12  C00624775   5.247   0.893   3.730
  1344G12  C00524776   5.192   0.815   3.628
  1344G12  C00424777   5.268   0.725   3.553
  1344G12  C00324778   5.214   0.670   3.432
  1344G12  C00224779   5.301   0.579   3.366
  1344G12  C00124780   5.288   0.503   3.244
  1344G12  C00M24781   5.240   0.569   3.128
  1344G12  C00L24782   5.121   0.640   3.127
  1344G12  C00R24783   5.084   0.729   3.019
  1344G12  C00Q24784   5.141   0.766   2.891
  1344G12  C00V24785   5.071   0.873   2.826
  1344G12  C00U24786   4.972   0.951   2.892
  1344G12  C00T24787   4.928   0.928   3.016
  1344G12  C01624788   4.862   1.018   3.100
  1344G12  C01524789   4.821   1.135   3.043
  1344G12  C01024790   4.858   1.165   2.913
  1344G12  C01124791   4.807   1.279   2.845
  1344G12  H00524792   4.820   1.314   2.743
  1344G12  C01224793   4.740   1.370   2.928
  1344G12  C01724794   4.692   1.497   2.871
  1344G12  O00224795   4.778   1.568   2.799
  1344G12  H00424796   4.744   1.656   2.792
  1344G12  C01824797   4.561   1.524   2.877
  1344G12  O00124798   4.464   1.435   2.917
  1344G12  H00324799   4.499   1.394   2.994
  1344G12  C01924800   4.501   1.634   2.800
  1344G12  H00224801   4.415   1.611   2.737
  1344G12  H00124802   4.442   1.681   2.880
  1344G12  O00024803   4.586   1.728   2.733
  1344G12  C01A24804   4.568   1.867   2.741
  1344G12  C02K24805   4.680   1.944   2.691
  1344G12  O00G24806   4.788   1.867   2.634
  1344G12  C02M24807   4.844   1.921   2.515
  1344G12  H01G24808   4.892   1.839   2.462
  1344G12  H01F24809   4.920   1.994   2.541
  1344G12  H01E24810   4.769   1.965   2.449
  1344G12  C02J24811   4.669   2.083   2.690
  1344G12  H01H24812   4.751   2.145   2.655
  1344G12  C02I24813   4.555   2.147   2.745
  1344G12  C02N24814   4.555   2.293   2.759
  1344G12  H01M24815   4.578   2.360   2.677
  1344G12  C02O24816   4.505   2.346   2.871
  1344G12  H01L24817   4.486   2.271   2.946
  1344G12  C02P24818   4.486   2.485   2.906
  1344G12  H01K24819   4.506   2.553   2.822
  1344G12  H01J24820   4.382   2.505   2.934
  1344G12  O00H24821   4.572   2.510   3.018
  1344G12  H01I24822   4.556   2.594   3.058
  1344G12  C02H24823   4.449   2.068   2.796
  1344G12  H01C24824   4.365   2.117   2.842
  1344G12  C02L24825   4.452   1.931   2.793
  1344G12  H01D24826   4.360   1.887   2.830
  1344G12  C01324827   4.719   1.346   3.067
  1344G12  H00024828   4.681   1.431   3.122
  1344G12  C01424829   4.760   1.225   3.125
  1344G12  C00F24830   4.752   1.203   3.265
  1344G12  C00H24831   4.857   0.992   3.233
  1344G12  C00I24832   4.888   0.865   3.286
  1344G12  C00J24833   4.947   0.768   3.199
  1344G12  C00Z24834   4.938   1.074   2.832
  1344G12  C00Y24835   4.970   1.101   2.693
  1344G12  H00624836   4.943   1.192   2.641
  1344G12  C00X24837   5.055   1.013   2.622
  1344G12  O00324838   5.097   1.034   2.490
  1344G12  C01B24839   5.018   1.106   2.407
  1344G12  H00924840   5.029   1.213   2.427
  1344G12  H00824841   4.912   1.080   2.403
  1344G12  H00724842   5.052   1.086   2.305
  1344G12  C00W24843   5.108   0.904   2.694
  1344G12  O00424844   5.205   0.837   2.625
  1344G12  C01C24845   5.273   0.743   2.689
  1344G12  H00A24846   5.333   0.680   2.626
  1344G12  C00P24847   5.254   0.714   2.829
  1344G12  C00O24848   5.347   0.627   2.893
  1344G12  C01D24849   5.472   0.603   2.826
  1344G12  H00S24850   5.501   0.645   2.730
  1344G12  C01E24851   5.581   0.559   2.904
  1344G12  O00824852   5.709   0.563   2.854
  1344G12  C01V24853   5.752   0.454   2.779
  1344G12  C01Z24854   5.724   0.469   2.633
  1344G12  H00R24855   5.673   0.562   2.607
  1344G12  H00Q24856   5.820   0.464   2.581
  1344G12  O00924857   5.641   0.360   2.593
  1344G12  H00P24858   5.653   0.295   2.661
  1344G12  C01W24859   5.800   0.350   2.847
  1344G12  H00O24860   5.822   0.359   2.952
  1344G12  C01X24861   5.852   0.206   2.807
  1344G12  H00N24862   5.886   0.215   2.703
  1344G12  H00M24863   5.936   0.194   2.875
  1344G12  C01Y24864   5.757   0.088   2.826
  1344G12  C02D24865   5.756  -0.012   2.726
  1344G12  H01924866   5.807   0.002   2.632
  1344G12  C02C24867   5.646  -0.110   2.738
  1344G12  H01A24868   5.635  -0.179   2.656
  1344G12  C02B24869   5.566  -0.113   2.854
  1344G12  O00E24870   5.473  -0.209   2.875
  1344G12  H01B24871   5.424  -0.186   2.952
  1344G12  C02F24872   5.579  -0.018   2.953
  1344G12  O00F24873   5.497  -0.028   3.065
  1344G12  C02G24874   5.490   0.085   3.158
  1344G12  H01724875   5.492   0.185   3.115
  1344G12  H01624876   5.579   0.090   3.220
  1344G12  H01524877   5.403   0.075   3.222
  1344G12  C02E24878   5.680   0.081   2.941
  1344G12  H01824879   5.689   0.158   3.016
  1344G12  C01F24880   5.568   0.514   3.038
  1344G12  C01G24881   5.669   0.512   3.134
  1344G12  H00L24882   5.767   0.548   3.107
  1344G12  C01H24883   5.641   0.491   3.273
  1344G12  H00B24884   5.717   0.526   3.342
  1344G12  C01I24885   5.506   0.475   3.309
  1344G12  C01U24886   5.440   0.484   3.079
  1344G12  C00S24887   4.972   0.805   3.066
  1344G12  C00K24888   5.056   0.687   3.240
  1344G12  C00N24889   5.338   0.565   3.023
  1344G12  C00024890   5.415   0.443   3.206
  1344G12  C01J24891   5.431   0.546   3.411
  1344G12  C01K24892   5.473   0.582   3.542
  1344G12  C01P24893   5.593   0.543   3.613
  1344G12  C01Q24894   5.678   0.430   3.572
  1344G12  H00G24895   5.642   0.345   3.517
  1344G12  C01R24896   5.810   0.423   3.604
  1344G12  H00F24897   5.856   0.510   3.648
  1344G12  C01S24898   5.907   0.315   3.568
  1344G12  H00E24899   5.860   0.254   3.491
  1344G12  H00D24900   6.002   0.356   3.532
  1344G12  O00524901   5.925   0.227   3.682
  1344G12  H00C24902   5.983   0.270   3.742
  1344G12  C01O24903   5.620   0.598   3.746
  1344G12  H00H24904   5.705   0.557   3.797
  1344G12  C01N24905   5.543   0.707   3.797
  1344G12  O00624906   5.576   0.769   3.917
  1344G12  C01T24907   5.494   0.718   4.022
  1344G12  H00K24908   5.391   0.710   3.989
  1344G12  H00J24909   5.483   0.795   4.099
  1344G12  H00I24910   5.531   0.620   4.053
  1344G12  C01M24911   5.432   0.749   3.724
  1344G12  C02024912   5.086   0.698   3.380
  1344G12  C02124913   5.010   0.769   3.471
  1344G12  C01L24914   5.394   0.682   3.602
  1344G12  O00724915   5.363   0.858   3.786
  1344G12  C02224916   5.061   0.831   3.586
  1344G12  C02324917   4.906   0.854   3.425
  1344G12  C00G24918   4.814   1.095   3.324
  1344G12  C00E24919   4.682   1.297   3.352
  1344G12  O00A24920   4.590   1.389   3.320
  1344G12  C02424921   4.467   1.322   3.304
  1344G12  H00V24922   4.440   1.256   3.387
  1344G12  H00U24923   4.469   1.250   3.222
  1344G12  H00T24924   4.393   1.401   3.290
  1354G12  C00D24925   1.620   4.583   4.312
  1354G12  O00B24926   1.694   4.605   4.421
  1354G12  C02524927   1.635   4.660   4.531
  1354G12  C02624928   1.569   4.561   4.626
  1354G12  H00Y24929   1.620   4.550   4.721
  1354G12  H00X24930   1.576   4.466   4.574
  1354G12  O00C24931   1.434   4.590   4.647
  1354G12  H00W24932   1.422   4.684   4.648
  1354G12  C02724933   1.647   4.793   4.546
  1354G12  O00D24934   1.703   4.864   4.435
  1354G12  H00Z24935   1.749   4.799   4.384
  1354G12  C02824936   1.608   4.865   4.664
  1354G12  C02924937   1.573   5.007   4.656
  1354G12  H01024938   1.561   5.048   4.557
  1354G12  C02T24939   1.551   5.092   4.769
  1354G12  H01O24940   1.524   5.196   4.756
  1354G12  C02S24941   1.571   5.041   4.899
  1354G12  O00J24942   1.546   5.115   5.007
  1354G12  H01P24943   1.558   5.046   5.070
  1354G12  C02R24944   1.600   4.904   4.908
  1354G12  O00I24945   1.603   4.858   5.037
  1354G12  C02Q24946   1.575   4.724   5.076
  1354G12  H01N24947   1.653   4.656   5.043
  1354G12  H01R24948   1.473   4.689   5.059
  1354G12  H01Q24949   1.586   4.715   5.184
  1354G12  C02A24950   1.624   4.816   4.800
  1354G12  H01124951   1.659   4.719   4.832
  1354G12  C00C24952   1.488   4.534   4.313
  1354G12  H01224953   1.435   4.514   4.404
  1354G12  C00B24954   1.412   4.520   4.195
  1354G12  C00A24955   1.270   4.494   4.191
  1354G12  C00924956   1.177   4.431   4.286
  1354G12  C00824957   1.199   4.357   4.403
  1354G12  H01324958   1.291   4.369   4.459
  1354G12  C00724959   1.098   4.266   4.442
  1354G12  H01424960   1.123   4.210   4.531
  1354G12  C00624961   0.983   4.230   4.357
  1354G12  C00524962   0.980   4.300   4.236
  1354G12  C00424963   0.904   4.251   4.129
  1354G12  C00324964   0.923   4.306   3.996
  1354G12  C00224965   0.843   4.245   3.889
  1354G12  C00124966   0.832   4.269   3.745
  1354G12  C00M24967   0.948   4.292   3.657
  1354G12  C00L24968   1.049   4.384   3.688
  1354G12  C00R24969   1.180   4.387   3.630
  1354G12  C00Q24970   1.240   4.319   3.519
  1354G12  C00V24971   1.382   4.341   3.511
  1354G12  C00U24972   1.464   4.407   3.607
  1354G12  C00T24973   1.407   4.461   3.719
  1354G12  C01624974   1.471   4.498   3.833
  1354G12  C01524975   1.609   4.505   3.825
  1354G12  C01024976   1.670   4.460   3.705
  1354G12  C01124977   1.812   4.473   3.698
  1354G12  H00524978   1.858   4.451   3.603
  1354G12  C01224979   1.890   4.502   3.805
  1354G12  C01724980   2.039   4.495   3.792
  1354G12  O00224981   2.090   4.387   3.727
  1354G12  H00424982   2.029   4.316   3.717
  1354G12  C01824983   2.115   4.592   3.843
  1354G12  O00124984   2.064   4.696   3.915
  1354G12  H00324985   2.132   4.761   3.907
  1354G12  C01924986   2.266   4.592   3.833
  1354G12  H00224987   2.302   4.496   3.869
  1354G12  H00124988   2.277   4.595   3.725
  1354G12  O00024989   2.329   4.702   3.895
  1354G12  C01A24990   2.446   4.742   3.846
  1354G12  C02K24991   2.547   4.652   3.806
  1354G12  O00G24992   2.537   4.520   3.849
  1354G12  C02M24993   2.657   4.455   3.852
  1354G12  H01G24994   2.674   4.414   3.753
  1354G12  H01F24995   2.644   4.375   3.926
  1354G12  H01E24996   2.743   4.516   3.879
  1354G12  C02J24997   2.657   4.699   3.729
  1354G12  H01H24998   2.740   4.633   3.708
  1354G12  C02I24999   2.671   4.840   3.707
  1354G12  C02N25000   2.780   4.886   3.626
  1354G12  H01M25001   2.875   4.840   3.645
  1354G12  C02O25002   2.748   4.972   3.525
  1354G12  H01L25003   2.649   5.015   3.519
  1354G12  C02P25004   2.854   5.021   3.432
  1354G12  H01K25005   2.852   5.128   3.408
  1354G12  H01J25006   2.946   5.003   3.487
  1354G12  O00H25007   2.855   4.946   3.307
  1354G12  H01I25008   2.773   4.960   3.262
  1354G12  C02H25009   2.581   4.932   3.761
  1354G12  H01C25010   2.592   5.039   3.751
  1354G12  C02L25011   2.466   4.881   3.825
  1354G12  H01D25012   2.386   4.944   3.862
  1354G12  C01325013   1.823   4.540   3.929
  1354G12  H00025014   1.888   4.553   4.014
  1354G12  C01425015   1.681   4.534   3.939
  1354G12  C00F25016   1.614   4.549   4.065
  1354G12  C00H25017   1.404   4.516   3.951
  1354G12  C00I25018   1.268   4.515   3.951
  1354G12  C00J25019   1.200   4.480   3.836
  1354G12  C00Z25020   1.601   4.402   3.599
  1354G12  C00Y25021   1.662   4.341   3.486
  1354G12  H00625022   1.767   4.333   3.466
  1354G12  C00X25023   1.589   4.274   3.388
  1354G12  O00325024   1.650   4.214   3.274
  1354G12  C01B25025   1.668   4.314   3.167
  1354G12  H00925026   1.752   4.281   3.105
  1354G12  H00825027   1.704   4.411   3.201
  1354G12  H00725028   1.581   4.339   3.106
  1354G12  C00W25029   1.447   4.284   3.397
  1354G12  O00425030   1.377   4.215   3.298
  1354G12  C01C25031   1.255   4.167   3.325
  1354G12  H00A25032   1.207   4.132   3.235
  1354G12  C00P25033   1.179   4.217   3.438
  1354G12  C00O25034   1.056   4.145   3.466
  1354G12  C01D25035   1.033   4.016   3.405
  1354G12  H00S25036   1.105   3.971   3.337
  1354G12  C01E25037   0.935   3.924   3.454
  1354G12  O00825038   0.942   3.785   3.417
  1354G12  C01V25039   0.984   3.755   3.288
  1354G12  C01Z25040   1.052   3.623   3.287
  1354G12  H00R25041   1.009   3.566   3.369
  1354G12  H00Q25042   1.031   3.568   3.195
  1354G12  O00925043   1.195   3.635   3.267
  1354G12  H00P25044   1.234   3.617   3.351
  1354G12  C01W25045   0.971   3.835   3.178
  1354G12  H00O25046   0.907   3.919   3.198
  1354G12  C01X25047   1.000   3.817   3.032
  1354G12  H00N25048   1.042   3.717   3.022
  1354G12  H00M25049   0.904   3.823   2.979
  1354G12  C01Y25050   1.103   3.925   2.995
  1354G12  C02D25051   1.071   4.043   2.925
  1354G12  H01925052   0.974   4.081   2.897
  1354G12  C02C25053   1.176   4.137   2.901
  1354G12  H01A25054   1.157   4.234   2.858
  1354G12  C02B25055   1.302   4.118   2.949
  1354G12  O00E25056   1.392   4.209   2.937
  1354G12  H01B25057   1.466   4.175   2.985
  1354G12  C02F25058   1.337   4.010   3.025
  1354G12  O00F25059   1.456   3.997   3.081
  1354G12  C02G25060   1.506   3.871   3.132
  1354G12  H01725061   1.477   3.845   3.234
  1354G12  H01625062   1.613   3.871   3.150
  1354G12  H01525063   1.487   3.780   3.074
  1354G12  C02E25064   1.242   3.903   3.038
  1354G12  H01825065   1.269   3.810   3.087
  1354G12  C01F25066   0.854   3.965   3.560
  1354G12  C01G25067   0.782   3.874   3.644
  1354G12  H00L25068   0.785   3.771   3.612
  1354G12  C01H25069   0.731   3.921   3.768
  1354G12  H00B25070   0.705   3.849   3.844
  1354G12  C01I25071   0.737   4.058   3.797
  1354G12  C01U25072   0.844   4.101   3.588
  1354G12  C00S25073   1.264   4.451   3.723
  1354G12  C00K25074   1.068   4.423   3.825
  1354G12  C00N25075   0.952   4.184   3.560
  1354G12  C00025076   0.765   4.149   3.694
  1354G12  C01J25077   0.766   4.131   3.920
  1354G12  C01K25078   0.738   4.086   4.052
  1354G12  C01P25079   0.638   3.994   4.092
  1354G12  C01Q25080   0.530   3.948   4.008
  1354G12  H00G25081   0.488   4.019   3.939
  1354G12  C01R25082   0.473   3.824   4.018
  1354G12  H00F25083   0.516   3.752   4.085
  1354G12  C01S25084   0.357   3.785   3.936
  1354G12  H00E25085   0.313   3.691   3.970
  1354G12  H00D25086   0.283   3.865   3.944
  1354G12  O00525087   0.404   3.775   3.800
  1354G12  H00C25088   0.478   3.717   3.787
  1354G12  C01O25089   0.628   3.950   4.229
  1354G12  H00H25090   0.542   3.889   4.254
  1354G12  C01N25091   0.722   3.989   4.323
  1354G12  O00625092   0.718   3.948   4.454
  1354G12  C01T25093   0.651   3.829   4.485
  1354G12  H00K25094   0.546   3.834   4.458
  1354G12  H00J25095   0.654   3.820   4.593
  1354G12  H00I25096   0.688   3.739   4.437
  1354G12  C01M25097   0.812   4.091   4.282
  1354G12  C02025098   1.014   4.406   3.958
  1354G12  C02125099   1.072   4.471   4.077
  1354G12  C01L25100   0.814   4.146   4.154
  1354G12  O00725101   0.896   4.135   4.389
  1354G12  C02225102   1.064   4.407   4.199
  1354G12  C02325103   1.203   4.528   4.074
  1354G12  C00G25104   1.473   4.531   4.071
  1354G12  C00E25105   1.679   4.598   4.186
  1354G12  O00A25106   1.802   4.659   4.180
  1354G12  C02425107   1.787   4.796   4.131
  1354G12  H00V25108   1.880   4.852   4.141
  1354G12  H00U25109   1.713   4.847   4.192
  1354G12  H00T25110   1.754   4.812   4.028
  1364G12  C00D25111   4.840   6.635   7.918
  1364G12  O00B25112   4.883   6.624   7.787
  1364G12  C02525113   5.005   6.568   7.759
  1364G12  C02625114   5.103   6.677   7.722
  1364G12  H00Y25115   5.048   6.747   7.659
  1364G12  H00X25116   5.181   6.642   7.654
  1364G12  O00C25117   5.173   6.737   7.828
  1364G12  H00W25118   5.143   6.826   7.842
  1364G12  C02725119   5.029   6.435   7.770
  1364G12  O00D25120   4.933   6.346   7.786
  1364G12  H00Z25121   4.846   6.382   7.773
  1364G12  C02825122   5.164   6.385   7.762
  1364G12  C02925123   5.186   6.262   7.693
  1364G12  H01025124   5.098   6.223   7.643
  1364G12  C02T25125   5.308   6.198   7.690
  1364G12  H01O25126   5.327   6.108   7.633
  1364G12  C02S25127   5.412   6.265   7.759
  1364G12  O00J25128   5.532   6.199   7.778
  1364G12  H01P25129   5.576   6.261   7.834
  1364G12  C02R25130   5.395   6.390   7.825
  1364G12  O00I25131   5.502   6.432   7.894
  1364G12  C02Q25132   5.485   6.542   7.993
  1364G12  H01N25133   5.573   6.537   8.057
  1364G12  H01R25134   5.408   6.526   8.068
  1364G12  H01Q25135   5.484   6.634   7.935
  1364G12  C02A25136   5.267   6.446   7.835
  1364G12  H01125137   5.242   6.533   7.893
  1364G12  C00C25138   4.926   6.635   8.025
  1364G12  H01225139   5.031   6.615   8.012
  1364G12  C00B25140   4.888   6.657   8.159
  1364G12  C00A25141   4.977   6.673   8.272
  1364G12  C00925142   5.104   6.605   8.295
  1364G12  C00825143   5.189   6.517   8.230
  1364G12  H01325144   5.173   6.499   8.125
  1364G12  C00725145   5.288   6.444   8.301
  1364G12  H01425146   5.350   6.371   8.250
  1364G12  C00625147   5.297   6.447   8.439
  1364G12  C00525148   5.201   6.529   8.500
  1364G12  C00425149   5.169   6.511   8.644
  1364G12  C00325150   5.053   6.577   8.694
  1364G12  C00225151   5.023   6.548   8.835
  1364G12  C00125152   4.926   6.598   8.926
  1364G12  C00M25153   4.783   6.607   8.894
  1364G12  C00L25154   4.738   6.657   8.774
  1364G12  C00R25155   4.606   6.651   8.712
  1364G12  C00Q25156   4.488   6.585   8.754
  1364G12  C00V25157   4.383   6.600   8.652
  1364G12  C00U25158   4.405   6.631   8.513
  1364G12  C00T25159   4.524   6.676   8.476
  1364G12  C01625160   4.568   6.685   8.343
  1364G12  C01525161   4.475   6.665   8.245
  1364G12  C01025162   4.342   6.636   8.281
  1364G12  C01125163   4.244   6.618   8.176
  1364G12  H00525164   4.145   6.582   8.201
  1364G12  C01225165   4.284   6.628   8.038
  1364G12  C01725166   4.185   6.596   7.933
  1364G12  O00225167   4.056   6.641   7.949
  1364G12  H00425168   3.995   6.619   7.880
  1364G12  C01825169   4.224   6.523   7.825
  1364G12  O00125170   4.348   6.479   7.812
  1364G12  H00325171   4.390   6.497   7.895
  1364G12  C01925172   4.147   6.498   7.698
  1364G12  H00225173   4.203   6.542   7.615
  1364G12  H00125174   4.148   6.391   7.678
  1364G12  O00025175   4.018   6.557   7.700
  1364G12  C01A25176   3.928   6.541   7.599
  1364G12  C02K25177   3.839   6.650   7.580
  1364G12  O00G25178   3.860   6.760   7.657
  1364G12  C02M25179   3.852   6.884   7.585
  1364G12  H01G25180   3.757   6.903   7.535
  1364G12  H01F25181   3.937   6.886   7.516
  1364G12  H01E25182   3.865   6.975   7.642
  1364G12  C02J25183   3.734   6.642   7.487
  1364G12  H01H25184   3.667   6.725   7.475
  1364G12  C02I25185   3.711   6.528   7.410
  1364G12  C02N25186   3.600   6.514   7.321
  1364G12  H01M25187   3.600   6.445   7.238
  1364G12  C02O25188   3.485   6.584   7.334
  1364G12  H01L25189   3.477   6.645   7.422
  1364G12  C02P25190   3.364   6.600   7.244
  1364G12  H01K25191   3.277   6.565   7.301
  1364G12  H01J25192   3.351   6.706   7.223
  1364G12  O00H25193   3.363   6.514   7.133
  1364G12  H01I25194   3.350   6.424   7.159
  1364G12  C02H25195   3.803   6.426   7.426
  1364G12  H01C25196   3.790   6.331   7.377
  1364G12  C02L25197   3.905   6.429   7.524
  1364G12  H01D25198   3.976   6.348   7.515
  1364G12  C01325199   4.418   6.660   8.016
  1364G12  H00025200   4.441   6.695   7.916
  1364G12  C01425201   4.517   6.675   8.113
  1364G12  C00F25202   4.656   6.677   8.085
  1364G12  C00H25203   4.708   6.701   8.318
  1364G12  C00I25204   4.799   6.722   8.422
  1364G12  C00J25205   4.746   6.728   8.553
  1364G12  C00Z25206   4.312   6.615   8.420
  1364G12  C00Y25207   4.179   6.579   8.454
  1364G12  H00625208   4.095   6.571   8.387
  1364G12  C00X25209   4.149   6.554   8.590
  1364G12  O00325210   4.012   6.546   8.609
  1364G12  C01B25211   3.955   6.559   8.740
  1364G12  H00925212   3.999   6.478   8.798
  1364G12  H00825213   3.846   6.554   8.729
  1364G12  H00725214   3.987   6.651   8.789
  1364G12  C00W25215   4.254   6.556   8.692
  1364G12  O00425216   4.229   6.527   8.824
  1364G12  C01C25217   4.329   6.460   8.882
  1364G12  H00A25218   4.316   6.353   8.884
  1364G12  C00P25219   4.461   6.513   8.874
  1364G12  C00O25220   4.566   6.479   8.969
  1364G12  C01D25221   4.531   6.376   9.063
  1364G12  H00S25222   4.436   6.327   9.078
  1364G12  C01E25223   4.625   6.303   9.132
  1364G12  O00825224   4.586   6.196   9.211
  1364G12  C01V25225   4.541   6.219   9.335
  1364G12  C01Z25226   4.390   6.246   9.345
  1364G12  H00R25227   4.356   6.245   9.449
  1364G12  H00Q25228   4.368   6.343   9.299
  1364G12  O00925229   4.337   6.156   9.250
  1364G12  H00P25230   4.419   6.143   9.203
  1364G12  C01W25231   4.621   6.214   9.441
  1364G12  H00O25232   4.726   6.192   9.430
  1364G12  C01X25233   4.589   6.229   9.587
  1364G12  H00N25234   4.637   6.313   9.637
  1364G12  H00M25235   4.486   6.252   9.612
  1364G12  C01Y25236   4.609   6.096   9.659
  1364G12  C02D25237   4.738   6.057   9.701
  1364G12  H01925238   4.826   6.120   9.694
  1364G12  C02C25239   4.746   5.934   9.762
  1364G12  H01A25240   4.843   5.907   9.800
  1364G12  C02B25241   4.635   5.853   9.774
  1364G12  O00E25242   4.655   5.730   9.821
  1364G12  H01B25243   4.579   5.677   9.803
  1364G12  C02F25244   4.510   5.881   9.728
  1364G12  O00F25245   4.407   5.795   9.744
  1364G12  C02G25246   4.281   5.840   9.738
  1364G12  H01725247   4.255   5.876   9.638
  1364G12  H01625248   4.262   5.929   9.797
  1364G12  H01525249   4.205   5.770   9.776
  1364G12  C02E25250   4.496   6.007   9.667
  1364G12  H01825251   4.402   6.035   9.623
  1364G12  C01F25252   4.764   6.342   9.122
  1364G12  C01G25253   4.877   6.259   9.152
  1364G12  H00L25254   4.867   6.157   9.185
  1364G12  C01H25255   5.002   6.283   9.079
  1364G12  H00B25256   5.067   6.198   9.066
  1364G12  C01I25257   5.021   6.409   9.022
  1364G12  C01U25258   4.794   6.467   9.065
  1364G12  C00S25259   4.607   6.709   8.583
  1364G12  C00K25260   4.829   6.692   8.666
  1364G12  C00N25261   4.703   6.524   8.976
  1364G12  C00025262   4.925   6.511   9.034
  1364G12  C01J25263   5.100   6.448   8.904
  1364G12  C01K25264   5.223   6.382   8.854
  1364G12  C01P25265   5.322   6.298   8.916
  1364G12  C01Q25266   5.310   6.257   9.055
  1364G12  H00G25267   5.310   6.323   9.140
  1364G12  C01R25268   5.312   6.121   9.077
  1364G12  H00F25269   5.324   6.053   8.994
  1364G12  C01S25270   5.290   6.057   9.211
  1364G12  H00E25271   5.241   6.127   9.279
  1364G12  H00D25272   5.223   5.973   9.193
  1364G12  O00525273   5.415   6.013   9.259
  1364G12  H00C25274   5.481   6.081   9.257
  1364G12  C01O25275   5.439   6.265   8.849
  1364G12  H00H25276   5.521   6.216   8.899
  1364G12  C01N25277   5.462   6.299   8.715
  1364G12  O00625278   5.558   6.255   8.631
  1364G12  C01T25279   5.671   6.198   8.694
  1364G12  H00K25280   5.734   6.146   8.622
  1364G12  H00J25281   5.640   6.110   8.751
  1364G12  H00I25282   5.728   6.254   8.768
  1364G12  C01M25283   5.366   6.371   8.648
  1364G12  C02025284   4.969   6.666   8.623
  1364G12  C02125285   5.026   6.708   8.498
  1364G12  C01L25286   5.251   6.422   8.717
  1364G12  O00725287   5.384   6.370   8.508
  1364G12  C02225288   5.114   6.620   8.435
  1364G12  C02325289   4.935   6.723   8.393
  1364G12  C00G25290   4.750   6.683   8.187
  1364G12  C00E25291   4.704   6.654   7.951
  1364G12  O00A25292   4.619   6.645   7.845
  1364G12  C02425293   4.628   6.756   7.754
  1364G12  H00V25294   4.714   6.767   7.687
  1364G12  H00U25295   4.619   6.846   7.814
  1364G12  H00T25296   4.541   6.755   7.688
  1374G12  C00D25297   6.113   4.741   5.855
  1374G12  O00B25298   6.219   4.680   5.922
  1374G12  C02525299   6.325   4.772   5.936
  1374G12  C02625300   6.308   4.877   6.048
  1374G12  H00Y25301   6.217   4.938   6.041
  1374G12  H00X25302   6.391   4.946   6.061
  1374G12  O00C25303   6.296   4.797   6.166
  1374G12  H00W25304   6.339   4.713   6.158
  1374G12  C02725305   6.433   4.767   5.848
  1374G12  O00D25306   6.423   4.672   5.750
  1374G12  H00Z25307   6.355   4.613   5.779
  1374G12  C02825308   6.542   4.863   5.848
  1374G12  C02925309   6.566   4.926   5.724
  1374G12  H01025310   6.507   4.897   5.639
  1374G12  C02T25311   6.669   5.016   5.722
  1374G12  H01O25312   6.691   5.060   5.626
  1374G12  C02S25313   6.733   5.056   5.844
  1374G12  O00J25314   6.818   5.166   5.852
  1374G12  H01P25315   6.842   5.176   5.942
  1374G12  C02R25316   6.710   5.000   5.968
  1374G12  O00I25317   6.755   5.066   6.078
  1374G12  C02Q25318   6.738   5.021   6.211
  1374G12  H01N25319   6.638   4.994   6.243
  1374G12  H01R25320   6.767   5.098   6.282
  1374G12  H01Q25321   6.808   4.938   6.227
  1374G12  C02A25322   6.622   4.892   5.961
  1374G12  H01125323   6.592   4.854   6.058
  1374G12  C00C25324   6.117   4.870   5.797
  1374G12  H01225325   6.197   4.940   5.817
  1374G12  C00B25326   6.041   4.905   5.686
  1374G12  C00A25327   6.063   5.016   5.598
  1374G12  C00925328   6.100   5.154   5.640
  1374G12  C00825329   6.104   5.208   5.768
  1374G12  H01325330   6.112   5.149   5.858
  1374G12  C00725331   6.077   5.340   5.786
  1374G12  H01425332   6.085   5.375   5.888
  1374G12  C00625333   6.024   5.421   5.677
  1374G12  C00525334   6.011   5.355   5.554
  1374G12  C00425335   5.932   5.412   5.455
  1374G12  C00325336   5.882   5.338   5.348
  1374G12  C00225337   5.787   5.410   5.257
  1374G12  C00125338   5.705   5.368   5.142
  1374G12  C00M25339   5.631   5.253   5.151
  1374G12  C00L25340   5.679   5.122   5.206
  1374G12  C00R25341   5.597   5.004   5.253
  1374G12  C00Q25342   5.453   4.983   5.256
  1374G12  C00V25343   5.417   4.863   5.322
  1374G12  C00U25344   5.507   4.795   5.410
  1374G12  C00T25345   5.640   4.831   5.420
  1374G12  C01625346   5.727   4.789   5.517
  1374G12  C01525347   5.680   4.700   5.614
  1374G12  C01025348   5.552   4.651   5.599
  1374G12  C01125349   5.502   4.558   5.699
  1374G12  H00525350   5.400   4.524   5.696
  1374G12  C01225351   5.577   4.515   5.808
  1374G12  C01725352   5.529   4.420   5.909
  1374G12  O00225353   5.609   4.312   5.924
  1374G12  H00425354   5.622   4.271   5.840
  1374G12  C01825355   5.405   4.423   5.963
  1374G12  O00125356   5.323   4.536   5.953
  1374G12  H00325357   5.373   4.611   5.924
  1374G12  C01925358   5.349   4.310   6.050
  1374G12  H00225359   5.432   4.259   6.098
  1374G12  H00125360   5.273   4.343   6.120
  1374G12  O00025361   5.292   4.216   5.965
  1374G12  C01A25362   5.230   4.109   6.019
  1374G12  C02K25363   5.139   4.035   5.938
  1374G12  O00G25364   5.114   4.046   5.807
  1374G12  C02M25365   5.207   4.125   5.726
  1374G12  H01G25366   5.311   4.101   5.745
  1374G12  H01F25367   5.206   4.233   5.741
  1374G12  H01E25368   5.182   4.110   5.621
  1374G12  C02J25369   5.071   3.926   5.998
  1374G12  H01H25370   5.008   3.865   5.935
  1374G12  C02I25371   5.073   3.891   6.133
  1374G12  C02N25372   4.997   3.781   6.175
  1374G12  H01M25373   4.939   3.724   6.104
  1374G12  C02O25374   4.971   3.750   6.303
  1374G12  H01L25375   5.022   3.814   6.373
  1374G12  C02P25376   4.883   3.632   6.352
  1374G12  H01K25377   4.935   3.538   6.371
  1374G12  H01J25378   4.854   3.666   6.451
  1374G12  O00H25379   4.769   3.620   6.278
  1374G12  H01I25380   4.787   3.643   6.188
  1374G12  C02H25381   5.160   3.969   6.212
  1374G12  H01C25382   5.165   3.955   6.319
  1374G12  C02L25383   5.238   4.075   6.158
  1374G12  H01D25384   5.306   4.114   6.232
  1374G12  C01325385   5.709   4.572   5.820
  1374G12  H00025386   5.762   4.531   5.904
  1374G12  C01425387   5.766   4.658   5.717
  1374G12  C00F25388   5.898   4.711   5.731
  1374G12  C00H25389   5.856   4.845   5.533
  1374G12  C00I25390   5.896   4.943   5.441
  1374G12  C00J25391   5.804   4.980   5.337
  1374G12  C00Z25392   5.466   4.697   5.497
  1374G12  C00Y25393   5.340   4.643   5.475
  1374G12  H00625394   5.307   4.548   5.512
  1374G12  C00X25395   5.253   4.705   5.386
  1374G12  O00325396   5.126   4.658   5.357
  1374G12  C01B25397   5.122   4.586   5.244
  1374G12  H00925398   5.185   4.498   5.257
  1374G12  H00825399   5.153   4.636   5.152
  1374G12  H00725400   5.020   4.549   5.230
  1374G12  C00W25401   5.283   4.820   5.318
  1374G12  O00425402   5.186   4.884   5.246
  1374G12  C01C25403   5.218   5.005   5.191
  1374G12  H00A25404   5.145   5.043   5.121
  1374G12  C00P25405   5.347   5.069   5.205
  1374G12  C00O25406   5.366   5.209   5.186
  1374G12  C01D25407   5.254   5.285   5.223
  1374G12  H00S25408   5.167   5.234   5.261
  1374G12  C01E25409   5.255   5.427   5.238
  1374G12  O00825410   5.142   5.488   5.296
  1374G12  C01V25411   5.044   5.542   5.215
  1374G12  C01Z25412   4.918   5.468   5.243
  1374G12  H00R25413   4.843   5.493   5.168
  1374G12  H00Q25414   4.940   5.361   5.248
  1374G12  O00925415   4.878   5.503   5.375
  1374G12  H00P25416   4.949   5.489   5.436
  1374G12  C01W25417   5.062   5.636   5.122
  1374G12  H00O25418   5.159   5.683   5.113
  1374G12  C01X25419   4.957   5.688   5.019
  1374G12  H00N25420   5.017   5.719   4.933
  1374G12  H00M25421   4.891   5.609   4.985
  1374G12  C01Y25422   4.872   5.802   5.072
  1374G12  C02D25423   4.865   5.927   5.005
  1374G12  H01925424   4.892   5.957   4.905
  1374G12  C02C25425   4.774   6.025   5.053
  1374G12  H01A25426   4.754   6.108   4.987
  1374G12  C02B25427   4.702   6.010   5.175
  1374G12  O00E25428   4.613   6.101   5.220
  1374G12  H01B25429   4.579   6.062   5.300
  1374G12  C02F25430   4.719   5.894   5.247
  1374G12  O00F25431   4.642   5.876   5.366
  1374G12  C02G25432   4.640   5.753   5.431
  1374G12  H01725433   4.589   5.758   5.526
  1374G12  H01625434   4.745   5.737   5.458
  1374G12  H01525435   4.601   5.665   5.378
  1374G12  C02E25436   4.799   5.790   5.196
  1374G12  H01825437   4.798   5.693   5.244
  1374G12  C01F25438   5.375   5.494   5.211
  1374G12  C01G25439   5.403   5.629   5.246
  1374G12  H00L25440   5.326   5.689   5.293
  1374G12  C01H25441   5.538   5.671   5.261
  1374G12  H00B25442   5.558   5.751   5.331
  1374G12  C01I25443   5.642   5.590   5.208
  1374G12  C01U25444   5.479   5.420   5.147
  1374G12  C00S25445   5.685   4.918   5.321
  1374G12  C00K25446   5.804   5.110   5.274
  1374G12  C00N25447   5.485   5.279   5.152
  1374G12  C00025448   5.611   5.473   5.124
  1374G12  C01J25449   5.763   5.552   5.274
  1374G12  C01K25450   5.838   5.633   5.367
  1374G12  C01P25451   5.837   5.772   5.379
  1374G12  C01Q25452   5.797   5.850   5.261
  1374G12  H00G25453   5.815   5.825   5.158
  1374G12  C01R25454   5.731   5.970   5.271
  1374G12  H00F25455   5.693   6.011   5.363
  1374G12  C01S25456   5.692   6.051   5.152
  1374G12  H00E25457   5.705   6.158   5.170
  1374G12  H00D25458   5.754   6.022   5.067
  1374G12  O00525459   5.551   6.030   5.124
  1374G12  H00C25460   5.514   6.099   5.071
  1374G12  C01O25461   5.880   5.836   5.494
  1374G12  H00H25462   5.879   5.943   5.512
  1374G12  C01N25463   5.930   5.755   5.596
  1374G12  O00625464   5.948   5.807   5.723
  1374G12  C01T25465   5.938   5.946   5.746
  1374G12  H00K25466   6.019   6.000   5.697
  1374G12  H00J25467   5.940   5.968   5.853
  1374G12  H00I25468   5.838   5.984   5.726
  1374G12  C01M25469   5.947   5.617   5.579
  1374G12  C02025470   5.903   5.199   5.337
  1374G12  C02125471   6.004   5.155   5.425
  1374G12  C01L25472   5.906   5.550   5.459
  1374G12  O00725473   5.991   5.550   5.689
  1374G12  C02225474   6.064   5.231   5.527
  1374G12  C02325475   6.010   5.022   5.469
  1374G12  C00G25476   5.933   4.816   5.646
  1374G12  C00E25477   5.993   4.664   5.827
  1374G12  O00A25478   5.990   4.539   5.889
  1374G12  C02425479   5.989   4.551   6.029
  1374G12  H00V25480   5.910   4.623   6.053
  1374G12  H00U25481   6.079   4.577   6.084
  1374G12  H00T25482   5.943   4.468   6.082
  1384G12  C00D25483   6.135   1.126   5.126
  1384G12  O00B25484   6.022   1.202   5.124
  1384G12  C02525485   6.008   1.305   5.214
  1384G12  C02625486   5.883   1.291   5.298
  1384G12  H00Y25487   5.874   1.372   5.371
  1384G12  H00X25488   5.890   1.208   5.369
  1384G12  O00C25489   5.766   1.271   5.219
  1384G12  H00W25490   5.772   1.183   5.185
  1384G12  C02725491   6.104   1.399   5.227
  1384G12  O00D25492   6.205   1.405   5.134
  1384G12  H00Z25493   6.174   1.338   5.075
  1384G12  C02825494   6.092   1.518   5.314
  1384G12  C02925495   6.110   1.514   5.448
  1384G12  H01025496   6.132   1.419   5.495
  1384G12  C02T25497   6.096   1.627   5.529
  1384G12  H01O25498   6.108   1.623   5.637
  1384G12  C02S25499   6.064   1.751   5.467
  1384G12  O00J25500   6.054   1.858   5.549
  1384G12  H01P25501   6.041   1.938   5.500
  1384G12  C02R25502   6.056   1.762   5.325
  1384G12  O00I25503   6.057   1.890   5.276
  1384G12  C02Q25504   6.001   1.910   5.144
  1384G12  H01N25505   6.029   2.005   5.098
  1384G12  H01R25506   5.894   1.893   5.146
  1384G12  H01Q25507   6.035   1.840   5.067
  1384G12  C02A25508   6.064   1.645   5.254
  1384G12  H01125509   6.068   1.645   5.146
  1384G12  C00C25510   6.198   1.107   5.001
  1384G12  H01225511   6.159   1.153   4.912
  1384G12  C00B25512   6.318   1.034   4.987
  1384G12  C00A25513   6.381   1.002   4.861
  1384G12  C00925514   6.336   1.002   4.723
  1384G12  C00825515   6.220   1.045   4.653
  1384G12  H01325516   6.132   1.094   4.690
  1384G12  C00725517   6.202   0.985   4.528
  1384G12  H01425518   6.115   1.013   4.470
  1384G12  C00625519   6.281   0.874   4.476
  1384G12  C00525520   6.395   0.837   4.551
  1384G12  C00425521   6.460   0.713   4.529
  1384G12  C00325522   6.560   0.677   4.620
  1384G12  C00225523   6.617   0.545   4.596
  1384G12  C00125524   6.723   0.470   4.661
  1384G12  C00M25525   6.749   0.458   4.802
  1384G12  C00L25526   6.739   0.570   4.892
  1384G12  C00R25527   6.718   0.555   5.033
  1384G12  C00Q25528   6.714   0.444   5.122
  1384G12  C00V25529   6.688   0.481   5.257
  1384G12  C00U25530   6.616   0.600   5.290
  1384G12  C00T25531   6.597   0.702   5.197
  1384G12  C01625532   6.505   0.804   5.210
  1384G12  C01525533   6.450   0.825   5.330
  1384G12  C01025534   6.492   0.746   5.439
  1384G12  C01125535   6.446   0.785   5.567
  1384G12  H00525536   6.479   0.739   5.658
  1384G12  C01225537   6.355   0.892   5.587
  1384G12  C01725538   6.288   0.930   5.716
  1384G12  O00225539   6.260   1.062   5.746
  1384G12  H00425540   6.286   1.118   5.674
  1384G12  C01825541   6.263   0.834   5.812
  1384G12  O00125542   6.273   0.699   5.794
  1384G12  H00325543   6.207   0.669   5.855
  1384G12  C01925544   6.201   0.873   5.948
  1384G12  H00225545   6.285   0.919   6.000
  1384G12  H00125546   6.117   0.936   5.917
  1384G12  O00025547   6.153   0.755   6.005
  1384G12  C01A25548   6.066   0.765   6.116
  1384G12  C02K25549   5.968   0.661   6.129
  1384G12  O00G25550   5.953   0.567   6.034
  1384G12  C02M25551   5.861   0.616   5.931
  1384G12  H01G25552   5.905   0.703   5.883
  1384G12  H01F25553   5.761   0.643   5.964
  1384G12  H01E25554   5.861   0.546   5.847
  1384G12  C02J25555   5.877   0.664   6.236
  1384G12  H01H25556   5.806   0.583   6.248
  1384G12  C02I25557   5.886   0.764   6.337
  1384G12  C02N25558   5.787   0.780   6.444
  1384G12  H01M25559   5.820   0.793   6.546
  1384G12  C02O25560   5.659   0.761   6.406
  1384G12  H01L25561   5.644   0.740   6.301
  1384G12  C02P25562   5.537   0.777   6.491
  1384G12  H01K25563   5.453   0.824   6.440
  1384G12  H01J25564   5.494   0.682   6.523
  1384G12  O00H25565   5.553   0.857   6.609
  1384G12  H01I25566   5.467   0.876   6.644
  1384G12  C02H25567   5.986   0.865   6.329
  1384G12  H01C25568   6.012   0.935   6.407
  1384G12  C02L25569   6.077   0.868   6.214
  1384G12  H01D25570   6.162   0.935   6.215
  1384G12  C01325571   6.312   0.961   5.474
  1384G12  H00025572   6.251   1.048   5.494
  1384G12  C01425573   6.361   0.928   5.341
  1384G12  C00F25574   6.304   0.989   5.227
  1384G12  C00H25575   6.471   0.879   5.093
  1384G12  C00I25576   6.542   0.859   4.975
  1384G12  C00J25577   6.642   0.756   4.969
  1384G12  C00Z25578   6.567   0.628   5.415
  1384G12  C00Y25579   6.600   0.536   5.514
  1384G12  H00625580   6.566   0.556   5.614
  1384G12  C00X25581   6.682   0.424   5.498
  1384G12  O00325582   6.716   0.343   5.608
  1384G12  C01B25583   6.854   0.329   5.623
  1384G12  H00925584   6.908   0.330   5.528
  1384G12  H00825585   6.876   0.238   5.678
  1384G12  H00725586   6.900   0.412   5.677
  1384G12  C00W25587   6.718   0.382   5.363
  1384G12  O00425588   6.770   0.256   5.339
  1384G12  C01C25589   6.770   0.220   5.211
  1384G12  H00A25590   6.817   0.124   5.196
  1384G12  C00P25591   6.738   0.306   5.098
  1384G12  C00O25592   6.719   0.250   4.967
  1384G12  C01D25593   6.688   0.110   4.957
  1384G12  H00S25594   6.684   0.045   5.044
  1384G12  C01E25595   6.624   0.059   4.835
  1384G12  O00825596   6.563  -0.068   4.838
  1384G12  C01V25597   6.473  -0.081   4.944
  1384G12  C01Z25598   6.504  -0.194   5.039
  1384G12  H00R25599   6.420  -0.252   5.077
  1384G12  H00Q25600   6.576  -0.259   4.989
  1384G12  O00925601   6.563  -0.132   5.151
  1384G12  H00P25602   6.510  -0.058   5.176
  1384G12  C01W25603   6.362  -0.010   4.963
  1384G12  H00O25604   6.335   0.071   4.897
  1384G12  C01X25605   6.266  -0.035   5.077
  1384G12  H00N25606   6.165  -0.012   5.043
  1384G12  H00M25607   6.257  -0.137   5.113
  1384G12  C01Y25608   6.305   0.060   5.196
  1384G12  C02D25609   6.334   0.003   5.321
  1384G12  H01925610   6.342  -0.105   5.324
  1384G12  C02C25611   6.367   0.080   5.434
  1384G12  H01A25612   6.397   0.039   5.530
  1384G12  C02B25613   6.356   0.220   5.424
  1384G12  O00E25614   6.364   0.291   5.538
  1384G12  H01B25615   6.353   0.380   5.508
  1384G12  C02F25616   6.323   0.281   5.296
  1384G12  O00F25617   6.312   0.418   5.296
  1384G12  C02G25618   6.290   0.493   5.175
  1384G12  H01725619   6.379   0.521   5.119
  1384G12  H01625620   6.233   0.580   5.208
  1384G12  H01525621   6.227   0.430   5.112
  1384G12  C02E25622   6.291   0.198   5.190
  1384G12  H01825623   6.267   0.237   5.092
  1384G12  C01F25624   6.626   0.133   4.719
  1384G12  C01G25625   6.552   0.106   4.597
  1384G12  H00L25626   6.499   0.012   4.588
  1384G12  C01H25627   6.532   0.209   4.497
  1384G12  H00B25628   6.455   0.191   4.424
  1384G12  C01I25629   6.601   0.332   4.511
  1384G12  C01U25630   6.696   0.255   4.718
  1384G12  C00S25631   6.662   0.674   5.078
  1384G12  C00K25632   6.668   0.688   4.843
  1384G12  C00N25633   6.723   0.317   4.842
  1384G12  C00025634   6.702   0.345   4.604
  1384G12  C01J25635   6.567   0.470   4.479
  1384G12  C01K25636   6.468   0.509   4.384
  1384G12  C01P25637   6.425   0.455   4.265
  1384G12  C01Q25638   6.495   0.340   4.210
  1384G12  H00G25639   6.601   0.323   4.222
  1384G12  C01R25640   6.428   0.240   4.140
  1384G12  H00F25641   6.322   0.252   4.124
  1384G12  C01S25642   6.487   0.117   4.077
  1384G12  H00E25643   6.594   0.114   4.098
  1384G12  H00D25644   6.442   0.023   4.109
  1384G12  O00525645   6.482   0.144   3.937
  1384G12  H00C25646   6.565   0.123   3.896
  1384G12  C01O25647   6.319   0.512   4.184
  1384G12  H00H25648   6.288   0.476   4.087
  1384G12  C01N25649   6.260   0.631   4.224
  1384G12  O00625650   6.158   0.688   4.152
  1384G12  C01T25651   6.025   0.685   4.204
  1384G12  H00K25652   5.975   0.589   4.204
  1384G12  H00J25653   5.955   0.746   4.147
  1384G12  H00I25654   6.018   0.711   4.310
  1384G12  C01M25655   6.307   0.687   4.337
  1384G12  C02025656   6.600   0.751   4.736
  1384G12  C02125657   6.538   0.879   4.740
  1384G12  C01L25658   6.413   0.635   4.419
  1384G12  O00725659   6.250   0.805   4.361
  1384G12  C02225660   6.431   0.912   4.667
  1384G12  C02325661   6.499   0.931   4.865
  1384G12  C00G25662   6.364   0.972   5.100
  1384G12  C00E25663   6.186   1.069   5.240
  1384G12  O00A25664   6.099   1.062   5.345
  1384G12  C02425665   6.023   0.949   5.348
  1384G12  H00V25666   5.967   0.935   5.256
  1384G12  H00U25667   5.952   0.946   5.431
  1384G12  H00T25668   6.082   0.858   5.353
  1394G12  C00D25669   6.648   1.295   4.974
  1394G12  O00B25670   6.571   1.407   4.997
  1394G12  C02525671   6.536   1.484   4.886
  1394G12  C02625672   6.627   1.600   4.859
  1394G12  H00Y25673   6.613   1.642   4.759
  1394G12  H00X25674   6.730   1.569   4.873
  1394G12  O00C25675   6.611   1.699   4.956
  1394G12  H00W25676   6.567   1.651   5.024
  1394G12  C02725677   6.431   1.450   4.805
  1394G12  O00D25678   6.376   1.327   4.837
  1394G12  H00Z25679   6.417   1.292   4.915
  1394G12  C02825680   6.372   1.525   4.697
  1394G12  C02925681   6.346   1.660   4.699
  1394G12  H01025682   6.362   1.726   4.783
  1394G12  C02T25683   6.296   1.725   4.587
  1394G12  H01O25684   6.286   1.833   4.581
  1394G12  C02S25685   6.263   1.652   4.477
  1394G12  O00J25686   6.213   1.710   4.369
  1394G12  H01P25687   6.176   1.642   4.315
  1394G12  C02R25688   6.270   1.515   4.474
  1394G12  O00I25689   6.227   1.449   4.360
  1394G12  C02Q25690   6.245   1.309   4.357
  1394G12  H01N25691   6.348   1.272   4.356
  1394G12  H01R25692   6.215   1.263   4.263
  1394G12  H01Q25693   6.183   1.270   4.437
  1394G12  C02A25694   6.324   1.451   4.586
  1394G12  H01125695   6.327   1.343   4.596
  1394G12  C00C25696   6.679   1.241   4.844
  1394G12  H01225697   6.653   1.289   4.751
  1394G12  C00B25698   6.774   1.145   4.834
  1394G12  C00A25699   6.828   1.092   4.711
  1394G12  C00925700   6.779   1.090   4.576
  1394G12  C00825701   6.646   1.117   4.534
  1394G12  H01325702   6.576   1.169   4.597
  1394G12  C00725703   6.597   1.051   4.420
  1394G12  H01425704   6.493   1.063   4.393
  1394G12  C00625705   6.673   0.954   4.354
  1394G12  C00525706   6.799   0.921   4.415
  1394G12  C00425707   6.862   0.795   4.393
  1394G12  C00325708   6.975   0.756   4.469
  1394G12  C00225709   7.029   0.624   4.444
  1394G12  C00125710   7.135   0.551   4.503
  1394G12  C00M25711   7.134   0.522   4.647
  1394G12  C00L25712   7.130   0.630   4.737
  1394G12  C00R25713   7.116   0.620   4.879
  1394G12  C00Q25714   7.108   0.514   4.973
  1394G12  C00V25715   7.083   0.555   5.105
  1394G12  C00U25716   7.029   0.682   5.136
  1394G12  C00T25717   7.020   0.780   5.046
  1394G12  C01625718   6.946   0.898   5.057
  1394G12  C01525719   6.884   0.925   5.177
  1394G12  C01025720   6.914   0.834   5.278
  1394G12  C01125721   6.856   0.862   5.407
  1394G12  H00525722   6.898   0.802   5.487
  1394G12  C01225723   6.771   0.971   5.427
  1394G12  C01725724   6.721   0.983   5.565
  1394G12  O00225725   6.726   0.871   5.647
  1394G12  H00425726   6.709   0.902   5.735
  1394G12  C01825727   6.686   1.101   5.619
  1394G12  O00125728   6.680   1.214   5.536
  1394G12  H00325729   6.750   1.188   5.478
  1394G12  C01925730   6.627   1.125   5.757
  1394G12  H00225731   6.623   1.232   5.779
  1394G12  H00125732   6.523   1.094   5.759
  1394G12  O00025733   6.711   1.054   5.843
  1394G12  C01A25734   6.657   1.032   5.964
  1394G12  C02K25735   6.604   0.905   5.990
  1394G12  O00G25736   6.607   0.804   5.895
  1394G12  C02M25737   6.610   0.669   5.930
  1394G12  H01G25738   6.656   0.603   5.856
  1394G12  H01F25739   6.513   0.632   5.961
  1394G12  H01E25740   6.679   0.656   6.013
  1394G12  C02J25741   6.549   0.883   6.122
  1394G12  H01H25742   6.518   0.782   6.142
  1394G12  C02I25743   6.522   0.987   6.211
  1394G12  C02N25744   6.452   0.982   6.342
  1394G12  H01M25745   6.452   1.070   6.405
  1394G12  C02O25746   6.394   0.870   6.387
  1394G12  H01L25747   6.373   0.785   6.324
  1394G12  C02P25748   6.346   0.841   6.528
  1394G12  H01K25749   6.244   0.805   6.516
  1394G12  H01J25750   6.411   0.764   6.568
  1394G12  O00H25751   6.342   0.950   6.616
  1394G12  H01I25752   6.428   0.979   6.641
  1394G12  C02H25753   6.566   1.115   6.168
  1394G12  H01C25754   6.559   1.201   6.233
  1394G12  C02L25755   6.644   1.134   6.057
  1394G12  H01D25756   6.688   1.232   6.045
  1394G12  C01325757   6.731   1.041   5.312
  1394G12  H00025758   6.648   1.104   5.340
  1394G12  C01425759   6.793   1.026   5.187
  1394G12  C00F25760   6.762   1.108   5.074
  1394G12  C00H25761   6.920   0.977   4.943
  1394G12  C00I25762   6.987   0.951   4.825
  1394G12  C00J25763   7.073   0.834   4.820
  1394G12  C00Z25764   6.994   0.716   5.259
  1394G12  C00Y25765   7.021   0.627   5.365
  1394G12  H00625766   6.997   0.653   5.468
  1394G12  C00X25767   7.070   0.502   5.343
  1394G12  O00325768   7.106   0.422   5.450
  1394G12  C01B25769   7.245   0.415   5.470
  1394G12  H00925770   7.294   0.510   5.451
  1394G12  H00825771   7.291   0.346   5.398
  1394G12  H00725772   7.261   0.391   5.575
  1394G12  C00W25773   7.089   0.460   5.210
  1394G12  O00425774   7.118   0.328   5.190
  1394G12  C01C25775   7.134   0.283   5.068
  1394G12  H00A25776   7.183   0.188   5.053
  1394G12  C00P25777   7.121   0.372   4.946
  1394G12  C00O25778   7.114   0.318   4.812
  1394G12  C01D25779   7.084   0.183   4.798
  1394G12  H00S25780   7.073   0.129   4.891
  1394G12  C01E25781   7.048   0.121   4.679
  1394G12  O00825782   7.016  -0.010   4.682
  1394G12  C01V25783   7.071  -0.091   4.579
  1394G12  C01Z25784   7.001  -0.226   4.571
  1394G12  H00R25785   6.896  -0.199   4.583
  1394G12  H00Q25786   7.006  -0.276   4.474
  1394G12  O00925787   7.061  -0.305   4.671
  1394G12  H00P25788   7.039  -0.253   4.747
  1394G12  C01W25789   7.183  -0.066   4.510
  1394G12  H00O25790   7.241   0.023   4.528
  1394G12  C01X25791   7.238  -0.157   4.400
  1394G12  H00N25792   7.341  -0.182   4.425
  1394G12  H00M25793   7.195  -0.257   4.396
  1394G12  C01Y25794   7.226  -0.091   4.262
  1394G12  C02D25795   7.305   0.023   4.232
  1394G12  H01925796   7.375   0.057   4.307
  1394G12  C02C25797   7.288   0.091   4.109
  1394G12  H01A25798   7.345   0.183   4.110
  1394G12  C02B25799   7.206   0.039   4.010
  1394G12  O00E25800   7.194   0.098   3.890
  1394G12  H01B25801   7.136   0.038   3.845
  1394G12  C02F25802   7.126  -0.075   4.037
  1394G12  O00F25803   7.046  -0.118   3.933
  1394G12  C02G25804   6.991  -0.247   3.929
  1394G12  H01725805   6.915  -0.259   4.006
  1394G12  H01625806   7.063  -0.329   3.929
  1394G12  H01525807   6.938  -0.249   3.834
  1394G12  C02E25808   7.129  -0.138   4.169
  1394G12  H01825809   7.073  -0.230   4.181
  1394G12  C01F25810   7.046   0.199   4.559
  1394G12  C01G25811   6.975   0.172   4.440
  1394G12  H00L25812   6.928   0.075   4.428
  1394G12  C01H25813   6.945   0.281   4.351
  1394G12  H00B25814   6.859   0.269   4.287
  1394G12  C01I25815   7.011   0.409   4.365
  1394G12  C01U25816   7.108   0.324   4.560
  1394G12  C00S25817   7.089   0.751   4.923
  1394G12  C00K25818   7.089   0.760   4.695
  1394G12  C00N25819   7.127   0.389   4.687
  1394G12  C00025820   7.116   0.418   4.452
  1394G12  C01J25821   6.966   0.546   4.347
  1394G12  C01K25822   6.859   0.586   4.258
  1394G12  C01P25823   6.810   0.517   4.140
  1394G12  C01Q25824   6.883   0.406   4.080
  1394G12  H00G25825   6.991   0.412   4.084
  1394G12  C01R25826   6.820   0.305   4.020
  1394G12  H00F25827   6.713   0.299   4.010
  1394G12  C01S25828   6.896   0.186   3.968
  1394G12  H00E25829   6.914   0.180   3.861
  1394G12  H00D25830   6.991   0.193   4.021
  1394G12  O00525831   6.833   0.070   4.022
  1394G12  H00C25832   6.893  -0.003   4.024
  1394G12  C01O25833   6.706   0.579   4.063
  1394G12  H00H25834   6.665   0.524   3.979
  1394G12  C01N25835   6.650   0.698   4.105
  1394G12  O00625836   6.540   0.754   4.039
  1394G12  C01T25837   6.476   0.679   3.940
  1394G12  H00K25838   6.380   0.731   3.938
  1394G12  H00J25839   6.467   0.573   3.964
  1394G12  H00I25840   6.528   0.679   3.844
  1394G12  C01M25841   6.693   0.763   4.217
  1394G12  C02025842   7.027   0.831   4.581
  1394G12  C02125843   6.970   0.965   4.592
  1394G12  C01L25844   6.810   0.715   4.291
  1394G12  O00725845   6.619   0.875   4.255
  1394G12  C02225846   6.864   1.001   4.509
  1394G12  C02325847   6.951   1.033   4.716
  1394G12  C00G25848   6.820   1.076   4.947
  1394G12  C00E25849   6.683   1.225   5.085
  1394G12  O00A25850   6.641   1.273   5.208
  1394G12  C02425851   6.508   1.312   5.245
  1394G12  H00V25852   6.482   1.412   5.211
  1394G12  H00U25853   6.502   1.312   5.354
  1394G12  H00T25854   6.437   1.233   5.221
  1404G12  C00D25855   4.302   1.426   7.131
  1404G12  O00B25856   4.234   1.507   7.220
  1404G12  C02525857   4.252   1.491   7.354
  1404G12  C02625858   4.180   1.383   7.421
  1404G12  H00Y25859   4.218   1.336   7.512
  1404G12  H00X25860   4.188   1.295   7.358
  1404G12  O00C25861   4.047   1.425   7.453
  1404G12  H00W25862   4.004   1.342   7.439
  1404G12  C02725863   4.334   1.583   7.410
  1404G12  O00D25864   4.376   1.690   7.342
  1404G12  H00Z25865   4.342   1.658   7.260
  1404G12  C02825866   4.369   1.570   7.553
  1404G12  C02925867   4.275   1.569   7.662
  1404G12  H01025868   4.170   1.583   7.643
  1404G12  C02T25869   4.320   1.554   7.794
  1404G12  H01O25870   4.253   1.559   7.879
  1404G12  C02S25871   4.461   1.558   7.818
  1404G12  O00J25872   4.511   1.543   7.942
  1404G12  H01P25873   4.600   1.515   7.927
  1404G12  C02R25874   4.556   1.582   7.717
  1404G12  O00I25875   4.687   1.593   7.754
  1404G12  C02Q25876   4.786   1.578   7.655
  1404G12  H01N25877   4.882   1.597   7.703
  1404G12  H01R25878   4.790   1.657   7.579
  1404G12  H01Q25879   4.785   1.479   7.609
  1404G12  C02A25880   4.505   1.579   7.586
  1404G12  H01125881   4.580   1.589   7.508
  1404G12  C00C25882   4.421   1.356   7.164
  1404G12  H01225883   4.456   1.362   7.266
  1404G12  C00B25884   4.482   1.267   7.073
  1404G12  C00A25885   4.592   1.189   7.093
  1404G12  C00925886   4.702   1.213   7.182
  1404G12  C00825887   4.737   1.304   7.283
  1404G12  H01325888   4.670   1.355   7.351
  1404G12  C00725889   4.874   1.322   7.315
  1404G12  H01425890   4.903   1.380   7.401
  1404G12  C00625891   4.973   1.249   7.246
  1404G12  C00525892   4.931   1.158   7.152
  1404G12  C00425893   5.028   1.102   7.060
  1404G12  C00325894   4.977   1.028   6.951
  1404G12  C00225895   5.074   0.978   6.851
  1404G12  C00125896   5.066   0.908   6.727
  1404G12  C00M25897   4.969   0.942   6.622
  1404G12  C00L25898   4.839   0.973   6.658
  1404G12  C00R25899   4.748   1.026   6.566
  1404G12  C00Q25900   4.749   1.068   6.428
  1404G12  C00V25901   4.630   1.138   6.386
  1404G12  C00U25902   4.532   1.184   6.474
  1404G12  C00T25903   4.534   1.143   6.605
  1404G12  C01625904   4.453   1.197   6.704
  1404G12  C01525905   4.356   1.285   6.669
  1404G12  C01025906   4.344   1.321   6.530
  1404G12  C01125907   4.245   1.422   6.498
  1404G12  H00525908   4.241   1.463   6.398
  1404G12  C01225909   4.166   1.486   6.592
  1404G12  C01725910   4.077   1.596   6.550
  1404G12  O00225911   4.115   1.679   6.448
  1404G12  H00425912   4.201   1.716   6.459
  1404G12  C01825913   3.955   1.617   6.605
  1404G12  O00125914   3.907   1.536   6.704
  1404G12  H00325915   3.815   1.557   6.704
  1404G12  C01925916   3.863   1.724   6.563
  1404G12  H00225917   3.859   1.798   6.643
  1404G12  H00125918   3.890   1.779   6.473
  1404G12  O00025919   3.733   1.659   6.555
  1404G12  C01A25920   3.622   1.728   6.601
  1404G12  C02K25921   3.598   1.758   6.734
  1404G12  O00G25922   3.692   1.715   6.827
  1404G12  C02M25923   3.643   1.707   6.959
  1404G12  H01G25924   3.720   1.658   7.019
  1404G12  H01F25925   3.554   1.646   6.973
  1404G12  H01E25926   3.617   1.804   7.001
  1404G12  C02J25927   3.480   1.827   6.773
  1404G12  H01H25928   3.457   1.849   6.876
  1404G12  C02I25929   3.391   1.872   6.671
  1404G12  C02N25930   3.281   1.954   6.714
  1404G12  H01M25931   3.218   1.914   6.792
  1404G12  C02O25932   3.269   2.082   6.663
  1404G12  H01L25933   3.353   2.124   6.610
  1404G12  C02P25934   3.157   2.168   6.712
  1404G12  H01K25935   3.101   2.214   6.630
  1404G12  H01J25936   3.077   2.112   6.762
  1404G12  O00H25937   3.211   2.266   6.794
  1404G12  H01I25938   3.272   2.310   6.736
  1404G12  C02H25939   3.424   1.847   6.535
  1404G12  H01C25940   3.356   1.882   6.458
  1404G12  C02L25941   3.535   1.769   6.499
  1404G12  H01D25942   3.551   1.751   6.393
  1404G12  C01325943   4.188   1.449   6.723
  1404G12  H00025944   4.129   1.513   6.787
  1404G12  C01425945   4.281   1.352   6.763
  1404G12  C00F25946   4.315   1.335   6.900
  1404G12  C00H25947   4.483   1.178   6.843
  1404G12  C00I25948   4.579   1.079   6.876
  1404G12  C00J25949   4.647   1.017   6.772
  1404G12  C00Z25950   4.431   1.273   6.435
  1404G12  C00Y25951   4.432   1.314   6.299
  1404G12  H00625952   4.352   1.378   6.264
  1404G12  C00X25953   4.539   1.281   6.207
  1404G12  O00325954   4.536   1.345   6.086
  1404G12  C01B25955   4.481   1.284   5.974
  1404G12  H00925956   4.372   1.272   5.979
  1404G12  H00825957   4.520   1.182   5.966
  1404G12  H00725958   4.519   1.338   5.888
  1404G12  C00W25959   4.637   1.191   6.253
  1404G12  O00425960   4.731   1.160   6.158
  1404G12  C01C25961   4.833   1.084   6.205
  1404G12  H00A25962   4.871   1.015   6.131
  1404G12  C00P25963   4.862   1.060   6.341
  1404G12  C00O25964   4.998   1.039   6.385
  1404G12  C01D25965   5.105   1.088   6.302
  1404G12  H00S25966   5.086   1.126   6.203
  1404G12  C01E25967   5.241   1.097   6.340
  1404G12  O00825968   5.328   1.164   6.262
  1404G12  C01V25969   5.410   1.082   6.188
  1404G12  C01Z25970   5.358   0.993   6.080
  1404G12  H00R25971   5.438   0.920   6.068
  1404G12  H00Q25972   5.275   0.937   6.122
  1404G12  O00925973   5.324   1.065   5.962
  1404G12  H00P25974   5.260   1.129   5.988
  1404G12  C01W25975   5.544   1.092   6.216
  1404G12  H00O25976   5.572   1.164   6.291
  1404G12  C01X25977   5.667   1.026   6.155
  1404G12  H00N25978   5.729   1.001   6.241
  1404G12  H00M25979   5.641   0.927   6.119
  1404G12  C01Y25980   5.728   1.115   6.056
  1404G12  C02D25981   5.866   1.106   6.039
  1404G12  H01925982   5.932   1.034   6.085
  1404G12  C02C25983   5.926   1.195   5.950
  1404G12  H01A25984   6.034   1.189   5.948
  1404G12  C02B25985   5.853   1.294   5.883
  1404G12  O00E25986   5.917   1.383   5.802
  1404G12  H01B25987   5.854   1.450   5.781
  1404G12  C02F25988   5.713   1.299   5.893
  1404G12  O00F25989   5.653   1.391   5.813
  1404G12  C02G25990   5.520   1.418   5.844
  1404G12  H01725991   5.484   1.496   5.777
  1404G12  H01625992   5.516   1.454   5.947
  1404G12  H01525993   5.459   1.329   5.828
  1404G12  C02E25994   5.650   1.212   5.980
  1404G12  H01825995   5.542   1.210   5.988
  1404G12  C01F25996   5.270   1.062   6.474
  1404G12  C01G25997   5.382   1.106   6.547
  1404G12  H00L25998   5.463   1.168   6.512
  1404G12  C01H25999   5.387   1.084   6.691
  1404G12  H00B26000   5.443   1.156   6.749
  1404G12  C01I26001   5.279   1.009   6.743
  1404G12  C01U26002   5.176   0.975   6.538
  1404G12  C00S26003   4.633   1.056   6.643
  1404G12  C00K26004   4.789   0.987   6.786
  1404G12  C00N26005   5.040   0.984   6.508
  1404G12  C00026006   5.197   0.924   6.670
  1404G12  C01J26007   5.208   1.021   6.868
  1404G12  C01K26008   5.265   1.084   6.983
  1404G12  C01P26009   5.399   1.097   7.022
  1404G12  C01Q26010   5.513   1.026   6.955
  1404G12  H00G26011   5.506   0.919   6.948
  1404G12  C01R26012   5.628   1.091   6.915
  1404G12  H00F26013   5.639   1.197   6.928
  1404G12  C01S26014   5.742   1.006   6.852
  1404G12  H00E26015   5.834   1.016   6.910
  1404G12  H00D26016   5.700   0.906   6.854
  1404G12  O00526017   5.755   1.051   6.712
  1404G12  H00C26018   5.695   0.998   6.662
  1404G12  C01O26019   5.431   1.170   7.136
  1404G12  H00H26020   5.536   1.185   7.155
  1404G12  C01N26021   5.338   1.232   7.217
  1404G12  O00626022   5.369   1.284   7.340
  1404G12  C01T26023   5.513   1.287   7.373
  1404G12  H00K26024   5.554   1.190   7.400
  1404G12  H00J26025   5.526   1.348   7.462
  1404G12  H00I26026   5.580   1.330   7.299
  1404G12  C01M26027   5.201   1.210   7.189
  1404G12  C02026028   4.839   1.012   6.921
  1404G12  C02126029   4.752   1.041   7.029
  1404G12  C01L26030   5.164   1.134   7.073
  1404G12  O00726031   5.106   1.266   7.272
  1404G12  C02226032   4.798   1.121   7.131
  1404G12  C02326033   4.619   1.080   7.011
  1404G12  C00G26034   4.428   1.261   6.939
  1404G12  C00E26035   4.247   1.406   7.002
  1404G12  O00A26036   4.122   1.460   6.994
  1404G12  C02426037   4.011   1.367   7.021
  1404G12  H00V26038   4.036   1.312   7.111
  1404G12  H00U26039   3.975   1.303   6.940
  1404G12  H00T26040   3.924   1.428   7.045
   7.00000   7.00000  17.00000   0.00000   0.00000   0.00000   0.00000   0.00000   0.00000
