generated by VMD, t= 0.000000
186
    14G12c C00D    1   2.268   3.956   5.233
    14G12c O00B    2   2.329   4.061   5.168
    14G12c C025    3   2.457   4.109   5.201
    14G12c C026    4   2.467   4.142   5.348
    14G12c H00Y    5   2.373   4.180   5.388
    14G12c H00X    6   2.536   4.223   5.372
    14G12c O00C    7   2.505   4.024   5.425
    14G12c H00W    8   2.432   4.001   5.480
    14G12c C027    9   2.554   4.111   5.108
    14G12c O00D   10   2.526   4.072   4.983
    14G12c H00Z   11   2.433   4.068   4.994
    14G12c C028   12   2.680   4.175   5.131
    14G12c C029   13   2.760   4.136   5.239
    14G12c H010   14   2.731   4.058   5.308
    14G12c C02T   15   2.896   4.179   5.262
    14G12c H01O   16   2.956   4.130   5.337
    14G12c C02S   17   2.946   4.276   5.169
    14G12c O00J   18   3.075   4.321   5.181
    14G12c H01P   19   3.100   4.369   5.103
    14G12c C02R   20   2.871   4.328   5.066
    14G12c O00I   21   2.933   4.415   4.979
    14G12c C02Q   22   2.958   4.348   4.847
    14G12c H01N   23   2.990   4.248   4.877
    14G12c H01R   24   3.030   4.408   4.792
    14G12c H01Q   25   2.864   4.348   4.791
    14G12c C02A   26   2.744   4.266   5.041
    14G12c H011   27   2.691   4.291   4.949
    14G12c C00C   28   2.329   3.838   5.283
    14G12c H012   29   2.432   3.823   5.254
    14G12c C00B   30   2.262   3.742   5.355
    14G12c C00A   31   2.326   3.625   5.417
    14G12c C009   32   2.450   3.558   5.396
    14G12c C008   33   2.563   3.562   5.308
    14G12c H013   34   2.577   3.648   5.244
    14G12c C007   35   2.647   3.453   5.291
    14G12c H014   36   2.728   3.450   5.219
    14G12c C006   37   2.615   3.325   5.347
    14G12c C005   38   2.504   3.324   5.431
    14G12c C004   39   2.441   3.204   5.473
    14G12c C003   40   2.317   3.198   5.545
    14G12c C002   41   2.256   3.068   5.566
    14G12c C001   42   2.130   3.025   5.628
    14G12c C00M   43   1.994   3.089   5.601
    14G12c C00L   44   1.985   3.229   5.595
    14G12c C00R   45   1.874   3.300   5.534
    14G12c C00Q   46   1.749   3.254   5.475
    14G12c C00V   47   1.664   3.365   5.436
    14G12c C00U   48   1.713   3.499   5.419
    14G12c C00T   49   1.846   3.526   5.445
    14G12c C016   50   1.912   3.640   5.411
    14G12c C015   51   1.841   3.741   5.351
    14G12c C010   52   1.703   3.722   5.332
    14G12c C011   53   1.630   3.832   5.267
    14G12c H005   54   1.522   3.834   5.267
    14G12c C012   55   1.692   3.945   5.217
    14G12c C017   56   1.623   4.057   5.165
    14G12c O002   57   1.665   4.183   5.208
    14G12c H004   58   1.624   4.243   5.148
    14G12c C018   59   1.523   4.035   5.079
    14G12c O001   60   1.506   3.912   5.023
    14G12c H003   61   1.570   3.857   5.066
    14G12c C019   62   1.442   4.147   5.009
    14G12c H002   63   1.473   4.156   4.905
    14G12c H001   64   1.343   4.102   5.002
    14G12c O000   65   1.442   4.270   5.085
    14G12c C01A   66   1.399   4.386   5.023
    14G12c C02K   67   1.277   4.407   4.953
    14G12c O00G   68   1.182   4.306   4.945
    14G12c C02M   69   1.107   4.300   5.064
    14G12c H01G   70   1.071   4.198   5.072
    14G12c H01F   71   1.028   4.375   5.071
    14G12c H01E   72   1.172   4.306   5.151
    14G12c C02J   73   1.245   4.532   4.897
    14G12c H01H   74   1.147   4.529   4.851
    14G12c C02I   75   1.329   4.641   4.915
    14G12c C02N   76   1.284   4.774   4.870
    14G12c H01M   77   1.180   4.794   4.851
    14G12c C02O   78   1.369   4.872   4.853
    14G12c H01L   79   1.473   4.866   4.885
    14G12c C02P   80   1.338   5.010   4.814
    14G12c H01K   81   1.378   5.018   4.713
    14G12c H01J   82   1.233   5.036   4.802
    14G12c O00H   83   1.397   5.113   4.895
    14G12c H01I   84   1.348   5.121   4.975
    14G12c C02H   85   1.455   4.616   4.980
    14G12c H01C   86   1.528   4.694   4.992
    14G12c C02L   87   1.486   4.496   5.038
    14G12c H01D   88   1.578   4.495   5.095
    14G12c C013   89   1.833   3.950   5.233
    14G12c H000   90   1.875   4.039   5.189
    14G12c C014   91   1.911   3.848   5.293
    14G12c C00F   92   2.050   3.859   5.301
    14G12c C00H   93   2.046   3.655   5.436
    14G12c C00I   94   2.112   3.557   5.511
    14G12c C00J   95   2.036   3.451   5.566
    14G12c C00Z   96   1.638   3.602   5.366
    14G12c C00Y   97   1.508   3.577   5.337
    14G12c H006   98   1.442   3.653   5.299
    14G12c C00X   99   1.453   3.448   5.353
    14G12c O003  100   1.321   3.436   5.324
    14G12c C01B  101   1.296   3.391   5.188
    14G12c H009  102   1.190   3.369   5.182
    14G12c H008  103   1.352   3.299   5.169
    14G12c H007  104   1.314   3.464   5.109
    14G12c C00W  105   1.536   3.340   5.380
    14G12c O004  106   1.484   3.219   5.385
    14G12c C01C  107   1.571   3.110   5.404
    14G12c H00A  108   1.519   3.017   5.417
    14G12c C00P  109   1.704   3.118   5.452
    14G12c C00O  110   1.790   3.002   5.462
    14G12c C01D  111   1.741   2.875   5.411
    14G12c H00S  112   1.641   2.855   5.375
    14G12c C01E  113   1.829   2.773   5.382
    14G12c O008  114   1.795   2.673   5.298
    14G12c C01V  115   1.697   2.580   5.328
    14G12c C01Z  116   1.688   2.486   5.206
    14G12c H00R  117   1.641   2.391   5.233
    14G12c H00Q  118   1.630   2.548   5.137
    14G12c O009  119   1.822   2.447   5.169
    14G12c H00P  120   1.863   2.530   5.184
    14G12c C01W  121   1.611   2.567   5.435
    14G12c H00O  122   1.621   2.625   5.526
    14G12c C01X  123   1.505   2.454   5.442
    14G12c H00N  124   1.421   2.507   5.488
    14G12c H00M  125   1.463   2.423   5.346
    14G12c C01Y  126   1.549   2.336   5.518
    14G12c C02D  127   1.459   2.248   5.587
    14G12c H019  128   1.351   2.256   5.579
    14G12c C02C  129   1.498   2.134   5.654
    14G12c H01A  130   1.439   2.062   5.710
    14G12c C02B  131   1.632   2.108   5.649
    14G12c O00E  132   1.669   1.990   5.698
    14G12c H01B  133   1.758   1.990   5.664
    14G12c C02F  134   1.728   2.185   5.585
    14G12c O00F  135   1.853   2.130   5.572
    14G12c C02G  136   1.957   2.226   5.553
    14G12c H017  137   2.057   2.185   5.570
    14G12c H016  138   1.953   2.316   5.615
    14G12c H015  139   1.953   2.255   5.448
    14G12c C02E  140   1.684   2.300   5.519
    14G12c H018  141   1.757   2.363   5.470
    14G12c C01F  142   1.958   2.775   5.425
    14G12c C01G  143   2.075   2.704   5.383
    14G12c H00L  144   2.057   2.636   5.302
    14G12c C01H  145   2.205   2.745   5.411
    14G12c H00B  146   2.291   2.707   5.357
    14G12c C01I  147   2.229   2.850   5.508
    14G12c C01U  148   1.991   2.877   5.521
    14G12c C00S  149   1.910   3.434   5.525
    14G12c C00K  150   2.096   3.326   5.593
    14G12c C00N  151   1.915   2.997   5.528
    14G12c C000  152   2.114   2.891   5.584
    14G12c C01J  153   2.328   2.951   5.521
    14G12c C01K  154   2.456   2.947   5.451
    14G12c C01P  155   2.532   2.830   5.412
    14G12c C01Q  156   2.508   2.708   5.471
    14G12c H00G  157   2.469   2.696   5.571
    14G12c C01R  158   2.541   2.590   5.406
    14G12c H00F  159   2.570   2.577   5.303
    14G12c C01S  160   2.545   2.455   5.474
    14G12c H00E  161   2.637   2.400   5.453
    14G12c H00D  162   2.559   2.478   5.579
    14G12c O005  163   2.425   2.386   5.447
    14G12c H00C  164   2.409   2.373   5.355
    14G12c C01O  165   2.644   2.843   5.333
    14G12c H00H  166   2.706   2.757   5.313
    14G12c C01N  167   2.687   2.972   5.291
    14G12c O006  168   2.791   2.996   5.202
    14G12c C01T  169   2.855   2.885   5.137
    14G12c H00K  170   2.940   2.919   5.078
    14G12c H00J  171   2.791   2.831   5.068
    14G12c H00I  172   2.894   2.817   5.212
    14G12c C01M  173   2.625   3.090   5.348
    14G12c C020  174   2.239   3.320   5.571
    14G12c C021  175   2.316   3.436   5.545
    14G12c C01L  176   2.507   3.081   5.435
    14G12c O007  177   2.685   3.214   5.314
    14G12c C022  178   2.435   3.443   5.471
    14G12c C023  179   2.250   3.557   5.517
    14G12c C00G  180   2.120   3.748   5.361
    14G12c C00E  181   2.128   3.967   5.243
    14G12c O00A  182   2.071   4.079   5.186
    14G12c C024  183   2.055   4.190   5.270
    14G12c H00V  184   1.971   4.172   5.336
    14G12c H00U  185   2.029   4.270   5.201
    14G12c H00T  186   2.141   4.219   5.332
   6.52112   6.52112   6.52112   0.00000   0.00000   0.00000   0.00000   0.00000   0.00000
